Title t= 424.00000 step= 212000
44463
    1GLY      N    1   2.440   3.159   4.112
    1GLY    HT1    2   2.524   3.202   4.154
    1GLY    HT2    3   2.365   3.175   4.182
    1GLY    HT3    4   2.418   3.218   4.029
    1GLY     CA    5   2.439   3.013   4.071
    1GLY    HA1    6   2.489   3.002   3.976
    1GLY    HA2    7   2.333   2.991   4.061
    1GLY      C    8   2.504   2.918   4.176
    1GLY      O    9   2.532   2.961   4.288
    2PRO      N   10   2.525   2.789   4.142
    2PRO     CD   11   2.456   2.716   4.025
    2PRO    HD1   12   2.497   2.759   3.930
    2PRO    HD2   13   2.349   2.740   4.038
    2PRO     CA   14   2.587   2.694   4.233
    2PRO     HA   15   2.570   2.713   4.337
    2PRO     CB   16   2.521   2.556   4.205
    2PRO    HB1   17   2.428   2.544   4.264
    2PRO    HB2   18   2.578   2.462   4.221
    2PRO     CG   19   2.481   2.564   4.051
    2PRO    HG1   20   2.568   2.527   3.994
    2PRO    HG2   21   2.390   2.506   4.026
    2PRO      C   22   2.743   2.686   4.205
    2PRO      O   23   2.784   2.698   4.093
    3GLY      N   24   2.825   2.674   4.313
    3GLY     HN   25   2.800   2.695   4.407
    3GLY     CA   26   2.968   2.676   4.296
    3GLY    HA1   27   3.003   2.715   4.390
    3GLY    HA2   28   2.994   2.731   4.206
    3GLY      C   29   3.029   2.533   4.279
    3GLY      O   30   2.973   2.455   4.207
    4ASP      N   31   3.140   2.501   4.351
    4ASP     HN   32   3.181   2.566   4.414
    4ASP     CA   33   3.220   2.381   4.329
    4ASP     HA   34   3.258   2.388   4.228
    4ASP     CB   35   3.329   2.370   4.436
    4ASP    HB1   36   3.380   2.272   4.435
    4ASP    HB2   37   3.273   2.388   4.530
    4ASP     CG   38   3.444   2.473   4.422
    4ASP    OD1   39   3.421   2.593   4.386
    4ASP    OD2   40   3.556   2.444   4.466
    4ASP      C   41   3.148   2.246   4.337
    4ASP      O   42   3.053   2.230   4.412
    5PRO      N   43   3.185   2.130   4.269
    5PRO     CD   44   3.282   2.131   4.156
    5PRO    HD1   45   3.382   2.122   4.204
    5PRO    HD2   46   3.284   2.219   4.089
    5PRO     CA   47   3.127   1.998   4.282
    5PRO     HA   48   3.025   1.999   4.248
    5PRO     CB   49   3.215   1.910   4.193
    5PRO    HB1   50   3.168   1.817   4.156
    5PRO    HB2   51   3.305   1.880   4.251
    5PRO     CG   52   3.252   2.004   4.075
    5PRO    HG1   53   3.336   1.979   4.007
    5PRO    HG2   54   3.155   2.025   4.025
    5PRO      C   55   3.106   1.944   4.433
    5PRO      O   56   3.181   1.981   4.526
    6GLY      N   57   3.001   1.868   4.460
    6GLY     HN   58   2.935   1.842   4.389
    6GLY     CA   59   2.975   1.797   4.588
    6GLY    HA1   60   2.871   1.769   4.596
    6GLY    HA2   61   2.996   1.862   4.672
    6GLY      C   62   3.051   1.669   4.605
    6GLY      O   63   3.132   1.640   4.520
    7PRO      N   64   3.025   1.583   4.703
    7PRO     CD   65   2.946   1.632   4.820
    7PRO    HD1   66   2.840   1.641   4.791
    7PRO    HD2   67   2.994   1.726   4.852
    7PRO     CA   68   3.065   1.444   4.736
    7PRO     HA   69   3.170   1.448   4.760
    7PRO     CB   70   2.977   1.397   4.854
    7PRO    HB1   71   3.019   1.310   4.908
    7PRO    HB2   72   2.883   1.359   4.810
    7PRO     CG   73   2.970   1.530   4.936
    7PRO    HG1   74   2.888   1.515   5.010
    7PRO    HG2   75   3.065   1.552   4.989
    7PRO      C   76   3.050   1.357   4.611
    7PRO      O   77   2.940   1.364   4.558
    8GLY      N   78   3.150   1.274   4.569
    8GLY     HN   79   3.230   1.255   4.624
    8GLY     CA   80   3.148   1.195   4.439
    8GLY    HA1   81   3.064   1.127   4.441
    8GLY    HA2   82   3.240   1.140   4.428
    8GLY      C   83   3.127   1.275   4.315
    8GLY      O   84   3.163   1.388   4.309
    9ASP      N   85   3.077   1.200   4.207
    9ASP     HN   86   3.039   1.111   4.228
    9ASP     CA   87   3.040   1.255   4.076
    9ASP     HA   88   3.133   1.299   4.045
    9ASP     CB   89   2.995   1.161   3.968
    9ASP    HB1   90   3.000   1.211   3.869
    9ASP    HB2   91   2.892   1.123   3.983
    9ASP     CG   92   3.092   1.038   3.963
    9ASP    OD1   93   3.051   0.926   3.923
    9ASP    OD2   94   3.214   1.069   3.975
    9ASP      C   95   2.928   1.360   4.088
    9ASP      O   96   2.849   1.334   4.175
   10PRO      N   97   2.927   1.474   4.016
   10PRO     CD   98   3.041   1.532   3.941
   10PRO    HD1   99   3.056   1.485   3.841
   10PRO    HD2  100   3.133   1.526   4.004
   10PRO     CA  101   2.807   1.561   4.002
   10PRO     HA  102   2.803   1.616   4.095
   10PRO     CB  103   2.851   1.660   3.888
   10PRO    HB1  104   2.804   1.759   3.908
   10PRO    HB2  105   2.826   1.611   3.792
   10PRO     CG  106   2.999   1.679   3.913
   10PRO    HG1  107   3.055   1.728   3.831
   10PRO    HG2  108   3.012   1.736   4.008
   10PRO      C  109   2.675   1.488   3.980
   10PRO      O  110   2.666   1.400   3.899
   11GLY      N  111   2.563   1.542   4.044
   11GLY     HN  112   2.578   1.607   4.118
   11GLY     CA  113   2.423   1.498   4.011
   11GLY    HA1  114   2.430   1.429   3.928
   11GLY    HA2  115   2.367   1.583   3.975
   11GLY      C  116   2.357   1.417   4.118
   11GLY      O  117   2.410   1.306   4.138
   12PRO      N  118   2.253   1.459   4.187
   12PRO     CD  119   2.194   1.598   4.171
   12PRO    HD1  120   2.137   1.592   4.076
   12PRO    HD2  121   2.266   1.681   4.184
   12PRO     CA  122   2.195   1.394   4.304
   12PRO     HA  123   2.255   1.425   4.389
   12PRO     CB  124   2.053   1.461   4.298
   12PRO    HB1  125   1.992   1.416   4.379
   12PRO    HB2  126   2.007   1.422   4.205
   12PRO     CG  127   2.086   1.612   4.289
   12PRO    HG1  128   1.999   1.672   4.252
   12PRO    HG2  129   2.117   1.646   4.389
   12PRO      C  130   2.193   1.238   4.311
   12PRO      O  131   2.149   1.170   4.219
   13GLY      N  132   2.236   1.176   4.425
   13GLY     HN  133   2.282   1.227   4.498
   13GLY     CA  134   2.239   1.029   4.441
   13GLY    HA1  135   2.298   1.005   4.529
   13GLY    HA2  136   2.278   0.991   4.348
   13GLY      C  137   2.106   0.953   4.460
   13GLY      O  138   2.005   1.008   4.428
   14ASP      N  139   2.105   0.823   4.508
   14ASP     HN  140   2.190   0.771   4.519
   14ASP     CA  141   1.993   0.752   4.559
   14ASP     HA  142   1.924   0.742   4.476
   14ASP     CB  143   2.032   0.612   4.619
   14ASP    HB1  144   1.952   0.562   4.679
   14ASP    HB2  145   2.115   0.636   4.688
   14ASP     CG  146   2.081   0.519   4.511
   14ASP    OD1  147   2.018   0.497   4.400
   14ASP    OD2  148   2.170   0.440   4.553
   14ASP      C  149   1.927   0.834   4.669
   14ASP      O  150   1.999   0.906   4.745
   15PRO      N  151   1.795   0.829   4.685
   15PRO     CD  152   1.700   0.759   4.604
   15PRO    HD1  153   1.734   0.657   4.574
   15PRO    HD2  154   1.684   0.818   4.511
   15PRO     CA  155   1.726   0.918   4.788
   15PRO     HA  156   1.746   1.023   4.773
   15PRO     CB  157   1.577   0.890   4.769
   15PRO    HB1  158   1.533   0.966   4.701
   15PRO    HB2  159   1.521   0.880   4.864
   15PRO     CG  160   1.571   0.756   4.694
   15PRO    HG1  161   1.584   0.679   4.773
   15PRO    HG2  162   1.481   0.750   4.630
   15PRO      C  163   1.769   0.895   4.933
   15PRO    OT1  164   1.794   0.782   4.984
   15PRO    OT2  165   1.764   0.993   5.006
   16LIT    LIT  166   1.810   0.874   5.153
   17LIT    LIT  167   2.136   1.899   4.716
   18LIT    LIT  168   3.251   7.241   1.141
   19LIT    LIT  169   5.613   4.810   2.722
   20LIT    LIT  170   2.514   5.399   1.990
   21LIT    LIT  171   1.130   2.382   3.397
   22LIT    LIT  172   1.126   1.877   4.845
   23LIT    LIT  173   1.857   2.566   2.601
   24LIT    LIT  174   2.021   5.578   0.071
   25LIT    LIT  175   2.643   7.770   3.165
   26LIT    LIT  176   6.681   3.092   3.695
   27LIT    LIT  177   2.005   3.683   6.176
   28LIT    LIT  178   4.715   2.351   5.169
   29LIT    LIT  179   2.426   6.475   1.170
   30LIT    LIT  180   5.038   3.154   0.197
   31LIT    LIT  181   7.205   6.224   6.343
   32LIT    LIT  182   4.588   4.368   0.361
   33LIT    LIT  183   7.642   3.169   1.793
   34LIT    LIT  184   4.011   6.474   2.901
   35LIT    LIT  185   6.689   0.054   6.183
   36LIT    LIT  186   0.976   7.141   4.521
   37LIT    LIT  187   1.640   5.652   0.501
   38LIT    LIT  188   3.874   6.986   4.025
   39LIT    LIT  189   3.064   0.341   3.172
   40LIT    LIT  190   1.062   1.220   3.179
   41LIT    LIT  191   2.284   7.246   4.253
   42LIT    LIT  192   2.632   5.924   6.269
   43LIT    LIT  193   3.596   3.167   0.896
   44LIT    LIT  194   7.249   0.113   6.028
   45LIT    LIT  195   6.596   6.690   2.337
   46LIT    LIT  196   4.920   1.285   6.731
   47LIT    LIT  197   1.665   5.529   2.611
   48LIT    LIT  198   6.957   1.837   3.630
   49LIT    LIT  199   1.208   0.474   6.418
   50LIT    LIT  200   0.216   0.911   4.135
   51LIT    LIT  201   2.493   0.605   2.262
   52LIT    LIT  202   6.561   6.759   0.163
   53LIT    LIT  203   0.776   3.993   1.052
   54LIT    LIT  204   0.169   2.993   2.528
   55LIT    LIT  205   5.318   7.597   3.318
   56LIT    LIT  206   7.796   1.473   2.109
   57LIT    LIT  207   6.834   5.839   0.799
   58LIT    LIT  208   2.124   0.338   4.385
   59LIT    LIT  209   0.476   5.687   4.133
   60LIT    LIT  210   2.898   4.208   3.878
   61CLA    CLA  211   7.826   6.008   3.499
   62CLA    CLA  212   0.519   5.168   4.780
   63CLA    CLA  213   8.179   1.396   4.308
   64CLA    CLA  214   6.604   2.924   0.682
   65CLA    CLA  215   0.756   1.263   0.646
   66CLA    CLA  216   0.790   2.063   4.667
   67CLA    CLA  217   6.736   6.831   5.741
   68CLA    CLA  218   6.248   0.066   3.761
   69CLA    CLA  219   2.512   2.671   5.576
   70CLA    CLA  220   5.474   5.443   6.419
   71CLA    CLA  221   7.288   4.913   6.361
   72CLA    CLA  222   3.324   5.589   1.742
   73CLA    CLA  223   0.620   2.914   2.587
   74CLA    CLA  224   0.412   5.005   4.003
   75CLA    CLA  225   3.045   7.247   4.850
   76CLA    CLA  226   3.997   1.298   1.567
   77CLA    CLA  227   2.833   6.826   4.205
   78CLA    CLA  228   5.007   6.068   2.031
   79CLA    CLA  229   5.048   2.089   5.383
   80CLA    CLA  230   0.980   6.010   2.280
   81CLA    CLA  231   5.037   6.330   5.360
   82CLA    CLA  232   0.635   0.218   6.028
   83CLA    CLA  233   2.808   3.996   0.369
   84CLA    CLA  234   0.269   0.326   1.346
   85CLA    CLA  235   2.156   5.702   4.572
   86CLA    CLA  236   7.777   4.829   3.268
   87CLA    CLA  237   4.177   6.536   1.912
   88CLA    CLA  238   4.396   3.898   0.809
   89CLA    CLA  239   5.584   2.890   5.674
   90CLA    CLA  240   6.665   1.574   0.899
   91CLA    CLA  241   4.919   3.917   3.923
   92CLA    CLA  242   4.715   7.717   6.632
   93CLA    CLA  243   5.247   1.416   3.720
   94CLA    CLA  244   2.301   2.947   6.675
   95CLA    CLA  245   3.048   6.130   3.019
   96CLA    CLA  246   0.160   2.091   2.968
   97CLA    CLA  247   8.199   1.949   4.180
   98CLA    CLA  248   1.352   6.801   5.909
   99CLA    CLA  249   7.640   3.033   1.986
  100CLA    CLA  250   2.107   3.173   4.822
  101CLA    CLA  251   1.085   2.412   3.613
  102CLA    CLA  252   7.345   7.387   5.402
  103TIP3   OH2  253   3.402   5.883   1.750
  103TIP3    H1  254   3.392   5.787   1.751
  103TIP3    H2  255   3.477   5.899   1.694
  104TIP3   OH2  256   0.145   2.373   1.454
  104TIP3    H1  257   0.238   2.353   1.440
  104TIP3    H2  258   0.111   2.297   1.500
  105TIP3   OH2  259   7.955   1.561   3.262
  105TIP3    H1  260   7.916   1.644   3.290
  105TIP3    H2  261   8.049   1.580   3.254
  106TIP3   OH2  262   5.947   6.170   0.620
  106TIP3    H1  263   5.886   6.125   0.561
  106TIP3    H2  264   5.895   6.240   0.659
  107TIP3   OH2  265   1.606   2.482   1.487
  107TIP3    H1  266   1.540   2.443   1.430
  107TIP3    H2  267   1.558   2.506   1.567
  108TIP3   OH2  268   6.724   0.392   6.593
  108TIP3    H1  269   6.731   0.296   6.590
  108TIP3    H2  270   6.641   0.411   6.550
  109TIP3   OH2  271   2.146   0.936   3.104
  109TIP3    H1  272   2.159   0.877   3.179
  109TIP3    H2  273   2.147   1.024   3.143
  110TIP3   OH2  274   4.574   5.591   5.194
  110TIP3    H1  275   4.486   5.574   5.226
  110TIP3    H2  276   4.579   5.542   5.112
  111TIP3   OH2  277   6.801   6.074   5.337
  111TIP3    H1  278   6.800   6.156   5.385
  111TIP3    H2  279   6.730   6.023   5.375
  112TIP3   OH2  280   2.528   5.029   6.252
  112TIP3    H1  281   2.617   5.024   6.288
  112TIP3    H2  282   2.479   5.079   6.316
  113TIP3   OH2  283   1.335   7.466   1.958
  113TIP3    H1  284   1.249   7.424   1.951
  113TIP3    H2  285   1.391   7.419   1.896
  114TIP3   OH2  286   5.999   5.888   0.766
  114TIP3    H1  287   5.949   5.834   0.704
  114TIP3    H2  288   5.971   5.977   0.747
  115TIP3   OH2  289   7.501   0.450   3.750
  115TIP3    H1  290   7.510   0.488   3.837
  115TIP3    H2  291   7.452   0.369   3.764
  116TIP3   OH2  292   2.352   3.008   4.965
  116TIP3    H1  293   2.276   3.064   4.979
  116TIP3    H2  294   2.427   3.066   4.975
  117TIP3   OH2  295   6.445   3.075   3.306
  117TIP3    H1  296   6.425   3.119   3.224
  117TIP3    H2  297   6.532   3.037   3.293
  118TIP3   OH2  298   0.113   3.279   0.055
  118TIP3    H1  299   0.022   3.251   0.067
  118TIP3    H2  300   0.108   3.348  -0.011
  119TIP3   OH2  301   4.346   0.228   3.198
  119TIP3    H1  302   4.353   0.138   3.229
  119TIP3    H2  303   4.370   0.223   3.105
  120TIP3   OH2  304   3.088   2.247   4.857
  120TIP3    H1  305   3.073   2.190   4.932
  120TIP3    H2  306   3.181   2.268   4.861
  121TIP3   OH2  307   3.632   4.367   1.113
  121TIP3    H1  308   3.712   4.329   1.079
  121TIP3    H2  309   3.619   4.326   1.198
  122TIP3   OH2  310   5.984   6.374   4.460
  122TIP3    H1  311   6.024   6.288   4.450
  122TIP3    H2  312   5.903   6.370   4.408
  123TIP3   OH2  313   5.080   4.418   1.796
  123TIP3    H1  314   5.157   4.372   1.763
  123TIP3    H2  315   5.006   4.375   1.754
  124TIP3   OH2  316   7.648   5.912   3.734
  124TIP3    H1  317   7.707   5.926   3.660
  124TIP3    H2  318   7.707   5.890   3.807
  125TIP3   OH2  319   7.268   5.827   4.666
  125TIP3    H1  320   7.200   5.889   4.640
  125TIP3    H2  321   7.305   5.795   4.584
  126TIP3   OH2  322   0.220   3.129   0.917
  126TIP3    H1  323   0.244   3.048   0.961
  126TIP3    H2  324   0.304   3.168   0.892
  127TIP3   OH2  325   4.453   7.541   1.095
  127TIP3    H1  326   4.520   7.515   1.031
  127TIP3    H2  327   4.434   7.633   1.072
  128TIP3   OH2  328   2.877   2.725   1.572
  128TIP3    H1  329   2.873   2.808   1.619
  128TIP3    H2  330   2.830   2.742   1.490
  129TIP3   OH2  331   1.739   2.066   0.391
  129TIP3    H1  332   1.674   2.120   0.346
  129TIP3    H2  333   1.791   2.028   0.321
  130TIP3   OH2  334   6.242   2.338   1.669
  130TIP3    H1  335   6.242   2.324   1.764
  130TIP3    H2  336   6.230   2.432   1.658
  131TIP3   OH2  337   6.360   6.502   5.478
  131TIP3    H1  338   6.408   6.521   5.558
  131TIP3    H2  339   6.407   6.427   5.439
  132TIP3   OH2  340   4.223   3.109   2.529
  132TIP3    H1  341   4.299   3.126   2.473
  132TIP3    H2  342   4.260   3.093   2.616
  133TIP3   OH2  343   4.749   5.999   6.498
  133TIP3    H1  344   4.819   5.969   6.440
  133TIP3    H2  345   4.713   6.076   6.454
  134TIP3   OH2  346   7.887   7.432   2.822
  134TIP3    H1  347   7.881   7.408   2.914
  134TIP3    H2  348   7.899   7.527   2.822
  135TIP3   OH2  349   5.314   5.426   5.514
  135TIP3    H1  350   5.291   5.518   5.526
  135TIP3    H2  351   5.410   5.426   5.513
  136TIP3   OH2  352   7.634   2.266   1.926
  136TIP3    H1  353   7.664   2.298   2.011
  136TIP3    H2  354   7.626   2.344   1.872
  137TIP3   OH2  355   3.895   5.473   1.059
  137TIP3    H1  356   3.974   5.418   1.062
  137TIP3    H2  357   3.824   5.414   1.084
  138TIP3   OH2  358   4.155   4.143   5.147
  138TIP3    H1  359   4.179   4.103   5.231
  138TIP3    H2  360   4.059   4.150   5.151
  139TIP3   OH2  361   5.125   1.205   6.411
  139TIP3    H1  362   5.065   1.240   6.345
  139TIP3    H2  363   5.208   1.249   6.394
  140TIP3   OH2  364   1.202   7.203   1.399
  140TIP3    H1  365   1.124   7.161   1.433
  140TIP3    H2  366   1.272   7.176   1.458
  141TIP3   OH2  367   3.889   6.200   1.976
  141TIP3    H1  368   3.895   6.273   2.038
  141TIP3    H2  369   3.798   6.171   1.982
  142TIP3   OH2  370   4.845   7.094   3.223
  142TIP3    H1  371   4.812   7.006   3.205
  142TIP3    H2  372   4.781   7.131   3.284
  143TIP3   OH2  373   8.228   6.150   0.159
  143TIP3    H1  374   8.233   6.196   0.075
  143TIP3    H2  375   8.319   6.140   0.187
  144TIP3   OH2  376   0.461   5.194   2.373
  144TIP3    H1  377   0.384   5.178   2.318
  144TIP3    H2  378   0.458   5.125   2.439
  145TIP3   OH2  379   5.813   4.046   5.834
  145TIP3    H1  380   5.778   4.131   5.862
  145TIP3    H2  381   5.908   4.055   5.843
  146TIP3   OH2  382   5.472   7.459   2.365
  146TIP3    H1  383   5.511   7.495   2.285
  146TIP3    H2  384   5.440   7.372   2.339
  147TIP3   OH2  385   1.140   3.932   4.441
  147TIP3    H1  386   1.049   3.960   4.432
  147TIP3    H2  387   1.137   3.864   4.508
  148TIP3   OH2  388   8.005   4.099   0.870
  148TIP3    H1  389   7.954   4.176   0.893
  148TIP3    H2  390   8.007   4.046   0.949
  149TIP3   OH2  391   3.280   4.072   0.547
  149TIP3    H1  392   3.219   4.100   0.479
  149TIP3    H2  393   3.294   3.979   0.531
  150TIP3   OH2  394   5.577   6.804   4.097
  150TIP3    H1  395   5.582   6.793   4.192
  150TIP3    H2  396   5.584   6.715   4.062
  151TIP3   OH2  397   2.005   5.155   4.164
  151TIP3    H1  398   2.013   5.248   4.141
  151TIP3    H2  399   2.054   5.110   4.095
  152TIP3   OH2  400   5.888   3.091   5.475
  152TIP3    H1  401   5.812   3.118   5.423
  152TIP3    H2  402   5.867   3.001   5.503
  153TIP3   OH2  403   0.072   5.366   2.763
  153TIP3    H1  404   0.095   5.400   2.676
  153TIP3    H2  405   0.006   5.299   2.745
  154TIP3   OH2  406   0.323   1.293   5.201
  154TIP3    H1  407   0.319   1.386   5.224
  154TIP3    H2  408   0.330   1.292   5.105
  155TIP3   OH2  409   5.119   2.876   0.534
  155TIP3    H1  410   5.102   2.785   0.511
  155TIP3    H2  411   5.211   2.878   0.560
  156TIP3   OH2  412   8.215   4.339   5.532
  156TIP3    H1  413   8.242   4.322   5.622
  156TIP3    H2  414   8.229   4.433   5.520
  157TIP3   OH2  415   7.879   2.239   1.224
  157TIP3    H1  416   7.820   2.167   1.200
  157TIP3    H2  417   7.850   2.313   1.171
  158TIP3   OH2  418   1.340   2.417   1.549
  158TIP3    H1  419   1.303   2.335   1.514
  158TIP3    H2  420   1.264   2.473   1.564
  159TIP3   OH2  421   7.876   7.829   2.093
  159TIP3    H1  422   7.817   7.818   2.018
  159TIP3    H2  423   7.821   7.812   2.169
  160TIP3   OH2  424   2.753   4.959   0.915
  160TIP3    H1  425   2.822   5.025   0.918
  160TIP3    H2  426   2.796   4.881   0.878
  161TIP3   OH2  427   2.533   0.000   5.663
  161TIP3    H1  428   2.596   0.041   5.723
  161TIP3    H2  429   2.535   0.056   5.585
  162TIP3   OH2  430   7.284   3.563   0.024
  162TIP3    H1  431   7.202   3.609   0.009
  162TIP3    H2  432   7.276   3.482  -0.026
  163TIP3   OH2  433   6.843   1.863   2.531
  163TIP3    H1  434   6.903   1.826   2.595
  163TIP3    H2  435   6.896   1.873   2.452
  164TIP3   OH2  436   5.172   2.420   4.812
  164TIP3    H1  437   5.204   2.330   4.822
  164TIP3    H2  438   5.251   2.470   4.790
  165TIP3   OH2  439   4.223   2.384   4.263
  165TIP3    H1  440   4.298   2.370   4.321
  165TIP3    H2  441   4.146   2.370   4.318
  166TIP3   OH2  442   1.928   4.650   6.105
  166TIP3    H1  443   1.884   4.592   6.166
  166TIP3    H2  444   1.903   4.738   6.133
  167TIP3   OH2  445   7.926   1.788   5.177
  167TIP3    H1  446   7.939   1.787   5.272
  167TIP3    H2  447   8.011   1.767   5.140
  168TIP3   OH2  448   2.388   7.341   1.988
  168TIP3    H1  449   2.297   7.312   1.993
  168TIP3    H2  450   2.408   7.340   1.894
  169TIP3   OH2  451   6.913   0.993   5.538
  169TIP3    H1  452   6.901   0.954   5.451
  169TIP3    H2  453   6.825   1.007   5.571
  170TIP3   OH2  454   3.861   2.353   0.996
  170TIP3    H1  455   3.910   2.301   1.060
  170TIP3    H2  456   3.775   2.365   1.035
  171TIP3   OH2  457   4.019   3.961   5.959
  171TIP3    H1  458   4.038   4.016   5.884
  171TIP3    H2  459   4.101   3.916   5.977
  172TIP3   OH2  460   0.255   7.259   1.862
  172TIP3    H1  461   0.207   7.309   1.929
  172TIP3    H2  462   0.188   7.227   1.803
  173TIP3   OH2  463   8.261   1.496   0.858
  173TIP3    H1  464   8.188   1.457   0.907
  173TIP3    H2  465   8.221   1.528   0.777
  174TIP3   OH2  466   8.263   4.115   3.464
  174TIP3    H1  467   8.303   4.066   3.392
  174TIP3    H2  468   8.324   4.104   3.537
  175TIP3   OH2  469   3.092   6.813   2.372
  175TIP3    H1  470   3.007   6.853   2.392
  175TIP3    H2  471   3.155   6.864   2.422
  176TIP3   OH2  472   5.094   3.683   5.336
  176TIP3    H1  473   5.151   3.647   5.268
  176TIP3    H2  474   5.056   3.762   5.296
  177TIP3   OH2  475   0.367   6.657   4.721
  177TIP3    H1  476   0.376   6.752   4.710
  177TIP3    H2  477   0.440   6.633   4.778
  178TIP3   OH2  478   5.765   5.856   1.929
  178TIP3    H1  479   5.731   5.791   1.991
  178TIP3    H2  480   5.693   5.916   1.914
  179TIP3   OH2  481   7.406   3.694   4.613
  179TIP3    H1  482   7.353   3.638   4.556
  179TIP3    H2  483   7.355   3.701   4.694
  180TIP3   OH2  484   2.771   0.928   5.771
  180TIP3    H1  485   2.837   0.967   5.714
  180TIP3    H2  486   2.796   0.954   5.859
  181TIP3   OH2  487   2.518   2.478   1.903
  181TIP3    H1  488   2.614   2.471   1.903
  181TIP3    H2  489   2.498   2.535   1.977
  182TIP3   OH2  490   2.128   6.628   2.618
  182TIP3    H1  491   2.067   6.577   2.670
  182TIP3    H2  492   2.187   6.563   2.579
  183TIP3   OH2  493   2.654   6.247   6.682
  183TIP3    H1  494   2.624   6.262   6.592
  183TIP3    H2  495   2.667   6.335   6.717
  184TIP3   OH2  496   0.842   7.351   3.086
  184TIP3    H1  497   0.914   7.379   3.030
  184TIP3    H2  498   0.852   7.401   3.167
  185TIP3   OH2  499   6.403   1.757   1.485
  185TIP3    H1  500   6.422   1.690   1.421
  185TIP3    H2  501   6.333   1.809   1.445
  186TIP3   OH2  502   3.046   7.508   4.692
  186TIP3    H1  503   3.092   7.499   4.609
  186TIP3    H2  504   3.039   7.418   4.726
  187TIP3   OH2  505   1.840   4.466   6.563
  187TIP3    H1  506   1.925   4.441   6.527
  187TIP3    H2  507   1.777   4.412   6.516
  188TIP3   OH2  508   3.569   2.278   5.673
  188TIP3    H1  509   3.526   2.256   5.756
  188TIP3    H2  510   3.644   2.219   5.670
  189TIP3   OH2  511   3.212   7.826   0.403
  189TIP3    H1  512   3.218   7.735   0.373
  189TIP3    H2  513   3.212   7.878   0.323
  190TIP3   OH2  514   5.746   7.277   0.831
  190TIP3    H1  515   5.690   7.200   0.819
  190TIP3    H2  516   5.715   7.339   0.765
  191TIP3   OH2  517   7.121   7.812   0.029
  191TIP3    H1  518   7.039   7.796  -0.019
  191TIP3    H2  519   7.182   7.747  -0.007
  192TIP3   OH2  520   5.805   5.425   6.422
  192TIP3    H1  521   5.719   5.423   6.379
  192TIP3    H2  522   5.789   5.466   6.507
  193TIP3   OH2  523   7.274   7.355   1.324
  193TIP3    H1  524   7.239   7.300   1.254
  193TIP3    H2  525   7.292   7.294   1.395
  194TIP3   OH2  526   7.779   3.914   3.807
  194TIP3    H1  527   7.752   3.837   3.856
  194TIP3    H2  528   7.794   3.981   3.874
  195TIP3   OH2  529   7.732   2.417   1.004
  195TIP3    H1  530   7.645   2.435   0.967
  195TIP3    H2  531   7.764   2.341   0.955
  196TIP3   OH2  532   7.445   1.239   2.178
  196TIP3    H1  533   7.355   1.215   2.197
  196TIP3    H2  534   7.443   1.270   2.087
  197TIP3   OH2  535   6.175   1.619   1.688
  197TIP3    H1  536   6.265   1.623   1.655
  197TIP3    H2  537   6.128   1.685   1.638
  198TIP3   OH2  538   5.206   5.803   1.221
  198TIP3    H1  539   5.165   5.738   1.279
  198TIP3    H2  540   5.135   5.832   1.164
  199TIP3   OH2  541   6.536   4.652   5.756
  199TIP3    H1  542   6.527   4.630   5.664
  199TIP3    H2  543   6.500   4.576   5.803
  200TIP3   OH2  544   1.295   4.036   3.572
  200TIP3    H1  545   1.291   3.949   3.613
  200TIP3    H2  546   1.204   4.060   3.557
  201TIP3   OH2  547   5.390   4.463   5.519
  201TIP3    H1  548   5.413   4.437   5.608
  201TIP3    H2  549   5.303   4.502   5.527
  202TIP3   OH2  550   4.591   0.988   0.743
  202TIP3    H1  551   4.552   0.997   0.830
  202TIP3    H2  552   4.529   1.031   0.684
  203TIP3   OH2  553   5.778   4.608   5.029
  203TIP3    H1  554   5.729   4.681   4.991
  203TIP3    H2  555   5.788   4.631   5.121
  204TIP3   OH2  556   5.178   2.510   2.767
  204TIP3    H1  557   5.091   2.469   2.773
  204TIP3    H2  558   5.192   2.546   2.855
  205TIP3   OH2  559   1.034   5.982   3.966
  205TIP3    H1  560   1.064   6.001   4.055
  205TIP3    H2  561   1.030   5.886   3.962
  206TIP3   OH2  562   3.812   4.656   6.581
  206TIP3    H1  563   3.730   4.621   6.545
  206TIP3    H2  564   3.799   4.750   6.583
  207TIP3   OH2  565   5.837   0.481   3.829
  207TIP3    H1  566   5.892   0.440   3.762
  207TIP3    H2  567   5.851   0.428   3.907
  208TIP3   OH2  568   6.913   0.638   1.652
  208TIP3    H1  569   6.899   0.577   1.579
  208TIP3    H2  570   6.896   0.585   1.730
  209TIP3   OH2  571   3.848   4.009   1.362
  209TIP3    H1  572   3.925   3.963   1.396
  209TIP3    H2  573   3.781   3.941   1.355
  210TIP3   OH2  574   7.193   1.511   4.641
  210TIP3    H1  575   7.235   1.481   4.722
  210TIP3    H2  576   7.100   1.493   4.654
  211TIP3   OH2  577   2.748   7.725   5.298
  211TIP3    H1  578   2.795   7.655   5.344
  211TIP3    H2  579   2.734   7.793   5.365
  212TIP3   OH2  580   6.573   1.004   6.593
  212TIP3    H1  581   6.622   1.084   6.611
  212TIP3    H2  582   6.522   1.023   6.515
  213TIP3   OH2  583   4.319   7.847   0.391
  213TIP3    H1  584   4.313   7.751   0.399
  213TIP3    H2  585   4.285   7.865   0.303
  214TIP3   OH2  586   0.336   6.046   2.084
  214TIP3    H1  587   0.372   5.963   2.113
  214TIP3    H2  588   0.402   6.111   2.109
  215TIP3   OH2  589   8.038   3.286   1.613
  215TIP3    H1  590   8.039   3.226   1.538
  215TIP3    H2  591   8.069   3.369   1.578
  216TIP3   OH2  592   0.952   3.835   4.128
  216TIP3    H1  593   0.922   3.856   4.040
  216TIP3    H2  594   0.897   3.889   4.185
  217TIP3   OH2  595   3.459   6.744   5.400
  217TIP3    H1  596   3.444   6.698   5.318
  217TIP3    H2  597   3.526   6.809   5.379
  218TIP3   OH2  598   7.261   5.258   2.896
  218TIP3    H1  599   7.202   5.333   2.886
  218TIP3    H2  600   7.267   5.220   2.808
  219TIP3   OH2  601   4.778   7.478   2.174
  219TIP3    H1  602   4.784   7.455   2.082
  219TIP3    H2  603   4.788   7.574   2.176
  220TIP3   OH2  604   2.776   2.160   1.964
  220TIP3    H1  605   2.859   2.138   1.921
  220TIP3    H2  606   2.734   2.076   1.980
  221TIP3   OH2  607   3.797   0.432   2.950
  221TIP3    H1  608   3.886   0.406   2.924
  221TIP3    H2  609   3.807   0.522   2.982
  222TIP3   OH2  610   6.999   5.539   3.629
  222TIP3    H1  611   7.092   5.561   3.631
  222TIP3    H2  612   6.996   5.455   3.582
  223TIP3   OH2  613   1.787   2.679   5.537
  223TIP3    H1  614   1.805   2.773   5.535
  223TIP3    H2  615   1.784   2.653   5.445
  224TIP3   OH2  616   2.416   3.853   6.744
  224TIP3    H1  617   2.423   3.915   6.817
  224TIP3    H2  618   2.345   3.888   6.690
  225TIP3   OH2  619   4.875   5.958   1.551
  225TIP3    H1  620   4.907   5.872   1.578
  225TIP3    H2  621   4.953   6.005   1.522
  226TIP3   OH2  622   0.353   5.741   4.281
  226TIP3    H1  623   0.404   5.767   4.358
  226TIP3    H2  624   0.271   5.708   4.318
  227TIP3   OH2  625   2.598   5.707   0.792
  227TIP3    H1  626   2.509   5.722   0.823
  227TIP3    H2  627   2.652   5.716   0.871
  228TIP3   OH2  628   3.252   0.110   2.565
  228TIP3    H1  629   3.280   0.018   2.568
  228TIP3    H2  630   3.182   0.111   2.500
  229TIP3   OH2  631   0.735   2.526   5.689
  229TIP3    H1  632   0.689   2.444   5.705
  229TIP3    H2  633   0.810   2.501   5.634
  230TIP3   OH2  634   5.893   2.099   3.515
  230TIP3    H1  635   5.805   2.134   3.499
  230TIP3    H2  636   5.876   2.014   3.556
  231TIP3   OH2  637   3.713   4.574   1.884
  231TIP3    H1  638   3.684   4.644   1.825
  231TIP3    H2  639   3.641   4.512   1.886
  232TIP3   OH2  640   2.448   4.010   4.157
  232TIP3    H1  641   2.534   3.981   4.189
  232TIP3    H2  642   2.428   4.088   4.209
  233TIP3   OH2  643   2.192   3.913   6.228
  233TIP3    H1  644   2.224   4.003   6.231
  233TIP3    H2  645   2.254   3.867   6.171
  234TIP3   OH2  646   1.179   7.460   5.130
  234TIP3    H1  647   1.102   7.487   5.079
  234TIP3    H2  648   1.142   7.425   5.211
  235TIP3   OH2  649   2.629   2.514   0.959
  235TIP3    H1  650   2.656   2.427   0.931
  235TIP3    H2  651   2.682   2.574   0.905
  236TIP3   OH2  652   4.216   2.147   3.343
  236TIP3    H1  653   4.151   2.077   3.341
  236TIP3    H2  654   4.169   2.224   3.313
  237TIP3   OH2  655   4.686   5.329   5.148
  237TIP3    H1  656   4.754   5.275   5.187
  237TIP3    H2  657   4.694   5.414   5.192
  238TIP3   OH2  658   3.244   6.888   2.940
  238TIP3    H1  659   3.226   6.795   2.924
  238TIP3    H2  660   3.202   6.933   2.867
  239TIP3   OH2  661   4.851   5.462   4.709
  239TIP3    H1  662   4.784   5.487   4.646
  239TIP3    H2  663   4.854   5.535   4.771
  240TIP3   OH2  664   2.893   3.140   6.202
  240TIP3    H1  665   2.957   3.081   6.241
  240TIP3    H2  666   2.885   3.111   6.111
  241TIP3   OH2  667   7.378   0.413   5.770
  241TIP3    H1  668   7.364   0.456   5.686
  241TIP3    H2  669   7.470   0.428   5.790
  242TIP3   OH2  670   3.456   5.078   4.408
  242TIP3    H1  671   3.530   5.073   4.347
  242TIP3    H2  672   3.381   5.100   4.354
  243TIP3   OH2  673   5.431   7.207   2.246
  243TIP3    H1  674   5.493   7.185   2.176
  243TIP3    H2  675   5.348   7.220   2.200
  244TIP3   OH2  676   1.771   3.732   3.574
  244TIP3    H1  677   1.814   3.650   3.550
  244TIP3    H2  678   1.689   3.706   3.615
  245TIP3   OH2  679   5.678   3.058   0.044
  245TIP3    H1  680   5.720   3.090   0.124
  245TIP3    H2  681   5.750   3.024  -0.008
  246TIP3   OH2  682   6.157   4.905   3.510
  246TIP3    H1  683   6.213   4.841   3.553
  246TIP3    H2  684   6.215   4.955   3.453
  247TIP3   OH2  685   2.393   5.205   6.500
  247TIP3    H1  686   2.336   5.142   6.545
  247TIP3    H2  687   2.340   5.285   6.493
  248TIP3   OH2  688   4.301   1.614   4.361
  248TIP3    H1  689   4.366   1.550   4.392
  248TIP3    H2  690   4.267   1.653   4.441
  249TIP3   OH2  691   3.641   1.561   5.686
  249TIP3    H1  692   3.735   1.574   5.674
  249TIP3    H2  693   3.615   1.503   5.614
  250TIP3   OH2  694   3.941   0.351   6.193
  250TIP3    H1  695   3.889   0.430   6.211
  250TIP3    H2  696   3.887   0.279   6.226
  251TIP3   OH2  697   2.571   6.916   4.400
  251TIP3    H1  698   2.585   6.920   4.495
  251TIP3    H2  699   2.659   6.917   4.363
  252TIP3   OH2  700   1.740   3.345   3.894
  252TIP3    H1  701   1.743   3.368   3.801
  252TIP3    H2  702   1.714   3.253   3.895
  253TIP3   OH2  703   1.228   2.155   1.684
  253TIP3    H1  704   1.255   2.078   1.734
  253TIP3    H2  705   1.277   2.150   1.602
  254TIP3   OH2  706   2.152   6.759   6.069
  254TIP3    H1  707   2.062   6.747   6.101
  254TIP3    H2  708   2.141   6.802   5.984
  255TIP3   OH2  709   5.093   2.646   2.072
  255TIP3    H1  710   5.083   2.693   2.154
  255TIP3    H2  711   5.137   2.708   2.014
  256TIP3   OH2  712   6.340   3.295   2.300
  256TIP3    H1  713   6.370   3.264   2.385
  256TIP3    H2  714   6.397   3.252   2.236
  257TIP3   OH2  715   7.763   2.872   0.632
  257TIP3    H1  716   7.822   2.871   0.556
  257TIP3    H2  717   7.794   2.800   0.687
  258TIP3   OH2  718   1.664   0.726   6.617
  258TIP3    H1  719   1.746   0.691   6.651
  258TIP3    H2  720   1.681   0.740   6.524
  259TIP3   OH2  721   0.058   2.241   4.219
  259TIP3    H1  722   0.062   2.298   4.143
  259TIP3    H2  723   0.015   2.161   4.188
  260TIP3   OH2  724   2.125   0.548   6.432
  260TIP3    H1  725   2.054   0.591   6.384
  260TIP3    H2  726   2.152   0.612   6.497
  261TIP3   OH2  727   0.148   6.015   1.873
  261TIP3    H1  728   0.059   6.028   1.904
  261TIP3    H2  729   0.204   6.049   1.943
  262TIP3   OH2  730   7.211   5.908   0.738
  262TIP3    H1  731   7.286   5.916   0.796
  262TIP3    H2  732   7.239   5.846   0.671
  263TIP3   OH2  733   3.702   6.997   2.455
  263TIP3    H1  734   3.691   7.070   2.516
  263TIP3    H2  735   3.789   6.962   2.475
  264TIP3   OH2  736   6.000   4.308   3.299
  264TIP3    H1  737   6.093   4.287   3.297
  264TIP3    H2  738   5.995   4.394   3.341
  265TIP3   OH2  739   7.260   5.939   2.522
  265TIP3    H1  740   7.218   6.024   2.531
  265TIP3    H2  741   7.200   5.878   2.564
  266TIP3   OH2  742   5.259   5.482   3.461
  266TIP3    H1  743   5.185   5.523   3.416
  266TIP3    H2  744   5.273   5.537   3.538
  267TIP3   OH2  745   8.240   0.322   3.251
  267TIP3    H1  746   8.308   0.283   3.196
  267TIP3    H2  747   8.245   0.416   3.232
  268TIP3   OH2  748   5.386   3.149   6.048
  268TIP3    H1  749   5.383   3.244   6.036
  268TIP3    H2  750   5.459   3.135   6.108
  269TIP3   OH2  751   2.542   6.552   0.440
  269TIP3    H1  752   2.614   6.537   0.379
  269TIP3    H2  753   2.585   6.585   0.519
  270TIP3   OH2  754   0.158   1.263   5.418
  270TIP3    H1  755   0.169   1.347   5.463
  270TIP3    H2  756   0.194   1.278   5.330
  271TIP3   OH2  757   4.320   0.888   4.261
  271TIP3    H1  758   4.312   0.974   4.219
  271TIP3    H2  759   4.236   0.875   4.305
  272TIP3   OH2  760   3.890   0.019   5.631
  272TIP3    H1  761   3.960   0.083   5.639
  272TIP3    H2  762   3.934  -0.062   5.605
  273TIP3   OH2  763   3.197   6.490   2.644
  273TIP3    H1  764   3.265   6.445   2.594
  273TIP3    H2  765   3.193   6.442   2.727
  274TIP3   OH2  766   0.582   1.315   5.651
  274TIP3    H1  767   0.520   1.387   5.665
  274TIP3    H2  768   0.654   1.335   5.711
  275TIP3   OH2  769   5.107   6.533   4.234
  275TIP3    H1  770   5.168   6.531   4.161
  275TIP3    H2  771   5.158   6.504   4.309
  276TIP3   OH2  772   6.669   0.898   2.912
  276TIP3    H1  773   6.611   0.822   2.917
  276TIP3    H2  774   6.655   0.933   2.824
  277TIP3   OH2  775   4.351   1.658   4.804
  277TIP3    H1  776   4.363   1.740   4.756
  277TIP3    H2  777   4.270   1.622   4.769
  278TIP3   OH2  778   4.345   0.587   3.075
  278TIP3    H1  779   4.251   0.587   3.059
  278TIP3    H2  780   4.375   0.671   3.039
  279TIP3   OH2  781   7.064   4.856   5.541
  279TIP3    H1  782   7.132   4.795   5.570
  279TIP3    H2  783   7.092   4.940   5.577
  280TIP3   OH2  784   1.341   6.013   4.682
  280TIP3    H1  785   1.410   5.990   4.744
  280TIP3    H2  786   1.262   5.972   4.716
  281TIP3   OH2  787   5.216   2.077   2.725
  281TIP3    H1  788   5.301   2.040   2.750
  281TIP3    H2  789   5.157   2.002   2.720
  282TIP3   OH2  790   2.510   1.604   3.108
  282TIP3    H1  791   2.442   1.667   3.129
  282TIP3    H2  792   2.501   1.535   3.174
  283TIP3   OH2  793   4.435   4.131   5.021
  283TIP3    H1  794   4.375   4.143   4.947
  283TIP3    H2  795   4.470   4.218   5.038
  284TIP3   OH2  796   5.694   5.872   1.464
  284TIP3    H1  797   5.610   5.902   1.430
  284TIP3    H2  798   5.712   5.792   1.415
  285TIP3   OH2  799   5.787   0.601   2.407
  285TIP3    H1  800   5.863   0.556   2.369
  285TIP3    H2  801   5.813   0.693   2.411
  286TIP3   OH2  802   2.769   2.171   4.363
  286TIP3    H1  803   2.863   2.178   4.378
  286TIP3    H2  804   2.730   2.241   4.415
  287TIP3   OH2  805   0.659   6.661   4.041
  287TIP3    H1  806   0.693   6.613   4.116
  287TIP3    H2  807   0.608   6.733   4.079
  288TIP3   OH2  808   6.092   3.670   1.013
  288TIP3    H1  809   6.156   3.624   0.959
  288TIP3    H2  810   6.061   3.604   1.075
  289TIP3   OH2  811   2.581   7.344   4.459
  289TIP3    H1  812   2.571   7.438   4.468
  289TIP3    H2  813   2.675   7.329   4.458
  290TIP3   OH2  814   6.641   3.622   2.770
  290TIP3    H1  815   6.572   3.645   2.709
  290TIP3    H2  816   6.616   3.664   2.852
  291TIP3   OH2  817   0.923   2.186   0.800
  291TIP3    H1  818   0.830   2.207   0.799
  291TIP3    H2  819   0.949   2.195   0.892
  292TIP3   OH2  820   7.180  -0.011   1.047
  292TIP3    H1  821   7.174   0.083   1.065
  292TIP3    H2  822   7.112  -0.026   0.981
  293TIP3   OH2  823   0.705   2.009   6.785
  293TIP3    H1  824   0.751   2.092   6.775
  293TIP3    H2  825   0.714   1.965   6.700
  294TIP3   OH2  826   5.538   0.196   4.576
  294TIP3    H1  827   5.508   0.106   4.580
  294TIP3    H2  828   5.586   0.203   4.493
  295TIP3   OH2  829   4.242   4.656   2.558
  295TIP3    H1  830   4.220   4.563   2.571
  295TIP3    H2  831   4.251   4.665   2.463
  296TIP3   OH2  832   5.129   1.340   1.819
  296TIP3    H1  833   5.084   1.325   1.902
  296TIP3    H2  834   5.101   1.268   1.763
  297TIP3   OH2  835   3.780   0.477   1.312
  297TIP3    H1  836   3.795   0.396   1.264
  297TIP3    H2  837   3.702   0.459   1.365
  298TIP3   OH2  838   0.381   3.042   1.794
  298TIP3    H1  839   0.370   3.137   1.793
  298TIP3    H2  840   0.323   3.010   1.725
  299TIP3   OH2  841   6.136   5.894   6.351
  299TIP3    H1  842   6.181   5.956   6.409
  299TIP3    H2  843   6.063   5.860   6.405
  300TIP3   OH2  844   7.121   7.310   6.167
  300TIP3    H1  845   7.188   7.282   6.229
  300TIP3    H2  846   7.074   7.229   6.144
  301TIP3   OH2  847   5.286   6.433   1.848
  301TIP3    H1  848   5.210   6.482   1.817
  301TIP3    H2  849   5.318   6.483   1.922
  302TIP3   OH2  850   8.167   5.035   2.131
  302TIP3    H1  851   8.084   5.082   2.145
  302TIP3    H2  852   8.198   5.015   2.219
  303TIP3   OH2  853   5.084   2.847   3.135
  303TIP3    H1  854   5.012   2.820   3.192
  303TIP3    H2  855   5.163   2.812   3.177
  304TIP3   OH2  856   5.798   7.021   4.368
  304TIP3    H1  857   5.857   6.946   4.372
  304TIP3    H2  858   5.716   6.985   4.334
  305TIP3   OH2  859   7.606   2.129   5.190
  305TIP3    H1  860   7.646   2.055   5.144
  305TIP3    H2  861   7.678   2.169   5.238
  306TIP3   OH2  862   3.750   4.064   5.964
  306TIP3    H1  863   3.708   4.010   5.897
  306TIP3    H2  864   3.825   4.012   5.993
  307TIP3   OH2  865   7.947   1.844   3.048
  307TIP3    H1  866   8.007   1.918   3.051
  307TIP3    H2  867   7.891   1.855   3.125
  308TIP3   OH2  868   1.188   0.437   6.611
  308TIP3    H1  869   1.137   0.479   6.680
  308TIP3    H2  870   1.210   0.351   6.647
  309TIP3   OH2  871   1.973   3.021   5.075
  309TIP3    H1  872   2.003   3.074   5.001
  309TIP3    H2  873   1.919   2.953   5.035
  310TIP3   OH2  874   1.402   6.048   1.851
  310TIP3    H1  875   1.315   6.071   1.883
  310TIP3    H2  876   1.404   5.953   1.853
  311TIP3   OH2  877   1.226   2.691   3.171
  311TIP3    H1  878   1.184   2.727   3.249
  311TIP3    H2  879   1.154   2.661   3.116
  312TIP3   OH2  880   6.848   4.054   2.289
  312TIP3    H1  881   6.916   4.085   2.228
  312TIP3    H2  882   6.771   4.042   2.234
  313TIP3   OH2  883   0.325   7.131   4.944
  313TIP3    H1  884   0.267   7.149   5.018
  313TIP3    H2  885   0.290   7.184   4.872
  314TIP3   OH2  886   1.229   5.093   0.911
  314TIP3    H1  887   1.314   5.137   0.921
  314TIP3    H2  888   1.190   5.096   0.998
  315TIP3   OH2  889   7.383   6.279   6.370
  315TIP3    H1  890   7.392   6.335   6.447
  315TIP3    H2  891   7.452   6.309   6.310
  316TIP3   OH2  892   5.537   4.446   5.757
  316TIP3    H1  893   5.620   4.400   5.750
  316TIP3    H2  894   5.556   4.523   5.810
  317TIP3   OH2  895   0.993   4.657   5.929
  317TIP3    H1  896   0.906   4.637   5.895
  317TIP3    H2  897   1.048   4.665   5.851
  318TIP3   OH2  898   2.259   4.336   5.005
  318TIP3    H1  899   2.270   4.423   5.043
  318TIP3    H2  900   2.339   4.290   5.030
  319TIP3   OH2  901   4.877   0.501   3.535
  319TIP3    H1  902   4.874   0.596   3.546
  319TIP3    H2  903   4.789   0.472   3.559
  320TIP3   OH2  904   1.054   7.815   0.653
  320TIP3    H1  905   1.030   7.787   0.741
  320TIP3    H2  906   1.150   7.816   0.655
  321TIP3   OH2  907   3.003   0.143   1.975
  321TIP3    H1  908   3.046   0.186   1.901
  321TIP3    H2  909   3.043   0.184   2.052
  322TIP3   OH2  910   4.806   0.623   2.723
  322TIP3    H1  911   4.859   0.629   2.644
  322TIP3    H2  912   4.818   0.708   2.767
  323TIP3   OH2  913   3.914   3.889   2.149
  323TIP3    H1  914   3.855   3.964   2.147
  323TIP3    H2  915   3.869   3.821   2.098
  324TIP3   OH2  916   6.218   1.458   0.297
  324TIP3    H1  917   6.247   1.488   0.210
  324TIP3    H2  918   6.131   1.496   0.308
  325TIP3   OH2  919   0.244   4.305   0.478
  325TIP3    H1  920   0.308   4.364   0.439
  325TIP3    H2  921   0.279   4.217   0.462
  326TIP3   OH2  922   6.095   1.367   1.776
  326TIP3    H1  923   6.125   1.455   1.756
  326TIP3    H2  924   6.154   1.337   1.846
  327TIP3   OH2  925   2.354   2.397   6.595
  327TIP3    H1  926   2.379   2.365   6.508
  327TIP3    H2  927   2.437   2.416   6.638
  328TIP3   OH2  928   1.993   1.669   2.653
  328TIP3    H1  929   2.045   1.646   2.730
  328TIP3    H2  930   2.024   1.756   2.629
  329TIP3   OH2  931   1.796   0.036   4.438
  329TIP3    H1  932   1.717   0.066   4.483
  329TIP3    H2  933   1.824  -0.041   4.487
  330TIP3   OH2  934   1.568   3.541   1.932
  330TIP3    H1  935   1.611   3.598   1.997
  330TIP3    H2  936   1.551   3.599   1.857
  331TIP3   OH2  937   0.287   4.416   3.136
  331TIP3    H1  938   0.197   4.445   3.148
  331TIP3    H2  939   0.324   4.480   3.075
  332TIP3   OH2  940   3.648   2.098   1.781
  332TIP3    H1  941   3.629   2.107   1.687
  332TIP3    H2  942   3.571   2.055   1.817
  333TIP3   OH2  943   3.793   0.416   5.209
  333TIP3    H1  944   3.757   0.328   5.201
  333TIP3    H2  945   3.716   0.472   5.224
  334TIP3   OH2  946   4.453   4.347   0.214
  334TIP3    H1  947   4.411   4.407   0.153
  334TIP3    H2  948   4.381   4.292   0.247
  335TIP3   OH2  949   1.845   5.515   5.129
  335TIP3    H1  950   1.751   5.532   5.123
  335TIP3    H2  951   1.863   5.455   5.057
  336TIP3   OH2  952   2.615   6.695   0.877
  336TIP3    H1  953   2.646   6.778   0.913
  336TIP3    H2  954   2.602   6.713   0.784
  337TIP3   OH2  955   2.162   5.728   3.183
  337TIP3    H1  956   2.190   5.654   3.130
  337TIP3    H2  957   2.068   5.736   3.164
  338TIP3   OH2  958   3.412   2.808   0.189
  338TIP3    H1  959   3.419   2.898   0.157
  338TIP3    H2  960   3.437   2.755   0.114
  339TIP3   OH2  961   7.847   2.228   5.265
  339TIP3    H1  962   7.907   2.219   5.339
  339TIP3    H2  963   7.904   2.226   5.188
  340TIP3   OH2  964   5.003   2.330   4.122
  340TIP3    H1  965   5.089   2.304   4.089
  340TIP3    H2  966   4.993   2.282   4.204
  341TIP3   OH2  967   5.767   5.124   1.436
  341TIP3    H1  968   5.860   5.114   1.417
  341TIP3    H2  969   5.747   5.215   1.410
  342TIP3   OH2  970   3.662   5.154   6.554
  342TIP3    H1  971   3.690   5.076   6.505
  342TIP3    H2  972   3.729   5.220   6.534
  343TIP3   OH2  973   4.465   0.122   0.275
  343TIP3    H1  974   4.460   0.026   0.280
  343TIP3    H2  975   4.477   0.149   0.366
  344TIP3   OH2  976   0.655   4.607   0.986
  344TIP3    H1  977   0.621   4.528   1.029
  344TIP3    H2  978   0.682   4.576   0.899
  345TIP3   OH2  979   0.513   4.762   6.734
  345TIP3    H1  980   0.510   4.750   6.639
  345TIP3    H2  981   0.470   4.684   6.770
  346TIP3   OH2  982   6.510   5.992   4.146
  346TIP3    H1  983   6.512   6.063   4.082
  346TIP3    H2  984   6.540   5.915   4.098
  347TIP3   OH2  985   4.111   3.689   3.475
  347TIP3    H1  986   4.035   3.633   3.460
  347TIP3    H2  987   4.093   3.732   3.558
  348TIP3   OH2  988   4.000   6.858   4.091
  348TIP3    H1  989   3.978   6.779   4.141
  348TIP3    H2  990   4.080   6.891   4.132
  349TIP3   OH2  991   6.602   1.118   3.326
  349TIP3    H1  992   6.645   1.109   3.241
  349TIP3    H2  993   6.655   1.183   3.373
  350TIP3   OH2  994   6.973   1.059   2.913
  350TIP3    H1  995   6.954   1.040   2.821
  350TIP3    H2  996   7.002   0.975   2.950
  351TIP3   OH2  997   5.271   7.639   2.779
  351TIP3    H1  998   5.307   7.620   2.866
  351TIP3    H2  999   5.337   7.608   2.718
  352TIP3   OH2 1000   0.145   4.034   2.715
  352TIP3    H1 1001   0.234   4.018   2.685
  352TIP3    H2 1002   0.097   4.059   2.637
  353TIP3   OH2 1003   3.903   6.674   1.137
  353TIP3    H1 1004   3.891   6.581   1.158
  353TIP3    H2 1005   3.835   6.694   1.073
  354TIP3   OH2 1006   0.859   1.226   5.115
  354TIP3    H1 1007   0.938   1.213   5.063
  354TIP3    H2 1008   0.886   1.288   5.183
  355TIP3   OH2 1009   2.696   1.190   2.504
  355TIP3    H1 1010   2.726   1.277   2.479
  355TIP3    H2 1011   2.644   1.205   2.583
  356TIP3   OH2 1012   7.336   2.198   1.263
  356TIP3    H1 1013   7.345   2.247   1.181
  356TIP3    H2 1014   7.276   2.251   1.316
  357TIP3   OH2 1015   3.528   6.994   0.780
  357TIP3    H1 1016   3.614   7.014   0.817
  357TIP3    H2 1017   3.538   7.011   0.686
  358TIP3   OH2 1018   0.887   5.281   6.650
  358TIP3    H1 1019   0.959   5.233   6.611
  358TIP3    H2 1020   0.923   5.367   6.671
  359TIP3   OH2 1021   6.888   1.665   0.542
  359TIP3    H1 1022   6.831   1.720   0.596
  359TIP3    H2 1023   6.945   1.621   0.605
  360TIP3   OH2 1024   3.584   0.287   4.046
  360TIP3    H1 1025   3.558   0.339   3.970
  360TIP3    H2 1026   3.658   0.334   4.084
  361TIP3   OH2 1027   3.750   3.379   4.062
  361TIP3    H1 1028   3.789   3.358   3.977
  361TIP3    H2 1029   3.822   3.370   4.125
  362TIP3   OH2 1030   1.387   5.342   1.048
  362TIP3    H1 1031   1.414   5.318   1.136
  362TIP3    H2 1032   1.310   5.397   1.060
  363TIP3   OH2 1033   1.430   7.368   1.029
  363TIP3    H1 1034   1.483   7.288   1.022
  363TIP3    H2 1035   1.391   7.378   0.942
  364TIP3   OH2 1036   4.032   4.584   4.708
  364TIP3    H1 1037   4.015   4.602   4.801
  364TIP3    H2 1038   4.091   4.654   4.680
  365TIP3   OH2 1039   6.746   4.472   6.207
  365TIP3    H1 1040   6.735   4.405   6.274
  365TIP3    H2 1041   6.662   4.519   6.205
  366TIP3   OH2 1042   7.735   7.139   3.583
  366TIP3    H1 1043   7.708   7.211   3.526
  366TIP3    H2 1044   7.752   7.066   3.523
  367TIP3   OH2 1045   5.728   4.855   4.394
  367TIP3    H1 1046   5.759   4.872   4.305
  367TIP3    H2 1047   5.675   4.932   4.417
  368TIP3   OH2 1048   1.677   7.123   5.444
  368TIP3    H1 1049   1.605   7.152   5.387
  368TIP3    H2 1050   1.658   7.164   5.529
  369TIP3   OH2 1051   7.685   6.623   0.204
  369TIP3    H1 1052   7.614   6.673   0.243
  369TIP3    H2 1053   7.734   6.587   0.278
  370TIP3   OH2 1054   1.230   4.796   4.412
  370TIP3    H1 1055   1.154   4.790   4.470
  370TIP3    H2 1056   1.199   4.760   4.329
  371TIP3   OH2 1057   6.087   2.822   5.806
  371TIP3    H1 1058   5.994   2.800   5.800
  371TIP3    H2 1059   6.115   2.832   5.715
  372TIP3   OH2 1060   2.266   4.115   2.769
  372TIP3    H1 1061   2.270   4.156   2.683
  372TIP3    H2 1062   2.216   4.176   2.823
  373TIP3   OH2 1063   6.252   1.516   4.207
  373TIP3    H1 1064   6.162   1.486   4.224
  373TIP3    H2 1065   6.308   1.451   4.250
  374TIP3   OH2 1066   4.625   4.676   5.281
  374TIP3    H1 1067   4.703   4.634   5.317
  374TIP3    H2 1068   4.552   4.623   5.313
  375TIP3   OH2 1069   2.897   4.318   6.697
  375TIP3    H1 1070   2.868   4.238   6.653
  375TIP3    H2 1071   2.816   4.356   6.733
  376TIP3   OH2 1072   6.991   3.707   3.875
  376TIP3    H1 1073   7.062   3.746   3.925
  376TIP3    H2 1074   6.989   3.757   3.793
  377TIP3   OH2 1075   4.676   0.268   1.514
  377TIP3    H1 1076   4.722   0.199   1.465
  377TIP3    H2 1077   4.704   0.350   1.473
  378TIP3   OH2 1078   0.865   7.053   0.755
  378TIP3    H1 1079   0.879   7.140   0.793
  378TIP3    H2 1080   0.856   7.068   0.661
  379TIP3   OH2 1081   7.301   5.161   1.619
  379TIP3    H1 1082   7.354   5.105   1.674
  379TIP3    H2 1083   7.228   5.188   1.675
  380TIP3   OH2 1084   4.454   0.890   4.984
  380TIP3    H1 1085   4.527   0.888   5.046
  380TIP3    H2 1086   4.477   0.958   4.922
  381TIP3   OH2 1087   2.140   6.124   5.074
  381TIP3    H1 1088   2.124   6.083   5.159
  381TIP3    H2 1089   2.089   6.071   5.012
  382TIP3   OH2 1090   6.459   3.494   4.759
  382TIP3    H1 1091   6.398   3.479   4.687
  382TIP3    H2 1092   6.493   3.583   4.742
  383TIP3   OH2 1093   1.924   0.863   6.020
  383TIP3    H1 1094   1.907   0.771   5.999
  383TIP3    H2 1095   1.941   0.904   5.936
  384TIP3   OH2 1096   5.171   3.249   6.697
  384TIP3    H1 1097   5.142   3.338   6.715
  384TIP3    H2 1098   5.198   3.251   6.605
  385TIP3   OH2 1099   4.325   0.046   2.394
  385TIP3    H1 1100   4.264   0.112   2.362
  385TIP3    H2 1101   4.387   0.033   2.322
  386TIP3   OH2 1102   4.325   4.603   1.063
  386TIP3    H1 1103   4.268   4.664   1.016
  386TIP3    H2 1104   4.266   4.548   1.113
  387TIP3   OH2 1105   7.442   2.222   0.627
  387TIP3    H1 1106   7.478   2.268   0.551
  387TIP3    H2 1107   7.494   2.141   0.632
  388TIP3   OH2 1108   4.564   2.112   4.460
  388TIP3    H1 1109   4.490   2.054   4.445
  388TIP3    H2 1110   4.614   2.070   4.529
  389TIP3   OH2 1111   5.119   6.137   1.239
  389TIP3    H1 1112   5.112   6.127   1.334
  389TIP3    H2 1113   5.074   6.219   1.220
  390TIP3   OH2 1114   4.803   0.281   1.018
  390TIP3    H1 1115   4.866   0.344   0.985
  390TIP3    H2 1116   4.761   0.246   0.939
  391TIP3   OH2 1117   0.750   1.676   0.322
  391TIP3    H1 1118   0.772   1.688   0.414
  391TIP3    H2 1119   0.661   1.711   0.313
  392TIP3   OH2 1120   2.558   2.869   1.130
  392TIP3    H1 1121   2.503   2.947   1.117
  392TIP3    H2 1122   2.497   2.796   1.121
  393TIP3   OH2 1123   2.478   2.143   4.885
  393TIP3    H1 1124   2.422   2.170   4.957
  393TIP3    H2 1125   2.567   2.163   4.915
  394TIP3   OH2 1126   7.442   2.791   6.149
  394TIP3    H1 1127   7.532   2.823   6.154
  394TIP3    H2 1128   7.444   2.705   6.191
  395TIP3   OH2 1129   3.727   3.007   3.953
  395TIP3    H1 1130   3.636   2.997   3.981
  395TIP3    H2 1131   3.771   2.931   3.990
  396TIP3   OH2 1132   0.321   0.799   3.083
  396TIP3    H1 1133   0.320   0.710   3.049
  396TIP3    H2 1134   0.380   0.796   3.159
  397TIP3   OH2 1135   1.856   5.414   3.802
  397TIP3    H1 1136   1.810   5.393   3.721
  397TIP3    H2 1137   1.831   5.344   3.862
  398TIP3   OH2 1138   4.480   1.654   3.955
  398TIP3    H1 1139   4.432   1.574   3.931
  398TIP3    H2 1140   4.560   1.650   3.903
  399TIP3   OH2 1141   3.177   6.627   2.912
  399TIP3    H1 1142   3.231   6.560   2.954
  399TIP3    H2 1143   3.089   6.590   2.912
  400TIP3   OH2 1144   0.188   6.560   5.050
  400TIP3    H1 1145   0.199   6.640   5.101
  400TIP3    H2 1146   0.191   6.589   4.959
  401TIP3   OH2 1147   6.161   5.295   3.860
  401TIP3    H1 1148   6.152   5.213   3.910
  401TIP3    H2 1149   6.076   5.307   3.819
  402TIP3   OH2 1150   4.479   2.795   3.756
  402TIP3    H1 1151   4.475   2.809   3.851
  402TIP3    H2 1152   4.438   2.710   3.743
  403TIP3   OH2 1153   7.149   6.129   4.044
  403TIP3    H1 1154   7.182   6.056   3.991
  403TIP3    H2 1155   7.203   6.127   4.123
  404TIP3   OH2 1156   5.644   3.270   1.516
  404TIP3    H1 1157   5.640   3.174   1.520
  404TIP3    H2 1158   5.737   3.290   1.531
  405TIP3   OH2 1159   3.032   6.116   0.815
  405TIP3    H1 1160   3.110   6.104   0.761
  405TIP3    H2 1161   2.961   6.127   0.751
  406TIP3   OH2 1162   7.893   4.232   2.789
  406TIP3    H1 1163   7.844   4.173   2.847
  406TIP3    H2 1164   7.827   4.292   2.754
  407TIP3   OH2 1165   6.083   4.977   3.894
  407TIP3    H1 1166   6.104   4.972   3.988
  407TIP3    H2 1167   6.106   4.891   3.860
  408TIP3   OH2 1168   5.101   0.607   1.999
  408TIP3    H1 1169   5.143   0.539   1.948
  408TIP3    H2 1170   5.036   0.645   1.940
  409TIP3   OH2 1171   4.293   5.836   3.330
  409TIP3    H1 1172   4.384   5.843   3.300
  409TIP3    H2 1173   4.248   5.791   3.258
  410TIP3   OH2 1174   2.915   1.355   2.185
  410TIP3    H1 1175   2.850   1.319   2.125
  410TIP3    H2 1176   2.865   1.406   2.248
  411TIP3   OH2 1177   6.171   2.081   2.372
  411TIP3    H1 1178   6.129   2.133   2.440
  411TIP3    H2 1179   6.099   2.030   2.334
  412TIP3   OH2 1180   6.923   2.711   1.236
  412TIP3    H1 1181   6.991   2.741   1.175
  412TIP3    H2 1182   6.900   2.624   1.204
  413TIP3   OH2 1183   8.218   7.635   2.952
  413TIP3    H1 1184   8.125   7.651   2.967
  413TIP3    H2 1185   8.263   7.690   3.016
  414TIP3   OH2 1186   4.005   4.219   1.293
  414TIP3    H1 1187   3.943   4.147   1.303
  414TIP3    H2 1188   4.051   4.222   1.377
  415TIP3   OH2 1189   6.499   5.703   0.109
  415TIP3    H1 1190   6.511   5.785   0.157
  415TIP3    H2 1191   6.507   5.635   0.176
  416TIP3   OH2 1192   2.281   0.813   4.029
  416TIP3    H1 1193   2.270   0.722   4.055
  416TIP3    H2 1194   2.333   0.852   4.099
  417TIP3   OH2 1195   4.741   4.643   3.078
  417TIP3    H1 1196   4.699   4.677   2.999
  417TIP3    H2 1197   4.749   4.549   3.062
  418TIP3   OH2 1198   7.262   5.809   0.370
  418TIP3    H1 1199   7.355   5.828   0.358
  418TIP3    H2 1200   7.259   5.742   0.438
  419TIP3   OH2 1201   2.374   2.253   3.736
  419TIP3    H1 1202   2.358   2.195   3.662
  419TIP3    H2 1203   2.288   2.288   3.758
  420TIP3   OH2 1204   8.157   3.488   1.442
  420TIP3    H1 1205   8.174   3.578   1.416
  420TIP3    H2 1206   8.132   3.443   1.361
  421TIP3   OH2 1207   2.013   7.073   6.503
  421TIP3    H1 1208   2.078   7.074   6.575
  421TIP3    H2 1209   2.038   6.998   6.450
  422TIP3   OH2 1210   6.641   6.906   0.535
  422TIP3    H1 1211   6.594   6.948   0.463
  422TIP3    H2 1212   6.716   6.863   0.493
  423TIP3   OH2 1213   6.612   0.224   5.407
  423TIP3    H1 1214   6.575   0.287   5.346
  423TIP3    H2 1215   6.702   0.211   5.378
  424TIP3   OH2 1216   5.528   5.851   4.008
  424TIP3    H1 1217   5.591   5.838   4.078
  424TIP3    H2 1218   5.553   5.788   3.941
  425TIP3   OH2 1219   0.895   4.746   6.388
  425TIP3    H1 1220   0.951   4.768   6.314
  425TIP3    H2 1221   0.930   4.799   6.460
  426TIP3   OH2 1222   4.847   2.913   3.781
  426TIP3    H1 1223   4.867   2.841   3.721
  426TIP3    H2 1224   4.759   2.891   3.814
  427TIP3   OH2 1225   7.473   5.495   5.857
  427TIP3    H1 1226   7.458   5.433   5.928
  427TIP3    H2 1227   7.387   5.507   5.816
  428TIP3   OH2 1228   6.366   0.952   1.096
  428TIP3    H1 1229   6.342   0.869   1.056
  428TIP3    H2 1230   6.417   0.928   1.173
  429TIP3   OH2 1231   5.604   6.728   1.910
  429TIP3    H1 1232   5.683   6.691   1.948
  429TIP3    H2 1233   5.619   6.822   1.909
  430TIP3   OH2 1234   3.938   5.762   4.684
  430TIP3    H1 1235   3.903   5.827   4.745
  430TIP3    H2 1236   3.871   5.752   4.617
  431TIP3   OH2 1237   1.679   0.314   0.220
  431TIP3    H1 1238   1.592   0.297   0.256
  431TIP3    H2 1239   1.678   0.274   0.133
  432TIP3   OH2 1240   2.133   0.754   2.078
  432TIP3    H1 1241   2.042   0.779   2.092
  432TIP3    H2 1242   2.183   0.809   2.139
  433TIP3   OH2 1243   1.320   4.987   5.323
  433TIP3    H1 1244   1.304   5.072   5.282
  433TIP3    H2 1245   1.261   4.986   5.399
  434TIP3   OH2 1246   2.967   2.287   6.586
  434TIP3    H1 1247   2.907   2.212   6.585
  434TIP3    H2 1248   3.015   2.277   6.669
  435TIP3   OH2 1249   6.290   7.114   5.567
  435TIP3    H1 1250   6.240   7.167   5.505
  435TIP3    H2 1251   6.236   7.036   5.580
  436TIP3   OH2 1252   4.337   7.576   0.423
  436TIP3    H1 1253   4.428   7.544   0.419
  436TIP3    H2 1254   4.290   7.507   0.471
  437TIP3   OH2 1255   7.130   4.280   6.624
  437TIP3    H1 1256   7.167   4.368   6.627
  437TIP3    H2 1257   7.137   4.248   6.714
  438TIP3   OH2 1258   5.772   4.323   2.328
  438TIP3    H1 1259   5.807   4.407   2.298
  438TIP3    H2 1260   5.726   4.344   2.410
  439TIP3   OH2 1261   6.203   0.752   4.994
  439TIP3    H1 1262   6.171   0.663   4.978
  439TIP3    H2 1263   6.249   0.746   5.077
  440TIP3   OH2 1264   7.196   3.780   5.948
  440TIP3    H1 1265   7.201   3.834   6.027
  440TIP3    H2 1266   7.105   3.790   5.918
  441TIP3   OH2 1267   4.190   2.310   4.975
  441TIP3    H1 1268   4.255   2.308   5.046
  441TIP3    H2 1269   4.203   2.227   4.929
  442TIP3   OH2 1270   5.594   2.598   6.620
  442TIP3    H1 1271   5.598   2.645   6.537
  442TIP3    H2 1272   5.676   2.549   6.624
  443TIP3   OH2 1273   5.657   4.279   0.137
  443TIP3    H1 1274   5.689   4.367   0.155
  443TIP3    H2 1275   5.708   4.222   0.194
  444TIP3   OH2 1276   6.001   6.602   0.731
  444TIP3    H1 1277   6.073   6.541   0.749
  444TIP3    H2 1278   5.934   6.549   0.688
  445TIP3   OH2 1279   4.609   7.741   0.382
  445TIP3    H1 1280   4.524   7.780   0.404
  445TIP3    H2 1281   4.653   7.732   0.466
  446TIP3   OH2 1282   8.137   4.240   0.631
  446TIP3    H1 1283   8.154   4.202   0.717
  446TIP3    H2 1284   8.217   4.287   0.609
  447TIP3   OH2 1285   0.691   3.967   6.598
  447TIP3    H1 1286   0.704   3.906   6.671
  447TIP3    H2 1287   0.619   4.024   6.626
  448TIP3   OH2 1288   2.216   3.118   1.804
  448TIP3    H1 1289   2.242   3.184   1.869
  448TIP3    H2 1290   2.280   3.048   1.813
  449TIP3   OH2 1291   8.217   2.484   4.359
  449TIP3    H1 1292   8.198   2.429   4.283
  449TIP3    H2 1293   8.221   2.422   4.432
  450TIP3   OH2 1294   5.352   6.355   4.675
  450TIP3    H1 1295   5.354   6.337   4.769
  450TIP3    H2 1296   5.397   6.281   4.636
  451TIP3   OH2 1297   6.228   1.605   2.881
  451TIP3    H1 1298   6.173   1.681   2.863
  451TIP3    H2 1299   6.174   1.548   2.936
  452TIP3   OH2 1300   5.175   0.520   6.612
  452TIP3    H1 1301   5.143   0.495   6.525
  452TIP3    H2 1302   5.196   0.613   6.605
  453TIP3   OH2 1303   5.173   0.077   1.140
  453TIP3    H1 1304   5.141   0.166   1.149
  453TIP3    H2 1305   5.241   0.082   1.072
  454TIP3   OH2 1306   1.142   5.930   1.040
  454TIP3    H1 1307   1.099   5.966   1.118
  454TIP3    H2 1308   1.200   6.001   1.011
  455TIP3   OH2 1309   2.611   5.739   3.111
  455TIP3    H1 1310   2.578   5.829   3.105
  455TIP3    H2 1311   2.578   5.707   3.195
  456TIP3   OH2 1312   2.800   0.023   6.683
  456TIP3    H1 1313   2.863   0.090   6.711
  456TIP3    H2 1314   2.730   0.071   6.640
  457TIP3   OH2 1315   3.258   0.880   4.558
  457TIP3    H1 1316   3.349   0.876   4.529
  457TIP3    H2 1317   3.211   0.821   4.499
  458TIP3   OH2 1318   5.042   0.121   5.426
  458TIP3    H1 1319   4.993   0.082   5.498
  458TIP3    H2 1320   5.024   0.214   5.431
  459TIP3   OH2 1321   7.244   4.274   2.540
  459TIP3    H1 1322   7.235   4.207   2.608
  459TIP3    H2 1323   7.289   4.229   2.468
  460TIP3   OH2 1324   1.643   6.927   1.582
  460TIP3    H1 1325   1.656   6.937   1.676
  460TIP3    H2 1326   1.731   6.916   1.547
  461TIP3   OH2 1327   2.669   2.198   5.060
  461TIP3    H1 1328   2.682   2.272   5.002
  461TIP3    H2 1329   2.666   2.236   5.148
  462TIP3   OH2 1330   1.315   1.490   1.139
  462TIP3    H1 1331   1.275   1.404   1.153
  462TIP3    H2 1332   1.271   1.525   1.061
  463TIP3   OH2 1333   2.204   4.422   0.003
  463TIP3    H1 1334   2.225   4.461   0.088
  463TIP3    H2 1335   2.249   4.338   0.004
  464TIP3   OH2 1336   1.614   6.629   5.389
  464TIP3    H1 1337   1.549   6.672   5.333
  464TIP3    H2 1338   1.676   6.590   5.328
  465TIP3   OH2 1339   2.496   2.593   6.149
  465TIP3    H1 1340   2.505   2.549   6.065
  465TIP3    H2 1341   2.439   2.668   6.131
  466TIP3   OH2 1342   4.966   3.355   0.752
  466TIP3    H1 1343   4.977   3.381   0.844
  466TIP3    H2 1344   4.872   3.339   0.743
  467TIP3   OH2 1345   1.676   4.527   2.383
  467TIP3    H1 1346   1.616   4.482   2.324
  467TIP3    H2 1347   1.738   4.459   2.412
  468TIP3   OH2 1348   0.251   3.856   5.287
  468TIP3    H1 1349   0.269   3.937   5.239
  468TIP3    H2 1350   0.307   3.790   5.246
  469TIP3   OH2 1351   7.015   0.368   0.495
  469TIP3    H1 1352   7.056   0.450   0.468
  469TIP3    H2 1353   7.088   0.313   0.524
  470TIP3   OH2 1354   2.290   5.044   1.246
  470TIP3    H1 1355   2.312   4.958   1.209
  470TIP3    H2 1356   2.369   5.096   1.232
  471TIP3   OH2 1357   6.148   6.741   6.346
  471TIP3    H1 1358   6.135   6.779   6.259
  471TIP3    H2 1359   6.149   6.647   6.332
  472TIP3   OH2 1360   6.615   0.315   0.163
  472TIP3    H1 1361   6.578   0.369   0.232
  472TIP3    H2 1362   6.634   0.377   0.092
  473TIP3   OH2 1363   3.481   7.577   3.930
  473TIP3    H1 1364   3.498   7.634   3.855
  473TIP3    H2 1365   3.421   7.510   3.896
  474TIP3   OH2 1366   4.896   2.606   5.535
  474TIP3    H1 1367   4.948   2.684   5.516
  474TIP3    H2 1368   4.935   2.537   5.481
  475TIP3   OH2 1369   5.342   6.956   5.848
  475TIP3    H1 1370   5.423   7.004   5.866
  475TIP3    H2 1371   5.273   7.019   5.866
  476TIP3   OH2 1372   5.115   0.272   2.451
  476TIP3    H1 1373   5.151   0.315   2.529
  476TIP3    H2 1374   5.146   0.324   2.377
  477TIP3   OH2 1375   1.610   1.977   6.655
  477TIP3    H1 1376   1.523   1.974   6.616
  477TIP3    H2 1377   1.595   1.968   6.749
  478TIP3   OH2 1378   2.721   3.227   4.532
  478TIP3    H1 1379   2.758   3.225   4.621
  478TIP3    H2 1380   2.769   3.160   4.484
  479TIP3   OH2 1381   7.593   1.596   2.671
  479TIP3    H1 1382   7.523   1.547   2.629
  479TIP3    H2 1383   7.673   1.558   2.636
  480TIP3   OH2 1384   0.267   4.047   5.923
  480TIP3    H1 1385   0.190   4.003   5.888
  480TIP3    H2 1386   0.232   4.123   5.969
  481TIP3   OH2 1387   4.011   4.061   6.315
  481TIP3    H1 1388   4.067   4.117   6.261
  481TIP3    H2 1389   4.065   3.985   6.334
  482TIP3   OH2 1390   4.752   7.242   6.469
  482TIP3    H1 1391   4.664   7.211   6.490
  482TIP3    H2 1392   4.808   7.166   6.482
  483TIP3   OH2 1393   1.422   5.353   1.993
  483TIP3    H1 1394   1.462   5.274   1.956
  483TIP3    H2 1395   1.429   5.419   1.923
  484TIP3   OH2 1396   7.459   6.364   3.389
  484TIP3    H1 1397   7.470   6.276   3.423
  484TIP3    H2 1398   7.403   6.408   3.454
  485TIP3   OH2 1399   5.769   7.443   0.375
  485TIP3    H1 1400   5.853   7.400   0.389
  485TIP3    H2 1401   5.732   7.451   0.463
  486TIP3   OH2 1402   3.833   5.352   4.144
  486TIP3    H1 1403   3.757   5.391   4.187
  486TIP3    H2 1404   3.891   5.328   4.216
  487TIP3   OH2 1405   3.023   1.024   2.357
  487TIP3    H1 1406   2.957   1.013   2.288
  487TIP3    H2 1407   3.094   0.965   2.331
  488TIP3   OH2 1408   8.018   5.489   2.778
  488TIP3    H1 1409   8.092   5.551   2.785
  488TIP3    H2 1410   7.941   5.542   2.795
  489TIP3   OH2 1411   6.077   0.380   4.736
  489TIP3    H1 1412   6.009   0.433   4.693
  489TIP3    H2 1413   6.073   0.295   4.692
  490TIP3   OH2 1414   0.963   7.501   6.059
  490TIP3    H1 1415   0.870   7.483   6.073
  490TIP3    H2 1416   1.004   7.479   6.142
  491TIP3   OH2 1417   1.019   2.418   6.548
  491TIP3    H1 1418   1.062   2.417   6.463
  491TIP3    H2 1419   0.940   2.471   6.535
  492TIP3   OH2 1420   1.427   3.114   4.923
  492TIP3    H1 1421   1.470   3.050   4.979
  492TIP3    H2 1422   1.343   3.074   4.900
  493TIP3   OH2 1423   2.455   0.475   0.818
  493TIP3    H1 1424   2.386   0.410   0.832
  493TIP3    H2 1425   2.408   0.558   0.806
  494TIP3   OH2 1426   6.351   2.194   2.167
  494TIP3    H1 1427   6.284   2.178   2.234
  494TIP3    H2 1428   6.416   2.125   2.182
  495TIP3   OH2 1429   1.596   5.008   3.320
  495TIP3    H1 1430   1.585   4.938   3.255
  495TIP3    H2 1431   1.682   5.045   3.301
  496TIP3   OH2 1432   1.167   3.378   4.978
  496TIP3    H1 1433   1.134   3.331   4.901
  496TIP3    H2 1434   1.157   3.316   5.050
  497TIP3   OH2 1435   0.917   2.872   1.465
  497TIP3    H1 1436   0.887   2.941   1.406
  497TIP3    H2 1437   0.981   2.915   1.522
  498TIP3   OH2 1438   4.099   6.050   0.653
  498TIP3    H1 1439   4.029   6.032   0.716
  498TIP3    H2 1440   4.157   5.974   0.658
  499TIP3   OH2 1441   3.861   0.502   2.533
  499TIP3    H1 1442   3.836   0.485   2.624
  499TIP3    H2 1443   3.937   0.446   2.519
  500TIP3   OH2 1444   3.134   3.460   4.317
  500TIP3    H1 1445   3.206   3.521   4.333
  500TIP3    H2 1446   3.164   3.376   4.351
  501TIP3   OH2 1447   7.902   7.605   4.108
  501TIP3    H1 1448   7.878   7.587   4.199
  501TIP3    H2 1449   7.819   7.603   4.060
  502TIP3   OH2 1450   5.997   4.294   5.514
  502TIP3    H1 1451   5.913   4.250   5.499
  502TIP3    H2 1452   5.994   4.372   5.458
  503TIP3   OH2 1453   3.718   4.003   5.295
  503TIP3    H1 1454   3.683   3.914   5.287
  503TIP3    H2 1455   3.752   4.007   5.385
  504TIP3   OH2 1456   1.836   4.241   1.349
  504TIP3    H1 1457   1.863   4.278   1.264
  504TIP3    H2 1458   1.824   4.148   1.332
  505TIP3   OH2 1459   3.040   7.375   2.906
  505TIP3    H1 1460   3.014   7.285   2.887
  505TIP3    H2 1461   2.981   7.403   2.975
  506TIP3   OH2 1462   5.473   0.482   4.064
  506TIP3    H1 1463   5.522   0.475   4.146
  506TIP3    H2 1464   5.381   0.480   4.091
  507TIP3   OH2 1465   3.141   5.740   4.124
  507TIP3    H1 1466   3.067   5.680   4.116
  507TIP3    H2 1467   3.216   5.684   4.142
  508TIP3   OH2 1468   4.261   1.051   5.519
  508TIP3    H1 1469   4.269   1.004   5.601
  508TIP3    H2 1470   4.196   1.002   5.469
  509TIP3   OH2 1471   6.520   7.073   6.100
  509TIP3    H1 1472   6.601   7.044   6.060
  509TIP3    H2 1473   6.454   7.061   6.032
  510TIP3   OH2 1474   5.420   1.121   1.724
  510TIP3    H1 1475   5.345   1.122   1.664
  510TIP3    H2 1476   5.442   1.214   1.736
  511TIP3   OH2 1477   7.879   5.909   5.579
  511TIP3    H1 1478   7.908   6.000   5.571
  511TIP3    H2 1479   7.784   5.915   5.588
  512TIP3   OH2 1480   2.983   7.820   4.109
  512TIP3    H1 1481   2.986   7.725   4.124
  512TIP3    H2 1482   2.942   7.829   4.023
  513TIP3   OH2 1483   7.880   4.359   3.881
  513TIP3    H1 1484   7.920   4.405   3.807
  513TIP3    H2 1485   7.815   4.421   3.915
  514TIP3   OH2 1486   5.821   6.745   2.900
  514TIP3    H1 1487   5.898   6.706   2.857
  514TIP3    H2 1488   5.855   6.787   2.978
  515TIP3   OH2 1489   0.401   0.245   4.107
  515TIP3    H1 1490   0.373   0.321   4.157
  515TIP3    H2 1491   0.335   0.236   4.038
  516TIP3   OH2 1492   5.581   6.210   5.113
  516TIP3    H1 1493   5.649   6.196   5.179
  516TIP3    H2 1494   5.511   6.150   5.138
  517TIP3   OH2 1495   0.119   7.483   6.691
  517TIP3    H1 1496   0.117   7.393   6.660
  517TIP3    H2 1497   0.159   7.533   6.620
  518TIP3   OH2 1498   5.925   4.446   4.437
  518TIP3    H1 1499   5.968   4.436   4.352
  518TIP3    H2 1500   5.947   4.535   4.464
  519TIP3   OH2 1501   3.637   0.680   6.452
  519TIP3    H1 1502   3.660   0.717   6.537
  519TIP3    H2 1503   3.542   0.689   6.446
  520TIP3   OH2 1504   1.201   6.447   3.299
  520TIP3    H1 1505   1.280   6.463   3.249
  520TIP3    H2 1506   1.231   6.410   3.382
  521TIP3   OH2 1507   3.917   5.147   5.255
  521TIP3    H1 1508   3.936   5.078   5.318
  521TIP3    H2 1509   3.822   5.158   5.258
  522TIP3   OH2 1510   1.290   4.724   6.547
  522TIP3    H1 1511   1.238   4.647   6.525
  522TIP3    H2 1512   1.355   4.693   6.609
  523TIP3   OH2 1513   0.631   7.028   5.332
  523TIP3    H1 1514   0.571   7.024   5.257
  523TIP3    H2 1515   0.652   6.936   5.350
  524TIP3   OH2 1516   6.147   5.644   6.094
  524TIP3    H1 1517   6.084   5.711   6.069
  524TIP3    H2 1518   6.093   5.569   6.120
  525TIP3   OH2 1519   4.987   5.468   5.096
  525TIP3    H1 1520   4.962   5.404   5.162
  525TIP3    H2 1521   4.944   5.549   5.125
  526TIP3   OH2 1522   0.544   2.641   0.546
  526TIP3    H1 1523   0.548   2.556   0.590
  526TIP3    H2 1524   0.601   2.632   0.470
  527TIP3   OH2 1525   0.243   4.096   6.449
  527TIP3    H1 1526   0.323   4.045   6.432
  527TIP3    H2 1527   0.208   4.058   6.529
  528TIP3   OH2 1528   0.514   4.195   4.535
  528TIP3    H1 1529   0.505   4.136   4.610
  528TIP3    H2 1530   0.518   4.136   4.459
  529TIP3   OH2 1531   4.590   6.501   5.741
  529TIP3    H1 1532   4.510   6.453   5.766
  529TIP3    H2 1533   4.656   6.432   5.730
  530TIP3   OH2 1534   3.821   6.122   2.990
  530TIP3    H1 1535   3.853   6.041   3.029
  530TIP3    H2 1536   3.730   6.130   3.021
  531TIP3   OH2 1537   1.388   5.336   4.511
  531TIP3    H1 1538   1.473   5.294   4.519
  531TIP3    H2 1539   1.381   5.359   4.418
  532TIP3   OH2 1540   7.572   7.707   0.314
  532TIP3    H1 1541   7.667   7.716   0.311
  532TIP3    H2 1542   7.544   7.714   0.223
  533TIP3   OH2 1543   5.979   5.173   3.446
  533TIP3    H1 1544   5.987   5.268   3.435
  533TIP3    H2 1545   5.912   5.148   3.382
  534TIP3   OH2 1546   7.508   6.504   0.716
  534TIP3    H1 1547   7.570   6.433   0.730
  534TIP3    H2 1548   7.428   6.476   0.761
  535TIP3   OH2 1549   6.163   2.925   5.296
  535TIP3    H1 1550   6.138   2.832   5.294
  535TIP3    H2 1551   6.093   2.970   5.249
  536TIP3   OH2 1552   2.438   1.976   4.211
  536TIP3    H1 1553   2.431   1.977   4.116
  536TIP3    H2 1554   2.444   2.068   4.236
  537TIP3   OH2 1555   0.926   3.118   0.086
  537TIP3    H1 1556   0.931   3.047   0.022
  537TIP3    H2 1557   0.957   3.079   0.168
  538TIP3   OH2 1558   7.777   0.389   3.712
  538TIP3    H1 1559   7.787   0.309   3.661
  538TIP3    H2 1560   7.684   0.410   3.706
  539TIP3   OH2 1561   2.130   5.638   3.464
  539TIP3    H1 1562   2.158   5.645   3.372
  539TIP3    H2 1563   2.036   5.653   3.462
  540TIP3   OH2 1564   0.978   6.303   6.246
  540TIP3    H1 1565   1.010   6.252   6.321
  540TIP3    H2 1566   0.963   6.239   6.177
  541TIP3   OH2 1567   0.274   5.717   1.192
  541TIP3    H1 1568   0.366   5.708   1.216
  541TIP3    H2 1569   0.246   5.629   1.169
  542TIP3   OH2 1570   5.955   4.745   2.489
  542TIP3    H1 1571   5.904   4.671   2.523
  542TIP3    H2 1572   6.016   4.705   2.426
  543TIP3   OH2 1573   1.728   1.713   2.305
  543TIP3    H1 1574   1.661   1.737   2.369
  543TIP3    H2 1575   1.772   1.637   2.345
  544TIP3   OH2 1576   1.288   3.629   5.601
  544TIP3    H1 1577   1.381   3.645   5.613
  544TIP3    H2 1578   1.248   3.656   5.684
  545TIP3   OH2 1579   7.047   0.083   5.065
  545TIP3    H1 1580   7.099   0.022   5.119
  545TIP3    H2 1581   6.959   0.046   5.066
  546TIP3   OH2 1582   6.452   7.523   3.777
  546TIP3    H1 1583   6.415   7.435   3.779
  546TIP3    H2 1584   6.476   7.541   3.868
  547TIP3   OH2 1585   4.223   7.357   0.498
  547TIP3    H1 1586   4.242   7.338   0.590
  547TIP3    H2 1587   4.174   7.281   0.468
  548TIP3   OH2 1588   5.517   0.494   6.218
  548TIP3    H1 1589   5.470   0.446   6.287
  548TIP3    H2 1590   5.451   0.554   6.183
  549TIP3   OH2 1591  -0.008   2.063   0.033
  549TIP3    H1 1592  -0.019   2.126  -0.038
  549TIP3    H2 1593   0.086   2.044   0.034
  550TIP3   OH2 1594   5.554   0.267   6.740
  550TIP3    H1 1595   5.551   0.356   6.704
  550TIP3    H2 1596   5.582   0.212   6.667
  551TIP3   OH2 1597   6.333   2.376   4.878
  551TIP3    H1 1598   6.392   2.445   4.907
  551TIP3    H2 1599   6.363   2.298   4.925
  552TIP3   OH2 1600   7.592   4.413   0.203
  552TIP3    H1 1601   7.600   4.492   0.150
  552TIP3    H2 1602   7.651   4.428   0.277
  553TIP3   OH2 1603   2.571   3.048   2.807
  553TIP3    H1 1604   2.620   3.021   2.729
  553TIP3    H2 1605   2.484   3.071   2.774
  554TIP3   OH2 1606   4.562   6.882   2.784
  554TIP3    H1 1607   4.582   6.931   2.704
  554TIP3    H2 1608   4.600   6.935   2.854
  555TIP3   OH2 1609   1.634   1.464   4.883
  555TIP3    H1 1610   1.693   1.537   4.865
  555TIP3    H2 1611   1.691   1.387   4.882
  556TIP3   OH2 1612   1.321   1.628   3.723
  556TIP3    H1 1613   1.246   1.603   3.777
  556TIP3    H2 1614   1.348   1.547   3.680
  557TIP3   OH2 1615   4.574   1.881   2.694
  557TIP3    H1 1616   4.644   1.938   2.726
  557TIP3    H2 1617   4.620   1.807   2.654
  558TIP3   OH2 1618   8.235   7.301   5.509
  558TIP3    H1 1619   8.316   7.254   5.532
  558TIP3    H2 1620   8.247   7.327   5.418
  559TIP3   OH2 1621   2.417   4.632   5.074
  559TIP3    H1 1622   2.396   4.723   5.091
  559TIP3    H2 1623   2.442   4.629   4.982
  560TIP3   OH2 1624   3.357   6.335   3.348
  560TIP3    H1 1625   3.334   6.419   3.307
  560TIP3    H2 1626   3.452   6.328   3.334
  561TIP3   OH2 1627   4.329   1.316   4.615
  561TIP3    H1 1628   4.373   1.247   4.566
  561TIP3    H2 1629   4.245   1.278   4.639
  562TIP3   OH2 1630   5.574   2.194   5.529
  562TIP3    H1 1631   5.479   2.181   5.525
  562TIP3    H2 1632   5.588   2.276   5.482
  563TIP3   OH2 1633   4.417   2.876   0.547
  563TIP3    H1 1634   4.402   2.800   0.603
  563TIP3    H2 1635   4.501   2.858   0.505
  564TIP3   OH2 1636   5.471   1.649   0.309
  564TIP3    H1 1637   5.507   1.603   0.385
  564TIP3    H2 1638   5.512   1.735   0.310
  565TIP3   OH2 1639   6.070   0.444   5.800
  565TIP3    H1 1640   6.007   0.440   5.728
  565TIP3    H2 1641   6.125   0.366   5.788
  566TIP3   OH2 1642   7.972   6.193   1.061
  566TIP3    H1 1643   7.982   6.285   1.038
  566TIP3    H2 1644   8.031   6.146   1.002
  567TIP3   OH2 1645   5.086   4.816   4.110
  567TIP3    H1 1646   5.043   4.852   4.033
  567TIP3    H2 1647   5.045   4.730   4.122
  568TIP3   OH2 1648   4.555   6.993   3.918
  568TIP3    H1 1649   4.562   7.042   3.837
  568TIP3    H2 1650   4.515   7.054   3.980
  569TIP3   OH2 1651   6.029   2.639   1.844
  569TIP3    H1 1652   5.977   2.561   1.862
  569TIP3    H2 1653   6.093   2.611   1.778
  570TIP3   OH2 1654   2.705   1.387   3.003
  570TIP3    H1 1655   2.744   1.422   3.083
  570TIP3    H2 1656   2.611   1.386   3.019
  571TIP3   OH2 1657   5.392   4.069   2.179
  571TIP3    H1 1658   5.446   4.149   2.186
  571TIP3    H2 1659   5.321   4.093   2.120
  572TIP3   OH2 1660   7.005   0.235   4.711
  572TIP3    H1 1661   7.007   0.302   4.643
  572TIP3    H2 1662   6.929   0.181   4.689
  573TIP3   OH2 1663   3.340   0.307   1.618
  573TIP3    H1 1664   3.293   0.320   1.536
  573TIP3    H2 1665   3.315   0.382   1.672
  574TIP3   OH2 1666   6.704   5.028   1.379
  574TIP3    H1 1667   6.661   4.944   1.395
  574TIP3    H2 1668   6.798   5.007   1.381
  575TIP3   OH2 1669   5.422   6.696   1.028
  575TIP3    H1 1670   5.417   6.684   0.933
  575TIP3    H2 1671   5.363   6.769   1.046
  576TIP3   OH2 1672   4.361   2.001   6.660
  576TIP3    H1 1673   4.368   2.093   6.633
  576TIP3    H2 1674   4.358   1.953   6.577
  577TIP3   OH2 1675   0.852   7.096   1.196
  577TIP3    H1 1676   0.768   7.126   1.161
  577TIP3    H2 1677   0.870   7.015   1.149
  578TIP3   OH2 1678   1.737   0.693   3.319
  578TIP3    H1 1679   1.697   0.729   3.398
  578TIP3    H2 1680   1.782   0.768   3.279
  579TIP3   OH2 1681   8.200   6.361   1.666
  579TIP3    H1 1682   8.140   6.365   1.592
  579TIP3    H2 1683   8.183   6.275   1.706
  580TIP3   OH2 1684   4.514   4.152   4.698
  580TIP3    H1 1685   4.583   4.162   4.633
  580TIP3    H2 1686   4.526   4.225   4.758
  581TIP3   OH2 1687   7.993   1.937   6.476
  581TIP3    H1 1688   7.968   1.909   6.565
  581TIP3    H2 1689   7.959   1.868   6.420
  582TIP3   OH2 1690   8.241   1.317   0.498
  582TIP3    H1 1691   8.193   1.285   0.574
  582TIP3    H2 1692   8.173   1.355   0.442
  583TIP3   OH2 1693   1.523   0.136   5.783
  583TIP3    H1 1694   1.617   0.145   5.792
  583TIP3    H2 1695   1.504   0.046   5.809
  584TIP3   OH2 1696   8.090   2.182   6.398
  584TIP3    H1 1697   8.080   2.233   6.479
  584TIP3    H2 1698   8.057   2.095   6.421
  585TIP3   OH2 1699   2.141   2.780   4.311
  585TIP3    H1 1700   2.091   2.710   4.269
  585TIP3    H2 1701   2.208   2.734   4.363
  586TIP3   OH2 1702   6.499   7.667   5.270
  586TIP3    H1 1703   6.560   7.637   5.338
  586TIP3    H2 1704   6.554   7.679   5.193
  587TIP3   OH2 1705   0.585   2.991   6.286
  587TIP3    H1 1706   0.538   2.957   6.210
  587TIP3    H2 1707   0.524   2.979   6.359
  588TIP3   OH2 1708   1.747   6.153   2.378
  588TIP3    H1 1709   1.787   6.240   2.381
  588TIP3    H2 1710   1.717   6.138   2.467
  589TIP3   OH2 1711  -0.021   3.075   5.858
  589TIP3    H1 1712   0.001   2.982   5.854
  589TIP3    H2 1713   0.028   3.115   5.786
  590TIP3   OH2 1714   5.359   3.762   3.431
  590TIP3    H1 1715   5.445   3.772   3.472
  590TIP3    H2 1716   5.376   3.705   3.356
  591TIP3   OH2 1717   2.042   1.947   2.431
  591TIP3    H1 1718   1.952   1.936   2.398
  591TIP3    H2 1719   2.030   1.969   2.524
  592TIP3   OH2 1720   3.284   7.163   0.674
  592TIP3    H1 1721   3.266   7.246   0.630
  592TIP3    H2 1722   3.372   7.139   0.645
  593TIP3   OH2 1723   4.257   4.665   5.945
  593TIP3    H1 1724   4.301   4.731   5.892
  593TIP3    H2 1725   4.203   4.615   5.883
  594TIP3   OH2 1726   0.366   5.404   2.268
  594TIP3    H1 1727   0.349   5.378   2.178
  594TIP3    H2 1728   0.435   5.346   2.298
  595TIP3   OH2 1729   0.083   6.564   0.187
  595TIP3    H1 1730   0.165   6.517   0.173
  595TIP3    H2 1731   0.083   6.633   0.121
  596TIP3   OH2 1732   4.365   1.367   3.367
  596TIP3    H1 1733   4.445   1.383   3.419
  596TIP3    H2 1734   4.396   1.358   3.277
  597TIP3   OH2 1735   5.706   2.742   2.700
  597TIP3    H1 1736   5.702   2.655   2.661
  597TIP3    H2 1737   5.615   2.768   2.710
  598TIP3   OH2 1738   1.213   3.646   6.498
  598TIP3    H1 1739   1.127   3.607   6.513
  598TIP3    H2 1740   1.275   3.586   6.540
  599TIP3   OH2 1741   4.819   1.412   1.525
  599TIP3    H1 1742   4.830   1.324   1.490
  599TIP3    H2 1743   4.892   1.422   1.586
  600TIP3   OH2 1744   7.318   0.823   2.798
  600TIP3    H1 1745   7.299   0.884   2.869
  600TIP3    H2 1746   7.400   0.780   2.824
  601TIP3   OH2 1747   5.980   0.063   6.045
  601TIP3    H1 1748   5.934   0.104   5.972
  601TIP3    H2 1749   5.912   0.047   6.110
  602TIP3   OH2 1750   1.241   0.897   2.178
  602TIP3    H1 1751   1.149   0.877   2.161
  602TIP3    H2 1752   1.287   0.870   2.099
  603TIP3   OH2 1753   6.449   4.945   4.682
  603TIP3    H1 1754   6.423   4.860   4.718
  603TIP3    H2 1755   6.539   4.931   4.653
  604TIP3   OH2 1756   1.060   7.743   4.179
  604TIP3    H1 1757   0.978   7.769   4.137
  604TIP3    H2 1758   1.129   7.778   4.123
  605TIP3   OH2 1759   0.790   2.184   0.027
  605TIP3    H1 1760   0.761   2.139   0.106
  605TIP3    H2 1761   0.868   2.136  -0.001
  606TIP3   OH2 1762   4.644   5.006   0.733
  606TIP3    H1 1763   4.628   5.079   0.673
  606TIP3    H2 1764   4.642   5.046   0.820
  607TIP3   OH2 1765   1.766   0.416   5.678
  607TIP3    H1 1766   1.780   0.396   5.770
  607TIP3    H2 1767   1.696   0.357   5.651
  608TIP3   OH2 1768   7.405   3.605   2.360
  608TIP3    H1 1769   7.427   3.678   2.417
  608TIP3    H2 1770   7.311   3.591   2.373
  609TIP3   OH2 1771   3.622   7.310   3.366
  609TIP3    H1 1772   3.700   7.274   3.408
  609TIP3    H2 1773   3.552   7.250   3.391
  610TIP3   OH2 1774   7.828   1.527   5.378
  610TIP3    H1 1775   7.792   1.472   5.309
  610TIP3    H2 1776   7.849   1.466   5.449
  611TIP3   OH2 1777   2.697   6.764   5.960
  611TIP3    H1 1778   2.715   6.673   5.983
  611TIP3    H2 1779   2.737   6.776   5.874
  612TIP3   OH2 1780   3.719   2.903   4.851
  612TIP3    H1 1781   3.789   2.950   4.895
  612TIP3    H2 1782   3.638   2.937   4.890
  613TIP3   OH2 1783   7.897   6.649   3.931
  613TIP3    H1 1784   7.941   6.709   3.871
  613TIP3    H2 1785   7.806   6.648   3.900
  614TIP3   OH2 1786   8.063   4.697   0.798
  614TIP3    H1 1787   8.154   4.719   0.816
  614TIP3    H2 1788   8.032   4.651   0.876
  615TIP3   OH2 1789   3.429   0.204   3.307
  615TIP3    H1 1790   3.505   0.248   3.345
  615TIP3    H2 1791   3.429   0.230   3.215
  616TIP3   OH2 1792   3.616   3.317   5.530
  616TIP3    H1 1793   3.579   3.405   5.521
  616TIP3    H2 1794   3.540   3.260   5.542
  617TIP3   OH2 1795   5.901   2.265   3.310
  617TIP3    H1 1796   5.979   2.246   3.258
  617TIP3    H2 1797   5.910   2.208   3.387
  618TIP3   OH2 1798   0.281   0.064   4.828
  618TIP3    H1 1799   0.341   0.093   4.897
  618TIP3    H2 1800   0.194   0.080   4.864
  619TIP3   OH2 1801   3.858   5.527   0.780
  619TIP3    H1 1802   3.946   5.525   0.742
  619TIP3    H2 1803   3.874   5.530   0.875
  620TIP3   OH2 1804   6.097   6.047   2.345
  620TIP3    H1 1805   6.028   6.112   2.331
  620TIP3    H2 1806   6.077   5.977   2.284
  621TIP3   OH2 1807   4.340   5.115   3.203
  621TIP3    H1 1808   4.310   5.025   3.219
  621TIP3    H2 1809   4.435   5.108   3.203
  622TIP3   OH2 1810   0.766   5.765   2.323
  622TIP3    H1 1811   0.824   5.840   2.318
  622TIP3    H2 1812   0.795   5.717   2.401
  623TIP3   OH2 1813   1.666   0.371   6.655
  623TIP3    H1 1814   1.658   0.331   6.569
  623TIP3    H2 1815   1.587   0.424   6.665
  624TIP3   OH2 1816   3.967   3.700   0.290
  624TIP3    H1 1817   3.887   3.709   0.341
  624TIP3    H2 1818   3.951   3.625   0.232
  625TIP3   OH2 1819   5.461   7.713   3.269
  625TIP3    H1 1820   5.529   7.768   3.307
  625TIP3    H2 1821   5.434   7.759   3.189
  626TIP3   OH2 1822   3.663   4.885   1.841
  626TIP3    H1 1823   3.719   4.959   1.820
  626TIP3    H2 1824   3.624   4.907   1.926
  627TIP3   OH2 1825   5.480   7.623   3.883
  627TIP3    H1 1826   5.436   7.640   3.966
  627TIP3    H2 1827   5.409   7.616   3.819
  628TIP3   OH2 1828   2.100   3.296   5.715
  628TIP3    H1 1829   2.019   3.345   5.699
  628TIP3    H2 1830   2.077   3.205   5.693
  629TIP3   OH2 1831   4.373   7.235   0.783
  629TIP3    H1 1832   4.360   7.249   0.877
  629TIP3    H2 1833   4.461   7.198   0.776
  630TIP3   OH2 1834   3.555   0.006   4.102
  630TIP3    H1 1835   3.555   0.101   4.096
  630TIP3    H2 1836   3.527  -0.024   4.016
  631TIP3   OH2 1837   0.063   2.359   2.802
  631TIP3    H1 1838   0.104   2.284   2.845
  631TIP3    H2 1839   0.132   2.426   2.798
  632TIP3   OH2 1840   2.658   3.600   1.094
  632TIP3    H1 1841   2.710   3.609   1.014
  632TIP3    H2 1842   2.591   3.536   1.073
  633TIP3   OH2 1843   6.929   0.936   1.670
  633TIP3    H1 1844   7.007   0.909   1.719
  633TIP3    H2 1845   6.889   0.854   1.642
  634TIP3   OH2 1846   6.916   3.651   6.444
  634TIP3    H1 1847   6.912   3.734   6.492
  634TIP3    H2 1848   6.979   3.599   6.493
  635TIP3   OH2 1849   7.434   1.371   4.412
  635TIP3    H1 1850   7.525   1.343   4.426
  635TIP3    H2 1851   7.438   1.466   4.409
  636TIP3   OH2 1852   5.954   5.474   1.561
  636TIP3    H1 1853   5.911   5.558   1.546
  636TIP3    H2 1854   5.885   5.418   1.597
  637TIP3   OH2 1855   5.357   7.294   0.999
  637TIP3    H1 1856   5.309   7.245   1.065
  637TIP3    H2 1857   5.429   7.236   0.974
  638TIP3   OH2 1858   4.918   3.119   5.440
  638TIP3    H1 1859   4.851   3.057   5.412
  638TIP3    H2 1860   4.869   3.191   5.481
  639TIP3   OH2 1861   4.693   7.688   1.692
  639TIP3    H1 1862   4.757   7.675   1.761
  639TIP3    H2 1863   4.619   7.730   1.735
  640TIP3   OH2 1864   6.325   2.930   2.769
  640TIP3    H1 1865   6.360   2.923   2.857
  640TIP3    H2 1866   6.234   2.900   2.777
  641TIP3   OH2 1867   7.689   0.770   3.848
  641TIP3    H1 1868   7.632   0.825   3.902
  641TIP3    H2 1869   7.645   0.765   3.763
  642TIP3   OH2 1870   5.003   2.759   6.054
  642TIP3    H1 1871   5.064   2.819   6.013
  642TIP3    H2 1872   5.023   2.764   6.148
  643TIP3   OH2 1873   1.571   4.755   4.747
  643TIP3    H1 1874   1.518   4.835   4.750
  643TIP3    H2 1875   1.647   4.779   4.693
  644TIP3   OH2 1876   1.356   5.064   5.661
  644TIP3    H1 1877   1.412   5.001   5.616
  644TIP3    H2 1878   1.341   5.133   5.596
  645TIP3   OH2 1879   4.767   7.395   4.097
  645TIP3    H1 1880   4.851   7.355   4.120
  645TIP3    H2 1881   4.755   7.466   4.160
  646TIP3   OH2 1882   8.124   1.681   1.452
  646TIP3    H1 1883   8.111   1.766   1.495
  646TIP3    H2 1884   8.218   1.667   1.455
  647TIP3   OH2 1885   1.510   2.422   2.791
  647TIP3    H1 1886   1.442   2.464   2.739
  647TIP3    H2 1887   1.530   2.485   2.861
  648TIP3   OH2 1888   6.908   4.384   4.221
  648TIP3    H1 1889   6.866   4.418   4.300
  648TIP3    H2 1890   7.002   4.396   4.236
  649TIP3   OH2 1891   4.099   0.438   5.201
  649TIP3    H1 1892   4.132   0.349   5.203
  649TIP3    H2 1893   4.004   0.428   5.189
  650TIP3   OH2 1894   4.382   6.823   0.488
  650TIP3    H1 1895   4.302   6.859   0.451
  650TIP3    H2 1896   4.452   6.859   0.433
  651TIP3   OH2 1897   6.151   3.153   3.907
  651TIP3    H1 1898   6.204   3.141   3.828
  651TIP3    H2 1899   6.165   3.072   3.957
  652TIP3   OH2 1900   5.161   4.610   5.552
  652TIP3    H1 1901   5.160   4.664   5.632
  652TIP3    H2 1902   5.135   4.671   5.482
  653TIP3   OH2 1903   0.428   0.324   5.809
  653TIP3    H1 1904   0.503   0.298   5.863
  653TIP3    H2 1905   0.431   0.267   5.733
  654TIP3   OH2 1906   3.614   4.346   0.713
  654TIP3    H1 1907   3.635   4.262   0.754
  654TIP3    H2 1908   3.689   4.402   0.734
  655TIP3   OH2 1909   6.856   6.838   2.056
  655TIP3    H1 1910   6.895   6.812   1.973
  655TIP3    H2 1911   6.930   6.852   2.115
  656TIP3   OH2 1912   2.292   7.529   5.098
  656TIP3    H1 1913   2.380   7.566   5.099
  656TIP3    H2 1914   2.237   7.597   5.136
  657TIP3   OH2 1915   6.641   3.219   1.869
  657TIP3    H1 1916   6.732   3.248   1.856
  657TIP3    H2 1917   6.618   3.175   1.788
  658TIP3   OH2 1918   1.406   3.910   5.524
  658TIP3    H1 1919   1.410   3.925   5.619
  658TIP3    H2 1920   1.456   3.829   5.512
  659TIP3   OH2 1921   0.528   5.764   1.341
  659TIP3    H1 1922   0.518   5.818   1.419
  659TIP3    H2 1923   0.623   5.759   1.328
  660TIP3   OH2 1924   2.390   0.746   4.480
  660TIP3    H1 1925   2.427   0.825   4.519
  660TIP3    H2 1926   2.451   0.722   4.411
  661TIP3   OH2 1927   7.556   5.332   5.322
  661TIP3    H1 1928   7.567   5.276   5.398
  661TIP3    H2 1929   7.561   5.421   5.356
  662TIP3   OH2 1930   1.764   2.298   3.953
  662TIP3    H1 1931   1.684   2.325   3.999
  662TIP3    H2 1932   1.775   2.364   3.884
  663TIP3   OH2 1933   1.753   3.737   4.836
  663TIP3    H1 1934   1.664   3.763   4.862
  663TIP3    H2 1935   1.809   3.771   4.906
  664TIP3   OH2 1936   3.777   5.851   1.403
  664TIP3    H1 1937   3.863   5.812   1.420
  664TIP3    H2 1938   3.797   5.929   1.350
  665TIP3   OH2 1939   7.677   5.519   6.600
  665TIP3    H1 1940   7.751   5.575   6.625
  665TIP3    H2 1941   7.628   5.506   6.681
  666TIP3   OH2 1942   5.171   7.718   3.372
  666TIP3    H1 1943   5.103   7.752   3.430
  666TIP3    H2 1944   5.177   7.782   3.302
  667TIP3   OH2 1945   7.770   5.350   0.907
  667TIP3    H1 1946   7.819   5.391   0.837
  667TIP3    H2 1947   7.767   5.415   0.977
  668TIP3   OH2 1948   4.764   6.462   0.712
  668TIP3    H1 1949   4.825   6.454   0.638
  668TIP3    H2 1950   4.683   6.494   0.672
  669TIP3   OH2 1951   4.963   3.296   3.358
  669TIP3    H1 1952   4.987   3.373   3.410
  669TIP3    H2 1953   5.012   3.224   3.398
  670TIP3   OH2 1954   2.954   1.600   4.317
  670TIP3    H1 1955   3.028   1.618   4.375
  670TIP3    H2 1956   2.986   1.531   4.259
  671TIP3   OH2 1957   2.315   0.725   0.886
  671TIP3    H1 1958   2.374   0.795   0.913
  671TIP3    H2 1959   2.292   0.680   0.967
  672TIP3   OH2 1960   4.920   1.162   3.098
  672TIP3    H1 1961   4.838   1.116   3.120
  672TIP3    H2 1962   4.950   1.197   3.182
  673TIP3   OH2 1963   6.731   3.949   2.642
  673TIP3    H1 1964   6.692   4.032   2.616
  673TIP3    H2 1965   6.729   3.895   2.563
  674TIP3   OH2 1966   5.481   2.553   1.827
  674TIP3    H1 1967   5.403   2.522   1.782
  674TIP3    H2 1968   5.550   2.547   1.762
  675TIP3   OH2 1969   0.931   5.673   1.591
  675TIP3    H1 1970   0.855   5.674   1.649
  675TIP3    H2 1971   1.003   5.706   1.646
  676TIP3   OH2 1972   7.490   6.005   6.120
  676TIP3    H1 1973   7.572   6.020   6.074
  676TIP3    H2 1974   7.425   5.997   6.051
  677TIP3   OH2 1975   6.312   4.651   5.032
  677TIP3    H1 1976   6.288   4.716   4.967
  677TIP3    H2 1977   6.394   4.683   5.069
  678TIP3   OH2 1978   6.627   3.601   5.952
  678TIP3    H1 1979   6.636   3.532   5.886
  678TIP3    H2 1980   6.604   3.679   5.902
  679TIP3   OH2 1981   4.306   3.069   1.077
  679TIP3    H1 1982   4.330   3.040   1.165
  679TIP3    H2 1983   4.304   2.989   1.025
  680TIP3   OH2 1984   7.071   6.161   2.443
  680TIP3    H1 1985   7.032   6.142   2.528
  680TIP3    H2 1986   6.998   6.153   2.381
  681TIP3   OH2 1987   2.572   4.659   2.982
  681TIP3    H1 1988   2.582   4.754   2.971
  681TIP3    H2 1989   2.518   4.632   2.907
  682TIP3   OH2 1990   6.763   0.608   0.591
  682TIP3    H1 1991   6.784   0.517   0.569
  682TIP3    H2 1992   6.716   0.602   0.674
  683TIP3   OH2 1993   1.813   5.451   3.282
  683TIP3    H1 1994   1.890   5.404   3.313
  683TIP3    H2 1995   1.817   5.446   3.187
  684TIP3   OH2 1996   4.158   1.586   3.320
  684TIP3    H1 1997   4.213   1.520   3.362
  684TIP3    H2 1998   4.179   1.578   3.227
  685TIP3   OH2 1999   4.683   1.928   3.873
  685TIP3    H1 2000   4.675   1.835   3.852
  685TIP3    H2 2001   4.642   1.973   3.799
  686TIP3   OH2 2002   3.857   5.946   0.439
  686TIP3    H1 2003   3.844   5.889   0.515
  686TIP3    H2 2004   3.831   5.892   0.364
  687TIP3   OH2 2005   5.292   4.959   5.051
  687TIP3    H1 2006   5.294   4.912   5.135
  687TIP3    H2 2007   5.231   5.031   5.066
  688TIP3   OH2 2008   4.138   6.123   1.902
  688TIP3    H1 2009   4.109   6.138   1.812
  688TIP3    H2 2010   4.064   6.149   1.956
  689TIP3   OH2 2011   5.660   4.270   1.365
  689TIP3    H1 2012   5.592   4.325   1.325
  689TIP3    H2 2013   5.628   4.180   1.352
  690TIP3   OH2 2014   5.885   5.626   5.292
  690TIP3    H1 2015   5.972   5.663   5.277
  690TIP3    H2 2016   5.829   5.671   5.229
  691TIP3   OH2 2017   6.738   3.683   3.644
  691TIP3    H1 2018   6.823   3.713   3.676
  691TIP3    H2 2019   6.690   3.658   3.723
  692TIP3   OH2 2020   4.309   5.674   1.096
  692TIP3    H1 2021   4.332   5.581   1.092
  692TIP3    H2 2022   4.310   5.695   1.189
  693TIP3   OH2 2023   4.955   5.297   6.372
  693TIP3    H1 2024   5.001   5.380   6.361
  693TIP3    H2 2025   4.971   5.250   6.290
  694TIP3   OH2 2026   6.048   0.924   1.680
  694TIP3    H1 2027   6.042   0.853   1.744
  694TIP3    H2 2028   6.031   1.003   1.731
  695TIP3   OH2 2029   3.313   2.982   5.391
  695TIP3    H1 2030   3.353   2.898   5.367
  695TIP3    H2 2031   3.322   3.036   5.312
  696TIP3   OH2 2032   2.105   7.015   5.049
  696TIP3    H1 2033   2.189   6.992   5.089
  696TIP3    H2 2034   2.114   7.107   5.026
  697TIP3   OH2 2035   1.690   4.315   2.625
  697TIP3    H1 2036   1.783   4.294   2.635
  697TIP3    H2 2037   1.657   4.250   2.563
  698TIP3   OH2 2038   0.904   0.054   4.073
  698TIP3    H1 2039   0.935   0.086   4.158
  698TIP3    H2 2040   0.818   0.094   4.063
  699TIP3   OH2 2041   3.266   4.025   6.146
  699TIP3    H1 2042   3.227   3.945   6.111
  699TIP3    H2 2043   3.311   4.064   6.071
  700TIP3   OH2 2044   1.293   6.267   2.081
  700TIP3    H1 2045   1.378   6.223   2.084
  700TIP3    H2 2046   1.232   6.198   2.053
  701TIP3   OH2 2047   2.576   0.156   6.568
  701TIP3    H1 2048   2.617   0.221   6.510
  701TIP3    H2 2049   2.521   0.104   6.509
  702TIP3   OH2 2050   7.562   4.734   4.649
  702TIP3    H1 2051   7.601   4.700   4.730
  702TIP3    H2 2052   7.483   4.680   4.636
  703TIP3   OH2 2053   0.506   3.669   4.070
  703TIP3    H1 2054   0.532   3.581   4.042
  703TIP3    H2 2055   0.544   3.678   4.157
  704TIP3   OH2 2056   3.682   7.070   5.072
  704TIP3    H1 2057   3.714   6.997   5.018
  704TIP3    H2 2058   3.641   7.027   5.147
  705TIP3   OH2 2059   3.723   0.213   0.112
  705TIP3    H1 2060   3.631   0.229   0.134
  705TIP3    H2 2061   3.772   0.264   0.176
  706TIP3   OH2 2062   6.774   4.818   2.586
  706TIP3    H1 2063   6.727   4.826   2.503
  706TIP3    H2 2064   6.837   4.747   2.571
  707TIP3   OH2 2065   3.600   1.402   5.459
  707TIP3    H1 2066   3.678   1.387   5.406
  707TIP3    H2 2067   3.530   1.356   5.412
  708TIP3   OH2 2068   6.838   1.627   5.885
  708TIP3    H1 2069   6.776   1.623   5.958
  708TIP3    H2 2070   6.784   1.653   5.810
  709TIP3   OH2 2071   5.980   3.221   1.443
  709TIP3    H1 2072   6.033   3.145   1.466
  709TIP3    H2 2073   5.960   3.263   1.527
  710TIP3   OH2 2074   8.302   4.239   3.190
  710TIP3    H1 2075   8.297   4.253   3.284
  710TIP3    H2 2076   8.283   4.325   3.151
  711TIP3   OH2 2077   6.066   5.071   4.899
  711TIP3    H1 2078   5.990   5.128   4.890
  711TIP3    H2 2079   6.047   4.996   4.843
  712TIP3   OH2 2080   1.767   2.034   3.786
  712TIP3    H1 2081   1.804   2.099   3.846
  712TIP3    H2 2082   1.678   2.021   3.817
  713TIP3   OH2 2083   7.734   4.481   2.380
  713TIP3    H1 2084   7.720   4.517   2.468
  713TIP3    H2 2085   7.726   4.387   2.391
  714TIP3   OH2 2086   0.316   5.948   3.555
  714TIP3    H1 2087   0.342   5.995   3.634
  714TIP3    H2 2088   0.260   5.877   3.586
  715TIP3   OH2 2089   2.492   6.028   6.190
  715TIP3    H1 2090   2.400   6.034   6.218
  715TIP3    H2 2091   2.487   6.017   6.095
  716TIP3   OH2 2092   0.807   4.135   0.592
  716TIP3    H1 2093   0.798   4.230   0.589
  716TIP3    H2 2094   0.901   4.119   0.587
  717TIP3   OH2 2095   2.099   5.930   2.252
  717TIP3    H1 2096   2.048   5.870   2.198
  717TIP3    H2 2097   2.055   5.930   2.336
  718TIP3   OH2 2098   1.608   7.276   1.649
  718TIP3    H1 2099   1.547   7.237   1.712
  718TIP3    H2 2100   1.574   7.364   1.634
  719TIP3   OH2 2101   5.886   1.814   3.111
  719TIP3    H1 2102   5.817   1.878   3.126
  719TIP3    H2 2103   5.920   1.795   3.198
  720TIP3   OH2 2104   2.349   4.448   4.636
  720TIP3    H1 2105   2.268   4.398   4.644
  720TIP3    H2 2106   2.321   4.536   4.613
  721TIP3   OH2 2107   5.291   7.628   3.677
  721TIP3    H1 2108   5.317   7.720   3.675
  721TIP3    H2 2109   5.263   7.609   3.588
  722TIP3   OH2 2110   7.038   4.907   3.905
  722TIP3    H1 2111   7.095   4.853   3.961
  722TIP3    H2 2112   7.096   4.974   3.869
  723TIP3   OH2 2113   4.879   5.612   1.516
  723TIP3    H1 2114   4.813   5.605   1.448
  723TIP3    H2 2115   4.876   5.528   1.562
  724TIP3   OH2 2116   7.487   3.933   3.864
  724TIP3    H1 2117   7.413   3.969   3.914
  724TIP3    H2 2118   7.543   3.893   3.930
  725TIP3   OH2 2119   0.737   6.700   0.480
  725TIP3    H1 2120   0.797   6.631   0.452
  725TIP3    H2 2121   0.694   6.728   0.399
  726TIP3   OH2 2122   5.138   0.375   5.819
  726TIP3    H1 2123   5.101   0.298   5.864
  726TIP3    H2 2124   5.100   0.449   5.866
  727TIP3   OH2 2125   7.546   3.533   1.222
  727TIP3    H1 2126   7.454   3.513   1.210
  727TIP3    H2 2127   7.548   3.624   1.252
  728TIP3   OH2 2128   3.135   2.602   1.726
  728TIP3    H1 2129   3.069   2.644   1.671
  728TIP3    H2 2130   3.131   2.651   1.809
  729TIP3   OH2 2131   3.225   4.222   4.452
  729TIP3    H1 2132   3.225   4.158   4.523
  729TIP3    H2 2133   3.317   4.245   4.440
  730TIP3   OH2 2134   6.564   1.279   1.485
  730TIP3    H1 2135   6.561   1.186   1.507
  730TIP3    H2 2136   6.620   1.283   1.407
  731TIP3   OH2 2137   2.672   0.416   3.077
  731TIP3    H1 2138   2.596   0.386   3.127
  731TIP3    H2 2139   2.706   0.337   3.036
  732TIP3   OH2 2140   3.054   5.467   0.156
  732TIP3    H1 2141   3.023   5.554   0.130
  732TIP3    H2 2142   2.986   5.408   0.124
  733TIP3   OH2 2143   4.127   2.974   0.719
  733TIP3    H1 2144   4.149   3.066   0.734
  733TIP3    H2 2145   4.098   2.942   0.805
  734TIP3   OH2 2146   7.713   7.064   3.274
  734TIP3    H1 2147   7.775   7.020   3.217
  734TIP3    H2 2148   7.632   7.069   3.223
  735TIP3   OH2 2149   2.359   2.841   6.131
  735TIP3    H1 2150   2.403   2.894   6.063
  735TIP3    H2 2151   2.407   2.861   6.211
  736TIP3   OH2 2152   8.166   2.285   5.899
  736TIP3    H1 2153   8.194   2.273   5.990
  736TIP3    H2 2154   8.247   2.306   5.852
  737TIP3   OH2 2155   2.153   5.321   0.842
  737TIP3    H1 2156   2.240   5.340   0.876
  737TIP3    H2 2157   2.165   5.310   0.748
  738TIP3   OH2 2158   7.026   4.783   6.475
  738TIP3    H1 2159   7.090   4.816   6.413
  738TIP3    H2 2160   7.051   4.691   6.489
  739TIP3   OH2 2161   1.459   6.085   0.119
  739TIP3    H1 2162   1.519   6.067   0.192
  739TIP3    H2 2163   1.466   6.007   0.064
  740TIP3   OH2 2164   5.507   4.052   1.284
  740TIP3    H1 2165   5.548   3.978   1.240
  740TIP3    H2 2166   5.452   4.093   1.217
  741TIP3   OH2 2167   0.713   1.024   3.881
  741TIP3    H1 2168   0.731   1.011   3.974
  741TIP3    H2 2169   0.672   0.942   3.853
  742TIP3   OH2 2170   1.954   4.535   2.656
  742TIP3    H1 2171   2.037   4.581   2.647
  742TIP3    H2 2172   1.915   4.570   2.736
  743TIP3   OH2 2173   1.685   0.984   6.156
  743TIP3    H1 2174   1.672   1.053   6.221
  743TIP3    H2 2175   1.778   0.988   6.135
  744TIP3   OH2 2176   8.178   0.643   4.477
  744TIP3    H1 2177   8.154   0.586   4.404
  744TIP3    H2 2178   8.141   0.728   4.454
  745TIP3   OH2 2179   5.967   0.992   6.524
  745TIP3    H1 2180   6.020   0.988   6.604
  745TIP3    H2 2181   5.991   0.913   6.475
  746TIP3   OH2 2182   4.414   3.036   3.642
  746TIP3    H1 2183   4.421   2.950   3.684
  746TIP3    H2 2184   4.391   3.016   3.551
  747TIP3   OH2 2185   2.610   4.243   5.808
  747TIP3    H1 2186   2.685   4.189   5.781
  747TIP3    H2 2187   2.558   4.252   5.728
  748TIP3   OH2 2188   6.726   7.482   0.316
  748TIP3    H1 2189   6.755   7.424   0.385
  748TIP3    H2 2190   6.746   7.570   0.348
  749TIP3   OH2 2191   7.615   4.952   0.824
  749TIP3    H1 2192   7.615   4.860   0.797
  749TIP3    H2 2193   7.704   4.968   0.855
  750TIP3   OH2 2194   2.570   5.867   6.447
  750TIP3    H1 2195   2.623   5.797   6.483
  750TIP3    H2 2196   2.507   5.888   6.516
  751TIP3   OH2 2197   2.943   6.763   3.333
  751TIP3    H1 2198   2.916   6.850   3.305
  751TIP3    H2 2199   2.873   6.734   3.392
  752TIP3   OH2 2200   6.980   4.901   6.164
  752TIP3    H1 2201   7.059   4.892   6.111
  752TIP3    H2 2202   6.963   4.812   6.198
  753TIP3   OH2 2203   2.739   4.981   6.609
  753TIP3    H1 2204   2.748   4.892   6.644
  753TIP3    H2 2205   2.675   5.023   6.666
  754TIP3   OH2 2206   6.602   3.862   1.912
  754TIP3    H1 2207   6.523   3.808   1.922
  754TIP3    H2 2208   6.609   3.877   1.818
  755TIP3   OH2 2209   8.098   1.447   3.525
  755TIP3    H1 2210   8.094   1.352   3.520
  755TIP3    H2 2211   8.020   1.477   3.478
  756TIP3   OH2 2212   5.479   2.905   1.153
  756TIP3    H1 2213   5.558   2.859   1.183
  756TIP3    H2 2214   5.430   2.923   1.233
  757TIP3   OH2 2215   7.807   5.592   3.222
  757TIP3    H1 2216   7.814   5.603   3.317
  757TIP3    H2 2217   7.843   5.672   3.185
  758TIP3   OH2 2218   4.831   6.651   1.507
  758TIP3    H1 2219   4.807   6.692   1.590
  758TIP3    H2 2220   4.792   6.707   1.440
  759TIP3   OH2 2221   6.427   4.286   6.456
  759TIP3    H1 2222   6.387   4.343   6.522
  759TIP3    H2 2223   6.517   4.275   6.485
  760TIP3   OH2 2224   7.665   0.562   6.477
  760TIP3    H1 2225   7.655   0.499   6.548
  760TIP3    H2 2226   7.757   0.555   6.451
  761TIP3   OH2 2227   0.309   6.452   3.555
  761TIP3    H1 2228   0.300   6.500   3.637
  761TIP3    H2 2229   0.395   6.477   3.522
  762TIP3   OH2 2230   8.284   2.716   4.578
  762TIP3    H1 2231   8.360   2.669   4.611
  762TIP3    H2 2232   8.211   2.683   4.630
  763TIP3   OH2 2233   6.573   0.708   5.640
  763TIP3    H1 2234   6.598   0.703   5.547
  763TIP3    H2 2235   6.587   0.799   5.664
  764TIP3   OH2 2236   0.700   5.528   3.573
  764TIP3    H1 2237   0.632   5.573   3.524
  764TIP3    H2 2238   0.658   5.448   3.604
  765TIP3   OH2 2239   0.074   7.595   0.090
  765TIP3    H1 2240   0.020   7.562   0.018
  765TIP3    H2 2241   0.082   7.521   0.150
  766TIP3   OH2 2242   7.916   3.573   6.428
  766TIP3    H1 2243   7.940   3.481   6.437
  766TIP3    H2 2244   7.999   3.617   6.409
  767TIP3   OH2 2245   2.903   1.082   5.348
  767TIP3    H1 2246   2.992   1.048   5.358
  767TIP3    H2 2247   2.913   1.177   5.345
  768TIP3   OH2 2248   4.368   3.907   5.576
  768TIP3    H1 2249   4.435   3.842   5.554
  768TIP3    H2 2250   4.385   3.928   5.668
  769TIP3   OH2 2251   2.378   2.035   6.712
  769TIP3    H1 2252   2.395   2.121   6.750
  769TIP3    H2 2253   2.441   2.027   6.640
  770TIP3   OH2 2254   3.558   0.685   3.470
  770TIP3    H1 2255   3.550   0.696   3.565
  770TIP3    H2 2256   3.471   0.708   3.436
  771TIP3   OH2 2257   8.147   6.901   0.386
  771TIP3    H1 2258   8.194   6.817   0.380
  771TIP3    H2 2259   8.163   6.943   0.302
  772TIP3   OH2 2260   3.282   1.690   5.406
  772TIP3    H1 2261   3.305   1.705   5.314
  772TIP3    H2 2262   3.282   1.777   5.445
  773TIP3   OH2 2263   0.661   4.404   4.004
  773TIP3    H1 2264   0.568   4.388   4.020
  773TIP3    H2 2265   0.680   4.487   4.049
  774TIP3   OH2 2266   6.786   5.472   1.774
  774TIP3    H1 2267   6.766   5.451   1.865
  774TIP3    H2 2268   6.881   5.483   1.771
  775TIP3   OH2 2269   5.445   5.536   4.935
  775TIP3    H1 2270   5.361   5.580   4.943
  775TIP3    H2 2271   5.428   5.462   4.876
  776TIP3   OH2 2272   2.056   3.694   5.535
  776TIP3    H1 2273   2.044   3.606   5.570
  776TIP3    H2 2274   1.995   3.748   5.587
  777TIP3   OH2 2275   0.759   7.773   1.504
  777TIP3    H1 2276   0.688   7.777   1.568
  777TIP3    H2 2277   0.723   7.815   1.426
  778TIP3   OH2 2278   2.061   2.511   0.351
  778TIP3    H1 2279   2.005   2.539   0.423
  778TIP3    H2 2280   2.133   2.574   0.350
  779TIP3   OH2 2281   1.876   7.344   1.142
  779TIP3    H1 2282   1.821   7.325   1.219
  779TIP3    H2 2283   1.943   7.403   1.176
  780TIP3   OH2 2284   2.602   7.631   2.723
  780TIP3    H1 2285   2.594   7.536   2.720
  780TIP3    H2 2286   2.695   7.647   2.734
  781TIP3   OH2 2287   5.073   5.577   5.956
  781TIP3    H1 2288   5.073   5.493   5.910
  781TIP3    H2 2289   5.093   5.641   5.888
  782TIP3   OH2 2290   6.945   7.802   0.646
  782TIP3    H1 2291   6.973   7.889   0.676
  782TIP3    H2 2292   6.895   7.766   0.720
  783TIP3   OH2 2293   5.116   4.773   5.963
  783TIP3    H1 2294   5.204   4.782   5.926
  783TIP3    H2 2295   5.064   4.839   5.917
  784TIP3   OH2 2296   1.991   2.603   5.166
  784TIP3    H1 2297   1.937   2.648   5.101
  784TIP3    H2 2298   2.071   2.580   5.118
  785TIP3   OH2 2299   2.320   2.614   1.754
  785TIP3    H1 2300   2.378   2.562   1.810
  785TIP3    H2 2301   2.282   2.550   1.694
  786TIP3   OH2 2302   7.934   3.802   3.248
  786TIP3    H1 2303   8.006   3.859   3.222
  786TIP3    H2 2304   7.867   3.862   3.281
  787TIP3   OH2 2305   6.340   5.693   3.297
  787TIP3    H1 2306   6.349   5.685   3.392
  787TIP3    H2 2307   6.391   5.620   3.261
  788TIP3   OH2 2308   1.375   7.378   6.711
  788TIP3    H1 2309   1.405   7.463   6.742
  788TIP3    H2 2310   1.314   7.399   6.640
  789TIP3   OH2 2311   7.823   1.050   2.255
  789TIP3    H1 2312   7.742   1.024   2.211
  789TIP3    H2 2313   7.870   0.968   2.269
  790TIP3   OH2 2314   8.050   6.735   1.175
  790TIP3    H1 2315   7.989   6.666   1.200
  790TIP3    H2 2316   8.049   6.797   1.248
  791TIP3   OH2 2317   2.161   1.981   4.271
  791TIP3    H1 2318   2.151   2.036   4.349
  791TIP3    H2 2319   2.256   1.966   4.265
  792TIP3   OH2 2320   2.530   2.503   5.881
  792TIP3    H1 2321   2.482   2.576   5.843
  792TIP3    H2 2322   2.614   2.504   5.837
  793TIP3   OH2 2323   0.104   7.820   2.793
  793TIP3    H1 2324   0.061   7.754   2.846
  793TIP3    H2 2325   0.190   7.832   2.833
  794TIP3   OH2 2326   0.188   1.344   0.871
  794TIP3    H1 2327   0.109   1.392   0.847
  794TIP3    H2 2328   0.224   1.393   0.945
  795TIP3   OH2 2329   7.362   3.155   2.257
  795TIP3    H1 2330   7.398   3.076   2.216
  795TIP3    H2 2331   7.275   3.165   2.220
  796TIP3   OH2 2332   0.829   2.504   4.769
  796TIP3    H1 2333   0.761   2.567   4.746
  796TIP3    H2 2334   0.906   2.532   4.720
  797TIP3   OH2 2335   3.344   4.344   1.602
  797TIP3    H1 2336   3.384   4.362   1.517
  797TIP3    H2 2337   3.332   4.249   1.602
  798TIP3   OH2 2338   0.967   1.680   6.666
  798TIP3    H1 2339   0.898   1.640   6.720
  798TIP3    H2 2340   1.024   1.608   6.643
  799TIP3   OH2 2341   1.030   0.875   5.917
  799TIP3    H1 2342   0.940   0.845   5.933
  799TIP3    H2 2343   1.080   0.841   5.991
  800TIP3   OH2 2344   2.046   0.903   1.171
  800TIP3    H1 2345   2.067   0.979   1.116
  800TIP3    H2 2346   1.968   0.928   1.219
  801TIP3   OH2 2347   5.169   3.288   6.396
  801TIP3    H1 2348   5.137   3.265   6.309
  801TIP3    H2 2349   5.225   3.365   6.381
  802TIP3   OH2 2350   2.669   0.881   0.700
  802TIP3    H1 2351   2.739   0.924   0.651
  802TIP3    H2 2352   2.589   0.901   0.652
  803TIP3   OH2 2353   4.418   7.406   5.566
  803TIP3    H1 2354   4.421   7.314   5.593
  803TIP3    H2 2355   4.423   7.404   5.471
  804TIP3   OH2 2356   4.854   4.981   0.262
  804TIP3    H1 2357   4.827   4.898   0.301
  804TIP3    H2 2358   4.905   5.024   0.331
  805TIP3   OH2 2359   0.739   0.011   6.227
  805TIP3    H1 2360   0.771  -0.059   6.170
  805TIP3    H2 2361   0.705   0.077   6.167
  806TIP3   OH2 2362   0.602   6.205   1.862
  806TIP3    H1 2363   0.518   6.242   1.837
  806TIP3    H2 2364   0.618   6.239   1.950
  807TIP3   OH2 2365   5.944   7.089   2.485
  807TIP3    H1 2366   5.883   7.163   2.484
  807TIP3    H2 2367   5.923   7.042   2.566
  808TIP3   OH2 2368   4.813   1.185   0.527
  808TIP3    H1 2369   4.785   1.151   0.612
  808TIP3    H2 2370   4.905   1.159   0.520
  809TIP3   OH2 2371   3.943   7.123   2.184
  809TIP3    H1 2372   3.945   7.187   2.255
  809TIP3    H2 2373   3.850   7.106   2.168
  810TIP3   OH2 2374   7.188   5.494   3.136
  810TIP3    H1 2375   7.279   5.475   3.111
  810TIP3    H2 2376   7.166   5.575   3.090
  811TIP3   OH2 2377   7.834   1.309   5.014
  811TIP3    H1 2378   7.812   1.392   5.056
  811TIP3    H2 2379   7.818   1.324   4.921
  812TIP3   OH2 2380   5.415   1.992   1.523
  812TIP3    H1 2381   5.347   2.019   1.585
  812TIP3    H2 2382   5.471   2.070   1.513
  813TIP3   OH2 2383   1.331   5.530   2.176
  813TIP3    H1 2384   1.391   5.483   2.118
  813TIP3    H2 2385   1.281   5.587   2.118
  814TIP3   OH2 2386   4.205   1.257   6.484
  814TIP3    H1 2387   4.239   1.274   6.573
  814TIP3    H2 2388   4.111   1.274   6.490
  815TIP3   OH2 2389   7.686   6.325   4.881
  815TIP3    H1 2390   7.606   6.316   4.830
  815TIP3    H2 2391   7.665   6.287   4.966
  816TIP3   OH2 2392   2.708   3.572   5.488
  816TIP3    H1 2393   2.770   3.539   5.552
  816TIP3    H2 2394   2.727   3.665   5.481
  817TIP3   OH2 2395   3.343   7.038   5.720
  817TIP3    H1 2396   3.408   7.085   5.668
  817TIP3    H2 2397   3.391   7.010   5.798
  818TIP3   OH2 2398   5.637   2.570   2.064
  818TIP3    H1 2399   5.600   2.577   1.977
  818TIP3    H2 2400   5.595   2.493   2.102
  819TIP3   OH2 2401   1.007   7.016   6.515
  819TIP3    H1 2402   1.067   6.947   6.488
  819TIP3    H2 2403   0.920   6.977   6.508
  820TIP3   OH2 2404   6.519   6.262   4.469
  820TIP3    H1 2405   6.569   6.264   4.550
  820TIP3    H2 2406   6.574   6.215   4.406
  821TIP3   OH2 2407   0.942   7.304   0.816
  821TIP3    H1 2408   0.982   7.384   0.852
  821TIP3    H2 2409   0.849   7.324   0.812
  822TIP3   OH2 2410   5.396   5.940   2.779
  822TIP3    H1 2411   5.388   6.036   2.781
  822TIP3    H2 2412   5.490   5.924   2.772
  823TIP3   OH2 2413   1.775   0.554   3.086
  823TIP3    H1 2414   1.815   0.467   3.083
  823TIP3    H2 2415   1.757   0.570   3.178
  824TIP3   OH2 2416   3.496   1.057   4.388
  824TIP3    H1 2417   3.416   1.047   4.336
  824TIP3    H2 2418   3.502   0.976   4.438
  825TIP3   OH2 2419   5.091   1.676   3.713
  825TIP3    H1 2420   5.123   1.587   3.727
  825TIP3    H2 2421   5.167   1.725   3.682
  826TIP3   OH2 2422   7.601   2.490   1.761
  826TIP3    H1 2423   7.618   2.503   1.668
  826TIP3    H2 2424   7.632   2.570   1.803
  827TIP3   OH2 2425   4.334   6.112   2.565
  827TIP3    H1 2426   4.417   6.098   2.520
  827TIP3    H2 2427   4.348   6.191   2.617
  828TIP3   OH2 2428   0.756   3.025   6.698
  828TIP3    H1 2429   0.756   3.014   6.793
  828TIP3    H2 2430   0.849   3.029   6.674
  829TIP3   OH2 2431   1.543   4.299   5.015
  829TIP3    H1 2432   1.550   4.350   5.096
  829TIP3    H2 2433   1.631   4.262   5.003
  830TIP3   OH2 2434   0.100   1.475   2.014
  830TIP3    H1 2435   0.035   1.495   2.081
  830TIP3    H2 2436   0.136   1.390   2.040
  831TIP3   OH2 2437   1.818   0.330   6.255
  831TIP3    H1 2438   1.828   0.284   6.338
  831TIP3    H2 2439   1.732   0.303   6.222
  832TIP3   OH2 2440   1.388   1.704   2.248
  832TIP3    H1 2441   1.350   1.718   2.162
  832TIP3    H2 2442   1.391   1.791   2.288
  833TIP3   OH2 2443   2.494   2.809   4.825
  833TIP3    H1 2444   2.499   2.821   4.730
  833TIP3    H2 2445   2.446   2.885   4.857
  834TIP3   OH2 2446   6.498   7.511   2.603
  834TIP3    H1 2447   6.540   7.547   2.681
  834TIP3    H2 2448   6.428   7.456   2.636
  835TIP3   OH2 2449   3.867   0.019   4.757
  835TIP3    H1 2450   3.926  -0.053   4.780
  835TIP3    H2 2451   3.912   0.097   4.789
  836TIP3   OH2 2452   0.097   4.326   6.404
  836TIP3    H1 2453   0.151   4.247   6.414
  836TIP3    H2 2454   0.125   4.383   6.475
  837TIP3   OH2 2455   4.510   3.962   5.878
  837TIP3    H1 2456   4.519   4.057   5.878
  837TIP3    H2 2457   4.428   3.946   5.925
  838TIP3   OH2 2458   4.593   1.555   2.209
  838TIP3    H1 2459   4.634   1.619   2.151
  838TIP3    H2 2460   4.645   1.476   2.198
  839TIP3   OH2 2461   3.020   2.739   0.295
  839TIP3    H1 2462   3.071   2.815   0.267
  839TIP3    H2 2463   3.015   2.684   0.217
  840TIP3   OH2 2464   0.811   7.532   3.774
  840TIP3    H1 2465   0.717   7.537   3.786
  840TIP3    H2 2466   0.845   7.509   3.861
  841TIP3   OH2 2467   0.571   1.861   5.660
  841TIP3    H1 2468   0.636   1.927   5.636
  841TIP3    H2 2469   0.586   1.845   5.753
  842TIP3   OH2 2470   6.284   2.222   0.066
  842TIP3    H1 2471   6.276   2.181  -0.021
  842TIP3    H2 2472   6.375   2.209   0.090
  843TIP3   OH2 2473   0.980   4.401   0.405
  843TIP3    H1 2474   1.033   4.445   0.471
  843TIP3    H2 2475   0.945   4.471   0.351
  844TIP3   OH2 2476   3.716   4.166   4.777
  844TIP3    H1 2477   3.802   4.196   4.806
  844TIP3    H2 2478   3.726   4.154   4.682
  845TIP3   OH2 2479   3.938   0.221   3.323
  845TIP3    H1 2480   4.016   0.239   3.376
  845TIP3    H2 2481   3.941   0.286   3.253
  846TIP3   OH2 2482   1.660   7.672   2.669
  846TIP3    H1 2483   1.646   7.767   2.668
  846TIP3    H2 2484   1.745   7.662   2.713
  847TIP3   OH2 2485   8.309   4.514   3.124
  847TIP3    H1 2486   8.245   4.543   3.060
  847TIP3    H2 2487   8.304   4.578   3.195
  848TIP3   OH2 2488   6.136   0.555   4.325
  848TIP3    H1 2489   6.171   0.634   4.367
  848TIP3    H2 2490   6.138   0.575   4.231
  849TIP3   OH2 2491   7.007   1.699   6.069
  849TIP3    H1 2492   7.084   1.642   6.079
  849TIP3    H2 2493   6.964   1.667   5.990
  850TIP3   OH2 2494   6.951   6.508   0.053
  850TIP3    H1 2495   7.004   6.494   0.131
  850TIP3    H2 2496   6.916   6.421   0.031
  851TIP3   OH2 2497   2.549   7.475   6.071
  851TIP3    H1 2498   2.563   7.565   6.099
  851TIP3    H2 2499   2.454   7.465   6.067
  852TIP3   OH2 2500   4.563   5.120   4.293
  852TIP3    H1 2501   4.488   5.090   4.345
  852TIP3    H2 2502   4.525   5.158   4.214
  853TIP3   OH2 2503   7.835   6.164   0.651
  853TIP3    H1 2504   7.911   6.213   0.620
  853TIP3    H2 2505   7.848   6.076   0.616
  854TIP3   OH2 2506   7.915   7.471   3.563
  854TIP3    H1 2507   7.880   7.560   3.566
  854TIP3    H2 2508   7.851   7.421   3.513
  855TIP3   OH2 2509   5.950   5.184   3.743
  855TIP3    H1 2510   5.947   5.163   3.650
  855TIP3    H2 2511   5.976   5.102   3.786
  856TIP3   OH2 2512   3.777   3.208   5.344
  856TIP3    H1 2513   3.707   3.248   5.395
  856TIP3    H2 2514   3.857   3.249   5.376
  857TIP3   OH2 2515   1.774   1.762   3.775
  857TIP3    H1 2516   1.806   1.843   3.734
  857TIP3    H2 2517   1.715   1.792   3.844
  858TIP3   OH2 2518   7.536   5.848   5.874
  858TIP3    H1 2519   7.591   5.771   5.857
  858TIP3    H2 2520   7.460   5.813   5.920
  859TIP3   OH2 2521   6.222   0.591   2.881
  859TIP3    H1 2522   6.260   0.677   2.900
  859TIP3    H2 2523   6.130   0.599   2.909
  860TIP3   OH2 2524   4.374   4.674   3.845
  860TIP3    H1 2525   4.420   4.597   3.879
  860TIP3    H2 2526   4.390   4.671   3.751
  861TIP3   OH2 2527   1.551   1.261   0.003
  861TIP3    H1 2528   1.609   1.319   0.051
  861TIP3    H2 2529   1.578   1.173   0.029
  862TIP3   OH2 2530   0.215   6.040   4.787
  862TIP3    H1 2531   0.291   6.060   4.842
  862TIP3    H2 2532   0.184   6.126   4.758
  863TIP3   OH2 2533   3.953   2.179   1.173
  863TIP3    H1 2534   3.913   2.190   1.259
  863TIP3    H2 2535   3.909   2.101   1.137
  864TIP3   OH2 2536   0.855   4.275   5.327
  864TIP3    H1 2537   0.878   4.231   5.408
  864TIP3    H2 2538   0.887   4.365   5.338
  865TIP3   OH2 2539   4.783   3.980   0.125
  865TIP3    H1 2540   4.784   3.974   0.221
  865TIP3    H2 2541   4.715   4.044   0.106
  866TIP3   OH2 2542   6.395   0.573   2.022
  866TIP3    H1 2543   6.460   0.566   1.952
  866TIP3    H2 2544   6.375   0.482   2.045
  867TIP3   OH2 2545   1.044   1.524   1.981
  867TIP3    H1 2546   1.035   1.532   2.076
  867TIP3    H2 2547   1.043   1.429   1.965
  868TIP3   OH2 2548   4.222   6.730   5.637
  868TIP3    H1 2549   4.205   6.638   5.657
  868TIP3    H2 2550   4.315   6.742   5.657
  869TIP3   OH2 2551   0.023   5.357   4.932
  869TIP3    H1 2552   0.039   5.295   5.003
  869TIP3    H2 2553  -0.025   5.306   4.866
  870TIP3   OH2 2554   3.447   5.321   2.122
  870TIP3    H1 2555   3.475   5.321   2.214
  870TIP3    H2 2556   3.485   5.400   2.085
  871TIP3   OH2 2557   2.110   2.302   2.383
  871TIP3    H1 2558   2.078   2.259   2.304
  871TIP3    H2 2559   2.173   2.366   2.351
  872TIP3   OH2 2560   2.302   3.383   4.238
  872TIP3    H1 2561   2.224   3.380   4.184
  872TIP3    H2 2562   2.269   3.388   4.328
  873TIP3   OH2 2563   4.080   0.396   0.667
  873TIP3    H1 2564   4.162   0.347   0.675
  873TIP3    H2 2565   4.044   0.396   0.756
  874TIP3   OH2 2566   1.054   6.576   5.293
  874TIP3    H1 2567   1.094   6.490   5.308
  874TIP3    H2 2568   1.012   6.568   5.208
  875TIP3   OH2 2569   4.804   7.122   4.451
  875TIP3    H1 2570   4.880   7.177   4.474
  875TIP3    H2 2571   4.788   7.140   4.359
  876TIP3   OH2 2572   2.686   5.156   3.097
  876TIP3    H1 2573   2.597   5.159   3.132
  876TIP3    H2 2574   2.705   5.247   3.071
  877TIP3   OH2 2575   4.849   6.737   6.000
  877TIP3    H1 2576   4.842   6.741   6.095
  877TIP3    H2 2577   4.864   6.828   5.973
  878TIP3   OH2 2578   3.907   3.865   4.461
  878TIP3    H1 2579   3.844   3.821   4.404
  878TIP3    H2 2580   3.913   3.954   4.426
  879TIP3   OH2 2581   5.795   0.943   2.114
  879TIP3    H1 2582   5.801   0.936   2.209
  879TIP3    H2 2583   5.710   0.905   2.092
  880TIP3   OH2 2584   5.157   5.817   1.881
  880TIP3    H1 2585   5.099   5.874   1.931
  880TIP3    H2 2586   5.135   5.834   1.790
  881TIP3   OH2 2587   2.104   6.207   3.533
  881TIP3    H1 2588   2.119   6.133   3.592
  881TIP3    H2 2589   2.182   6.209   3.478
  882TIP3   OH2 2590   4.884   4.235   4.269
  882TIP3    H1 2591   4.941   4.287   4.326
  882TIP3    H2 2592   4.930   4.152   4.259
  883TIP3   OH2 2593   4.044   7.328   4.862
  883TIP3    H1 2594   4.028   7.422   4.859
  883TIP3    H2 2595   4.027   7.303   4.953
  884TIP3   OH2 2596   5.824   2.961   3.656
  884TIP3    H1 2597   5.737   2.922   3.661
  884TIP3    H2 2598   5.819   3.036   3.715
  885TIP3   OH2 2599   6.062   2.197   0.725
  885TIP3    H1 2600   5.972   2.174   0.700
  885TIP3    H2 2601   6.102   2.114   0.749
  886TIP3   OH2 2602   5.589   7.771   4.534
  886TIP3    H1 2603   5.571   7.848   4.480
  886TIP3    H2 2604   5.508   7.720   4.531
  887TIP3   OH2 2605   5.345   0.216   0.615
  887TIP3    H1 2606   5.416   0.250   0.670
  887TIP3    H2 2607   5.357   0.258   0.531
  888TIP3   OH2 2608   3.948   2.075   3.736
  888TIP3    H1 2609   3.892   2.130   3.682
  888TIP3    H2 2610   3.895   1.998   3.755
  889TIP3   OH2 2611   4.304   1.913   3.127
  889TIP3    H1 2612   4.249   1.842   3.162
  889TIP3    H2 2613   4.250   1.991   3.135
  890TIP3   OH2 2614   5.014   0.388   0.608
  890TIP3    H1 2615   5.023   0.315   0.547
  890TIP3    H2 2616   5.056   0.462   0.564
  891TIP3   OH2 2617   3.397   1.265   4.010
  891TIP3    H1 2618   3.331   1.196   4.017
  891TIP3    H2 2619   3.405   1.281   3.916
  892TIP3   OH2 2620   4.951   3.851   1.281
  892TIP3    H1 2621   4.991   3.794   1.215
  892TIP3    H2 2622   4.928   3.930   1.232
  893TIP3   OH2 2623   5.116   1.781   4.762
  893TIP3    H1 2624   5.077   1.779   4.675
  893TIP3    H2 2625   5.175   1.705   4.764
  894TIP3   OH2 2626   2.651   4.940   3.642
  894TIP3    H1 2627   2.683   4.879   3.575
  894TIP3    H2 2628   2.699   5.021   3.626
  895TIP3   OH2 2629   7.721   2.436   6.236
  895TIP3    H1 2630   7.729   2.504   6.169
  895TIP3    H2 2631   7.808   2.429   6.274
  896TIP3   OH2 2632   1.581   7.644   4.289
  896TIP3    H1 2633   1.635   7.682   4.357
  896TIP3    H2 2634   1.640   7.629   4.216
  897TIP3   OH2 2635   5.326   0.630   1.037
  897TIP3    H1 2636   5.322   0.607   0.944
  897TIP3    H2 2637   5.394   0.698   1.042
  898TIP3   OH2 2638   4.450   4.038   3.806
  898TIP3    H1 2639   4.518   4.086   3.854
  898TIP3    H2 2640   4.464   4.063   3.714
  899TIP3   OH2 2641   5.901   4.675   0.503
  899TIP3    H1 2642   5.806   4.678   0.508
  899TIP3    H2 2643   5.928   4.764   0.482
  900TIP3   OH2 2644   7.194   3.016   3.206
  900TIP3    H1 2645   7.214   2.922   3.205
  900TIP3    H2 2646   7.277   3.058   3.227
  901TIP3   OH2 2647   3.935   0.055   1.091
  901TIP3    H1 2648   4.025   0.022   1.095
  901TIP3    H2 2649   3.886  -0.004   1.147
  902TIP3   OH2 2650   3.592   4.543   4.864
  902TIP3    H1 2651   3.582   4.638   4.867
  902TIP3    H2 2652   3.638   4.521   4.945
  903TIP3   OH2 2653   1.200   5.745   2.846
  903TIP3    H1 2654   1.261   5.676   2.875
  903TIP3    H2 2655   1.113   5.709   2.864
  904TIP3   OH2 2656   7.467   4.067   6.276
  904TIP3    H1 2657   7.391   4.085   6.220
  904TIP3    H2 2658   7.475   4.144   6.332
  905TIP3   OH2 2659   1.585   1.213   3.112
  905TIP3    H1 2660   1.557   1.125   3.138
  905TIP3    H2 2661   1.581   1.265   3.192
  906TIP3   OH2 2662   6.596   4.163   6.653
  906TIP3    H1 2663   6.675   4.111   6.668
  906TIP3    H2 2664   6.555   4.170   6.740
  907TIP3   OH2 2665   6.031   1.092   0.107
  907TIP3    H1 2666   6.058   1.004   0.079
  907TIP3    H2 2667   6.112   1.142   0.109
  908TIP3   OH2 2668   3.628   5.087   6.144
  908TIP3    H1 2669   3.541   5.095   6.103
  908TIP3    H2 2670   3.643   4.993   6.149
  909TIP3   OH2 2671   3.442   4.672   2.147
  909TIP3    H1 2672   3.453   4.752   2.198
  909TIP3    H2 2673   3.529   4.632   2.144
  910TIP3   OH2 2674   3.583   0.591   0.969
  910TIP3    H1 2675   3.584   0.660   1.036
  910TIP3    H2 2676   3.666   0.602   0.922
  911TIP3   OH2 2677   3.961   6.124   1.709
  911TIP3    H1 2678   3.921   6.173   1.781
  911TIP3    H2 2679   3.986   6.191   1.645
  912TIP3   OH2 2680   6.864   2.563   6.321
  912TIP3    H1 2681   6.926   2.636   6.321
  912TIP3    H2 2682   6.812   2.575   6.242
  913TIP3   OH2 2683   5.548   7.670   1.814
  913TIP3    H1 2684   5.506   7.585   1.827
  913TIP3    H2 2685   5.475   7.733   1.820
  914TIP3   OH2 2686   5.791   6.501   2.192
  914TIP3    H1 2687   5.850   6.428   2.211
  914TIP3    H2 2688   5.829   6.543   2.115
  915TIP3   OH2 2689   3.184   3.826   2.511
  915TIP3    H1 2690   3.128   3.750   2.498
  915TIP3    H2 2691   3.272   3.789   2.525
  916TIP3   OH2 2692   2.309   2.150   0.222
  916TIP3    H1 2693   2.242   2.191   0.277
  916TIP3    H2 2694   2.283   2.171   0.132
  917TIP3   OH2 2695   7.593   0.447   5.241
  917TIP3    H1 2696   7.587   0.522   5.182
  917TIP3    H2 2697   7.624   0.483   5.324
  918TIP3   OH2 2698   1.404   2.156   5.232
  918TIP3    H1 2699   1.401   2.161   5.328
  918TIP3    H2 2700   1.312   2.159   5.206
  919TIP3   OH2 2701   6.324   3.976   2.210
  919TIP3    H1 2702   6.324   4.037   2.136
  919TIP3    H2 2703   6.237   3.937   2.209
  920TIP3   OH2 2704   0.444   6.660   1.122
  920TIP3    H1 2705   0.493   6.620   1.194
  920TIP3    H2 2706   0.494   6.636   1.043
  921TIP3   OH2 2707   5.176   1.491   5.576
  921TIP3    H1 2708   5.249   1.550   5.558
  921TIP3    H2 2709   5.126   1.536   5.644
  922TIP3   OH2 2710   0.828   3.429   4.846
  922TIP3    H1 2711   0.802   3.412   4.756
  922TIP3    H2 2712   0.892   3.500   4.840
  923TIP3   OH2 2713   4.297   3.380   3.603
  923TIP3    H1 2714   4.362   3.324   3.645
  923TIP3    H2 2715   4.218   3.327   3.598
  924TIP3   OH2 2716   7.443   3.553   2.831
  924TIP3    H1 2717   7.442   3.627   2.770
  924TIP3    H2 2718   7.403   3.481   2.783
  925TIP3   OH2 2719   6.846   3.511   0.832
  925TIP3    H1 2720   6.800   3.572   0.774
  925TIP3    H2 2721   6.918   3.562   0.868
  926TIP3   OH2 2722   2.273   6.524   2.919
  926TIP3    H1 2723   2.320   6.562   2.993
  926TIP3    H2 2724   2.333   6.460   2.882
  927TIP3   OH2 2725   5.714   6.925   3.348
  927TIP3    H1 2726   5.796   6.972   3.363
  927TIP3    H2 2727   5.662   6.942   3.427
  928TIP3   OH2 2728   4.786   0.858   2.912
  928TIP3    H1 2729   4.702   0.847   2.957
  928TIP3    H2 2730   4.851   0.859   2.983
  929TIP3   OH2 2731   5.884   5.592   2.453
  929TIP3    H1 2732   5.920   5.605   2.365
  929TIP3    H2 2733   5.845   5.676   2.476
  930TIP3   OH2 2734   0.809   3.128   3.487
  930TIP3    H1 2735   0.756   3.055   3.456
  930TIP3    H2 2736   0.747   3.199   3.501
  931TIP3   OH2 2737   0.910   4.362   6.115
  931TIP3    H1 2738   0.845   4.409   6.062
  931TIP3    H2 2739   0.908   4.273   6.080
  932TIP3   OH2 2740   5.393   1.661   5.435
  932TIP3    H1 2741   5.473   1.630   5.477
  932TIP3    H2 2742   5.374   1.744   5.477
  933TIP3   OH2 2743   2.787   4.048   5.698
  933TIP3    H1 2744   2.798   3.973   5.755
  933TIP3    H2 2745   2.841   4.029   5.622
  934TIP3   OH2 2746   5.823   7.697   2.206
  934TIP3    H1 2747   5.913   7.681   2.235
  934TIP3    H2 2748   5.830   7.708   2.111
  935TIP3   OH2 2749   2.388   3.813   6.062
  935TIP3    H1 2750   2.464   3.854   6.022
  935TIP3    H2 2751   2.380   3.728   6.018
  936TIP3   OH2 2752   2.416   2.642   2.188
  936TIP3    H1 2753   2.479   2.579   2.224
  936TIP3    H2 2754   2.335   2.592   2.179
  937TIP3   OH2 2755   7.995   3.876   0.290
  937TIP3    H1 2756   8.029   3.880   0.380
  937TIP3    H2 2757   8.037   3.950   0.246
  938TIP3   OH2 2758   1.956   2.984   1.796
  938TIP3    H1 2759   1.908   3.067   1.787
  938TIP3    H2 2760   2.045   3.011   1.819
  939TIP3   OH2 2761   7.446   1.227   3.297
  939TIP3    H1 2762   7.497   1.276   3.232
  939TIP3    H2 2763   7.455   1.136   3.270
  940TIP3   OH2 2764   3.535   2.539   1.655
  940TIP3    H1 2765   3.581   2.502   1.730
  940TIP3    H2 2766   3.535   2.633   1.671
  941TIP3   OH2 2767   3.759   0.807   4.996
  941TIP3    H1 2768   3.754   0.843   5.084
  941TIP3    H2 2769   3.678   0.756   4.987
  942TIP3   OH2 2770   1.705   6.885   2.439
  942TIP3    H1 2771   1.736   6.838   2.361
  942TIP3    H2 2772   1.778   6.942   2.462
  943TIP3   OH2 2773   5.998   2.084   5.130
  943TIP3    H1 2774   5.988   2.085   5.226
  943TIP3    H2 2775   6.038   2.169   5.110
  944TIP3   OH2 2776   4.794   1.649   0.428
  944TIP3    H1 2777   4.705   1.618   0.409
  944TIP3    H2 2778   4.826   1.588   0.495
  945TIP3   OH2 2779   6.770   2.691   2.653
  945TIP3    H1 2780   6.807   2.611   2.615
  945TIP3    H2 2781   6.834   2.759   2.633
  946TIP3   OH2 2782   4.650   7.712   5.377
  946TIP3    H1 2783   4.573   7.672   5.419
  946TIP3    H2 2784   4.654   7.800   5.414
  947TIP3   OH2 2785   6.932   4.158   2.783
  947TIP3    H1 2786   6.928   4.144   2.877
  947TIP3    H2 2787   7.017   4.200   2.769
  948TIP3   OH2 2788   5.945   6.271   1.813
  948TIP3    H1 2789   6.025   6.231   1.847
  948TIP3    H2 2790   5.877   6.243   1.874
  949TIP3   OH2 2791   7.249   3.509   3.676
  949TIP3    H1 2792   7.207   3.466   3.751
  949TIP3    H2 2793   7.268   3.598   3.707
  950TIP3   OH2 2794   5.078   7.326   6.052
  950TIP3    H1 2795   5.106   7.408   6.011
  950TIP3    H2 2796   5.101   7.335   6.144
  951TIP3   OH2 2797   4.742   5.628   1.265
  951TIP3    H1 2798   4.827   5.651   1.227
  951TIP3    H2 2799   4.695   5.585   1.193
  952TIP3   OH2 2800   5.273   5.388   3.923
  952TIP3    H1 2801   5.196   5.433   3.889
  952TIP3    H2 2802   5.327   5.371   3.846
  953TIP3   OH2 2803   2.214   3.608   0.069
  953TIP3    H1 2804   2.173   3.591  -0.016
  953TIP3    H2 2805   2.292   3.660   0.049
  954TIP3   OH2 2806   2.285   7.686   4.759
  954TIP3    H1 2807   2.211   7.685   4.819
  954TIP3    H2 2808   2.362   7.681   4.816
  955TIP3   OH2 2809   1.654   5.689   3.331
  955TIP3    H1 2810   1.704   5.608   3.325
  955TIP3    H2 2811   1.565   5.661   3.353
  956TIP3   OH2 2812   3.454   6.024   5.145
  956TIP3    H1 2813   3.550   6.021   5.151
  956TIP3    H2 2814   3.436   6.105   5.099
  957TIP3   OH2 2815   2.872   3.428   5.713
  957TIP3    H1 2816   2.781   3.417   5.741
  957TIP3    H2 2817   2.901   3.339   5.690
  958TIP3   OH2 2818   7.645   1.370   5.794
  958TIP3    H1 2819   7.678   1.362   5.705
  958TIP3    H2 2820   7.701   1.436   5.835
  959TIP3   OH2 2821   0.717   3.364   5.461
  959TIP3    H1 2822   0.694   3.285   5.509
  959TIP3    H2 2823   0.813   3.362   5.456
  960TIP3   OH2 2824   6.730   2.344   6.392
  960TIP3    H1 2825   6.751   2.430   6.358
  960TIP3    H2 2826   6.777   2.338   6.475
  961TIP3   OH2 2827   5.323   4.838   3.779
  961TIP3    H1 2828   5.398   4.843   3.838
  961TIP3    H2 2829   5.291   4.748   3.789
  962TIP3   OH2 2830   7.758   3.851   5.677
  962TIP3    H1 2831   7.821   3.868   5.607
  962TIP3    H2 2832   7.672   3.862   5.634
  963TIP3   OH2 2833   1.431   1.124   5.719
  963TIP3    H1 2834   1.454   1.063   5.789
  963TIP3    H2 2835   1.478   1.090   5.642
  964TIP3   OH2 2836   0.756   6.153   1.619
  964TIP3    H1 2837   0.702   6.178   1.695
  964TIP3    H2 2838   0.780   6.236   1.578
  965TIP3   OH2 2839   8.254   7.032   2.541
  965TIP3    H1 2840   8.222   7.122   2.551
  965TIP3    H2 2841   8.190   6.979   2.589
  966TIP3   OH2 2842   4.258   3.232   0.721
  966TIP3    H1 2843   4.344   3.199   0.748
  966TIP3    H2 2844   4.272   3.324   0.703
  967TIP3   OH2 2845   6.736   5.542   3.715
  967TIP3    H1 2846   6.687   5.461   3.726
  967TIP3    H2 2847   6.827   5.513   3.701
  968TIP3   OH2 2848   4.307   4.672   2.282
  968TIP3    H1 2849   4.331   4.732   2.212
  968TIP3    H2 2850   4.341   4.587   2.253
  969TIP3   OH2 2851   7.424   5.079   5.820
  969TIP3    H1 2852   7.496   5.035   5.865
  969TIP3    H2 2853   7.434   5.056   5.728
  970TIP3   OH2 2854   0.236   3.509   0.539
  970TIP3    H1 2855   0.331   3.522   0.541
  970TIP3    H2 2856   0.221   3.447   0.468
  971TIP3   OH2 2857   3.212   4.281   1.980
  971TIP3    H1 2858   3.171   4.243   2.058
  971TIP3    H2 2859   3.205   4.375   1.992
  972TIP3   OH2 2860   7.291   6.564   1.429
  972TIP3    H1 2861   7.363   6.502   1.420
  972TIP3    H2 2862   7.331   6.649   1.407
  973TIP3   OH2 2863   5.154   7.125   2.173
  973TIP3    H1 2864   5.111   7.066   2.235
  973TIP3    H2 2865   5.110   7.109   2.089
  974TIP3   OH2 2866   0.831   2.163   1.918
  974TIP3    H1 2867   0.799   2.074   1.903
  974TIP3    H2 2868   0.807   2.183   2.008
  975TIP3   OH2 2869   2.776   6.993   0.494
  975TIP3    H1 2870   2.821   7.069   0.456
  975TIP3    H2 2871   2.766   7.014   0.587
  976TIP3   OH2 2872   0.838   0.026   4.740
  976TIP3    H1 2873   0.798   0.051   4.823
  976TIP3    H2 2874   0.847  -0.070   4.746
  977TIP3   OH2 2875   2.226   1.784   1.861
  977TIP3    H1 2876   2.217   1.693   1.890
  977TIP3    H2 2877   2.171   1.834   1.921
  978TIP3   OH2 2878   7.189   5.880   4.916
  978TIP3    H1 2879   7.219   5.858   4.828
  978TIP3    H2 2880   7.206   5.974   4.925
  979TIP3   OH2 2881   5.138   6.232   0.369
  979TIP3    H1 2882   5.216   6.264   0.323
  979TIP3    H2 2883   5.167   6.217   0.459
  980TIP3   OH2 2884   3.258   5.934   1.465
  980TIP3    H1 2885   3.247   5.887   1.547
  980TIP3    H2 2886   3.343   5.977   1.472
  981TIP3   OH2 2887   1.516   1.372   6.199
  981TIP3    H1 2888   1.422   1.388   6.207
  981TIP3    H2 2889   1.537   1.398   6.110
  982TIP3   OH2 2890   5.768   4.698   1.957
  982TIP3    H1 2891   5.781   4.630   2.023
  982TIP3    H2 2892   5.840   4.686   1.895
  983TIP3   OH2 2893   0.190   0.905   1.643
  983TIP3    H1 2894   0.216   0.992   1.614
  983TIP3    H2 2895   0.211   0.848   1.569
  984TIP3   OH2 2896   5.347   0.990   0.128
  984TIP3    H1 2897   5.358   1.040   0.047
  984TIP3    H2 2898   5.429   0.942   0.138
  985TIP3   OH2 2899   6.451   4.081   5.383
  985TIP3    H1 2900   6.368   4.108   5.422
  985TIP3    H2 2901   6.514   4.146   5.414
  986TIP3   OH2 2902   6.641   1.386   2.172
  986TIP3    H1 2903   6.598   1.425   2.097
  986TIP3    H2 2904   6.624   1.292   2.163
  987TIP3   OH2 2905   3.063   0.196   0.915
  987TIP3    H1 2906   3.110   0.120   0.947
  987TIP3    H2 2907   3.095   0.269   0.969
  988TIP3   OH2 2908   7.350   3.009   6.332
  988TIP3    H1 2909   7.424   3.017   6.392
  988TIP3    H2 2910   7.384   2.959   6.258
  989TIP3   OH2 2911   5.512   4.120   6.119
  989TIP3    H1 2912   5.524   4.034   6.079
  989TIP3    H2 2913   5.474   4.102   6.205
  990TIP3   OH2 2914   8.234   6.620   5.246
  990TIP3    H1 2915   8.252   6.553   5.179
  990TIP3    H2 2916   8.269   6.701   5.209
  991TIP3   OH2 2917   2.940   2.215   0.150
  991TIP3    H1 2918   2.846   2.202   0.138
  991TIP3    H2 2919   2.957   2.185   0.239
  992TIP3   OH2 2920   0.049   7.315   1.649
  992TIP3    H1 2921   0.128   7.306   1.596
  992TIP3    H2 2922   0.043   7.408   1.668
  993TIP3   OH2 2923   4.980   0.373   5.540
  993TIP3    H1 2924   4.902   0.356   5.593
  993TIP3    H2 2925   5.053   0.342   5.594
  994TIP3   OH2 2926   5.868   3.751   3.965
  994TIP3    H1 2927   5.774   3.730   3.966
  994TIP3    H2 2928   5.911   3.666   3.956
  995TIP3   OH2 2929   0.196   4.750   3.512
  995TIP3    H1 2930   0.124   4.798   3.472
  995TIP3    H2 2931   0.250   4.817   3.554
  996TIP3   OH2 2932   5.206   7.644   1.398
  996TIP3    H1 2933   5.282   7.616   1.449
  996TIP3    H2 2934   5.136   7.650   1.463
  997TIP3   OH2 2935   3.349   3.868   6.370
  997TIP3    H1 2936   3.287   3.913   6.313
  997TIP3    H2 2937   3.420   3.842   6.312
  998TIP3   OH2 2938   3.250   0.947   5.055
  998TIP3    H1 2939   3.275   0.864   5.014
  998TIP3    H2 2940   3.217   1.000   4.983
  999TIP3   OH2 2941   3.476   7.192   3.563
  999TIP3    H1 2942   3.468   7.207   3.657
  999TIP3    H2 2943   3.401   7.138   3.541
 1000TIP3   OH2 2944   5.467   2.361   6.689
 1000TIP3    H1 2945   5.504   2.447   6.668
 1000TIP3    H2 2946   5.375   2.367   6.663
 1001TIP3   OH2 2947   6.858   5.999   4.530
 1001TIP3    H1 2948   6.867   5.904   4.518
 1001TIP3    H2 2949   6.782   6.022   4.478
 1002TIP3   OH2 2950   6.975   3.043   4.923
 1002TIP3    H1 2951   6.965   2.993   4.842
 1002TIP3    H2 2952   6.901   3.016   4.978
 1003TIP3   OH2 2953   2.281   3.136   6.037
 1003TIP3    H1 2954   2.363   3.094   6.013
 1003TIP3    H2 2955   2.222   3.064   6.058
 1004TIP3   OH2 2956   1.991   7.693   5.809
 1004TIP3    H1 2957   2.071   7.678   5.859
 1004TIP3    H2 2958   1.954   7.773   5.847
 1005TIP3   OH2 2959   3.468   3.684   5.995
 1005TIP3    H1 2960   3.376   3.711   5.992
 1005TIP3    H2 2961   3.503   3.725   6.074
 1006TIP3   OH2 2962   5.061   4.899   2.323
 1006TIP3    H1 2963   5.053   4.952   2.402
 1006TIP3    H2 2964   5.041   4.960   2.252
 1007TIP3   OH2 2965   5.479   6.313   5.601
 1007TIP3    H1 2966   5.509   6.322   5.692
 1007TIP3    H2 2967   5.384   6.318   5.607
 1008TIP3   OH2 2968   5.993   6.386   3.091
 1008TIP3    H1 2969   5.925   6.414   3.030
 1008TIP3    H2 2970   6.040   6.467   3.114
 1009TIP3   OH2 2971   7.075   4.792   1.854
 1009TIP3    H1 2972   7.094   4.700   1.841
 1009TIP3    H2 2973   6.989   4.793   1.897
 1010TIP3   OH2 2974   2.772   0.045   2.062
 1010TIP3    H1 2975   2.848   0.078   2.015
 1010TIP3    H2 2976   2.808   0.007   2.142
 1011TIP3   OH2 2977   4.198   3.456   2.215
 1011TIP3    H1 2978   4.250   3.525   2.256
 1011TIP3    H2 2979   4.254   3.424   2.143
 1012TIP3   OH2 2980   2.475   7.746   6.227
 1012TIP3    H1 2981   2.440   7.682   6.289
 1012TIP3    H2 2982   2.422   7.825   6.242
 1013TIP3   OH2 2983   2.776   5.426   1.782
 1013TIP3    H1 2984   2.832   5.423   1.705
 1013TIP3    H2 2985   2.835   5.408   1.855
 1014TIP3   OH2 2986   3.567   2.898   6.391
 1014TIP3    H1 2987   3.577   2.928   6.481
 1014TIP3    H2 2988   3.532   2.974   6.345
 1015TIP3   OH2 2989   2.187   2.156   6.148
 1015TIP3    H1 2990   2.262   2.161   6.207
 1015TIP3    H2 2991   2.139   2.079   6.177
 1016TIP3   OH2 2992   3.212   0.528   3.938
 1016TIP3    H1 2993   3.269   0.584   3.885
 1016TIP3    H2 2994   3.190   0.455   3.881
 1017TIP3   OH2 2995   1.125   0.261   4.904
 1017TIP3    H1 2996   1.121   0.167   4.923
 1017TIP3    H2 2997   1.040   0.294   4.932
 1018TIP3   OH2 2998   5.259   4.841   1.201
 1018TIP3    H1 2999   5.348   4.859   1.229
 1018TIP3    H2 3000   5.262   4.846   1.105
 1019TIP3   OH2 3001   5.657   7.800   0.377
 1019TIP3    H1 3002   5.664   7.763   0.465
 1019TIP3    H2 3003   5.730   7.863   0.372
 1020TIP3   OH2 3004   2.758   6.233   3.040
 1020TIP3    H1 3005   2.849   6.205   3.049
 1020TIP3    H2 3006   2.764   6.318   2.997
 1021TIP3   OH2 3007   2.059   3.939   1.942
 1021TIP3    H1 3008   2.082   3.950   1.850
 1021TIP3    H2 3009   2.142   3.918   1.985
 1022TIP3   OH2 3010   7.275   2.912   4.650
 1022TIP3    H1 3011   7.295   2.931   4.558
 1022TIP3    H2 3012   7.360   2.899   4.691
 1023TIP3   OH2 3013   8.062   1.146   0.241
 1023TIP3    H1 3014   7.991   1.101   0.195
 1023TIP3    H2 3015   8.018   1.202   0.305
 1024TIP3   OH2 3016   2.978   3.637   3.336
 1024TIP3    H1 3017   3.032   3.630   3.415
 1024TIP3    H2 3018   2.931   3.553   3.332
 1025TIP3   OH2 3019   3.332   3.349   1.285
 1025TIP3    H1 3020   3.313   3.397   1.205
 1025TIP3    H2 3021   3.419   3.379   1.312
 1026TIP3   OH2 3022   3.702   5.717   1.839
 1026TIP3    H1 3023   3.693   5.766   1.757
 1026TIP3    H2 3024   3.767   5.767   1.889
 1027TIP3   OH2 3025   5.798   2.518   0.619
 1027TIP3    H1 3026   5.831   2.581   0.556
 1027TIP3    H2 3027   5.705   2.540   0.628
 1028TIP3   OH2 3028   7.602   5.444   6.317
 1028TIP3    H1 3029   7.615   5.443   6.412
 1028TIP3    H2 3030   7.591   5.352   6.294
 1029TIP3   OH2 3031   3.686   7.136   2.834
 1029TIP3    H1 3032   3.723   7.186   2.761
 1029TIP3    H2 3033   3.599   7.174   2.848
 1030TIP3   OH2 3034   6.559   2.998   6.068
 1030TIP3    H1 3035   6.621   3.071   6.066
 1030TIP3    H2 3036   6.532   2.993   6.160
 1031TIP3   OH2 3037   3.212   3.739   1.442
 1031TIP3    H1 3038   3.140   3.795   1.472
 1031TIP3    H2 3039   3.280   3.750   1.509
 1032TIP3   OH2 3040   3.197   2.061   6.013
 1032TIP3    H1 3041   3.260   1.993   5.986
 1032TIP3    H2 3042   3.182   2.111   5.933
 1033TIP3   OH2 3043   5.466   0.841   0.344
 1033TIP3    H1 3044   5.510   0.916   0.303
 1033TIP3    H2 3045   5.501   0.839   0.434
 1034TIP3   OH2 3046   5.752   2.614   4.959
 1034TIP3    H1 3047   5.703   2.532   4.964
 1034TIP3    H2 3048   5.709   2.665   4.891
 1035TIP3   OH2 3049   0.794   4.102   0.237
 1035TIP3    H1 3050   0.847   4.031   0.274
 1035TIP3    H2 3051   0.745   4.061   0.166
 1036TIP3   OH2 3052   5.366   2.205   0.077
 1036TIP3    H1 3053   5.296   2.254   0.034
 1036TIP3    H2 3054   5.446   2.250   0.052
 1037TIP3   OH2 3055   7.971   6.037   2.951
 1037TIP3    H1 3056   8.029   6.096   2.998
 1037TIP3    H2 3057   8.015   6.019   2.868
 1038TIP3   OH2 3058   3.563   2.420   3.468
 1038TIP3    H1 3059   3.468   2.433   3.465
 1038TIP3    H2 3060   3.596   2.466   3.392
 1039TIP3   OH2 3061   3.796   3.394   4.872
 1039TIP3    H1 3062   3.700   3.394   4.883
 1039TIP3    H2 3063   3.828   3.443   4.948
 1040TIP3   OH2 3064   7.463   4.892   1.084
 1040TIP3    H1 3065   7.483   4.938   1.002
 1040TIP3    H2 3066   7.473   4.959   1.151
 1041TIP3   OH2 3067   6.931   2.977   1.079
 1041TIP3    H1 3068   6.900   3.036   1.010
 1041TIP3    H2 3069   6.873   2.996   1.153
 1042TIP3   OH2 3070   2.310   6.698   0.457
 1042TIP3    H1 3071   2.274   6.700   0.368
 1042TIP3    H2 3072   2.388   6.643   0.450
 1043TIP3   OH2 3073   4.640   2.863   4.495
 1043TIP3    H1 3074   4.588   2.934   4.532
 1043TIP3    H2 3075   4.650   2.885   4.403
 1044TIP3   OH2 3076   1.474   2.088   1.496
 1044TIP3    H1 3077   1.466   2.117   1.405
 1044TIP3    H2 3078   1.465   1.993   1.492
 1045TIP3   OH2 3079   3.486   2.546   2.214
 1045TIP3    H1 3080   3.438   2.551   2.132
 1045TIP3    H2 3081   3.487   2.453   2.236
 1046TIP3   OH2 3082   7.565   2.345   2.800
 1046TIP3    H1 3083   7.636   2.403   2.829
 1046TIP3    H2 3084   7.490   2.370   2.853
 1047TIP3   OH2 3085   4.622   4.773   4.762
 1047TIP3    H1 3086   4.650   4.798   4.850
 1047TIP3    H2 3087   4.532   4.805   4.756
 1048TIP3   OH2 3088   5.033   5.556   6.260
 1048TIP3    H1 3089   5.111   5.509   6.232
 1048TIP3    H2 3090   4.994   5.590   6.179
 1049TIP3   OH2 3091   1.784   6.747   4.260
 1049TIP3    H1 3092   1.814   6.779   4.175
 1049TIP3    H2 3093   1.829   6.663   4.272
 1050TIP3   OH2 3094   7.632   1.743   3.702
 1050TIP3    H1 3095   7.609   1.827   3.660
 1050TIP3    H2 3096   7.577   1.740   3.781
 1051TIP3   OH2 3097   3.713   3.760   6.799
 1051TIP3    H1 3098   3.620   3.781   6.798
 1051TIP3    H2 3099   3.743   3.775   6.709
 1052TIP3   OH2 3100   7.271   1.850   3.106
 1052TIP3    H1 3101   7.348   1.864   3.051
 1052TIP3    H2 3102   7.200   1.896   3.060
 1053TIP3   OH2 3103   3.339   1.559   2.098
 1053TIP3    H1 3104   3.276   1.535   2.031
 1053TIP3    H2 3105   3.297   1.534   2.181
 1054TIP3   OH2 3106   7.279   0.371   0.115
 1054TIP3    H1 3107   7.218   0.439   0.087
 1054TIP3    H2 3108   7.273   0.304   0.047
 1055TIP3   OH2 3109   3.894   3.842   6.534
 1055TIP3    H1 3110   3.823   3.899   6.506
 1055TIP3    H2 3111   3.853   3.755   6.542
 1056TIP3   OH2 3112   5.173   5.491   2.629
 1056TIP3    H1 3113   5.099   5.531   2.582
 1056TIP3    H2 3114   5.174   5.400   2.599
 1057TIP3   OH2 3115   6.744   3.519   2.346
 1057TIP3    H1 3116   6.737   3.481   2.258
 1057TIP3    H2 3117   6.684   3.468   2.400
 1058TIP3   OH2 3118   4.237   2.746   4.344
 1058TIP3    H1 3119   4.268   2.763   4.433
 1058TIP3    H2 3120   4.316   2.724   4.295
 1059TIP3   OH2 3121   2.426   4.816   6.623
 1059TIP3    H1 3122   2.360   4.760   6.583
 1059TIP3    H2 3123   2.472   4.855   6.548
 1060TIP3   OH2 3124   6.178   2.648   2.293
 1060TIP3    H1 3125   6.101   2.596   2.314
 1060TIP3    H2 3126   6.208   2.682   2.377
 1061TIP3   OH2 3127   1.792   0.716   2.376
 1061TIP3    H1 3128   1.814   0.723   2.469
 1061TIP3    H2 3129   1.772   0.623   2.363
 1062TIP3   OH2 3130   5.590   6.613   1.444
 1062TIP3    H1 3131   5.545   6.563   1.512
 1062TIP3    H2 3132   5.520   6.663   1.402
 1063TIP3   OH2 3133   4.689   3.139   0.456
 1063TIP3    H1 3134   4.704   3.055   0.500
 1063TIP3    H2 3135   4.594   3.150   0.458
 1064TIP3   OH2 3136   2.376   3.009   5.705
 1064TIP3    H1 3137   2.290   3.049   5.702
 1064TIP3    H2 3138   2.397   3.003   5.798
 1065TIP3   OH2 3139   5.927   3.394   4.753
 1065TIP3    H1 3140   5.892   3.480   4.775
 1065TIP3    H2 3141   5.860   3.355   4.697
 1066TIP3   OH2 3142   6.354   2.267   0.803
 1066TIP3    H1 3143   6.320   2.245   0.717
 1066TIP3    H2 3144   6.358   2.183   0.849
 1067TIP3   OH2 3145   1.295   6.097   3.803
 1067TIP3    H1 3146   1.230   6.141   3.748
 1067TIP3    H2 3147   1.312   6.014   3.759
 1068TIP3   OH2 3148   7.691   7.403   3.418
 1068TIP3    H1 3149   7.602   7.397   3.453
 1068TIP3    H2 3150   7.678   7.413   3.323
 1069TIP3   OH2 3151   1.375   3.102   5.680
 1069TIP3    H1 3152   1.460   3.063   5.660
 1069TIP3    H2 3153   1.375   3.184   5.631
 1070TIP3   OH2 3154   1.335   7.487   1.421
 1070TIP3    H1 3155   1.320   7.395   1.396
 1070TIP3    H2 3156   1.270   7.504   1.489
 1071TIP3   OH2 3157   3.975   2.358   4.343
 1071TIP3    H1 3158   3.938   2.273   4.320
 1071TIP3    H2 3159   3.901   2.406   4.381
 1072TIP3   OH2 3160   5.410   7.288   6.066
 1072TIP3    H1 3161   5.367   7.214   6.108
 1072TIP3    H2 3162   5.430   7.348   6.138
 1073TIP3   OH2 3163   7.732   0.906   2.962
 1073TIP3    H1 3164   7.715   0.970   2.893
 1073TIP3    H2 3165   7.741   0.959   3.042
 1074TIP3   OH2 3166   8.250   1.967   2.316
 1074TIP3    H1 3167   8.193   2.043   2.330
 1074TIP3    H2 3168   8.298   1.957   2.397
 1075TIP3   OH2 3169   6.373   2.023   0.967
 1075TIP3    H1 3170   6.352   2.090   1.032
 1075TIP3    H2 3171   6.427   1.960   1.014
 1076TIP3   OH2 3172   7.346   5.510   4.910
 1076TIP3    H1 3173   7.341   5.507   5.005
 1076TIP3    H2 3174   7.416   5.448   4.888
 1077TIP3   OH2 3175   6.277   7.469   2.388
 1077TIP3    H1 3176   6.334   7.514   2.326
 1077TIP3    H2 3177   6.331   7.455   2.465
 1078TIP3   OH2 3178   5.400   5.569   1.281
 1078TIP3    H1 3179   5.318   5.613   1.261
 1078TIP3    H2 3180   5.374   5.483   1.312
 1079TIP3   OH2 3181   6.367   6.652   1.721
 1079TIP3    H1 3182   6.321   6.568   1.712
 1079TIP3    H2 3183   6.457   6.633   1.697
 1080TIP3   OH2 3184   0.563   3.691   5.357
 1080TIP3    H1 3185   0.521   3.615   5.317
 1080TIP3    H2 3186   0.599   3.741   5.284
 1081TIP3   OH2 3187   4.312   5.721   0.426
 1081TIP3    H1 3188   4.231   5.751   0.384
 1081TIP3    H2 3189   4.293   5.631   0.453
 1082TIP3   OH2 3190   2.796   1.231   5.660
 1082TIP3    H1 3191   2.890   1.214   5.653
 1082TIP3    H2 3192   2.789   1.313   5.709
 1083TIP3   OH2 3193   7.896   1.290   3.773
 1083TIP3    H1 3194   7.930   1.250   3.852
 1083TIP3    H2 3195   7.806   1.315   3.795
 1084TIP3   OH2 3196   8.075   4.627   5.009
 1084TIP3    H1 3197   8.129   4.603   5.084
 1084TIP3    H2 3198   8.012   4.691   5.044
 1085TIP3   OH2 3199   6.997   3.871   2.708
 1085TIP3    H1 3200   6.919   3.923   2.729
 1085TIP3    H2 3201   6.974   3.782   2.737
 1086TIP3   OH2 3202   4.272   2.489   6.331
 1086TIP3    H1 3203   4.300   2.475   6.241
 1086TIP3    H2 3204   4.270   2.584   6.341
 1087TIP3   OH2 3205   7.585   0.331   1.789
 1087TIP3    H1 3206   7.566   0.423   1.772
 1087TIP3    H2 3207   7.591   0.292   1.702
 1088TIP3   OH2 3208   7.693   3.750   6.104
 1088TIP3    H1 3209   7.625   3.713   6.048
 1088TIP3    H2 3210   7.701   3.688   6.177
 1089TIP3   OH2 3211   1.890   3.708   1.430
 1089TIP3    H1 3212   1.907   3.614   1.439
 1089TIP3    H2 3213   1.835   3.715   1.352
 1090TIP3   OH2 3214   3.889   4.291   3.431
 1090TIP3    H1 3215   3.956   4.241   3.477
 1090TIP3    H2 3216   3.926   4.308   3.345
 1091TIP3   OH2 3217   4.039   5.810   2.632
 1091TIP3    H1 3218   4.112   5.831   2.574
 1091TIP3    H2 3219   3.963   5.853   2.592
 1092TIP3   OH2 3220   4.378   0.375   5.677
 1092TIP3    H1 3221   4.410   0.315   5.744
 1092TIP3    H2 3222   4.357   0.455   5.726
 1093TIP3   OH2 3223   7.075   5.652   2.966
 1093TIP3    H1 3224   7.056   5.742   2.991
 1093TIP3    H2 3225   6.994   5.604   2.984
 1094TIP3   OH2 3226   5.828   0.048   3.225
 1094TIP3    H1 3227   5.923   0.052   3.220
 1094TIP3    H2 3228   5.804   0.119   3.285
 1095TIP3   OH2 3229   7.199   7.390   5.869
 1095TIP3    H1 3230   7.273   7.348   5.912
 1095TIP3    H2 3231   7.169   7.457   5.930
 1096TIP3   OH2 3232   4.708   7.451   0.639
 1096TIP3    H1 3233   4.690   7.401   0.559
 1096TIP3    H2 3234   4.803   7.446   0.649
 1097TIP3   OH2 3235   4.114   5.643   2.850
 1097TIP3    H1 3236   4.067   5.689   2.780
 1097TIP3    H2 3237   4.075   5.556   2.851
 1098TIP3   OH2 3238   6.898   4.744   4.128
 1098TIP3    H1 3239   6.881   4.770   4.219
 1098TIP3    H2 3240   6.990   4.763   4.115
 1099TIP3   OH2 3241   2.161   5.462   4.802
 1099TIP3    H1 3242   2.152   5.501   4.715
 1099TIP3    H2 3243   2.224   5.392   4.790
 1100TIP3   OH2 3244   4.629   7.395   0.346
 1100TIP3    H1 3245   4.688   7.470   0.342
 1100TIP3    H2 3246   4.575   7.402   0.268
 1101TIP3   OH2 3247   7.691   1.365   1.538
 1101TIP3    H1 3248   7.629   1.320   1.594
 1101TIP3    H2 3249   7.717   1.299   1.473
 1102TIP3   OH2 3250   0.531   7.202   6.152
 1102TIP3    H1 3251   0.575   7.146   6.216
 1102TIP3    H2 3252   0.447   7.224   6.193
 1103TIP3   OH2 3253   3.669   1.155   6.099
 1103TIP3    H1 3254   3.735   1.172   6.032
 1103TIP3    H2 3255   3.715   1.100   6.164
 1104TIP3   OH2 3256   5.685   5.163   0.831
 1104TIP3    H1 3257   5.609   5.109   0.810
 1104TIP3    H2 3258   5.696   5.152   0.926
 1105TIP3   OH2 3259   7.806   2.723   6.469
 1105TIP3    H1 3260   7.790   2.741   6.376
 1105TIP3    H2 3261   7.885   2.773   6.490
 1106TIP3   OH2 3262   4.586   1.110   0.110
 1106TIP3    H1 3263   4.603   1.038   0.171
 1106TIP3    H2 3264   4.580   1.068   0.024
 1107TIP3   OH2 3265   6.707   4.827   5.887
 1107TIP3    H1 3266   6.677   4.736   5.893
 1107TIP3    H2 3267   6.676   4.857   5.801
 1108TIP3   OH2 3268   2.372   6.437   4.037
 1108TIP3    H1 3269   2.355   6.413   4.128
 1108TIP3    H2 3270   2.318   6.377   3.986
 1109TIP3   OH2 3271   1.729   4.040   0.744
 1109TIP3    H1 3272   1.801   4.050   0.682
 1109TIP3    H2 3273   1.651   4.064   0.696
 1110TIP3   OH2 3274   1.450   1.825   1.628
 1110TIP3    H1 3275   1.536   1.828   1.669
 1110TIP3    H2 3276   1.390   1.858   1.694
 1111TIP3   OH2 3277   5.937   0.100   6.562
 1111TIP3    H1 3278   5.963   0.165   6.627
 1111TIP3    H2 3279   5.919   0.021   6.613
 1112TIP3   OH2 3280   0.661   1.319   4.422
 1112TIP3    H1 3281   0.649   1.413   4.407
 1112TIP3    H2 3282   0.739   1.297   4.372
 1113TIP3   OH2 3283   8.128   3.890   0.528
 1113TIP3    H1 3284   8.135   3.982   0.552
 1113TIP3    H2 3285   8.170   3.842   0.600
 1114TIP3   OH2 3286   2.657   4.726   2.504
 1114TIP3    H1 3287   2.580   4.755   2.453
 1114TIP3    H2 3288   2.729   4.729   2.441
 1115TIP3   OH2 3289   1.969   5.676   6.340
 1115TIP3    H1 3290   1.991   5.756   6.293
 1115TIP3    H2 3291   1.990   5.606   6.278
 1116TIP3   OH2 3292   3.179   4.400   4.213
 1116TIP3    H1 3293   3.176   4.478   4.270
 1116TIP3    H2 3294   3.255   4.351   4.243
 1117TIP3   OH2 3295   4.231   1.775   5.796
 1117TIP3    H1 3296   4.242   1.864   5.828
 1117TIP3    H2 3297   4.207   1.786   5.704
 1118TIP3   OH2 3298   2.765   6.493   5.932
 1118TIP3    H1 3299   2.817   6.499   5.852
 1118TIP3    H2 3300   2.676   6.476   5.901
 1119TIP3   OH2 3301   0.295   4.486   3.622
 1119TIP3    H1 3302   0.253   4.571   3.607
 1119TIP3    H2 3303   0.388   4.504   3.622
 1120TIP3   OH2 3304   5.550   1.204   5.484
 1120TIP3    H1 3305   5.460   1.227   5.459
 1120TIP3    H2 3306   5.576   1.273   5.544
 1121TIP3   OH2 3307   3.318   3.434   2.368
 1121TIP3    H1 3308   3.364   3.364   2.413
 1121TIP3    H2 3309   3.384   3.503   2.357
 1122TIP3   OH2 3310   0.116   6.906   4.884
 1122TIP3    H1 3311   0.154   6.950   4.808
 1122TIP3    H2 3312   0.021   6.914   4.872
 1123TIP3   OH2 3313   6.289   4.333   3.638
 1123TIP3    H1 3314   6.221   4.401   3.642
 1123TIP3    H2 3315   6.240   4.251   3.651
 1124TIP3   OH2 3316   4.051   1.801   3.209
 1124TIP3    H1 3317   3.996   1.844   3.274
 1124TIP3    H2 3318   4.093   1.729   3.256
 1125TIP3   OH2 3319   6.584   3.999   3.169
 1125TIP3    H1 3320   6.535   4.002   3.251
 1125TIP3    H2 3321   6.675   4.008   3.196
 1126TIP3   OH2 3322   3.406   4.409   3.755
 1126TIP3    H1 3323   3.382   4.494   3.793
 1126TIP3    H2 3324   3.339   4.393   3.689
 1127TIP3   OH2 3325   3.556   5.720   3.095
 1127TIP3    H1 3326   3.472   5.735   3.137
 1127TIP3    H2 3327   3.540   5.651   3.031
 1128TIP3   OH2 3328   6.066   6.254   2.079
 1128TIP3    H1 3329   6.121   6.331   2.065
 1128TIP3    H2 3330   6.116   6.182   2.040
 1129TIP3   OH2 3331   3.190   1.880   2.033
 1129TIP3    H1 3332   3.186   1.815   2.103
 1129TIP3    H2 3333   3.136   1.843   1.962
 1130TIP3   OH2 3334   6.318   7.554   3.246
 1130TIP3    H1 3335   6.349   7.470   3.280
 1130TIP3    H2 3336   6.397   7.608   3.239
 1131TIP3   OH2 3337   6.864   7.532   4.566
 1131TIP3    H1 3338   6.806   7.597   4.606
 1131TIP3    H2 3339   6.928   7.511   4.635
 1132TIP3   OH2 3340   7.965   4.460   5.790
 1132TIP3    H1 3341   7.984   4.552   5.771
 1132TIP3    H2 3342   8.027   4.436   5.858
 1133TIP3   OH2 3343   0.271   0.826   1.404
 1133TIP3    H1 3344   0.202   0.818   1.338
 1133TIP3    H2 3345   0.328   0.896   1.371
 1134TIP3   OH2 3346   1.681   3.916   6.774
 1134TIP3    H1 3347   1.770   3.884   6.784
 1134TIP3    H2 3348   1.629   3.838   6.755
 1135TIP3   OH2 3349   8.052   1.766   2.273
 1135TIP3    H1 3350   8.009   1.751   2.357
 1135TIP3    H2 3351   8.085   1.856   2.278
 1136TIP3   OH2 3352   0.248   5.358   0.275
 1136TIP3    H1 3353   0.189   5.306   0.328
 1136TIP3    H2 3354   0.292   5.416   0.337
 1137TIP3   OH2 3355   4.063   6.811   1.848
 1137TIP3    H1 3356   4.016   6.792   1.767
 1137TIP3    H2 3357   4.107   6.729   1.870
 1138TIP3   OH2 3358   4.266   3.597   6.206
 1138TIP3    H1 3359   4.210   3.548   6.266
 1138TIP3    H2 3360   4.345   3.616   6.258
 1139TIP3   OH2 3361   1.746   6.920   4.476
 1139TIP3    H1 3362   1.735   6.861   4.550
 1139TIP3    H2 3363   1.747   6.862   4.399
 1140TIP3   OH2 3364   3.882   6.407   4.324
 1140TIP3    H1 3365   3.881   6.327   4.271
 1140TIP3    H2 3366   3.791   6.438   4.322
 1141TIP3   OH2 3367   6.757   3.332   5.303
 1141TIP3    H1 3368   6.698   3.383   5.248
 1141TIP3    H2 3369   6.699   3.290   5.367
 1142TIP3   OH2 3370   3.250   6.601   4.989
 1142TIP3    H1 3371   3.243   6.640   4.903
 1142TIP3    H2 3372   3.334   6.633   5.023
 1143TIP3   OH2 3373   7.608   6.409   6.291
 1143TIP3    H1 3374   7.692   6.384   6.253
 1143TIP3    H2 3375   7.631   6.459   6.370
 1144TIP3   OH2 3376   4.747   3.953   3.344
 1144TIP3    H1 3377   4.750   3.891   3.417
 1144TIP3    H2 3378   4.789   4.032   3.378
 1145TIP3   OH2 3379   3.626   3.279   6.400
 1145TIP3    H1 3380   3.567   3.330   6.456
 1145TIP3    H2 3381   3.568   3.221   6.351
 1146TIP3   OH2 3382   2.019   4.640   5.134
 1146TIP3    H1 3383   2.018   4.681   5.047
 1146TIP3    H2 3384   1.928   4.613   5.148
 1147TIP3   OH2 3385   4.447   0.069  -0.007
 1147TIP3    H1 3386   4.483   0.037   0.076
 1147TIP3    H2 3387   4.376   0.127   0.019
 1148TIP3   OH2 3388   3.603   5.073   3.309
 1148TIP3    H1 3389   3.655   5.087   3.389
 1148TIP3    H2 3390   3.657   5.015   3.256
 1149TIP3   OH2 3391   1.720   1.996   5.635
 1149TIP3    H1 3392   1.793   1.975   5.577
 1149TIP3    H2 3393   1.644   2.000   5.577
 1150TIP3   OH2 3394   1.627   5.179   4.569
 1150TIP3    H1 3395   1.687   5.237   4.522
 1150TIP3    H2 3396   1.679   5.145   4.642
 1151TIP3   OH2 3397   5.385   1.797   6.714
 1151TIP3    H1 3398   5.391   1.892   6.722
 1151TIP3    H2 3399   5.448   1.775   6.645
 1152TIP3   OH2 3400   3.371   1.618   3.195
 1152TIP3    H1 3401   3.440   1.585   3.253
 1152TIP3    H2 3402   3.375   1.713   3.205
 1153TIP3   OH2 3403   5.791   6.545   4.238
 1153TIP3    H1 3404   5.875   6.582   4.210
 1153TIP3    H2 3405   5.793   6.455   4.207
 1154TIP3   OH2 3406   6.630   1.157   4.949
 1154TIP3    H1 3407   6.676   1.128   4.870
 1154TIP3    H2 3408   6.637   1.252   4.947
 1155TIP3   OH2 3409   0.085   6.915   6.324
 1155TIP3    H1 3410   0.068   7.004   6.291
 1155TIP3    H2 3411   0.177   6.916   6.351
 1156TIP3   OH2 3412   0.334   1.138   1.554
 1156TIP3    H1 3413   0.410   1.177   1.598
 1156TIP3    H2 3414   0.317   1.197   1.481
 1157TIP3   OH2 3415   3.432   4.079   1.550
 1157TIP3    H1 3416   3.396   4.095   1.637
 1157TIP3    H2 3417   3.502   4.016   1.564
 1158TIP3   OH2 3418   3.557   1.670   5.277
 1158TIP3    H1 3419   3.547   1.578   5.303
 1158TIP3    H2 3420   3.573   1.666   5.183
 1159TIP3   OH2 3421   5.952   7.609   3.352
 1159TIP3    H1 3422   6.005   7.686   3.370
 1159TIP3    H2 3423   5.964   7.593   3.258
 1160TIP3   OH2 3424   1.714   6.582   2.774
 1160TIP3    H1 3425   1.796   6.554   2.814
 1160TIP3    H2 3426   1.646   6.535   2.822
 1161TIP3   OH2 3427   7.325   2.309   1.967
 1161TIP3    H1 3428   7.417   2.306   1.943
 1161TIP3    H2 3429   7.320   2.369   2.041
 1162TIP3   OH2 3430   5.699   0.341   0.331
 1162TIP3    H1 3431   5.768   0.408   0.329
 1162TIP3    H2 3432   5.733   0.274   0.391
 1163TIP3   OH2 3433   2.646   3.540   0.045
 1163TIP3    H1 3434   2.672   3.585   0.126
 1163TIP3    H2 3435   2.719   3.556  -0.015
 1164TIP3   OH2 3436   2.797   5.062   6.306
 1164TIP3    H1 3437   2.827   5.051   6.396
 1164TIP3    H2 3438   2.842   5.139   6.273
 1165TIP3   OH2 3439   2.004   2.396   4.481
 1165TIP3    H1 3440   2.026   2.479   4.524
 1165TIP3    H2 3441   1.936   2.419   4.418
 1166TIP3   OH2 3442   4.685   2.755   3.497
 1166TIP3    H1 3443   4.645   2.751   3.584
 1166TIP3    H2 3444   4.672   2.668   3.461
 1167TIP3   OH2 3445   6.286   0.432   3.497
 1167TIP3    H1 3446   6.373   0.465   3.515
 1167TIP3    H2 3447   6.296   0.336   3.493
 1168TIP3   OH2 3448   3.715   0.133   2.493
 1168TIP3    H1 3449   3.808   0.126   2.515
 1168TIP3    H2 3450   3.712   0.201   2.425
 1169TIP3   OH2 3451   7.343   6.131   2.232
 1169TIP3    H1 3452   7.333   6.052   2.180
 1169TIP3    H2 3453   7.263   6.138   2.283
 1170TIP3   OH2 3454   3.878   1.214   5.894
 1170TIP3    H1 3455   3.947   1.175   5.839
 1170TIP3    H2 3456   3.919   1.227   5.979
 1171TIP3   OH2 3457   4.733   5.282   4.456
 1171TIP3    H1 3458   4.679   5.344   4.504
 1171TIP3    H2 3459   4.674   5.246   4.389
 1172TIP3   OH2 3460   3.475   0.408   3.086
 1172TIP3    H1 3461   3.525   0.485   3.112
 1172TIP3    H2 3462   3.402   0.442   3.034
 1173TIP3   OH2 3463   7.511   1.937   6.057
 1173TIP3    H1 3464   7.457   1.860   6.077
 1173TIP3    H2 3465   7.587   1.902   6.011
 1174TIP3   OH2 3466   0.047   5.343   3.444
 1174TIP3    H1 3467  -0.005   5.266   3.423
 1174TIP3    H2 3468   0.121   5.340   3.383
 1175TIP3   OH2 3469   3.943   6.930   1.354
 1175TIP3    H1 3470   3.869   6.968   1.308
 1175TIP3    H2 3471   3.997   6.891   1.285
 1176TIP3   OH2 3472   7.752   6.769   1.955
 1176TIP3    H1 3473   7.790   6.851   1.923
 1176TIP3    H2 3474   7.685   6.796   2.018
 1177TIP3   OH2 3475   7.294   4.695   5.621
 1177TIP3    H1 3476   7.235   4.625   5.649
 1177TIP3    H2 3477   7.371   4.686   5.678
 1178TIP3   OH2 3478   3.250   2.743   4.230
 1178TIP3    H1 3479   3.307   2.701   4.294
 1178TIP3    H2 3480   3.281   2.712   4.146
 1179TIP3   OH2 3481   1.129   5.455   0.218
 1179TIP3    H1 3482   1.041   5.444   0.182
 1179TIP3    H2 3483   1.162   5.365   0.227
 1180TIP3   OH2 3484   7.509   6.374   3.114
 1180TIP3    H1 3485   7.498   6.383   3.209
 1180TIP3    H2 3486   7.599   6.344   3.102
 1181TIP3   OH2 3487   6.076   5.136   6.358
 1181TIP3    H1 3488   6.029   5.142   6.275
 1181TIP3    H2 3489   6.161   5.097   6.336
 1182TIP3   OH2 3490   5.934   5.839   3.955
 1182TIP3    H1 3491   5.871   5.906   3.930
 1182TIP3    H2 3492   5.894   5.796   4.031
 1183TIP3   OH2 3493   7.540   5.702   0.030
 1183TIP3    H1 3494   7.540   5.651  -0.050
 1183TIP3    H2 3495   7.450   5.736   0.037
 1184TIP3   OH2 3496   1.852   6.718   3.302
 1184TIP3    H1 3497   1.836   6.775   3.378
 1184TIP3    H2 3498   1.943   6.691   3.312
 1185TIP3   OH2 3499   4.599   1.835   5.735
 1185TIP3    H1 3500   4.675   1.868   5.688
 1185TIP3    H2 3501   4.524   1.872   5.689
 1186TIP3   OH2 3502   4.964   1.048   5.863
 1186TIP3    H1 3503   5.040   0.999   5.832
 1186TIP3    H2 3504   4.918   1.073   5.783
 1187TIP3   OH2 3505   4.248   5.274   3.910
 1187TIP3    H1 3506   4.296   5.276   3.993
 1187TIP3    H2 3507   4.166   5.320   3.929
 1188TIP3   OH2 3508   3.070   2.573   2.731
 1188TIP3    H1 3509   3.162   2.547   2.733
 1188TIP3    H2 3510   3.037   2.539   2.648
 1189TIP3   OH2 3511   4.124   2.976   4.866
 1189TIP3    H1 3512   4.040   3.022   4.867
 1189TIP3    H2 3513   4.129   2.938   4.778
 1190TIP3   OH2 3514   7.347   5.860   3.149
 1190TIP3    H1 3515   7.417   5.874   3.086
 1190TIP3    H2 3516   7.268   5.893   3.105
 1191TIP3   OH2 3517   7.011   0.461   0.174
 1191TIP3    H1 3518   7.059   0.385   0.207
 1191TIP3    H2 3519   7.030   0.531   0.236
 1192TIP3   OH2 3520   5.680   3.860   5.068
 1192TIP3    H1 3521   5.743   3.892   5.133
 1192TIP3    H2 3522   5.634   3.789   5.112
 1193TIP3   OH2 3523   3.299   3.867   2.861
 1193TIP3    H1 3524   3.377   3.813   2.881
 1193TIP3    H2 3525   3.226   3.807   2.873
 1194TIP3   OH2 3526   1.804   6.338   3.797
 1194TIP3    H1 3527   1.822   6.362   3.706
 1194TIP3    H2 3528   1.710   6.353   3.808
 1195TIP3   OH2 3529   5.426   6.798   2.211
 1195TIP3    H1 3530   5.520   6.812   2.220
 1195TIP3    H2 3531   5.387   6.851   2.281
 1196TIP3   OH2 3532   7.491   7.773   2.926
 1196TIP3    H1 3533   7.459   7.694   2.882
 1196TIP3    H2 3534   7.479   7.842   2.861
 1197TIP3   OH2 3535   1.189   4.393   6.158
 1197TIP3    H1 3536   1.094   4.388   6.151
 1197TIP3    H2 3537   1.205   4.419   6.249
 1198TIP3   OH2 3538   0.807   4.445   2.484
 1198TIP3    H1 3539   0.738   4.447   2.418
 1198TIP3    H2 3540   0.771   4.392   2.555
 1199TIP3   OH2 3541   1.109   3.351   2.459
 1199TIP3    H1 3542   1.130   3.335   2.367
 1199TIP3    H2 3543   1.035   3.293   2.477
 1200TIP3   OH2 3544   0.656   0.776   3.514
 1200TIP3    H1 3545   0.748   0.802   3.519
 1200TIP3    H2 3546   0.659   0.682   3.496
 1201TIP3   OH2 3547   1.641   5.861   0.927
 1201TIP3    H1 3548   1.667   5.948   0.957
 1201TIP3    H2 3549   1.563   5.841   0.978
 1202TIP3   OH2 3550   7.352   3.964   0.065
 1202TIP3    H1 3551   7.270   4.013   0.059
 1202TIP3    H2 3552   7.415   4.026   0.102
 1203TIP3   OH2 3553   1.477   5.743   2.313
 1203TIP3    H1 3554   1.458   5.650   2.303
 1203TIP3    H2 3555   1.400   5.787   2.277
 1204TIP3   OH2 3556   3.730   5.441   4.478
 1204TIP3    H1 3557   3.682   5.456   4.560
 1204TIP3    H2 3558   3.700   5.511   4.420
 1205TIP3   OH2 3559   0.872   5.684   4.308
 1205TIP3    H1 3560   0.888   5.618   4.376
 1205TIP3    H2 3561   0.926   5.656   4.234
 1206TIP3   OH2 3562   3.194   7.105   2.214
 1206TIP3    H1 3563   3.105   7.070   2.202
 1206TIP3    H2 3564   3.234   7.100   2.127
 1207TIP3   OH2 3565   0.817   6.325   0.600
 1207TIP3    H1 3566   0.872   6.277   0.539
 1207TIP3    H2 3567   0.879   6.379   0.650
 1208TIP3   OH2 3568   6.616   2.517   4.962
 1208TIP3    H1 3569   6.607   2.578   5.035
 1208TIP3    H2 3570   6.616   2.573   4.884
 1209TIP3   OH2 3571   6.989   1.857   0.092
 1209TIP3    H1 3572   6.965   1.937   0.045
 1209TIP3    H2 3573   7.010   1.794   0.023
 1210TIP3   OH2 3574   8.217   4.569   1.643
 1210TIP3    H1 3575   8.228   4.504   1.574
 1210TIP3    H2 3576   8.212   4.518   1.724
 1211TIP3   OH2 3577   1.371   3.403   2.098
 1211TIP3    H1 3578   1.313   3.367   2.031
 1211TIP3    H2 3579   1.419   3.472   2.054
 1212TIP3   OH2 3580   1.245   1.086   0.421
 1212TIP3    H1 3581   1.153   1.068   0.403
 1212TIP3    H2 3582   1.246   1.124   0.508
 1213TIP3   OH2 3583   4.329   0.267   0.679
 1213TIP3    H1 3584   4.398   0.317   0.723
 1213TIP3    H2 3585   4.373   0.189   0.647
 1214TIP3   OH2 3586   4.329   1.082   3.194
 1214TIP3    H1 3587   4.235   1.088   3.176
 1214TIP3    H2 3588   4.335   1.027   3.272
 1215TIP3   OH2 3589   6.985   3.716   0.978
 1215TIP3    H1 3590   7.029   3.729   1.062
 1215TIP3    H2 3591   6.953   3.803   0.954
 1216TIP3   OH2 3592   7.206   7.749   4.020
 1216TIP3    H1 3593   7.146   7.682   3.987
 1216TIP3    H2 3594   7.165   7.832   3.994
 1217TIP3   OH2 3595   7.609   2.308   3.881
 1217TIP3    H1 3596   7.630   2.399   3.859
 1217TIP3    H2 3597   7.694   2.265   3.890
 1218TIP3   OH2 3598   6.803   1.165   6.225
 1218TIP3    H1 3599   6.888   1.174   6.268
 1218TIP3    H2 3600   6.741   1.205   6.286
 1219TIP3   OH2 3601   2.264   5.255   2.859
 1219TIP3    H1 3602   2.188   5.295   2.903
 1219TIP3    H2 3603   2.225   5.194   2.796
 1220TIP3   OH2 3604   6.117   6.125   4.414
 1220TIP3    H1 3605   6.212   6.137   4.413
 1220TIP3    H2 3606   6.095   6.104   4.323
 1221TIP3   OH2 3607   1.424   6.372   0.909
 1221TIP3    H1 3608   1.483   6.422   0.966
 1221TIP3    H2 3609   1.478   6.350   0.832
 1222TIP3   OH2 3610   5.581   2.464   5.447
 1222TIP3    H1 3611   5.623   2.529   5.390
 1222TIP3    H2 3612   5.593   2.498   5.535
 1223TIP3   OH2 3613   4.194   6.727   2.482
 1223TIP3    H1 3614   4.282   6.696   2.503
 1223TIP3    H2 3615   4.140   6.648   2.483
 1224TIP3   OH2 3616   1.361   4.878   6.347
 1224TIP3    H1 3617   1.364   4.854   6.440
 1224TIP3    H2 3618   1.316   4.962   6.345
 1225TIP3   OH2 3619   1.148   2.496   2.188
 1225TIP3    H1 3620   1.074   2.470   2.133
 1225TIP3    H2 3621   1.145   2.592   2.189
 1226TIP3   OH2 3622   0.864   0.644   4.872
 1226TIP3    H1 3623   0.939   0.698   4.897
 1226TIP3    H2 3624   0.788   0.699   4.890
 1227TIP3   OH2 3625   4.421   5.855   2.264
 1227TIP3    H1 3626   4.420   5.767   2.228
 1227TIP3    H2 3627   4.511   5.886   2.250
 1228TIP3   OH2 3628   0.535   1.818   1.318
 1228TIP3    H1 3629   0.490   1.901   1.299
 1228TIP3    H2 3630   0.507   1.795   1.407
 1229TIP3   OH2 3631   2.920   7.448   2.105
 1229TIP3    H1 3632   2.863   7.525   2.099
 1229TIP3    H2 3633   3.005   7.480   2.075
 1230TIP3   OH2 3634   1.497   3.738   0.318
 1230TIP3    H1 3635   1.406   3.740   0.349
 1230TIP3    H2 3636   1.491   3.766   0.226
 1231TIP3   OH2 3637   4.722   0.070   0.449
 1231TIP3    H1 3638   4.642   0.022   0.429
 1231TIP3    H2 3639   4.691   0.153   0.487
 1232TIP3   OH2 3640   2.470   3.605   0.706
 1232TIP3    H1 3641   2.412   3.602   0.781
 1232TIP3    H2 3642   2.554   3.575   0.739
 1233TIP3   OH2 3643   3.645   5.451   2.694
 1233TIP3    H1 3644   3.726   5.479   2.736
 1233TIP3    H2 3645   3.655   5.474   2.602
 1234TIP3   OH2 3646   1.975   0.152   1.961
 1234TIP3    H1 3647   1.971   0.179   2.053
 1234TIP3    H2 3648   2.023   0.069   1.963
 1235TIP3   OH2 3649   4.425   3.018   5.436
 1235TIP3    H1 3650   4.343   2.970   5.422
 1235TIP3    H2 3651   4.400   3.111   5.432
 1236TIP3   OH2 3652   3.476   4.398   1.858
 1236TIP3    H1 3653   3.416   4.340   1.904
 1236TIP3    H2 3654   3.449   4.393   1.766
 1237TIP3   OH2 3655   3.383   1.123   1.782
 1237TIP3    H1 3656   3.328   1.190   1.823
 1237TIP3    H2 3657   3.324   1.079   1.720
 1238TIP3   OH2 3658   1.846   0.952   0.327
 1238TIP3    H1 3659   1.846   0.856   0.331
 1238TIP3    H2 3660   1.933   0.977   0.357
 1239TIP3   OH2 3661   7.132   2.148   3.212
 1239TIP3    H1 3662   7.190   2.084   3.253
 1239TIP3    H2 3663   7.180   2.231   3.218
 1240TIP3   OH2 3664   1.168   6.124   3.150
 1240TIP3    H1 3665   1.142   6.038   3.119
 1240TIP3    H2 3666   1.092   6.158   3.196
 1241TIP3   OH2 3667   6.374   5.635   1.871
 1241TIP3    H1 3668   6.372   5.542   1.894
 1241TIP3    H2 3669   6.437   5.640   1.799
 1242TIP3   OH2 3670   5.548   4.929   5.298
 1242TIP3    H1 3671   5.560   4.938   5.392
 1242TIP3    H2 3672   5.460   4.895   5.288
 1243TIP3   OH2 3673   4.932   7.392   1.844
 1243TIP3    H1 3674   4.928   7.362   1.753
 1243TIP3    H2 3675   4.991   7.467   1.841
 1244TIP3   OH2 3676   1.496   3.253   0.894
 1244TIP3    H1 3677   1.501   3.308   0.972
 1244TIP3    H2 3678   1.527   3.168   0.923
 1245TIP3   OH2 3679   2.348   6.904   5.160
 1245TIP3    H1 3680   2.422   6.958   5.133
 1245TIP3    H2 3681   2.364   6.884   5.252
 1246TIP3   OH2 3682   2.995   1.804   1.832
 1246TIP3    H1 3683   3.007   1.783   1.739
 1246TIP3    H2 3684   2.993   1.899   1.836
 1247TIP3   OH2 3685   7.481   0.669   3.295
 1247TIP3    H1 3686   7.466   0.587   3.343
 1247TIP3    H2 3687   7.574   0.666   3.272
 1248TIP3   OH2 3688   3.242   3.765   1.189
 1248TIP3    H1 3689   3.233   3.765   1.284
 1248TIP3    H2 3690   3.309   3.699   1.171
 1249TIP3   OH2 3691   7.273   6.172   4.299
 1249TIP3    H1 3692   7.274   6.260   4.338
 1249TIP3    H2 3693   7.232   6.117   4.365
 1250TIP3   OH2 3694   4.017   0.677   3.540
 1250TIP3    H1 3695   3.948   0.729   3.499
 1250TIP3    H2 3696   4.033   0.720   3.624
 1251TIP3   OH2 3697   3.342   1.735   0.365
 1251TIP3    H1 3698   3.260   1.756   0.321
 1251TIP3    H2 3699   3.410   1.751   0.299
 1252TIP3   OH2 3700   2.786   6.785   3.907
 1252TIP3    H1 3701   2.777   6.790   4.002
 1252TIP3    H2 3702   2.880   6.782   3.892
 1253TIP3   OH2 3703   2.978   2.009   0.715
 1253TIP3    H1 3704   2.917   1.968   0.776
 1253TIP3    H2 3705   3.048   1.944   0.703
 1254TIP3   OH2 3706   4.746   1.676   3.794
 1254TIP3    H1 3707   4.784   1.591   3.819
 1254TIP3    H2 3708   4.682   1.655   3.726
 1255TIP3   OH2 3709   7.826   5.081   0.932
 1255TIP3    H1 3710   7.810   5.174   0.917
 1255TIP3    H2 3711   7.879   5.078   1.011
 1256TIP3   OH2 3712   8.021   7.022   0.739
 1256TIP3    H1 3713   8.063   6.974   0.810
 1256TIP3    H2 3714   7.937   7.051   0.774
 1257TIP3   OH2 3715   6.496   2.264   5.456
 1257TIP3    H1 3716   6.483   2.357   5.471
 1257TIP3    H2 3717   6.417   2.236   5.409
 1258TIP3   OH2 3718   4.238   7.657   6.547
 1258TIP3    H1 3719   4.321   7.610   6.547
 1258TIP3    H2 3720   4.174   7.592   6.518
 1259TIP3   OH2 3721   2.102   0.684   0.708
 1259TIP3    H1 3722   2.075   0.595   0.730
 1259TIP3    H2 3723   2.138   0.719   0.790
 1260TIP3   OH2 3724   0.449   0.852   6.622
 1260TIP3    H1 3725   0.399   0.933   6.611
 1260TIP3    H2 3726   0.480   0.855   6.712
 1261TIP3   OH2 3727   1.468   1.170   3.442
 1261TIP3    H1 3728   1.516   1.125   3.512
 1261TIP3    H2 3729   1.450   1.101   3.378
 1262TIP3   OH2 3730   2.880   3.358   0.266
 1262TIP3    H1 3731   2.786   3.370   0.260
 1262TIP3    H2 3732   2.908   3.422   0.333
 1263TIP3   OH2 3733   5.807   5.639   3.796
 1263TIP3    H1 3734   5.837   5.625   3.706
 1263TIP3    H2 3735   5.877   5.689   3.837
 1264TIP3   OH2 3736   0.465   0.904   6.054
 1264TIP3    H1 3737   0.553   0.877   6.078
 1264TIP3    H2 3738   0.477   0.973   5.989
 1265TIP3   OH2 3739   8.106   6.688   0.656
 1265TIP3    H1 3740   8.172   6.666   0.721
 1265TIP3    H2 3741   8.024   6.656   0.693
 1266TIP3   OH2 3742   8.157   5.181   4.517
 1266TIP3    H1 3743   8.201   5.265   4.507
 1266TIP3    H2 3744   8.205   5.121   4.460
 1267TIP3   OH2 3745   3.431   2.807   1.798
 1267TIP3    H1 3746   3.433   2.873   1.868
 1267TIP3    H2 3747   3.474   2.849   1.724
 1268TIP3   OH2 3748   4.956   4.655   2.767
 1268TIP3    H1 3749   5.003   4.737   2.758
 1268TIP3    H2 3750   4.864   4.680   2.770
 1269TIP3   OH2 3751   3.475   6.915   4.552
 1269TIP3    H1 3752   3.525   6.882   4.627
 1269TIP3    H2 3753   3.416   6.981   4.589
 1270TIP3   OH2 3754   3.254   4.843   4.429
 1270TIP3    H1 3755   3.292   4.775   4.373
 1270TIP3    H2 3756   3.330   4.890   4.464
 1271TIP3   OH2 3757   4.141   1.039   6.307
 1271TIP3    H1 3758   4.178   1.112   6.356
 1271TIP3    H2 3759   4.103   0.982   6.374
 1272TIP3   OH2 3760   2.663   3.081   0.235
 1272TIP3    H1 3761   2.728   3.146   0.208
 1272TIP3    H2 3762   2.715   3.011   0.276
 1273TIP3   OH2 3763   0.378   6.320   2.869
 1273TIP3    H1 3764   0.344   6.307   2.958
 1273TIP3    H2 3765   0.383   6.415   2.859
 1274TIP3   OH2 3766   3.149   0.530   0.087
 1274TIP3    H1 3767   3.105   0.468   0.029
 1274TIP3    H2 3768   3.132   0.496   0.175
 1275TIP3   OH2 3769   3.375   4.750   2.597
 1275TIP3    H1 3770   3.396   4.843   2.590
 1275TIP3    H2 3771   3.308   4.745   2.665
 1276TIP3   OH2 3772   6.318   2.309   3.221
 1276TIP3    H1 3773   6.310   2.400   3.248
 1276TIP3    H2 3774   6.325   2.260   3.303
 1277TIP3   OH2 3775   1.555   7.494   2.841
 1277TIP3    H1 3776   1.593   7.536   2.764
 1277TIP3    H2 3777   1.465   7.474   2.816
 1278TIP3   OH2 3778   6.449   3.366   1.105
 1278TIP3    H1 3779   6.414   3.411   1.028
 1278TIP3    H2 3780   6.397   3.399   1.178
 1279TIP3   OH2 3781   7.239   4.629   3.262
 1279TIP3    H1 3782   7.253   4.694   3.331
 1279TIP3    H2 3783   7.204   4.679   3.189
 1280TIP3   OH2 3784   4.783   6.269   5.748
 1280TIP3    H1 3785   4.833   6.313   5.816
 1280TIP3    H2 3786   4.736   6.199   5.793
 1281TIP3   OH2 3787   2.272   0.319   0.436
 1281TIP3    H1 3788   2.206   0.369   0.387
 1281TIP3    H2 3789   2.227   0.294   0.517
 1282TIP3   OH2 3790   0.593   5.410   3.867
 1282TIP3    H1 3791   0.570   5.364   3.786
 1282TIP3    H2 3792   0.582   5.503   3.846
 1283TIP3   OH2 3793   2.393   0.114   0.722
 1283TIP3    H1 3794   2.333   0.188   0.709
 1283TIP3    H2 3795   2.442   0.137   0.801
 1284TIP3   OH2 3796   5.755   7.554   5.044
 1284TIP3    H1 3797   5.791   7.522   5.126
 1284TIP3    H2 3798   5.830   7.560   4.985
 1285TIP3   OH2 3799   4.967   1.598   2.204
 1285TIP3    H1 3800   5.028   1.607   2.277
 1285TIP3    H2 3801   5.022   1.583   2.128
 1286TIP3   OH2 3802   5.910   6.515   5.054
 1286TIP3    H1 3803   5.885   6.561   4.975
 1286TIP3    H2 3804   5.912   6.583   5.122
 1287TIP3   OH2 3805   4.882   3.389   4.109
 1287TIP3    H1 3806   4.845   3.336   4.180
 1287TIP3    H2 3807   4.977   3.380   4.119
 1288TIP3   OH2 3808   2.523   5.189   1.556
 1288TIP3    H1 3809   2.604   5.196   1.606
 1288TIP3    H2 3810   2.498   5.280   1.539
 1289TIP3   OH2 3811   8.246   3.426   0.512
 1289TIP3    H1 3812   8.282   3.395   0.595
 1289TIP3    H2 3813   8.278   3.516   0.503
 1290TIP3   OH2 3814   0.049   5.423   1.229
 1290TIP3    H1 3815  -0.043   5.410   1.252
 1290TIP3    H2 3816   0.060   5.374   1.147
 1291TIP3   OH2 3817   6.986   0.422   4.944
 1291TIP3    H1 3818   7.017   0.349   4.891
 1291TIP3    H2 3819   6.897   0.397   4.970
 1292TIP3   OH2 3820   3.679   5.299   1.395
 1292TIP3    H1 3821   3.686   5.334   1.484
 1292TIP3    H2 3822   3.720   5.213   1.399
 1293TIP3   OH2 3823   5.667   2.493   2.582
 1293TIP3    H1 3824   5.574   2.496   2.601
 1293TIP3    H2 3825   5.703   2.429   2.643
 1294TIP3   OH2 3826   0.417   1.814   5.988
 1294TIP3    H1 3827   0.328   1.815   6.025
 1294TIP3    H2 3828   0.438   1.721   5.979
 1295TIP3   OH2 3829   4.144   7.544   5.881
 1295TIP3    H1 3830   4.145   7.571   5.973
 1295TIP3    H2 3831   4.116   7.453   5.883
 1296TIP3   OH2 3832   2.881   6.792   5.754
 1296TIP3    H1 3833   2.903   6.854   5.685
 1296TIP3    H2 3834   2.965   6.767   5.792
 1297TIP3   OH2 3835   8.226   3.310   1.252
 1297TIP3    H1 3836   8.177   3.241   1.297
 1297TIP3    H2 3837   8.300   3.264   1.211
 1298TIP3   OH2 3838   7.683   4.844   2.451
 1298TIP3    H1 3839   7.681   4.787   2.529
 1298TIP3    H2 3840   7.647   4.927   2.482
 1299TIP3   OH2 3841   6.228   3.953   4.646
 1299TIP3    H1 3842   6.244   3.994   4.561
 1299TIP3    H2 3843   6.313   3.919   4.673
 1300TIP3   OH2 3844   3.864   7.714   0.580
 1300TIP3    H1 3845   3.779   7.673   0.597
 1300TIP3    H2 3846   3.891   7.747   0.666
 1301TIP3   OH2 3847   6.978   6.880   1.813
 1301TIP3    H1 3848   6.999   6.844   1.727
 1301TIP3    H2 3849   6.963   6.973   1.797
 1302TIP3   OH2 3850   4.313   5.175   3.595
 1302TIP3    H1 3851   4.329   5.250   3.537
 1302TIP3    H2 3852   4.226   5.191   3.632
 1303TIP3   OH2 3853   0.593   0.329   1.769
 1303TIP3    H1 3854   0.560   0.346   1.681
 1303TIP3    H2 3855   0.514   0.315   1.822
 1304TIP3   OH2 3856   6.959   6.481   2.445
 1304TIP3    H1 3857   7.013   6.461   2.522
 1304TIP3    H2 3858   6.888   6.535   2.479
 1305TIP3   OH2 3859   8.168   3.440   2.258
 1305TIP3    H1 3860   8.260   3.431   2.283
 1305TIP3    H2 3861   8.152   3.535   2.262
 1306TIP3   OH2 3862   3.266   1.051   0.505
 1306TIP3    H1 3863   3.238   1.139   0.532
 1306TIP3    H2 3864   3.250   0.997   0.582
 1307TIP3   OH2 3865   6.841   2.728   5.239
 1307TIP3    H1 3866   6.783   2.655   5.261
 1307TIP3    H2 3867   6.928   2.688   5.235
 1308TIP3   OH2 3868   4.370   3.436   2.956
 1308TIP3    H1 3869   4.297   3.458   3.014
 1308TIP3    H2 3870   4.436   3.502   2.974
 1309TIP3   OH2 3871   5.711   0.174   6.101
 1309TIP3    H1 3872   5.721   0.104   6.166
 1309TIP3    H2 3873   5.621   0.166   6.071
 1310TIP3   OH2 3874   2.417   2.643   1.108
 1310TIP3    H1 3875   2.477   2.602   1.046
 1310TIP3    H2 3876   2.412   2.581   1.181
 1311TIP3   OH2 3877   4.230   0.396   1.498
 1311TIP3    H1 3878   4.277   0.471   1.461
 1311TIP3    H2 3879   4.295   0.325   1.498
 1312TIP3   OH2 3880   0.936   6.467   2.773
 1312TIP3    H1 3881   0.982   6.389   2.804
 1312TIP3    H2 3882   0.960   6.535   2.836
 1313TIP3   OH2 3883   6.311   7.507   5.852
 1313TIP3    H1 3884   6.404   7.494   5.834
 1313TIP3    H2 3885   6.273   7.528   5.767
 1314TIP3   OH2 3886   5.078   2.751   6.609
 1314TIP3    H1 3887   4.983   2.743   6.618
 1314TIP3    H2 3888   5.104   2.810   6.680
 1315TIP3   OH2 3889   1.767   7.006   3.330
 1315TIP3    H1 3890   1.692   6.957   3.363
 1315TIP3    H2 3891   1.824   7.017   3.406
 1316TIP3   OH2 3892   7.180   0.760   4.551
 1316TIP3    H1 3893   7.172   0.761   4.456
 1316TIP3    H2 3894   7.193   0.668   4.574
 1317TIP3   OH2 3895   5.111   3.941   6.148
 1317TIP3    H1 3896   5.193   3.898   6.124
 1317TIP3    H2 3897   5.092   3.909   6.236
 1318TIP3   OH2 3898   2.834   4.394   2.711
 1318TIP3    H1 3899   2.914   4.427   2.751
 1318TIP3    H2 3900   2.825   4.305   2.746
 1319TIP3   OH2 3901   5.654   4.358   5.127
 1319TIP3    H1 3902   5.691   4.435   5.084
 1319TIP3    H2 3903   5.700   4.284   5.088
 1320TIP3   OH2 3904   0.789   5.371   0.406
 1320TIP3    H1 3905   0.840   5.313   0.462
 1320TIP3    H2 3906   0.844   5.383   0.328
 1321TIP3   OH2 3907   5.408   7.445   5.144
 1321TIP3    H1 3908   5.483   7.504   5.134
 1321TIP3    H2 3909   5.434   7.365   5.100
 1322TIP3   OH2 3910   4.239   7.048   3.933
 1322TIP3    H1 3911   4.308   7.113   3.932
 1322TIP3    H2 3912   4.244   7.006   3.847
 1323TIP3   OH2 3913   8.286   4.000   5.845
 1323TIP3    H1 3914   8.210   4.050   5.877
 1323TIP3    H2 3915   8.248   3.921   5.806
 1324TIP3   OH2 3916   3.121   2.014   6.602
 1324TIP3    H1 3917   3.147   2.027   6.693
 1324TIP3    H2 3918   3.176   1.942   6.571
 1325TIP3   OH2 3919   2.028   4.536   4.234
 1325TIP3    H1 3920   1.981   4.518   4.153
 1325TIP3    H2 3921   2.040   4.450   4.275
 1326TIP3   OH2 3922   7.561   2.680   3.232
 1326TIP3    H1 3923   7.587   2.623   3.305
 1326TIP3    H2 3924   7.619   2.755   3.240
 1327TIP3   OH2 3925   5.802   3.479   5.358
 1327TIP3    H1 3926   5.745   3.521   5.294
 1327TIP3    H2 3927   5.757   3.490   5.442
 1328TIP3   OH2 3928   0.890   1.655   3.875
 1328TIP3    H1 3929   0.905   1.679   3.783
 1328TIP3    H2 3930   0.797   1.631   3.878
 1329TIP3   OH2 3931   3.341   7.149   4.116
 1329TIP3    H1 3932   3.436   7.160   4.121
 1329TIP3    H2 3933   3.325   7.112   4.030
 1330TIP3   OH2 3934   0.719   7.256   2.607
 1330TIP3    H1 3935   0.736   7.340   2.564
 1330TIP3    H2 3936   0.806   7.224   2.632
 1331TIP3   OH2 3937   8.054   0.793   2.988
 1331TIP3    H1 3938   8.142   0.792   3.024
 1331TIP3    H2 3939   7.997   0.815   3.062
 1332TIP3   OH2 3940   4.125   3.834   6.669
 1332TIP3    H1 3941   4.083   3.849   6.754
 1332TIP3    H2 3942   4.053   3.836   6.606
 1333TIP3   OH2 3943   5.692   2.728   4.671
 1333TIP3    H1 3944   5.638   2.778   4.609
 1333TIP3    H2 3945   5.781   2.759   4.656
 1334TIP3   OH2 3946   5.288   3.167   5.016
 1334TIP3    H1 3947   5.316   3.230   4.949
 1334TIP3    H2 3948   5.235   3.103   4.968
 1335TIP3   OH2 3949   2.357   4.355   2.614
 1335TIP3    H1 3950   2.384   4.310   2.533
 1335TIP3    H2 3951   2.426   4.419   2.629
 1336TIP3   OH2 3952   3.251   6.998   3.519
 1336TIP3    H1 3953   3.207   6.969   3.599
 1336TIP3    H2 3954   3.202   6.958   3.448
 1337TIP3   OH2 3955   7.602   4.394   6.628
 1337TIP3    H1 3956   7.650   4.418   6.707
 1337TIP3    H2 3957   7.564   4.308   6.648
 1338TIP3   OH2 3958   1.222   5.199   6.093
 1338TIP3    H1 3959   1.313   5.169   6.082
 1338TIP3    H2 3960   1.230   5.287   6.128
 1339TIP3   OH2 3961   5.227   0.866   0.491
 1339TIP3    H1 3962   5.282   0.839   0.418
 1339TIP3    H2 3963   5.190   0.785   0.525
 1340TIP3   OH2 3964   7.729   1.753   1.089
 1340TIP3    H1 3965   7.648   1.736   1.041
 1340TIP3    H2 3966   7.724   1.696   1.166
 1341TIP3   OH2 3967   5.604   4.483   6.094
 1341TIP3    H1 3968   5.675   4.461   6.155
 1341TIP3    H2 3969   5.543   4.535   6.146
 1342TIP3   OH2 3970   7.567   2.426   5.745
 1342TIP3    H1 3971   7.482   2.421   5.702
 1342TIP3    H2 3972   7.610   2.502   5.705
 1343TIP3   OH2 3973   6.658   5.385   3.021
 1343TIP3    H1 3974   6.751   5.374   3.000
 1343TIP3    H2 3975   6.629   5.298   3.048
 1344TIP3   OH2 3976   3.149   4.009   1.367
 1344TIP3    H1 3977   3.223   4.022   1.307
 1344TIP3    H2 3978   3.139   4.094   1.411
 1345TIP3   OH2 3979   3.565   3.910   5.835
 1345TIP3    H1 3980   3.602   3.894   5.748
 1345TIP3    H2 3981   3.579   3.828   5.882
 1346TIP3   OH2 3982   0.013   4.352   3.970
 1346TIP3    H1 3983   0.068   4.297   4.025
 1346TIP3    H2 3984   0.032   4.323   3.880
 1347TIP3   OH2 3985   4.761   3.900   6.466
 1347TIP3    H1 3986   4.799   3.844   6.398
 1347TIP3    H2 3987   4.827   3.969   6.480
 1348TIP3   OH2 3988   4.081   3.063   6.593
 1348TIP3    H1 3989   4.012   3.121   6.562
 1348TIP3    H2 3990   4.050   2.975   6.570
 1349TIP3   OH2 3991   5.744   0.774   4.316
 1349TIP3    H1 3992   5.661   0.809   4.284
 1349TIP3    H2 3993   5.772   0.712   4.249
 1350TIP3   OH2 3994   3.842   5.784   0.211
 1350TIP3    H1 3995   3.916   5.723   0.205
 1350TIP3    H2 3996   3.868   5.858   0.157
 1351TIP3   OH2 3997   7.691   2.043   1.162
 1351TIP3    H1 3998   7.723   1.953   1.159
 1351TIP3    H2 3999   7.615   2.040   1.220
 1352TIP3   OH2 4000   0.960   3.375   2.769
 1352TIP3    H1 4001   0.969   3.315   2.695
 1352TIP3    H2 4002   1.046   3.376   2.810
 1353TIP3   OH2 4003   7.669   3.860   1.641
 1353TIP3    H1 4004   7.726   3.783   1.633
 1353TIP3    H2 4005   7.708   3.911   1.712
 1354TIP3   OH2 4006   6.477   6.819   3.909
 1354TIP3    H1 4007   6.567   6.835   3.939
 1354TIP3    H2 4008   6.474   6.861   3.823
 1355TIP3   OH2 4009   1.920   0.628   1.102
 1355TIP3    H1 4010   1.952   0.676   1.179
 1355TIP3    H2 4011   1.860   0.689   1.059
 1356TIP3   OH2 4012   3.427   3.396   3.769
 1356TIP3    H1 4013   3.433   3.367   3.860
 1356TIP3    H2 4014   3.518   3.399   3.738
 1357TIP3   OH2 4015   4.428   1.399   6.415
 1357TIP3    H1 4016   4.417   1.466   6.348
 1357TIP3    H2 4017   4.340   1.365   6.431
 1358TIP3   OH2 4018   0.732   1.906   2.221
 1358TIP3    H1 4019   0.656   1.921   2.277
 1358TIP3    H2 4020   0.796   1.864   2.278
 1359TIP3   OH2 4021   4.532   4.236   5.901
 1359TIP3    H1 4022   4.628   4.246   5.900
 1359TIP3    H2 4023   4.504   4.288   5.976
 1360TIP3   OH2 4024   1.995   4.365   6.173
 1360TIP3    H1 4025   2.018   4.276   6.146
 1360TIP3    H2 4026   1.925   4.392   6.112
 1361TIP3   OH2 4027   6.379   3.203   4.170
 1361TIP3    H1 4028   6.408   3.113   4.187
 1361TIP3    H2 4029   6.286   3.203   4.195
 1362TIP3   OH2 4030   5.816   2.097   3.905
 1362TIP3    H1 4031   5.834   2.018   3.957
 1362TIP3    H2 4032   5.901   2.122   3.869
 1363TIP3   OH2 4033   1.134   5.839   3.232
 1363TIP3    H1 4034   1.224   5.870   3.220
 1363TIP3    H2 4035   1.108   5.873   3.317
 1364TIP3   OH2 4036   0.830   4.666   0.748
 1364TIP3    H1 4037   0.875   4.722   0.685
 1364TIP3    H2 4038   0.831   4.717   0.829
 1365TIP3   OH2 4039   4.145   3.782   3.054
 1365TIP3    H1 4040   4.156   3.690   3.077
 1365TIP3    H2 4041   4.138   3.827   3.139
 1366TIP3   OH2 4042   8.167   4.904   3.737
 1366TIP3    H1 4043   8.165   4.918   3.832
 1366TIP3    H2 4044   8.077   4.879   3.715
 1367TIP3   OH2 4045   1.483   0.351   1.407
 1367TIP3    H1 4046   1.477   0.290   1.334
 1367TIP3    H2 4047   1.569   0.336   1.445
 1368TIP3   OH2 4048   5.071   6.937   3.748
 1368TIP3    H1 4049   5.001   6.932   3.813
 1368TIP3    H2 4050   5.044   6.877   3.679
 1369TIP3   OH2 4051   3.832   4.567   5.704
 1369TIP3    H1 4052   3.761   4.515   5.667
 1369TIP3    H2 4053   3.793   4.611   5.780
 1370TIP3   OH2 4054   2.606   6.050   0.604
 1370TIP3    H1 4055   2.700   6.063   0.597
 1370TIP3    H2 4056   2.575   6.124   0.656
 1371TIP3   OH2 4057   5.475   6.096   6.392
 1371TIP3    H1 4058   5.474   6.156   6.318
 1371TIP3    H2 4059   5.418   6.137   6.457
 1372TIP3   OH2 4060   5.591   4.521   2.184
 1372TIP3    H1 4061   5.621   4.457   2.120
 1372TIP3    H2 4062   5.668   4.575   2.203
 1373TIP3   OH2 4063   5.586   3.891   4.514
 1373TIP3    H1 4064   5.583   3.893   4.419
 1373TIP3    H2 4065   5.556   3.978   4.541
 1374TIP3   OH2 4066   2.980   4.582   5.577
 1374TIP3    H1 4067   2.884   4.581   5.578
 1374TIP3    H2 4068   3.002   4.672   5.601
 1375TIP3   OH2 4069   6.839   1.922   5.771
 1375TIP3    H1 4070   6.881   1.897   5.689
 1375TIP3    H2 4071   6.859   1.850   5.831
 1376TIP3   OH2 4072   7.073   6.873   2.260
 1376TIP3    H1 4073   7.071   6.939   2.329
 1376TIP3    H2 4074   7.126   6.802   2.296
 1377TIP3   OH2 4075   7.249   3.007   1.602
 1377TIP3    H1 4076   7.223   3.060   1.527
 1377TIP3    H2 4077   7.215   2.919   1.582
 1378TIP3   OH2 4078   0.230   2.382   0.053
 1378TIP3    H1 4079   0.247   2.367  -0.040
 1378TIP3    H2 4080   0.245   2.476   0.065
 1379TIP3   OH2 4081   5.128   5.737   4.706
 1379TIP3    H1 4082   5.143   5.687   4.786
 1379TIP3    H2 4083   5.185   5.814   4.715
 1380TIP3   OH2 4084   2.687   4.374   5.521
 1380TIP3    H1 4085   2.741   4.297   5.537
 1380TIP3    H2 4086   2.597   4.341   5.516
 1381TIP3   OH2 4087   5.502   6.426   5.329
 1381TIP3    H1 4088   5.468   6.353   5.278
 1381TIP3    H2 4089   5.479   6.404   5.420
 1382TIP3   OH2 4090   6.342   0.411   4.750
 1382TIP3    H1 4091   6.391   0.331   4.766
 1382TIP3    H2 4092   6.252   0.381   4.735
 1383TIP3   OH2 4093   1.797   7.462   0.919
 1383TIP3    H1 4094   1.818   7.399   0.988
 1383TIP3    H2 4095   1.850   7.539   0.940
 1384TIP3   OH2 4096   4.423   5.218   1.181
 1384TIP3    H1 4097   4.364   5.203   1.255
 1384TIP3    H2 4098   4.366   5.250   1.111
 1385TIP3   OH2 4099   1.419   4.308   5.423
 1385TIP3    H1 4100   1.424   4.295   5.518
 1385TIP3    H2 4101   1.326   4.302   5.403
 1386TIP3   OH2 4102   7.522   4.026   3.339
 1386TIP3    H1 4103   7.522   4.065   3.426
 1386TIP3    H2 4104   7.515   4.101   3.280
 1387TIP3   OH2 4105   5.229   7.443   1.623
 1387TIP3    H1 4106   5.314   7.476   1.596
 1387TIP3    H2 4107   5.234   7.348   1.610
 1388TIP3   OH2 4108   7.197   3.653   0.449
 1388TIP3    H1 4109   7.107   3.623   0.459
 1388TIP3    H2 4110   7.210   3.714   0.521
 1389TIP3   OH2 4111   5.635   1.105   6.013
 1389TIP3    H1 4112   5.705   1.074   6.072
 1389TIP3    H2 4113   5.675   1.102   5.926
 1390TIP3   OH2 4114   0.222   4.638   1.340
 1390TIP3    H1 4115   0.162   4.700   1.382
 1390TIP3    H2 4116   0.237   4.675   1.253
 1391TIP3   OH2 4117   5.198   6.957   1.773
 1391TIP3    H1 4118   5.149   6.875   1.768
 1391TIP3    H2 4119   5.245   6.952   1.856
 1392TIP3   OH2 4120   0.044   4.105   0.852
 1392TIP3    H1 4121   0.095   4.027   0.831
 1392TIP3    H2 4122  -0.037   4.071   0.889
 1393TIP3   OH2 4123   3.451   7.401   6.632
 1393TIP3    H1 4124   3.464   7.319   6.679
 1393TIP3    H2 4125   3.532   7.450   6.646
 1394TIP3   OH2 4126   7.350   3.085   5.858
 1394TIP3    H1 4127   7.290   3.071   5.785
 1394TIP3    H2 4128   7.297   3.067   5.936
 1395TIP3   OH2 4129   2.323   4.325   3.735
 1395TIP3    H1 4130   2.335   4.314   3.829
 1395TIP3    H2 4131   2.229   4.314   3.721
 1396TIP3   OH2 4132   1.581   3.869   1.364
 1396TIP3    H1 4133   1.659   3.917   1.336
 1396TIP3    H2 4134   1.522   3.873   1.289
 1397TIP3   OH2 4135   2.352   7.217   5.807
 1397TIP3    H1 4136   2.407   7.290   5.780
 1397TIP3    H2 4137   2.270   7.258   5.837
 1398TIP3   OH2 4138   7.496   0.437   4.056
 1398TIP3    H1 4139   7.446   0.398   4.127
 1398TIP3    H2 4140   7.536   0.362   4.011
 1399TIP3   OH2 4141   6.832   5.653   5.219
 1399TIP3    H1 4142   6.846   5.558   5.228
 1399TIP3    H2 4143   6.913   5.685   5.179
 1400TIP3   OH2 4144   7.716   3.390   6.774
 1400TIP3    H1 4145   7.631   3.369   6.735
 1400TIP3    H2 4146   7.721   3.485   6.771
 1401TIP3   OH2 4147   7.188   0.678   2.377
 1401TIP3    H1 4148   7.204   0.754   2.433
 1401TIP3    H2 4149   7.209   0.709   2.289
 1402TIP3   OH2 4150   7.428   7.832   3.851
 1402TIP3    H1 4151   7.446   7.757   3.794
 1402TIP3    H2 4152   7.349   7.807   3.899
 1403TIP3   OH2 4153   1.897   1.440   0.574
 1403TIP3    H1 4154   1.866   1.516   0.524
 1403TIP3    H2 4155   1.862   1.365   0.526
 1404TIP3   OH2 4156   5.130   0.323   1.139
 1404TIP3    H1 4157   5.086   0.361   1.063
 1404TIP3    H2 4158   5.184   0.395   1.174
 1405TIP3   OH2 4159   5.532   5.281   2.758
 1405TIP3    H1 4160   5.616   5.251   2.723
 1405TIP3    H2 4161   5.555   5.355   2.814
 1406TIP3   OH2 4162   2.018   6.083   1.772
 1406TIP3    H1 4163   1.995   6.167   1.733
 1406TIP3    H2 4164   2.010   6.020   1.700
 1407TIP3   OH2 4165   1.009   1.232   5.996
 1407TIP3    H1 4166   1.099   1.215   6.026
 1407TIP3    H2 4167   1.001   1.181   5.916
 1408TIP3   OH2 4168   5.984   7.779   5.701
 1408TIP3    H1 4169   5.933   7.747   5.776
 1408TIP3    H2 4170   6.041   7.706   5.678
 1409TIP3   OH2 4171   2.559   2.095   2.462
 1409TIP3    H1 4172   2.524   2.016   2.505
 1409TIP3    H2 4173   2.486   2.127   2.408
 1410TIP3   OH2 4174   4.156   5.510   6.283
 1410TIP3    H1 4175   4.082   5.536   6.228
 1410TIP3    H2 4176   4.144   5.416   6.298
 1411TIP3   OH2 4177   6.862   2.052   2.776
 1411TIP3    H1 4178   6.833   2.021   2.690
 1411TIP3    H2 4179   6.902   2.137   2.758
 1412TIP3   OH2 4180   6.076   7.591   3.108
 1412TIP3    H1 4181   6.162   7.572   3.146
 1412TIP3    H2 4182   6.082   7.558   3.018
 1413TIP3   OH2 4183   4.689   7.288   1.308
 1413TIP3    H1 4184   4.691   7.282   1.212
 1413TIP3    H2 4185   4.601   7.318   1.329
 1414TIP3   OH2 4186   4.574   4.840   2.391
 1414TIP3    H1 4187   4.529   4.756   2.379
 1414TIP3    H2 4188   4.561   4.861   2.484
 1415TIP3   OH2 4189   7.291   2.163   6.260
 1415TIP3    H1 4190   7.376   2.206   6.252
 1415TIP3    H2 4191   7.294   2.092   6.196
 1416TIP3   OH2 4192   3.029   0.815   6.427
 1416TIP3    H1 4193   3.069   0.876   6.364
 1416TIP3    H2 4194   2.975   0.757   6.373
 1417TIP3   OH2 4195   5.197   3.322   1.710
 1417TIP3    H1 4196   5.124   3.281   1.663
 1417TIP3    H2 4197   5.251   3.360   1.641
 1418TIP3   OH2 4198   4.729   3.618   1.776
 1418TIP3    H1 4199   4.791   3.612   1.703
 1418TIP3    H2 4200   4.711   3.526   1.800
 1419TIP3   OH2 4201   7.237   5.575   5.754
 1419TIP3    H1 4202   7.186   5.634   5.808
 1419TIP3    H2 4203   7.173   5.520   5.710
 1420TIP3   OH2 4204   2.236   0.660   0.248
 1420TIP3    H1 4205   2.247   0.726   0.181
 1420TIP3    H2 4206   2.263   0.703   0.329
 1421TIP3   OH2 4207   2.835   7.711   2.346
 1421TIP3    H1 4208   2.930   7.700   2.345
 1421TIP3    H2 4209   2.819   7.777   2.413
 1422TIP3   OH2 4210   6.712   7.842   1.894
 1422TIP3    H1 4211   6.740   7.756   1.927
 1422TIP3    H2 4212   6.775   7.863   1.825
 1423TIP3   OH2 4213   3.503   5.277   4.594
 1423TIP3    H1 4214   3.492   5.216   4.521
 1423TIP3    H2 4215   3.587   5.253   4.633
 1424TIP3   OH2 4216   5.810   1.543   4.827
 1424TIP3    H1 4217   5.792   1.496   4.909
 1424TIP3    H2 4218   5.807   1.636   4.852
 1425TIP3   OH2 4219   7.750   7.340   6.353
 1425TIP3    H1 4220   7.801   7.328   6.433
 1425TIP3    H2 4221   7.782   7.274   6.293
 1426TIP3   OH2 4222   3.459   7.807   6.699
 1426TIP3    H1 4223   3.528   7.752   6.734
 1426TIP3    H2 4224   3.388   7.800   6.763
 1427TIP3   OH2 4225   2.935   4.503   2.489
 1427TIP3    H1 4226   2.886   4.468   2.563
 1427TIP3    H2 4227   2.913   4.445   2.416
 1428TIP3   OH2 4228   4.601   6.474   1.179
 1428TIP3    H1 4229   4.519   6.517   1.155
 1428TIP3    H2 4230   4.666   6.512   1.120
 1429TIP3   OH2 4231   2.768   1.749   1.617
 1429TIP3    H1 4232   2.737   1.762   1.706
 1429TIP3    H2 4233   2.692   1.717   1.569
 1430TIP3   OH2 4234   3.112   3.060   1.439
 1430TIP3    H1 4235   3.196   3.091   1.473
 1430TIP3    H2 4236   3.084   2.994   1.502
 1431TIP3   OH2 4237   2.899   5.872   1.088
 1431TIP3    H1 4238   2.861   5.960   1.086
 1431TIP3    H2 4239   2.921   5.857   1.180
 1432TIP3   OH2 4240   5.640   2.795   0.770
 1432TIP3    H1 4241   5.655   2.809   0.676
 1432TIP3    H2 4242   5.584   2.718   0.774
 1433TIP3   OH2 4243   6.537   5.868   4.541
 1433TIP3    H1 4244   6.468   5.923   4.504
 1433TIP3    H2 4245   6.542   5.793   4.481
 1434TIP3   OH2 4246   4.048   2.933   6.164
 1434TIP3    H1 4247   4.048   2.874   6.240
 1434TIP3    H2 4248   3.980   2.897   6.107
 1435TIP3   OH2 4249   6.759   7.049   5.156
 1435TIP3    H1 4250   6.670   7.056   5.189
 1435TIP3    H2 4251   6.811   7.100   5.217
 1436TIP3   OH2 4252   7.188   3.862   3.963
 1436TIP3    H1 4253   7.214   3.775   3.992
 1436TIP3    H2 4254   7.208   3.919   4.037
 1437TIP3   OH2 4255   5.314   2.305   3.784
 1437TIP3    H1 4256   5.392   2.249   3.783
 1437TIP3    H2 4257   5.283   2.303   3.693
 1438TIP3   OH2 4258   6.580   1.942   6.031
 1438TIP3    H1 4259   6.527   1.923   5.954
 1438TIP3    H2 4260   6.670   1.932   6.000
 1439TIP3   OH2 4261   0.067   2.281   2.099
 1439TIP3    H1 4262   0.131   2.351   2.113
 1439TIP3    H2 4263  -0.018   2.325   2.102
 1440TIP3   OH2 4264   2.637   3.266   6.019
 1440TIP3    H1 4265   2.649   3.305   6.105
 1440TIP3    H2 4266   2.614   3.339   5.962
 1441TIP3   OH2 4267   4.279   2.291   1.776
 1441TIP3    H1 4268   4.272   2.207   1.821
 1441TIP3    H2 4269   4.371   2.317   1.788
 1442TIP3   OH2 4270   3.008   5.289   6.131
 1442TIP3    H1 4271   3.084   5.295   6.189
 1442TIP3    H2 4272   3.036   5.330   6.050
 1443TIP3   OH2 4273   7.940   3.406   0.829
 1443TIP3    H1 4274   7.914   3.401   0.737
 1443TIP3    H2 4275   7.859   3.388   0.878
 1444TIP3   OH2 4276   7.730   0.818   2.644
 1444TIP3    H1 4277   7.702   0.898   2.687
 1444TIP3    H2 4278   7.726   0.837   2.551
 1445TIP3   OH2 4279   4.137   2.164   0.855
 1445TIP3    H1 4280   4.069   2.226   0.883
 1445TIP3    H2 4281   4.198   2.161   0.929
 1446TIP3   OH2 4282   7.991   1.273   4.569
 1446TIP3    H1 4283   7.897   1.289   4.572
 1446TIP3    H2 4284   8.017   1.301   4.481
 1447TIP3   OH2 4285   1.150   4.766   3.286
 1447TIP3    H1 4286   1.224   4.767   3.346
 1447TIP3    H2 4287   1.076   4.794   3.339
 1448TIP3   OH2 4288   8.146   1.298   2.335
 1448TIP3    H1 4289   8.234   1.321   2.364
 1448TIP3    H2 4290   8.116   1.374   2.286
 1449TIP3   OH2 4291   5.521   3.749   5.281
 1449TIP3    H1 4292   5.467   3.827   5.295
 1449TIP3    H2 4293   5.569   3.737   5.362
 1450TIP3   OH2 4294   5.286   2.754   3.291
 1450TIP3    H1 4295   5.239   2.717   3.366
 1450TIP3    H2 4296   5.375   2.768   3.323
 1451TIP3   OH2 4297   0.876   7.637   1.721
 1451TIP3    H1 4298   0.821   7.570   1.762
 1451TIP3    H2 4299   0.826   7.667   1.646
 1452TIP3   OH2 4300   1.832   3.293   5.655
 1452TIP3    H1 4301   1.881   3.320   5.577
 1452TIP3    H2 4302   1.762   3.358   5.663
 1453TIP3   OH2 4303   6.069   4.582   0.872
 1453TIP3    H1 4304   6.062   4.511   0.808
 1453TIP3    H2 4305   6.160   4.611   0.865
 1454TIP3   OH2 4306   4.209   7.746   5.379
 1454TIP3    H1 4307   4.124   7.702   5.391
 1454TIP3    H2 4308   4.188   7.839   5.382
 1455TIP3   OH2 4309   0.398   3.453   1.474
 1455TIP3    H1 4310   0.315   3.446   1.427
 1455TIP3    H2 4311   0.381   3.411   1.558
 1456TIP3   OH2 4312   3.614   3.400   3.009
 1456TIP3    H1 4313   3.597   3.314   3.047
 1456TIP3    H2 4314   3.698   3.390   2.965
 1457TIP3   OH2 4315   0.081   3.025   2.348
 1457TIP3    H1 4316  -0.011   3.017   2.320
 1457TIP3    H2 4317   0.131   3.005   2.269
 1458TIP3   OH2 4318   3.105   7.086   3.124
 1458TIP3    H1 4319   3.047   7.080   3.048
 1458TIP3    H2 4320   3.181   7.032   3.100
 1459TIP3   OH2 4321   0.620   0.330   5.359
 1459TIP3    H1 4322   0.680   0.261   5.330
 1459TIP3    H2 4323   0.634   0.402   5.297
 1460TIP3   OH2 4324   3.552   2.649   0.481
 1460TIP3    H1 4325   3.558   2.570   0.535
 1460TIP3    H2 4326   3.572   2.619   0.393
 1461TIP3   OH2 4327   1.462   3.435   1.541
 1461TIP3    H1 4328   1.461   3.388   1.624
 1461TIP3    H2 4329   1.409   3.513   1.557
 1462TIP3   OH2 4330   0.407   2.860   5.208
 1462TIP3    H1 4331   0.427   2.843   5.300
 1462TIP3    H2 4332   0.318   2.826   5.196
 1463TIP3   OH2 4333   1.891   7.565   2.802
 1463TIP3    H1 4334   1.927   7.521   2.879
 1463TIP3    H2 4335   1.876   7.495   2.739
 1464TIP3   OH2 4336   1.452   1.312   6.635
 1464TIP3    H1 4337   1.467   1.300   6.729
 1464TIP3    H2 4338   1.452   1.406   6.622
 1465TIP3   OH2 4339   1.870   1.649   5.934
 1465TIP3    H1 4340   1.845   1.693   6.015
 1465TIP3    H2 4341   1.819   1.693   5.866
 1466TIP3   OH2 4342   1.624   3.450   1.320
 1466TIP3    H1 4343   1.562   3.458   1.393
 1466TIP3    H2 4344   1.688   3.385   1.350
 1467TIP3   OH2 4345   2.564   4.641   5.756
 1467TIP3    H1 4346   2.602   4.662   5.671
 1467TIP3    H2 4347   2.635   4.597   5.804
 1468TIP3   OH2 4348   0.875   4.144   6.652
 1468TIP3    H1 4349   0.824   4.198   6.713
 1468TIP3    H2 4350   0.814   4.075   6.625
 1469TIP3   OH2 4351   2.588   6.301   4.316
 1469TIP3    H1 4352   2.587   6.392   4.287
 1469TIP3    H2 4353   2.517   6.295   4.379
 1470TIP3   OH2 4354   4.460   7.298   3.978
 1470TIP3    H1 4355   4.427   7.385   3.954
 1470TIP3    H2 4356   4.550   7.314   4.007
 1471TIP3   OH2 4357   0.462   2.727   1.459
 1471TIP3    H1 4358   0.442   2.820   1.448
 1471TIP3    H2 4359   0.557   2.724   1.469
 1472TIP3   OH2 4360   4.642   2.425   2.790
 1472TIP3    H1 4361   4.593   2.383   2.719
 1472TIP3    H2 4362   4.716   2.367   2.806
 1473TIP3   OH2 4363   3.087   2.815   2.851
 1473TIP3    H1 4364   3.158   2.799   2.914
 1473TIP3    H2 4365   3.080   2.734   2.802
 1474TIP3   OH2 4366   3.689   0.741   0.277
 1474TIP3    H1 4367   3.642   0.673   0.229
 1474TIP3    H2 4368   3.635   0.758   0.354
 1475TIP3   OH2 4369   8.010   1.127   1.757
 1475TIP3    H1 4370   8.079   1.103   1.696
 1475TIP3    H2 4371   7.968   1.044   1.781
 1476TIP3   OH2 4372   6.063   1.991   4.870
 1476TIP3    H1 4373   6.061   2.085   4.850
 1476TIP3    H2 4374   6.030   1.985   4.959
 1477TIP3   OH2 4375   0.392   4.315   1.328
 1477TIP3    H1 4376   0.394   4.231   1.281
 1477TIP3    H2 4377   0.300   4.339   1.331
 1478TIP3   OH2 4378   2.078   2.655   6.353
 1478TIP3    H1 4379   2.009   2.672   6.288
 1478TIP3    H2 4380   2.105   2.565   6.336
 1479TIP3   OH2 4381   0.626   1.423   1.670
 1479TIP3    H1 4382   0.672   1.400   1.590
 1479TIP3    H2 4383   0.611   1.518   1.664
 1480TIP3   OH2 4384   4.954   2.913   4.043
 1480TIP3    H1 4385   4.924   2.931   3.955
 1480TIP3    H2 4386   4.895   2.844   4.075
 1481TIP3   OH2 4387   5.944   2.672   6.644
 1481TIP3    H1 4388   5.873   2.718   6.599
 1481TIP3    H2 4389   5.980   2.613   6.577
 1482TIP3   OH2 4390   2.000   6.173   3.006
 1482TIP3    H1 4391   2.090   6.142   2.991
 1482TIP3    H2 4392   2.008   6.237   3.077
 1483TIP3   OH2 4393   5.981   7.104   3.334
 1483TIP3    H1 4394   5.920   7.146   3.273
 1483TIP3    H2 4395   6.061   7.092   3.284
 1484TIP3   OH2 4396   0.673   4.680   3.913
 1484TIP3    H1 4397   0.584   4.674   3.948
 1484TIP3    H2 4398   0.715   4.746   3.968
 1485TIP3   OH2 4399   6.186   5.665   4.310
 1485TIP3    H1 4400   6.162   5.612   4.234
 1485TIP3    H2 4401   6.257   5.617   4.353
 1486TIP3   OH2 4402   2.259   2.210   5.102
 1486TIP3    H1 4403   2.199   2.265   5.151
 1486TIP3    H2 4404   2.284   2.140   5.163
 1487TIP3   OH2 4405   0.644   7.699   0.386
 1487TIP3    H1 4406   0.676   7.626   0.440
 1487TIP3    H2 4407   0.677   7.777   0.430
 1488TIP3   OH2 4408   6.016   3.041   5.101
 1488TIP3    H1 4409   6.017   3.134   5.121
 1488TIP3    H2 4410   5.951   3.031   5.032
 1489TIP3   OH2 4411   5.518   4.923   1.234
 1489TIP3    H1 4412   5.553   4.973   1.160
 1489TIP3    H2 4413   5.578   4.848   1.242
 1490TIP3   OH2 4414   5.093   2.807   5.460
 1490TIP3    H1 4415   5.121   2.899   5.469
 1490TIP3    H2 4416   5.155   2.758   5.514
 1491TIP3   OH2 4417   7.878   5.454   0.097
 1491TIP3    H1 4418   7.973   5.451   0.091
 1491TIP3    H2 4419   7.852   5.522   0.034
 1492TIP3   OH2 4420   7.789   4.142   1.180
 1492TIP3    H1 4421   7.809   4.176   1.268
 1492TIP3    H2 4422   7.810   4.214   1.121
 1493TIP3   OH2 4423   3.244   0.845   2.326
 1493TIP3    H1 4424   3.298   0.866   2.250
 1493TIP3    H2 4425   3.258   0.751   2.339
 1494TIP3   OH2 4426   8.286   0.555   0.660
 1494TIP3    H1 4427   8.233   0.633   0.644
 1494TIP3    H2 4428   8.228   0.482   0.641
 1495TIP3   OH2 4429   7.695   2.805   4.079
 1495TIP3    H1 4430   7.680   2.900   4.079
 1495TIP3    H2 4431   7.716   2.784   4.170
 1496TIP3   OH2 4432   7.677   1.510   3.417
 1496TIP3    H1 4433   7.761   1.537   3.455
 1496TIP3    H2 4434   7.699   1.485   3.327
 1497TIP3   OH2 4435   8.259   0.498   3.009
 1497TIP3    H1 4436   8.254   0.593   3.021
 1497TIP3    H2 4437   8.297   0.487   2.922
 1498TIP3   OH2 4438   5.467   5.354   0.747
 1498TIP3    H1 4439   5.403   5.345   0.818
 1498TIP3    H2 4440   5.540   5.298   0.774
 1499TIP3   OH2 4441   1.510   3.651   3.601
 1499TIP3    H1 4442   1.424   3.695   3.608
 1499TIP3    H2 4443   1.489   3.561   3.577
 1500TIP3   OH2 4444   1.819   5.394   1.142
 1500TIP3    H1 4445   1.795   5.485   1.161
 1500TIP3    H2 4446   1.737   5.345   1.152
 1501TIP3   OH2 4447   8.216   2.407   4.827
 1501TIP3    H1 4448   8.305   2.399   4.861
 1501TIP3    H2 4449   8.185   2.491   4.862
 1502TIP3   OH2 4450   0.543   2.072   5.388
 1502TIP3    H1 4451   0.461   2.040   5.427
 1502TIP3    H2 4452   0.605   2.074   5.461
 1503TIP3   OH2 4453   2.104   4.574   1.428
 1503TIP3    H1 4454   2.108   4.602   1.520
 1503TIP3    H2 4455   2.193   4.587   1.396
 1504TIP3   OH2 4456   1.726   6.422   4.908
 1504TIP3    H1 4457   1.811   6.464   4.892
 1504TIP3    H2 4458   1.668   6.494   4.933
 1505TIP3   OH2 4459   0.876   1.594   5.695
 1505TIP3    H1 4460   0.838   1.510   5.669
 1505TIP3    H2 4461   0.970   1.577   5.701
 1506TIP3   OH2 4462   3.417   5.321   0.803
 1506TIP3    H1 4463   3.375   5.375   0.736
 1506TIP3    H2 4464   3.511   5.328   0.783
 1507TIP3   OH2 4465   1.000   0.929   6.257
 1507TIP3    H1 4466   0.912   0.916   6.223
 1507TIP3    H2 4467   1.056   0.881   6.196
 1508TIP3   OH2 4468   0.638   5.588   2.627
 1508TIP3    H1 4469   0.719   5.577   2.577
 1508TIP3    H2 4470   0.598   5.501   2.628
 1509TIP3   OH2 4471   7.154   1.208   0.142
 1509TIP3    H1 4472   7.110   1.123   0.133
 1509TIP3    H2 4473   7.153   1.245   0.053
 1510TIP3   OH2 4474   8.097   2.931   2.007
 1510TIP3    H1 4475   8.119   3.015   1.966
 1510TIP3    H2 4476   8.049   2.955   2.086
 1511TIP3   OH2 4477   3.174   0.988   1.981
 1511TIP3    H1 4478   3.160   0.992   1.886
 1511TIP3    H2 4479   3.158   1.077   2.012
 1512TIP3   OH2 4480   4.602   4.175   0.081
 1512TIP3    H1 4481   4.569   4.197  -0.006
 1512TIP3    H2 4482   4.555   4.234   0.140
 1513TIP3   OH2 4483   7.317   2.667   1.097
 1513TIP3    H1 4484   7.235   2.685   1.052
 1513TIP3    H2 4485   7.356   2.596   1.047
 1514TIP3   OH2 4486   0.306   5.991   0.903
 1514TIP3    H1 4487   0.351   5.956   0.827
 1514TIP3    H2 4488   0.373   6.040   0.951
 1515TIP3   OH2 4489   7.487   4.269   3.220
 1515TIP3    H1 4490   7.423   4.277   3.150
 1515TIP3    H2 4491   7.440   4.299   3.298
 1516TIP3   OH2 4492   0.639   4.236   5.120
 1516TIP3    H1 4493   0.665   4.301   5.054
 1516TIP3    H2 4494   0.705   4.244   5.188
 1517TIP3   OH2 4495   7.933   0.131   2.346
 1517TIP3    H1 4496   7.911   0.211   2.395
 1517TIP3    H2 4497   7.939   0.063   2.413
 1518TIP3   OH2 4498   4.021   0.180   5.375
 1518TIP3    H1 4499   3.977   0.128   5.308
 1518TIP3    H2 4500   4.046   0.116   5.442
 1519TIP3   OH2 4501   2.283   2.553   2.750
 1519TIP3    H1 4502   2.298   2.490   2.820
 1519TIP3    H2 4503   2.325   2.514   2.673
 1520TIP3   OH2 4504   0.833   3.413   5.120
 1520TIP3    H1 4505   0.912   3.368   5.150
 1520TIP3    H2 4506   0.831   3.396   5.026
 1521TIP3   OH2 4507   1.192   2.239   6.055
 1521TIP3    H1 4508   1.222   2.149   6.066
 1521TIP3    H2 4509   1.165   2.266   6.143
 1522TIP3   OH2 4510   0.333   6.492   0.109
 1522TIP3    H1 4511   0.405   6.465   0.166
 1522TIP3    H2 4512   0.376   6.524   0.030
 1523TIP3   OH2 4513   6.840   0.048   6.329
 1523TIP3    H1 4514   6.817   0.071   6.419
 1523TIP3    H2 4515   6.936   0.050   6.328
 1524TIP3   OH2 4516   5.013   2.511   6.398
 1524TIP3    H1 4517   4.948   2.579   6.412
 1524TIP3    H2 4518   4.981   2.436   6.449
 1525TIP3   OH2 4519   5.203   3.077   3.210
 1525TIP3    H1 4520   5.174   3.092   3.300
 1525TIP3    H2 4521   5.164   2.993   3.186
 1526TIP3   OH2 4522   6.279   5.908   5.930
 1526TIP3    H1 4523   6.319   5.995   5.929
 1526TIP3    H2 4524   6.252   5.891   5.840
 1527TIP3   OH2 4525   1.423   5.527   5.000
 1527TIP3    H1 4526   1.487   5.503   4.933
 1527TIP3    H2 4527   1.469   5.590   5.055
 1528TIP3   OH2 4528   1.622   2.599   5.760
 1528TIP3    H1 4529   1.644   2.506   5.770
 1528TIP3    H2 4530   1.675   2.628   5.686
 1529TIP3   OH2 4531   6.165   1.010   5.317
 1529TIP3    H1 4532   6.148   1.009   5.411
 1529TIP3    H2 4533   6.139   1.097   5.289
 1530TIP3   OH2 4534   2.358   2.684   0.542
 1530TIP3    H1 4535   2.330   2.595   0.564
 1530TIP3    H2 4536   2.381   2.679   0.449
 1531TIP3   OH2 4537   6.999   1.084   1.392
 1531TIP3    H1 4538   7.087   1.116   1.411
 1531TIP3    H2 4539   6.957   1.077   1.478
 1532TIP3   OH2 4540   7.850   4.228   6.748
 1532TIP3    H1 4541   7.782   4.260   6.808
 1532TIP3    H2 4542   7.858   4.135   6.768
 1533TIP3   OH2 4543   3.813   1.593   4.806
 1533TIP3    H1 4544   3.816   1.686   4.826
 1533TIP3    H2 4545   3.817   1.587   4.711
 1534TIP3   OH2 4546   6.041   6.897   6.552
 1534TIP3    H1 4547   6.059   6.825   6.491
 1534TIP3    H2 4548   6.005   6.966   6.498
 1535TIP3   OH2 4549   2.720   1.519   2.318
 1535TIP3    H1 4550   2.624   1.514   2.322
 1535TIP3    H2 4551   2.738   1.595   2.263
 1536TIP3   OH2 4552   3.942   5.757   4.304
 1536TIP3    H1 4553   3.986   5.727   4.225
 1536TIP3    H2 4554   3.996   5.829   4.337
 1537TIP3   OH2 4555   4.351   4.637   3.171
 1537TIP3    H1 4556   4.397   4.626   3.254
 1537TIP3    H2 4557   4.332   4.548   3.142
 1538TIP3   OH2 4558   1.950   5.926   4.230
 1538TIP3    H1 4559   1.910   5.846   4.197
 1538TIP3    H2 4560   1.893   5.996   4.200
 1539TIP3   OH2 4561   3.352   6.964   6.277
 1539TIP3    H1 4562   3.292   6.906   6.323
 1539TIP3    H2 4563   3.297   7.013   6.216
 1540TIP3   OH2 4564   6.605   1.288   5.302
 1540TIP3    H1 4565   6.652   1.345   5.242
 1540TIP3    H2 4566   6.632   1.199   5.278
 1541TIP3   OH2 4567   1.434   4.417   1.898
 1541TIP3    H1 4568   1.436   4.321   1.888
 1541TIP3    H2 4569   1.418   4.449   1.810
 1542TIP3   OH2 4570   5.991   5.689   2.217
 1542TIP3    H1 4571   6.067   5.638   2.189
 1542TIP3    H2 4572   5.991   5.765   2.159
 1543TIP3   OH2 4573   1.207   1.474   6.731
 1543TIP3    H1 4574   1.152   1.402   6.699
 1543TIP3    H2 4575   1.251   1.437   6.808
 1544TIP3   OH2 4576   6.794   3.946   6.434
 1544TIP3    H1 4577   6.833   3.983   6.514
 1544TIP3    H2 4578   6.707   3.918   6.461
 1545TIP3   OH2 4579   1.658   4.743   2.048
 1545TIP3    H1 4580   1.640   4.775   1.960
 1545TIP3    H2 4581   1.710   4.664   2.034
 1546TIP3   OH2 4582   3.253   7.734   0.946
 1546TIP3    H1 4583   3.215   7.775   0.868
 1546TIP3    H2 4584   3.347   7.735   0.929
 1547TIP3   OH2 4585   7.219   6.107   1.545
 1547TIP3    H1 4586   7.248   6.158   1.470
 1547TIP3    H2 4587   7.171   6.170   1.599
 1548TIP3   OH2 4588   0.632   1.596   5.231
 1548TIP3    H1 4589   0.684   1.581   5.152
 1548TIP3    H2 4590   0.642   1.516   5.282
 1549TIP3   OH2 4591   7.276   6.714   2.436
 1549TIP3    H1 4592   7.220   6.721   2.513
 1549TIP3    H2 4593   7.279   6.620   2.417
 1550TIP3   OH2 4594   2.348   7.587   0.857
 1550TIP3    H1 4595   2.377   7.580   0.766
 1550TIP3    H2 4596   2.253   7.599   0.850
 1551TIP3   OH2 4597   1.629   6.598   1.818
 1551TIP3    H1 4598   1.597   6.518   1.860
 1551TIP3    H2 4599   1.570   6.667   1.850
 1552TIP3   OH2 4600   7.800   1.085   3.488
 1552TIP3    H1 4601   7.816   1.159   3.430
 1552TIP3    H2 4602   7.731   1.116   3.548
 1553TIP3   OH2 4603   1.403   2.415   1.892
 1553TIP3    H1 4604   1.319   2.432   1.850
 1553TIP3    H2 4605   1.464   2.477   1.851
 1554TIP3   OH2 4606   4.626   1.574   4.775
 1554TIP3    H1 4607   4.531   1.578   4.762
 1554TIP3    H2 4608   4.663   1.587   4.688
 1555TIP3   OH2 4609   1.122   1.267   3.632
 1555TIP3    H1 4610   1.169   1.256   3.715
 1555TIP3    H2 4611   1.031   1.247   3.652
 1556TIP3   OH2 4612   8.179   4.023   1.520
 1556TIP3    H1 4613   8.167   4.106   1.472
 1556TIP3    H2 4614   8.273   4.007   1.515
 1557TIP3   OH2 4615   7.109   3.646   2.534
 1557TIP3    H1 4616   7.092   3.726   2.484
 1557TIP3    H2 4617   7.057   3.655   2.613
 1558TIP3   OH2 4618   5.593   7.131   3.120
 1558TIP3    H1 4619   5.620   7.074   3.192
 1558TIP3    H2 4620   5.672   7.142   3.068
 1559TIP3   OH2 4621   7.979   5.216   2.815
 1559TIP3    H1 4622   8.037   5.199   2.890
 1559TIP3    H2 4623   7.977   5.311   2.807
 1560TIP3   OH2 4624   6.384   6.898   4.924
 1560TIP3    H1 4625   6.333   6.817   4.932
 1560TIP3    H2 4626   6.474   6.872   4.943
 1561TIP3   OH2 4627   2.007   0.089   2.375
 1561TIP3    H1 4628   2.088   0.046   2.400
 1561TIP3    H2 4629   2.024   0.124   2.287
 1562TIP3   OH2 4630   0.354   1.849   2.933
 1562TIP3    H1 4631   0.346   1.797   2.853
 1562TIP3    H2 4632   0.282   1.911   2.929
 1563TIP3   OH2 4633   1.947   4.948   1.597
 1563TIP3    H1 4634   1.878   5.014   1.586
 1563TIP3    H2 4635   2.029   4.995   1.581
 1564TIP3   OH2 4636   3.248   5.340   2.824
 1564TIP3    H1 4637   3.337   5.366   2.847
 1564TIP3    H2 4638   3.207   5.320   2.908
 1565TIP3   OH2 4639   0.428   2.798   6.137
 1565TIP3    H1 4640   0.341   2.781   6.173
 1565TIP3    H2 4641   0.447   2.721   6.084
 1566TIP3   OH2 4642   0.487   0.563   2.967
 1566TIP3    H1 4643   0.563   0.576   2.910
 1566TIP3    H2 4644   0.463   0.471   2.953
 1567TIP3   OH2 4645   4.822   6.652   6.653
 1567TIP3    H1 4646   4.913   6.647   6.625
 1567TIP3    H2 4647   4.800   6.564   6.683
 1568TIP3   OH2 4648   8.174   6.977   2.273
 1568TIP3    H1 4649   8.205   7.011   2.357
 1568TIP3    H2 4650   8.239   6.910   2.249
 1569TIP3   OH2 4651   7.441   1.637   5.028
 1569TIP3    H1 4652   7.360   1.654   4.981
 1569TIP3    H2 4653   7.416   1.639   5.121
 1570TIP3   OH2 4654   6.542   7.561   6.425
 1570TIP3    H1 4655   6.469   7.523   6.376
 1570TIP3    H2 4656   6.609   7.492   6.425
 1571TIP3   OH2 4657   0.500   1.363   0.803
 1571TIP3    H1 4658   0.572   1.325   0.753
 1571TIP3    H2 4659   0.486   1.449   0.763
 1572TIP3   OH2 4660   4.169   1.643   3.724
 1572TIP3    H1 4661   4.139   1.552   3.722
 1572TIP3    H2 4662   4.138   1.677   3.808
 1573TIP3   OH2 4663   5.097   0.062   3.198
 1573TIP3    H1 4664   5.072   0.098   3.113
 1573TIP3    H2 4665   5.115   0.140   3.252
 1574TIP3   OH2 4666   3.441   7.271   2.845
 1574TIP3    H1 4667   3.406   7.278   2.934
 1574TIP3    H2 4668   3.450   7.362   2.817
 1575TIP3   OH2 4669   5.082   5.605   1.334
 1575TIP3    H1 4670   5.003   5.591   1.387
 1575TIP3    H2 4671   5.082   5.533   1.271
 1576TIP3   OH2 4672   0.838   4.849   1.558
 1576TIP3    H1 4673   0.859   4.789   1.630
 1576TIP3    H2 4674   0.922   4.863   1.513
 1577TIP3   OH2 4675   0.336   2.603   5.628
 1577TIP3    H1 4676   0.331   2.585   5.722
 1577TIP3    H2 4677   0.245   2.608   5.600
 1578TIP3   OH2 4678   1.852   3.185   2.856
 1578TIP3    H1 4679   1.779   3.221   2.805
 1578TIP3    H2 4680   1.900   3.262   2.887
 1579TIP3   OH2 4681   6.058   0.646   5.469
 1579TIP3    H1 4682   5.995   0.702   5.423
 1579TIP3    H2 4683   6.110   0.606   5.399
 1580TIP3   OH2 4684   2.773   5.688   3.473
 1580TIP3    H1 4685   2.708   5.696   3.543
 1580TIP3    H2 4686   2.836   5.757   3.491
 1581TIP3   OH2 4687   3.935   0.042   5.109
 1581TIP3    H1 4688   3.848   0.019   5.077
 1581TIP3    H2 4689   3.967   0.107   5.046
 1582TIP3   OH2 4690   0.816   1.266   0.975
 1582TIP3    H1 4691   0.780   1.268   0.886
 1582TIP3    H2 4692   0.780   1.343   1.018
 1583TIP3   OH2 4693   6.466   3.804   3.034
 1583TIP3    H1 4694   6.457   3.869   3.104
 1583TIP3    H2 4695   6.546   3.828   2.988
 1584TIP3   OH2 4696   5.973   2.872   3.459
 1584TIP3    H1 4697   5.929   2.932   3.519
 1584TIP3    H2 4698   6.023   2.814   3.515
 1585TIP3   OH2 4699   0.860   2.459   0.773
 1585TIP3    H1 4700   0.846   2.553   0.772
 1585TIP3    H2 4701   0.859   2.435   0.866
 1586TIP3   OH2 4702   5.068   0.016   0.489
 1586TIP3    H1 4703   5.053   0.089   0.429
 1586TIP3    H2 4704   5.146  -0.027   0.455
 1587TIP3   OH2 4705   7.535   5.206   0.899
 1587TIP3    H1 4706   7.569   5.123   0.866
 1587TIP3    H2 4707   7.611   5.264   0.900
 1588TIP3   OH2 4708   2.670   5.318   6.465
 1588TIP3    H1 4709   2.676   5.327   6.370
 1588TIP3    H2 4710   2.581   5.287   6.481
 1589TIP3   OH2 4711   0.018   1.894   3.148
 1589TIP3    H1 4712   0.058   1.955   3.086
 1589TIP3    H2 4713  -0.067   1.934   3.169
 1590TIP3   OH2 4714   6.079   4.529   3.685
 1590TIP3    H1 4715   6.115   4.594   3.745
 1590TIP3    H2 4716   6.020   4.477   3.739
 1591TIP3   OH2 4717   2.808   7.822   1.467
 1591TIP3    H1 4718   2.808   7.842   1.374
 1591TIP3    H2 4719   2.803   7.726   1.472
 1592TIP3   OH2 4720   2.360   3.072   0.886
 1592TIP3    H1 4721   2.369   2.983   0.853
 1592TIP3    H2 4722   2.325   3.121   0.812
 1593TIP3   OH2 4723   5.951   6.669   6.733
 1593TIP3    H1 4724   5.966   6.763   6.717
 1593TIP3    H2 4725   6.035   6.628   6.712
 1594TIP3   OH2 4726   6.632   1.324   2.864
 1594TIP3    H1 4727   6.604   1.415   2.874
 1594TIP3    H2 4728   6.557   1.273   2.893
 1595TIP3   OH2 4729   7.237   3.682   0.836
 1595TIP3    H1 4730   7.162   3.699   0.892
 1595TIP3    H2 4731   7.219   3.730   0.756
 1596TIP3   OH2 4732   1.399   2.332   6.449
 1596TIP3    H1 4733   1.463   2.289   6.392
 1596TIP3    H2 4734   1.438   2.416   6.470
 1597TIP3   OH2 4735   3.235   6.072   2.799
 1597TIP3    H1 4736   3.160   6.064   2.858
 1597TIP3    H2 4737   3.222   6.157   2.756
 1598TIP3   OH2 4738   5.695   5.967   2.782
 1598TIP3    H1 4739   5.703   5.902   2.851
 1598TIP3    H2 4740   5.768   6.027   2.798
 1599TIP3   OH2 4741   8.118   5.502   4.290
 1599TIP3    H1 4742   8.205   5.525   4.324
 1599TIP3    H2 4743   8.134   5.473   4.200
 1600TIP3   OH2 4744   5.865   7.353   1.220
 1600TIP3    H1 4745   5.893   7.295   1.290
 1600TIP3    H2 4746   5.783   7.314   1.187
 1601TIP3   OH2 4747   4.064   5.910   5.434
 1601TIP3    H1 4748   4.121   5.986   5.424
 1601TIP3    H2 4749   4.066   5.890   5.527
 1602TIP3   OH2 4750   7.261   2.146   3.566
 1602TIP3    H1 4751   7.190   2.209   3.550
 1602TIP3    H2 4752   7.216   2.063   3.580
 1603TIP3   OH2 4753   1.746   3.070   3.903
 1603TIP3    H1 4754   1.697   3.008   3.957
 1603TIP3    H2 4755   1.767   3.022   3.823
 1604TIP3   OH2 4756   6.301   5.071   1.315
 1604TIP3    H1 4757   6.341   5.031   1.393
 1604TIP3    H2 4758   6.370   5.070   1.249
 1605TIP3   OH2 4759   2.742   0.843   1.513
 1605TIP3    H1 4760   2.658   0.855   1.469
 1605TIP3    H2 4761   2.722   0.786   1.587
 1606TIP3   OH2 4762   7.817   1.473   6.409
 1606TIP3    H1 4763   7.827   1.419   6.331
 1606TIP3    H2 4764   7.733   1.447   6.447
 1607TIP3   OH2 4765   7.626   7.414   2.680
 1607TIP3    H1 4766   7.704   7.436   2.732
 1607TIP3    H2 4767   7.661   7.387   2.595
 1608TIP3   OH2 4768   5.395   2.786   2.976
 1608TIP3    H1 4769   5.430   2.825   3.056
 1608TIP3    H2 4770   5.330   2.849   2.945
 1609TIP3   OH2 4771   1.997   2.201   5.609
 1609TIP3    H1 4772   2.012   2.290   5.575
 1609TIP3    H2 4773   2.056   2.195   5.685
 1610TIP3   OH2 4774   0.955   1.057   0.739
 1610TIP3    H1 4775   0.892   1.125   0.712
 1610TIP3    H2 4776   0.974   1.008   0.659
 1611TIP3   OH2 4777   1.828   4.182   1.677
 1611TIP3    H1 4778   1.744   4.191   1.632
 1611TIP3    H2 4779   1.878   4.259   1.650
 1612TIP3   OH2 4780   4.659   7.011   3.007
 1612TIP3    H1 4781   4.703   6.934   3.044
 1612TIP3    H2 4782   4.692   7.084   3.059
 1613TIP3   OH2 4783   5.017   6.578   2.204
 1613TIP3    H1 4784   4.984   6.504   2.255
 1613TIP3    H2 4785   5.106   6.551   2.178
 1614TIP3   OH2 4786   3.450   6.034   2.651
 1614TIP3    H1 4787   3.457   5.949   2.608
 1614TIP3    H2 4788   3.389   6.019   2.723
 1615TIP3   OH2 4789   2.771   2.915   0.949
 1615TIP3    H1 4790   2.716   2.887   1.022
 1615TIP3    H2 4791   2.859   2.920   0.986
 1616TIP3   OH2 4792   5.655   5.399   4.356
 1616TIP3    H1 4793   5.576   5.345   4.353
 1616TIP3    H2 4794   5.637   5.464   4.425
 1617TIP3   OH2 4795   7.776   6.334   3.373
 1617TIP3    H1 4796   7.821   6.273   3.432
 1617TIP3    H2 4797   7.684   6.330   3.401
 1618TIP3   OH2 4798   4.893   0.727   3.721
 1618TIP3    H1 4799   4.833   0.765   3.785
 1618TIP3    H2 4800   4.917   0.800   3.663
 1619TIP3   OH2 4801   0.038   4.886   2.752
 1619TIP3    H1 4802   0.005   4.825   2.685
 1619TIP3    H2 4803   0.123   4.850   2.777
 1620TIP3   OH2 4804   4.453   1.176   0.942
 1620TIP3    H1 4805   4.523   1.219   0.991
 1620TIP3    H2 4806   4.380   1.238   0.946
 1621TIP3   OH2 4807   7.040   4.644   2.959
 1621TIP3    H1 4808   7.099   4.592   2.904
 1621TIP3    H2 4809   7.090   4.723   2.979
 1622TIP3   OH2 4810   2.735   5.743   1.736
 1622TIP3    H1 4811   2.775   5.830   1.740
 1622TIP3    H2 4812   2.792   5.689   1.791
 1623TIP3   OH2 4813   6.395   7.295   1.364
 1623TIP3    H1 4814   6.456   7.307   1.292
 1623TIP3    H2 4815   6.309   7.295   1.322
 1624TIP3   OH2 4816   7.311   3.026   2.518
 1624TIP3    H1 4817   7.348   3.092   2.460
 1624TIP3    H2 4818   7.342   2.943   2.483
 1625TIP3   OH2 4819   7.649   3.083   4.181
 1625TIP3    H1 4820   7.696   3.160   4.214
 1625TIP3    H2 4821   7.660   3.017   4.250
 1626TIP3   OH2 4822   0.130   6.817   0.851
 1626TIP3    H1 4823   0.131   6.854   0.763
 1626TIP3    H2 4824   0.206   6.855   0.894
 1627TIP3   OH2 4825   7.474   4.453   2.559
 1627TIP3    H1 4826   7.407   4.520   2.567
 1627TIP3    H2 4827   7.428   4.376   2.527
 1628TIP3   OH2 4828   4.838   0.987   3.576
 1628TIP3    H1 4829   4.911   1.044   3.600
 1628TIP3    H2 4830   4.762   1.027   3.618
 1629TIP3   OH2 4831   4.177   2.079   0.305
 1629TIP3    H1 4832   4.160   2.003   0.250
 1629TIP3    H2 4833   4.217   2.043   0.385
 1630TIP3   OH2 4834   4.560   1.078   3.381
 1630TIP3    H1 4835   4.573   1.122   3.465
 1630TIP3    H2 4836   4.500   1.006   3.401
 1631TIP3   OH2 4837   2.009   6.497   2.854
 1631TIP3    H1 4838   2.102   6.496   2.877
 1631TIP3    H2 4839   1.964   6.482   2.937
 1632TIP3   OH2 4840   5.107   1.429   0.767
 1632TIP3    H1 4841   5.185   1.402   0.817
 1632TIP3    H2 4842   5.131   1.513   0.729
 1633TIP3   OH2 4843   8.232   4.349   2.541
 1633TIP3    H1 4844   8.317   4.339   2.584
 1633TIP3    H2 4845   8.186   4.267   2.559
 1634TIP3   OH2 4846   0.311   2.232   0.780
 1634TIP3    H1 4847   0.222   2.209   0.753
 1634TIP3    H2 4848   0.302   2.317   0.823
 1635TIP3   OH2 4849   0.032   6.138   6.365
 1635TIP3    H1 4850  -0.041   6.142   6.303
 1635TIP3    H2 4851   0.021   6.216   6.419
 1636TIP3   OH2 4852   1.011   0.453   4.089
 1636TIP3    H1 4853   1.026   0.429   3.998
 1636TIP3    H2 4854   0.950   0.387   4.122
 1637TIP3   OH2 4855   5.058   0.263   0.350
 1637TIP3    H1 4856   5.005   0.318   0.292
 1637TIP3    H2 4857   5.146   0.300   0.344
 1638TIP3   OH2 4858   5.362   3.618   1.958
 1638TIP3    H1 4859   5.356   3.593   2.051
 1638TIP3    H2 4860   5.455   3.615   1.938
 1639TIP3   OH2 4861   1.815   4.423   3.830
 1639TIP3    H1 4862   1.808   4.466   3.915
 1639TIP3    H2 4863   1.733   4.374   3.821
 1640TIP3   OH2 4864   4.667   6.919   5.352
 1640TIP3    H1 4865   4.747   6.923   5.300
 1640TIP3    H2 4866   4.687   6.858   5.423
 1641TIP3   OH2 4867   4.699   2.342   0.415
 1641TIP3    H1 4868   4.606   2.361   0.405
 1641TIP3    H2 4869   4.715   2.351   0.509
 1642TIP3   OH2 4870   5.973   1.139   1.834
 1642TIP3    H1 4871   5.885   1.173   1.849
 1642TIP3    H2 4872   6.027   1.217   1.822
 1643TIP3   OH2 4873   1.846   1.210   5.352
 1643TIP3    H1 4874   1.904   1.207   5.428
 1643TIP3    H2 4875   1.780   1.276   5.375
 1644TIP3   OH2 4876   3.988   7.184   5.380
 1644TIP3    H1 4877   4.083   7.173   5.381
 1644TIP3    H2 4878   3.954   7.103   5.417
 1645TIP3   OH2 4879   2.168   6.692   0.206
 1645TIP3    H1 4880   2.223   6.623   0.170
 1645TIP3    H2 4881   2.158   6.755   0.135
 1646TIP3   OH2 4882   0.512   2.580   5.072
 1646TIP3    H1 4883   0.482   2.589   4.981
 1646TIP3    H2 4884   0.432   2.558   5.120
 1647TIP3   OH2 4885   3.162   1.099   4.826
 1647TIP3    H1 4886   3.129   1.046   4.754
 1647TIP3    H2 4887   3.085   1.116   4.881
 1648TIP3   OH2 4888   2.332   0.866   0.054
 1648TIP3    H1 4889   2.412   0.817   0.033
 1648TIP3    H2 4890   2.282   0.867  -0.028
 1649TIP3   OH2 4891   6.177   4.176   5.042
 1649TIP3    H1 4892   6.173   4.271   5.043
 1649TIP3    H2 4893   6.101   4.149   4.991
 1650TIP3   OH2 4894   6.345   2.559   0.337
 1650TIP3    H1 4895   6.339   2.643   0.383
 1650TIP3    H2 4896   6.353   2.494   0.407
 1651TIP3   OH2 4897   4.867   1.883   2.541
 1651TIP3    H1 4898   4.935   1.878   2.608
 1651TIP3    H2 4899   4.908   1.931   2.469
 1652TIP3   OH2 4900   1.332   6.789   5.525
 1652TIP3    H1 4901   1.260   6.746   5.571
 1652TIP3    H2 4902   1.343   6.873   5.570
 1653TIP3   OH2 4903   7.206   0.903   1.137
 1653TIP3    H1 4904   7.223   0.847   1.061
 1653TIP3    H2 4905   7.260   0.980   1.122
 1654TIP3   OH2 4906   3.293   7.084   4.686
 1654TIP3    H1 4907   3.339   7.060   4.766
 1654TIP3    H2 4908   3.212   7.125   4.716
 1655TIP3   OH2 4909   6.422   0.708   4.224
 1655TIP3    H1 4910   6.370   0.764   4.280
 1655TIP3    H2 4911   6.411   0.744   4.136
 1656TIP3   OH2 4912   8.038   1.104   1.023
 1656TIP3    H1 4913   8.122   1.100   1.068
 1656TIP3    H2 4914   7.976   1.065   1.084
 1657TIP3   OH2 4915   2.961   5.332   0.439
 1657TIP3    H1 4916   2.917   5.335   0.524
 1657TIP3    H2 4917   3.006   5.416   0.433
 1658TIP3   OH2 4918   6.723   6.186   1.924
 1658TIP3    H1 4919   6.703   6.260   1.867
 1658TIP3    H2 4920   6.725   6.110   1.866
 1659TIP3   OH2 4921   1.511   2.616   4.546
 1659TIP3    H1 4922   1.453   2.645   4.476
 1659TIP3    H2 4923   1.500   2.681   4.616
 1660TIP3   OH2 4924   6.789   5.726   5.495
 1660TIP3    H1 4925   6.714   5.786   5.490
 1660TIP3    H2 4926   6.804   5.700   5.405
 1661TIP3   OH2 4927   7.527   1.202   2.463
 1661TIP3    H1 4928   7.584   1.254   2.407
 1661TIP3    H2 4929   7.499   1.128   2.408
 1662TIP3   OH2 4930   0.461   3.262   5.484
 1662TIP3    H1 4931   0.526   3.315   5.436
 1662TIP3    H2 4932   0.438   3.191   5.424
 1663TIP3   OH2 4933   4.839   7.081   2.180
 1663TIP3    H1 4934   4.767   7.142   2.162
 1663TIP3    H2 4935   4.905   7.102   2.113
 1664TIP3   OH2 4936   7.839   5.362   5.485
 1664TIP3    H1 4937   7.810   5.453   5.487
 1664TIP3    H2 4938   7.913   5.361   5.424
 1665TIP3   OH2 4939   5.223   0.550   5.119
 1665TIP3    H1 4940   5.231   0.641   5.090
 1665TIP3    H2 4941   5.149   0.515   5.070
 1666TIP3   OH2 4942   6.071   1.736   5.334
 1666TIP3    H1 4943   6.079   1.641   5.332
 1666TIP3    H2 4944   6.074   1.763   5.242
 1667TIP3   OH2 4945   6.611   1.881   5.483
 1667TIP3    H1 4946   6.656   1.965   5.477
 1667TIP3    H2 4947   6.524   1.898   5.449
 1668TIP3   OH2 4948   6.067   6.615   5.405
 1668TIP3    H1 4949   6.160   6.595   5.399
 1668TIP3    H2 4950   6.048   6.609   5.499
 1669TIP3   OH2 4951   0.578   5.009   6.264
 1669TIP3    H1 4952   0.576   4.983   6.172
 1669TIP3    H2 4953   0.669   5.036   6.279
 1670TIP3   OH2 4954   4.527   4.480   4.245
 1670TIP3    H1 4955   4.508   4.490   4.338
 1670TIP3    H2 4956   4.469   4.542   4.201
 1671TIP3   OH2 4957   8.056   3.975   2.916
 1671TIP3    H1 4958   7.982   4.028   2.946
 1671TIP3    H2 4959   8.110   3.962   2.993
 1672TIP3   OH2 4960   2.159   5.110   1.479
 1672TIP3    H1 4961   2.127   5.180   1.422
 1672TIP3    H2 4962   2.217   5.058   1.424
 1673TIP3   OH2 4963   0.995   3.049   3.723
 1673TIP3    H1 4964   1.045   3.121   3.761
 1673TIP3    H2 4965   0.924   3.092   3.674
 1674TIP3   OH2 4966   7.363   4.659   2.952
 1674TIP3    H1 4967   7.397   4.575   2.921
 1674TIP3    H2 4968   7.407   4.674   3.035
 1675TIP3   OH2 4969   0.238   5.943   5.151
 1675TIP3    H1 4970   0.199   5.917   5.235
 1675TIP3    H2 4971   0.173   5.999   5.110
 1676TIP3   OH2 4972   2.660   6.429   5.506
 1676TIP3    H1 4973   2.571   6.444   5.537
 1676TIP3    H2 4974   2.656   6.348   5.456
 1677TIP3   OH2 4975   3.976   2.337   2.561
 1677TIP3    H1 4976   3.948   2.315   2.650
 1677TIP3    H2 4977   4.037   2.267   2.538
 1678TIP3   OH2 4978   7.208   1.125   2.270
 1678TIP3    H1 4979   7.265   1.059   2.309
 1678TIP3    H2 4980   7.196   1.190   2.339
 1679TIP3   OH2 4981   4.202   2.971   1.485
 1679TIP3    H1 4982   4.234   3.060   1.466
 1679TIP3    H2 4983   4.266   2.935   1.546
 1680TIP3   OH2 4984   7.227   7.439   2.454
 1680TIP3    H1 4985   7.253   7.523   2.416
 1680TIP3    H2 4986   7.157   7.407   2.398
 1681TIP3   OH2 4987   5.542   4.697   4.845
 1681TIP3    H1 4988   5.482   4.769   4.828
 1681TIP3    H2 4989   5.610   4.706   4.778
 1682TIP3   OH2 4990   3.248   7.075   0.019
 1682TIP3    H1 4991   3.167   7.117   0.049
 1682TIP3    H2 4992   3.226   6.982   0.014
 1683TIP3   OH2 4993   6.395   4.041   4.988
 1683TIP3    H1 4994   6.330   4.098   5.029
 1683TIP3    H2 4995   6.348   3.960   4.970
 1684TIP3   OH2 4996   4.735   3.362   2.935
 1684TIP3    H1 4997   4.699   3.445   2.967
 1684TIP3    H2 4998   4.711   3.359   2.843
 1685TIP3   OH2 4999   3.253   5.369   6.230
 1685TIP3    H1 5000   3.259   5.353   6.324
 1685TIP3    H2 5001   3.226   5.460   6.222
 1686TIP3   OH2 5002   6.617   6.477   3.572
 1686TIP3    H1 5003   6.524   6.498   3.582
 1686TIP3    H2 5004   6.658   6.560   3.545
 1687TIP3   OH2 5005   0.760   2.363   0.522
 1687TIP3    H1 5006   0.795   2.396   0.605
 1687TIP3    H2 5007   0.834   2.367   0.462
 1688TIP3   OH2 5008   4.376   3.090   2.150
 1688TIP3    H1 5009   4.322   3.036   2.207
 1688TIP3    H2 5010   4.466   3.077   2.182
 1689TIP3   OH2 5011   2.340   0.341   5.873
 1689TIP3    H1 5012   2.259   0.326   5.823
 1689TIP3    H2 5013   2.354   0.259   5.920
 1690TIP3   OH2 5014   4.681   7.614   3.938
 1690TIP3    H1 5015   4.592   7.584   3.956
 1690TIP3    H2 5016   4.737   7.542   3.966
 1691TIP3   OH2 5017   1.614   7.277   5.680
 1691TIP3    H1 5018   1.676   7.343   5.712
 1691TIP3    H2 5019   1.533   7.296   5.727
 1692TIP3   OH2 5020   6.721   6.661   2.196
 1692TIP3    H1 5021   6.767   6.588   2.156
 1692TIP3    H2 5022   6.761   6.739   2.157
 1693TIP3   OH2 5023   0.677   1.921   1.974
 1693TIP3    H1 5024   0.605   1.860   1.958
 1693TIP3    H2 5025   0.690   1.918   2.069
 1694TIP3   OH2 5026   4.755   2.546   1.242
 1694TIP3    H1 5027   4.718   2.555   1.330
 1694TIP3    H2 5028   4.847   2.569   1.252
 1695TIP3   OH2 5029   0.723   6.702   2.427
 1695TIP3    H1 5030   0.761   6.648   2.358
 1695TIP3    H2 5031   0.766   6.787   2.417
 1696TIP3   OH2 5032   4.976   0.735   1.398
 1696TIP3    H1 5033   5.043   0.746   1.465
 1696TIP3    H2 5034   5.025   0.726   1.316
 1697TIP3   OH2 5035   0.231   3.644   1.052
 1697TIP3    H1 5036   0.317   3.681   1.032
 1697TIP3    H2 5037   0.193   3.625   0.966
 1698TIP3   OH2 5038   6.839   2.411   4.733
 1698TIP3    H1 5039   6.775   2.460   4.681
 1698TIP3    H2 5040   6.786   2.364   4.797
 1699TIP3   OH2 5041   0.160   3.370   0.324
 1699TIP3    H1 5042   0.137   3.357   0.232
 1699TIP3    H2 5043   0.075   3.374   0.369
 1700TIP3   OH2 5044   1.817   4.954   6.675
 1700TIP3    H1 5045   1.729   4.989   6.663
 1700TIP3    H2 5046   1.860   4.970   6.591
 1701TIP3   OH2 5047   0.271   2.079   2.389
 1701TIP3    H1 5048   0.342   2.134   2.422
 1701TIP3    H2 5049   0.192   2.117   2.429
 1702TIP3   OH2 5050   3.306   7.318   6.203
 1702TIP3    H1 5051   3.322   7.231   6.166
 1702TIP3    H2 5052   3.368   7.376   6.157
 1703TIP3   OH2 5053   3.980   4.869   1.195
 1703TIP3    H1 5054   3.943   4.921   1.124
 1703TIP3    H2 5055   4.038   4.930   1.241
 1704TIP3   OH2 5056   6.872   6.105   4.068
 1704TIP3    H1 5057   6.837   6.019   4.042
 1704TIP3    H2 5058   6.967   6.093   4.066
 1705TIP3   OH2 5059   5.709   3.532   6.068
 1705TIP3    H1 5060   5.750   3.592   6.007
 1705TIP3    H2 5061   5.780   3.474   6.097
 1706TIP3   OH2 5062   3.657   7.120   1.690
 1706TIP3    H1 5063   3.665   7.025   1.681
 1706TIP3    H2 5064   3.744   7.149   1.716
 1707TIP3   OH2 5065   5.149   3.593   1.399
 1707TIP3    H1 5066   5.170   3.506   1.367
 1707TIP3    H2 5067   5.200   3.652   1.344
 1708TIP3   OH2 5068   3.266   5.530   2.231
 1708TIP3    H1 5069   3.317   5.604   2.263
 1708TIP3    H2 5070   3.323   5.454   2.241
 1709TIP3   OH2 5071   1.488   4.348   1.198
 1709TIP3    H1 5072   1.456   4.409   1.132
 1709TIP3    H2 5073   1.501   4.266   1.151
 1710TIP3   OH2 5074   7.911   7.521   6.234
 1710TIP3    H1 5075   7.974   7.523   6.305
 1710TIP3    H2 5076   7.838   7.469   6.268
 1711TIP3   OH2 5077   7.209   3.254   3.854
 1711TIP3    H1 5078   7.218   3.216   3.767
 1711TIP3    H2 5079   7.274   3.209   3.908
 1712TIP3   OH2 5080   2.264   2.783   3.755
 1712TIP3    H1 5081   2.309   2.840   3.694
 1712TIP3    H2 5082   2.261   2.698   3.710
 1713TIP3   OH2 5083   2.444   0.227   1.403
 1713TIP3    H1 5084   2.433   0.186   1.317
 1713TIP3    H2 5085   2.495   0.306   1.386
 1714TIP3   OH2 5086   8.062   0.216   5.028
 1714TIP3    H1 5087   8.029   0.183   4.945
 1714TIP3    H2 5088   8.150   0.177   5.036
 1715TIP3   OH2 5089   1.513   3.765   0.865
 1715TIP3    H1 5090   1.465   3.822   0.805
 1715TIP3    H2 5091   1.524   3.683   0.817
 1716TIP3   OH2 5092   8.092   2.397   2.165
 1716TIP3    H1 5093   8.083   2.367   2.074
 1716TIP3    H2 5094   8.042   2.479   2.168
 1717TIP3   OH2 5095   2.933   5.712   3.102
 1717TIP3    H1 5096   2.901   5.797   3.133
 1717TIP3    H2 5097   2.883   5.648   3.152
 1718TIP3   OH2 5098   2.509   7.250   3.369
 1718TIP3    H1 5099   2.462   7.323   3.410
 1718TIP3    H2 5100   2.448   7.176   3.376
 1719TIP3   OH2 5101   4.221   6.197   6.630
 1719TIP3    H1 5102   4.192   6.128   6.689
 1719TIP3    H2 5103   4.156   6.266   6.640
 1720TIP3   OH2 5104   1.015   2.849   4.599
 1720TIP3    H1 5105   0.973   2.886   4.676
 1720TIP3    H2 5106   1.101   2.890   4.596
 1721TIP3   OH2 5107   4.823   4.589   1.791
 1721TIP3    H1 5108   4.902   4.639   1.812
 1721TIP3    H2 5109   4.854   4.499   1.781
 1722TIP3   OH2 5110   1.872   6.128   5.848
 1722TIP3    H1 5111   1.797   6.136   5.790
 1722TIP3    H2 5112   1.931   6.068   5.802
 1723TIP3   OH2 5113   1.814   3.381   4.648
 1723TIP3    H1 5114   1.871   3.312   4.613
 1723TIP3    H2 5115   1.832   3.457   4.593
 1724TIP3   OH2 5116   5.756   6.502   2.984
 1724TIP3    H1 5117   5.781   6.583   2.939
 1724TIP3    H2 5118   5.717   6.447   2.915
 1725TIP3   OH2 5119   0.016   3.356   2.022
 1725TIP3    H1 5120  -0.030   3.396   2.096
 1725TIP3    H2 5121   0.099   3.326   2.059
 1726TIP3   OH2 5122   8.083   5.472   5.799
 1726TIP3    H1 5123   8.009   5.412   5.803
 1726TIP3    H2 5124   8.073   5.529   5.875
 1727TIP3   OH2 5125   4.975   1.959   3.405
 1727TIP3    H1 5126   4.904   1.900   3.378
 1727TIP3    H2 5127   4.981   1.948   3.500
 1728TIP3   OH2 5128   5.313   2.517   6.284
 1728TIP3    H1 5129   5.381   2.575   6.250
 1728TIP3    H2 5130   5.232   2.569   6.276
 1729TIP3   OH2 5131   5.865   6.631   1.951
 1729TIP3    H1 5132   5.911   6.633   1.868
 1729TIP3    H2 5133   5.904   6.702   2.002
 1730TIP3   OH2 5134   2.908   7.223   0.465
 1730TIP3    H1 5135   2.861   7.306   0.457
 1730TIP3    H2 5136   2.997   7.243   0.436
 1731TIP3   OH2 5137   6.578   2.924   2.910
 1731TIP3    H1 5138   6.641   2.859   2.943
 1731TIP3    H2 5139   6.607   3.007   2.948
 1732TIP3   OH2 5140   6.869   1.498   3.955
 1732TIP3    H1 5141   6.889   1.442   3.880
 1732TIP3    H2 5142   6.950   1.501   4.005
 1733TIP3   OH2 5143   3.623   5.895   3.535
 1733TIP3    H1 5144   3.698   5.902   3.477
 1733TIP3    H2 5145   3.660   5.902   3.623
 1734TIP3   OH2 5146   2.083   2.396   6.312
 1734TIP3    H1 5147   2.121   2.338   6.246
 1734TIP3    H2 5148   1.990   2.400   6.290
 1735TIP3   OH2 5149   8.161   1.557   5.168
 1735TIP3    H1 5150   8.153   1.583   5.076
 1735TIP3    H2 5151   8.130   1.466   5.170
 1736TIP3   OH2 5152   3.112   4.317   4.777
 1736TIP3    H1 5153   3.057   4.287   4.850
 1736TIP3    H2 5154   3.148   4.236   4.740
 1737TIP3   OH2 5155   6.263   4.777   2.199
 1737TIP3    H1 5156   6.277   4.780   2.294
 1737TIP3    H2 5157   6.168   4.780   2.189
 1738TIP3   OH2 5158   0.451   4.127   6.247
 1738TIP3    H1 5159   0.369   4.176   6.253
 1738TIP3    H2 5160   0.472   4.126   6.154
 1739TIP3   OH2 5161   5.727   7.572   4.274
 1739TIP3    H1 5162   5.690   7.547   4.190
 1739TIP3    H2 5163   5.679   7.652   4.298
 1740TIP3   OH2 5164   6.800   0.119   6.617
 1740TIP3    H1 5165   6.758   0.033   6.623
 1740TIP3    H2 5166   6.864   0.119   6.688
 1741TIP3   OH2 5167   6.701   4.653   0.709
 1741TIP3    H1 5168   6.697   4.596   0.786
 1741TIP3    H2 5169   6.755   4.727   0.736
 1742TIP3   OH2 5170   1.684   3.687   1.155
 1742TIP3    H1 5171   1.633   3.722   1.228
 1742TIP3    H2 5172   1.699   3.596   1.178
 1743TIP3   OH2 5173   4.988   5.600   2.481
 1743TIP3    H1 5174   5.049   5.603   2.407
 1743TIP3    H2 5175   4.904   5.627   2.444
 1744TIP3   OH2 5176   0.959   6.087   1.803
 1744TIP3    H1 5177   0.952   6.142   1.881
 1744TIP3    H2 5178   0.871   6.086   1.766
 1745TIP3   OH2 5179   5.913   7.007   4.905
 1745TIP3    H1 5180   5.921   7.074   4.972
 1745TIP3    H2 5181   5.844   7.039   4.847
 1746TIP3   OH2 5182   1.979   1.185   5.609
 1746TIP3    H1 5183   1.949   1.222   5.692
 1746TIP3    H2 5184   2.015   1.100   5.632
 1747TIP3   OH2 5185   5.065   3.287   4.637
 1747TIP3    H1 5186   4.985   3.298   4.687
 1747TIP3    H2 5187   5.064   3.195   4.609
 1748TIP3   OH2 5188   5.061   7.595   2.446
 1748TIP3    H1 5189   4.976   7.560   2.474
 1748TIP3    H2 5190   5.090   7.536   2.377
 1749TIP3   OH2 5191   5.667   1.215   3.093
 1749TIP3    H1 5192   5.578   1.230   3.063
 1749TIP3    H2 5193   5.678   1.120   3.092
 1750TIP3   OH2 5194   0.934   6.928   5.462
 1750TIP3    H1 5195   0.956   6.845   5.503
 1750TIP3    H2 5196   0.849   6.952   5.499
 1751TIP3   OH2 5197   4.129   6.463   2.493
 1751TIP3    H1 5198   4.043   6.432   2.522
 1751TIP3    H2 5199   4.144   6.419   2.409
 1752TIP3   OH2 5200   0.878   3.806   1.838
 1752TIP3    H1 5201   0.789   3.839   1.850
 1752TIP3    H2 5202   0.934   3.883   1.851
 1753TIP3   OH2 5203   5.363   7.743   2.014
 1753TIP3    H1 5204   5.431   7.695   2.061
 1753TIP3    H2 5205   5.369   7.832   2.049
 1754TIP3   OH2 5206   3.864   1.002   2.810
 1754TIP3    H1 5207   3.880   0.927   2.753
 1754TIP3    H2 5208   3.937   1.062   2.793
 1755TIP3   OH2 5209   0.194   5.568   5.093
 1755TIP3    H1 5210   0.099   5.581   5.091
 1755TIP3    H2 5211   0.207   5.479   5.060
 1756TIP3   OH2 5212   4.960   2.364   1.481
 1756TIP3    H1 5213   4.902   2.303   1.436
 1756TIP3    H2 5214   4.975   2.434   1.417
 1757TIP3   OH2 5215   3.688   5.591   0.420
 1757TIP3    H1 5216   3.632   5.634   0.356
 1757TIP3    H2 5217   3.646   5.506   0.435
 1758TIP3   OH2 5218   0.058   4.470   0.605
 1758TIP3    H1 5219   0.003   4.498   0.532
 1758TIP3    H2 5220   0.134   4.430   0.564
 1759TIP3   OH2 5221   4.625   1.984   5.379
 1759TIP3    H1 5222   4.661   2.023   5.459
 1759TIP3    H2 5223   4.534   1.963   5.402
 1760TIP3   OH2 5224   3.756   1.047   3.343
 1760TIP3    H1 5225   3.677   1.081   3.384
 1760TIP3    H2 5226   3.803   1.124   3.312
 1761TIP3   OH2 5227   2.168   3.228   1.459
 1761TIP3    H1 5228   2.127   3.146   1.434
 1761TIP3    H2 5229   2.146   3.239   1.551
 1762TIP3   OH2 5230   7.630   7.010   4.509
 1762TIP3    H1 5231   7.590   7.036   4.426
 1762TIP3    H2 5232   7.620   7.086   4.566
 1763TIP3   OH2 5233   6.832   0.481   3.889
 1763TIP3    H1 5234   6.817   0.390   3.915
 1763TIP3    H2 5235   6.745   0.514   3.867
 1764TIP3   OH2 5236   0.057   7.724   3.949
 1764TIP3    H1 5237   0.129   7.727   4.012
 1764TIP3    H2 5238  -0.013   7.677   3.994
 1765TIP3   OH2 5239   1.366   4.420   4.822
 1765TIP3    H1 5240   1.288   4.371   4.795
 1765TIP3    H2 5241   1.404   4.367   4.892
 1766TIP3   OH2 5242   6.433   1.590   2.235
 1766TIP3    H1 5243   6.344   1.555   2.236
 1766TIP3    H2 5244   6.472   1.554   2.155
 1767TIP3   OH2 5245   6.065   4.850   1.409
 1767TIP3    H1 5246   5.973   4.843   1.432
 1767TIP3    H2 5247   6.069   4.828   1.316
 1768TIP3   OH2 5248   1.339   6.608   3.788
 1768TIP3    H1 5249   1.330   6.585   3.881
 1768TIP3    H2 5250   1.252   6.637   3.762
 1769TIP3   OH2 5251   4.817   3.973   0.402
 1769TIP3    H1 5252   4.889   3.924   0.443
 1769TIP3    H2 5253   4.753   3.984   0.473
 1770TIP3   OH2 5254   1.084   6.291   5.634
 1770TIP3    H1 5255   1.162   6.320   5.587
 1770TIP3    H2 5256   1.100   6.316   5.725
 1771TIP3   OH2 5257   6.850   3.463   0.207
 1771TIP3    H1 5258   6.766   3.418   0.198
 1771TIP3    H2 5259   6.899   3.441   0.128
 1772TIP3   OH2 5260   1.228   7.354   2.436
 1772TIP3    H1 5261   1.293   7.418   2.464
 1772TIP3    H2 5262   1.173   7.400   2.373
 1773TIP3   OH2 5263   1.580   4.616   6.147
 1773TIP3    H1 5264   1.637   4.639   6.221
 1773TIP3    H2 5265   1.506   4.571   6.188
 1774TIP3   OH2 5266   0.713   6.892   1.998
 1774TIP3    H1 5267   0.623   6.913   2.020
 1774TIP3    H2 5268   0.765   6.934   2.067
 1775TIP3   OH2 5269   6.069   6.918   2.300
 1775TIP3    H1 5270   6.119   6.992   2.265
 1775TIP3    H2 5271   6.030   6.951   2.381
 1776TIP3   OH2 5272   3.043   0.747   1.952
 1776TIP3    H1 5273   3.110   0.679   1.952
 1776TIP3    H2 5274   3.093   0.829   1.953
 1777TIP3   OH2 5275   0.658   6.096   6.487
 1777TIP3    H1 5276   0.587   6.033   6.480
 1777TIP3    H2 5277   0.737   6.046   6.469
 1778TIP3   OH2 5278   7.871   3.734   0.090
 1778TIP3    H1 5279   7.819   3.798   0.042
 1778TIP3    H2 5280   7.886   3.774   0.176
 1779TIP3   OH2 5281   5.461   4.572   5.275
 1779TIP3    H1 5282   5.448   4.516   5.352
 1779TIP3    H2 5283   5.542   4.618   5.292
 1780TIP3   OH2 5284   0.114   5.545   3.920
 1780TIP3    H1 5285   0.160   5.462   3.927
 1780TIP3    H2 5286   0.024   5.521   3.899
 1781TIP3   OH2 5287   4.442   5.958   1.596
 1781TIP3    H1 5288   4.356   5.973   1.557
 1781TIP3    H2 5289   4.495   5.922   1.525
 1782TIP3   OH2 5290   0.974   2.124   6.477
 1782TIP3    H1 5291   0.965   2.209   6.520
 1782TIP3    H2 5292   0.933   2.062   6.538
 1783TIP3   OH2 5293   3.548   3.404   5.909
 1783TIP3    H1 5294   3.635   3.386   5.945
 1783TIP3    H2 5295   3.529   3.494   5.937
 1784TIP3   OH2 5296   6.801   2.439   0.724
 1784TIP3    H1 5297   6.746   2.369   0.761
 1784TIP3    H2 5298   6.803   2.506   0.792
 1785TIP3   OH2 5299   3.256   2.523   1.226
 1785TIP3    H1 5300   3.179   2.542   1.172
 1785TIP3    H2 5301   3.223   2.467   1.296
 1786TIP3   OH2 5302   7.407   2.546   0.602
 1786TIP3    H1 5303   7.396   2.491   0.524
 1786TIP3    H2 5304   7.490   2.590   0.589
 1787TIP3   OH2 5305   5.580   2.420   4.941
 1787TIP3    H1 5306   5.532   2.413   5.024
 1787TIP3    H2 5307   5.640   2.345   4.942
 1788TIP3   OH2 5308   0.497   4.670   4.383
 1788TIP3    H1 5309   0.402   4.684   4.392
 1788TIP3    H2 5310   0.533   4.700   4.467
 1789TIP3   OH2 5311   6.865   3.342   1.323
 1789TIP3    H1 5312   6.786   3.310   1.281
 1789TIP3    H2 5313   6.835   3.377   1.407
 1790TIP3   OH2 5314   2.700   3.651   6.033
 1790TIP3    H1 5315   2.615   3.612   6.010
 1790TIP3    H2 5316   2.738   3.589   6.095
 1791TIP3   OH2 5317   3.154   6.498   1.421
 1791TIP3    H1 5318   3.128   6.452   1.341
 1791TIP3    H2 5319   3.097   6.575   1.425
 1792TIP3   OH2 5320   2.860   0.965   6.035
 1792TIP3    H1 5321   2.862   0.987   6.128
 1792TIP3    H2 5322   2.810   0.884   6.030
 1793TIP3   OH2 5323   4.362   1.427   1.079
 1793TIP3    H1 5324   4.401   1.419   1.167
 1793TIP3    H2 5325   4.268   1.418   1.094
 1794TIP3   OH2 5326   1.031   4.053   3.464
 1794TIP3    H1 5327   1.004   4.143   3.446
 1794TIP3    H2 5328   0.948   4.006   3.480
 1795TIP3   OH2 5329   4.674   2.022   6.361
 1795TIP3    H1 5330   4.734   2.008   6.434
 1795TIP3    H2 5331   4.670   1.937   6.316
 1796TIP3   OH2 5332   3.059   4.046   2.425
 1796TIP3    H1 5333   3.089   4.071   2.513
 1796TIP3    H2 5334   3.053   3.950   2.429
 1797TIP3   OH2 5335   3.378   1.680   0.828
 1797TIP3    H1 5336   3.364   1.650   0.918
 1797TIP3    H2 5337   3.369   1.602   0.775
 1798TIP3   OH2 5338   2.539   1.283   2.706
 1798TIP3    H1 5339   2.450   1.265   2.735
 1798TIP3    H2 5340   2.581   1.324   2.782
 1799TIP3   OH2 5341   5.127   0.109   4.952
 1799TIP3    H1 5342   5.168   0.023   4.950
 1799TIP3    H2 5343   5.174   0.156   5.021
 1800TIP3   OH2 5344   5.317   7.255   1.939
 1800TIP3    H1 5345   5.364   7.173   1.928
 1800TIP3    H2 5346   5.232   7.229   1.974
 1801TIP3   OH2 5347   0.636   4.440   1.213
 1801TIP3    H1 5348   0.702   4.429   1.281
 1801TIP3    H2 5349   0.552   4.430   1.259
 1802TIP3   OH2 5350   6.959   0.870   2.181
 1802TIP3    H1 5351   6.864   0.860   2.192
 1802TIP3    H2 5352   6.972   0.963   2.163
 1803TIP3   OH2 5353   4.063   3.893   0.944
 1803TIP3    H1 5354   4.067   3.986   0.924
 1803TIP3    H2 5355   3.983   3.884   0.997
 1804TIP3   OH2 5356   4.035   4.530   0.656
 1804TIP3    H1 5357   3.989   4.499   0.578
 1804TIP3    H2 5358   3.969   4.531   0.724
 1805TIP3   OH2 5359   0.199   5.677   2.645
 1805TIP3    H1 5360   0.192   5.594   2.599
 1805TIP3    H2 5361   0.258   5.730   2.592
 1806TIP3   OH2 5362   1.244   4.569   1.536
 1806TIP3    H1 5363   1.223   4.546   1.445
 1806TIP3    H2 5364   1.340   4.561   1.541
 1807TIP3   OH2 5365   0.839   7.170   0.448
 1807TIP3    H1 5366   0.929   7.195   0.470
 1807TIP3    H2 5367   0.807   7.241   0.392
 1808TIP3   OH2 5368   6.582   2.408   6.807
 1808TIP3    H1 5369   6.573   2.363   6.723
 1808TIP3    H2 5370   6.630   2.488   6.786
 1809TIP3   OH2 5371   8.238   0.824   1.752
 1809TIP3    H1 5372   8.325   0.860   1.736
 1809TIP3    H2 5373   8.217   0.776   1.672
 1810TIP3   OH2 5374   2.914   7.647   6.605
 1810TIP3    H1 5375   2.947   7.558   6.620
 1810TIP3    H2 5376   2.830   7.634   6.562
 1811TIP3   OH2 5377   4.044   4.710   4.931
 1811TIP3    H1 5378   3.988   4.783   4.957
 1811TIP3    H2 5379   4.046   4.652   5.008
 1812TIP3   OH2 5380   2.338   1.116   3.562
 1812TIP3    H1 5381   2.414   1.065   3.536
 1812TIP3    H2 5382   2.295   1.063   3.629
 1813TIP3   OH2 5383   0.200   4.161   4.743
 1813TIP3    H1 5384   0.197   4.091   4.808
 1813TIP3    H2 5385   0.226   4.239   4.792
 1814TIP3   OH2 5386   6.016   6.047   4.656
 1814TIP3    H1 5387   6.028   5.959   4.621
 1814TIP3    H2 5388   6.018   6.104   4.579
 1815TIP3   OH2 5389   7.206   0.236   4.526
 1815TIP3    H1 5390   7.287   0.194   4.555
 1815TIP3    H2 5391   7.138   0.201   4.584
 1816TIP3   OH2 5392   6.201   0.517   0.747
 1816TIP3    H1 5393   6.206   0.613   0.748
 1816TIP3    H2 5394   6.280   0.489   0.794
 1817TIP3   OH2 5395   0.110   6.107   2.261
 1817TIP3    H1 5396   0.163   6.100   2.181
 1817TIP3    H2 5397   0.163   6.160   2.320
 1818TIP3   OH2 5398   5.907   1.684   0.827
 1818TIP3    H1 5399   5.956   1.664   0.906
 1818TIP3    H2 5400   5.913   1.604   0.774
 1819TIP3   OH2 5401   7.215   6.363   4.620
 1819TIP3    H1 5402   7.170   6.305   4.558
 1819TIP3    H2 5403   7.230   6.444   4.571
 1820TIP3   OH2 5404   3.728   5.152   4.353
 1820TIP3    H1 5405   3.701   5.230   4.305
 1820TIP3    H2 5406   3.752   5.184   4.440
 1821TIP3   OH2 5407   0.024   5.722   0.575
 1821TIP3    H1 5408   0.050   5.630   0.583
 1821TIP3    H2 5409   0.078   5.768   0.639
 1822TIP3   OH2 5410   3.837   3.139   0.075
 1822TIP3    H1 5411   3.882   3.136  -0.009
 1822TIP3    H2 5412   3.855   3.226   0.110
 1823TIP3   OH2 5413   4.845   0.466   4.847
 1823TIP3    H1 5414   4.771   0.510   4.889
 1823TIP3    H2 5415   4.922   0.513   4.878
 1824TIP3   OH2 5416   7.313   6.888   1.686
 1824TIP3    H1 5417   7.340   6.802   1.718
 1824TIP3    H2 5418   7.319   6.945   1.762
 1825TIP3   OH2 5419   3.851   6.355   5.000
 1825TIP3    H1 5420   3.789   6.414   5.042
 1825TIP3    H2 5421   3.796   6.295   4.949
 1826TIP3   OH2 5422   1.279   3.061   2.050
 1826TIP3    H1 5423   1.282   3.077   1.956
 1826TIP3    H2 5424   1.187   3.067   2.073
 1827TIP3   OH2 5425   3.102   2.091   1.285
 1827TIP3    H1 5426   3.038   2.058   1.347
 1827TIP3    H2 5427   3.053   2.107   1.204
 1828TIP3   OH2 5428   5.841   3.890   5.271
 1828TIP3    H1 5429   5.898   3.963   5.294
 1828TIP3    H2 5430   5.821   3.848   5.354
 1829TIP3   OH2 5431   7.541   4.101   3.656
 1829TIP3    H1 5432   7.624   4.133   3.691
 1829TIP3    H2 5433   7.511   4.037   3.721
 1830TIP3   OH2 5434   2.394   0.457   5.606
 1830TIP3    H1 5435   2.371   0.365   5.617
 1830TIP3    H2 5436   2.432   0.482   5.690
 1831TIP3   OH2 5437   2.626   4.907   0.621
 1831TIP3    H1 5438   2.684   4.848   0.573
 1831TIP3    H2 5439   2.663   4.912   0.709
 1832TIP3   OH2 5440   0.826   2.781   2.827
 1832TIP3    H1 5441   0.765   2.782   2.753
 1832TIP3    H2 5442   0.892   2.848   2.805
 1833TIP3   OH2 5443   0.448   3.636   2.244
 1833TIP3    H1 5444   0.358   3.611   2.264
 1833TIP3    H2 5445   0.487   3.658   2.328
 1834TIP3   OH2 5446   0.609   3.855   1.849
 1834TIP3    H1 5447   0.610   3.941   1.890
 1834TIP3    H2 5448   0.610   3.793   1.922
 1835TIP3   OH2 5449   2.762   5.377   6.211
 1835TIP3    H1 5450   2.828   5.361   6.144
 1835TIP3    H2 5451   2.712   5.452   6.179
 1836TIP3   OH2 5452   7.108   5.836   3.391
 1836TIP3    H1 5453   7.027   5.796   3.359
 1836TIP3    H2 5454   7.170   5.763   3.400
 1837TIP3   OH2 5455   0.471   7.504   5.882
 1837TIP3    H1 5456   0.494   7.515   5.790
 1837TIP3    H2 5457   0.450   7.411   5.891
 1838TIP3   OH2 5458   4.650   7.366   1.921
 1838TIP3    H1 5459   4.735   7.357   1.877
 1838TIP3    H2 5460   4.594   7.301   1.878
 1839TIP3   OH2 5461   1.617   0.798   3.049
 1839TIP3    H1 5462   1.532   0.760   3.026
 1839TIP3    H2 5463   1.673   0.722   3.066
 1840TIP3   OH2 5464   4.669   6.530   1.943
 1840TIP3    H1 5465   4.730   6.473   1.897
 1840TIP3    H2 5466   4.593   6.474   1.962
 1841TIP3   OH2 5467   1.151   3.878   1.516
 1841TIP3    H1 5468   1.121   3.916   1.599
 1841TIP3    H2 5469   1.102   3.926   1.449
 1842TIP3   OH2 5470   3.162   5.904   4.465
 1842TIP3    H1 5471   3.099   5.933   4.399
 1842TIP3    H2 5472   3.231   5.970   4.463
 1843TIP3   OH2 5473   6.070   2.393   0.913
 1843TIP3    H1 5474   6.061   2.331   0.840
 1843TIP3    H2 5475   5.980   2.418   0.934
 1844TIP3   OH2 5476   7.593   4.407   1.968
 1844TIP3    H1 5477   7.529   4.339   1.986
 1844TIP3    H2 5478   7.675   4.374   2.005
 1845TIP3   OH2 5479   1.799   0.429   1.253
 1845TIP3    H1 5480   1.710   0.442   1.221
 1845TIP3    H2 5481   1.853   0.485   1.197
 1846TIP3   OH2 5482   5.780   4.128   4.684
 1846TIP3    H1 5483   5.754   4.055   4.740
 1846TIP3    H2 5484   5.860   4.161   4.725
 1847TIP3   OH2 5485   2.715   3.915   2.971
 1847TIP3    H1 5486   2.686   3.849   3.033
 1847TIP3    H2 5487   2.782   3.871   2.918
 1848TIP3   OH2 5488   5.046   3.172   4.229
 1848TIP3    H1 5489   5.022   3.082   4.211
 1848TIP3    H2 5490   4.999   3.194   4.310
 1849TIP3   OH2 5491   5.809   1.544   3.130
 1849TIP3    H1 5492   5.842   1.629   3.101
 1849TIP3    H2 5493   5.714   1.555   3.133
 1850TIP3   OH2 5494   6.483   6.609   5.190
 1850TIP3    H1 5495   6.526   6.523   5.184
 1850TIP3    H2 5496   6.519   6.647   5.270
 1851TIP3   OH2 5497   0.714   2.783   4.929
 1851TIP3    H1 5498   0.707   2.778   5.024
 1851TIP3    H2 5499   0.638   2.734   4.897
 1852TIP3   OH2 5500   4.677   4.039   1.358
 1852TIP3    H1 5501   4.734   4.080   1.294
 1852TIP3    H2 5502   4.599   4.013   1.308
 1853TIP3   OH2 5503   8.117   7.084   2.821
 1853TIP3    H1 5504   8.034   7.107   2.778
 1853TIP3    H2 5505   8.124   7.144   2.894
 1854TIP3   OH2 5506   0.317   4.906   2.158
 1854TIP3    H1 5507   0.259   4.841   2.198
 1854TIP3    H2 5508   0.274   4.990   2.174
 1855TIP3   OH2 5509   5.359   6.000   4.318
 1855TIP3    H1 5510   5.389   5.914   4.349
 1855TIP3    H2 5511   5.309   5.981   4.239
 1856TIP3   OH2 5512   8.106   4.032   2.289
 1856TIP3    H1 5513   8.049   3.989   2.226
 1856TIP3    H2 5514   8.047   4.078   2.349
 1857TIP3   OH2 5515   4.086   4.984   6.740
 1857TIP3    H1 5516   4.153   4.918   6.757
 1857TIP3    H2 5517   4.007   4.950   6.783
 1858TIP3   OH2 5518   3.832   2.226   5.270
 1858TIP3    H1 5519   3.769   2.294   5.290
 1858TIP3    H2 5520   3.863   2.246   5.182
 1859TIP3   OH2 5521   3.866   0.322   6.680
 1859TIP3    H1 5522   3.926   0.257   6.643
 1859TIP3    H2 5523   3.799   0.333   6.612
 1860TIP3   OH2 5524   3.481   7.318   5.767
 1860TIP3    H1 5525   3.472   7.412   5.779
 1860TIP3    H2 5526   3.513   7.286   5.852
 1861TIP3   OH2 5527   3.315   1.268   5.383
 1861TIP3    H1 5528   3.271   1.353   5.391
 1861TIP3    H2 5529   3.382   1.282   5.317
 1862TIP3   OH2 5530   1.212   1.022   0.835
 1862TIP3    H1 5531   1.127   0.999   0.798
 1862TIP3    H2 5532   1.275   1.000   0.766
 1863TIP3   OH2 5533   4.691   0.364   5.768
 1863TIP3    H1 5534   4.752   0.343   5.839
 1863TIP3    H2 5535   4.637   0.434   5.803
 1864TIP3   OH2 5536   6.485   5.600   4.412
 1864TIP3    H1 5537   6.555   5.580   4.350
 1864TIP3    H2 5538   6.510   5.553   4.491
 1865TIP3   OH2 5539   2.182   7.544   1.759
 1865TIP3    H1 5540   2.189   7.633   1.726
 1865TIP3    H2 5541   2.270   7.507   1.749
 1866TIP3   OH2 5542   2.420   6.648   1.085
 1866TIP3    H1 5543   2.394   6.740   1.095
 1866TIP3    H2 5544   2.505   6.652   1.041
 1867TIP3   OH2 5545   6.704   0.193   3.739
 1867TIP3    H1 5546   6.724   0.240   3.658
 1867TIP3    H2 5547   6.618   0.155   3.724
 1868TIP3   OH2 5548   7.931   2.439   3.092
 1868TIP3    H1 5549   7.847   2.425   3.048
 1868TIP3    H2 5550   7.996   2.430   3.023
 1869TIP3   OH2 5551   3.190   0.822   0.965
 1869TIP3    H1 5552   3.215   0.787   1.050
 1869TIP3    H2 5553   3.224   0.759   0.902
 1870TIP3   OH2 5554   6.030   1.838   1.583
 1870TIP3    H1 5555   6.084   1.903   1.628
 1870TIP3    H2 5556   6.019   1.873   1.494
 1871TIP3   OH2 5557   4.984   7.133   0.164
 1871TIP3    H1 5558   5.074   7.119   0.134
 1871TIP3    H2 5559   4.965   7.224   0.142
 1872TIP3   OH2 5560   0.798   6.403   3.968
 1872TIP3    H1 5561   0.821   6.495   3.961
 1872TIP3    H2 5562   0.879   6.356   3.951
 1873TIP3   OH2 5563   7.899   4.753   0.162
 1873TIP3    H1 5564   7.940   4.756   0.249
 1873TIP3    H2 5565   7.885   4.660   0.146
 1874TIP3   OH2 5566   3.618   7.320   0.933
 1874TIP3    H1 5567   3.536   7.292   0.975
 1874TIP3    H2 5568   3.686   7.295   0.995
 1875TIP3   OH2 5569   7.770   7.494   4.341
 1875TIP3    H1 5570   7.730   7.409   4.326
 1875TIP3    H2 5571   7.823   7.482   4.420
 1876TIP3   OH2 5572   5.881   0.545   6.556
 1876TIP3    H1 5573   5.844   0.613   6.499
 1876TIP3    H2 5574   5.953   0.507   6.504
 1877TIP3   OH2 5575   7.522   1.959   0.616
 1877TIP3    H1 5576   7.572   1.879   0.604
 1877TIP3    H2 5577   7.455   1.956   0.547
 1878TIP3   OH2 5578   7.883   1.299   2.134
 1878TIP3    H1 5579   7.849   1.226   2.186
 1878TIP3    H2 5580   7.975   1.277   2.119
 1879TIP3   OH2 5581   6.017   5.172   6.078
 1879TIP3    H1 5582   6.059   5.185   5.993
 1879TIP3    H2 5583   5.926   5.197   6.064
 1880TIP3   OH2 5584   1.174   2.413   2.453
 1880TIP3    H1 5585   1.164   2.481   2.520
 1880TIP3    H2 5586   1.161   2.458   2.370
 1881TIP3   OH2 5587   7.458   1.225   2.877
 1881TIP3    H1 5588   7.486   1.293   2.939
 1881TIP3    H2 5589   7.366   1.210   2.899
 1882TIP3   OH2 5590   4.804   2.002   5.605
 1882TIP3    H1 5591   4.768   2.090   5.612
 1882TIP3    H2 5592   4.859   2.004   5.527
 1883TIP3   OH2 5593   1.956   6.755   0.403
 1883TIP3    H1 5594   2.021   6.735   0.335
 1883TIP3    H2 5595   1.888   6.804   0.357
 1884TIP3   OH2 5596   6.884   0.904   2.436
 1884TIP3    H1 5597   6.920   0.871   2.354
 1884TIP3    H2 5598   6.866   0.826   2.488
 1885TIP3   OH2 5599   5.022   1.849   0.788
 1885TIP3    H1 5600   5.105   1.825   0.745
 1885TIP3    H2 5601   5.038   1.831   0.881
 1886TIP3   OH2 5602   5.244   1.735   3.453
 1886TIP3    H1 5603   5.156   1.712   3.424
 1886TIP3    H2 5604   5.268   1.811   3.401
 1887TIP3   OH2 5605   4.007   3.701   2.506
 1887TIP3    H1 5606   4.016   3.728   2.597
 1887TIP3    H2 5607   4.049   3.615   2.502
 1888TIP3   OH2 5608   7.718   2.898   3.293
 1888TIP3    H1 5609   7.781   2.906   3.365
 1888TIP3    H2 5610   7.711   2.986   3.257
 1889TIP3   OH2 5611   4.341   4.772   6.681
 1889TIP3    H1 5612   4.410   4.752   6.618
 1889TIP3    H2 5613   4.386   4.821   6.750
 1890TIP3   OH2 5614   2.600   1.793   0.398
 1890TIP3    H1 5615   2.581   1.831   0.483
 1890TIP3    H2 5616   2.663   1.724   0.416
 1891TIP3   OH2 5617   4.871   5.847   3.304
 1891TIP3    H1 5618   4.957   5.851   3.261
 1891TIP3    H2 5619   4.839   5.937   3.304
 1892TIP3   OH2 5620   5.595   6.089   0.387
 1892TIP3    H1 5621   5.518   6.061   0.436
 1892TIP3    H2 5622   5.667   6.037   0.423
 1893TIP3   OH2 5623   3.146   4.401   0.113
 1893TIP3    H1 5624   3.058   4.400   0.150
 1893TIP3    H2 5625   3.133   4.384   0.020
 1894TIP3   OH2 5626   6.245   2.210   4.274
 1894TIP3    H1 5627   6.205   2.175   4.194
 1894TIP3    H2 5628   6.277   2.297   4.249
 1895TIP3   OH2 5629   6.514   3.207   5.812
 1895TIP3    H1 5630   6.461   3.128   5.809
 1895TIP3    H2 5631   6.455   3.277   5.784
 1896TIP3   OH2 5632   6.733   2.969   4.365
 1896TIP3    H1 5633   6.805   2.906   4.361
 1896TIP3    H2 5634   6.726   3.003   4.276
 1897TIP3   OH2 5635   0.668   4.843   6.049
 1897TIP3    H1 5636   0.702   4.781   5.985
 1897TIP3    H2 5637   0.618   4.906   5.997
 1898TIP3   OH2 5638   3.534   3.489   3.350
 1898TIP3    H1 5639   3.441   3.479   3.329
 1898TIP3    H2 5640   3.555   3.579   3.324
 1899TIP3   OH2 5641   6.951   3.905   5.558
 1899TIP3    H1 5642   6.963   3.910   5.653
 1899TIP3    H2 5643   7.040   3.908   5.523
 1900TIP3   OH2 5644   0.347   3.049   2.547
 1900TIP3    H1 5645   0.380   3.136   2.567
 1900TIP3    H2 5646   0.418   2.990   2.572
 1901TIP3   OH2 5647   2.419   5.618   4.678
 1901TIP3    H1 5648   2.450   5.670   4.752
 1901TIP3    H2 5649   2.346   5.667   4.642
 1902TIP3   OH2 5650   7.120   2.537   6.067
 1902TIP3    H1 5651   7.161   2.622   6.051
 1902TIP3    H2 5652   7.026   2.555   6.063
 1903TIP3   OH2 5653   6.368   0.873   5.913
 1903TIP3    H1 5654   6.351   0.874   5.819
 1903TIP3    H2 5655   6.463   0.859   5.919
 1904TIP3   OH2 5656   1.428   7.071   1.492
 1904TIP3    H1 5657   1.372   7.065   1.570
 1904TIP3    H2 5658   1.499   7.008   1.509
 1905TIP3   OH2 5659   6.998   4.441   0.435
 1905TIP3    H1 5660   7.031   4.523   0.470
 1905TIP3    H2 5661   6.909   4.434   0.470
 1906TIP3   OH2 5662   6.294   0.056   2.330
 1906TIP3    H1 5663   6.299   0.016   2.243
 1906TIP3    H2 5664   6.248   0.138   2.316
 1907TIP3   OH2 5665   5.572   5.610   2.586
 1907TIP3    H1 5666   5.567   5.541   2.520
 1907TIP3    H2 5667   5.601   5.687   2.537
 1908TIP3   OH2 5668   2.029   1.488   5.284
 1908TIP3    H1 5669   2.032   1.470   5.190
 1908TIP3    H2 5670   2.078   1.416   5.324
 1909TIP3   OH2 5671   7.294   0.219   5.137
 1909TIP3    H1 5672   7.325   0.255   5.054
 1909TIP3    H2 5673   7.204   0.191   5.119
 1910TIP3   OH2 5674   7.939   5.682   6.305
 1910TIP3    H1 5675   7.929   5.767   6.349
 1910TIP3    H2 5676   7.864   5.631   6.335
 1911TIP3   OH2 5677   2.406   2.006   1.785
 1911TIP3    H1 5678   2.332   1.959   1.824
 1911TIP3    H2 5679   2.419   1.965   1.700
 1912TIP3   OH2 5680   3.365   1.270   4.842
 1912TIP3    H1 5681   3.411   1.221   4.910
 1912TIP3    H2 5682   3.286   1.219   4.825
 1913TIP3   OH2 5683   4.799   2.360   1.922
 1913TIP3    H1 5684   4.851   2.344   1.843
 1913TIP3    H2 5685   4.859   2.344   1.995
 1914TIP3   OH2 5686   0.477   7.666   4.774
 1914TIP3    H1 5687   0.395   7.636   4.734
 1914TIP3    H2 5688   0.458   7.755   4.803
 1915TIP3   OH2 5689   5.547   6.385   2.233
 1915TIP3    H1 5690   5.616   6.451   2.241
 1915TIP3    H2 5691   5.588   6.312   2.188
 1916TIP3   OH2 5692   7.257   7.495   2.152
 1916TIP3    H1 5693   7.311   7.563   2.192
 1916TIP3    H2 5694   7.304   7.472   2.072
 1917TIP3   OH2 5695   1.729   3.349   5.969
 1917TIP3    H1 5696   1.657   3.314   6.021
 1917TIP3    H2 5697   1.688   3.376   5.887
 1918TIP3   OH2 5698   6.393   5.115   6.436
 1918TIP3    H1 5699   6.380   5.150   6.348
 1918TIP3    H2 5700   6.423   5.190   6.488
 1919TIP3   OH2 5701   2.870   6.377   4.605
 1919TIP3    H1 5702   2.882   6.396   4.698
 1919TIP3    H2 5703   2.848   6.462   4.566
 1920TIP3   OH2 5704   5.700   1.461   0.751
 1920TIP3    H1 5705   5.707   1.501   0.838
 1920TIP3    H2 5706   5.752   1.381   0.758
 1921TIP3   OH2 5707   7.549   7.497   0.709
 1921TIP3    H1 5708   7.643   7.494   0.695
 1921TIP3    H2 5709   7.513   7.526   0.625
 1922TIP3   OH2 5710   6.740   7.371   6.410
 1922TIP3    H1 5711   6.725   7.292   6.357
 1922TIP3    H2 5712   6.814   7.414   6.368
 1923TIP3   OH2 5713   4.765   3.497   3.895
 1923TIP3    H1 5714   4.772   3.425   3.958
 1923TIP3    H2 5715   4.853   3.506   3.858
 1924TIP3   OH2 5716   4.360   7.192   5.877
 1924TIP3    H1 5717   4.377   7.177   5.785
 1924TIP3    H2 5718   4.414   7.128   5.923
 1925TIP3   OH2 5719   5.188   5.924   5.073
 1925TIP3    H1 5720   5.099   5.890   5.060
 1925TIP3    H2 5721   5.185   5.969   5.157
 1926TIP3   OH2 5722   0.194   2.072   5.917
 1926TIP3    H1 5723   0.214   2.015   5.991
 1926TIP3    H2 5724   0.227   2.025   5.841
 1927TIP3   OH2 5725   6.801   7.352   0.541
 1927TIP3    H1 5726   6.852   7.407   0.601
 1927TIP3    H2 5727   6.864   7.287   0.509
 1928TIP3   OH2 5728   4.704   6.088   2.900
 1928TIP3    H1 5729   4.705   6.008   2.847
 1928TIP3    H2 5730   4.625   6.134   2.871
 1929TIP3   OH2 5731   6.249   7.178   6.520
 1929TIP3    H1 5732   6.290   7.093   6.538
 1929TIP3    H2 5733   6.243   7.181   6.424
 1930TIP3   OH2 5734   5.225   6.493   5.775
 1930TIP3    H1 5735   5.182   6.545   5.708
 1930TIP3    H2 5736   5.221   6.403   5.743
 1931TIP3   OH2 5737   6.165   7.574   2.825
 1931TIP3    H1 5738   6.200   7.626   2.753
 1931TIP3    H2 5739   6.152   7.487   2.787
 1932TIP3   OH2 5740   2.681   4.424   3.473
 1932TIP3    H1 5741   2.658   4.475   3.395
 1932TIP3    H2 5742   2.681   4.489   3.544
 1933TIP3   OH2 5743   2.424   4.188   5.600
 1933TIP3    H1 5744   2.363   4.213   5.530
 1933TIP3    H2 5745   2.391   4.104   5.631
 1934TIP3   OH2 5746   4.152   4.972   1.749
 1934TIP3    H1 5747   4.196   5.036   1.805
 1934TIP3    H2 5748   4.210   4.962   1.674
 1935TIP3   OH2 5749   4.692   3.971   5.489
 1935TIP3    H1 5750   4.617   3.920   5.459
 1935TIP3    H2 5751   4.664   4.062   5.483
 1936TIP3   OH2 5752   7.461   2.911   1.174
 1936TIP3    H1 5753   7.400   2.839   1.160
 1936TIP3    H2 5754   7.538   2.870   1.213
 1937TIP3   OH2 5755  -0.001   4.619   4.024
 1937TIP3    H1 5756   0.033   4.661   3.945
 1937TIP3    H2 5757   0.039   4.532   4.024
 1938TIP3   OH2 5758   7.644   4.664   2.081
 1938TIP3    H1 5759   7.604   4.664   2.168
 1938TIP3    H2 5760   7.625   4.577   2.046
 1939TIP3   OH2 5761   0.025   4.775   0.853
 1939TIP3    H1 5762   0.059   4.692   0.886
 1939TIP3    H2 5763   0.102   4.824   0.825
 1940TIP3   OH2 5764   6.813   4.813   5.464
 1940TIP3    H1 5765   6.803   4.849   5.376
 1940TIP3    H2 5766   6.901   4.838   5.490
 1941TIP3   OH2 5767   5.797   7.640   0.186
 1941TIP3    H1 5768   5.830   7.569   0.242
 1941TIP3    H2 5769   5.731   7.685   0.240
 1942TIP3   OH2 5770   7.172   1.920   2.484
 1942TIP3    H1 5771   7.102   1.898   2.545
 1942TIP3    H2 5772   7.129   1.933   2.400
 1943TIP3   OH2 5773   2.407   0.221   6.271
 1943TIP3    H1 5774   2.425   0.194   6.181
 1943TIP3    H2 5775   2.493   0.234   6.310
 1944TIP3   OH2 5776   3.485   1.990   2.763
 1944TIP3    H1 5777   3.547   1.975   2.692
 1944TIP3    H2 5778   3.399   1.986   2.720
 1945TIP3   OH2 5779   1.904   2.955   3.415
 1945TIP3    H1 5780   1.867   3.019   3.355
 1945TIP3    H2 5781   1.999   2.964   3.405
 1946TIP3   OH2 5782   8.243   0.084   2.718
 1946TIP3    H1 5783   8.237   0.041   2.633
 1946TIP3    H2 5784   8.171   0.146   2.719
 1947TIP3   OH2 5785   6.052   0.327   0.922
 1947TIP3    H1 5786   5.989   0.362   0.859
 1947TIP3    H2 5787   6.116   0.397   0.933
 1948TIP3   OH2 5788   4.195   4.743   0.603
 1948TIP3    H1 5789   4.153   4.797   0.670
 1948TIP3    H2 5790   4.156   4.657   0.612
 1949TIP3   OH2 5791   0.355   7.724   3.167
 1949TIP3    H1 5792   0.383   7.645   3.122
 1949TIP3    H2 5793   0.400   7.721   3.252
 1950TIP3   OH2 5794   1.974   3.741   3.836
 1950TIP3    H1 5795   2.024   3.772   3.761
 1950TIP3    H2 5796   1.890   3.712   3.799
 1951TIP3   OH2 5797   3.359   4.878   5.229
 1951TIP3    H1 5798   3.345   4.850   5.320
 1951TIP3    H2 5799   3.277   4.857   5.184
 1952TIP3   OH2 5800   5.450   0.426   2.696
 1952TIP3    H1 5801   5.397   0.348   2.707
 1952TIP3    H2 5802   5.387   0.497   2.682
 1953TIP3   OH2 5803   2.001   2.528   0.069
 1953TIP3    H1 5804   2.005   2.434   0.051
 1953TIP3    H2 5805   2.001   2.534   0.164
 1954TIP3   OH2 5806   6.565   0.177   6.252
 1954TIP3    H1 5807   6.571   0.235   6.328
 1954TIP3    H2 5808   6.494   0.215   6.199
 1955TIP3   OH2 5809   3.558   1.870   4.924
 1955TIP3    H1 5810   3.639   1.894   4.878
 1955TIP3    H2 5811   3.500   1.839   4.854
 1956TIP3   OH2 5812   7.857   4.011   0.661
 1956TIP3    H1 5813   7.847   4.102   0.635
 1956TIP3    H2 5814   7.924   4.012   0.729
 1957TIP3   OH2 5815   5.035   2.938   5.104
 1957TIP3    H1 5816   5.002   2.860   5.148
 1957TIP3    H2 5817   4.998   2.935   5.016
 1958TIP3   OH2 5818   7.954   2.129   3.435
 1958TIP3    H1 5819   8.040   2.107   3.471
 1958TIP3    H2 5820   7.971   2.203   3.377
 1959TIP3   OH2 5821   4.453   2.976   1.904
 1959TIP3    H1 5822   4.429   3.038   1.973
 1959TIP3    H2 5823   4.494   2.903   1.949
 1960TIP3   OH2 5824   6.823   4.602   0.254
 1960TIP3    H1 5825   6.883   4.595   0.328
 1960TIP3    H2 5826   6.770   4.522   0.259
 1961TIP3   OH2 5827   5.289   2.261   2.924
 1961TIP3    H1 5828   5.297   2.355   2.941
 1961TIP3    H2 5829   5.249   2.254   2.837
 1962TIP3   OH2 5830   2.334   7.746   6.549
 1962TIP3    H1 5831   2.282   7.825   6.561
 1962TIP3    H2 5832   2.269   7.676   6.540
 1963TIP3   OH2 5833   2.972   6.918   5.522
 1963TIP3    H1 5834   2.963   7.014   5.526
 1963TIP3    H2 5835   3.003   6.900   5.434
 1964TIP3   OH2 5836   8.194   0.477   0.132
 1964TIP3    H1 5837   8.127   0.544   0.146
 1964TIP3    H2 5838   8.226   0.457   0.221
 1965TIP3   OH2 5839   1.069   0.684   1.404
 1965TIP3    H1 5840   1.084   0.747   1.333
 1965TIP3    H2 5841   1.115   0.605   1.375
 1966TIP3   OH2 5842   8.126   5.972   0.606
 1966TIP3    H1 5843   8.213   5.971   0.646
 1966TIP3    H2 5844   8.130   6.042   0.541
 1967TIP3   OH2 5845   0.931   1.332   4.072
 1967TIP3    H1 5846   0.916   1.351   3.979
 1967TIP3    H2 5847   0.884   1.401   4.118
 1968TIP3   OH2 5848   4.909   0.052   1.107
 1968TIP3    H1 5849   5.004   0.060   1.106
 1968TIP3    H2 5850   4.877   0.141   1.094
 1969TIP3   OH2 5851   8.084   4.874   2.555
 1969TIP3    H1 5852   8.025   4.849   2.484
 1969TIP3    H2 5853   8.027   4.891   2.630
 1970TIP3   OH2 5854   6.668   3.364   2.127
 1970TIP3    H1 5855   6.580   3.350   2.092
 1970TIP3    H2 5856   6.695   3.278   2.159
 1971TIP3   OH2 5857   2.712   1.258   4.507
 1971TIP3    H1 5858   2.788   1.316   4.512
 1971TIP3    H2 5859   2.683   1.265   4.415
 1972TIP3   OH2 5860   4.650   4.002   1.038
 1972TIP3    H1 5861   4.702   3.932   0.998
 1972TIP3    H2 5862   4.563   3.992   0.999
 1973TIP3   OH2 5863   5.298   6.892   3.465
 1973TIP3    H1 5864   5.295   6.844   3.382
 1973TIP3    H2 5865   5.324   6.826   3.530
 1974TIP3   OH2 5866   3.282   0.878   5.943
 1974TIP3    H1 5867   3.244   0.962   5.918
 1974TIP3    H2 5868   3.271   0.822   5.866
 1975TIP3   OH2 5869   0.478   4.011   5.114
 1975TIP3    H1 5870   0.538   4.085   5.117
 1975TIP3    H2 5871   0.531   3.938   5.083
 1976TIP3   OH2 5872   8.281   3.626   3.963
 1976TIP3    H1 5873   8.223   3.667   4.026
 1976TIP3    H2 5874   8.366   3.670   3.975
 1977TIP3   OH2 5875   2.634   4.318   4.160
 1977TIP3    H1 5876   2.544   4.339   4.137
 1977TIP3    H2 5877   2.685   4.394   4.132
 1978TIP3   OH2 5878   0.208   1.985   2.147
 1978TIP3    H1 5879   0.144   2.054   2.134
 1978TIP3    H2 5880   0.244   2.001   2.235
 1979TIP3   OH2 5881   0.795   1.429   6.250
 1979TIP3    H1 5882   0.715   1.396   6.290
 1979TIP3    H2 5883   0.853   1.448   6.324
 1980TIP3   OH2 5884   1.596   4.397   4.678
 1980TIP3    H1 5885   1.502   4.392   4.694
 1980TIP3    H2 5886   1.636   4.391   4.764
 1981TIP3   OH2 5887   3.135   0.531   5.507
 1981TIP3    H1 5888   3.135   0.484   5.590
 1981TIP3    H2 5889   3.227   0.528   5.478
 1982TIP3   OH2 5890   6.915   0.005   1.676
 1982TIP3    H1 5891   6.921   0.062   1.752
 1982TIP3    H2 5892   6.979  -0.064   1.692
 1983TIP3   OH2 5893   1.550   5.084   1.597
 1983TIP3    H1 5894   1.640   5.116   1.593
 1983TIP3    H2 5895   1.529   5.061   1.506
 1984TIP3   OH2 5896   5.260   1.753   3.968
 1984TIP3    H1 5897   5.186   1.695   3.949
 1984TIP3    H2 5898   5.298   1.719   4.049
 1985TIP3   OH2 5899   4.180   6.636   1.613
 1985TIP3    H1 5900   4.123   6.563   1.588
 1985TIP3    H2 5901   4.209   6.615   1.701
 1986TIP3   OH2 5902   6.482   7.567   4.760
 1986TIP3    H1 5903   6.446   7.511   4.691
 1986TIP3    H2 5904   6.542   7.510   4.807
 1987TIP3   OH2 5905   2.136   7.176   4.124
 1987TIP3    H1 5906   2.134   7.158   4.030
 1987TIP3    H2 5907   2.045   7.198   4.146
 1988TIP3   OH2 5908   1.199   6.071   4.218
 1988TIP3    H1 5909   1.140   6.007   4.257
 1988TIP3    H2 5910   1.278   6.067   4.271
 1989TIP3   OH2 5911   0.754   2.056   5.579
 1989TIP3    H1 5912   0.758   2.121   5.649
 1989TIP3    H2 5913   0.829   2.075   5.523
 1990TIP3   OH2 5914   3.135   4.074   5.867
 1990TIP3    H1 5915   3.222   4.113   5.860
 1990TIP3    H2 5916   3.085   4.114   5.795
 1991TIP3   OH2 5917   1.754   6.886   5.330
 1991TIP3    H1 5918   1.706   6.810   5.364
 1991TIP3    H2 5919   1.722   6.960   5.381
 1992TIP3   OH2 5920   3.417   7.191   2.363
 1992TIP3    H1 5921   3.332   7.155   2.337
 1992TIP3    H2 5922   3.439   7.252   2.292
 1993TIP3   OH2 5923   8.087   3.845   1.681
 1993TIP3    H1 5924   8.122   3.908   1.618
 1993TIP3    H2 5925   8.017   3.892   1.725
 1994TIP3   OH2 5926   8.018   2.350   6.625
 1994TIP3    H1 5927   7.985   2.303   6.701
 1994TIP3    H2 5928   7.942   2.395   6.589
 1995TIP3   OH2 5929   4.880   3.730   1.519
 1995TIP3    H1 5930   4.890   3.782   1.439
 1995TIP3    H2 5931   4.969   3.706   1.544
 1996TIP3   OH2 5932   5.602   5.342   1.260
 1996TIP3    H1 5933   5.571   5.429   1.288
 1996TIP3    H2 5934   5.523   5.289   1.257
 1997TIP3   OH2 5935   1.302   4.681   0.198
 1997TIP3    H1 5936   1.324   4.623   0.126
 1997TIP3    H2 5937   1.345   4.642   0.274
 1998TIP3   OH2 5938   1.655   3.031   0.008
 1998TIP3    H1 5939   1.612   2.949  -0.017
 1998TIP3    H2 5940   1.722   3.005   0.071
 1999TIP3   OH2 5941   6.223   3.882   2.919
 1999TIP3    H1 5942   6.291   3.835   2.967
 1999TIP3    H2 5943   6.179   3.936   2.985
 2000TIP3   OH2 5944   2.059   0.472   0.905
 2000TIP3    H1 5945   2.058   0.391   0.956
 2000TIP3    H2 5946   2.013   0.535   0.960
 2001TIP3   OH2 5947   8.023   0.358   3.446
 2001TIP3    H1 5948   7.933   0.326   3.444
 2001TIP3    H2 5949   8.054   0.349   3.356
 2002TIP3   OH2 5950   2.717   3.228   1.452
 2002TIP3    H1 5951   2.800   3.193   1.421
 2002TIP3    H2 5952   2.720   3.321   1.429
 2003TIP3   OH2 5953   4.600   7.165   5.267
 2003TIP3    H1 5954   4.599   7.080   5.311
 2003TIP3    H2 5955   4.635   7.147   5.180
 2004TIP3   OH2 5956   7.533   4.499   1.719
 2004TIP3    H1 5957   7.481   4.577   1.736
 2004TIP3    H2 5958   7.558   4.468   1.806
 2005TIP3   OH2 5959   3.106   2.470   0.367
 2005TIP3    H1 5960   3.089   2.558   0.398
 2005TIP3    H2 5961   3.096   2.475   0.272
 2006TIP3   OH2 5962   3.295   4.123   0.973
 2006TIP3    H1 5963   3.242   4.044   0.980
 2006TIP3    H2 5964   3.370   4.096   0.920
 2007TIP3   OH2 5965   7.356   3.902   5.041
 2007TIP3    H1 5966   7.364   3.925   5.134
 2007TIP3    H2 5967   7.444   3.875   5.015
 2008TIP3   OH2 5968   6.870   4.090   6.679
 2008TIP3    H1 5969   6.944   4.151   6.674
 2008TIP3    H2 5970   6.857   4.075   6.772
 2009TIP3   OH2 5971   4.530   1.736   0.495
 2009TIP3    H1 5972   4.504   1.743   0.587
 2009TIP3    H2 5973   4.450   1.709   0.450
 2010TIP3   OH2 5974   6.487   5.907   0.579
 2010TIP3    H1 5975   6.437   5.902   0.661
 2010TIP3    H2 5976   6.562   5.963   0.600
 2011TIP3   OH2 5977   0.643   5.864   5.092
 2011TIP3    H1 5978   0.578   5.798   5.065
 2011TIP3    H2 5979   0.706   5.866   5.021
 2012TIP3   OH2 5980   6.673   3.087   4.113
 2012TIP3    H1 5981   6.609   3.155   4.129
 2012TIP3    H2 5982   6.745   3.131   4.068
 2013TIP3   OH2 5983   6.376   4.924   6.637
 2013TIP3    H1 5984   6.354   4.840   6.597
 2013TIP3    H2 5985   6.404   4.979   6.564
 2014TIP3   OH2 5986   4.115   1.895   4.890
 2014TIP3    H1 5987   4.139   1.967   4.832
 2014TIP3    H2 5988   4.048   1.932   4.948
 2015TIP3   OH2 5989   6.332   1.126   3.995
 2015TIP3    H1 5990   6.377   1.069   3.933
 2015TIP3    H2 5991   6.347   1.215   3.963
 2016TIP3   OH2 5992   2.694   5.477   0.629
 2016TIP3    H1 5993   2.667   5.514   0.713
 2016TIP3    H2 5994   2.631   5.407   0.612
 2017TIP3   OH2 5995   6.402   7.416   1.978
 2017TIP3    H1 5996   6.435   7.494   2.023
 2017TIP3    H2 5997   6.396   7.442   1.886
 2018TIP3   OH2 5998   6.256   5.981   0.717
 2018TIP3    H1 5999   6.259   6.019   0.629
 2018TIP3    H2 6000   6.163   5.972   0.736
 2019TIP3   OH2 6001   2.912   7.046   3.313
 2019TIP3    H1 6002   2.993   7.068   3.268
 2019TIP3    H2 6003   2.843   7.089   3.262
 2020TIP3   OH2 6004   0.027   5.919   3.276
 2020TIP3    H1 6005   0.061   5.906   3.188
 2020TIP3    H2 6006  -0.057   5.963   3.262
 2021TIP3   OH2 6007   4.350   0.155   2.943
 2021TIP3    H1 6008   4.433   0.109   2.952
 2021TIP3    H2 6009   4.341   0.171   2.849
 2022TIP3   OH2 6010   7.038   4.588   3.839
 2022TIP3    H1 6011   7.079   4.525   3.898
 2022TIP3    H2 6012   7.061   4.673   3.876
 2023TIP3   OH2 6013   2.928   0.305   1.201
 2023TIP3    H1 6014   2.891   0.375   1.255
 2023TIP3    H2 6015   2.862   0.236   1.204
 2024TIP3   OH2 6016   4.172   1.555   4.616
 2024TIP3    H1 6017   4.107   1.545   4.546
 2024TIP3    H2 6018   4.219   1.472   4.617
 2025TIP3   OH2 6019   7.487   2.858   0.334
 2025TIP3    H1 6020   7.410   2.800   0.333
 2025TIP3    H2 6021   7.475   2.912   0.411
 2026TIP3   OH2 6022   2.084   3.478   4.752
 2026TIP3    H1 6023   2.092   3.383   4.762
 2026TIP3    H2 6024   1.994   3.492   4.722
 2027TIP3   OH2 6025   8.087   0.559   3.644
 2027TIP3    H1 6026   8.056   0.495   3.580
 2027TIP3    H2 6027   8.113   0.507   3.720
 2028TIP3   OH2 6028   7.627   6.897   0.710
 2028TIP3    H1 6029   7.613   6.854   0.625
 2028TIP3    H2 6030   7.671   6.979   0.689
 2029TIP3   OH2 6031   8.142   7.605   0.321
 2029TIP3    H1 6032   8.088   7.660   0.266
 2029TIP3    H2 6033   8.229   7.645   0.317
 2030TIP3   OH2 6034   6.800   2.199   2.336
 2030TIP3    H1 6035   6.738   2.199   2.264
 2030TIP3    H2 6036   6.856   2.123   2.320
 2031TIP3   OH2 6037   0.774   5.332   4.675
 2031TIP3    H1 6038   0.833   5.350   4.748
 2031TIP3    H2 6039   0.702   5.283   4.714
 2032TIP3   OH2 6040   6.886   0.745   3.924
 2032TIP3    H1 6041   6.849   0.750   4.012
 2032TIP3    H2 6042   6.882   0.652   3.901
 2033TIP3   OH2 6043   2.409   2.098   5.522
 2033TIP3    H1 6044   2.328   2.048   5.509
 2033TIP3    H2 6045   2.381   2.179   5.564
 2034TIP3   OH2 6046   0.289   5.805   3.061
 2034TIP3    H1 6047   0.277   5.711   3.074
 2034TIP3    H2 6048   0.300   5.840   3.149
 2035TIP3   OH2 6049   6.999   3.374   2.876
 2035TIP3    H1 6050   6.940   3.353   2.949
 2035TIP3    H2 6051   7.085   3.343   2.905
 2036TIP3   OH2 6052   5.616   3.078   6.241
 2036TIP3    H1 6053   5.697   3.125   6.223
 2036TIP3    H2 6054   5.615   3.067   6.336
 2037TIP3   OH2 6055   3.537   6.729   1.077
 2037TIP3    H1 6056   3.617   6.714   1.027
 2037TIP3    H2 6057   3.486   6.790   1.025
 2038TIP3   OH2 6058   3.201   2.974   1.735
 2038TIP3    H1 6059   3.248   2.892   1.748
 2038TIP3    H2 6060   3.110   2.953   1.752
 2039TIP3   OH2 6061   4.422   0.869   1.873
 2039TIP3    H1 6062   4.467   0.917   1.943
 2039TIP3    H2 6063   4.464   0.900   1.793
 2040TIP3   OH2 6064   5.816   4.055   4.062
 2040TIP3    H1 6065   5.886   3.991   4.050
 2040TIP3    H2 6066   5.756   4.012   4.123
 2041TIP3   OH2 6067   2.970   0.849   6.723
 2041TIP3    H1 6068   2.976   0.830   6.629
 2041TIP3    H2 6069   2.879   0.830   6.745
 2042TIP3   OH2 6070   3.443   1.979   1.980
 2042TIP3    H1 6071   3.502   1.934   2.040
 2042TIP3    H2 6072   3.356   1.944   2.000
 2043TIP3   OH2 6073   4.164   2.351   5.421
 2043TIP3    H1 6074   4.132   2.408   5.351
 2043TIP3    H2 6075   4.185   2.411   5.493
 2044TIP3   OH2 6076   5.730   2.835   1.964
 2044TIP3    H1 6077   5.721   2.749   2.004
 2044TIP3    H2 6078   5.797   2.879   2.017
 2045TIP3   OH2 6079   7.868   4.127   0.065
 2045TIP3    H1 6080   7.807   4.073   0.115
 2045TIP3    H2 6081   7.812   4.182   0.011
 2046TIP3   OH2 6082   4.299   7.729   0.812
 2046TIP3    H1 6083   4.265   7.805   0.764
 2046TIP3    H2 6084   4.246   7.656   0.781
 2047TIP3   OH2 6085   6.611   3.550   4.484
 2047TIP3    H1 6086   6.563   3.528   4.404
 2047TIP3    H2 6087   6.608   3.469   4.536
 2048TIP3   OH2 6088   1.260   7.142   6.371
 2048TIP3    H1 6089   1.265   7.084   6.447
 2048TIP3    H2 6090   1.271   7.084   6.296
 2049TIP3   OH2 6091   3.183   3.189   6.430
 2049TIP3    H1 6092   3.240   3.237   6.489
 2049TIP3    H2 6093   3.126   3.138   6.488
 2050TIP3   OH2 6094   0.763   1.694   0.842
 2050TIP3    H1 6095   0.819   1.618   0.828
 2050TIP3    H2 6096   0.725   1.711   0.756
 2051TIP3   OH2 6097   3.007   7.499   5.029
 2051TIP3    H1 6098   3.055   7.464   5.104
 2051TIP3    H2 6099   3.012   7.430   4.963
 2052TIP3   OH2 6100   6.198   6.609   5.123
 2052TIP3    H1 6101   6.286   6.614   5.160
 2052TIP3    H2 6102   6.149   6.552   5.182
 2053TIP3   OH2 6103   0.667   6.656   6.029
 2053TIP3    H1 6104   0.673   6.569   6.070
 2053TIP3    H2 6105   0.714   6.713   6.089
 2054TIP3   OH2 6106   5.700   2.485   4.525
 2054TIP3    H1 6107   5.723   2.571   4.561
 2054TIP3    H2 6108   5.613   2.467   4.560
 2055TIP3   OH2 6109   4.590   2.454   1.000
 2055TIP3    H1 6110   4.630   2.498   1.076
 2055TIP3    H2 6111   4.496   2.465   1.012
 2056TIP3   OH2 6112   0.707   0.470   3.207
 2056TIP3    H1 6113   0.706   0.488   3.301
 2056TIP3    H2 6114   0.679   0.378   3.200
 2057TIP3   OH2 6115   2.998   6.007   4.268
 2057TIP3    H1 6116   3.037   5.985   4.183
 2057TIP3    H2 6117   2.940   6.081   4.249
 2058TIP3   OH2 6118   8.099   6.071   3.311
 2058TIP3    H1 6119   8.021   6.086   3.365
 2058TIP3    H2 6120   8.089   6.131   3.237
 2059TIP3   OH2 6121   1.605   4.215   5.928
 2059TIP3    H1 6122   1.657   4.153   5.980
 2059TIP3    H2 6123   1.525   4.227   5.977
 2060TIP3   OH2 6124   5.900   6.276   3.856
 2060TIP3    H1 6125   5.994   6.259   3.860
 2060TIP3    H2 6126   5.887   6.323   3.774
 2061TIP3   OH2 6127   7.732   1.840   4.801
 2061TIP3    H1 6128   7.772   1.753   4.800
 2061TIP3    H2 6129   7.766   1.884   4.723
 2062TIP3   OH2 6130   0.683   1.993   3.720
 2062TIP3    H1 6131   0.684   2.041   3.637
 2062TIP3    H2 6132   0.707   2.058   3.786
 2063TIP3   OH2 6133   1.305   2.479   3.355
 2063TIP3    H1 6134   1.399   2.494   3.367
 2063TIP3    H2 6135   1.276   2.550   3.298
 2064TIP3   OH2 6136   1.836   2.841   1.093
 2064TIP3    H1 6137   1.840   2.923   1.044
 2064TIP3    H2 6138   1.755   2.799   1.064
 2065TIP3   OH2 6139   2.419   1.863   0.885
 2065TIP3    H1 6140   2.412   1.925   0.957
 2065TIP3    H2 6141   2.377   1.783   0.917
 2066TIP3   OH2 6142   3.144   3.953   5.101
 2066TIP3    H1 6143   3.211   4.015   5.075
 2066TIP3    H2 6144   3.190   3.870   5.112
 2067TIP3   OH2 6145   4.700   2.970   6.338
 2067TIP3    H1 6146   4.735   2.987   6.250
 2067TIP3    H2 6147   4.684   2.876   6.340
 2068TIP3   OH2 6148   7.559   1.605   5.539
 2068TIP3    H1 6149   7.605   1.689   5.536
 2068TIP3    H2 6150   7.592   1.563   5.619
 2069TIP3   OH2 6151   2.978   4.858   6.109
 2069TIP3    H1 6152   2.979   4.849   6.204
 2069TIP3    H2 6153   2.952   4.772   6.076
 2070TIP3   OH2 6154   2.535   0.128   6.002
 2070TIP3    H1 6155   2.569   0.127   5.912
 2070TIP3    H2 6156   2.612   0.137   6.057
 2071TIP3   OH2 6157   1.024   5.440   2.408
 2071TIP3    H1 6158   0.970   5.384   2.463
 2071TIP3    H2 6159   0.989   5.528   2.420
 2072TIP3   OH2 6160   4.170   2.837   0.989
 2072TIP3    H1 6161   4.211   2.750   0.990
 2072TIP3    H2 6162   4.077   2.821   1.003
 2073TIP3   OH2 6163   5.203   4.474   4.725
 2073TIP3    H1 6164   5.298   4.475   4.727
 2073TIP3    H2 6165   5.178   4.422   4.801
 2074TIP3   OH2 6166   4.463   5.202   2.094
 2074TIP3    H1 6167   4.445   5.199   2.000
 2074TIP3    H2 6168   4.507   5.119   2.113
 2075TIP3   OH2 6169   7.772   6.421   6.567
 2075TIP3    H1 6170   7.792   6.512   6.546
 2075TIP3    H2 6171   7.739   6.423   6.657
 2076TIP3   OH2 6172   1.382   3.025   1.780
 2076TIP3    H1 6173   1.411   3.115   1.764
 2076TIP3    H2 6174   1.399   2.980   1.697
 2077TIP3   OH2 6175   3.122   7.632   3.719
 2077TIP3    H1 6176   3.039   7.659   3.759
 2077TIP3    H2 6177   3.155   7.563   3.777
 2078TIP3   OH2 6178   3.038   6.154   5.680
 2078TIP3    H1 6179   3.093   6.188   5.610
 2078TIP3    H2 6180   2.957   6.127   5.637
 2079TIP3   OH2 6181   6.859   4.249   1.814
 2079TIP3    H1 6182   6.844   4.186   1.744
 2079TIP3    H2 6183   6.951   4.239   1.837
 2080TIP3   OH2 6184   0.116   3.463   4.922
 2080TIP3    H1 6185   0.062   3.528   4.968
 2080TIP3    H2 6186   0.063   3.383   4.923
 2081TIP3   OH2 6187   6.562   3.272   4.582
 2081TIP3    H1 6188   6.631   3.207   4.597
 2081TIP3    H2 6189   6.492   3.248   4.643
 2082TIP3   OH2 6190   8.125   2.955   1.724
 2082TIP3    H1 6191   8.048   3.010   1.737
 2082TIP3    H2 6192   8.126   2.898   1.802
 2083TIP3   OH2 6193   1.625   0.538   6.003
 2083TIP3    H1 6194   1.662   0.523   6.090
 2083TIP3    H2 6195   1.578   0.457   5.983
 2084TIP3   OH2 6196   2.820   0.567   5.854
 2084TIP3    H1 6197   2.864   0.652   5.852
 2084TIP3    H2 6198   2.796   0.550   5.763
 2085TIP3   OH2 6199   0.233   4.073   3.621
 2085TIP3    H1 6200   0.277   4.142   3.672
 2085TIP3    H2 6201   0.253   4.094   3.530
 2086TIP3   OH2 6202   5.005   3.901   2.453
 2086TIP3    H1 6203   5.008   3.948   2.369
 2086TIP3    H2 6204   4.984   3.811   2.429
 2087TIP3   OH2 6205   6.626   5.300   0.359
 2087TIP3    H1 6206   6.567   5.231   0.329
 2087TIP3    H2 6207   6.660   5.270   0.443
 2088TIP3   OH2 6208   5.756   5.525   6.683
 2088TIP3    H1 6209   5.678   5.490   6.725
 2088TIP3    H2 6210   5.731   5.613   6.655
 2089TIP3   OH2 6211   0.233   4.805   1.107
 2089TIP3    H1 6212   0.234   4.778   1.015
 2089TIP3    H2 6213   0.325   4.812   1.131
 2090TIP3   OH2 6214   3.773   4.912   6.433
 2090TIP3    H1 6215   3.862   4.884   6.413
 2090TIP3    H2 6216   3.717   4.853   6.383
 2091TIP3   OH2 6217   4.768   6.828   3.177
 2091TIP3    H1 6218   4.835   6.795   3.237
 2091TIP3    H2 6219   4.690   6.777   3.199
 2092TIP3   OH2 6220   3.960   5.004   3.229
 2092TIP3    H1 6221   3.947   5.090   3.269
 2092TIP3    H2 6222   4.039   4.970   3.272
 2093TIP3   OH2 6223   1.246   0.102   5.502
 2093TIP3    H1 6224   1.186   0.045   5.550
 2093TIP3    H2 6225   1.333   0.069   5.524
 2094TIP3   OH2 6226   3.514   4.370   4.380
 2094TIP3    H1 6227   3.522   4.409   4.293
 2094TIP3    H2 6228   3.524   4.444   4.441
 2095TIP3   OH2 6229   1.597   2.341   3.312
 2095TIP3    H1 6230   1.574   2.405   3.381
 2095TIP3    H2 6231   1.555   2.260   3.340
 2096TIP3   OH2 6232   0.608   5.656   4.461
 2096TIP3    H1 6233   0.630   5.575   4.416
 2096TIP3    H2 6234   0.689   5.683   4.504
 2097TIP3   OH2 6235   6.058   6.523   5.665
 2097TIP3    H1 6236   6.058   6.427   5.668
 2097TIP3    H2 6237   6.130   6.549   5.722
 2098TIP3   OH2 6238   1.229   5.713   5.086
 2098TIP3    H1 6239   1.288   5.657   5.037
 2098TIP3    H2 6240   1.145   5.706   5.041
 2099TIP3   OH2 6241   1.864   4.984   5.035
 2099TIP3    H1 6242   1.844   4.997   4.942
 2099TIP3    H2 6243   1.798   4.922   5.066
 2100TIP3   OH2 6244   5.422   3.994   5.685
 2100TIP3    H1 6245   5.353   4.048   5.647
 2100TIP3    H2 6246   5.394   3.981   5.776
 2101TIP3   OH2 6247   1.071   7.590   5.840
 2101TIP3    H1 6248   1.030   7.547   5.915
 2101TIP3    H2 6249   1.149   7.633   5.875
 2102TIP3   OH2 6250   5.648   7.344   4.590
 2102TIP3    H1 6251   5.563   7.308   4.613
 2102TIP3    H2 6252   5.686   7.372   4.673
 2103TIP3   OH2 6253   5.597   2.191   1.515
 2103TIP3    H1 6254   5.635   2.144   1.590
 2103TIP3    H2 6255   5.652   2.269   1.506
 2104TIP3   OH2 6256   6.205   3.394   0.337
 2104TIP3    H1 6257   6.174   3.470   0.288
 2104TIP3    H2 6258   6.127   3.358   0.378
 2105TIP3   OH2 6259   3.685   4.331   1.565
 2105TIP3    H1 6260   3.625   4.405   1.560
 2105TIP3    H2 6261   3.772   4.371   1.568
 2106TIP3   OH2 6262   3.937   4.946   4.374
 2106TIP3    H1 6263   3.853   4.991   4.384
 2106TIP3    H2 6264   3.914   4.854   4.366
 2107TIP3   OH2 6265   5.151   1.307   2.585
 2107TIP3    H1 6266   5.164   1.386   2.637
 2107TIP3    H2 6267   5.058   1.289   2.591
 2108TIP3   OH2 6268   0.257   6.663   1.482
 2108TIP3    H1 6269   0.308   6.713   1.546
 2108TIP3    H2 6270   0.214   6.594   1.533
 2109TIP3   OH2 6271   4.391   2.729   1.792
 2109TIP3    H1 6272   4.318   2.688   1.839
 2109TIP3    H2 6273   4.381   2.823   1.808
 2110TIP3   OH2 6274   2.018   4.278   5.133
 2110TIP3    H1 6275   1.967   4.244   5.059
 2110TIP3    H2 6276   2.108   4.280   5.101
 2111TIP3   OH2 6277   5.428   2.470   4.518
 2111TIP3    H1 6278   5.412   2.463   4.424
 2111TIP3    H2 6279   5.390   2.554   4.543
 2112TIP3   OH2 6280   3.668   4.038   4.045
 2112TIP3    H1 6281   3.705   3.988   3.973
 2112TIP3    H2 6282   3.614   4.105   4.003
 2113TIP3   OH2 6283   6.911   3.623   5.987
 2113TIP3    H1 6284   6.817   3.615   5.972
 2113TIP3    H2 6285   6.950   3.610   5.901
 2114TIP3   OH2 6286   4.651   3.512   0.321
 2114TIP3    H1 6287   4.734   3.480   0.355
 2114TIP3    H2 6288   4.656   3.607   0.330
 2115TIP3   OH2 6289   2.142   4.599   5.640
 2115TIP3    H1 6290   2.116   4.559   5.557
 2115TIP3    H2 6291   2.189   4.530   5.686
 2116TIP3   OH2 6292   6.725   6.153   4.331
 2116TIP3    H1 6293   6.703   6.084   4.269
 2116TIP3    H2 6294   6.815   6.177   4.310
 2117TIP3   OH2 6295   2.630   3.369   2.835
 2117TIP3    H1 6296   2.539   3.384   2.862
 2117TIP3    H2 6297   2.626   3.287   2.785
 2118TIP3   OH2 6298   0.643   0.562   4.188
 2118TIP3    H1 6299   0.621   0.604   4.271
 2118TIP3    H2 6300   0.697   0.486   4.213
 2119TIP3   OH2 6301   5.074   5.229   0.624
 2119TIP3    H1 6302   5.081   5.192   0.712
 2119TIP3    H2 6303   5.113   5.316   0.631
 2120TIP3   OH2 6304   6.909   5.044   2.715
 2120TIP3    H1 6305   6.962   5.121   2.696
 2120TIP3    H2 6306   6.919   4.987   2.639
 2121TIP3   OH2 6307   6.091   4.993   4.406
 2121TIP3    H1 6308   6.173   5.030   4.440
 2121TIP3    H2 6309   6.027   5.063   4.419
 2122TIP3   OH2 6310   0.313   6.729   0.463
 2122TIP3    H1 6311   0.379   6.718   0.394
 2122TIP3    H2 6312   0.314   6.822   0.483
 2123TIP3   OH2 6313   4.326   5.795   5.899
 2123TIP3    H1 6314   4.261   5.846   5.850
 2123TIP3    H2 6315   4.274   5.738   5.955
 2124TIP3   OH2 6316   2.766   0.657   0.085
 2124TIP3    H1 6317   2.685   0.708   0.076
 2124TIP3    H2 6318   2.742   0.583   0.141
 2125TIP3   OH2 6319   8.282   0.699   1.524
 2125TIP3    H1 6320   8.318   0.714   1.436
 2125TIP3    H2 6321   8.207   0.641   1.510
 2126TIP3   OH2 6322   5.539   6.405   4.920
 2126TIP3    H1 6323   5.622   6.451   4.930
 2126TIP3    H2 6324   5.536   6.344   4.993
 2127TIP3   OH2 6325   6.587   3.370   6.630
 2127TIP3    H1 6326   6.555   3.453   6.594
 2127TIP3    H2 6327   6.616   3.392   6.719
 2128TIP3   OH2 6328   3.793   2.418   5.857
 2128TIP3    H1 6329   3.828   2.334   5.888
 2128TIP3    H2 6330   3.814   2.420   5.764
 2129TIP3   OH2 6331   6.559   2.175   0.402
 2129TIP3    H1 6332   6.587   2.090   0.436
 2129TIP3    H2 6333   6.612   2.239   0.449
 2130TIP3   OH2 6334   0.689   0.059   2.316
 2130TIP3    H1 6335   0.772   0.101   2.292
 2130TIP3    H2 6336   0.638   0.129   2.358
 2131TIP3   OH2 6337   4.598   3.400   3.239
 2131TIP3    H1 6338   4.560   3.476   3.195
 2131TIP3    H2 6339   4.574   3.325   3.185
 2132TIP3   OH2 6340   6.122   4.118   3.728
 2132TIP3    H1 6341   6.031   4.146   3.732
 2132TIP3    H2 6342   6.137   4.072   3.811
 2133TIP3   OH2 6343   6.001   0.129   0.107
 2133TIP3    H1 6344   5.913   0.094   0.097
 2133TIP3    H2 6345   5.992   0.223   0.091
 2134TIP3   OH2 6346   5.624   4.668   1.287
 2134TIP3    H1 6347   5.563   4.601   1.320
 2134TIP3    H2 6348   5.631   4.649   1.193
 2135TIP3   OH2 6349   7.378   3.394   3.445
 2135TIP3    H1 6350   7.432   3.458   3.398
 2135TIP3    H2 6351   7.349   3.440   3.524
 2136TIP3   OH2 6352   1.478   4.430   1.624
 2136TIP3    H1 6353   1.519   4.488   1.559
 2136TIP3    H2 6354   1.487   4.343   1.586
 2137TIP3   OH2 6355   6.064   0.641   1.784
 2137TIP3    H1 6356   5.987   0.696   1.800
 2137TIP3    H2 6357   6.083   0.602   1.870
 2138TIP3   OH2 6358   0.500   2.277   4.778
 2138TIP3    H1 6359   0.588   2.299   4.747
 2138TIP3    H2 6360   0.509   2.275   4.874
 2139TIP3   OH2 6361   4.842   7.577   1.056
 2139TIP3    H1 6362   4.840   7.672   1.045
 2139TIP3    H2 6363   4.933   7.557   1.078
 2140TIP3   OH2 6364   4.383   4.834   0.920
 2140TIP3    H1 6365   4.409   4.914   0.874
 2140TIP3    H2 6366   4.455   4.773   0.905
 2141TIP3   OH2 6367   3.299   2.358   1.739
 2141TIP3    H1 6368   3.229   2.418   1.717
 2141TIP3    H2 6369   3.379   2.411   1.737
 2142TIP3   OH2 6370   6.893   4.843   1.303
 2142TIP3    H1 6371   6.987   4.835   1.287
 2142TIP3    H2 6372   6.878   4.788   1.381
 2143TIP3   OH2 6373   1.877   3.080   5.912
 2143TIP3    H1 6374   1.833   3.112   5.834
 2143TIP3    H2 6375   1.943   3.146   5.932
 2144TIP3   OH2 6376   8.140   3.424   3.806
 2144TIP3    H1 6377   8.052   3.411   3.841
 2144TIP3    H2 6378   8.185   3.478   3.871
 2145TIP3   OH2 6379   2.949   4.120   5.186
 2145TIP3    H1 6380   2.989   4.202   5.213
 2145TIP3    H2 6381   3.022   4.068   5.151
 2146TIP3   OH2 6382   5.017   7.564   4.871
 2146TIP3    H1 6383   5.107   7.548   4.843
 2146TIP3    H2 6384   5.023   7.577   4.965
 2147TIP3   OH2 6385   6.694   4.458   1.284
 2147TIP3    H1 6386   6.738   4.379   1.252
 2147TIP3    H2 6387   6.736   4.530   1.236
 2148TIP3   OH2 6388   4.915   7.049   1.563
 2148TIP3    H1 6389   4.857   7.122   1.544
 2148TIP3    H2 6390   4.946   7.019   1.477
 2149TIP3   OH2 6391   1.506   3.506   3.873
 2149TIP3    H1 6392   1.470   3.425   3.836
 2149TIP3    H2 6393   1.598   3.484   3.891
 2150TIP3   OH2 6394   1.045   1.837   0.876
 2150TIP3    H1 6395   0.989   1.894   0.823
 2150TIP3    H2 6396   0.994   1.819   0.954
 2151TIP3   OH2 6397   6.021   5.281   4.153
 2151TIP3    H1 6398   5.951   5.248   4.209
 2151TIP3    H2 6399   5.979   5.301   4.070
 2152TIP3   OH2 6400   4.363   6.430   1.356
 2152TIP3    H1 6401   4.446   6.456   1.394
 2152TIP3    H2 6402   4.369   6.457   1.264
 2153TIP3   OH2 6403   1.956   4.156   6.696
 2153TIP3    H1 6404   1.939   4.240   6.738
 2153TIP3    H2 6405   1.950   4.092   6.768
 2154TIP3   OH2 6406   6.264   0.143   0.165
 2154TIP3    H1 6407   6.174   0.171   0.149
 2154TIP3    H2 6408   6.268   0.054   0.129
 2155TIP3   OH2 6409   1.063   0.530   5.139
 2155TIP3    H1 6410   1.010   0.454   5.112
 2155TIP3    H2 6411   1.128   0.493   5.199
 2156TIP3   OH2 6412   1.579   5.355   6.368
 2156TIP3    H1 6413   1.640   5.414   6.413
 2156TIP3    H2 6414   1.493   5.393   6.385
 2157TIP3   OH2 6415   4.271   0.700   3.743
 2157TIP3    H1 6416   4.241   0.710   3.833
 2157TIP3    H2 6417   4.357   0.742   3.742
 2158TIP3   OH2 6418   4.243   3.892   6.424
 2158TIP3    H1 6419   4.248   3.973   6.475
 2158TIP3    H2 6420   4.273   3.824   6.485
 2159TIP3   OH2 6421   3.482   7.645   5.326
 2159TIP3    H1 6422   3.519   7.558   5.340
 2159TIP3    H2 6423   3.443   7.668   5.410
 2160TIP3   OH2 6424   6.388   7.617   6.676
 2160TIP3    H1 6425   6.431   7.583   6.598
 2160TIP3    H2 6426   6.429   7.570   6.749
 2161TIP3   OH2 6427   3.892   2.711   2.205
 2161TIP3    H1 6428   3.945   2.705   2.284
 2161TIP3    H2 6429   3.922   2.791   2.161
 2162TIP3   OH2 6430   7.024   1.809   2.722
 2162TIP3    H1 6431   6.960   1.754   2.767
 2162TIP3    H2 6432   7.059   1.866   2.789
 2163TIP3   OH2 6433   5.660   3.707   5.520
 2163TIP3    H1 6434   5.693   3.782   5.569
 2163TIP3    H2 6435   5.574   3.689   5.557
 2164TIP3   OH2 6436   2.830   1.173   3.400
 2164TIP3    H1 6437   2.802   1.254   3.358
 2164TIP3    H2 6438   2.786   1.174   3.485
 2165TIP3   OH2 6439   5.557   2.395   0.025
 2165TIP3    H1 6440   5.625   2.356  -0.030
 2165TIP3    H2 6441   5.574   2.489   0.021
 2166TIP3   OH2 6442   3.448   5.354   3.425
 2166TIP3    H1 6443   3.475   5.301   3.500
 2166TIP3    H2 6444   3.483   5.441   3.444
 2167TIP3   OH2 6445   4.234   6.672   3.561
 2167TIP3    H1 6446   4.239   6.747   3.503
 2167TIP3    H2 6447   4.188   6.605   3.510
 2168TIP3   OH2 6448   3.219   3.399   3.514
 2168TIP3    H1 6449   3.243   3.358   3.597
 2168TIP3    H2 6450   3.279   3.473   3.505
 2169TIP3   OH2 6451   3.715   6.612   4.652
 2169TIP3    H1 6452   3.699   6.519   4.636
 2169TIP3    H2 6453   3.708   6.652   4.565
 2170TIP3   OH2 6454   5.953   7.447   3.642
 2170TIP3    H1 6455   6.029   7.498   3.670
 2170TIP3    H2 6456   5.890   7.512   3.611
 2171TIP3   OH2 6457   0.016   7.081   5.948
 2171TIP3    H1 6458   0.028   7.173   5.926
 2171TIP3    H2 6459   0.104   7.048   5.964
 2172TIP3   OH2 6460   7.379   5.979   5.176
 2172TIP3    H1 6461   7.398   5.906   5.117
 2172TIP3    H2 6462   7.333   5.939   5.250
 2173TIP3   OH2 6463   2.111   5.142   0.201
 2173TIP3    H1 6464   2.046   5.096   0.148
 2173TIP3    H2 6465   2.183   5.080   0.210
 2174TIP3   OH2 6466   4.653   2.928   0.042
 2174TIP3    H1 6467   4.608   2.854   0.083
 2174TIP3    H2 6468   4.608   3.005   0.077
 2175TIP3   OH2 6469   3.981   5.262   3.357
 2175TIP3    H1 6470   4.048   5.318   3.317
 2175TIP3    H2 6471   4.000   5.265   3.451
 2176TIP3   OH2 6472   2.421   0.478   4.644
 2176TIP3    H1 6473   2.461   0.557   4.606
 2176TIP3    H2 6474   2.331   0.479   4.612
 2177TIP3   OH2 6475   2.638   5.221   4.506
 2177TIP3    H1 6476   2.685   5.269   4.574
 2177TIP3    H2 6477   2.630   5.132   4.541
 2178TIP3   OH2 6478   2.648   5.540   2.866
 2178TIP3    H1 6479   2.664   5.611   2.928
 2178TIP3    H2 6480   2.707   5.470   2.892
 2179TIP3   OH2 6481   2.758   7.301   3.502
 2179TIP3    H1 6482   2.678   7.284   3.452
 2179TIP3    H2 6483   2.785   7.215   3.534
 2180TIP3   OH2 6484   6.495   7.438   4.484
 2180TIP3    H1 6485   6.426   7.423   4.420
 2180TIP3    H2 6486   6.572   7.460   4.432
 2181TIP3   OH2 6487   1.220   3.434   4.681
 2181TIP3    H1 6488   1.173   3.351   4.679
 2181TIP3    H2 6489   1.301   3.417   4.634
 2182TIP3   OH2 6490   7.067   5.989   3.635
 2182TIP3    H1 6491   7.076   5.928   3.561
 2182TIP3    H2 6492   6.975   6.013   3.636
 2183TIP3   OH2 6493   6.690   7.218   3.865
 2183TIP3    H1 6494   6.616   7.176   3.908
 2183TIP3    H2 6495   6.673   7.207   3.771
 2184TIP3   OH2 6496   8.197   6.581   3.643
 2184TIP3    H1 6497   8.194   6.488   3.621
 2184TIP3    H2 6498   8.106   6.609   3.645
 2185TIP3   OH2 6499   2.193   5.418   6.530
 2185TIP3    H1 6500   2.227   5.478   6.463
 2185TIP3    H2 6501   2.173   5.474   6.605
 2186TIP3   OH2 6502   6.992   0.909   4.687
 2186TIP3    H1 6503   6.914   0.854   4.696
 2186TIP3    H2 6504   7.063   0.846   4.668
 2187TIP3   OH2 6505   1.850   3.124   4.209
 2187TIP3    H1 6506   1.932   3.097   4.250
 2187TIP3    H2 6507   1.844   3.071   4.129
 2188TIP3   OH2 6508   7.966   7.128   2.244
 2188TIP3    H1 6509   7.891   7.069   2.228
 2188TIP3    H2 6510   8.042   7.071   2.239
 2189TIP3   OH2 6511   3.188   6.815   3.230
 2189TIP3    H1 6512   3.093   6.802   3.237
 2189TIP3    H2 6513   3.206   6.805   3.136
 2190TIP3   OH2 6514   8.175   2.687   6.393
 2190TIP3    H1 6515   8.118   2.610   6.384
 2190TIP3    H2 6516   8.117   2.756   6.424
 2191TIP3   OH2 6517   5.622   2.188   3.524
 2191TIP3    H1 6518   5.601   2.226   3.439
 2191TIP3    H2 6519   5.548   2.132   3.545
 2192TIP3   OH2 6520   4.703   5.980   5.595
 2192TIP3    H1 6521   4.694   5.894   5.553
 2192TIP3    H2 6522   4.667   5.968   5.683
 2193TIP3   OH2 6523   5.583   5.802   5.511
 2193TIP3    H1 6524   5.637   5.839   5.442
 2193TIP3    H2 6525   5.495   5.833   5.492
 2194TIP3   OH2 6526   2.029   6.282   4.161
 2194TIP3    H1 6527   1.982   6.218   4.107
 2194TIP3    H2 6528   2.079   6.229   4.222
 2195TIP3   OH2 6529   8.073   1.681   4.928
 2195TIP3    H1 6530   7.981   1.655   4.929
 2195TIP3    H2 6531   8.101   1.664   4.838
 2196TIP3   OH2 6532   3.298   0.598   2.398
 2196TIP3    H1 6533   3.364   0.629   2.458
 2196TIP3    H2 6534   3.323   0.507   2.380
 2197TIP3   OH2 6535   3.145   4.645   3.840
 2197TIP3    H1 6536   3.052   4.642   3.865
 2197TIP3    H2 6537   3.147   4.612   3.751
 2198TIP3   OH2 6538   6.756   6.235   6.094
 2198TIP3    H1 6539   6.715   6.293   6.029
 2198TIP3    H2 6540   6.701   6.158   6.096
 2199TIP3   OH2 6541   2.163   0.377   6.238
 2199TIP3    H1 6542   2.246   0.343   6.271
 2199TIP3    H2 6543   2.139   0.446   6.301
 2200TIP3   OH2 6544   2.979   5.250   4.228
 2200TIP3    H1 6545   2.887   5.241   4.254
 2200TIP3    H2 6546   3.012   5.161   4.224
 2201TIP3   OH2 6547   4.163   7.323   1.361
 2201TIP3    H1 6548   4.103   7.273   1.416
 2201TIP3    H2 6549   4.242   7.333   1.415
 2202TIP3   OH2 6550   6.466   2.052   6.268
 2202TIP3    H1 6551   6.458   1.996   6.191
 2202TIP3    H2 6552   6.559   2.077   6.270
 2203TIP3   OH2 6553   4.507   7.084   2.007
 2203TIP3    H1 6554   4.440   7.023   1.977
 2203TIP3    H2 6555   4.558   7.034   2.071
 2204TIP3   OH2 6556   5.799   6.348   0.777
 2204TIP3    H1 6557   5.717   6.394   0.757
 2204TIP3    H2 6558   5.798   6.338   0.872
 2205TIP3   OH2 6559   5.311   7.084   1.304
 2205TIP3    H1 6560   5.331   6.991   1.291
 2205TIP3    H2 6561   5.296   7.092   1.399
 2206TIP3   OH2 6562   1.698   6.348   6.601
 2206TIP3    H1 6563   1.606   6.332   6.578
 2206TIP3    H2 6564   1.726   6.418   6.542
 2207TIP3   OH2 6565   2.987   6.285   6.563
 2207TIP3    H1 6566   2.938   6.228   6.503
 2207TIP3    H2 6567   3.031   6.348   6.506
 2208TIP3   OH2 6568   2.984   3.051   1.146
 2208TIP3    H1 6569   2.979   3.144   1.169
 2208TIP3    H2 6570   2.995   3.006   1.230
 2209TIP3   OH2 6571   8.187   5.979   2.301
 2209TIP3    H1 6572   8.178   5.987   2.206
 2209TIP3    H2 6573   8.275   6.013   2.320
 2210TIP3   OH2 6574   4.198   1.523   2.027
 2210TIP3    H1 6575   4.110   1.562   2.022
 2210TIP3    H2 6576   4.187   1.446   2.082
 2211TIP3   OH2 6577   7.665   6.888   3.485
 2211TIP3    H1 6578   7.667   6.945   3.408
 2211TIP3    H2 6579   7.667   6.799   3.449
 2212TIP3   OH2 6580   7.262   7.553   3.279
 2212TIP3    H1 6581   7.336   7.612   3.291
 2212TIP3    H2 6582   7.237   7.564   3.187
 2213TIP3   OH2 6583   2.153   4.067   3.155
 2213TIP3    H1 6584   2.179   3.997   3.216
 2213TIP3    H2 6585   2.233   4.117   3.141
 2214TIP3   OH2 6586   0.386   6.597   2.881
 2214TIP3    H1 6587   0.476   6.599   2.914
 2214TIP3    H2 6588   0.337   6.649   2.945
 2215TIP3   OH2 6589   2.616   6.414   2.703
 2215TIP3    H1 6590   2.578   6.501   2.694
 2215TIP3    H2 6591   2.705   6.429   2.734
 2216TIP3   OH2 6592   5.405   3.267   3.960
 2216TIP3    H1 6593   5.354   3.333   3.912
 2216TIP3    H2 6594   5.363   3.184   3.939
 2217TIP3   OH2 6595   3.512   7.556   3.499
 2217TIP3    H1 6596   3.494   7.462   3.494
 2217TIP3    H2 6597   3.455   7.595   3.433
 2218TIP3   OH2 6598   4.412   7.273   4.846
 2218TIP3    H1 6599   4.342   7.210   4.863
 2218TIP3    H2 6600   4.376   7.358   4.873
 2219TIP3   OH2 6601   3.572   6.797   1.340
 2219TIP3    H1 6602   3.549   6.764   1.253
 2219TIP3    H2 6603   3.617   6.723   1.382
 2220TIP3   OH2 6604   5.798   6.295   4.133
 2220TIP3    H1 6605   5.745   6.218   4.152
 2220TIP3    H2 6606   5.819   6.287   4.040
 2221TIP3   OH2 6607   7.877   6.961   1.851
 2221TIP3    H1 6608   7.935   6.910   1.795
 2221TIP3    H2 6609   7.870   7.046   1.807
 2222TIP3   OH2 6610   8.163   0.993   6.371
 2222TIP3    H1 6611   8.176   0.963   6.461
 2222TIP3    H2 6612   8.114   0.922   6.330
 2223TIP3   OH2 6613   1.735   5.076   0.246
 2223TIP3    H1 6614   1.786   5.148   0.283
 2223TIP3    H2 6615   1.731   5.095   0.152
 2224TIP3   OH2 6616   2.538   5.079   0.051
 2224TIP3    H1 6617   2.520   5.116   0.138
 2224TIP3    H2 6618   2.590   5.146   0.007
 2225TIP3   OH2 6619   1.880   4.901   5.851
 2225TIP3    H1 6620   1.873   4.955   5.772
 2225TIP3    H2 6621   1.939   4.830   5.826
 2226TIP3   OH2 6622   4.648   6.619   3.375
 2226TIP3    H1 6623   4.647   6.691   3.438
 2226TIP3    H2 6624   4.583   6.556   3.408
 2227TIP3   OH2 6625   6.544   6.248   2.457
 2227TIP3    H1 6626   6.567   6.163   2.494
 2227TIP3    H2 6627   6.465   6.231   2.406
 2228TIP3   OH2 6628   2.357   5.767   0.919
 2228TIP3    H1 6629   2.382   5.770   1.012
 2228TIP3    H2 6630   2.261   5.768   0.921
 2229TIP3   OH2 6631   3.178   1.615   5.826
 2229TIP3    H1 6632   3.264   1.657   5.818
 2229TIP3    H2 6633   3.168   1.565   5.745
 2230TIP3   OH2 6634   6.011   1.049   1.309
 2230TIP3    H1 6635   5.974   1.092   1.387
 2230TIP3    H2 6636   6.105   1.067   1.314
 2231TIP3   OH2 6637   0.970   4.214   4.947
 2231TIP3    H1 6638   1.007   4.191   5.033
 2231TIP3    H2 6639   0.907   4.283   4.965
 2232TIP3   OH2 6640   7.616   5.976   5.575
 2232TIP3    H1 6641   7.626   6.029   5.654
 2232TIP3    H2 6642   7.589   6.038   5.507
 2233TIP3   OH2 6643   3.823   5.016   1.046
 2233TIP3    H1 6644   3.823   5.089   0.985
 2233TIP3    H2 6645   3.766   5.044   1.118
 2234TIP3   OH2 6646   7.360   2.724   1.817
 2234TIP3    H1 6647   7.392   2.729   1.907
 2234TIP3    H2 6648   7.411   2.653   1.778
 2235TIP3   OH2 6649   2.718   4.258   3.889
 2235TIP3    H1 6650   2.683   4.341   3.856
 2235TIP3    H2 6651   2.664   4.238   3.965
 2236TIP3   OH2 6652   7.353   2.289   5.138
 2236TIP3    H1 6653   7.398   2.373   5.131
 2236TIP3    H2 6654   7.400   2.231   5.077
 2237TIP3   OH2 6655   6.630   7.225   2.226
 2237TIP3    H1 6656   6.647   7.189   2.139
 2237TIP3    H2 6657   6.536   7.213   2.239
 2238TIP3   OH2 6658   2.395   1.546   4.855
 2238TIP3    H1 6659   2.471   1.602   4.842
 2238TIP3    H2 6660   2.404   1.477   4.789
 2239TIP3   OH2 6661   1.938   1.613   4.663
 2239TIP3    H1 6662   1.857   1.574   4.631
 2239TIP3    H2 6663   2.006   1.547   4.647
 2240TIP3   OH2 6664   1.169   1.712   3.150
 2240TIP3    H1 6665   1.080   1.683   3.169
 2240TIP3    H2 6666   1.180   1.695   3.056
 2241TIP3   OH2 6667   5.885   5.285   0.667
 2241TIP3    H1 6668   5.955   5.329   0.715
 2241TIP3    H2 6669   5.827   5.252   0.735
 2242TIP3   OH2 6670   0.970   3.376   3.504
 2242TIP3    H1 6671   0.962   3.282   3.488
 2242TIP3    H2 6672   0.904   3.395   3.571
 2243TIP3   OH2 6673   6.016   2.166   1.647
 2243TIP3    H1 6674   6.086   2.223   1.678
 2243TIP3    H2 6675   6.030   2.161   1.552
 2244TIP3   OH2 6676   5.019   0.202   2.953
 2244TIP3    H1 6677   4.926   0.215   2.975
 2244TIP3    H2 6678   5.018   0.136   2.884
 2245TIP3   OH2 6679   6.717   1.843   3.985
 2245TIP3    H1 6680   6.657   1.827   4.058
 2245TIP3    H2 6681   6.801   1.861   4.027
 2246TIP3   OH2 6682   1.427   6.064   4.419
 2246TIP3    H1 6683   1.426   6.047   4.513
 2246TIP3    H2 6684   1.511   6.031   4.389
 2247TIP3   OH2 6685   1.538   5.669   2.624
 2247TIP3    H1 6686   1.552   5.752   2.669
 2247TIP3    H2 6687   1.460   5.684   2.570
 2248TIP3   OH2 6688   6.245   2.214   2.972
 2248TIP3    H1 6689   6.338   2.214   2.949
 2248TIP3    H2 6690   6.241   2.258   3.057
 2249TIP3   OH2 6691   3.417   5.182   4.838
 2249TIP3    H1 6692   3.445   5.223   4.756
 2249TIP3    H2 6693   3.339   5.231   4.863
 2250TIP3   OH2 6694   3.894   3.136   0.603
 2250TIP3    H1 6695   3.962   3.073   0.625
 2250TIP3    H2 6696   3.869   3.115   0.513
 2251TIP3   OH2 6697   1.802   1.324   0.150
 2251TIP3    H1 6698   1.857   1.403   0.155
 2251TIP3    H2 6699   1.848   1.268   0.087
 2252TIP3   OH2 6700   3.673   0.337   5.990
 2252TIP3    H1 6701   3.714   0.307   5.909
 2252TIP3    H2 6702   3.648   0.427   5.972
 2253TIP3   OH2 6703   7.902   7.379   1.380
 2253TIP3    H1 6704   7.829   7.374   1.443
 2253TIP3    H2 6705   7.978   7.348   1.428
 2254TIP3   OH2 6706   1.920   1.524   2.413
 2254TIP3    H1 6707   1.928   1.556   2.503
 2254TIP3    H2 6708   1.961   1.438   2.414
 2255TIP3   OH2 6709   2.512   7.107   6.575
 2255TIP3    H1 6710   2.465   7.151   6.504
 2255TIP3    H2 6711   2.470   7.021   6.582
 2256TIP3   OH2 6712   5.328   4.297   4.138
 2256TIP3    H1 6713   5.339   4.343   4.054
 2256TIP3    H2 6714   5.240   4.321   4.166
 2257TIP3   OH2 6715   7.461   0.679   1.279
 2257TIP3    H1 6716   7.520   0.752   1.261
 2257TIP3    H2 6717   7.459   0.628   1.198
 2258TIP3   OH2 6718   3.636   0.531   4.429
 2258TIP3    H1 6719   3.651   0.442   4.395
 2258TIP3    H2 6720   3.624   0.518   4.523
 2259TIP3   OH2 6721   1.884   1.213   2.964
 2259TIP3    H1 6722   1.944   1.287   2.973
 2259TIP3    H2 6723   1.845   1.203   3.051
 2260TIP3   OH2 6724   4.303   6.580   0.330
 2260TIP3    H1 6725   4.267   6.525   0.399
 2260TIP3    H2 6726   4.317   6.665   0.372
 2261TIP3   OH2 6727   0.946   2.971   5.411
 2261TIP3    H1 6728   0.936   2.879   5.384
 2261TIP3    H2 6729   1.025   3.000   5.364
 2262TIP3   OH2 6730   6.751   4.476   0.524
 2262TIP3    H1 6731   6.765   4.544   0.590
 2262TIP3    H2 6732   6.662   4.492   0.492
 2263TIP3   OH2 6733   0.817   6.075   4.243
 2263TIP3    H1 6734   0.795   6.043   4.155
 2263TIP3    H2 6735   0.888   6.017   4.272
 2264TIP3   OH2 6736   3.943   3.968   2.462
 2264TIP3    H1 6737   3.848   3.976   2.455
 2264TIP3    H2 6738   3.966   3.904   2.395
 2265TIP3   OH2 6739   0.434   5.139   4.304
 2265TIP3    H1 6740   0.448   5.115   4.212
 2265TIP3    H2 6741   0.368   5.077   4.335
 2266TIP3   OH2 6742   5.615   6.420   0.184
 2266TIP3    H1 6743   5.629   6.507   0.148
 2266TIP3    H2 6744   5.684   6.409   0.249
 2267TIP3   OH2 6745   2.828   7.179   3.822
 2267TIP3    H1 6746   2.732   7.179   3.820
 2267TIP3    H2 6747   2.853   7.142   3.737
 2268TIP3   OH2 6748   4.492   1.991   2.223
 2268TIP3    H1 6749   4.574   2.014   2.180
 2268TIP3    H2 6750   4.451   1.927   2.165
 2269TIP3   OH2 6751   7.145   3.398   0.940
 2269TIP3    H1 6752   7.116   3.322   0.888
 2269TIP3    H2 6753   7.173   3.462   0.875
 2270TIP3   OH2 6754   0.807   7.426   3.354
 2270TIP3    H1 6755   0.730   7.439   3.409
 2270TIP3    H2 6756   0.864   7.369   3.405
 2271TIP3   OH2 6757   6.564   3.493   5.138
 2271TIP3    H1 6758   6.564   3.560   5.069
 2271TIP3    H2 6759   6.502   3.427   5.106
 2272TIP3   OH2 6760   0.570   4.858   2.021
 2272TIP3    H1 6761   0.584   4.774   1.979
 2272TIP3    H2 6762   0.476   4.859   2.042
 2273TIP3   OH2 6763   1.186   6.865   3.008
 2273TIP3    H1 6764   1.207   6.780   2.968
 2273TIP3    H2 6765   1.249   6.926   2.969
 2274TIP3   OH2 6766   0.022   4.964   0.488
 2274TIP3    H1 6767   0.059   5.051   0.473
 2274TIP3    H2 6768   0.094   4.904   0.468
 2275TIP3   OH2 6769   6.907   3.983   0.335
 2275TIP3    H1 6770   6.842   4.017   0.396
 2275TIP3    H2 6771   6.898   3.888   0.340
 2276TIP3   OH2 6772   0.211   6.636   6.054
 2276TIP3    H1 6773   0.137   6.652   6.112
 2276TIP3    H2 6774   0.205   6.543   6.034
 2277TIP3   OH2 6775   1.413   6.981   2.881
 2277TIP3    H1 6776   1.456   7.013   2.961
 2277TIP3    H2 6777   1.464   7.019   2.810
 2278TIP3   OH2 6778   5.444   5.452   4.574
 2278TIP3    H1 6779   5.414   5.393   4.643
 2278TIP3    H2 6780   5.366   5.469   4.521
 2279TIP3   OH2 6781   5.067   5.137   1.515
 2279TIP3    H1 6782   4.988   5.099   1.477
 2279TIP3    H2 6783   5.119   5.063   1.544
 2280TIP3   OH2 6784   0.308   5.504   6.117
 2280TIP3    H1 6785   0.265   5.512   6.202
 2280TIP3    H2 6786   0.261   5.564   6.060
 2281TIP3   OH2 6787   5.290   7.074   0.602
 2281TIP3    H1 6788   5.207   7.114   0.576
 2281TIP3    H2 6789   5.356   7.141   0.582
 2282TIP3   OH2 6790   4.569   6.034   3.501
 2282TIP3    H1 6791   4.599   5.969   3.437
 2282TIP3    H2 6792   4.646   6.088   3.517
 2283TIP3   OH2 6793   2.756   3.382   6.228
 2283TIP3    H1 6794   2.819   3.310   6.222
 2283TIP3    H2 6795   2.808   3.457   6.258
 2284TIP3   OH2 6796   1.134   0.166   1.203
 2284TIP3    H1 6797   1.166   0.077   1.211
 2284TIP3    H2 6798   1.054   0.168   1.255
 2285TIP3   OH2 6799   2.466   6.834   2.277
 2285TIP3    H1 6800   2.554   6.822   2.312
 2285TIP3    H2 6801   2.438   6.746   2.252
 2286TIP3   OH2 6802   6.606   0.338   4.551
 2286TIP3    H1 6803   6.552   0.280   4.497
 2286TIP3    H2 6804   6.586   0.426   4.521
 2287TIP3   OH2 6805   7.094   1.214   1.800
 2287TIP3    H1 6806   7.042   1.268   1.740
 2287TIP3    H2 6807   7.151   1.163   1.742
 2288TIP3   OH2 6808   5.506   2.813   5.357
 2288TIP3    H1 6809   5.522   2.842   5.447
 2288TIP3    H2 6810   5.593   2.793   5.322
 2289TIP3   OH2 6811   3.550   7.156   4.838
 2289TIP3    H1 6812   3.612   7.165   4.910
 2289TIP3    H2 6813   3.603   7.164   4.759
 2290TIP3   OH2 6814   5.615   2.207   3.193
 2290TIP3    H1 6815   5.644   2.122   3.226
 2290TIP3    H2 6816   5.694   2.261   3.195
 2291TIP3   OH2 6817   7.958   6.571   1.960
 2291TIP3    H1 6818   7.898   6.515   1.910
 2291TIP3    H2 6819   7.908   6.651   1.977
 2292TIP3   OH2 6820   5.711   3.116   5.258
 2292TIP3    H1 6821   5.728   3.185   5.193
 2292TIP3    H2 6822   5.618   3.097   5.248
 2293TIP3   OH2 6823   1.043   3.184   3.084
 2293TIP3    H1 6824   1.129   3.200   3.044
 2293TIP3    H2 6825   1.013   3.271   3.111
 2294TIP3   OH2 6826   5.780   1.465   2.224
 2294TIP3    H1 6827   5.836   1.390   2.245
 2294TIP3    H2 6828   5.839   1.529   2.185
 2295TIP3   OH2 6829   5.604   3.540   0.360
 2295TIP3    H1 6830   5.561   3.487   0.428
 2295TIP3    H2 6831   5.657   3.477   0.311
 2296TIP3   OH2 6832   1.941   2.530   2.971
 2296TIP3    H1 6833   1.893   2.454   3.002
 2296TIP3    H2 6834   1.977   2.570   3.050
 2297TIP3   OH2 6835   2.694   2.409   4.867
 2297TIP3    H1 6836   2.666   2.468   4.938
 2297TIP3    H2 6837   2.751   2.462   4.813
 2298TIP3   OH2 6838   7.480   7.234   0.513
 2298TIP3    H1 6839   7.489   7.324   0.481
 2298TIP3    H2 6840   7.445   7.185   0.439
 2299TIP3   OH2 6841   4.125   4.235   1.954
 2299TIP3    H1 6842   4.103   4.154   1.908
 2299TIP3    H2 6843   4.060   4.298   1.922
 2300TIP3   OH2 6844   6.435   6.878   1.061
 2300TIP3    H1 6845   6.468   6.947   1.002
 2300TIP3    H2 6846   6.383   6.821   1.004
 2301TIP3   OH2 6847   0.271   1.732   6.412
 2301TIP3    H1 6848   0.325   1.740   6.491
 2301TIP3    H2 6849   0.241   1.821   6.394
 2302TIP3   OH2 6850   3.747   7.469   5.509
 2302TIP3    H1 6851   3.654   7.454   5.492
 2302TIP3    H2 6852   3.754   7.564   5.519
 2303TIP3   OH2 6853   0.946   1.368   3.119
 2303TIP3    H1 6854   0.944   1.448   3.171
 2303TIP3    H2 6855   0.904   1.392   3.036
 2304TIP3   OH2 6856   2.563   0.365   4.370
 2304TIP3    H1 6857   2.592   0.407   4.450
 2304TIP3    H2 6858   2.644   0.338   4.326
 2305TIP3   OH2 6859   3.342   6.879   5.978
 2305TIP3    H1 6860   3.411   6.813   5.988
 2305TIP3    H2 6861   3.270   6.833   5.935
 2306TIP3   OH2 6862   8.168   4.435   6.280
 2306TIP3    H1 6863   8.253   4.439   6.324
 2306TIP3    H2 6864   8.134   4.524   6.286
 2307TIP3   OH2 6865   1.984   3.861   0.397
 2307TIP3    H1 6866   1.920   3.830   0.333
 2307TIP3    H2 6867   2.068   3.857   0.351
 2308TIP3   OH2 6868   4.744   7.567   1.323
 2308TIP3    H1 6869   4.748   7.475   1.351
 2308TIP3    H2 6870   4.751   7.563   1.228
 2309TIP3   OH2 6871   4.203   3.532   3.151
 2309TIP3    H1 6872   4.147   3.469   3.195
 2309TIP3    H2 6873   4.270   3.554   3.216
 2310TIP3   OH2 6874   8.279   5.064   4.299
 2310TIP3    H1 6875   8.253   4.986   4.348
 2310TIP3    H2 6876   8.359   5.039   4.254
 2311TIP3   OH2 6877   0.022   6.186   3.797
 2311TIP3    H1 6878   0.043   6.123   3.727
 2311TIP3    H2 6879   0.054   6.144   3.877
 2312TIP3   OH2 6880   3.987   3.838   2.762
 2312TIP3    H1 6881   3.897   3.871   2.754
 2312TIP3    H2 6882   4.012   3.860   2.852
 2313TIP3   OH2 6883   7.231   0.407   1.857
 2313TIP3    H1 6884   7.293   0.428   1.787
 2313TIP3    H2 6885   7.170   0.344   1.818
 2314TIP3   OH2 6886   5.203   3.502   3.910
 2314TIP3    H1 6887   5.157   3.492   3.993
 2314TIP3    H2 6888   5.140   3.544   3.852
 2315TIP3   OH2 6889   5.238   6.893   1.020
 2315TIP3    H1 6890   5.276   6.980   1.004
 2315TIP3    H2 6891   5.189   6.873   0.941
 2316TIP3   OH2 6892   3.952   0.734   2.173
 2316TIP3    H1 6893   3.908   0.818   2.187
 2316TIP3    H2 6894   3.883   0.669   2.180
 2317TIP3   OH2 6895   0.470   1.458   0.007
 2317TIP3    H1 6896   0.394   1.452   0.064
 2317TIP3    H2 6897   0.506   1.545   0.024
 2318TIP3   OH2 6898   5.546  -0.022   0.519
 2318TIP3    H1 6899   5.595   0.021   0.449
 2318TIP3    H2 6900   5.497   0.048   0.560
 2319TIP3   OH2 6901   2.858   5.675   0.897
 2319TIP3    H1 6902   2.902   5.745   0.946
 2319TIP3    H2 6903   2.930   5.628   0.855
 2320TIP3   OH2 6904   1.994   5.954   4.502
 2320TIP3    H1 6905   2.033   5.880   4.548
 2320TIP3    H2 6906   2.021   5.941   4.411
 2321TIP3   OH2 6907   2.496   3.238   6.416
 2321TIP3    H1 6908   2.508   3.274   6.503
 2321TIP3    H2 6909   2.564   3.279   6.363
 2322TIP3   OH2 6910   6.573   0.980   5.699
 2322TIP3    H1 6911   6.520   1.018   5.629
 2322TIP3    H2 6912   6.605   1.055   5.749
 2323TIP3   OH2 6913   5.883   1.885   6.476
 2323TIP3    H1 6914   5.838   1.962   6.511
 2323TIP3    H2 6915   5.975   1.897   6.500
 2324TIP3   OH2 6916   3.270   2.217   0.981
 2324TIP3    H1 6917   3.326   2.295   0.985
 2324TIP3    H2 6918   3.324   2.152   0.937
 2325TIP3   OH2 6919   8.068   7.142   1.034
 2325TIP3    H1 6920   8.001   7.090   1.078
 2325TIP3    H2 6921   8.120   7.078   0.985
 2326TIP3   OH2 6922   0.353   3.309   3.855
 2326TIP3    H1 6923   0.271   3.272   3.823
 2326TIP3    H2 6924   0.387   3.360   3.781
 2327TIP3   OH2 6925   6.758   3.840   5.335
 2327TIP3    H1 6926   6.700   3.907   5.372
 2327TIP3    H2 6927   6.841   3.852   5.382
 2328TIP3   OH2 6928   2.587   2.849   6.698
 2328TIP3    H1 6929   2.492   2.856   6.709
 2328TIP3    H2 6930   2.608   2.913   6.631
 2329TIP3   OH2 6931   0.748   6.818   4.510
 2329TIP3    H1 6932   0.688   6.753   4.476
 2329TIP3    H2 6933   0.784   6.862   4.433
 2330TIP3   OH2 6934   6.805   1.340   0.769
 2330TIP3    H1 6935   6.733   1.281   0.748
 2330TIP3    H2 6936   6.767   1.405   0.828
 2331TIP3   OH2 6937   1.683   4.587   0.505
 2331TIP3    H1 6938   1.734   4.558   0.581
 2331TIP3    H2 6939   1.734   4.558   0.430
 2332TIP3   OH2 6940   1.543   7.541   1.241
 2332TIP3    H1 6941   1.550   7.462   1.188
 2332TIP3    H2 6942   1.470   7.524   1.299
 2333TIP3   OH2 6943   5.268   6.429   2.882
 2333TIP3    H1 6944   5.244   6.366   2.951
 2333TIP3    H2 6945   5.322   6.494   2.927
 2334TIP3   OH2 6946   0.500   1.314   2.544
 2334TIP3    H1 6947   0.459   1.270   2.618
 2334TIP3    H2 6948   0.566   1.252   2.513
 2335TIP3   OH2 6949   1.808   5.063   4.767
 2335TIP3    H1 6950   1.902   5.080   4.782
 2335TIP3    H2 6951   1.806   4.992   4.703
 2336TIP3   OH2 6952   2.575   0.826   0.991
 2336TIP3    H1 6953   2.599   0.832   0.899
 2336TIP3    H2 6954   2.626   0.752   1.025
 2337TIP3   OH2 6955   0.774   5.919   6.099
 2337TIP3    H1 6956   0.689   5.882   6.075
 2337TIP3    H2 6957   0.814   5.944   6.016
 2338TIP3   OH2 6958   7.280   0.770   4.968
 2338TIP3    H1 6959   7.289   0.685   5.011
 2338TIP3    H2 6960   7.312   0.833   5.032
 2339TIP3   OH2 6961   2.638   1.082   2.224
 2339TIP3    H1 6962   2.570   1.146   2.206
 2339TIP3    H2 6963   2.690   1.121   2.294
 2340TIP3   OH2 6964   4.618   5.120   0.974
 2340TIP3    H1 6965   4.686   5.068   1.017
 2340TIP3    H2 6966   4.557   5.142   1.044
 2341TIP3   OH2 6967   4.051   3.622   4.541
 2341TIP3    H1 6968   4.036   3.690   4.475
 2341TIP3    H2 6969   3.963   3.598   4.570
 2342TIP3   OH2 6970   0.822   0.058   6.655
 2342TIP3    H1 6971   0.853  -0.032   6.648
 2342TIP3    H2 6972   0.741   0.060   6.605
 2343TIP3   OH2 6973   3.706   0.072   5.859
 2343TIP3    H1 6974   3.634   0.031   5.811
 2343TIP3    H2 6975   3.785   0.036   5.819
 2344TIP3   OH2 6976   0.607   3.124   4.275
 2344TIP3    H1 6977   0.590   3.089   4.363
 2344TIP3    H2 6978   0.531   3.097   4.223
 2345TIP3   OH2 6979   0.100   5.519   4.718
 2345TIP3    H1 6980   0.085   5.474   4.801
 2345TIP3    H2 6981   0.195   5.534   4.715
 2346TIP3   OH2 6982   6.960   2.299   4.371
 2346TIP3    H1 6983   6.901   2.374   4.381
 2346TIP3    H2 6984   6.916   2.243   4.306
 2347TIP3   OH2 6985   0.635   2.783   6.589
 2347TIP3    H1 6986   0.571   2.804   6.521
 2347TIP3    H2 6987   0.687   2.864   6.598
 2348TIP3   OH2 6988   4.637   3.903   4.470
 2348TIP3    H1 6989   4.724   3.868   4.491
 2348TIP3    H2 6990   4.606   3.850   4.397
 2349TIP3   OH2 6991   6.333   3.279   3.408
 2349TIP3    H1 6992   6.247   3.287   3.365
 2349TIP3    H2 6993   6.370   3.199   3.371
 2350TIP3   OH2 6994   3.691   6.806   1.768
 2350TIP3    H1 6995   3.711   6.831   1.859
 2350TIP3    H2 6996   3.776   6.808   1.724
 2351TIP3   OH2 6997   3.771   6.078   6.208
 2351TIP3    H1 6998   3.813   6.025   6.276
 2351TIP3    H2 6999   3.796   6.036   6.126
 2352TIP3   OH2 7000   0.574   4.815   5.337
 2352TIP3    H1 7001   0.629   4.881   5.377
 2352TIP3    H2 7002   0.521   4.863   5.274
 2353TIP3   OH2 7003   5.602   5.596   0.716
 2353TIP3    H1 7004   5.544   5.521   0.722
 2353TIP3    H2 7005   5.582   5.649   0.793
 2354TIP3   OH2 7006   0.626   1.587   3.910
 2354TIP3    H1 7007   0.538   1.592   3.947
 2354TIP3    H2 7008   0.612   1.587   3.815
 2355TIP3   OH2 7009   5.845   2.701   5.518
 2355TIP3    H1 7010   5.794   2.747   5.585
 2355TIP3    H2 7011   5.828   2.749   5.437
 2356TIP3   OH2 7012   1.889   7.692   6.672
 2356TIP3    H1 7013   1.852   7.740   6.746
 2356TIP3    H2 7014   1.869   7.600   6.691
 2357TIP3   OH2 7015   5.445   0.798   1.714
 2357TIP3    H1 7016   5.539   0.779   1.720
 2357TIP3    H2 7017   5.441   0.885   1.675
 2358TIP3   OH2 7018   2.010   6.497   3.959
 2358TIP3    H1 7019   1.957   6.437   3.907
 2358TIP3    H2 7020   2.046   6.444   4.029
 2359TIP3   OH2 7021   1.527   5.375   5.268
 2359TIP3    H1 7022   1.499   5.356   5.178
 2359TIP3    H2 7023   1.475   5.451   5.293
 2360TIP3   OH2 7024   1.582   5.702   0.186
 2360TIP3    H1 7025   1.546   5.791   0.188
 2360TIP3    H2 7026   1.508   5.646   0.163
 2361TIP3   OH2 7027   2.524   1.969   3.178
 2361TIP3    H1 7028   2.502   2.041   3.238
 2361TIP3    H2 7029   2.448   1.910   3.183
 2362TIP3   OH2 7030   7.305   5.897   1.743
 2362TIP3    H1 7031   7.400   5.898   1.743
 2362TIP3    H2 7032   7.280   5.975   1.693
 2363TIP3   OH2 7033   5.615   1.315   6.643
 2363TIP3    H1 7034   5.666   1.376   6.590
 2363TIP3    H2 7035   5.609   1.236   6.590
 2364TIP3   OH2 7036   4.353   6.551   1.072
 2364TIP3    H1 7037   4.357   6.607   0.995
 2364TIP3    H2 7038   4.276   6.497   1.059
 2365TIP3   OH2 7039   7.205   0.757   2.123
 2365TIP3    H1 7040   7.193   0.662   2.118
 2365TIP3    H2 7041   7.121   0.790   2.157
 2366TIP3   OH2 7042   4.893   4.375   0.601
 2366TIP3    H1 7043   4.888   4.383   0.506
 2366TIP3    H2 7044   4.977   4.331   0.617
 2367TIP3   OH2 7045   1.526   6.623   5.708
 2367TIP3    H1 7046   1.461   6.680   5.749
 2367TIP3    H2 7047   1.505   6.626   5.615
 2368TIP3   OH2 7048   0.932   5.082   2.313
 2368TIP3    H1 7049   0.876   5.158   2.327
 2368TIP3    H2 7050   0.962   5.057   2.400
 2369TIP3   OH2 7051   4.219   0.390   3.972
 2369TIP3    H1 7052   4.165   0.426   4.042
 2369TIP3    H2 7053   4.306   0.429   3.986
 2370TIP3   OH2 7054   6.359   3.656   1.350
 2370TIP3    H1 7055   6.328   3.699   1.429
 2370TIP3    H2 7056   6.327   3.710   1.278
 2371TIP3   OH2 7057   6.986   1.672   1.558
 2371TIP3    H1 7058   6.989   1.756   1.514
 2371TIP3    H2 7059   6.895   1.643   1.549
 2372TIP3   OH2 7060   1.025   5.139   6.422
 2372TIP3    H1 7061   0.971   5.140   6.343
 2372TIP3    H2 7062   1.010   5.052   6.461
 2373TIP3   OH2 7063   7.471   3.677   2.063
 2373TIP3    H1 7064   7.525   3.598   2.061
 2373TIP3    H2 7065   7.405   3.660   2.131
 2374TIP3   OH2 7066   1.013   2.304   5.852
 2374TIP3    H1 7067   1.017   2.396   5.881
 2374TIP3    H2 7068   1.067   2.257   5.915
 2375TIP3   OH2 7069   4.697   1.572   5.050
 2375TIP3    H1 7070   4.672   1.661   5.076
 2375TIP3    H2 7071   4.689   1.572   4.955
 2376TIP3   OH2 7072   4.165   3.448   2.544
 2376TIP3    H1 7073   4.238   3.447   2.481
 2376TIP3    H2 7074   4.199   3.499   2.618
 2377TIP3   OH2 7075   1.363   0.471   3.009
 2377TIP3    H1 7076   1.350   0.561   3.039
 2377TIP3    H2 7077   1.451   0.472   2.970
 2378TIP3   OH2 7078   2.260   6.219   3.932
 2378TIP3    H1 7079   2.275   6.157   4.003
 2378TIP3    H2 7080   2.174   6.197   3.896
 2379TIP3   OH2 7081   4.716   3.326   6.005
 2379TIP3    H1 7082   4.678   3.302   5.921
 2379TIP3    H2 7083   4.800   3.367   5.982
 2380TIP3   OH2 7084   4.552   1.185   4.525
 2380TIP3    H1 7085   4.592   1.218   4.606
 2380TIP3    H2 7086   4.598   1.103   4.507
 2381TIP3   OH2 7087   8.140   4.765   3.205
 2381TIP3    H1 7088   8.045   4.748   3.203
 2381TIP3    H2 7089   8.157   4.814   3.124
 2382TIP3   OH2 7090   6.460   4.126   0.487
 2382TIP3    H1 7091   6.555   4.136   0.474
 2382TIP3    H2 7092   6.436   4.196   0.547
 2383TIP3   OH2 7093   4.971   3.716   6.654
 2383TIP3    H1 7094   4.891   3.668   6.676
 2383TIP3    H2 7095   4.979   3.782   6.723
 2384TIP3   OH2 7096   4.005   5.589   1.597
 2384TIP3    H1 7097   3.981   5.676   1.564
 2384TIP3    H2 7098   4.072   5.606   1.663
 2385TIP3   OH2 7099   6.543   2.686   6.111
 2385TIP3    H1 7100   6.572   2.765   6.065
 2385TIP3    H2 7101   6.490   2.639   6.047
 2386TIP3   OH2 7102   4.780   5.081   1.194
 2386TIP3    H1 7103   4.759   5.164   1.151
 2386TIP3    H2 7104   4.711   5.070   1.260
 2387TIP3   OH2 7105   4.780   0.561   3.133
 2387TIP3    H1 7106   4.863   0.607   3.149
 2387TIP3    H2 7107   4.784   0.485   3.192
 2388TIP3   OH2 7108   3.998   0.222   4.914
 2388TIP3    H1 7109   4.084   0.245   4.950
 2388TIP3    H2 7110   3.954   0.306   4.900
 2389TIP3   OH2 7111   6.607   5.456   5.691
 2389TIP3    H1 7112   6.668   5.437   5.762
 2389TIP3    H2 7113   6.652   5.427   5.612
 2390TIP3   OH2 7114   3.235   1.105   5.804
 2390TIP3    H1 7115   3.287   1.154   5.741
 2390TIP3    H2 7116   3.191   1.173   5.856
 2391TIP3   OH2 7117   5.757   7.329   2.197
 2391TIP3    H1 7118   5.679   7.294   2.154
 2391TIP3    H2 7119   5.808   7.368   2.126
 2392TIP3   OH2 7120   6.926   2.781   4.333
 2392TIP3    H1 7121   6.951   2.719   4.265
 2392TIP3    H2 7122   6.987   2.763   4.405
 2393TIP3   OH2 7123   7.864   4.797   5.077
 2393TIP3    H1 7124   7.787   4.786   5.133
 2393TIP3    H2 7125   7.920   4.859   5.125
 2394TIP3   OH2 7126   3.239   4.052   4.673
 2394TIP3    H1 7127   3.331   4.076   4.674
 2394TIP3    H2 7128   3.236   3.962   4.706
 2395TIP3   OH2 7129   5.925   4.555   1.560
 2395TIP3    H1 7130   5.914   4.505   1.479
 2395TIP3    H2 7131   5.914   4.646   1.534
 2396TIP3   OH2 7132   1.403   6.512   3.103
 2396TIP3    H1 7133   1.484   6.564   3.106
 2396TIP3    H2 7134   1.425   6.439   3.045
 2397TIP3   OH2 7135   5.337   2.731   5.154
 2397TIP3    H1 7136   5.355   2.784   5.232
 2397TIP3    H2 7137   5.369   2.785   5.081
 2398TIP3   OH2 7138   7.868   2.173   4.278
 2398TIP3    H1 7139   7.894   2.084   4.304
 2398TIP3    H2 7140   7.919   2.230   4.334
 2399TIP3   OH2 7141   6.443   0.747   3.672
 2399TIP3    H1 7142   6.349   0.736   3.663
 2399TIP3    H2 7143   6.461   0.834   3.636
 2400TIP3   OH2 7144   6.978   6.869   4.542
 2400TIP3    H1 7145   6.906   6.925   4.513
 2400TIP3    H2 7146   6.935   6.803   4.598
 2401TIP3   OH2 7147   4.792   0.858   3.338
 2401TIP3    H1 7148   4.787   0.901   3.423
 2401TIP3    H2 7149   4.730   0.905   3.283
 2402TIP3   OH2 7150   6.218   6.855   1.685
 2402TIP3    H1 7151   6.192   6.845   1.593
 2402TIP3    H2 7152   6.280   6.783   1.700
 2403TIP3   OH2 7153   3.182   6.807   0.062
 2403TIP3    H1 7154   3.213   6.771  -0.021
 2403TIP3    H2 7155   3.087   6.814   0.051
 2404TIP3   OH2 7156   6.530   4.938   5.639
 2404TIP3    H1 7157   6.443   4.970   5.613
 2404TIP3    H2 7158   6.523   4.843   5.633
 2405TIP3   OH2 7159   4.656   1.578   2.902
 2405TIP3    H1 7160   4.657   1.604   2.810
 2405TIP3    H2 7161   4.617   1.653   2.948
 2406TIP3   OH2 7162   2.162   3.661   5.807
 2406TIP3    H1 7163   2.213   3.592   5.850
 2406TIP3    H2 7164   2.075   3.623   5.797
 2407TIP3   OH2 7165   7.491   1.923   1.825
 2407TIP3    H1 7166   7.571   1.870   1.828
 2407TIP3    H2 7167   7.467   1.934   1.917
 2408TIP3   OH2 7168   2.284   1.647   1.093
 2408TIP3    H1 7169   2.310   1.584   1.027
 2408TIP3    H2 7170   2.362   1.660   1.147
 2409TIP3   OH2 7171   6.575   0.236   0.904
 2409TIP3    H1 7172   6.510   0.181   0.861
 2409TIP3    H2 7173   6.629   0.175   0.955
 2410TIP3   OH2 7174   4.088   1.561   4.167
 2410TIP3    H1 7175   4.093   1.598   4.079
 2410TIP3    H2 7176   4.165   1.594   4.213
 2411TIP3   OH2 7177   0.906   1.834   1.116
 2411TIP3    H1 7178   0.858   1.775   1.175
 2411TIP3    H2 7179   0.839   1.874   1.062
 2412TIP3   OH2 7180   5.779   6.742   6.482
 2412TIP3    H1 7181   5.821   6.815   6.436
 2412TIP3    H2 7182   5.712   6.783   6.536
 2413TIP3   OH2 7183   8.293   3.865   5.504
 2413TIP3    H1 7184   8.339   3.781   5.503
 2413TIP3    H2 7185   8.240   3.863   5.583
 2414TIP3   OH2 7186   7.952   2.930   4.312
 2414TIP3    H1 7187   7.884   2.900   4.372
 2414TIP3    H2 7188   8.017   2.861   4.312
 2415TIP3   OH2 7189   0.086   1.031   2.096
 2415TIP3    H1 7190  -0.004   1.050   2.070
 2415TIP3    H2 7191   0.132   1.115   2.085
 2416TIP3   OH2 7192   3.808   4.770   5.875
 2416TIP3    H1 7193   3.735   4.726   5.919
 2416TIP3    H2 7194   3.873   4.784   5.943
 2417TIP3   OH2 7195   4.810   6.190   0.924
 2417TIP3    H1 7196   4.816   6.122   0.991
 2417TIP3    H2 7197   4.739   6.247   0.954
 2418TIP3   OH2 7198   5.274   5.446   6.172
 2418TIP3    H1 7199   5.313   5.434   6.259
 2418TIP3    H2 7200   5.289   5.363   6.127
 2419TIP3   OH2 7201   0.182   0.677   0.321
 2419TIP3    H1 7202   0.232   0.609   0.277
 2419TIP3    H2 7203   0.169   0.746   0.255
 2420TIP3   OH2 7204   3.779   1.495   0.180
 2420TIP3    H1 7205   3.763   1.529   0.092
 2420TIP3    H2 7206   3.820   1.410   0.166
 2421TIP3   OH2 7207   5.619   3.592   4.013
 2421TIP3    H1 7208   5.538   3.593   4.065
 2421TIP3    H2 7209   5.590   3.614   3.924
 2422TIP3   OH2 7210   1.961   5.393   1.442
 2422TIP3    H1 7211   2.003   5.452   1.504
 2422TIP3    H2 7212   1.995   5.421   1.356
 2423TIP3   OH2 7213   4.353   0.844   6.189
 2423TIP3    H1 7214   4.360   0.901   6.112
 2423TIP3    H2 7215   4.299   0.893   6.251
 2424TIP3   OH2 7216   8.010   2.895   6.445
 2424TIP3    H1 7217   8.043   2.957   6.510
 2424TIP3    H2 7218   8.007   2.946   6.364
 2425TIP3   OH2 7219   4.880   0.330   3.855
 2425TIP3    H1 7220   4.961   0.379   3.870
 2425TIP3    H2 7221   4.900   0.274   3.780
 2426TIP3   OH2 7222   0.440   1.141   4.364
 2426TIP3    H1 7223   0.515   1.202   4.365
 2426TIP3    H2 7224   0.383   1.173   4.434
 2427TIP3   OH2 7225   5.358   3.660   4.128
 2427TIP3    H1 7226   5.288   3.662   4.193
 2427TIP3    H2 7227   5.351   3.743   4.082
 2428TIP3   OH2 7228   8.054   0.638   0.988
 2428TIP3    H1 7229   8.048   0.687   0.906
 2428TIP3    H2 7230   8.131   0.674   1.032
 2429TIP3   OH2 7231   6.311   6.064   0.465
 2429TIP3    H1 7232   6.370   5.989   0.478
 2429TIP3    H2 7233   6.289   6.061   0.372
 2430TIP3   OH2 7234   2.868   2.279   5.566
 2430TIP3    H1 7235   2.911   2.196   5.587
 2430TIP3    H2 7236   2.775   2.256   5.559
 2431TIP3   OH2 7237   1.314   1.413   3.505
 2431TIP3    H1 7238   1.230   1.377   3.531
 2431TIP3    H2 7239   1.361   1.339   3.467
 2432TIP3   OH2 7240   3.366   6.861   4.938
 2432TIP3    H1 7241   3.341   6.953   4.940
 2432TIP3    H2 7242   3.443   6.858   4.881
 2433TIP3   OH2 7243   8.270   7.200   6.229
 2433TIP3    H1 7244   8.222   7.135   6.177
 2433TIP3    H2 7245   8.252   7.283   6.187
 2434TIP3   OH2 7246   7.470   7.321   4.374
 2434TIP3    H1 7247   7.429   7.234   4.368
 2434TIP3    H2 7248   7.458   7.346   4.466
 2435TIP3   OH2 7249   6.512   0.634   6.600
 2435TIP3    H1 7250   6.476   0.560   6.649
 2435TIP3    H2 7251   6.450   0.705   6.615
 2436TIP3   OH2 7252   5.965   3.407   6.145
 2436TIP3    H1 7253   6.018   3.464   6.200
 2436TIP3    H2 7254   6.023   3.380   6.075
 2437TIP3   OH2 7255   1.964   6.547   4.825
 2437TIP3    H1 7256   2.025   6.491   4.873
 2437TIP3    H2 7257   2.001   6.635   4.833
 2438TIP3   OH2 7258   5.375   4.601   3.548
 2438TIP3    H1 7259   5.449   4.599   3.608
 2438TIP3    H2 7260   5.298   4.613   3.605
 2439TIP3   OH2 7261   6.316   2.649   4.355
 2439TIP3    H1 7262   6.376   2.678   4.423
 2439TIP3    H2 7263   6.356   2.569   4.320
 2440TIP3   OH2 7264   0.096   3.613   0.146
 2440TIP3    H1 7265   0.017   3.654   0.112
 2440TIP3    H2 7266   0.138   3.574   0.070
 2441TIP3   OH2 7267   0.334   7.737   2.181
 2441TIP3    H1 7268   0.283   7.672   2.230
 2441TIP3    H2 7269   0.309   7.820   2.220
 2442TIP3   OH2 7270   0.162   1.554   3.686
 2442TIP3    H1 7271   0.117   1.591   3.609
 2442TIP3    H2 7272   0.136   1.611   3.758
 2443TIP3   OH2 7273   2.346   3.606   5.509
 2443TIP3    H1 7274   2.256   3.637   5.508
 2443TIP3    H2 7275   2.388   3.652   5.436
 2444TIP3   OH2 7276   7.632   6.557   1.824
 2444TIP3    H1 7277   7.568   6.597   1.765
 2444TIP3    H2 7278   7.670   6.631   1.872
 2445TIP3   OH2 7279   4.311   4.319   3.564
 2445TIP3    H1 7280   4.366   4.393   3.586
 2445TIP3    H2 7281   4.318   4.311   3.469
 2446TIP3   OH2 7282   2.538   3.347   0.978
 2446TIP3    H1 7283   2.523   3.378   0.888
 2446TIP3    H2 7284   2.632   3.326   0.980
 2447TIP3   OH2 7285   1.318   5.196   6.395
 2447TIP3    H1 7286   1.225   5.204   6.375
 2447TIP3    H2 7287   1.363   5.226   6.316
 2448TIP3   OH2 7288   7.250   6.601   5.694
 2448TIP3    H1 7289   7.176   6.654   5.724
 2448TIP3    H2 7290   7.220   6.511   5.705
 2449TIP3   OH2 7291   0.007   4.834   5.907
 2449TIP3    H1 7292   0.100   4.843   5.927
 2449TIP3    H2 7293   0.001   4.750   5.860
 2450TIP3   OH2 7294   5.303   6.842   5.598
 2450TIP3    H1 7295   5.361   6.787   5.546
 2450TIP3    H2 7296   5.355   6.868   5.674
 2451TIP3   OH2 7297   4.464   0.786   1.185
 2451TIP3    H1 7298   4.432   0.830   1.263
 2451TIP3    H2 7299   4.389   0.786   1.125
 2452TIP3   OH2 7300   0.491   6.045   4.618
 2452TIP3    H1 7301   0.451   6.104   4.682
 2452TIP3    H2 7302   0.449   5.961   4.634
 2453TIP3   OH2 7303   3.056   0.523   6.716
 2453TIP3    H1 7304   3.089   0.445   6.761
 2453TIP3    H2 7305   3.111   0.594   6.749
 2454TIP3   OH2 7306   1.351   1.734   5.979
 2454TIP3    H1 7307   1.434   1.687   5.974
 2454TIP3    H2 7308   1.309   1.700   6.057
 2455TIP3   OH2 7309   5.355   0.708   2.023
 2455TIP3    H1 7310   5.375   0.697   1.930
 2455TIP3    H2 7311   5.267   0.672   2.034
 2456TIP3   OH2 7312   5.243   4.616   6.177
 2456TIP3    H1 7313   5.241   4.669   6.097
 2456TIP3    H2 7314   5.287   4.671   6.242
 2457TIP3   OH2 7315   4.066   2.583   2.781
 2457TIP3    H1 7316   4.143   2.547   2.824
 2457TIP3    H2 7317   4.014   2.506   2.757
 2458TIP3   OH2 7318   4.474   5.873   4.520
 2458TIP3    H1 7319   4.468   5.800   4.582
 2458TIP3    H2 7320   4.425   5.843   4.443
 2459TIP3   OH2 7321   7.527   6.263   1.621
 2459TIP3    H1 7322   7.569   6.209   1.688
 2459TIP3    H2 7323   7.455   6.306   1.667
 2460TIP3   OH2 7324   0.767   4.380   2.119
 2460TIP3    H1 7325   0.795   4.298   2.160
 2460TIP3    H2 7326   0.733   4.432   2.191
 2461TIP3   OH2 7327   2.419   3.650   3.954
 2461TIP3    H1 7328   2.351   3.587   3.981
 2461TIP3    H2 7329   2.378   3.701   3.884
 2462TIP3   OH2 7330   2.909   5.154   3.260
 2462TIP3    H1 7331   2.849   5.183   3.192
 2462TIP3    H2 7332   2.995   5.154   3.218
 2463TIP3   OH2 7333   2.641   3.023   3.759
 2463TIP3    H1 7334   2.696   3.025   3.837
 2463TIP3    H2 7335   2.697   2.987   3.690
 2464TIP3   OH2 7336   6.399   6.083   4.960
 2464TIP3    H1 7337   6.421   5.989   4.961
 2464TIP3    H2 7338   6.418   6.110   4.870
 2465TIP3   OH2 7339   5.376   6.960   1.984
 2465TIP3    H1 7340   5.377   6.873   2.023
 2465TIP3    H2 7341   5.447   7.008   2.027
 2466TIP3   OH2 7342   1.483   7.300   3.715
 2466TIP3    H1 7343   1.415   7.259   3.768
 2466TIP3    H2 7344   1.479   7.253   3.631
 2467TIP3   OH2 7345   1.397   2.760   5.843
 2467TIP3    H1 7346   1.442   2.808   5.775
 2467TIP3    H2 7347   1.457   2.688   5.866
 2468TIP3   OH2 7348   7.936   7.541   2.363
 2468TIP3    H1 7349   7.865   7.529   2.300
 2468TIP3    H2 7350   8.008   7.489   2.327
 2469TIP3   OH2 7351   4.429   7.712   5.528
 2469TIP3    H1 7352   4.424   7.788   5.585
 2469TIP3    H2 7353   4.342   7.706   5.489
 2470TIP3   OH2 7354   4.189   6.282   0.842
 2470TIP3    H1 7355   4.116   6.221   0.853
 2470TIP3    H2 7356   4.158   6.364   0.881
 2471TIP3   OH2 7357   3.811   1.533   6.563
 2471TIP3    H1 7358   3.721   1.528   6.597
 2471TIP3    H2 7359   3.830   1.626   6.558
 2472TIP3   OH2 7360   4.652   0.153   5.587
 2472TIP3    H1 7361   4.562   0.120   5.579
 2472TIP3    H2 7362   4.648   0.214   5.661
 2473TIP3   OH2 7363   7.132   7.772   2.613
 2473TIP3    H1 7364   7.135   7.809   2.524
 2473TIP3    H2 7365   7.047   7.727   2.616
 2474TIP3   OH2 7366   5.293   0.763   5.761
 2474TIP3    H1 7367   5.280   0.813   5.680
 2474TIP3    H2 7368   5.230   0.801   5.823
 2475TIP3   OH2 7369   0.159   2.549   2.068
 2475TIP3    H1 7370   0.222   2.603   2.021
 2475TIP3    H2 7371   0.088   2.608   2.090
 2476TIP3   OH2 7372   2.469   5.209   3.764
 2476TIP3    H1 7373   2.494   5.117   3.767
 2476TIP3    H2 7374   2.378   5.211   3.791
 2477TIP3   OH2 7375   0.831   5.846   4.880
 2477TIP3    H1 7376   0.878   5.764   4.872
 2477TIP3    H2 7377   0.803   5.867   4.791
 2478TIP3   OH2 7378   6.446   1.431   6.646
 2478TIP3    H1 7379   6.506   1.356   6.647
 2478TIP3    H2 7380   6.495   1.502   6.607
 2479TIP3   OH2 7381   5.930   4.551   3.448
 2479TIP3    H1 7382   5.841   4.519   3.461
 2479TIP3    H2 7383   5.970   4.544   3.535
 2480TIP3   OH2 7384   0.430   3.861   6.053
 2480TIP3    H1 7385   0.456   3.799   5.984
 2480TIP3    H2 7386   0.408   3.941   6.005
 2481TIP3   OH2 7387   2.295   1.898   5.146
 2481TIP3    H1 7388   2.388   1.893   5.123
 2481TIP3    H2 7389   2.266   1.807   5.153
 2482TIP3   OH2 7390   0.499   4.128   0.041
 2482TIP3    H1 7391   0.514   4.184   0.117
 2482TIP3    H2 7392   0.409   4.097   0.052
 2483TIP3   OH2 7393   6.282   3.398   1.342
 2483TIP3    H1 7394   6.251   3.388   1.431
 2483TIP3    H2 7395   6.295   3.492   1.331
 2484TIP3   OH2 7396   5.778   1.134   5.251
 2484TIP3    H1 7397   5.856   1.183   5.224
 2484TIP3    H2 7398   5.705   1.191   5.226
 2485TIP3   OH2 7399   5.750   1.115   0.450
 2485TIP3    H1 7400   5.831   1.091   0.406
 2485TIP3    H2 7401   5.715   1.187   0.398
 2486TIP3   OH2 7402   1.981   3.754   6.747
 2486TIP3    H1 7403   1.955   3.709   6.666
 2486TIP3    H2 7404   1.963   3.691   6.816
 2487TIP3   OH2 7405   5.718   2.225   4.332
 2487TIP3    H1 7406   5.730   2.295   4.397
 2487TIP3    H2 7407   5.705   2.146   4.384
 2488TIP3   OH2 7408   8.058   6.241   5.926
 2488TIP3    H1 7409   7.973   6.266   5.891
 2488TIP3    H2 7410   8.084   6.165   5.873
 2489TIP3   OH2 7411   2.322   3.859   4.974
 2489TIP3    H1 7412   2.239   3.823   5.004
 2489TIP3    H2 7413   2.298   3.929   4.913
 2490TIP3   OH2 7414   6.206   0.758   3.763
 2490TIP3    H1 7415   6.142   0.699   3.721
 2490TIP3    H2 7416   6.164   0.783   3.845
 2491TIP3   OH2 7417   3.489   2.115   0.851
 2491TIP3    H1 7418   3.464   2.088   0.762
 2491TIP3    H2 7419   3.581   2.090   0.858
 2492TIP3   OH2 7420   1.996   6.220   6.729
 2492TIP3    H1 7421   2.065   6.197   6.792
 2492TIP3    H2 7422   1.965   6.305   6.758
 2493TIP3   OH2 7423   0.392   0.837   4.107
 2493TIP3    H1 7424   0.478   0.878   4.115
 2493TIP3    H2 7425   0.409   0.753   4.066
 2494TIP3   OH2 7426   5.844   6.948   1.384
 2494TIP3    H1 7427   5.852   7.005   1.460
 2494TIP3    H2 7428   5.774   6.887   1.407
 2495TIP3   OH2 7429   0.883   6.204   3.094
 2495TIP3    H1 7430   0.937   6.134   3.056
 2495TIP3    H2 7431   0.828   6.233   3.022
 2496TIP3   OH2 7432   3.335   2.530   2.790
 2496TIP3    H1 7433   3.378   2.579   2.860
 2496TIP3    H2 7434   3.369   2.569   2.709
 2497TIP3   OH2 7435   0.982   7.769   2.175
 2497TIP3    H1 7436   0.934   7.791   2.096
 2497TIP3    H2 7437   0.917   7.771   2.245
 2498TIP3   OH2 7438   6.459   3.871   6.336
 2498TIP3    H1 7439   6.489   3.961   6.342
 2498TIP3    H2 7440   6.499   3.837   6.256
 2499TIP3   OH2 7441   0.518   0.212   5.569
 2499TIP3    H1 7442   0.559   0.240   5.488
 2499TIP3    H2 7443   0.522   0.117   5.567
 2500TIP3   OH2 7444   6.151   7.065   2.719
 2500TIP3    H1 7445   6.100   7.110   2.786
 2500TIP3    H2 7446   6.086   7.038   2.654
 2501TIP3   OH2 7447   2.721   0.276   3.504
 2501TIP3    H1 7448   2.659   0.293   3.576
 2501TIP3    H2 7449   2.705   0.185   3.480
 2502TIP3   OH2 7450   3.113   3.277   5.905
 2502TIP3    H1 7451   3.122   3.183   5.921
 2502TIP3    H2 7452   3.091   3.283   5.812
 2503TIP3   OH2 7453   7.463   4.760   2.678
 2503TIP3    H1 7454   7.481   4.725   2.765
 2503TIP3    H2 7455   7.524   4.834   2.669
 2504TIP3   OH2 7456   1.092   4.926   3.770
 2504TIP3    H1 7457   1.045   4.912   3.852
 2504TIP3    H2 7458   1.172   4.874   3.779
 2505TIP3   OH2 7459   0.781   3.240   4.085
 2505TIP3    H1 7460   0.739   3.191   4.156
 2505TIP3    H2 7461   0.863   3.271   4.123
 2506TIP3   OH2 7462   6.390   6.978   2.098
 2506TIP3    H1 7463   6.371   7.050   2.037
 2506TIP3    H2 7464   6.352   7.007   2.181
 2507TIP3   OH2 7465   2.477   1.074   1.673
 2507TIP3    H1 7466   2.449   1.007   1.610
 2507TIP3    H2 7467   2.504   1.148   1.619
 2508TIP3   OH2 7468   0.985   7.259   2.173
 2508TIP3    H1 7469   1.053   7.311   2.215
 2508TIP3    H2 7470   0.909   7.318   2.170
 2509TIP3   OH2 7471   2.736   3.622   6.693
 2509TIP3    H1 7472   2.827   3.601   6.670
 2509TIP3    H2 7473   2.734   3.615   6.789
 2510TIP3   OH2 7474   0.329   5.137   6.349
 2510TIP3    H1 7475   0.400   5.094   6.301
 2510TIP3    H2 7476   0.254   5.132   6.290
 2511TIP3   OH2 7477   0.228   7.655   6.524
 2511TIP3    H1 7478   0.306   7.710   6.519
 2511TIP3    H2 7479   0.157   7.714   6.549
 2512TIP3   OH2 7480   3.493   5.725   2.647
 2512TIP3    H1 7481   3.411   5.724   2.597
 2512TIP3    H2 7482   3.558   5.686   2.588
 2513TIP3   OH2 7483   2.906   6.299   3.643
 2513TIP3    H1 7484   2.990   6.288   3.686
 2513TIP3    H2 7485   2.878   6.388   3.666
 2514TIP3   OH2 7486   5.094   4.499   1.369
 2514TIP3    H1 7487   5.015   4.447   1.358
 2514TIP3    H2 7488   5.165   4.435   1.374
 2515TIP3   OH2 7489   6.363   4.731   3.632
 2515TIP3    H1 7490   6.377   4.637   3.619
 2515TIP3    H2 7491   6.451   4.769   3.629
 2516TIP3   OH2 7492   6.211   3.340   5.157
 2516TIP3    H1 7493   6.195   3.400   5.084
 2516TIP3    H2 7494   6.124   3.323   5.193
 2517TIP3   OH2 7495   0.713   6.362   3.595
 2517TIP3    H1 7496   0.639   6.356   3.535
 2517TIP3    H2 7497   0.673   6.372   3.682
 2518TIP3   OH2 7498   2.710   5.450   0.953
 2518TIP3    H1 7499   2.754   5.401   1.022
 2518TIP3    H2 7500   2.757   5.533   0.948
 2519TIP3   OH2 7501   5.948   4.251   6.338
 2519TIP3    H1 7502   6.034   4.220   6.308
 2519TIP3    H2 7503   5.962   4.278   6.429
 2520TIP3   OH2 7504   6.419   4.978   4.165
 2520TIP3    H1 7505   6.435   5.017   4.079
 2520TIP3    H2 7506   6.327   4.950   4.163
 2521TIP3   OH2 7507   5.991   3.009   0.754
 2521TIP3    H1 7508   5.927   2.961   0.807
 2521TIP3    H2 7509   6.058   2.945   0.732
 2522TIP3   OH2 7510   7.913   1.854   3.363
 2522TIP3    H1 7511   7.949   1.937   3.395
 2522TIP3    H2 7512   7.925   1.794   3.436
 2523TIP3   OH2 7513   7.856   1.587   4.762
 2523TIP3    H1 7514   7.880   1.594   4.670
 2523TIP3    H2 7515   7.780   1.529   4.763
 2524TIP3   OH2 7516   2.067   1.418   4.987
 2524TIP3    H1 7517   2.083   1.387   4.898
 2524TIP3    H2 7518   1.983   1.378   5.012
 2525TIP3   OH2 7519   4.439   6.569   3.047
 2525TIP3    H1 7520   4.461   6.636   3.112
 2525TIP3    H2 7521   4.521   6.551   3.002
 2526TIP3   OH2 7522   7.384   4.939   0.593
 2526TIP3    H1 7523   7.467   4.987   0.590
 2526TIP3    H2 7524   7.376   4.900   0.506
 2527TIP3   OH2 7525   7.283   1.689   6.009
 2527TIP3    H1 7526   7.279   1.750   5.935
 2527TIP3    H2 7527   7.337   1.616   5.978
 2528TIP3   OH2 7528   0.907   1.489   3.422
 2528TIP3    H1 7529   0.931   1.565   3.369
 2528TIP3    H2 7530   0.813   1.499   3.436
 2529TIP3   OH2 7531   7.698   3.704   5.269
 2529TIP3    H1 7532   7.712   3.719   5.176
 2529TIP3    H2 7533   7.752   3.770   5.312
 2530TIP3   OH2 7534   1.443   6.761   2.201
 2530TIP3    H1 7535   1.442   6.678   2.249
 2530TIP3    H2 7536   1.404   6.825   2.261
 2531TIP3   OH2 7537   0.374   3.546   6.676
 2531TIP3    H1 7538   0.318   3.539   6.754
 2531TIP3    H2 7539   0.390   3.455   6.651
 2532TIP3   OH2 7540   2.656   2.216   6.104
 2532TIP3    H1 7541   2.708   2.239   6.027
 2532TIP3    H2 7542   2.685   2.128   6.127
 2533TIP3   OH2 7543   3.172   5.194   0.835
 2533TIP3    H1 7544   3.249   5.250   0.847
 2533TIP3    H2 7545   3.198   5.133   0.767
 2534TIP3   OH2 7546   5.524   1.335   0.363
 2534TIP3    H1 7547   5.471   1.368   0.291
 2534TIP3    H2 7548   5.464   1.285   0.417
 2535TIP3   OH2 7549   0.073   5.204   1.059
 2535TIP3    H1 7550   0.027   5.127   1.095
 2535TIP3    H2 7551   0.086   5.182   0.966
 2536TIP3   OH2 7552   0.621   1.488   3.429
 2536TIP3    H1 7553   0.576   1.497   3.512
 2536TIP3    H2 7554   0.598   1.567   3.380
 2537TIP3   OH2 7555   7.193   1.827   6.569
 2537TIP3    H1 7556   7.254   1.880   6.519
 2537TIP3    H2 7557   7.225   1.738   6.559
 2538TIP3   OH2 7558   1.787   2.709   3.390
 2538TIP3    H1 7559   1.858   2.772   3.384
 2538TIP3    H2 7560   1.823   2.628   3.353
 2539TIP3   OH2 7561   1.383   5.720   1.215
 2539TIP3    H1 7562   1.333   5.652   1.261
 2539TIP3    H2 7563   1.416   5.777   1.284
 2540TIP3   OH2 7564   4.777   5.932   0.116
 2540TIP3    H1 7565   4.863   5.956   0.151
 2540TIP3    H2 7566   4.794   5.910   0.025
 2541TIP3   OH2 7567   0.625   6.640   0.907
 2541TIP3    H1 7568   0.698   6.634   0.845
 2541TIP3    H2 7569   0.547   6.643   0.852
 2542TIP3   OH2 7570   1.666   4.647   0.023
 2542TIP3    H1 7571   1.656   4.717   0.089
 2542TIP3    H2 7572   1.749   4.667  -0.020
 2543TIP3   OH2 7573   1.914   7.543   1.682
 2543TIP3    H1 7574   1.885   7.633   1.696
 2543TIP3    H2 7575   2.006   7.544   1.709
 2544TIP3   OH2 7576   0.233   2.670   2.376
 2544TIP3    H1 7577   0.244   2.580   2.344
 2544TIP3    H2 7578   0.322   2.705   2.381
 2545TIP3   OH2 7579   3.485   6.925   3.058
 2545TIP3    H1 7580   3.541   6.900   2.984
 2545TIP3    H2 7581   3.396   6.920   3.024
 2546TIP3   OH2 7582   6.541   2.737   0.966
 2546TIP3    H1 7583   6.561   2.769   0.879
 2546TIP3    H2 7584   6.523   2.643   0.953
 2547TIP3   OH2 7585   6.284   1.989   1.348
 2547TIP3    H1 7586   6.335   2.036   1.414
 2547TIP3    H2 7587   6.347   1.970   1.278
 2548TIP3   OH2 7588   5.916   5.742   6.508
 2548TIP3    H1 7589   5.825   5.771   6.510
 2548TIP3    H2 7590   5.952   5.769   6.593
 2549TIP3   OH2 7591   2.728   5.671   2.600
 2549TIP3    H1 7592   2.690   5.759   2.608
 2549TIP3    H2 7593   2.692   5.623   2.675
 2550TIP3   OH2 7594   1.287   5.562   1.433
 2550TIP3    H1 7595   1.279   5.655   1.453
 2550TIP3    H2 7596   1.257   5.517   1.512
 2551TIP3   OH2 7597   4.528   6.053   4.721
 2551TIP3    H1 7598   4.509   6.005   4.802
 2551TIP3    H2 7599   4.496   5.995   4.651
 2552TIP3   OH2 7600   6.652   1.486   0.498
 2552TIP3    H1 7601   6.593   1.547   0.454
 2552TIP3    H2 7602   6.738   1.527   0.493
 2553TIP3   OH2 7603   6.052   1.054   4.378
 2553TIP3    H1 7604   6.053   1.149   4.391
 2553TIP3    H2 7605   6.143   1.028   4.390
 2554TIP3   OH2 7606   2.845   0.285   4.374
 2554TIP3    H1 7607   2.802   0.296   4.459
 2554TIP3    H2 7608   2.938   0.292   4.392
 2555TIP3   OH2 7609   8.040   1.064   5.968
 2555TIP3    H1 7610   8.056   1.021   5.884
 2555TIP3    H2 7611   8.040   0.993   6.032
 2556TIP3   OH2 7612   7.280   1.217   6.134
 2556TIP3    H1 7613   7.214   1.160   6.173
 2556TIP3    H2 7614   7.334   1.159   6.081
 2557TIP3   OH2 7615   0.786   1.678   2.838
 2557TIP3    H1 7616   0.775   1.761   2.884
 2557TIP3    H2 7617   0.705   1.666   2.790
 2558TIP3   OH2 7618   2.099   4.585   1.100
 2558TIP3    H1 7619   2.032   4.613   1.037
 2558TIP3    H2 7620   2.050   4.535   1.166
 2559TIP3   OH2 7621   6.670   0.839   4.621
 2559TIP3    H1 7622   6.605   0.876   4.679
 2559TIP3    H2 7623   6.725   0.785   4.678
 2560TIP3   OH2 7624   1.307   3.984   2.086
 2560TIP3    H1 7625   1.298   3.938   2.169
 2560TIP3    H2 7626   1.304   3.914   2.020
 2561TIP3   OH2 7627   4.946   4.944   2.701
 2561TIP3    H1 7628   4.967   5.024   2.653
 2561TIP3    H2 7629   4.909   4.975   2.784
 2562TIP3   OH2 7630   4.984   7.732   4.360
 2562TIP3    H1 7631   4.974   7.820   4.322
 2562TIP3    H2 7632   5.012   7.678   4.287
 2563TIP3   OH2 7633   1.309   4.845   5.867
 2563TIP3    H1 7634   1.330   4.925   5.819
 2563TIP3    H2 7635   1.392   4.817   5.905
 2564TIP3   OH2 7636   1.022   4.641   4.278
 2564TIP3    H1 7637   0.934   4.633   4.314
 2564TIP3    H2 7638   1.050   4.551   4.264
 2565TIP3   OH2 7639   3.063   4.840   3.546
 2565TIP3    H1 7640   3.092   4.749   3.555
 2565TIP3    H2 7641   3.143   4.891   3.547
 2566TIP3   OH2 7642   3.595   2.362   1.881
 2566TIP3    H1 7643   3.618   2.284   1.831
 2566TIP3    H2 7644   3.678   2.393   1.917
 2567TIP3   OH2 7645   7.074   6.401   4.119
 2567TIP3    H1 7646   7.088   6.308   4.098
 2567TIP3    H2 7647   6.982   6.405   4.147
 2568TIP3   OH2 7648   6.490   0.527   0.589
 2568TIP3    H1 7649   6.501   0.521   0.683
 2568TIP3    H2 7650   6.526   0.613   0.566
 2569TIP3   OH2 7651   0.645   6.555   5.750
 2569TIP3    H1 7652   0.664   6.574   5.842
 2569TIP3    H2 7653   0.703   6.481   5.729
 2570TIP3   OH2 7654   0.457   5.091   0.476
 2570TIP3    H1 7655   0.548   5.081   0.449
 2570TIP3    H2 7656   0.407   5.078   0.395
 2571TIP3   OH2 7657   0.810   4.665   5.209
 2571TIP3    H1 7658   0.769   4.745   5.240
 2571TIP3    H2 7659   0.771   4.650   5.123
 2572TIP3   OH2 7660   2.210   1.615   0.138
 2572TIP3    H1 7661   2.268   1.642   0.067
 2572TIP3    H2 7662   2.171   1.696   0.169
 2573TIP3   OH2 7663   3.827   5.326   2.075
 2573TIP3    H1 7664   3.854   5.394   2.136
 2573TIP3    H2 7665   3.786   5.259   2.131
 2574TIP3   OH2 7666   4.096   5.276   1.112
 2574TIP3    H1 7667   4.092   5.256   1.205
 2574TIP3    H2 7668   4.093   5.191   1.069
 2575TIP3   OH2 7669   6.461   1.728   1.057
 2575TIP3    H1 7670   6.533   1.693   1.005
 2575TIP3    H2 7671   6.385   1.724   0.999
 2576TIP3   OH2 7672   3.824   6.699   0.014
 2576TIP3    H1 7673   3.770   6.685  -0.065
 2576TIP3    H2 7674   3.810   6.620   0.067
 2577TIP3   OH2 7675   2.089   0.679   2.474
 2577TIP3    H1 7676   1.994   0.663   2.472
 2577TIP3    H2 7677   2.122   0.617   2.539
 2578TIP3   OH2 7678   6.154   3.612   6.526
 2578TIP3    H1 7679   6.202   3.537   6.491
 2578TIP3    H2 7680   6.122   3.583   6.612
 2579TIP3   OH2 7681   2.921   6.789   6.572
 2579TIP3    H1 7682   2.849   6.848   6.553
 2579TIP3    H2 7683   2.895   6.705   6.534
 2580TIP3   OH2 7684   5.112   6.128   4.095
 2580TIP3    H1 7685   5.049   6.081   4.152
 2580TIP3    H2 7686   5.094   6.094   4.007
 2581TIP3   OH2 7687   4.581   6.089   2.435
 2581TIP3    H1 7688   4.675   6.091   2.453
 2581TIP3    H2 7689   4.574   6.100   2.340
 2582TIP3   OH2 7690   1.488   5.509   1.787
 2582TIP3    H1 7691   1.472   5.456   1.709
 2582TIP3    H2 7692   1.582   5.527   1.785
 2583TIP3   OH2 7693   6.576   2.614   0.650
 2583TIP3    H1 7694   6.489   2.575   0.661
 2583TIP3    H2 7695   6.564   2.706   0.674
 2584TIP3   OH2 7696   5.074   4.029   4.525
 2584TIP3    H1 7697   5.135   3.959   4.550
 2584TIP3    H2 7698   5.125   4.086   4.468
 2585TIP3   OH2 7699   4.251   0.859   2.485
 2585TIP3    H1 7700   4.196   0.801   2.538
 2585TIP3    H2 7701   4.340   0.826   2.499
 2586TIP3   OH2 7702   3.369   3.230   3.159
 2586TIP3    H1 7703   3.384   3.149   3.110
 2586TIP3    H2 7704   3.409   3.214   3.245
 2587TIP3   OH2 7705   6.125   1.967   6.530
 2587TIP3    H1 7706   6.202   1.912   6.513
 2587TIP3    H2 7707   6.115   2.019   6.451
 2588TIP3   OH2 7708   4.080   7.200   0.200
 2588TIP3    H1 7709   4.017   7.156   0.144
 2588TIP3    H2 7710   4.088   7.143   0.277
 2589TIP3   OH2 7711   7.426   5.628   6.217
 2589TIP3    H1 7712   7.516   5.616   6.247
 2589TIP3    H2 7713   7.378   5.553   6.251
 2590TIP3   OH2 7714   1.989   4.658   3.180
 2590TIP3    H1 7715   2.054   4.591   3.200
 2590TIP3    H2 7716   2.013   4.732   3.236
 2591TIP3   OH2 7717   4.234   3.845   2.405
 2591TIP3    H1 7718   4.157   3.797   2.434
 2591TIP3    H2 7719   4.299   3.777   2.388
 2592TIP3   OH2 7720   4.735   4.606   2.535
 2592TIP3    H1 7721   4.774   4.635   2.617
 2592TIP3    H2 7722   4.641   4.626   2.545
 2593TIP3   OH2 7723   5.261   4.278   2.538
 2593TIP3    H1 7724   5.170   4.309   2.537
 2593TIP3    H2 7725   5.256   4.189   2.505
 2594TIP3   OH2 7726   1.899   1.347   2.057
 2594TIP3    H1 7727   1.849   1.293   1.996
 2594TIP3    H2 7728   1.834   1.375   2.122
 2595TIP3   OH2 7729   2.593   6.765   4.990
 2595TIP3    H1 7730   2.546   6.846   4.968
 2595TIP3    H2 7731   2.681   6.795   5.014
 2596TIP3   OH2 7732   7.110   7.147   0.181
 2596TIP3    H1 7733   7.114   7.103   0.096
 2596TIP3    H2 7734   7.037   7.208   0.172
 2597TIP3   OH2 7735   6.848   7.173   1.851
 2597TIP3    H1 7736   6.909   7.177   1.924
 2597TIP3    H2 7737   6.763   7.158   1.893
 2598TIP3   OH2 7738   0.874   4.539   3.427
 2598TIP3    H1 7739   0.790   4.551   3.383
 2598TIP3    H2 7740   0.856   4.560   3.519
 2599TIP3   OH2 7741   2.284   7.387   4.860
 2599TIP3    H1 7742   2.294   7.418   4.950
 2599TIP3    H2 7743   2.252   7.463   4.811
 2600TIP3   OH2 7744   8.174   5.868   5.498
 2600TIP3    H1 7745   8.095   5.853   5.446
 2600TIP3    H2 7746   8.193   5.783   5.537
 2601TIP3   OH2 7747   3.794   0.824   4.623
 2601TIP3    H1 7748   3.861   0.888   4.645
 2601TIP3    H2 7749   3.840   0.756   4.574
 2602TIP3   OH2 7750   7.089   2.031   4.903
 2602TIP3    H1 7751   7.043   1.948   4.914
 2602TIP3    H2 7752   7.076   2.077   4.986
 2603TIP3   OH2 7753   4.510   5.971   3.201
 2603TIP3    H1 7754   4.517   6.066   3.193
 2603TIP3    H2 7755   4.522   5.938   3.112
 2604TIP3   OH2 7756   1.092   7.470   6.313
 2604TIP3    H1 7757   1.139   7.507   6.388
 2604TIP3    H2 7758   1.062   7.385   6.343
 2605TIP3   OH2 7759   5.634   7.050   5.527
 2605TIP3    H1 7760   5.619   6.993   5.602
 2605TIP3    H2 7761   5.714   7.098   5.549
 2606TIP3   OH2 7762   1.879   4.309   3.141
 2606TIP3    H1 7763   1.921   4.274   3.220
 2606TIP3    H2 7764   1.913   4.399   3.134
 2607TIP3   OH2 7765   1.337   2.960   1.295
 2607TIP3    H1 7766   1.385   3.034   1.257
 2607TIP3    H2 7767   1.246   2.986   1.292
 2608TIP3   OH2 7768   4.875   2.717   4.301
 2608TIP3    H1 7769   4.801   2.777   4.289
 2608TIP3    H2 7770   4.845   2.635   4.263
 2609TIP3   OH2 7771   6.853   0.468   1.861
 2609TIP3    H1 7772   6.929   0.474   1.918
 2609TIP3    H2 7773   6.878   0.403   1.794
 2610TIP3   OH2 7774   3.797   6.940   0.138
 2610TIP3    H1 7775   3.798   6.873   0.070
 2610TIP3    H2 7776   3.809   7.023   0.090
 2611TIP3   OH2 7777   0.392   2.974   6.472
 2611TIP3    H1 7778   0.340   2.925   6.408
 2611TIP3    H2 7779   0.327   3.016   6.528
 2612TIP3   OH2 7780   0.025   7.016   1.556
 2612TIP3    H1 7781   0.119   7.015   1.536
 2612TIP3    H2 7782   0.012   7.097   1.605
 2613TIP3   OH2 7783   2.412   4.454   3.081
 2613TIP3    H1 7784   2.499   4.492   3.071
 2613TIP3    H2 7785   2.365   4.479   3.002
 2614TIP3   OH2 7786   6.111   0.852   6.022
 2614TIP3    H1 7787   6.124   0.760   6.044
 2614TIP3    H2 7788   6.194   0.880   5.983
 2615TIP3   OH2 7789   0.894   5.459   4.463
 2615TIP3    H1 7790   0.887   5.391   4.396
 2615TIP3    H2 7791   0.874   5.415   4.545
 2616TIP3   OH2 7792   3.648   6.337   4.579
 2616TIP3    H1 7793   3.612   6.363   4.495
 2616TIP3    H2 7794   3.728   6.289   4.558
 2617TIP3   OH2 7795   3.945   6.166   0.902
 2617TIP3    H1 7796   3.887   6.092   0.887
 2617TIP3    H2 7797   3.958   6.168   0.997
 2618TIP3   OH2 7798   0.620   1.257   0.156
 2618TIP3    H1 7799   0.555   1.295   0.096
 2618TIP3    H2 7800   0.568   1.212   0.222
 2619TIP3   OH2 7801   1.683   6.550   0.743
 2619TIP3    H1 7802   1.703   6.559   0.650
 2619TIP3    H2 7803   1.707   6.460   0.764
 2620TIP3   OH2 7804   5.053   0.975   5.616
 2620TIP3    H1 7805   4.979   0.915   5.628
 2620TIP3    H2 7806   5.075   0.969   5.523
 2621TIP3   OH2 7807   6.673   6.247   4.925
 2621TIP3    H1 7808   6.661   6.212   4.837
 2621TIP3    H2 7809   6.737   6.189   4.966
 2622TIP3   OH2 7810   7.370   5.217   1.346
 2622TIP3    H1 7811   7.313   5.184   1.416
 2622TIP3    H2 7812   7.457   5.224   1.387
 2623TIP3   OH2 7813   0.800   3.451   6.114
 2623TIP3    H1 7814   0.824   3.463   6.022
 2623TIP3    H2 7815   0.773   3.360   6.120
 2624TIP3   OH2 7816   8.165   3.763   6.118
 2624TIP3    H1 7817   8.110   3.837   6.140
 2624TIP3    H2 7818   8.236   3.800   6.065
 2625TIP3   OH2 7819   0.171   5.692   3.401
 2625TIP3    H1 7820   0.148   5.697   3.494
 2625TIP3    H2 7821   0.175   5.783   3.373
 2626TIP3   OH2 7822   7.556   5.637   4.616
 2626TIP3    H1 7823   7.543   5.566   4.679
 2626TIP3    H2 7824   7.578   5.593   4.534
 2627TIP3   OH2 7825   4.833   5.369   2.605
 2627TIP3    H1 7826   4.750   5.323   2.597
 2627TIP3    H2 7827   4.852   5.399   2.516
 2628TIP3   OH2 7828   5.154   3.310   3.676
 2628TIP3    H1 7829   5.095   3.358   3.619
 2628TIP3    H2 7830   5.144   3.350   3.762
 2629TIP3   OH2 7831   1.937   1.325   5.848
 2629TIP3    H1 7832   1.979   1.291   5.928
 2629TIP3    H2 7833   1.902   1.410   5.874
 2630TIP3   OH2 7834   1.975   5.455   4.480
 2630TIP3    H1 7835   1.973   5.454   4.384
 2630TIP3    H2 7836   1.990   5.547   4.502
 2631TIP3   OH2 7837   0.310   5.334   2.964
 2631TIP3    H1 7838   0.222   5.348   2.929
 2631TIP3    H2 7839   0.345   5.422   2.977
 2632TIP3   OH2 7840   6.626   2.822   5.445
 2632TIP3    H1 7841   6.648   2.791   5.533
 2632TIP3    H2 7842   6.705   2.805   5.394
 2633TIP3   OH2 7843   4.881   7.576   6.099
 2633TIP3    H1 7844   4.888   7.631   6.177
 2633TIP3    H2 7845   4.827   7.502   6.126
 2634TIP3   OH2 7846   3.345   0.633   0.858
 2634TIP3    H1 7847   3.424   0.615   0.908
 2634TIP3    H2 7848   3.355   0.580   0.778
 2635TIP3   OH2 7849   3.686   6.600   3.016
 2635TIP3    H1 7850   3.639   6.682   2.996
 2635TIP3    H2 7851   3.641   6.534   2.964
 2636TIP3   OH2 7852   7.797   2.883   4.604
 2636TIP3    H1 7853   7.852   2.962   4.607
 2636TIP3    H2 7854   7.860   2.811   4.605
 2637TIP3   OH2 7855   1.874   0.802   2.112
 2637TIP3    H1 7856   1.837   0.797   2.200
 2637TIP3    H2 7857   1.806   0.769   2.054
 2638TIP3   OH2 7858   3.329   0.045   4.518
 2638TIP3    H1 7859   3.361   0.081   4.435
 2638TIP3    H2 7860   3.235   0.032   4.504
 2639TIP3   OH2 7861   2.135   4.409   6.725
 2639TIP3    H1 7862   2.227   4.380   6.723
 2639TIP3    H2 7863   2.109   4.412   6.633
 2640TIP3   OH2 7864   5.657   2.792   0.058
 2640TIP3    H1 7865   5.618   2.873   0.089
 2640TIP3    H2 7866   5.690   2.814  -0.030
 2641TIP3   OH2 7867   0.324   7.423   0.652
 2641TIP3    H1 7868   0.359   7.506   0.619
 2641TIP3    H2 7869   0.389   7.358   0.628
 2642TIP3   OH2 7870   5.644   4.617   0.967
 2642TIP3    H1 7871   5.607   4.531   0.948
 2642TIP3    H2 7872   5.596   4.677   0.910
 2643TIP3   OH2 7873   1.416   6.220   1.294
 2643TIP3    H1 7874   1.353   6.292   1.285
 2643TIP3    H2 7875   1.385   6.170   1.369
 2644TIP3   OH2 7876   3.305   7.182   4.433
 2644TIP3    H1 7877   3.249   7.124   4.381
 2644TIP3    H2 7878   3.312   7.139   4.518
 2645TIP3   OH2 7879   5.593   2.574   4.224
 2645TIP3    H1 7880   5.640   2.524   4.290
 2645TIP3    H2 7881   5.501   2.560   4.244
 2646TIP3   OH2 7882   3.773   4.121   2.215
 2646TIP3    H1 7883   3.793   4.214   2.220
 2646TIP3    H2 7884   3.726   4.101   2.296
 2647TIP3   OH2 7885   7.727   5.783   4.785
 2647TIP3    H1 7886   7.678   5.745   4.712
 2647TIP3    H2 7887   7.813   5.804   4.748
 2648TIP3   OH2 7888   2.101   7.467   6.776
 2648TIP3    H1 7889   2.158   7.418   6.716
 2648TIP3    H2 7890   2.029   7.407   6.795
 2649TIP3   OH2 7891   4.815   3.109   0.870
 2649TIP3    H1 7892   4.780   3.174   0.809
 2649TIP3    H2 7893   4.749   3.105   0.940
 2650TIP3   OH2 7894   3.192   5.989   5.023
 2650TIP3    H1 7895   3.128   5.958   5.088
 2650TIP3    H2 7896   3.264   6.023   5.076
 2651TIP3   OH2 7897   2.731   2.422   3.109
 2651TIP3    H1 7898   2.640   2.412   3.079
 2651TIP3    H2 7899   2.781   2.434   3.028
 2652TIP3   OH2 7900   3.744   0.050   6.502
 2652TIP3    H1 7901   3.800  -0.010   6.453
 2652TIP3    H2 7902   3.710   0.111   6.437
 2653TIP3   OH2 7903   2.774   5.116   4.958
 2653TIP3    H1 7904   2.824   5.084   4.883
 2653TIP3    H2 7905   2.769   5.041   5.017
 2654TIP3   OH2 7906   4.427   3.537   5.620
 2654TIP3    H1 7907   4.475   3.594   5.680
 2654TIP3    H2 7908   4.447   3.572   5.533
 2655TIP3   OH2 7909   2.629   7.789   6.020
 2655TIP3    H1 7910   2.597   7.790   6.110
 2655TIP3    H2 7911   2.643   7.881   5.998
 2656TIP3   OH2 7912   8.249   7.716   3.681
 2656TIP3    H1 7913   8.211   7.629   3.692
 2656TIP3    H2 7914   8.285   7.738   3.767
 2657TIP3   OH2 7915   4.321   0.139   1.658
 2657TIP3    H1 7916   4.309   0.082   1.581
 2657TIP3    H2 7917   4.379   0.090   1.715
 2658TIP3   OH2 7918   0.580   5.365   4.425
 2658TIP3    H1 7919   0.565   5.293   4.364
 2658TIP3    H2 7920   0.602   5.321   4.507
 2659TIP3   OH2 7921   4.932   6.444   2.827
 2659TIP3    H1 7922   4.924   6.350   2.814
 2659TIP3    H2 7923   5.009   6.454   2.884
 2660TIP3   OH2 7924   2.118   5.528   1.606
 2660TIP3    H1 7925   2.145   5.555   1.694
 2660TIP3    H2 7926   2.188   5.560   1.549
 2661TIP3   OH2 7927   5.254   6.031   4.669
 2661TIP3    H1 7928   5.183   6.090   4.695
 2661TIP3    H2 7929   5.303   6.081   4.603
 2662TIP3   OH2 7930   1.823   0.722   0.695
 2662TIP3    H1 7931   1.918   0.716   0.699
 2662TIP3    H2 7932   1.795   0.636   0.664
 2663TIP3   OH2 7933   0.285   4.129   1.785
 2663TIP3    H1 7934   0.353   4.146   1.850
 2663TIP3    H2 7935   0.303   4.039   1.755
 2664TIP3   OH2 7936   5.509   6.154   5.844
 2664TIP3    H1 7937   5.506   6.098   5.921
 2664TIP3    H2 7938   5.585   6.123   5.794
 2665TIP3   OH2 7939   4.691   0.899   3.884
 2665TIP3    H1 7940   4.724   0.966   3.944
 2665TIP3    H2 7941   4.622   0.855   3.934
 2666TIP3   OH2 7942   5.982   2.019   2.157
 2666TIP3    H1 7943   6.053   1.971   2.115
 2666TIP3    H2 7944   5.905   1.964   2.143
 2667TIP3   OH2 7945   3.539   2.411   6.680
 2667TIP3    H1 7946   3.624   2.456   6.678
 2667TIP3    H2 7947   3.559   2.322   6.651
 2668TIP3   OH2 7948   4.149   0.637   5.513
 2668TIP3    H1 7949   4.076   0.698   5.497
 2668TIP3    H2 7950   4.207   0.650   5.438
 2669TIP3   OH2 7951   5.356   3.629   2.935
 2669TIP3    H1 7952   5.445   3.659   2.917
 2669TIP3    H2 7953   5.356   3.537   2.908
 2670TIP3   OH2 7954   6.994   0.290   2.778
 2670TIP3    H1 7955   7.083   0.257   2.789
 2670TIP3    H2 7956   6.938   0.213   2.785
 2671TIP3   OH2 7957   1.786   0.226   1.780
 2671TIP3    H1 7958   1.836   0.220   1.861
 2671TIP3    H2 7959   1.697   0.243   1.808
 2672TIP3   OH2 7960   0.324   0.719   5.446
 2672TIP3    H1 7961   0.279   0.731   5.362
 2672TIP3    H2 7962   0.336   0.624   5.453
 2673TIP3   OH2 7963   2.132   6.318   0.596
 2673TIP3    H1 7964   2.133   6.411   0.621
 2673TIP3    H2 7965   2.091   6.318   0.509
 2674TIP3   OH2 7966   6.751   5.173   3.594
 2674TIP3    H1 7967   6.752   5.095   3.650
 2674TIP3    H2 7968   6.666   5.213   3.612
 2675TIP3   OH2 7969   4.530   1.249   5.756
 2675TIP3    H1 7970   4.573   1.299   5.686
 2675TIP3    H2 7971   4.593   1.247   5.827
 2676TIP3   OH2 7972   3.704   7.744   1.142
 2676TIP3    H1 7973   3.722   7.764   1.051
 2676TIP3    H2 7974   3.787   7.759   1.187
 2677TIP3   OH2 7975   7.260   0.290   3.352
 2677TIP3    H1 7976   7.205   0.252   3.420
 2677TIP3    H2 7977   7.239   0.241   3.273
 2678TIP3   OH2 7978   3.579   3.269   1.065
 2678TIP3    H1 7979   3.635   3.253   1.142
 2678TIP3    H2 7980   3.564   3.363   1.066
 2679TIP3   OH2 7981   4.409   4.302   6.407
 2679TIP3    H1 7982   4.499   4.320   6.381
 2679TIP3    H2 7983   4.390   4.369   6.473
 2680TIP3   OH2 7984   6.286   0.820   4.418
 2680TIP3    H1 7985   6.291   0.760   4.492
 2680TIP3    H2 7986   6.277   0.907   4.458
 2681TIP3   OH2 7987   2.452   1.636   6.503
 2681TIP3    H1 7988   2.484   1.720   6.471
 2681TIP3    H2 7989   2.439   1.584   6.424
 2682TIP3   OH2 7990   3.011   7.664   1.061
 2682TIP3    H1 7991   2.975   7.663   0.972
 2682TIP3    H2 7992   3.102   7.690   1.050
 2683TIP3   OH2 7993   6.376   5.248   6.186
 2683TIP3    H1 7994   6.387   5.158   6.156
 2683TIP3    H2 7995   6.435   5.299   6.130
 2684TIP3   OH2 7996   6.124   3.587   6.254
 2684TIP3    H1 7997   6.180   3.630   6.190
 2684TIP3    H2 7998   6.121   3.648   6.328
 2685TIP3   OH2 7999   5.791   5.872   3.181
 2685TIP3    H1 8000   5.696   5.882   3.173
 2685TIP3    H2 8001   5.821   5.954   3.220
 2686TIP3   OH2 8002   3.296   6.115   1.844
 2686TIP3    H1 8003   3.308   6.120   1.939
 2686TIP3    H2 8004   3.348   6.039   1.817
 2687TIP3   OH2 8005   2.781   2.963   3.997
 2687TIP3    H1 8006   2.866   3.000   3.974
 2687TIP3    H2 8007   2.797   2.869   4.009
 2688TIP3   OH2 8008   2.239   6.964   2.375
 2688TIP3    H1 8009   2.306   6.905   2.340
 2688TIP3    H2 8010   2.226   7.029   2.305
 2689TIP3   OH2 8011   1.673   5.761   6.110
 2689TIP3    H1 8012   1.612   5.690   6.086
 2689TIP3    H2 8013   1.684   5.751   6.204
 2690TIP3   OH2 8014   5.704   0.360   1.512
 2690TIP3    H1 8015   5.732   0.427   1.574
 2690TIP3    H2 8016   5.741   0.279   1.545
 2691TIP3   OH2 8017   5.200   1.540   2.710
 2691TIP3    H1 8018   5.183   1.512   2.800
 2691TIP3    H2 8019   5.293   1.562   2.709
 2692TIP3   OH2 8020   0.734   5.919   4.595
 2692TIP3    H1 8021   0.659   5.976   4.609
 2692TIP3    H2 8022   0.728   5.891   4.504
 2693TIP3   OH2 8023   0.194   7.002   5.337
 2693TIP3    H1 8024   0.247   7.076   5.365
 2693TIP3    H2 8025   0.142   6.979   5.414
 2694TIP3   OH2 8026   4.136   2.157   3.924
 2694TIP3    H1 8027   4.079   2.131   3.852
 2694TIP3    H2 8028   4.136   2.252   3.921
 2695TIP3   OH2 8029   3.524   7.491   6.378
 2695TIP3    H1 8030   3.441   7.537   6.386
 2695TIP3    H2 8031   3.523   7.427   6.449
 2696TIP3   OH2 8032   6.637   2.527   4.567
 2696TIP3    H1 8033   6.672   2.510   4.479
 2696TIP3    H2 8034   6.556   2.475   4.571
 2697TIP3   OH2 8035   5.017   6.342   0.839
 2697TIP3    H1 8036   4.950   6.386   0.786
 2697TIP3    H2 8037   4.974   6.264   0.873
 2698TIP3   OH2 8038   1.176   6.827   5.274
 2698TIP3    H1 8039   1.112   6.877   5.324
 2698TIP3    H2 8040   1.152   6.736   5.289
 2699TIP3   OH2 8041   1.616   6.660   6.089
 2699TIP3    H1 8042   1.593   6.740   6.137
 2699TIP3    H2 8043   1.559   6.660   6.013
 2700TIP3   OH2 8044   1.029   3.092   1.090
 2700TIP3    H1 8045   1.058   3.158   1.152
 2700TIP3    H2 8046   1.097   3.089   1.024
 2701TIP3   OH2 8047   2.214   1.921   5.651
 2701TIP3    H1 8048   2.256   1.858   5.710
 2701TIP3    H2 8049   2.189   1.994   5.707
 2702TIP3   OH2 8050   0.737   0.109   1.200
 2702TIP3    H1 8051   0.649   0.083   1.227
 2702TIP3    H2 8052   0.741   0.086   1.107
 2703TIP3   OH2 8053   2.889   3.989   2.015
 2703TIP3    H1 8054   2.809   3.942   2.038
 2703TIP3    H2 8055   2.958   3.943   2.062
 2704TIP3   OH2 8056   1.770   1.509   4.037
 2704TIP3    H1 8057   1.712   1.562   4.092
 2704TIP3    H2 8058   1.813   1.450   4.099
 2705TIP3   OH2 8059   3.334   0.338   0.635
 2705TIP3    H1 8060   3.245   0.308   0.616
 2705TIP3    H2 8061   3.388   0.259   0.632
 2706TIP3   OH2 8062  -0.012   3.883   5.137
 2706TIP3    H1 8063   0.039   3.853   5.212
 2706TIP3    H2 8064  -0.016   3.807   5.079
 2707TIP3   OH2 8065   2.202   7.038   0.358
 2707TIP3    H1 8066   2.138   6.973   0.329
 2707TIP3    H2 8067   2.176   7.119   0.312
 2708TIP3   OH2 8068   5.527   1.526   3.100
 2708TIP3    H1 8069   5.458   1.558   3.158
 2708TIP3    H2 8070   5.520   1.431   3.104
 2709TIP3   OH2 8071   6.837   6.056   5.073
 2709TIP3    H1 8072   6.857   6.074   5.165
 2709TIP3    H2 8073   6.777   5.981   5.076
 2710TIP3   OH2 8074   1.331   2.764   4.386
 2710TIP3    H1 8075   1.243   2.740   4.358
 2710TIP3    H2 8076   1.358   2.833   4.326
 2711TIP3   OH2 8077   2.930   0.932   2.596
 2711TIP3    H1 8078   2.944   0.997   2.527
 2711TIP3    H2 8079   2.904   0.853   2.548
 2712TIP3   OH2 8080   4.377   3.056   4.990
 2712TIP3    H1 8081   4.361   3.143   5.026
 2712TIP3    H2 8082   4.304   3.041   4.930
 2713TIP3   OH2 8083   5.185   2.596   3.521
 2713TIP3    H1 8084   5.198   2.587   3.615
 2713TIP3    H2 8085   5.199   2.508   3.486
 2714TIP3   OH2 8086   2.774   2.706   4.597
 2714TIP3    H1 8087   2.836   2.651   4.645
 2714TIP3    H2 8088   2.688   2.681   4.632
 2715TIP3   OH2 8089   3.305   5.121   5.144
 2715TIP3    H1 8090   3.235   5.092   5.202
 2715TIP3    H2 8091   3.360   5.044   5.132
 2716TIP3   OH2 8092   2.130   1.314   0.810
 2716TIP3    H1 8093   2.081   1.312   0.892
 2716TIP3    H2 8094   2.165   1.403   0.805
 2717TIP3   OH2 8095   6.101   0.560   1.290
 2717TIP3    H1 8096   6.086   0.637   1.345
 2717TIP3    H2 8097   6.018   0.513   1.291
 2718TIP3   OH2 8098   2.570   5.164   5.547
 2718TIP3    H1 8099   2.654   5.176   5.591
 2718TIP3    H2 8100   2.587   5.093   5.484
 2719TIP3   OH2 8101   3.187   3.889   3.904
 2719TIP3    H1 8102   3.249   3.817   3.891
 2719TIP3    H2 8103   3.101   3.846   3.903
 2720TIP3   OH2 8104   7.952   4.743   3.944
 2720TIP3    H1 8105   7.882   4.751   4.009
 2720TIP3    H2 8106   8.023   4.795   3.980
 2721TIP3   OH2 8107   7.724   2.867   3.742
 2721TIP3    H1 8108   7.775   2.854   3.822
 2721TIP3    H2 8109   7.716   2.962   3.733
 2722TIP3   OH2 8110   7.393   4.046   0.830
 2722TIP3    H1 8111   7.444   4.032   0.910
 2722TIP3    H2 8112   7.458   4.044   0.760
 2723TIP3   OH2 8113   4.484   1.220   6.042
 2723TIP3    H1 8114   4.462   1.250   6.130
 2723TIP3    H2 8115   4.573   1.185   6.050
 2724TIP3   OH2 8116   4.235   5.655   1.747
 2724TIP3    H1 8117   4.267   5.741   1.776
 2724TIP3    H2 8118   4.294   5.592   1.788
 2725TIP3   OH2 8119   5.348   2.196   4.571
 2725TIP3    H1 8120   5.328   2.281   4.532
 2725TIP3    H2 8121   5.397   2.216   4.650
 2726TIP3   OH2 8122   3.667   5.932   1.666
 2726TIP3    H1 8123   3.658   6.027   1.674
 2726TIP3    H2 8124   3.705   5.919   1.579
 2727TIP3   OH2 8125   4.871   4.901   5.079
 2727TIP3    H1 8126   4.952   4.884   5.030
 2727TIP3    H2 8127   4.823   4.964   5.025
 2728TIP3   OH2 8128   1.678   2.862   1.741
 2728TIP3    H1 8129   1.640   2.915   1.670
 2728TIP3    H2 8130   1.768   2.893   1.747
 2729TIP3   OH2 8131   4.122   3.396   4.401
 2729TIP3    H1 8132   4.038   3.379   4.357
 2729TIP3    H2 8133   4.112   3.483   4.439
 2730TIP3   OH2 8134   0.151   7.193   5.125
 2730TIP3    H1 8135   0.159   7.111   5.174
 2730TIP3    H2 8136   0.063   7.188   5.086
 2731TIP3   OH2 8137   4.304   6.695   6.702
 2731TIP3    H1 8138   4.230   6.647   6.739
 2731TIP3    H2 8139   4.380   6.640   6.721
 2732TIP3   OH2 8140   3.481   4.855   4.748
 2732TIP3    H1 8141   3.482   4.951   4.740
 2732TIP3    H2 8142   3.516   4.824   4.665
 2733TIP3   OH2 8143   4.550   1.986   3.226
 2733TIP3    H1 8144   4.474   1.976   3.169
 2733TIP3    H2 8145   4.517   2.034   3.301
 2734TIP3   OH2 8146   2.590   5.407   5.902
 2734TIP3    H1 8147   2.548   5.323   5.922
 2734TIP3    H2 8148   2.517   5.469   5.899
 2735TIP3   OH2 8149   2.055   7.562   2.011
 2735TIP3    H1 8150   2.107   7.494   2.055
 2735TIP3    H2 8151   2.073   7.549   1.918
 2736TIP3   OH2 8152   4.049   7.105   4.396
 2736TIP3    H1 8153   4.051   7.180   4.456
 2736TIP3    H2 8154   4.140   7.077   4.389
 2737TIP3   OH2 8155   4.761   4.925   5.950
 2737TIP3    H1 8156   4.837   4.951   6.002
 2737TIP3    H2 8157   4.729   4.845   5.992
 2738TIP3   OH2 8158   1.884   1.563   2.967
 2738TIP3    H1 8159   1.808   1.573   2.910
 2738TIP3    H2 8160   1.959   1.557   2.908
 2739TIP3   OH2 8161   5.712   2.023   4.536
 2739TIP3    H1 8162   5.651   1.984   4.598
 2739TIP3    H2 8163   5.749   2.098   4.582
 2740TIP3   OH2 8164   5.231   0.604   2.703
 2740TIP3    H1 8165   5.189   0.518   2.699
 2740TIP3    H2 8166   5.214   0.635   2.791
 2741TIP3   OH2 8167   0.100   7.230   6.604
 2741TIP3    H1 8168   0.066   7.194   6.686
 2741TIP3    H2 8169   0.180   7.180   6.587
 2742TIP3   OH2 8170   5.302   4.668   2.137
 2742TIP3    H1 8171   5.351   4.689   2.057
 2742TIP3    H2 8172   5.329   4.734   2.200
 2743TIP3   OH2 8173   4.350   6.966   0.956
 2743TIP3    H1 8174   4.382   7.000   0.872
 2743TIP3    H2 8175   4.395   6.883   0.968
 2744TIP3   OH2 8176   2.264   2.260   4.181
 2744TIP3    H1 8177   2.238   2.171   4.157
 2744TIP3    H2 8178   2.359   2.260   4.170
 2745TIP3   OH2 8179   8.107   7.244   1.964
 2745TIP3    H1 8180   8.181   7.202   1.920
 2745TIP3    H2 8181   8.073   7.178   2.023
 2746TIP3   OH2 8182   6.694   5.608   6.603
 2746TIP3    H1 8183   6.776   5.601   6.652
 2746TIP3    H2 8184   6.678   5.702   6.595
 2747TIP3   OH2 8185   7.373   1.670   0.595
 2747TIP3    H1 8186   7.320   1.743   0.562
 2747TIP3    H2 8187   7.338   1.652   0.682
 2748TIP3   OH2 8188   0.911   0.289   0.780
 2748TIP3    H1 8189   0.825   0.311   0.816
 2748TIP3    H2 8190   0.972   0.310   0.851
 2749TIP3   OH2 8191   1.847   3.235   0.597
 2749TIP3    H1 8192   1.917   3.279   0.644
 2749TIP3    H2 8193   1.807   3.304   0.544
 2750TIP3   OH2 8194   4.173   7.456   0.205
 2750TIP3    H1 8195   4.234   7.481   0.275
 2750TIP3    H2 8196   4.164   7.362   0.214
 2751TIP3   OH2 8197   6.564   7.567   0.941
 2751TIP3    H1 8198   6.581   7.661   0.938
 2751TIP3    H2 8199   6.593   7.534   0.856
 2752TIP3   OH2 8200   6.290   0.695   1.042
 2752TIP3    H1 8201   6.220   0.669   1.102
 2752TIP3    H2 8202   6.334   0.612   1.020
 2753TIP3   OH2 8203   0.185   3.346   2.762
 2753TIP3    H1 8204   0.270   3.380   2.736
 2753TIP3    H2 8205   0.158   3.402   2.835
 2754TIP3   OH2 8206   7.282   0.150   6.752
 2754TIP3    H1 8207   7.317   0.083   6.694
 2754TIP3    H2 8208   7.346   0.155   6.824
 2755TIP3   OH2 8209   3.591   5.785   4.588
 2755TIP3    H1 8210   3.530   5.855   4.609
 2755TIP3    H2 8211   3.541   5.726   4.531
 2756TIP3   OH2 8212   2.611   3.353   5.745
 2756TIP3    H1 8213   2.519   3.369   5.767
 2756TIP3    H2 8214   2.609   3.277   5.688
 2757TIP3   OH2 8215   3.988   0.135   2.485
 2757TIP3    H1 8216   3.977   0.138   2.390
 2757TIP3    H2 8217   4.031   0.051   2.501
 2758TIP3   OH2 8218   0.660   4.731   1.398
 2758TIP3    H1 8219   0.716   4.785   1.455
 2758TIP3    H2 8220   0.570   4.755   1.423
 2759TIP3   OH2 8221   4.472   6.814   3.205
 2759TIP3    H1 8222   4.405   6.872   3.169
 2759TIP3    H2 8223   4.460   6.821   3.300
 2760TIP3   OH2 8224   5.793   3.634   1.237
 2760TIP3    H1 8225   5.777   3.608   1.147
 2760TIP3    H2 8226   5.873   3.588   1.261
 2761TIP3   OH2 8227   2.674   7.556   1.821
 2761TIP3    H1 8228   2.713   7.590   1.901
 2761TIP3    H2 8229   2.580   7.557   1.838
 2762TIP3   OH2 8230   3.886   4.666   6.181
 2762TIP3    H1 8231   3.882   4.590   6.122
 2762TIP3    H2 8232   3.932   4.633   6.258
 2763TIP3   OH2 8233   3.111   3.932   1.037
 2763TIP3    H1 8234   3.017   3.926   1.050
 2763TIP3    H2 8235   3.149   3.880   1.108
 2764TIP3   OH2 8236   1.611   5.297   2.969
 2764TIP3    H1 8237   1.558   5.329   3.042
 2764TIP3    H2 8238   1.557   5.229   2.928
 2765TIP3   OH2 8239   7.767   5.550   0.691
 2765TIP3    H1 8240   7.794   5.511   0.608
 2765TIP3    H2 8241   7.821   5.629   0.699
 2766TIP3   OH2 8242   3.340   3.224   1.520
 2766TIP3    H1 8243   3.377   3.270   1.596
 2766TIP3    H2 8244   3.323   3.294   1.457
 2767TIP3   OH2 8245   3.542   2.034   3.518
 2767TIP3    H1 8246   3.485   2.080   3.457
 2767TIP3    H2 8247   3.493   2.031   3.600
 2768TIP3   OH2 8248   1.683   1.013   3.897
 2768TIP3    H1 8249   1.691   1.108   3.905
 2768TIP3    H2 8250   1.731   0.978   3.972
 2769TIP3   OH2 8251   1.892   3.634   4.618
 2769TIP3    H1 8252   1.850   3.678   4.544
 2769TIP3    H2 8253   1.841   3.662   4.694
 2770TIP3   OH2 8254   4.265   5.728   1.347
 2770TIP3    H1 8255   4.206   5.785   1.396
 2770TIP3    H2 8256   4.263   5.645   1.394
 2771TIP3   OH2 8257   7.996   2.633   2.114
 2771TIP3    H1 8258   7.913   2.680   2.115
 2771TIP3    H2 8259   8.052   2.684   2.055
 2772TIP3   OH2 8260   1.267   6.941   3.712
 2772TIP3    H1 8261   1.233   6.899   3.633
 2772TIP3    H2 8262   1.217   6.902   3.784
 2773TIP3   OH2 8263   3.829   0.678   0.901
 2773TIP3    H1 8264   3.892   0.724   0.957
 2773TIP3    H2 8265   3.816   0.738   0.827
 2774TIP3   OH2 8266   1.724   5.368   4.190
 2774TIP3    H1 8267   1.675   5.286   4.190
 2774TIP3    H2 8268   1.663   5.433   4.226
 2775TIP3   OH2 8269   7.436   5.380   1.712
 2775TIP3    H1 8270   7.405   5.315   1.648
 2775TIP3    H2 8271   7.391   5.355   1.793
 2776TIP3   OH2 8272   0.954   7.230   6.349
 2776TIP3    H1 8273   0.955   7.199   6.258
 2776TIP3    H2 8274   0.967   7.151   6.401
 2777TIP3   OH2 8275   5.272   5.783   4.131
 2777TIP3    H1 8276   5.346   5.827   4.089
 2777TIP3    H2 8277   5.311   5.733   4.203
 2778TIP3   OH2 8278   1.116   5.775   3.766
 2778TIP3    H1 8279   1.087   5.853   3.717
 2778TIP3    H2 8280   1.035   5.732   3.792
 2779TIP3   OH2 8281   1.529   5.945   3.454
 2779TIP3    H1 8282   1.482   6.014   3.408
 2779TIP3    H2 8283   1.510   5.865   3.404
 2780TIP3   OH2 8284   7.256   1.154   1.013
 2780TIP3    H1 8285   7.260   1.104   0.932
 2780TIP3    H2 8286   7.199   1.227   0.994
 2781TIP3   OH2 8287   3.800   3.575   4.672
 2781TIP3    H1 8288   3.825   3.645   4.732
 2781TIP3    H2 8289   3.771   3.504   4.729
 2782TIP3   OH2 8290   3.407   0.483   4.909
 2782TIP3    H1 8291   3.470   0.546   4.872
 2782TIP3    H2 8292   3.358   0.534   4.973
 2783TIP3   OH2 8293   2.842   5.166   2.334
 2783TIP3    H1 8294   2.904   5.237   2.319
 2783TIP3    H2 8295   2.896   5.087   2.337
 2784TIP3   OH2 8296   1.638   7.280   2.461
 2784TIP3    H1 8297   1.651   7.246   2.373
 2784TIP3    H2 8298   1.726   7.281   2.500
 2785TIP3   OH2 8299   0.929   6.725   3.153
 2785TIP3    H1 8300   0.929   6.635   3.120
 2785TIP3    H2 8301   1.018   6.757   3.135
 2786TIP3   OH2 8302   3.906   0.325   4.642
 2786TIP3    H1 8303   3.815   0.349   4.659
 2786TIP3    H2 8304   3.956   0.402   4.668
 2787TIP3   OH2 8305   5.839   4.015   1.484
 2787TIP3    H1 8306   5.887   3.940   1.449
 2787TIP3    H2 8307   5.845   4.082   1.415
 2788TIP3   OH2 8308   5.934   3.407   5.756
 2788TIP3    H1 8309   5.915   3.494   5.792
 2788TIP3    H2 8310   5.856   3.384   5.706
 2789TIP3   OH2 8311   4.371   4.796   5.734
 2789TIP3    H1 8312   4.435   4.798   5.663
 2789TIP3    H2 8313   4.316   4.874   5.720
 2790TIP3   OH2 8314   2.242   0.723   1.300
 2790TIP3    H1 8315   2.198   0.767   1.228
 2790TIP3    H2 8316   2.172   0.704   1.363
 2791TIP3   OH2 8317   4.159   1.233   4.397
 2791TIP3    H1 8318   4.106   1.253   4.320
 2791TIP3    H2 8319   4.115   1.279   4.468
 2792TIP3   OH2 8320   2.227   0.864   2.354
 2792TIP3    H1 8321   2.195   0.782   2.390
 2792TIP3    H2 8322   2.285   0.899   2.421
 2793TIP3   OH2 8323   3.933   3.646   3.928
 2793TIP3    H1 8324   3.931   3.606   3.841
 2793TIP3    H2 8325   4.009   3.703   3.927
 2794TIP3   OH2 8326   5.676   0.742   5.567
 2794TIP3    H1 8327   5.646   0.652   5.570
 2794TIP3    H2 8328   5.733   0.746   5.491
 2795TIP3   OH2 8329   3.807   4.756   3.232
 2795TIP3    H1 8330   3.876   4.819   3.210
 2795TIP3    H2 8331   3.727   4.796   3.197
 2796TIP3   OH2 8332   4.086   7.043   0.852
 2796TIP3    H1 8333   4.112   7.132   0.829
 2796TIP3    H2 8334   4.166   7.002   0.885
 2797TIP3   OH2 8335   0.152   4.797   6.529
 2797TIP3    H1 8336   0.206   4.858   6.578
 2797TIP3    H2 8337   0.214   4.742   6.482
 2798TIP3   OH2 8338   7.990   6.294   6.688
 2798TIP3    H1 8339   7.984   6.383   6.722
 2798TIP3    H2 8340   7.906   6.279   6.644
 2799TIP3   OH2 8341   7.923   2.927   1.209
 2799TIP3    H1 8342   7.875   2.933   1.127
 2799TIP3    H2 8343   8.000   2.874   1.187
 2800TIP3   OH2 8344   4.498   1.165   3.954
 2800TIP3    H1 8345   4.470   1.096   3.894
 2800TIP3    H2 8346   4.549   1.119   4.021
 2801TIP3   OH2 8347   4.159   1.233   0.920
 2801TIP3    H1 8348   4.162   1.327   0.902
 2801TIP3    H2 8349   4.121   1.226   1.007
 2802TIP3   OH2 8350   1.871   3.001   3.039
 2802TIP3    H1 8351   1.869   3.072   2.976
 2802TIP3    H2 8352   1.794   2.948   3.019
 2803TIP3   OH2 8353   1.421   2.156   3.440
 2803TIP3    H1 8354   1.396   2.169   3.531
 2803TIP3    H2 8355   1.422   2.061   3.428
 2804TIP3   OH2 8356   0.904   3.657   5.231
 2804TIP3    H1 8357   0.860   3.573   5.221
 2804TIP3    H2 8358   0.932   3.660   5.322
 2805TIP3   OH2 8359   7.671   7.233   1.014
 2805TIP3    H1 8360   7.615   7.242   1.091
 2805TIP3    H2 8361   7.612   7.247   0.940
 2806TIP3   OH2 8362   7.090   2.181   5.144
 2806TIP3    H1 8363   7.073   2.268   5.106
 2806TIP3    H2 8364   7.186   2.177   5.153
 2807TIP3   OH2 8365   2.914   6.060   4.642
 2807TIP3    H1 8366   2.988   6.109   4.606
 2807TIP3    H2 8367   2.955   5.990   4.693
 2808TIP3   OH2 8368   0.089   2.666   5.513
 2808TIP3    H1 8369   0.055   2.679   5.425
 2808TIP3    H2 8370   0.014   2.635   5.564
 2809TIP3   OH2 8371   8.231   3.034   3.787
 2809TIP3    H1 8372   8.164   3.049   3.720
 2809TIP3    H2 8373   8.187   3.052   3.870
 2810TIP3   OH2 8374   6.096   2.678   5.378
 2810TIP3    H1 8375   6.151   2.625   5.435
 2810TIP3    H2 8376   6.014   2.688   5.426
 2811TIP3   OH2 8377   2.681   1.641   4.329
 2811TIP3    H1 8378   2.767   1.600   4.320
 2811TIP3    H2 8379   2.699   1.735   4.323
 2812TIP3   OH2 8380   7.004   3.507   3.194
 2812TIP3    H1 8381   6.923   3.548   3.226
 2812TIP3    H2 8382   7.072   3.541   3.253
 2813TIP3   OH2 8383   2.287   7.184   1.383
 2813TIP3    H1 8384   2.208   7.153   1.340
 2813TIP3    H2 8385   2.337   7.227   1.315
 2814TIP3   OH2 8386   7.064   6.651   6.304
 2814TIP3    H1 8387   7.098   6.634   6.216
 2814TIP3    H2 8388   6.969   6.657   6.293
 2815TIP3   OH2 8389   5.351   0.943   5.534
 2815TIP3    H1 8390   5.387   0.998   5.604
 2815TIP3    H2 8391   5.304   1.004   5.477
 2816TIP3   OH2 8392   7.204   4.465   6.306
 2816TIP3    H1 8393   7.295   4.467   6.278
 2816TIP3    H2 8394   7.207   4.463   6.401
 2817TIP3   OH2 8395   3.219   5.819   2.975
 2817TIP3    H1 8396   3.139   5.871   2.986
 2817TIP3    H2 8397   3.281   5.879   2.934
 2818TIP3   OH2 8398   3.037   4.858   5.638
 2818TIP3    H1 8399   2.942   4.856   5.649
 2818TIP3    H2 8400   3.070   4.891   5.722
 2819TIP3   OH2 8401   0.476   4.779   2.351
 2819TIP3    H1 8402   0.514   4.821   2.428
 2819TIP3    H2 8403   0.497   4.839   2.279
 2820TIP3   OH2 8404   4.567   4.309   1.745
 2820TIP3    H1 8405   4.564   4.227   1.696
 2820TIP3    H2 8406   4.531   4.287   1.831
 2821TIP3   OH2 8407   8.212   4.835   1.730
 2821TIP3    H1 8408   8.224   4.742   1.712
 2821TIP3    H2 8409   8.144   4.838   1.798
 2822TIP3   OH2 8410   1.609   5.183   6.623
 2822TIP3    H1 8411   1.516   5.161   6.613
 2822TIP3    H2 8412   1.627   5.242   6.549
 2823TIP3   OH2 8413   6.276   1.632   3.935
 2823TIP3    H1 8414   6.299   1.675   4.017
 2823TIP3    H2 8415   6.259   1.541   3.958
 2824TIP3   OH2 8416   4.768   5.392   0.799
 2824TIP3    H1 8417   4.861   5.415   0.803
 2824TIP3    H2 8418   4.752   5.343   0.879
 2825TIP3   OH2 8419   7.526   6.606   6.504
 2825TIP3    H1 8420   7.457   6.649   6.455
 2825TIP3    H2 8421   7.486   6.580   6.587
 2826TIP3   OH2 8422   2.158   2.800   5.698
 2826TIP3    H1 8423   2.085   2.789   5.637
 2826TIP3    H2 8424   2.222   2.852   5.650
 2827TIP3   OH2 8425   7.362   4.036   5.277
 2827TIP3    H1 8426   7.298   4.087   5.325
 2827TIP3    H2 8427   7.412   4.101   5.226
 2828TIP3   OH2 8428   0.637   1.031   2.314
 2828TIP3    H1 8429   0.544   1.044   2.335
 2828TIP3    H2 8430   0.682   1.043   2.398
 2829TIP3   OH2 8431   1.590   3.940   4.588
 2829TIP3    H1 8432   1.573   3.907   4.676
 2829TIP3    H2 8433   1.515   3.996   4.569
 2830TIP3   OH2 8434   1.545   4.328   3.782
 2830TIP3    H1 8435   1.509   4.355   3.867
 2830TIP3    H2 8436   1.488   4.371   3.718
 2831TIP3   OH2 8437   6.229   1.177   1.367
 2831TIP3    H1 8438   6.279   1.131   1.434
 2831TIP3    H2 8439   6.269   1.263   1.361
 2832TIP3   OH2 8440   2.471   4.926   5.108
 2832TIP3    H1 8441   2.524   4.928   5.028
 2832TIP3    H2 8442   2.385   4.894   5.079
 2833TIP3   OH2 8443   2.729   3.235   3.974
 2833TIP3    H1 8444   2.792   3.291   4.020
 2833TIP3    H2 8445   2.765   3.146   3.986
 2834TIP3   OH2 8446   3.727   4.091   1.739
 2834TIP3    H1 8447   3.706   4.173   1.693
 2834TIP3    H2 8448   3.679   4.024   1.690
 2835TIP3   OH2 8449   2.919   7.578   1.732
 2835TIP3    H1 8450   2.947   7.658   1.777
 2835TIP3    H2 8451   2.824   7.582   1.732
 2836TIP3   OH2 8452   2.746   0.722   4.512
 2836TIP3    H1 8453   2.834   0.701   4.541
 2836TIP3    H2 8454   2.753   0.734   4.417
 2837TIP3   OH2 8455   1.414   1.291   4.936
 2837TIP3    H1 8456   1.442   1.381   4.921
 2837TIP3    H2 8457   1.375   1.264   4.853
 2838TIP3   OH2 8458   5.713   4.851   0.720
 2838TIP3    H1 8459   5.645   4.790   0.693
 2838TIP3    H2 8460   5.722   4.911   0.646
 2839TIP3   OH2 8461   0.609   0.636   0.417
 2839TIP3    H1 8462   0.525   0.593   0.434
 2839TIP3    H2 8463   0.587   0.730   0.417
 2840TIP3   OH2 8464   6.187   7.588   4.543
 2840TIP3    H1 8465   6.162   7.636   4.464
 2840TIP3    H2 8466   6.164   7.645   4.615
 2841TIP3   OH2 8467   2.964   0.515   6.293
 2841TIP3    H1 8468   3.024   0.481   6.227
 2841TIP3    H2 8469   2.885   0.538   6.244
 2842TIP3   OH2 8470   7.931   5.519   5.162
 2842TIP3    H1 8471   7.874   5.594   5.145
 2842TIP3    H2 8472   7.951   5.526   5.256
 2843TIP3   OH2 8473   7.417   5.501   1.127
 2843TIP3    H1 8474   7.363   5.451   1.189
 2843TIP3    H2 8475   7.501   5.510   1.171
 2844TIP3   OH2 8476   6.054   2.146   6.309
 2844TIP3    H1 8477   6.105   2.226   6.323
 2844TIP3    H2 8478   6.091   2.108   6.229
 2845TIP3   OH2 8479   6.888   3.043   6.273
 2845TIP3    H1 8480   6.824   3.008   6.335
 2845TIP3    H2 8481   6.847   3.121   6.236
 2846TIP3   OH2 8482   7.994   0.606   4.774
 2846TIP3    H1 8483   8.002   0.683   4.829
 2846TIP3    H2 8484   7.949   0.541   4.828
 2847TIP3   OH2 8485   5.402   4.498   4.979
 2847TIP3    H1 8486   5.444   4.472   5.060
 2847TIP3    H2 8487   5.467   4.554   4.935
 2848TIP3   OH2 8488   2.627   1.517   1.427
 2848TIP3    H1 8489   2.567   1.464   1.375
 2848TIP3    H2 8490   2.571   1.565   1.487
 2849TIP3   OH2 8491   2.105   1.913   4.907
 2849TIP3    H1 8492   2.024   1.887   4.950
 2849TIP3    H2 8493   2.167   1.929   4.979
 2850TIP3   OH2 8494   2.212   4.726   2.128
 2850TIP3    H1 8495   2.187   4.737   2.219
 2850TIP3    H2 8496   2.167   4.796   2.081
 2851TIP3   OH2 8497   5.615   4.088   2.996
 2851TIP3    H1 8498   5.597   4.182   3.003
 2851TIP3    H2 8499   5.649   4.078   2.907
 2852TIP3   OH2 8500   8.094   0.074   3.620
 2852TIP3    H1 8501   8.002   0.083   3.644
 2852TIP3    H2 8502   8.096   0.082   3.525
 2853TIP3   OH2 8503   2.170   3.587   3.967
 2853TIP3    H1 8504   2.098   3.636   3.927
 2853TIP3    H2 8505   2.166   3.500   3.927
 2854TIP3   OH2 8506   7.564   1.382   3.082
 2854TIP3    H1 8507   7.650   1.409   3.050
 2854TIP3    H2 8508   7.503   1.446   3.047
 2855TIP3   OH2 8509   1.925   1.556   0.167
 2855TIP3    H1 8510   1.916   1.553   0.072
 2855TIP3    H2 8511   2.018   1.569   0.182
 2856TIP3   OH2 8512   3.010   0.409   2.981
 2856TIP3    H1 8513   2.976   0.487   2.936
 2856TIP3    H2 8514   2.943   0.342   2.968
 2857TIP3   OH2 8515   2.896   6.418   2.021
 2857TIP3    H1 8516   2.881   6.511   2.036
 2857TIP3    H2 8517   2.969   6.415   1.959
 2858TIP3   OH2 8518   4.687   1.013   4.791
 2858TIP3    H1 8519   4.762   1.070   4.778
 2858TIP3    H2 8520   4.614   1.072   4.809
 2859TIP3   OH2 8521   2.984   5.149   5.865
 2859TIP3    H1 8522   3.012   5.168   5.955
 2859TIP3    H2 8523   2.956   5.234   5.830
 2860TIP3   OH2 8524   2.461   3.513   6.048
 2860TIP3    H1 8525   2.467   3.502   6.143
 2860TIP3    H2 8526   2.385   3.460   6.022
 2861TIP3   OH2 8527   3.607   1.278   3.182
 2861TIP3    H1 8528   3.662   1.257   3.107
 2861TIP3    H2 8529   3.525   1.232   3.167
 2862TIP3   OH2 8530   2.742   5.922   4.932
 2862TIP3    H1 8531   2.666   5.870   4.905
 2862TIP3    H2 8532   2.716   6.013   4.913
 2863TIP3   OH2 8533   0.284   6.921   4.489
 2863TIP3    H1 8534   0.336   6.893   4.564
 2863TIP3    H2 8535   0.275   7.015   4.501
 2864TIP3   OH2 8536   5.411   5.774   1.949
 2864TIP3    H1 8537   5.443   5.865   1.949
 2864TIP3    H2 8538   5.316   5.782   1.952
 2865TIP3   OH2 8539   0.173   3.043   1.592
 2865TIP3    H1 8540   0.148   2.996   1.513
 2865TIP3    H2 8541   0.145   3.133   1.576
 2866TIP3   OH2 8542   4.953   5.606   1.083
 2866TIP3    H1 8543   4.993   5.692   1.097
 2866TIP3    H2 8544   4.970   5.587   0.991
 2867TIP3   OH2 8545   7.530   3.664   4.243
 2867TIP3    H1 8546   7.498   3.602   4.309
 2867TIP3    H2 8547   7.499   3.749   4.273
 2868TIP3   OH2 8548   1.532   0.136   3.759
 2868TIP3    H1 8549   1.531   0.137   3.855
 2868TIP3    H2 8550   1.444   0.164   3.734
 2869TIP3   OH2 8551   4.319   5.358   2.257
 2869TIP3    H1 8552   4.356   5.286   2.206
 2869TIP3    H2 8553   4.282   5.315   2.335
 2870TIP3   OH2 8554   3.526   1.928   2.266
 2870TIP3    H1 8555   3.444   1.898   2.306
 2870TIP3    H2 8556   3.525   2.023   2.277
 2871TIP3   OH2 8557   2.232   4.194   1.013
 2871TIP3    H1 8558   2.209   4.146   0.933
 2871TIP3    H2 8559   2.242   4.126   1.080
 2872TIP3   OH2 8560   7.926   1.153   0.487
 2872TIP3    H1 8561   7.965   1.207   0.556
 2872TIP3    H2 8562   7.836   1.186   0.479
 2873TIP3   OH2 8563   2.420   1.154   0.374
 2873TIP3    H1 8564   2.388   1.120   0.290
 2873TIP3    H2 8565   2.496   1.207   0.351
 2874TIP3   OH2 8566   3.336   6.629   3.920
 2874TIP3    H1 8567   3.364   6.674   3.841
 2874TIP3    H2 8568   3.260   6.577   3.893
 2875TIP3   OH2 8569   6.378   4.970   2.009
 2875TIP3    H1 8570   6.315   4.904   2.036
 2875TIP3    H2 8571   6.419   4.999   2.090
 2876TIP3   OH2 8572   7.753   7.798   5.291
 2876TIP3    H1 8573   7.680   7.748   5.254
 2876TIP3    H2 8574   7.732   7.889   5.271
 2877TIP3   OH2 8575   5.369   3.023   4.256
 2877TIP3    H1 8576   5.349   3.097   4.200
 2877TIP3    H2 8577   5.372   2.948   4.197
 2878TIP3   OH2 8578   5.592   6.689   5.330
 2878TIP3    H1 8579   5.551   6.605   5.309
 2878TIP3    H2 8580   5.527   6.754   5.305
 2879TIP3   OH2 8581   3.089   4.391   2.825
 2879TIP3    H1 8582   3.056   4.307   2.859
 2879TIP3    H2 8583   3.157   4.366   2.763
 2880TIP3   OH2 8584   3.366   3.227   6.026
 2880TIP3    H1 8585   3.279   3.260   6.005
 2880TIP3    H2 8586   3.426   3.290   5.985
 2881TIP3   OH2 8587   5.473   3.400   3.520
 2881TIP3    H1 8588   5.482   3.318   3.568
 2881TIP3    H2 8589   5.451   3.465   3.587
 2882TIP3   OH2 8590   0.363   5.961   3.291
 2882TIP3    H1 8591   0.354   5.946   3.385
 2882TIP3    H2 8592   0.324   6.047   3.276
 2883TIP3   OH2 8593   4.021   6.637   4.252
 2883TIP3    H1 8594   4.113   6.639   4.280
 2883TIP3    H2 8595   3.984   6.560   4.295
 2884TIP3   OH2 8596   5.030   5.145   2.533
 2884TIP3    H1 8597   5.123   5.166   2.535
 2884TIP3    H2 8598   4.989   5.218   2.488
 2885TIP3   OH2 8599   2.386   4.223   3.203
 2885TIP3    H1 8600   2.448   4.166   3.157
 2885TIP3    H2 8601   2.392   4.307   3.159
 2886TIP3   OH2 8602   3.598   4.889   1.318
 2886TIP3    H1 8603   3.527   4.882   1.381
 2886TIP3    H2 8604   3.609   4.800   1.284
 2887TIP3   OH2 8605   5.769   5.994   6.319
 2887TIP3    H1 8606   5.787   5.969   6.410
 2887TIP3    H2 8607   5.673   6.001   6.315
 2888TIP3   OH2 8608   2.150   1.006   1.439
 2888TIP3    H1 8609   2.111   0.938   1.384
 2888TIP3    H2 8610   2.076   1.060   1.466
 2889TIP3   OH2 8611   1.210   2.024   0.509
 2889TIP3    H1 8612   1.301   2.042   0.485
 2889TIP3    H2 8613   1.212   1.936   0.545
 2890TIP3   OH2 8614   4.441   0.683   4.424
 2890TIP3    H1 8615   4.392   0.737   4.362
 2890TIP3    H2 8616   4.452   0.739   4.501
 2891TIP3   OH2 8617   4.586   2.576   6.478
 2891TIP3    H1 8618   4.613   2.485   6.472
 2891TIP3    H2 8619   4.495   2.572   6.508
 2892TIP3   OH2 8620   3.448   2.372   1.445
 2892TIP3    H1 8621   3.354   2.369   1.462
 2892TIP3    H2 8622   3.477   2.452   1.489
 2893TIP3   OH2 8623   2.888   3.384   3.374
 2893TIP3    H1 8624   2.823   3.342   3.430
 2893TIP3    H2 8625   2.945   3.312   3.345
 2894TIP3   OH2 8626   5.813   4.280   0.498
 2894TIP3    H1 8627   5.722   4.308   0.489
 2894TIP3    H2 8628   5.820   4.250   0.589
 2895TIP3   OH2 8629   2.100   0.568   5.179
 2895TIP3    H1 8630   2.150   0.600   5.253
 2895TIP3    H2 8631   2.112   0.634   5.111
 2896TIP3   OH2 8632   6.871   5.049   5.011
 2896TIP3    H1 8633   6.925   5.088   5.080
 2896TIP3    H2 8634   6.827   5.124   4.971
 2897TIP3   OH2 8635   7.043   7.489   6.411
 2897TIP3    H1 8636   6.991   7.475   6.490
 2897TIP3    H2 8637   7.118   7.430   6.420
 2898TIP3   OH2 8638   8.005   2.018   1.959
 2898TIP3    H1 8639   8.087   2.066   1.949
 2898TIP3    H2 8640   7.937   2.081   1.934
 2899TIP3   OH2 8641   2.410   0.051   2.564
 2899TIP3    H1 8642   2.347   0.076   2.631
 2899TIP3    H2 8643   2.438  -0.038   2.589
 2900TIP3   OH2 8644   2.596   6.711   5.310
 2900TIP3    H1 8645   2.608   6.622   5.341
 2900TIP3    H2 8646   2.595   6.703   5.214
 2901TIP3   OH2 8647   5.273   0.456   0.093
 2901TIP3    H1 8648   5.216   0.393   0.050
 2901TIP3    H2 8649   5.272   0.533   0.036
 2902TIP3   OH2 8650   6.672   2.108   3.442
 2902TIP3    H1 8651   6.714   2.146   3.365
 2902TIP3    H2 8652   6.707   2.159   3.516
 2903TIP3   OH2 8653   2.636   0.883   0.181
 2903TIP3    H1 8654   2.548   0.905   0.152
 2903TIP3    H2 8655   2.664   0.958   0.234
 2904TIP3   OH2 8656   1.484   7.146   3.466
 2904TIP3    H1 8657   1.536   7.073   3.499
 2904TIP3    H2 8658   1.426   7.108   3.400
 2905TIP3   OH2 8659   1.289   2.399   3.990
 2905TIP3    H1 8660   1.275   2.382   4.084
 2905TIP3    H2 8661   1.256   2.488   3.977
 2906TIP3   OH2 8662   5.999   5.306   1.942
 2906TIP3    H1 8663   6.009   5.236   1.878
 2906TIP3    H2 8664   6.056   5.281   2.015
 2907TIP3   OH2 8665   1.240   3.427   0.958
 2907TIP3    H1 8666   1.298   3.443   1.033
 2907TIP3    H2 8667   1.300   3.410   0.885
 2908TIP3   OH2 8668   3.226   3.967   2.199
 2908TIP3    H1 8669   3.169   4.001   2.267
 2908TIP3    H2 8670   3.286   4.040   2.179
 2909TIP3   OH2 8671   2.660   0.750   6.049
 2909TIP3    H1 8672   2.617   0.693   5.986
 2909TIP3    H2 8673   2.633   0.717   6.135
 2910TIP3   OH2 8674   3.856   5.615   3.451
 2910TIP3    H1 8675   3.848   5.703   3.413
 2910TIP3    H2 8676   3.926   5.623   3.516
 2911TIP3   OH2 8677   4.196   2.766   5.041
 2911TIP3    H1 8678   4.241   2.842   5.004
 2911TIP3    H2 8679   4.104   2.794   5.048
 2912TIP3   OH2 8680   7.735   4.524   4.047
 2912TIP3    H1 8681   7.766   4.614   4.060
 2912TIP3    H2 8682   7.660   4.516   4.105
 2913TIP3   OH2 8683   3.155   0.089   2.869
 2913TIP3    H1 8684   3.175   0.138   2.789
 2913TIP3    H2 8685   3.146  -0.001   2.840
 2914TIP3   OH2 8686   5.631   4.317   2.582
 2914TIP3    H1 8687   5.672   4.254   2.641
 2914TIP3    H2 8688   5.556   4.351   2.631
 2915TIP3   OH2 8689   1.922   5.793   2.101
 2915TIP3    H1 8690   1.891   5.841   2.025
 2915TIP3    H2 8691   1.853   5.730   2.120
 2916TIP3   OH2 8692   1.003   5.548   2.080
 2916TIP3    H1 8693   1.019   5.474   2.021
 2916TIP3    H2 8694   1.066   5.536   2.151
 2917TIP3   OH2 8695   4.048   5.124   4.581
 2917TIP3    H1 8696   4.025   5.087   4.495
 2917TIP3    H2 8697   4.086   5.050   4.629
 2918TIP3   OH2 8698   3.702   6.196   4.820
 2918TIP3    H1 8699   3.762   6.150   4.761
 2918TIP3    H2 8700   3.653   6.255   4.763
 2919TIP3   OH2 8701   2.363   1.166   6.161
 2919TIP3    H1 8702   2.398   1.094   6.215
 2919TIP3    H2 8703   2.268   1.158   6.169
 2920TIP3   OH2 8704   7.841   5.151   2.480
 2920TIP3    H1 8705   7.787   5.229   2.495
 2920TIP3    H2 8706   7.896   5.174   2.405
 2921TIP3   OH2 8707   4.502   2.349   2.579
 2921TIP3    H1 8708   4.496   2.261   2.542
 2921TIP3    H2 8709   4.411   2.377   2.590
 2922TIP3   OH2 8710   2.225   3.525   5.174
 2922TIP3    H1 8711   2.290   3.501   5.108
 2922TIP3    H2 8712   2.225   3.452   5.235
 2923TIP3   OH2 8713   2.406   5.976   5.944
 2923TIP3    H1 8714   2.441   6.013   5.863
 2923TIP3    H2 8715   2.312   5.994   5.941
 2924TIP3   OH2 8716   2.827   6.874   0.777
 2924TIP3    H1 8717   2.770   6.948   0.798
 2924TIP3    H2 8718   2.905   6.913   0.739
 2925TIP3   OH2 8719   1.232   5.752   6.645
 2925TIP3    H1 8720   1.194   5.800   6.571
 2925TIP3    H2 8721   1.158   5.737   6.704
 2926TIP3   OH2 8722   2.706   1.048   3.609
 2926TIP3    H1 8723   2.757   0.969   3.623
 2926TIP3    H2 8724   2.664   1.066   3.693
 2927TIP3   OH2 8725   5.949   1.107   3.182
 2927TIP3    H1 8726   5.901   1.093   3.100
 2927TIP3    H2 8727   5.903   1.179   3.224
 2928TIP3   OH2 8728   2.755   5.636   5.949
 2928TIP3    H1 8729   2.758   5.543   5.925
 2928TIP3    H2 8730   2.687   5.673   5.893
 2929TIP3   OH2 8731   1.080   1.972   2.920
 2929TIP3    H1 8732   0.996   2.011   2.897
 2929TIP3    H2 8733   1.075   1.882   2.886
 2930TIP3   OH2 8734   5.715   5.442   4.916
 2930TIP3    H1 8735   5.790   5.485   4.955
 2930TIP3    H2 8736   5.641   5.499   4.937
 2931TIP3   OH2 8737   1.848   3.072   0.926
 2931TIP3    H1 8738   1.928   3.067   0.874
 2931TIP3    H2 8739   1.846   3.162   0.959
 2932TIP3   OH2 8740   8.206   2.036   1.356
 2932TIP3    H1 8741   8.206   2.034   1.452
 2932TIP3    H2 8742   8.271   1.970   1.331
 2933TIP3   OH2 8743   4.369   0.950   6.774
 2933TIP3    H1 8744   4.361   0.856   6.755
 2933TIP3    H2 8745   4.463   0.967   6.775
 2934TIP3   OH2 8746   0.329   5.368   1.771
 2934TIP3    H1 8747   0.330   5.442   1.710
 2934TIP3    H2 8748   0.407   5.317   1.748
 2935TIP3   OH2 8749   0.988   7.037   4.362
 2935TIP3    H1 8750   1.081   7.015   4.356
 2935TIP3    H2 8751   0.955   7.029   4.273
 2936TIP3   OH2 8752   3.860   5.620   5.381
 2936TIP3    H1 8753   3.797   5.590   5.447
 2936TIP3    H2 8754   3.839   5.712   5.369
 2937TIP3   OH2 8755   2.208   6.039   6.237
 2937TIP3    H1 8756   2.203   5.994   6.321
 2937TIP3    H2 8757   2.179   6.128   6.256
 2938TIP3   OH2 8758   1.001   0.788   3.666
 2938TIP3    H1 8759   1.028   0.745   3.747
 2938TIP3    H2 8760   1.049   0.871   3.666
 2939TIP3   OH2 8761   0.349   4.278   5.110
 2939TIP3    H1 8762   0.400   4.358   5.117
 2939TIP3    H2 8763   0.414   4.208   5.111
 2940TIP3   OH2 8764   0.532   0.734   6.362
 2940TIP3    H1 8765   0.470   0.661   6.366
 2940TIP3    H2 8766   0.504   0.793   6.431
 2941TIP3   OH2 8767   1.663   5.863   2.819
 2941TIP3    H1 8768   1.655   5.792   2.883
 2941TIP3    H2 8769   1.656   5.943   2.871
 2942TIP3   OH2 8770   0.139   4.341   2.039
 2942TIP3    H1 8771   0.141   4.429   2.004
 2942TIP3    H2 8772   0.117   4.352   2.132
 2943TIP3   OH2 8773   6.905   6.091   2.147
 2943TIP3    H1 8774   6.861   6.165   2.188
 2943TIP3    H2 8775   6.870   6.089   2.058
 2944TIP3   OH2 8776   2.812   6.460   2.907
 2944TIP3    H1 8777   2.836   6.526   2.972
 2944TIP3    H2 8778   2.861   6.484   2.829
 2945TIP3   OH2 8779   5.603   2.838   0.497
 2945TIP3    H1 8780   5.522   2.884   0.518
 2945TIP3    H2 8781   5.579   2.746   0.498
 2946TIP3   OH2 8782   1.169   2.970   5.206
 2946TIP3    H1 8783   1.167   2.881   5.170
 2946TIP3    H2 8784   1.259   2.999   5.193
 2947TIP3   OH2 8785   1.953   3.562   3.153
 2947TIP3    H1 8786   1.951   3.551   3.248
 2947TIP3    H2 8787   1.981   3.652   3.140
 2948TIP3   OH2 8788   3.426   1.538   1.354
 2948TIP3    H1 8789   3.478   1.610   1.389
 2948TIP3    H2 8790   3.420   1.474   1.425
 2949TIP3   OH2 8791   4.220   5.549   4.436
 2949TIP3    H1 8792   4.247   5.471   4.485
 2949TIP3    H2 8793   4.230   5.621   4.497
 2950TIP3   OH2 8794   2.228   4.601   2.516
 2950TIP3    H1 8795   2.268   4.527   2.562
 2950TIP3    H2 8796   2.286   4.616   2.441
 2951TIP3   OH2 8797   5.264   5.106   0.183
 2951TIP3    H1 8798   5.170   5.125   0.189
 2951TIP3    H2 8799   5.288   5.074   0.270
 2952TIP3   OH2 8800   8.143   4.124   0.191
 2952TIP3    H1 8801   8.217   4.152   0.136
 2952TIP3    H2 8802   8.067   4.135   0.134
 2953TIP3   OH2 8803   2.576   7.331   0.891
 2953TIP3    H1 8804   2.529   7.356   0.812
 2953TIP3    H2 8805   2.612   7.414   0.924
 2954TIP3   OH2 8806   3.970   1.584   3.546
 2954TIP3    H1 8807   4.025   1.647   3.594
 2954TIP3    H2 8808   4.013   1.575   3.461
 2955TIP3   OH2 8809   4.583   0.370   1.172
 2955TIP3    H1 8810   4.544   0.334   1.092
 2955TIP3    H2 8811   4.672   0.335   1.173
 2956TIP3   OH2 8812   7.259   3.285   1.941
 2956TIP3    H1 8813   7.322   3.214   1.957
 2956TIP3    H2 8814   7.202   3.284   2.017
 2957TIP3   OH2 8815   2.764   7.016   6.437
 2957TIP3    H1 8816   2.722   7.091   6.479
 2957TIP3    H2 8817   2.826   7.056   6.375
 2958TIP3   OH2 8818   8.206   2.702   1.887
 2958TIP3    H1 8819   8.247   2.737   1.809
 2958TIP3    H2 8820   8.209   2.774   1.950
 2959TIP3   OH2 8821   5.326   0.449   3.456
 2959TIP3    H1 8822   5.311   0.534   3.414
 2959TIP3    H2 8823   5.250   0.436   3.513
 2960TIP3   OH2 8824   3.864   3.546   0.781
 2960TIP3    H1 8825   3.855   3.514   0.691
 2960TIP3    H2 8826   3.920   3.481   0.824
 2961TIP3   OH2 8827   3.012   5.088   3.806
 2961TIP3    H1 8828   2.919   5.068   3.795
 2961TIP3    H2 8829   3.051   5.071   3.720
 2962TIP3   OH2 8830   8.218   1.280   2.676
 2962TIP3    H1 8831   8.152   1.340   2.641
 2962TIP3    H2 8832   8.280   1.267   2.604
 2963TIP3   OH2 8833   4.066   7.292   3.824
 2963TIP3    H1 8834   4.123   7.287   3.901
 2963TIP3    H2 8835   4.015   7.372   3.838
 2964TIP3   OH2 8836   6.071   5.930   6.091
 2964TIP3    H1 8837   6.074   5.914   6.186
 2964TIP3    H2 8838   6.159   5.908   6.060
 2965TIP3   OH2 8839   2.953   2.142   6.125
 2965TIP3    H1 8840   3.027   2.081   6.126
 2965TIP3    H2 8841   2.992   2.227   6.142
 2966TIP3   OH2 8842   0.406   0.561   4.861
 2966TIP3    H1 8843   0.322   0.549   4.907
 2966TIP3    H2 8844   0.410   0.654   4.842
 2967TIP3   OH2 8845   0.169   6.662   4.044
 2967TIP3    H1 8846   0.078   6.688   4.030
 2967TIP3    H2 8847   0.210   6.739   4.084
 2968TIP3   OH2 8848   2.515   4.054   1.354
 2968TIP3    H1 8849   2.470   4.076   1.436
 2968TIP3    H2 8850   2.602   4.093   1.364
 2969TIP3   OH2 8851   1.040   3.618   0.229
 2969TIP3    H1 8852   1.115   3.619   0.170
 2969TIP3    H2 8853   1.036   3.708   0.262
 2970TIP3   OH2 8854   2.709   6.861   4.647
 2970TIP3    H1 8855   2.768   6.834   4.718
 2970TIP3    H2 8856   2.723   6.956   4.640
 2971TIP3   OH2 8857   3.671   0.796   1.125
 2971TIP3    H1 8858   3.666   0.878   1.076
 2971TIP3    H2 8859   3.764   0.771   1.121
 2972TIP3   OH2 8860   6.988   2.460   2.892
 2972TIP3    H1 8861   6.940   2.489   2.815
 2972TIP3    H2 8862   6.933   2.485   2.966
 2973TIP3   OH2 8863   6.024   6.521   0.424
 2973TIP3    H1 8864   5.945   6.558   0.464
 2973TIP3    H2 8865   6.059   6.462   0.491
 2974TIP3   OH2 8866   1.407   4.663   5.618
 2974TIP3    H1 8867   1.479   4.600   5.621
 2974TIP3    H2 8868   1.450   4.749   5.615
 2975TIP3   OH2 8869   3.326   0.256   1.989
 2975TIP3    H1 8870   3.404   0.245   1.934
 2975TIP3    H2 8871   3.354   0.224   2.075
 2976TIP3   OH2 8872   4.422   5.876   6.565
 2976TIP3    H1 8873   4.504   5.844   6.529
 2976TIP3    H2 8874   4.448   5.937   6.634
 2977TIP3   OH2 8875   6.352   5.976   2.498
 2977TIP3    H1 8876   6.355   5.893   2.449
 2977TIP3    H2 8877   6.291   6.031   2.448
 2978TIP3   OH2 8878   0.432   0.929   3.549
 2978TIP3    H1 8879   0.520   0.899   3.526
 2978TIP3    H2 8880   0.394   0.857   3.600
 2979TIP3   OH2 8881   6.248   5.355   2.863
 2979TIP3    H1 8882   6.168   5.395   2.897
 2979TIP3    H2 8883   6.234   5.261   2.873
 2980TIP3   OH2 8884   6.991   2.436   5.282
 2980TIP3    H1 8885   6.942   2.364   5.320
 2980TIP3    H2 8886   6.953   2.448   5.195
 2981TIP3   OH2 8887   1.216   0.814   6.143
 2981TIP3    H1 8888   1.240   0.732   6.100
 2981TIP3    H2 8889   1.270   0.817   6.222
 2982TIP3   OH2 8890   5.201   1.856   3.021
 2982TIP3    H1 8891   5.289   1.854   3.060
 2982TIP3    H2 8892   5.146   1.809   3.084
 2983TIP3   OH2 8893   5.316   2.511   3.041
 2983TIP3    H1 8894   5.296   2.512   3.135
 2983TIP3    H2 8895   5.352   2.598   3.023
 2984TIP3   OH2 8896   7.436   5.328   3.290
 2984TIP3    H1 8897   7.512   5.304   3.344
 2984TIP3    H2 8898   7.443   5.423   3.281
 2985TIP3   OH2 8899   7.982   3.113   4.961
 2985TIP3    H1 8900   7.948   3.195   4.926
 2985TIP3    H2 8901   7.989   3.128   5.055
 2986TIP3   OH2 8902   7.487   4.341   6.370
 2986TIP3    H1 8903   7.559   4.362   6.311
 2986TIP3    H2 8904   7.512   4.383   6.453
 2987TIP3   OH2 8905   2.436   3.096   5.238
 2987TIP3    H1 8906   2.346   3.072   5.259
 2987TIP3    H2 8907   2.489   3.055   5.307
 2988TIP3   OH2 8908   6.635   4.926   0.988
 2988TIP3    H1 8909   6.726   4.929   1.017
 2988TIP3    H2 8910   6.587   4.888   1.061
 2989TIP3   OH2 8911   5.685   6.914   2.190
 2989TIP3    H1 8912   5.774   6.927   2.157
 2989TIP3    H2 8913   5.696   6.873   2.276
 2990TIP3   OH2 8914   5.390   2.906   1.655
 2990TIP3    H1 8915   5.481   2.908   1.627
 2990TIP3    H2 8916   5.381   2.981   1.714
 2991TIP3   OH2 8917   0.757   0.118   2.044
 2991TIP3    H1 8918   0.769   0.211   2.064
 2991TIP3    H2 8919   0.663   0.108   2.030
 2992TIP3   OH2 8920   2.757   4.174   1.017
 2992TIP3    H1 8921   2.669   4.142   0.999
 2992TIP3    H2 8922   2.786   4.212   0.934
 2993TIP3   OH2 8923   3.361   0.702   0.073
 2993TIP3    H1 8924   3.349   0.779   0.130
 2993TIP3    H2 8925   3.277   0.657   0.078
 2994TIP3   OH2 8926   1.481   1.485   0.698
 2994TIP3    H1 8927   1.562   1.434   0.689
 2994TIP3    H2 8928   1.422   1.427   0.747
 2995TIP3   OH2 8929   1.073   0.353   2.346
 2995TIP3    H1 8930   1.097   0.425   2.404
 2995TIP3    H2 8931   1.131   0.281   2.371
 2996TIP3   OH2 8932   4.634   6.771   6.513
 2996TIP3    H1 8933   4.686   6.696   6.544
 2996TIP3    H2 8934   4.663   6.844   6.568
 2997TIP3   OH2 8935   1.742   7.161   5.021
 2997TIP3    H1 8936   1.766   7.197   5.106
 2997TIP3    H2 8937   1.808   7.196   4.961
 2998TIP3   OH2 8938   2.391   1.938   2.676
 2998TIP3    H1 8939   2.481   1.907   2.672
 2998TIP3    H2 8940   2.353   1.895   2.753
 2999TIP3   OH2 8941   0.095   6.383   4.292
 2999TIP3    H1 8942   0.133   6.298   4.266
 2999TIP3    H2 8943   0.103   6.384   4.387
 3000TIP3   OH2 8944   3.252   1.435   0.142
 3000TIP3    H1 8945   3.248   1.445   0.047
 3000TIP3    H2 8946   3.344   1.414   0.160
 3001TIP3   OH2 8947   1.072   3.151   4.326
 3001TIP3    H1 8948   1.033   3.068   4.299
 3001TIP3    H2 8949   1.014   3.183   4.395
 3002TIP3   OH2 8950   1.964   5.445   2.319
 3002TIP3    H1 8951   2.020   5.487   2.254
 3002TIP3    H2 8952   1.944   5.359   2.281
 3003TIP3   OH2 8953   1.609   5.737   1.942
 3003TIP3    H1 8954   1.636   5.681   2.014
 3003TIP3    H2 8955   1.690   5.777   1.910
 3004TIP3   OH2 8956   4.657   5.092   6.706
 3004TIP3    H1 8957   4.636   5.151   6.634
 3004TIP3    H2 8958   4.749   5.069   6.693
 3005TIP3   OH2 8959   1.368   1.314   0.885
 3005TIP3    H1 8960   1.281   1.332   0.922
 3005TIP3    H2 8961   1.413   1.264   0.954
 3006TIP3   OH2 8962   5.146   5.953   3.888
 3006TIP3    H1 8963   5.155   5.901   3.968
 3006TIP3    H2 8964   5.130   5.889   3.819
 3007TIP3   OH2 8965   0.258   0.956   0.220
 3007TIP3    H1 8966   0.178   0.985   0.174
 3007TIP3    H2 8967   0.264   1.014   0.296
 3008TIP3   OH2 8968   1.827   4.775   2.539
 3008TIP3    H1 8969   1.746   4.791   2.587
 3008TIP3    H2 8970   1.833   4.680   2.532
 3009TIP3   OH2 8971   2.480   5.520   6.576
 3009TIP3    H1 8972   2.435   5.561   6.502
 3009TIP3    H2 8973   2.573   5.528   6.555
 3010TIP3   OH2 8974   0.214   3.476   6.204
 3010TIP3    H1 8975   0.297   3.433   6.224
 3010TIP3    H2 8976   0.165   3.473   6.287
 3011TIP3   OH2 8977   0.791   0.331   4.278
 3011TIP3    H1 8978   0.862   0.303   4.336
 3011TIP3    H2 8979   0.723   0.264   4.289
 3012TIP3   OH2 8980   3.998   5.942   6.346
 3012TIP3    H1 8981   4.025   5.902   6.263
 3012TIP3    H2 8982   4.078   5.977   6.383
 3013TIP3   OH2 8983   0.582   4.459   2.328
 3013TIP3    H1 8984   0.545   4.544   2.353
 3013TIP3    H2 8985   0.515   4.419   2.273
 3014TIP3   OH2 8986   0.389   0.087   3.633
 3014TIP3    H1 8987   0.325   0.020   3.658
 3014TIP3    H2 8988   0.450   0.089   3.706
 3015TIP3   OH2 8989   5.064   1.724   3.214
 3015TIP3    H1 8990   5.064   1.629   3.205
 3015TIP3    H2 8991   4.973   1.747   3.232
 3016TIP3   OH2 8992   4.024   1.311   4.615
 3016TIP3    H1 8993   4.012   1.216   4.616
 3016TIP3    H2 8994   3.936   1.345   4.602
 3017TIP3   OH2 8995   1.133   4.543   3.747
 3017TIP3    H1 8996   1.181   4.476   3.698
 3017TIP3    H2 8997   1.188   4.621   3.740
 3018TIP3   OH2 8998   4.752   3.031   2.873
 3018TIP3    H1 8999   4.814   3.066   2.809
 3018TIP3    H2 9000   4.710   3.108   2.910
 3019TIP3   OH2 9001   3.543   1.479   6.366
 3019TIP3    H1 9002   3.534   1.547   6.300
 3019TIP3    H2 9003   3.533   1.397   6.317
 3020TIP3   OH2 9004   4.866   7.451   6.605
 3020TIP3    H1 9005   4.792   7.400   6.570
 3020TIP3    H2 9006   4.833   7.541   6.607
 3021TIP3   OH2 9007   6.222   7.097   5.030
 3021TIP3    H1 9008   6.172   7.032   5.080
 3021TIP3    H2 9009   6.267   7.045   4.963
 3022TIP3   OH2 9010   6.623   6.877   2.401
 3022TIP3    H1 9011   6.707   6.914   2.374
 3022TIP3    H2 9012   6.587   6.942   2.462
 3023TIP3   OH2 9013   7.737   6.058   1.106
 3023TIP3    H1 9014   7.829   6.086   1.105
 3023TIP3    H2 9015   7.694   6.116   1.042
 3024TIP3   OH2 9016   7.726   0.257   3.471
 3024TIP3    H1 9017   7.639   0.293   3.454
 3024TIP3    H2 9018   7.726   0.171   3.428
 3025TIP3   OH2 9019   1.846   4.578   4.638
 3025TIP3    H1 9020   1.777   4.522   4.604
 3025TIP3    H2 9021   1.874   4.535   4.719
 3026TIP3   OH2 9022   8.040   5.957   0.188
 3026TIP3    H1 9023   8.095   6.035   0.196
 3026TIP3    H2 9024   8.100   5.884   0.207
 3027TIP3   OH2 9025   8.138   2.038   0.985
 3027TIP3    H1 9026   8.205   2.036   1.054
 3027TIP3    H2 9027   8.065   1.989   1.022
 3028TIP3   OH2 9028   2.774   3.846   5.407
 3028TIP3    H1 9029   2.805   3.841   5.316
 3028TIP3    H2 9030   2.697   3.903   5.403
 3029TIP3   OH2 9031   0.817   4.628   0.326
 3029TIP3    H1 9032   0.763   4.580   0.263
 3029TIP3    H2 9033   0.793   4.720   0.313
 3030TIP3   OH2 9034   5.803   4.115   1.857
 3030TIP3    H1 9035   5.878   4.087   1.909
 3030TIP3    H2 9036   5.836   4.187   1.803
 3031TIP3   OH2 9037   5.034   4.064   2.232
 3031TIP3    H1 9038   5.066   4.104   2.150
 3031TIP3    H2 9039   4.963   4.122   2.259
 3032TIP3   OH2 9040   8.275   4.558   3.608
 3032TIP3    H1 9041   8.298   4.543   3.517
 3032TIP3    H2 9042   8.316   4.642   3.630
 3033TIP3   OH2 9043   6.985   3.617   4.334
 3033TIP3    H1 9044   6.931   3.634   4.411
 3033TIP3    H2 9045   6.945   3.669   4.264
 3034TIP3   OH2 9046   3.386   6.007   6.296
 3034TIP3    H1 9047   3.329   5.954   6.350
 3034TIP3    H2 9048   3.473   5.998   6.335
 3035TIP3   OH2 9049   3.550   2.804   4.486
 3035TIP3    H1 9050   3.622   2.774   4.542
 3035TIP3    H2 9051   3.510   2.724   4.453
 3036TIP3   OH2 9052   7.706   2.215   3.527
 3036TIP3    H1 9053   7.744   2.286   3.579
 3036TIP3    H2 9054   7.781   2.175   3.482
 3037TIP3   OH2 9055   8.198   2.416   0.795
 3037TIP3    H1 9056   8.158   2.481   0.737
 3037TIP3    H2 9057   8.218   2.342   0.737
 3038TIP3   OH2 9058   3.116   0.458   1.072
 3038TIP3    H1 9059   3.050   0.411   1.124
 3038TIP3    H2 9060   3.155   0.520   1.133
 3039TIP3   OH2 9061   7.655   7.194   1.680
 3039TIP3    H1 9062   7.746   7.177   1.657
 3039TIP3    H2 9063   7.606   7.127   1.633
 3040TIP3   OH2 9064   5.242   6.631   5.410
 3040TIP3    H1 9065   5.181   6.665   5.475
 3040TIP3    H2 9066   5.205   6.547   5.383
 3041TIP3   OH2 9067   3.589   3.261   0.522
 3041TIP3    H1 9068   3.598   3.166   0.532
 3041TIP3    H2 9069   3.495   3.278   0.530
 3042TIP3   OH2 9070   1.296   3.579   0.477
 3042TIP3    H1 9071   1.309   3.525   0.555
 3042TIP3    H2 9072   1.309   3.519   0.404
 3043TIP3   OH2 9073   7.685   5.410   1.822
 3043TIP3    H1 9074   7.599   5.412   1.781
 3043TIP3    H2 9075   7.725   5.494   1.800
 3044TIP3   OH2 9076   4.535   4.505   3.970
 3044TIP3    H1 9077   4.546   4.464   4.055
 3044TIP3    H2 9078   4.604   4.466   3.916
 3045TIP3   OH2 9079   1.126   6.825   0.749
 3045TIP3    H1 9080   1.034   6.807   0.730
 3045TIP3    H2 9081   1.172   6.744   0.727
 3046TIP3   OH2 9082   2.106   5.562   2.108
 3046TIP3    H1 9083   2.131   5.533   2.020
 3046TIP3    H2 9084   2.065   5.647   2.094
 3047TIP3   OH2 9085   6.206   3.208   6.249
 3047TIP3    H1 9086   6.155   3.259   6.313
 3047TIP3    H2 9087   6.148   3.201   6.173
 3048TIP3   OH2 9088   1.696   4.085   2.452
 3048TIP3    H1 9089   1.650   4.030   2.389
 3048TIP3    H2 9090   1.717   4.027   2.525
 3049TIP3   OH2 9091   2.068   0.269   4.186
 3049TIP3    H1 9092   2.061   0.179   4.157
 3049TIP3    H2 9093   1.981   0.307   4.170
 3050TIP3   OH2 9094   1.042   5.643   4.822
 3050TIP3    H1 9095   1.112   5.637   4.758
 3050TIP3    H2 9096   1.000   5.557   4.820
 3051TIP3   OH2 9097   4.149   4.742   4.001
 3051TIP3    H1 9098   4.208   4.712   3.932
 3051TIP3    H2 9099   4.152   4.837   3.994
 3052TIP3   OH2 9100   2.756   4.615   3.658
 3052TIP3    H1 9101   2.661   4.613   3.670
 3052TIP3    H2 9102   2.791   4.628   3.746
 3053TIP3   OH2 9103   6.619   0.208   3.289
 3053TIP3    H1 9104   6.670   0.208   3.208
 3053TIP3    H2 9105   6.653   0.283   3.338
 3054TIP3   OH2 9106   7.119   5.285   4.708
 3054TIP3    H1 9107   7.209   5.269   4.678
 3054TIP3    H2 9108   7.110   5.380   4.704
 3055TIP3   OH2 9109   4.956   2.770   3.348
 3055TIP3    H1 9110   4.865   2.797   3.356
 3055TIP3    H2 9111   4.977   2.731   3.433
 3056TIP3   OH2 9112   7.054   5.113   5.716
 3056TIP3    H1 9113   7.107   5.117   5.796
 3056TIP3    H2 9114   6.982   5.055   5.739
 3057TIP3   OH2 9115   5.557   3.176   3.641
 3057TIP3    H1 9116   5.568   3.095   3.690
 3057TIP3    H2 9117   5.575   3.245   3.704
 3058TIP3   OH2 9118   0.274   5.249   3.236
 3058TIP3    H1 9119   0.199   5.192   3.218
 3058TIP3    H2 9120   0.298   5.286   3.151
 3059TIP3   OH2 9121   5.278   5.227   5.332
 3059TIP3    H1 9122   5.348   5.232   5.267
 3059TIP3    H2 9123   5.298   5.296   5.395
 3060TIP3   OH2 9124   4.409   4.197   4.082
 3060TIP3    H1 9125   4.501   4.225   4.089
 3060TIP3    H2 9126   4.360   4.278   4.076
 3061TIP3   OH2 9127   0.924   3.564   6.492
 3061TIP3    H1 9128   0.842   3.563   6.541
 3061TIP3    H2 9129   0.930   3.476   6.455
 3062TIP3   OH2 9130   3.884   7.659   5.866
 3062TIP3    H1 9131   3.965   7.628   5.905
 3062TIP3    H2 9132   3.864   7.595   5.797
 3063TIP3   OH2 9133   8.134   2.737   4.323
 3063TIP3    H1 9134   8.207   2.762   4.380
 3063TIP3    H2 9135   8.128   2.642   4.332
 3064TIP3   OH2 9136   7.150   7.462   1.623
 3064TIP3    H1 9137   7.101   7.439   1.544
 3064TIP3    H2 9138   7.204   7.536   1.597
 3065TIP3   OH2 9139   2.526   3.659   5.741
 3065TIP3    H1 9140   2.564   3.575   5.766
 3065TIP3    H2 9141   2.485   3.642   5.656
 3066TIP3   OH2 9142   6.826   1.875   3.479
 3066TIP3    H1 9143   6.761   1.944   3.482
 3066TIP3    H2 9144   6.857   1.875   3.388
 3067TIP3   OH2 9145   2.299   2.428   0.575
 3067TIP3    H1 9146   2.233   2.380   0.526
 3067TIP3    H2 9147   2.263   2.433   0.664
 3068TIP3   OH2 9148   4.288   6.454   6.080
 3068TIP3    H1 9149   4.328   6.424   6.161
 3068TIP3    H2 9150   4.331   6.403   6.012
 3069TIP3   OH2 9151   5.265   1.664   0.150
 3069TIP3    H1 9152   5.263   1.758   0.133
 3069TIP3    H2 9153   5.342   1.652   0.205
 3070TIP3   OH2 9154   3.763   0.175   3.682
 3070TIP3    H1 9155   3.817   0.186   3.604
 3070TIP3    H2 9156   3.698   0.109   3.658
 3071TIP3   OH2 9157   1.408   1.097   1.478
 3071TIP3    H1 9158   1.386   1.003   1.477
 3071TIP3    H2 9159   1.345   1.137   1.420
 3072TIP3   OH2 9160   3.391   4.813   3.384
 3072TIP3    H1 9161   3.301   4.802   3.352
 3072TIP3    H2 9162   3.415   4.901   3.357
 3073TIP3   OH2 9163   6.392   2.476   1.005
 3073TIP3    H1 9164   6.417   2.438   1.089
 3073TIP3    H2 9165   6.388   2.402   0.945
 3074TIP3   OH2 9166   4.721   2.453   6.123
 3074TIP3    H1 9167   4.790   2.405   6.075
 3074TIP3    H2 9168   4.667   2.384   6.161
 3075TIP3   OH2 9169   4.097   5.875   6.066
 3075TIP3    H1 9170   4.043   5.805   6.029
 3075TIP3    H2 9171   4.174   5.830   6.099
 3076TIP3   OH2 9172   0.684   7.339   0.876
 3076TIP3    H1 9173   0.633   7.402   0.926
 3076TIP3    H2 9174   0.630   7.260   0.875
 3077TIP3   OH2 9175   5.727   3.175   1.844
 3077TIP3    H1 9176   5.716   3.173   1.939
 3077TIP3    H2 9177   5.654   3.122   1.811
 3078TIP3   OH2 9178   2.687   2.367   4.542
 3078TIP3    H1 9179   2.757   2.352   4.606
 3078TIP3    H2 9180   2.644   2.446   4.571
 3079TIP3   OH2 9181   2.395   0.040   3.786
 3079TIP3    H1 9182   2.379  -0.019   3.713
 3079TIP3    H2 9183   2.309   0.053   3.826
 3080TIP3   OH2 9184   2.511   0.935   5.735
 3080TIP3    H1 9185   2.581   0.916   5.798
 3080TIP3    H2 9186   2.554   0.984   5.665
 3081TIP3   OH2 9187   4.974   4.238   4.667
 3081TIP3    H1 9188   4.992   4.161   4.612
 3081TIP3    H2 9189   5.057   4.286   4.669
 3082TIP3   OH2 9190   0.125   7.158   2.275
 3082TIP3    H1 9191   0.216   7.144   2.249
 3082TIP3    H2 9192   0.124   7.139   2.369
 3083TIP3   OH2 9193   7.530   1.496   3.642
 3083TIP3    H1 9194   7.552   1.587   3.661
 3083TIP3    H2 9195   7.543   1.488   3.548
 3084TIP3   OH2 9196   1.329   7.711   2.475
 3084TIP3    H1 9197   1.392   7.642   2.494
 3084TIP3    H2 9198   1.363   7.753   2.396
 3085TIP3   OH2 9199   5.411   1.020   3.831
 3085TIP3    H1 9200   5.460   0.941   3.804
 3085TIP3    H2 9201   5.463   1.093   3.796
 3086TIP3   OH2 9202   1.758   3.643   6.587
 3086TIP3    H1 9203   1.769   3.552   6.562
 3086TIP3    H2 9204   1.707   3.681   6.516
 3087TIP3   OH2 9205   1.774   7.171   3.627
 3087TIP3    H1 9206   1.869   7.170   3.619
 3087TIP3    H2 9207   1.753   7.260   3.657
 3088TIP3   OH2 9208   0.375   4.085   1.124
 3088TIP3    H1 9209   0.449   4.095   1.065
 3088TIP3    H2 9210   0.304   4.134   1.082
 3089TIP3   OH2 9211   0.734   5.924   0.764
 3089TIP3    H1 9212   0.692   5.874   0.834
 3089TIP3    H2 9213   0.662   5.967   0.719
 3090TIP3   OH2 9214   2.727   2.880   5.149
 3090TIP3    H1 9215   2.704   2.884   5.242
 3090TIP3    H2 9216   2.781   2.958   5.134
 3091TIP3   OH2 9217   3.561   6.355   5.882
 3091TIP3    H1 9218   3.506   6.410   5.826
 3091TIP3    H2 9219   3.532   6.266   5.865
 3092TIP3   OH2 9220   2.656   2.280   2.653
 3092TIP3    H1 9221   2.597   2.237   2.591
 3092TIP3    H2 9222   2.645   2.231   2.735
 3093TIP3   OH2 9223   3.732   1.672   2.155
 3093TIP3    H1 9224   3.709   1.583   2.180
 3093TIP3    H2 9225   3.657   1.725   2.181
 3094TIP3   OH2 9226   6.568   1.622   3.319
 3094TIP3    H1 9227   6.521   1.627   3.403
 3094TIP3    H2 9228   6.506   1.579   3.260
 3095TIP3   OH2 9229   1.457   3.224   2.277
 3095TIP3    H1 9230   1.546   3.209   2.245
 3095TIP3    H2 9231   1.419   3.286   2.215
 3096TIP3   OH2 9232   6.811   7.243   1.083
 3096TIP3    H1 9233   6.748   7.278   1.145
 3096TIP3    H2 9234   6.760   7.183   1.028
 3097TIP3   OH2 9235   7.768   3.460   3.877
 3097TIP3    H1 9236   7.794   3.466   3.785
 3097TIP3    H2 9237   7.690   3.405   3.876
 3098TIP3   OH2 9238   1.641   7.118   2.228
 3098TIP3    H1 9239   1.608   7.056   2.293
 3098TIP3    H2 9240   1.730   7.087   2.209
 3099TIP3   OH2 9241   7.043   0.269   6.708
 3099TIP3    H1 9242   7.047   0.364   6.717
 3099TIP3    H2 9243   7.135   0.241   6.709
 3100TIP3   OH2 9244   2.503   1.568   3.375
 3100TIP3    H1 9245   2.490   1.656   3.409
 3100TIP3    H2 9246   2.438   1.514   3.419
 3101TIP3   OH2 9247   3.383   0.316   0.927
 3101TIP3    H1 9248   3.390   0.298   0.833
 3101TIP3    H2 9249   3.299   0.360   0.938
 3102TIP3   OH2 9250   6.670   5.556   2.335
 3102TIP3    H1 9251   6.758   5.522   2.353
 3102TIP3    H2 9252   6.660   5.630   2.395
 3103TIP3   OH2 9253   0.783   2.671   6.033
 3103TIP3    H1 9254   0.769   2.711   5.947
 3103TIP3    H2 9255   0.695   2.641   6.059
 3104TIP3   OH2 9256   6.574   2.481   3.405
 3104TIP3    H1 9257   6.649   2.460   3.349
 3104TIP3    H2 9258   6.514   2.528   3.347
 3105TIP3   OH2 9259   7.969   5.958   6.410
 3105TIP3    H1 9260   7.915   5.985   6.484
 3105TIP3    H2 9261   8.032   6.030   6.400
 3106TIP3   OH2 9262   8.033   1.379   0.964
 3106TIP3    H1 9263   7.950   1.412   0.999
 3106TIP3    H2 9264   8.039   1.290   0.998
 3107TIP3   OH2 9265   6.897   0.088   0.649
 3107TIP3    H1 9266   6.938   0.117   0.567
 3107TIP3    H2 9267   6.872   0.169   0.694
 3108TIP3   OH2 9268   5.962   6.962   1.098
 3108TIP3    H1 9269   6.008   6.999   1.174
 3108TIP3    H2 9270   5.976   6.867   1.106
 3109TIP3   OH2 9271   1.358   0.668  -0.008
 3109TIP3    H1 9272   1.402   0.744  -0.046
 3109TIP3    H2 9273   1.384   0.669   0.084
 3110TIP3   OH2 9274   4.418   5.541   2.491
 3110TIP3    H1 9275   4.323   5.554   2.493
 3110TIP3    H2 9276   4.440   5.543   2.398
 3111TIP3   OH2 9277   2.781   1.949   2.448
 3111TIP3    H1 9278   2.713   2.013   2.428
 3111TIP3    H2 9279   2.758   1.916   2.535
 3112TIP3   OH2 9280   6.421   2.874   1.700
 3112TIP3    H1 9281   6.470   2.801   1.661
 3112TIP3    H2 9282   6.482   2.948   1.697
 3113TIP3   OH2 9283   6.408   1.066   5.093
 3113TIP3    H1 9284   6.493   1.078   5.049
 3113TIP3    H2 9285   6.423   0.997   5.156
 3114TIP3   OH2 9286   4.249   2.111   4.784
 3114TIP3    H1 9287   4.223   2.170   4.713
 3114TIP3    H2 9288   4.345   2.118   4.786
 3115TIP3   OH2 9289   2.427   3.652   6.304
 3115TIP3    H1 9290   2.452   3.647   6.396
 3115TIP3    H2 9291   2.462   3.736   6.274
 3116TIP3   OH2 9292   7.332   3.640   5.415
 3116TIP3    H1 9293   7.387   3.579   5.367
 3116TIP3    H2 9294   7.296   3.588   5.487
 3117TIP3   OH2 9295   3.978   6.561   0.604
 3117TIP3    H1 9296   3.940   6.473   0.605
 3117TIP3    H2 9297   3.953   6.597   0.519
 3118TIP3   OH2 9298   3.160   1.702   0.148
 3118TIP3    H1 9299   3.205   1.618   0.149
 3118TIP3    H2 9300   3.067   1.680   0.149
 3119TIP3   OH2 9301   7.543   5.078   4.263
 3119TIP3    H1 9302   7.555   5.112   4.352
 3119TIP3    H2 9303   7.546   4.983   4.274
 3120TIP3   OH2 9304   6.011   2.898   1.496
 3120TIP3    H1 9305   6.102   2.909   1.468
 3120TIP3    H2 9306   6.005   2.946   1.578
 3121TIP3   OH2 9307   6.820   4.383   2.986
 3121TIP3    H1 9308   6.862   4.298   2.999
 3121TIP3    H2 9309   6.763   4.371   2.910
 3122TIP3   OH2 9310   0.262   4.877   0.834
 3122TIP3    H1 9311   0.278   4.971   0.840
 3122TIP3    H2 9312   0.346   4.840   0.806
 3123TIP3   OH2 9313   7.163   7.788   1.358
 3123TIP3    H1 9314   7.221   7.764   1.430
 3123TIP3    H2 9315   7.076   7.760   1.385
 3124TIP3   OH2 9316   0.532   1.546   5.972
 3124TIP3    H1 9317   0.571   1.471   5.927
 3124TIP3    H2 9318   0.493   1.509   6.051
 3125TIP3   OH2 9319   2.375   4.794   2.793
 3125TIP3    H1 9320   2.424   4.866   2.753
 3125TIP3    H2 9321   2.307   4.837   2.844
 3126TIP3   OH2 9322   4.982   1.555   5.159
 3126TIP3    H1 9323   4.911   1.549   5.095
 3126TIP3    H2 9324   4.953   1.622   5.221
 3127TIP3   OH2 9325   6.209   7.574   3.653
 3127TIP3    H1 9326   6.297   7.570   3.692
 3127TIP3    H2 9327   6.225   7.575   3.558
 3128TIP3   OH2 9328   7.784   1.651   5.711
 3128TIP3    H1 9329   7.863   1.669   5.661
 3128TIP3    H2 9330   7.744   1.737   5.725
 3129TIP3   OH2 9331   7.605   4.585   4.873
 3129TIP3    H1 9332   7.664   4.583   4.948
 3129TIP3    H2 9333   7.534   4.525   4.896
 3130TIP3   OH2 9334   7.195   3.295   4.463
 3130TIP3    H1 9335   7.235   3.218   4.422
 3130TIP3    H2 9336   7.101   3.283   4.448
 3131TIP3   OH2 9337   1.582   2.583   6.179
 3131TIP3    H1 9338   1.648   2.545   6.120
 3131TIP3    H2 9339   1.500   2.544   6.151
 3132TIP3   OH2 9340   0.927   7.493   1.013
 3132TIP3    H1 9341   0.888   7.551   1.079
 3132TIP3    H2 9342   0.959   7.418   1.062
 3133TIP3   OH2 9343   0.012   4.039   1.207
 3133TIP3    H1 9344   0.085   3.992   1.248
 3133TIP3    H2 9345  -0.049   3.970   1.180
 3134TIP3   OH2 9346   3.796   6.202   3.894
 3134TIP3    H1 9347   3.757   6.289   3.898
 3134TIP3    H2 9348   3.740   6.154   3.833
 3135TIP3   OH2 9349   4.007   0.587   5.929
 3135TIP3    H1 9350   4.003   0.590   6.025
 3135TIP3    H2 9351   4.006   0.679   5.902
 3136TIP3   OH2 9352   3.166   7.259   3.599
 3136TIP3    H1 9353   3.094   7.197   3.610
 3136TIP3    H2 9354   3.202   7.238   3.513
 3137TIP3   OH2 9355   3.026   1.843   5.759
 3137TIP3    H1 9356   2.967   1.870   5.829
 3137TIP3    H2 9357   3.066   1.762   5.792
 3138TIP3   OH2 9358   3.678   0.320   0.887
 3138TIP3    H1 9359   3.586   0.347   0.883
 3138TIP3    H2 9360   3.701   0.302   0.796
 3139TIP3   OH2 9361   6.738   1.932   1.999
 3139TIP3    H1 9362   6.775   1.984   1.927
 3139TIP3    H2 9363   6.813   1.913   2.055
 3140TIP3   OH2 9364   2.451   0.501   0.511
 3140TIP3    H1 9365   2.532   0.469   0.551
 3140TIP3    H2 9366   2.417   0.425   0.463
 3141TIP3   OH2 9367   2.064   0.975   4.047
 3141TIP3    H1 9368   2.088   1.055   4.093
 3141TIP3    H2 9369   2.147   0.929   4.035
 3142TIP3   OH2 9370   3.857   5.235   3.796
 3142TIP3    H1 9371   3.806   5.170   3.844
 3142TIP3    H2 9372   3.804   5.253   3.718
 3143TIP3   OH2 9373   7.035   0.681   0.311
 3143TIP3    H1 9374   7.007   0.716   0.396
 3143TIP3    H2 9375   7.096   0.746   0.277
 3144TIP3   OH2 9376   2.716   7.635   2.101
 3144TIP3    H1 9377   2.657   7.707   2.079
 3144TIP3    H2 9378   2.755   7.662   2.185
 3145TIP3   OH2 9379   4.891   3.818   4.421
 3145TIP3    H1 9380   4.959   3.884   4.412
 3145TIP3    H2 9381   4.896   3.768   4.339
 3146TIP3   OH2 9382   6.770   2.106   1.092
 3146TIP3    H1 9383   6.825   2.046   1.041
 3146TIP3    H2 9384   6.830   2.170   1.128
 3147TIP3   OH2 9385   4.309   6.164   4.356
 3147TIP3    H1 9386   4.386   6.123   4.317
 3147TIP3    H2 9387   4.310   6.253   4.321
 3148TIP3   OH2 9388   6.898   7.047   5.601
 3148TIP3    H1 9389   6.831   6.989   5.637
 3148TIP3    H2 9390   6.970   7.044   5.665
 3149TIP3   OH2 9391   1.267   7.342   4.762
 3149TIP3    H1 9392   1.288   7.433   4.784
 3149TIP3    H2 9393   1.350   7.295   4.773
 3150TIP3   OH2 9394   6.637   6.916   3.155
 3150TIP3    H1 9395   6.609   6.852   3.090
 3150TIP3    H2 9396   6.683   6.864   3.221
 3151TIP3   OH2 9397   7.869   0.659   0.217
 3151TIP3    H1 9398   7.787   0.705   0.200
 3151TIP3    H2 9399   7.912   0.710   0.285
 3152TIP3   OH2 9400   1.528   4.967   3.890
 3152TIP3    H1 9401   1.538   4.872   3.896
 3152TIP3    H2 9402   1.460   4.988   3.954
 3153TIP3   OH2 9403   6.313   5.923   5.365
 3153TIP3    H1 9404   6.279   5.848   5.315
 3153TIP3    H2 9405   6.268   5.998   5.327
 3154TIP3   OH2 9406   2.934   3.790   5.187
 3154TIP3    H1 9407   2.997   3.855   5.157
 3154TIP3    H2 9408   2.887   3.764   5.107
 3155TIP3   OH2 9409   5.391   2.936   0.288
 3155TIP3    H1 9410   5.404   2.986   0.369
 3155TIP3    H2 9411   5.348   2.998   0.229
 3156TIP3   OH2 9412   4.171   3.107   0.270
 3156TIP3    H1 9413   4.135   3.185   0.313
 3156TIP3    H2 9414   4.143   3.034   0.325
 3157TIP3   OH2 9415   7.366   5.591   2.603
 3157TIP3    H1 9416   7.386   5.645   2.679
 3157TIP3    H2 9417   7.447   5.543   2.585
 3158TIP3   OH2 9418   1.454   1.460   2.314
 3158TIP3    H1 9419   1.385   1.407   2.275
 3158TIP3    H2 9420   1.431   1.550   2.291
 3159TIP3   OH2 9421   2.669   7.179   1.483
 3159TIP3    H1 9422   2.635   7.250   1.429
 3159TIP3    H2 9423   2.682   7.219   1.569
 3160TIP3   OH2 9424   3.416   5.246   1.068
 3160TIP3    H1 9425   3.390   5.284   0.984
 3160TIP3    H2 9426   3.422   5.152   1.051
 3161TIP3   OH2 9427   6.589   3.346   0.190
 3161TIP3    H1 9428   6.531   3.402   0.138
 3161TIP3    H2 9429   6.599   3.267   0.137
 3162TIP3   OH2 9430   7.047   3.113   3.524
 3162TIP3    H1 9431   7.073   3.138   3.436
 3162TIP3    H2 9432   7.129   3.102   3.571
 3163TIP3   OH2 9433   7.209   7.652   2.879
 3163TIP3    H1 9434   7.184   7.694   2.797
 3163TIP3    H2 9435   7.280   7.592   2.855
 3164TIP3   OH2 9436   6.446   4.368   2.448
 3164TIP3    H1 9437   6.403   4.304   2.505
 3164TIP3    H2 9438   6.468   4.320   2.369
 3165TIP3   OH2 9439   3.336   2.554   6.769
 3165TIP3    H1 9440   3.292   2.472   6.792
 3165TIP3    H2 9441   3.428   2.531   6.760
 3166TIP3   OH2 9442   7.624   5.899   2.957
 3166TIP3    H1 9443   7.649   5.935   3.042
 3166TIP3    H2 9444   7.647   5.968   2.895
 3167TIP3   OH2 9445   6.631   5.445   1.258
 3167TIP3    H1 9446   6.699   5.454   1.325
 3167TIP3    H2 9447   6.551   5.474   1.302
 3168TIP3   OH2 9448   8.104   6.325   1.406
 3168TIP3    H1 9449   8.016   6.289   1.417
 3168TIP3    H2 9450   8.156   6.251   1.375
 3169TIP3   OH2 9451   3.287   3.592   0.645
 3169TIP3    H1 9452   3.238   3.665   0.683
 3169TIP3    H2 9453   3.378   3.620   0.649
 3170TIP3   OH2 9454   7.866   1.330   1.803
 3170TIP3    H1 9455   7.845   1.394   1.735
 3170TIP3    H2 9456   7.938   1.279   1.766
 3171TIP3   OH2 9457   7.299   5.058   2.688
 3171TIP3    H1 9458   7.291   5.018   2.774
 3171TIP3    H2 9459   7.296   4.984   2.627
 3172TIP3   OH2 9460   4.300   0.297   0.121
 3172TIP3    H1 9461   4.232   0.250   0.169
 3172TIP3    H2 9462   4.377   0.292   0.177
 3173TIP3   OH2 9463   8.008   1.719   1.041
 3173TIP3    H1 9464   7.920   1.756   1.045
 3173TIP3    H2 9465   8.040   1.742   0.954
 3174TIP3   OH2 9466   5.468   6.254   6.150
 3174TIP3    H1 9467   5.421   6.177   6.118
 3174TIP3    H2 9468   5.512   6.289   6.072
 3175TIP3   OH2 9469   1.766   6.110   0.988
 3175TIP3    H1 9470   1.854   6.100   1.024
 3175TIP3    H2 9471   1.719   6.161   1.053
 3176TIP3   OH2 9472   1.552   0.902   1.166
 3176TIP3    H1 9473   1.576   0.839   1.098
 3176TIP3    H2 9474   1.465   0.931   1.142
 3177TIP3   OH2 9475   5.707   6.685   1.110
 3177TIP3    H1 9476   5.710   6.693   1.205
 3177TIP3    H2 9477   5.616   6.661   1.091
 3178TIP3   OH2 9478   3.626   5.966   1.151
 3178TIP3    H1 9479   3.688   5.920   1.094
 3178TIP3    H2 9480   3.613   5.907   1.225
 3179TIP3   OH2 9481   4.349   7.062   4.521
 3179TIP3    H1 9482   4.410   6.990   4.505
 3179TIP3    H2 9483   4.399   7.124   4.574
 3180TIP3   OH2 9484   7.330   3.136   3.578
 3180TIP3    H1 9485   7.367   3.220   3.550
 3180TIP3    H2 9486   7.375   3.071   3.523
 3181TIP3   OH2 9487   5.751   0.221   3.420
 3181TIP3    H1 9488   5.790   0.228   3.507
 3181TIP3    H2 9489   5.699   0.300   3.410
 3182TIP3   OH2 9490   4.236   0.614   0.026
 3182TIP3    H1 9491   4.213   0.697   0.067
 3182TIP3    H2 9492   4.172   0.552   0.061
 3183TIP3   OH2 9493   6.950   6.549   5.039
 3183TIP3    H1 9494   7.038   6.514   5.024
 3183TIP3    H2 9495   6.936   6.611   4.968
 3184TIP3   OH2 9496   7.158   2.368   1.386
 3184TIP3    H1 9497   7.220   2.441   1.381
 3184TIP3    H2 9498   7.144   2.355   1.480
 3185TIP3   OH2 9499   6.533   3.562   3.117
 3185TIP3    H1 9500   6.499   3.650   3.100
 3185TIP3    H2 9501   6.524   3.551   3.212
 3186TIP3   OH2 9502   8.044   0.983   5.684
 3186TIP3    H1 9503   8.077   0.899   5.654
 3186TIP3    H2 9504   8.098   1.048   5.639
 3187TIP3   OH2 9505   0.407   5.667   1.933
 3187TIP3    H1 9506   0.461   5.744   1.955
 3187TIP3    H2 9507   0.462   5.592   1.956
 3188TIP3   OH2 9508   6.429   0.834   2.116
 3188TIP3    H1 9509   6.473   0.892   2.054
 3188TIP3    H2 9510   6.423   0.750   2.070
 3189TIP3   OH2 9511   3.419   2.827   3.318
 3189TIP3    H1 9512   3.407   2.809   3.412
 3189TIP3    H2 9513   3.344   2.784   3.276
 3190TIP3   OH2 9514   7.834   7.267   3.084
 3190TIP3    H1 9515   7.767   7.312   3.135
 3190TIP3    H2 9516   7.785   7.201   3.034
 3191TIP3   OH2 9517   5.323   3.305   4.734
 3191TIP3    H1 9518   5.363   3.262   4.658
 3191TIP3    H2 9519   5.229   3.287   4.725
 3192TIP3   OH2 9520   0.442   1.017   1.309
 3192TIP3    H1 9521   0.497   1.085   1.348
 3192TIP3    H2 9522   0.479   1.003   1.222
 3193TIP3   OH2 9523   4.442   4.700   0.467
 3193TIP3    H1 9524   4.360   4.694   0.517
 3193TIP3    H2 9525   4.509   4.713   0.534
 3194TIP3   OH2 9526   4.108   1.117   5.125
 3194TIP3    H1 9527   4.021   1.146   5.098
 3194TIP3    H2 9528   4.160   1.197   5.130
 3195TIP3   OH2 9529   1.344   5.969   5.425
 3195TIP3    H1 9530   1.283   5.963   5.498
 3195TIP3    H2 9531   1.428   5.941   5.462
 3196TIP3   OH2 9532   6.626   5.521   1.004
 3196TIP3    H1 9533   6.633   5.483   1.092
 3196TIP3    H2 9534   6.538   5.497   0.975
 3197TIP3   OH2 9535   5.378   3.241   0.875
 3197TIP3    H1 9536   5.473   3.229   0.883
 3197TIP3    H2 9537   5.362   3.329   0.911
 3198TIP3   OH2 9538   7.669   6.780   0.489
 3198TIP3    H1 9539   7.758   6.813   0.483
 3198TIP3    H2 9540   7.677   6.686   0.470
 3199TIP3   OH2 9541   2.229   4.424   1.976
 3199TIP3    H1 9542   2.237   4.515   2.004
 3199TIP3    H2 9543   2.319   4.397   1.958
 3200TIP3   OH2 9544   7.807   4.985   6.383
 3200TIP3    H1 9545   7.756   5.022   6.454
 3200TIP3    H2 9546   7.785   5.038   6.306
 3201TIP3   OH2 9547   3.709   3.099   2.952
 3201TIP3    H1 9548   3.773   3.170   2.951
 3201TIP3    H2 9549   3.754   3.026   2.993
 3202TIP3   OH2 9550   0.104   4.882   4.976
 3202TIP3    H1 9551   0.193   4.860   4.951
 3202TIP3    H2 9552   0.095   4.850   5.066
 3203TIP3   OH2 9553   7.275   0.677   3.117
 3203TIP3    H1 9554   7.333   0.671   3.193
 3203TIP3    H2 9555   7.331   0.652   3.042
 3204TIP3   OH2 9556   8.218   3.486   5.679
 3204TIP3    H1 9557   8.293   3.517   5.628
 3204TIP3    H2 9558   8.257   3.453   5.760
 3205TIP3   OH2 9559   7.061   0.133   6.467
 3205TIP3    H1 9560   7.025   0.191   6.535
 3205TIP3    H2 9561   7.059   0.046   6.506
 3206TIP3   OH2 9562   0.284   1.324   6.544
 3206TIP3    H1 9563   0.281   1.229   6.533
 3206TIP3    H2 9564   0.231   1.359   6.472
 3207TIP3   OH2 9565   6.668   1.803   1.564
 3207TIP3    H1 9566   6.676   1.728   1.624
 3207TIP3    H2 9567   6.578   1.797   1.530
 3208TIP3   OH2 9568   1.664   1.281   1.794
 3208TIP3    H1 9569   1.569   1.277   1.796
 3208TIP3    H2 9570   1.692   1.198   1.835
 3209TIP3   OH2 9571   0.406   3.869   5.528
 3209TIP3    H1 9572   0.342   3.889   5.459
 3209TIP3    H2 9573   0.469   3.811   5.486
 3210TIP3   OH2 9574   3.131   7.422   4.442
 3210TIP3    H1 9575   3.138   7.444   4.349
 3210TIP3    H2 9576   3.184   7.342   4.451
 3211TIP3   OH2 9577   5.861   2.579   1.289
 3211TIP3    H1 9578   5.860   2.521   1.365
 3211TIP3    H2 9579   5.854   2.520   1.214
 3212TIP3   OH2 9580   5.851   0.219   2.189
 3212TIP3    H1 9581   5.783   0.260   2.135
 3212TIP3    H2 9582   5.933   0.239   2.143
 3213TIP3   OH2 9583   0.187   4.374   1.663
 3213TIP3    H1 9584   0.219   4.395   1.751
 3213TIP3    H2 9585   0.193   4.278   1.657
 3214TIP3   OH2 9586   1.921   4.818   0.379
 3214TIP3    H1 9587   1.935   4.723   0.380
 3214TIP3    H2 9588   1.928   4.842   0.287
 3215TIP3   OH2 9589   7.849   6.582   1.280
 3215TIP3    H1 9590   7.874   6.623   1.363
 3215TIP3    H2 9591   7.844   6.489   1.301
 3216TIP3   OH2 9592   4.537   6.905   0.687
 3216TIP3    H1 9593   4.621   6.908   0.642
 3216TIP3    H2 9594   4.478   6.862   0.625
 3217TIP3   OH2 9595   6.445   4.348   0.654
 3217TIP3    H1 9596   6.496   4.394   0.720
 3217TIP3    H2 9597   6.461   4.396   0.573
 3218TIP3   OH2 9598   7.867   4.702   0.587
 3218TIP3    H1 9599   7.887   4.685   0.679
 3218TIP3    H2 9600   7.931   4.769   0.560
 3219TIP3   OH2 9601   5.161   0.827   2.249
 3219TIP3    H1 9602   5.204   0.875   2.179
 3219TIP3    H2 9603   5.185   0.736   2.235
 3220TIP3   OH2 9604   5.502   1.542   2.750
 3220TIP3    H1 9605   5.570   1.560   2.685
 3220TIP3    H2 9606   5.543   1.482   2.812
 3221TIP3   OH2 9607   6.150   5.857   1.862
 3221TIP3    H1 9608   6.140   5.776   1.812
 3221TIP3    H2 9609   6.239   5.852   1.898
 3222TIP3   OH2 9610   0.326   5.883   5.956
 3222TIP3    H1 9611   0.387   5.818   5.989
 3222TIP3    H2 9612   0.258   5.889   6.023
 3223TIP3   OH2 9613   7.885   0.035   5.947
 3223TIP3    H1 9614   7.862   0.100   5.881
 3223TIP3    H2 9615   7.971   0.063   5.979
 3224TIP3   OH2 9616   6.528   4.781   1.201
 3224TIP3    H1 9617   6.556   4.775   1.292
 3224TIP3    H2 9618   6.489   4.695   1.183
 3225TIP3   OH2 9619   3.856   3.787   5.069
 3225TIP3    H1 9620   3.925   3.852   5.081
 3225TIP3    H2 9621   3.789   3.833   5.018
 3226TIP3   OH2 9622   4.370   5.757   3.681
 3226TIP3    H1 9623   4.415   5.841   3.672
 3226TIP3    H2 9624   4.432   5.692   3.649
 3227TIP3   OH2 9625   7.285   0.961   3.055
 3227TIP3    H1 9626   7.288   0.931   3.145
 3227TIP3    H2 9627   7.251   1.050   3.060
 3228TIP3   OH2 9628   0.195   3.556   2.266
 3228TIP3    H1 9629   0.139   3.540   2.342
 3228TIP3    H2 9630   0.175   3.645   2.240
 3229TIP3   OH2 9631   2.869   6.741   0.412
 3229TIP3    H1 9632   2.844   6.824   0.453
 3229TIP3    H2 9633   2.830   6.674   0.468
 3230TIP3   OH2 9634   3.521   0.702   3.747
 3230TIP3    H1 9635   3.591   0.704   3.811
 3230TIP3    H2 9636   3.446   0.742   3.792
 3231TIP3   OH2 9637   0.452   6.176   4.907
 3231TIP3    H1 9638   0.408   6.214   4.983
 3231TIP3    H2 9639   0.545   6.182   4.927
 3232TIP3   OH2 9640   4.172   4.898   4.655
 3232TIP3    H1 9641   4.245   4.864   4.604
 3232TIP3    H2 9642   4.195   4.877   4.746
 3233TIP3   OH2 9643   6.931   6.751   4.821
 3233TIP3    H1 9644   6.889   6.831   4.851
 3233TIP3    H2 9645   6.859   6.695   4.793
 3234TIP3   OH2 9646   6.311   3.789   0.540
 3234TIP3    H1 9647   6.305   3.719   0.475
 3234TIP3    H2 9648   6.366   3.753   0.609
 3235TIP3   OH2 9649   0.807   4.895   4.063
 3235TIP3    H1 9650   0.891   4.853   4.083
 3235TIP3    H2 9651   0.766   4.908   4.149
 3236TIP3   OH2 9652   1.455   3.453   4.475
 3236TIP3    H1 9653   1.534   3.484   4.431
 3236TIP3    H2 9654   1.487   3.406   4.552
 3237TIP3   OH2 9655   5.818   4.249   6.664
 3237TIP3    H1 9656   5.765   4.174   6.693
 3237TIP3    H2 9657   5.753   4.318   6.645
 3238TIP3   OH2 9658   1.708   0.434   0.484
 3238TIP3    H1 9659   1.740   0.383   0.559
 3238TIP3    H2 9660   1.731   0.382   0.408
 3239TIP3   OH2 9661   7.166   2.285   1.679
 3239TIP3    H1 9662   7.209   2.205   1.649
 3239TIP3    H2 9663   7.198   2.298   1.768
 3240TIP3   OH2 9664   2.712   4.627   5.184
 3240TIP3    H1 9665   2.797   4.584   5.173
 3240TIP3    H2 9666   2.651   4.574   5.134
 3241TIP3   OH2 9667   2.844   5.192   2.798
 3241TIP3    H1 9668   2.763   5.209   2.845
 3241TIP3    H2 9669   2.835   5.239   2.715
 3242TIP3   OH2 9670   2.226   3.848   2.145
 3242TIP3    H1 9671   2.147   3.819   2.191
 3242TIP3    H2 9672   2.276   3.897   2.210
 3243TIP3   OH2 9673   2.307   5.101   5.616
 3243TIP3    H1 9674   2.264   5.153   5.547
 3243TIP3    H2 9675   2.400   5.115   5.602
 3244TIP3   OH2 9676   1.014   0.099   4.316
 3244TIP3    H1 9677   1.003   0.086   4.411
 3244TIP3    H2 9678   1.079   0.168   4.309
 3245TIP3   OH2 9679   3.067   6.774   3.989
 3245TIP3    H1 9680   3.100   6.693   4.026
 3245TIP3    H2 9681   3.016   6.814   4.059
 3246TIP3   OH2 9682   0.513   1.736   3.349
 3246TIP3    H1 9683   0.527   1.828   3.370
 3246TIP3    H2 9684   0.422   1.731   3.321
 3247TIP3   OH2 9685   0.402   3.059   2.968
 3247TIP3    H1 9686   0.320   3.072   2.920
 3247TIP3    H2 9687   0.470   3.089   2.908
 3248TIP3   OH2 9688   2.733   5.905   3.843
 3248TIP3    H1 9689   2.783   5.985   3.829
 3248TIP3    H2 9690   2.770   5.867   3.923
 3249TIP3   OH2 9691   6.594   0.206   4.782
 3249TIP3    H1 9692   6.629   0.269   4.718
 3249TIP3    H2 9693   6.562   0.133   4.729
 3250TIP3   OH2 9694   2.452   0.957   2.523
 3250TIP3    H1 9695   2.504   0.878   2.509
 3250TIP3    H2 9696   2.505   1.027   2.483
 3251TIP3   OH2 9697   8.009   5.889   4.597
 3251TIP3    H1 9698   8.104   5.882   4.608
 3251TIP3    H2 9699   7.996   5.977   4.562
 3252TIP3   OH2 9700   2.374   3.540   1.364
 3252TIP3    H1 9701   2.346   3.463   1.315
 3252TIP3    H2 9702   2.292   3.575   1.401
 3253TIP3   OH2 9703   4.597   1.950   0.297
 3253TIP3    H1 9704   4.636   1.928   0.212
 3253TIP3    H2 9705   4.608   1.871   0.350
 3254TIP3   OH2 9706   4.999   4.576   0.829
 3254TIP3    H1 9707   4.983   4.669   0.844
 3254TIP3    H2 9708   5.032   4.572   0.739
 3255TIP3   OH2 9709   8.268   0.264   4.470
 3255TIP3    H1 9710   8.315   0.308   4.399
 3255TIP3    H2 9711   8.176   0.276   4.449
 3256TIP3   OH2 9712   1.297   4.241   6.761
 3256TIP3    H1 9713   1.347   4.177   6.710
 3256TIP3    H2 9714   1.363   4.281   6.819
 3257TIP3   OH2 9715   0.217   5.236   3.932
 3257TIP3    H1 9716   0.161   5.253   4.007
 3257TIP3    H2 9717   0.277   5.168   3.961
 3258TIP3   OH2 9718   0.136   5.481  -0.003
 3258TIP3    H1 9719   0.091   5.397  -0.015
 3258TIP3    H2 9720   0.217   5.459   0.043
 3259TIP3   OH2 9721   3.502   7.665   5.043
 3259TIP3    H1 9722   3.430   7.695   4.988
 3259TIP3    H2 9723   3.460   7.634   5.123
 3260TIP3   OH2 9724   2.875   4.751   2.845
 3260TIP3    H1 9725   2.849   4.665   2.879
 3260TIP3    H2 9726   2.801   4.808   2.867
 3261TIP3   OH2 9727   7.264   7.625   6.722
 3261TIP3    H1 9728   7.261   7.613   6.627
 3261TIP3    H2 9729   7.220   7.547   6.757
 3262TIP3   OH2 9730   0.601   5.005   0.971
 3262TIP3    H1 9731   0.594   5.006   1.066
 3262TIP3    H2 9732   0.655   5.081   0.950
 3263TIP3   OH2 9733   7.935   2.668   1.735
 3263TIP3    H1 9734   8.003   2.649   1.800
 3263TIP3    H2 9735   7.935   2.591   1.677
 3264TIP3   OH2 9736   4.948   6.581   5.190
 3264TIP3    H1 9737   4.976   6.498   5.229
 3264TIP3    H2 9738   5.026   6.614   5.144
 3265TIP3   OH2 9739   4.953   7.799   5.066
 3265TIP3    H1 9740   5.005   7.850   5.003
 3265TIP3    H2 9741   5.016   7.736   5.102
 3266TIP3   OH2 9742   3.460   1.350   0.907
 3266TIP3    H1 9743   3.493   1.372   0.994
 3266TIP3    H2 9744   3.534   1.363   0.848
 3267TIP3   OH2 9745   3.841   1.915   5.284
 3267TIP3    H1 9746   3.810   1.873   5.363
 3267TIP3    H2 9747   3.911   1.973   5.313
 3268TIP3   OH2 9748   4.789   2.514   4.143
 3268TIP3    H1 9749   4.869   2.465   4.127
 3268TIP3    H2 9750   4.719   2.456   4.112
 3269TIP3   OH2 9751   6.154   7.289   3.176
 3269TIP3    H1 9752   6.212   7.282   3.251
 3269TIP3    H2 9753   6.105   7.370   3.191
 3270TIP3   OH2 9754   4.340   4.459   4.649
 3270TIP3    H1 9755   4.399   4.507   4.591
 3270TIP3    H2 9756   4.350   4.500   4.734
 3271TIP3   OH2 9757   0.535   6.477   4.853
 3271TIP3    H1 9758   0.609   6.472   4.792
 3271TIP3    H2 9759   0.573   6.459   4.939
 3272TIP3   OH2 9760   1.512   2.888   5.369
 3272TIP3    H1 9761   1.463   2.806   5.374
 3272TIP3    H2 9762   1.482   2.938   5.445
 3273TIP3   OH2 9763   5.624   3.873   5.928
 3273TIP3    H1 9764   5.663   3.796   5.887
 3273TIP3    H2 9765   5.673   3.947   5.893
 3274TIP3   OH2 9766   6.374   1.843   6.512
 3274TIP3    H1 9767   6.410   1.774   6.457
 3274TIP3    H2 9768   6.390   1.813   6.602
 3275TIP3   OH2 9769   0.712   5.530   0.626
 3275TIP3    H1 9770   0.776   5.601   0.619
 3275TIP3    H2 9771   0.713   5.488   0.539
 3276TIP3   OH2 9772   2.931   2.063   5.295
 3276TIP3    H1 9773   2.846   2.104   5.311
 3276TIP3    H2 9774   2.972   2.058   5.381
 3277TIP3   OH2 9775   4.539   0.803   3.679
 3277TIP3    H1 9776   4.580   0.787   3.594
 3277TIP3    H2 9777   4.611   0.831   3.735
 3278TIP3   OH2 9778   6.947   0.094   3.301
 3278TIP3    H1 9779   6.873   0.062   3.353
 3278TIP3    H2 9780   6.985   0.164   3.355
 3279TIP3   OH2 9781   4.650   3.426   3.498
 3279TIP3    H1 9782   4.744   3.447   3.497
 3279TIP3    H2 9783   4.630   3.403   3.407
 3280TIP3   OH2 9784   8.257   0.060   1.508
 3280TIP3    H1 9785   8.164   0.084   1.508
 3280TIP3    H2 9786   8.257  -0.036   1.512
 3281TIP3   OH2 9787   3.517   3.355   4.822
 3281TIP3    H1 9788   3.517   3.270   4.865
 3281TIP3    H2 9789   3.526   3.335   4.729
 3282TIP3   OH2 9790   4.155   2.898   5.423
 3282TIP3    H1 9791   4.096   2.835   5.382
 3282TIP3    H2 9792   4.112   2.922   5.505
 3283TIP3   OH2 9793   2.315   5.078   3.996
 3283TIP3    H1 9794   2.291   5.168   4.018
 3283TIP3    H2 9795   2.246   5.024   4.034
 3284TIP3   OH2 9796   1.518   1.040   2.610
 3284TIP3    H1 9797   1.506   0.988   2.531
 3284TIP3    H2 9798   1.524   1.130   2.579
 3285TIP3   OH2 9799   5.278   4.020   2.422
 3285TIP3    H1 9800   5.315   4.005   2.335
 3285TIP3    H2 9801   5.191   3.982   2.418
 3286TIP3   OH2 9802   4.004   4.970   5.054
 3286TIP3    H1 9803   3.979   5.012   5.137
 3286TIP3    H2 9804   4.095   4.994   5.042
 3287TIP3   OH2 9805   1.768   2.016   6.256
 3287TIP3    H1 9806   1.710   2.086   6.224
 3287TIP3    H2 9807   1.785   2.040   6.347
 3288TIP3   OH2 9808   1.161   4.726   0.714
 3288TIP3    H1 9809   1.137   4.672   0.789
 3288TIP3    H2 9810   1.252   4.702   0.696
 3289TIP3   OH2 9811   7.123   1.245   6.532
 3289TIP3    H1 9812   7.139   1.187   6.606
 3289TIP3    H2 9813   7.060   1.309   6.564
 3290TIP3   OH2 9814   1.137   6.232   2.498
 3290TIP3    H1 9815   1.067   6.261   2.556
 3290TIP3    H2 9816   1.107   6.148   2.464
 3291TIP3   OH2 9817   1.000   2.003   4.429
 3291TIP3    H1 9818   1.091   2.032   4.426
 3291TIP3    H2 9819   0.964   2.045   4.508
 3292TIP3   OH2 9820   5.032   3.150   2.754
 3292TIP3    H1 9821   5.113   3.163   2.703
 3292TIP3    H2 9822   5.023   3.229   2.806
 3293TIP3   OH2 9823   5.844   5.412   3.980
 3293TIP3    H1 9824   5.753   5.399   4.005
 3293TIP3    H2 9825   5.845   5.494   3.931
 3294TIP3   OH2 9826   7.568   1.877   5.735
 3294TIP3    H1 9827   7.564   1.954   5.678
 3294TIP3    H2 9828   7.492   1.885   5.793
 3295TIP3   OH2 9829   8.194   6.055   2.023
 3295TIP3    H1 9830   8.188   6.115   2.097
 3295TIP3    H2 9831   8.127   6.086   1.962
 3296TIP3   OH2 9832   4.818   6.613   5.758
 3296TIP3    H1 9833   4.805   6.672   5.832
 3296TIP3    H2 9834   4.734   6.568   5.747
 3297TIP3   OH2 9835   7.729   5.395   2.398
 3297TIP3    H1 9836   7.691   5.428   2.316
 3297TIP3    H2 9837   7.795   5.461   2.422
 3298TIP3   OH2 9838   0.429   7.576   5.303
 3298TIP3    H1 9839   0.471   7.620   5.377
 3298TIP3    H2 9840   0.502   7.548   5.247
 3299TIP3   OH2 9841   2.386   2.811   2.775
 3299TIP3    H1 9842   2.481   2.812   2.770
 3299TIP3    H2 9843   2.362   2.720   2.756
 3300TIP3   OH2 9844   4.301   7.542   3.617
 3300TIP3    H1 9845   4.376   7.515   3.564
 3300TIP3    H2 9846   4.224   7.521   3.563
 3301TIP3   OH2 9847   3.408   1.508   4.182
 3301TIP3    H1 9848   3.343   1.453   4.225
 3301TIP3    H2 9849   3.437   1.457   4.106
 3302TIP3   OH2 9850   7.016   0.433   0.842
 3302TIP3    H1 9851   7.021   0.411   0.749
 3302TIP3    H2 9852   6.922   0.436   0.861
 3303TIP3   OH2 9853   7.032   3.135   0.227
 3303TIP3    H1 9854   6.983   3.062   0.189
 3303TIP3    H2 9855   7.030   3.119   0.321
 3304TIP3   OH2 9856   3.340   7.028   1.731
 3304TIP3    H1 9857   3.349   6.965   1.659
 3304TIP3    H2 9858   3.386   7.106   1.701
 3305TIP3   OH2 9859   7.142   6.483   0.328
 3305TIP3    H1 9860   7.192   6.403   0.344
 3305TIP3    H2 9861   7.100   6.503   0.411
 3306TIP3   OH2 9862   5.338   1.809   2.391
 3306TIP3    H1 9863   5.367   1.889   2.433
 3306TIP3    H2 9864   5.418   1.759   2.376
 3307TIP3   OH2 9865   4.445   4.365   2.822
 3307TIP3    H1 9866   4.531   4.342   2.858
 3307TIP3    H2 9867   4.448   4.335   2.731
 3308TIP3   OH2 9868   4.684   7.528   4.355
 3308TIP3    H1 9869   4.722   7.541   4.441
 3308TIP3    H2 9870   4.676   7.616   4.318
 3309TIP3   OH2 9871   7.238   1.566   3.148
 3309TIP3    H1 9872   7.227   1.660   3.134
 3309TIP3    H2 9873   7.185   1.525   3.079
 3310TIP3   OH2 9874   4.274   5.073   2.815
 3310TIP3    H1 9875   4.344   5.137   2.806
 3310TIP3    H2 9876   4.286   5.014   2.741
 3311TIP3   OH2 9877   2.857   2.888   6.438
 3311TIP3    H1 9878   2.791   2.876   6.370
 3311TIP3    H2 9879   2.899   2.802   6.446
 3312TIP3   OH2 9880   1.616   5.687   5.114
 3312TIP3    H1 9881   1.677   5.760   5.101
 3312TIP3    H2 9882   1.569   5.709   5.194
 3313TIP3   OH2 9883   7.130   5.252   0.965
 3313TIP3    H1 9884   7.180   5.206   0.897
 3313TIP3    H2 9885   7.142   5.198   1.043
 3314TIP3   OH2 9886   4.263   4.128   6.577
 3314TIP3    H1 9887   4.203   4.170   6.638
 3314TIP3    H2 9888   4.299   4.199   6.524
 3315TIP3   OH2 9889   7.155   7.077   1.266
 3315TIP3    H1 9890   7.119   6.990   1.284
 3315TIP3    H2 9891   7.134   7.092   1.174
 3316TIP3   OH2 9892   0.530   3.122   5.200
 3316TIP3    H1 9893   0.468   3.049   5.208
 3316TIP3    H2 9894   0.594   3.107   5.270
 3317TIP3   OH2 9895   6.861   3.970   1.906
 3317TIP3    H1 9896   6.798   3.904   1.934
 3317TIP3    H2 9897   6.826   4.052   1.939
 3318TIP3   OH2 9898   0.710   1.062   4.914
 3318TIP3    H1 9899   0.768   1.086   4.986
 3318TIP3    H2 9900   0.735   1.120   4.842
 3319TIP3   OH2 9901   4.130   2.594   3.392
 3319TIP3    H1 9902   4.123   2.677   3.439
 3319TIP3    H2 9903   4.208   2.604   3.337
 3320TIP3   OH2 9904   2.034   0.930   5.722
 3320TIP3    H1 9905   2.112   0.958   5.771
 3320TIP3    H2 9906   2.070   0.889   5.643
 3321TIP3   OH2 9907   6.228   6.655   4.849
 3321TIP3    H1 9908   6.222   6.632   4.942
 3321TIP3    H2 9909   6.151   6.615   4.809
 3322TIP3   OH2 9910   7.950   0.859   1.738
 3322TIP3    H1 9911   8.040   0.868   1.771
 3322TIP3    H2 9912   7.942   0.766   1.718
 3323TIP3   OH2 9913   6.589   1.590   2.755
 3323TIP3    H1 9914   6.575   1.606   2.662
 3323TIP3    H2 9915   6.555   1.668   2.799
 3324TIP3   OH2 9916   1.319   4.505   2.795
 3324TIP3    H1 9917   1.294   4.551   2.715
 3324TIP3    H2 9918   1.409   4.533   2.811
 3325TIP3   OH2 9919   7.952   0.084   6.213
 3325TIP3    H1 9920   7.961   0.000   6.257
 3325TIP3    H2 9921   7.865   0.081   6.172
 3326TIP3   OH2 9922   3.937   3.350   2.673
 3326TIP3    H1 9923   3.952   3.264   2.633
 3326TIP3    H2 9924   4.016   3.399   2.653
 3327TIP3   OH2 9925   8.118   5.208   3.064
 3327TIP3    H1 9926   8.130   5.114   3.051
 3327TIP3    H2 9927   8.204   5.246   3.049
 3328TIP3   OH2 9928   5.649   7.470   0.635
 3328TIP3    H1 9929   5.563   7.485   0.597
 3328TIP3    H2 9930   5.676   7.555   0.670
 3329TIP3   OH2 9931   2.731   0.387   6.138
 3329TIP3    H1 9932   2.790   0.410   6.066
 3329TIP3    H2 9933   2.739   0.292   6.146
 3330TIP3   OH2 9934   7.487   3.980   2.646
 3330TIP3    H1 9935   7.528   3.894   2.637
 3330TIP3    H2 9936   7.518   4.012   2.730
 3331TIP3   OH2 9937   1.246   5.753   2.028
 3331TIP3    H1 9938   1.276   5.792   1.945
 3331TIP3    H2 9939   1.238   5.828   2.087
 3332TIP3   OH2 9940   1.357   2.147   5.531
 3332TIP3    H1 9941   1.271   2.135   5.572
 3332TIP3    H2 9942   1.391   2.058   5.521
 3333TIP3   OH2 9943   5.648   0.472   5.986
 3333TIP3    H1 9944   5.616   0.553   5.946
 3333TIP3    H2 9945   5.598   0.465   6.068
 3334TIP3   OH2 9946   4.627   5.172   2.980
 3334TIP3    H1 9947   4.600   5.094   2.932
 3334TIP3    H2 9948   4.597   5.245   2.926
 3335TIP3   OH2 9949   0.172   5.994   1.176
 3335TIP3    H1 9950   0.193   5.904   1.201
 3335TIP3    H2 9951   0.211   6.004   1.089
 3336TIP3   OH2 9952   3.039   6.495   1.749
 3336TIP3    H1 9953   3.060   6.410   1.709
 3336TIP3    H2 9954   3.106   6.555   1.715
 3337TIP3   OH2 9955   3.324   0.116   4.778
 3337TIP3    H1 9956   3.347   0.079   4.693
 3337TIP3    H2 9957   3.266   0.190   4.758
 3338TIP3   OH2 9958   4.271   2.626   2.116
 3338TIP3    H1 9959   4.357   2.643   2.076
 3338TIP3    H2 9960   4.209   2.671   2.059
 3339TIP3   OH2 9961   5.752   1.503   3.694
 3339TIP3    H1 9962   5.760   1.426   3.749
 3339TIP3    H2 9963   5.678   1.485   3.637
 3340TIP3   OH2 9964   2.661   6.387   3.933
 3340TIP3    H1 9965   2.570   6.401   3.960
 3340TIP3    H2 9966   2.655   6.349   3.846
 3341TIP3   OH2 9967   3.514   1.864   5.445
 3341TIP3    H1 9968   3.516   1.791   5.383
 3341TIP3    H2 9969   3.544   1.940   5.395
 3342TIP3   OH2 9970   3.010   4.109   1.787
 3342TIP3    H1 9971   2.979   4.041   1.847
 3342TIP3    H2 9972   3.085   4.148   1.832
 3343TIP3   OH2 9973   6.869   5.731   6.239
 3343TIP3    H1 9974   6.781   5.701   6.215
 3343TIP3    H2 9975   6.856   5.777   6.322
 3344TIP3   OH2 9976   4.464   0.354   2.313
 3344TIP3    H1 9977   4.480   0.441   2.278
 3344TIP3    H2 9978   4.516   0.296   2.257
 3345TIP3   OH2 9979   7.324   5.230   0.106
 3345TIP3    H1 9980   7.331   5.198   0.196
 3345TIP3    H2 9981   7.343   5.323   0.111
 3346TIP3   OH2 9982   5.159   6.037   5.325
 3346TIP3    H1 9983   5.129   6.126   5.342
 3346TIP3    H2 9984   5.132   5.987   5.402
 3347TIP3   OH2 9985   3.626   6.451   1.335
 3347TIP3    H1 9986   3.536   6.457   1.368
 3347TIP3    H2 9987   3.616   6.420   1.245
 3348TIP3   OH2 9988   3.724   2.785   3.485
 3348TIP3    H1 9989   3.699   2.703   3.527
 3348TIP3    H2 9990   3.693   2.853   3.544
 3349TIP3   OH2 9991   1.542   2.584   6.464
 3349TIP3    H1 9992   1.633   2.602   6.488
 3349TIP3    H2 9993   1.539   2.597   6.369
 3350TIP3   OH2 9994   6.415   6.046   3.503
 3350TIP3    H1 9995   6.484   6.109   3.486
 3350TIP3    H2 9996   6.440   6.004   3.586
 3351TIP3   OH2 9997   6.589   7.780   5.624
 3351TIP3    H1 9998   6.495   7.788   5.640
 3351TIP3    H2 9999   6.629   7.804   5.708
 3352TIP3   OH210000   6.492   2.576   2.193
 3352TIP3    H110001   6.427   2.578   2.264
 3352TIP3    H210002   6.572   2.612   2.232
 3353TIP3   OH210003   6.724   4.293   5.201
 3353TIP3    H110004   6.790   4.362   5.209
 3353TIP3    H210005   6.741   4.235   5.275
 3354TIP3   OH210006   5.398   7.264   0.312
 3354TIP3    H110007   5.449   7.245   0.391
 3354TIP3    H210008   5.458   7.313   0.256
 3355TIP3   OH210009   3.710   4.681   5.287
 3355TIP3    H110010   3.674   4.710   5.204
 3355TIP3    H210011   3.636   4.683   5.348
 3356TIP3   OH210012   1.511   1.578   6.587
 3356TIP3    H110013   1.571   1.622   6.526
 3356TIP3    H210014   1.550   1.592   6.673
 3357TIP3   OH210015   7.670   2.941   2.356
 3357TIP3    H110016   7.603   2.906   2.414
 3357TIP3    H210017   7.622   2.986   2.286
 3358TIP3   OH210018   7.966   5.778   2.099
 3358TIP3    H110019   8.055   5.743   2.107
 3358TIP3    H210020   7.970   5.834   2.021
 3359TIP3   OH210021   2.750   6.519   5.070
 3359TIP3    H110022   2.816   6.582   5.101
 3359TIP3    H210023   2.682   6.573   5.030
 3360TIP3   OH210024   5.637   4.873   2.919
 3360TIP3    H110025   5.560   4.926   2.939
 3360TIP3    H210026   5.676   4.854   3.005
 3361TIP3   OH210027   2.748   0.326   2.132
 3361TIP3    H110028   2.787   0.391   2.073
 3361TIP3    H210029   2.759   0.243   2.087
 3362TIP3   OH210030   7.955   3.202   3.032
 3362TIP3    H110031   7.926   3.290   3.054
 3362TIP3    H210032   8.041   3.214   2.992
 3363TIP3   OH210033   4.099   3.370   1.600
 3363TIP3    H110034   4.071   3.346   1.689
 3363TIP3    H210035   4.042   3.319   1.543
 3364TIP3   OH210036   6.500   3.831   5.807
 3364TIP3    H110037   6.413   3.862   5.833
 3364TIP3    H210038   6.540   3.907   5.763
 3365TIP3   OH210039   3.527   0.270   5.344
 3365TIP3    H110040   3.562   0.250   5.257
 3365TIP3    H210041   3.603   0.268   5.402
 3366TIP3   OH210042   0.700   3.071   0.524
 3366TIP3    H110043   0.643   3.034   0.456
 3366TIP3    H210044   0.688   3.013   0.599
 3367TIP3   OH210045   2.420   5.807   2.333
 3367TIP3    H110046   2.330   5.777   2.316
 3367TIP3    H210047   2.449   5.844   2.250
 3368TIP3   OH210048   5.529   1.392   3.874
 3368TIP3    H110049   5.574   1.336   3.811
 3368TIP3    H210050   5.437   1.389   3.848
 3369TIP3   OH210051   6.345   4.847   3.877
 3369TIP3    H110052   6.358   4.803   3.793
 3369TIP3    H210053   6.423   4.826   3.928
 3370TIP3   OH210054   3.148   6.602   5.426
 3370TIP3    H110055   3.197   6.664   5.480
 3370TIP3    H210056   3.078   6.571   5.483
 3371TIP3   OH210057   2.497   4.323   2.111
 3371TIP3    H110058   2.580   4.353   2.073
 3371TIP3    H210059   2.490   4.232   2.084
 3372TIP3   OH210060   3.037   5.940   6.760
 3372TIP3    H110061   3.109   5.879   6.746
 3372TIP3    H210062   3.073   6.007   6.819
 3373TIP3   OH210063   4.871   4.284   1.684
 3373TIP3    H110064   4.882   4.194   1.655
 3373TIP3    H210065   4.777   4.294   1.698
 3374TIP3   OH210066   7.890   4.216   5.693
 3374TIP3    H110067   7.954   4.164   5.743
 3374TIP3    H210068   7.925   4.305   5.694
 3375TIP3   OH210069   6.570   3.216   5.451
 3375TIP3    H110070   6.528   3.134   5.425
 3375TIP3    H210071   6.498   3.279   5.458
 3376TIP3   OH210072   6.045   1.820   1.146
 3376TIP3    H110073   6.100   1.841   1.070
 3376TIP3    H210074   6.105   1.780   1.209
 3377TIP3   OH210075   1.932   1.270   4.031
 3377TIP3    H110076   1.875   1.265   3.954
 3377TIP3    H210077   2.019   1.285   3.996
 3378TIP3   OH210078   6.103   7.506   0.727
 3378TIP3    H110079   6.047   7.510   0.805
 3378TIP3    H210080   6.192   7.516   0.760
 3379TIP3   OH210081   2.279   0.752   6.572
 3379TIP3    H110082   2.307   0.825   6.516
 3379TIP3    H210083   2.348   0.687   6.561
 3380TIP3   OH210084   4.319   4.919   1.522
 3380TIP3    H110085   4.282   4.837   1.489
 3380TIP3    H210086   4.392   4.938   1.463
 3381TIP3   OH210087   2.864   5.901   2.183
 3381TIP3    H110088   2.785   5.918   2.234
 3381TIP3    H210089   2.933   5.948   2.229
 3382TIP3   OH210090   3.140   0.675   3.562
 3382TIP3    H110091   3.163   0.673   3.469
 3382TIP3    H210092   3.195   0.607   3.601
 3383TIP3   OH210093   6.455   0.639   6.115
 3383TIP3    H110094   6.469   0.582   6.039
 3383TIP3    H210095   6.527   0.703   6.110
 3384TIP3   OH210096   4.816   1.436   3.915
 3384TIP3    H110097   4.888   1.373   3.917
 3384TIP3    H210098   4.796   1.453   4.007
 3385TIP3   OH210099   3.305   7.398   4.782
 3385TIP3    H110100   3.222   7.360   4.810
 3385TIP3    H210101   3.284   7.488   4.758
 3386TIP3   OH210102   7.365   6.805   6.385
 3386TIP3    H110103   7.306   6.772   6.452
 3386TIP3    H210104   7.316   6.795   6.303
 3387TIP3   OH210105   8.079   6.590   0.125
 3387TIP3    H110106   8.166   6.566   0.158
 3387TIP3    H210107   8.064   6.531   0.051
 3388TIP3   OH210108   1.201   5.252   3.379
 3388TIP3    H110109   1.201   5.265   3.474
 3388TIP3    H210110   1.289   5.276   3.351
 3389TIP3   OH210111   4.015   5.422   3.962
 3389TIP3    H110112   3.950   5.449   4.027
 3389TIP3    H210113   3.963   5.383   3.891
 3390TIP3   OH210114   0.714   7.032   2.331
 3390TIP3    H110115   0.800   7.023   2.290
 3390TIP3    H210116   0.666   7.092   2.273
 3391TIP3   OH210117   7.876   3.329   5.948
 3391TIP3    H110118   7.794   3.378   5.940
 3391TIP3    H210119   7.944   3.396   5.947
 3392TIP3   OH210120   0.714   1.763   4.618
 3392TIP3    H110121   0.734   1.856   4.618
 3392TIP3    H210122   0.639   1.754   4.676
 3393TIP3   OH210123   4.580   6.113   0.133
 3393TIP3    H110124   4.672   6.111   0.157
 3393TIP3    H210125   4.544   6.031   0.167
 3394TIP3   OH210126   7.820   3.950   2.429
 3394TIP3    H110127   7.804   3.870   2.379
 3394TIP3    H210128   7.860   3.921   2.510
 3395TIP3   OH210129   2.407   6.147   1.491
 3395TIP3    H110130   2.363   6.116   1.412
 3395TIP3    H210131   2.421   6.068   1.543
 3396TIP3   OH210132   1.581   0.450   4.349
 3396TIP3    H110133   1.546   0.393   4.417
 3396TIP3    H210134   1.504   0.491   4.310
 3397TIP3   OH210135   0.536   5.831   2.147
 3397TIP3    H110136   0.614   5.850   2.199
 3397TIP3    H210137   0.485   5.772   2.202
 3398TIP3   OH210138   3.410   2.395   3.913
 3398TIP3    H110139   3.488   2.344   3.934
 3398TIP3    H210140   3.378   2.359   3.831
 3399TIP3   OH210141   1.046   6.614   2.558
 3399TIP3    H110142   1.060   6.683   2.622
 3399TIP3    H210143   0.988   6.552   2.602
 3400TIP3   OH210144   6.019   4.299   4.634
 3400TIP3    H110145   5.983   4.356   4.702
 3400TIP3    H210146   5.982   4.332   4.552
 3401TIP3   OH210147   6.036   5.399   6.663
 3401TIP3    H110148   6.019   5.323   6.607
 3401TIP3    H210149   5.963   5.458   6.646
 3402TIP3   OH210150   3.179   0.230   4.110
 3402TIP3    H110151   3.204   0.318   4.083
 3402TIP3    H210152   3.180   0.232   4.205
 3403TIP3   OH210153   3.136   0.241   6.089
 3403TIP3    H110154   3.219   0.214   6.050
 3403TIP3    H210155   3.085   0.274   6.015
 3404TIP3   OH210156   8.237   3.221   2.918
 3404TIP3    H110157   8.250   3.130   2.942
 3404TIP3    H210158   8.296   3.270   2.975
 3405TIP3   OH210159   7.449   5.721   2.829
 3405TIP3    H110160   7.512   5.779   2.872
 3405TIP3    H210161   7.364   5.761   2.845
 3406TIP3   OH210162   1.889   1.339   1.080
 3406TIP3    H110163   1.802   1.302   1.096
 3406TIP3    H210164   1.879   1.390   1.000
 3407TIP3   OH210165   1.333   4.436   5.932
 3407TIP3    H110166   1.365   4.526   5.922
 3407TIP3    H210167   1.263   4.442   5.997
 3408TIP3   OH210168   1.993   4.392   1.632
 3408TIP3    H110169   1.972   4.466   1.689
 3408TIP3    H210170   2.070   4.421   1.582
 3409TIP3   OH210171   5.050   1.152   6.652
 3409TIP3    H110172   5.077   1.179   6.564
 3409TIP3    H210173   5.128   1.113   6.691
 3410TIP3   OH210174   2.175   1.119   4.791
 3410TIP3    H110175   2.103   1.057   4.791
 3410TIP3    H210176   2.253   1.065   4.806
 3411TIP3   OH210177   7.513   6.038   1.297
 3411TIP3    H110178   7.557   6.033   1.212
 3411TIP3    H210179   7.523   5.951   1.334
 3412TIP3   OH210180   7.094   3.604   1.496
 3412TIP3    H110181   7.111   3.654   1.575
 3412TIP3    H210182   7.181   3.573   1.468
 3413TIP3   OH210183   1.555   2.615   0.325
 3413TIP3    H110184   1.575   2.678   0.395
 3413TIP3    H210185   1.466   2.585   0.345
 3414TIP3   OH210186   7.087   4.641   2.174
 3414TIP3    H110187   7.027   4.692   2.120
 3414TIP3    H210188   7.036   4.617   2.251
 3415TIP3   OH210189   7.702   5.249   2.765
 3415TIP3    H110190   7.790   5.222   2.738
 3415TIP3    H210191   7.712   5.274   2.857
 3416TIP3   OH210192   8.196   1.423   3.844
 3416TIP3    H110193   8.253   1.347   3.831
 3416TIP3    H210194   8.134   1.418   3.771
 3417TIP3   OH210195   4.923   5.200   5.284
 3417TIP3    H110196   4.943   5.254   5.361
 3417TIP3    H210197   4.867   5.130   5.318
 3418TIP3   OH210198   8.241   2.527   2.391
 3418TIP3    H110199   8.272   2.603   2.341
 3418TIP3    H210200   8.198   2.471   2.325
 3419TIP3   OH210201   0.504   0.683   5.918
 3419TIP3    H110202   0.499   0.769   5.959
 3419TIP3    H210203   0.567   0.633   5.971
 3420TIP3   OH210204   2.670   4.291   6.459
 3420TIP3    H110205   2.649   4.370   6.508
 3420TIP3    H210206   2.690   4.322   6.371
 3421TIP3   OH210207   7.857   0.925   1.974
 3421TIP3    H110208   7.879   0.873   1.897
 3421TIP3    H210209   7.782   0.881   2.013
 3422TIP3   OH210210   6.453   1.120   4.697
 3422TIP3    H110211   6.549   1.119   4.705
 3422TIP3    H210212   6.424   1.048   4.753
 3423TIP3   OH210213   3.270   3.319   6.654
 3423TIP3    H110214   3.353   3.341   6.697
 3423TIP3    H210215   3.226   3.404   6.642
 3424TIP3   OH210216   7.355   1.897   6.367
 3424TIP3    H110217   7.305   1.937   6.296
 3424TIP3    H210218   7.336   1.804   6.360
 3425TIP3   OH210219   1.458   3.315   1.791
 3425TIP3    H110220   1.488   3.367   1.865
 3425TIP3    H210221   1.363   3.327   1.790
 3426TIP3   OH210222   6.437   1.607   0.363
 3426TIP3    H110223   6.403   1.686   0.403
 3426TIP3    H210224   6.361   1.551   0.350
 3427TIP3   OH210225   2.847   6.831   2.949
 3427TIP3    H110226   2.865   6.758   3.008
 3427TIP3    H210227   2.759   6.814   2.915
 3428TIP3   OH210228   7.224   0.701   1.627
 3428TIP3    H110229   7.131   0.681   1.614
 3428TIP3    H210230   7.223   0.781   1.680
 3429TIP3   OH210231   2.844   0.117   4.638
 3429TIP3    H110232   2.801   0.197   4.668
 3429TIP3    H210233   2.773   0.058   4.614
 3430TIP3   OH210234   3.131   2.753   4.825
 3430TIP3    H110235   3.132   2.760   4.730
 3430TIP3    H210236   3.212   2.707   4.847
 3431TIP3   OH210237   3.422   7.408   1.509
 3431TIP3    H110238   3.348   7.441   1.561
 3431TIP3    H210239   3.465   7.487   1.476
 3432TIP3   OH210240   1.450   5.023   4.702
 3432TIP3    H110241   1.511   5.074   4.648
 3432TIP3    H210242   1.372   5.014   4.648
 3433TIP3   OH210243   2.895   6.989   6.183
 3433TIP3    H110244   2.829   6.984   6.114
 3433TIP3    H210245   2.858   6.940   6.256
 3434TIP3   OH210246   0.850   4.590   5.625
 3434TIP3    H110247   0.907   4.593   5.549
 3434TIP3    H210248   0.761   4.593   5.589
 3435TIP3   OH210249   5.014   3.636   5.617
 3435TIP3    H110250   5.057   3.646   5.532
 3435TIP3    H210251   5.086   3.632   5.680
 3436TIP3   OH210252   6.038   7.250   6.668
 3436TIP3    H110253   6.008   7.163   6.696
 3436TIP3    H210254   6.092   7.233   6.592
 3437TIP3   OH210255   5.946   7.201   4.225
 3437TIP3    H110256   5.882   7.132   4.240
 3437TIP3    H210257   5.929   7.266   4.293
 3438TIP3   OH210258   7.472   1.107   5.792
 3438TIP3    H110259   7.530   1.134   5.720
 3438TIP3    H210260   7.522   1.128   5.871
 3439TIP3   OH210261   6.709   1.358   6.035
 3439TIP3    H110262   6.756   1.278   6.058
 3439TIP3    H210263   6.619   1.342   6.063
 3440TIP3   OH210264   7.478   4.636   5.837
 3440TIP3    H110265   7.442   4.582   5.907
 3440TIP3    H210266   7.572   4.641   5.856
 3441TIP3   OH210267   5.946   4.444   0.327
 3441TIP3    H110268   5.914   4.371   0.381
 3441TIP3    H210269   5.977   4.509   0.391
 3442TIP3   OH210270   1.034   6.526   1.509
 3442TIP3    H110271   1.127   6.538   1.527
 3442TIP3    H210272   1.001   6.614   1.489
 3443TIP3   OH210273   3.945   0.733   0.313
 3443TIP3    H110274   3.973   0.814   0.355
 3443TIP3    H210275   3.852   0.746   0.293
 3444TIP3   OH210276   6.852   6.953   1.400
 3444TIP3    H110277   6.844   6.899   1.321
 3444TIP3    H210278   6.925   6.914   1.447
 3445TIP3   OH210279   1.000   7.274   4.837
 3445TIP3    H110280   1.092   7.257   4.815
 3445TIP3    H210281   0.983   7.219   4.914
 3446TIP3   OH210282   6.931   3.425   0.468
 3446TIP3    H110283   6.878   3.458   0.395
 3446TIP3    H210284   6.955   3.336   0.441
 3447TIP3   OH210285   7.472   5.794   4.198
 3447TIP3    H110286   7.470   5.884   4.167
 3447TIP3    H210287   7.561   5.763   4.180
 3448TIP3   OH210288   5.189   2.287   5.181
 3448TIP3    H110289   5.177   2.202   5.223
 3448TIP3    H210290   5.136   2.282   5.101
 3449TIP3   OH210291   4.638   5.812   1.453
 3449TIP3    H110292   4.678   5.767   1.379
 3449TIP3    H210293   4.698   5.884   1.474
 3450TIP3   OH210294   5.838   3.434   0.534
 3450TIP3    H110295   5.881   3.518   0.519
 3450TIP3    H210296   5.905   3.381   0.578
 3451TIP3   OH210297   3.400   0.907   2.118
 3451TIP3    H110298   3.421   0.831   2.063
 3451TIP3    H210299   3.327   0.950   2.073
 3452TIP3   OH210300   4.688   1.631   2.614
 3452TIP3    H110301   4.740   1.701   2.574
 3452TIP3    H210302   4.671   1.570   2.542
 3453TIP3   OH210303   3.728   3.727   0.396
 3453TIP3    H110304   3.667   3.800   0.398
 3453TIP3    H210305   3.691   3.667   0.330
 3454TIP3   OH210306   5.657   6.961   6.688
 3454TIP3    H110307   5.594   7.016   6.641
 3454TIP3    H210308   5.706   7.022   6.742
 3455TIP3   OH210309   6.918   6.102   1.268
 3455TIP3    H110310   6.833   6.132   1.236
 3455TIP3    H210311   6.976   6.108   1.192
 3456TIP3   OH210312   0.943   4.215   4.536
 3456TIP3    H110313   1.005   4.229   4.607
 3456TIP3    H210314   0.919   4.122   4.543
 3457TIP3   OH210315   0.054   6.166   5.221
 3457TIP3    H110316   0.053   6.142   5.314
 3457TIP3    H210317  -0.031   6.136   5.188
 3458TIP3   OH210318   4.703   2.862   1.927
 3458TIP3    H110319   4.719   2.782   1.976
 3458TIP3    H210320   4.741   2.931   1.980
 3459TIP3   OH210321   4.335   2.674   6.589
 3459TIP3    H110322   4.280   2.632   6.655
 3459TIP3    H210323   4.370   2.752   6.632
 3460TIP3   OH210324   2.021   6.081   4.753
 3460TIP3    H110325   1.943   6.053   4.801
 3460TIP3    H210326   2.005   6.053   4.663
 3461TIP3   OH210327   0.072   4.659   0.087
 3461TIP3    H110328   0.144   4.712   0.055
 3461TIP3    H210329   0.018   4.721   0.137
 3462TIP3   OH210330   6.634   6.820   5.057
 3462TIP3    H110331   6.708   6.878   5.076
 3462TIP3    H210332   6.606   6.787   5.142
 3463TIP3   OH210333   7.027   1.431   5.841
 3463TIP3    H110334   7.012   1.405   5.932
 3463TIP3    H210335   6.948   1.480   5.817
 3464TIP3   OH210336   3.522   1.388   2.576
 3464TIP3    H110337   3.568   1.312   2.612
 3464TIP3    H210338   3.463   1.415   2.645
 3465TIP3   OH210339   4.123   2.025   2.108
 3465TIP3    H110340   4.079   1.952   2.151
 3465TIP3    H210341   4.056   2.062   2.050
 3466TIP3   OH210342   2.874   6.136   2.747
 3466TIP3    H110343   2.790   6.090   2.740
 3466TIP3    H210344   2.890   6.140   2.841
 3467TIP3   OH210345   6.692   2.454   0.456
 3467TIP3    H110346   6.624   2.512   0.491
 3467TIP3    H210347   6.756   2.446   0.527
 3468TIP3   OH210348   8.237   5.212   5.943
 3468TIP3    H110349   8.167   5.148   5.956
 3468TIP3    H210350   8.229   5.239   5.852
 3469TIP3   OH210351   0.892   0.790   1.721
 3469TIP3    H110352   0.820   0.853   1.721
 3469TIP3    H210353   0.884   0.744   1.637
 3470TIP3   OH210354   7.059   6.154   5.540
 3470TIP3    H110355   7.143   6.138   5.584
 3470TIP3    H210356   7.032   6.068   5.508
 3471TIP3   OH210357   5.338   6.432   4.386
 3471TIP3    H110358   5.326   6.355   4.441
 3471TIP3    H210359   5.334   6.506   4.447
 3472TIP3   OH210360   2.386   7.492   0.265
 3472TIP3    H110361   2.429   7.420   0.219
 3472TIP3    H210362   2.313   7.517   0.208
 3473TIP3   OH210363   6.405   5.247   5.076
 3473TIP3    H110364   6.460   5.274   5.001
 3473TIP3    H210365   6.438   5.161   5.100
 3474TIP3   OH210366   3.770   5.950   4.062
 3474TIP3    H110367   3.792   6.042   4.045
 3474TIP3    H210368   3.761   5.945   4.157
 3475TIP3   OH210369   2.953   6.606   2.700
 3475TIP3    H110370   2.919   6.670   2.638
 3475TIP3    H210371   3.035   6.576   2.661
 3476TIP3   OH210372   5.967   4.630   5.602
 3476TIP3    H110373   6.054   4.626   5.562
 3476TIP3    H210374   5.967   4.712   5.651
 3477TIP3   OH210375   2.887   0.804   0.862
 3477TIP3    H110376   2.845   0.851   0.790
 3477TIP3    H210377   2.887   0.866   0.935
 3478TIP3   OH210378   0.101   1.829   1.283
 3478TIP3    H110379   0.131   1.750   1.328
 3478TIP3    H210380   0.070   1.798   1.198
 3479TIP3   OH210381   2.950   5.117   1.002
 3479TIP3    H110382   2.973   5.087   1.090
 3479TIP3    H210383   3.034   5.137   0.961
 3480TIP3   OH210384   1.143   2.189   3.306
 3480TIP3    H110385   1.098   2.122   3.256
 3480TIP3    H210386   1.232   2.156   3.318
 3481TIP3   OH210387   2.359   0.991   2.067
 3481TIP3    H110388   2.351   1.068   2.124
 3481TIP3    H210389   2.278   0.989   2.017
 3482TIP3   OH210390   6.839   1.382   5.575
 3482TIP3    H110391   6.893   1.340   5.508
 3482TIP3    H210392   6.855   1.476   5.563
 3483TIP3   OH210393   0.910   5.327   0.814
 3483TIP3    H110394   0.971   5.375   0.870
 3483TIP3    H210395   0.826   5.331   0.860
 3484TIP3   OH210396   3.452   6.443   2.337
 3484TIP3    H110397   3.447   6.360   2.384
 3484TIP3    H210398   3.528   6.433   2.279
 3485TIP3   OH210399   5.974   1.633   6.363
 3485TIP3    H110400   5.937   1.611   6.278
 3485TIP3    H210401   5.960   1.728   6.371
 3486TIP3   OH210402   5.197   7.635   6.301
 3486TIP3    H110403   5.101   7.628   6.299
 3486TIP3    H210404   5.223   7.586   6.378
 3487TIP3   OH210405   4.954   1.576   3.486
 3487TIP3    H110406   4.919   1.489   3.504
 3487TIP3    H210407   5.005   1.598   3.564
 3488TIP3   OH210408   4.342   0.424   6.706
 3488TIP3    H110409   4.301   0.385   6.629
 3488TIP3    H210410   4.325   0.362   6.776
 3489TIP3   OH210411   1.540   7.457   5.422
 3489TIP3    H110412   1.508   7.397   5.489
 3489TIP3    H210413   1.542   7.405   5.342
 3490TIP3   OH210414   4.688   1.784   6.233
 3490TIP3    H110415   4.678   1.695   6.269
 3490TIP3    H210416   4.648   1.779   6.146
 3491TIP3   OH210417   6.572   4.791   3.217
 3491TIP3    H110418   6.587   4.725   3.285
 3491TIP3    H210419   6.645   4.851   3.226
 3492TIP3   OH210420   0.185   7.170   5.564
 3492TIP3    H110421   0.234   7.119   5.629
 3492TIP3    H210422   0.239   7.247   5.548
 3493TIP3   OH210423   1.194   5.580   3.276
 3493TIP3    H110424   1.169   5.659   3.228
 3493TIP3    H210425   1.111   5.545   3.310
 3494TIP3   OH210426   2.307   7.707   3.898
 3494TIP3    H110427   2.270   7.774   3.841
 3494TIP3    H210428   2.360   7.653   3.840
 3495TIP3   OH210429   6.333   5.693   3.576
 3495TIP3    H110430   6.341   5.614   3.631
 3495TIP3    H210431   6.264   5.744   3.617
 3496TIP3   OH210432   1.685   0.937   1.652
 3496TIP3    H110433   1.681   0.872   1.582
 3496TIP3    H210434   1.703   1.020   1.607
 3497TIP3   OH210435   6.323   0.415   2.406
 3497TIP3    H110436   6.325   0.386   2.497
 3497TIP3    H210437   6.406   0.384   2.370
 3498TIP3   OH210438   3.642   6.212   2.796
 3498TIP3    H110439   3.713   6.163   2.838
 3498TIP3    H210440   3.581   6.145   2.765
 3499TIP3   OH210441   2.444   2.152   0.559
 3499TIP3    H110442   2.491   2.081   0.602
 3499TIP3    H210443   2.356   2.148   0.595
 3500TIP3   OH210444   8.183   6.354   0.780
 3500TIP3    H110445   8.206   6.438   0.819
 3500TIP3    H210446   8.220   6.289   0.840
 3501TIP3   OH210447   6.059   1.844   1.958
 3501TIP3    H110448   6.023   1.804   1.879
 3501TIP3    H210449   6.141   1.885   1.929
 3502TIP3   OH210450   7.665   2.624   0.515
 3502TIP3    H110451   7.675   2.623   0.420
 3502TIP3    H210452   7.651   2.716   0.537
 3503TIP3   OH210453   6.838   0.192   1.446
 3503TIP3    H110454   6.826   0.138   1.524
 3503TIP3    H210455   6.918   0.159   1.406
 3504TIP3   OH210456   3.740   6.154   1.356
 3504TIP3    H110457   3.802   6.186   1.292
 3504TIP3    H210458   3.724   6.228   1.414
 3505TIP3   OH210459   6.795   6.291   2.293
 3505TIP3    H110460   6.857   6.342   2.345
 3505TIP3    H210461   6.714   6.295   2.343
 3506TIP3   OH210462   0.234   3.916   0.805
 3506TIP3    H110463   0.198   3.883   0.722
 3506TIP3    H210464   0.291   3.846   0.836
 3507TIP3   OH210465   7.483   5.946   4.781
 3507TIP3    H110466   7.424   5.880   4.743
 3507TIP3    H210467   7.568   5.902   4.784
 3508TIP3   OH210468   5.553   0.072   1.844
 3508TIP3    H110469   5.468   0.032   1.861
 3508TIP3    H210470   5.606   0.048   1.920
 3509TIP3   OH210471   0.380   6.969   3.069
 3509TIP3    H110472   0.301   7.021   3.085
 3509TIP3    H210473   0.397   6.981   2.975
 3510TIP3   OH210474   3.602   3.293   2.619
 3510TIP3    H110475   3.656   3.292   2.540
 3510TIP3    H210476   3.650   3.239   2.681
 3511TIP3   OH210477   0.433   6.665   0.719
 3511TIP3    H110478   0.408   6.660   0.626
 3511TIP3    H210479   0.369   6.609   0.764
 3512TIP3   OH210480   0.693   5.042   3.286
 3512TIP3    H110481   0.721   5.006   3.370
 3512TIP3    H210482   0.747   4.997   3.221
 3513TIP3   OH210483   7.979   6.500   4.371
 3513TIP3    H110484   8.037   6.492   4.295
 3513TIP3    H210485   7.943   6.588   4.365
 3514TIP3   OH210486   7.724   2.571   3.858
 3514TIP3    H110487   7.707   2.651   3.908
 3514TIP3    H210488   7.817   2.554   3.871
 3515TIP3   OH210489   5.514   3.489   5.067
 3515TIP3    H110490   5.488   3.468   4.977
 3515TIP3    H210491   5.501   3.583   5.075
 3516TIP3   OH210492   3.584   4.947   0.784
 3516TIP3    H110493   3.646   5.020   0.786
 3516TIP3    H210494   3.550   4.942   0.873
 3517TIP3   OH210495   4.689   4.370   0.813
 3517TIP3    H110496   4.744   4.376   0.735
 3517TIP3    H210497   4.701   4.281   0.845
 3518TIP3   OH210498   7.260   1.882   4.509
 3518TIP3    H110499   7.222   1.960   4.548
 3518TIP3    H210500   7.335   1.861   4.565
 3519TIP3   OH210501   1.208   0.288   6.332
 3519TIP3    H110502   1.241   0.269   6.244
 3519TIP3    H210503   1.142   0.221   6.348
 3520TIP3   OH210504   2.580   7.034   3.690
 3520TIP3    H110505   2.516   6.986   3.637
 3520TIP3    H210506   2.663   6.991   3.671
 3521TIP3   OH210507   4.292   7.770   2.419
 3521TIP3    H110508   4.239   7.693   2.400
 3521TIP3    H210509   4.230   7.838   2.444
 3522TIP3   OH210510   5.844   7.818   4.461
 3522TIP3    H110511   5.750   7.819   4.481
 3522TIP3    H210512   5.883   7.771   4.536
 3523TIP3   OH210513   6.391   1.304   6.119
 3523TIP3    H110514   6.367   1.337   6.033
 3523TIP3    H210515   6.388   1.209   6.110
 3524TIP3   OH210516   3.549   5.451   3.958
 3524TIP3    H110517   3.523   5.410   3.875
 3524TIP3    H210518   3.588   5.535   3.932
 3525TIP3   OH210519   1.660   1.689   0.932
 3525TIP3    H110520   1.718   1.765   0.924
 3525TIP3    H210521   1.706   1.619   0.885
 3526TIP3   OH210522   3.168   0.353   2.719
 3526TIP3    H110523   3.222   0.389   2.789
 3526TIP3    H210524   3.224   0.286   2.678
 3527TIP3   OH210525   2.782   7.292   4.215
 3527TIP3    H110526   2.845   7.234   4.173
 3527TIP3    H210527   2.806   7.290   4.308
 3528TIP3   OH210528   1.673   1.831   1.822
 3528TIP3    H110529   1.760   1.870   1.828
 3528TIP3    H210530   1.675   1.758   1.884
 3529TIP3   OH210531   2.368   0.294   6.701
 3529TIP3    H110532   2.398   0.272   6.789
 3529TIP3    H210533   2.433   0.255   6.643
 3530TIP3   OH210534   3.482   4.669   5.435
 3530TIP3    H110535   3.388   4.687   5.438
 3530TIP3    H210536   3.495   4.595   5.494
 3531TIP3   OH210537   3.991   7.412   0.994
 3531TIP3    H110538   3.946   7.332   1.019
 3531TIP3    H210539   4.077   7.405   1.035
 3532TIP3   OH210540   6.234   5.560   2.149
 3532TIP3    H110541   6.222   5.467   2.129
 3532TIP3    H210542   6.297   5.591   2.084
 3533TIP3   OH210543   6.973   7.462   1.839
 3533TIP3    H110544   6.992   7.368   1.847
 3533TIP3    H210545   7.037   7.495   1.777
 3534TIP3   OH210546   4.967   5.704   6.476
 3534TIP3    H110547   4.991   5.664   6.393
 3534TIP3    H210548   5.009   5.648   6.542
 3535TIP3   OH210549   5.259   4.041   6.765
 3535TIP3    H110550   5.238   4.069   6.676
 3535TIP3    H210551   5.346   4.002   6.757
 3536TIP3   OH210552   2.661   4.283   0.507
 3536TIP3    H110553   2.703   4.218   0.451
 3536TIP3    H210554   2.712   4.363   0.494
 3537TIP3   OH210555   0.560   2.317   2.132
 3537TIP3    H110556   0.642   2.285   2.168
 3537TIP3    H210557   0.562   2.292   2.039
 3538TIP3   OH210558   5.935   7.707   5.999
 3538TIP3    H110559   5.951   7.799   6.022
 3538TIP3    H210560   5.924   7.663   6.083
 3539TIP3   OH210561   6.258   4.707   1.716
 3539TIP3    H110562   6.322   4.660   1.769
 3539TIP3    H210563   6.272   4.674   1.627
 3540TIP3   OH210564   3.759   4.315   2.563
 3540TIP3    H110565   3.836   4.278   2.518
 3540TIP3    H210566   3.685   4.268   2.525
 3541TIP3   OH210567   5.313   0.788   5.053
 3541TIP3    H110568   5.401   0.787   5.014
 3541TIP3    H210569   5.312   0.866   5.108
 3542TIP3   OH210570   7.690   2.726   1.842
 3542TIP3    H110571   7.691   2.820   1.861
 3542TIP3    H210572   7.780   2.706   1.813
 3543TIP3   OH210573   4.293   1.260   2.372
 3543TIP3    H110574   4.353   1.213   2.315
 3543TIP3    H210575   4.349   1.294   2.442
 3544TIP3   OH210576   5.781   3.690   3.601
 3544TIP3    H110577   5.757   3.605   3.564
 3544TIP3    H210578   5.735   3.753   3.546
 3545TIP3   OH210579   0.760   3.887   5.462
 3545TIP3    H110580   0.702   3.811   5.463
 3545TIP3    H210581   0.729   3.940   5.388
 3546TIP3   OH210582   4.716   5.595   1.831
 3546TIP3    H110583   4.666   5.587   1.750
 3546TIP3    H210584   4.659   5.646   1.889
 3547TIP3   OH210585   5.783   4.894   2.646
 3547TIP3    H110586   5.865   4.866   2.606
 3547TIP3    H210587   5.794   4.988   2.660
 3548TIP3   OH210588   0.466   1.777   4.759
 3548TIP3    H110589   0.399   1.717   4.729
 3548TIP3    H210590   0.480   1.754   4.851
 3549TIP3   OH210591   6.575   4.866   2.792
 3549TIP3    H110592   6.643   4.857   2.725
 3549TIP3    H210593   6.606   4.814   2.866
 3550TIP3   OH210594   4.108   5.955   6.714
 3550TIP3    H110595   4.088   5.881   6.656
 3550TIP3    H210596   4.126   5.914   6.799
 3551TIP3   OH210597   5.880   2.229   5.973
 3551TIP3    H110598   5.821   2.228   5.898
 3551TIP3    H210599   5.965   2.204   5.936
 3552TIP3   OH210600   4.505   0.798   1.497
 3552TIP3    H110601   4.546   0.881   1.519
 3552TIP3    H210602   4.417   0.803   1.535
 3553TIP3   OH210603   5.369   5.162   1.257
 3553TIP3    H110604   5.410   5.081   1.286
 3553TIP3    H210605   5.305   5.182   1.325
 3554TIP3   OH210606   6.300   6.095   4.644
 3554TIP3    H110607   6.260   6.055   4.567
 3554TIP3    H210608   6.286   6.189   4.633
 3555TIP3   OH210609   1.277   6.887   0.405
 3555TIP3    H110610   1.354   6.933   0.439
 3555TIP3    H210611   1.264   6.924   0.318
 3556TIP3   OH210612   7.823   1.290   3.276
 3556TIP3    H110613   7.839   1.238   3.197
 3556TIP3    H210614   7.891   1.358   3.273
 3557TIP3   OH210615   3.064   4.744   1.080
 3557TIP3    H110616   3.057   4.675   1.146
 3557TIP3    H210617   3.007   4.714   1.008
 3558TIP3   OH210618   1.686   6.884   5.066
 3558TIP3    H110619   1.713   6.972   5.039
 3558TIP3    H210620   1.703   6.881   5.160
 3559TIP3   OH210621   5.029   6.230   4.743
 3559TIP3    H110622   5.032   6.298   4.675
 3559TIP3    H210623   4.965   6.167   4.711
 3560TIP3   OH210624   2.601   0.108   5.400
 3560TIP3    H110625   2.647   0.081   5.321
 3560TIP3    H210626   2.553   0.187   5.374
 3561TIP3   OH210627   0.718   1.125   2.559
 3561TIP3    H110628   0.809   1.155   2.548
 3561TIP3    H210629   0.715   1.091   2.648
 3562TIP3   OH210630   2.388   7.293   1.137
 3562TIP3    H110631   2.379   7.388   1.151
 3562TIP3    H210632   2.373   7.282   1.043
 3563TIP3   OH210633   1.190   6.612   2.861
 3563TIP3    H110634   1.268   6.630   2.808
 3563TIP3    H210635   1.223   6.570   2.940
 3564TIP3   OH210636   5.432   5.310   1.622
 3564TIP3    H110637   5.496   5.370   1.583
 3564TIP3    H210638   5.479   5.269   1.694
 3565TIP3   OH210639   1.524   6.399   4.361
 3565TIP3    H110640   1.450   6.339   4.362
 3565TIP3    H210641   1.484   6.486   4.359
 3566TIP3   OH210642   5.658   4.462   3.470
 3566TIP3    H110643   5.673   4.409   3.392
 3566TIP3    H210644   5.565   4.485   3.467
 3567TIP3   OH210645   7.804   6.272   6.127
 3567TIP3    H110646   7.788   6.190   6.173
 3567TIP3    H210647   7.759   6.262   6.043
 3568TIP3   OH210648   6.448   7.671   2.269
 3568TIP3    H110649   6.530   7.639   2.231
 3568TIP3    H210650   6.399   7.706   2.194
 3569TIP3   OH210651   5.022   6.597   5.570
 3569TIP3    H110652   4.944   6.589   5.625
 3569TIP3    H210653   5.017   6.523   5.510
 3570TIP3   OH210654   7.023   2.833   3.472
 3570TIP3    H110655   7.019   2.927   3.456
 3570TIP3    H210656   7.071   2.824   3.554
 3571TIP3   OH210657   8.246   1.189   4.988
 3571TIP3    H110658   8.208   1.235   5.062
 3571TIP3    H210659   8.239   1.251   4.915
 3572TIP3   OH210660   2.601   6.987   0.285
 3572TIP3    H110661   2.549   6.911   0.310
 3572TIP3    H210662   2.669   6.993   0.352
 3573TIP3   OH210663   1.865   7.616   4.775
 3573TIP3    H110664   1.792   7.644   4.831
 3573TIP3    H210665   1.942   7.655   4.815
 3574TIP3   OH210666   2.656   4.160   4.605
 3574TIP3    H110667   2.587   4.094   4.616
 3574TIP3    H210668   2.731   4.124   4.652
 3575TIP3   OH210669   3.594   2.610   5.940
 3575TIP3    H110670   3.659   2.552   5.901
 3575TIP3    H210671   3.513   2.591   5.892
 3576TIP3   OH210672   5.106   1.572   6.231
 3576TIP3    H110673   5.175   1.612   6.178
 3576TIP3    H210674   5.116   1.612   6.317
 3577TIP3   OH210675   6.748   4.844   6.470
 3577TIP3    H110676   6.842   4.831   6.478
 3577TIP3    H210677   6.739   4.935   6.441
 3578TIP3   OH210678   6.018   0.791   1.423
 3578TIP3    H110679   6.036   0.866   1.368
 3578TIP3    H210680   6.031   0.823   1.512
 3579TIP3   OH210681   5.984   5.860   4.247
 3579TIP3    H110682   6.053   5.795   4.264
 3579TIP3    H210683   5.907   5.826   4.293
 3580TIP3   OH210684   7.259   0.795   0.576
 3580TIP3    H110685   7.164   0.792   0.590
 3580TIP3    H210686   7.294   0.829   0.659
 3581TIP3   OH210687   6.742   2.252   5.209
 3581TIP3    H110688   6.649   2.236   5.190
 3581TIP3    H210689   6.756   2.210   5.294
 3582TIP3   OH210690   0.766   1.958   2.537
 3582TIP3    H110691   0.835   1.906   2.497
 3582TIP3    H210692   0.697   1.895   2.558
 3583TIP3   OH210693   8.141   1.017   2.396
 3583TIP3    H110694   8.161   1.110   2.402
 3583TIP3    H210695   8.096   0.997   2.478
 3584TIP3   OH210696   4.827   5.544   4.138
 3584TIP3    H110697   4.733   5.523   4.137
 3584TIP3    H210698   4.869   5.461   4.161
 3585TIP3   OH210699   6.136   2.904   4.462
 3585TIP3    H110700   6.134   2.826   4.407
 3585TIP3    H210701   6.110   2.873   4.549
 3586TIP3   OH210702   2.203   4.871   3.513
 3586TIP3    H110703   2.186   4.850   3.605
 3586TIP3    H210704   2.291   4.839   3.496
 3587TIP3   OH210705   0.717   4.395   3.717
 3587TIP3    H110706   0.785   4.461   3.706
 3587TIP3    H210707   0.702   4.392   3.812
 3588TIP3   OH210708   3.426   3.748   4.774
 3588TIP3    H110709   3.476   3.755   4.693
 3588TIP3    H210710   3.485   3.704   4.835
 3589TIP3   OH210711   5.428   7.489   2.949
 3589TIP3    H110712   5.413   7.412   3.004
 3589TIP3    H210713   5.520   7.482   2.924
 3590TIP3   OH210714   1.165   6.261   5.228
 3590TIP3    H110715   1.207   6.270   5.314
 3590TIP3    H210716   1.224   6.307   5.168
 3591TIP3   OH210717   6.516   6.571   4.218
 3591TIP3    H110718   6.436   6.523   4.238
 3591TIP3    H210719   6.533   6.624   4.296
 3592TIP3   OH210720   2.507   2.919   4.570
 3592TIP3    H110721   2.456   2.999   4.581
 3592TIP3    H210722   2.500   2.898   4.477
 3593TIP3   OH210723   7.269   4.930   4.589
 3593TIP3    H110724   7.299   5.021   4.584
 3593TIP3    H210725   7.184   4.935   4.632
 3594TIP3   OH210726   6.242   7.478   4.891
 3594TIP3    H110727   6.292   7.548   4.849
 3594TIP3    H210728   6.262   7.400   4.839
 3595TIP3   OH210729   6.128   0.160   2.597
 3595TIP3    H110730   6.173   0.107   2.663
 3595TIP3    H210731   6.094   0.235   2.644
 3596TIP3   OH210732   6.050   1.270   6.618
 3596TIP3    H110733   5.972   1.282   6.563
 3596TIP3    H210734   6.027   1.198   6.677
 3597TIP3   OH210735   6.831   4.218   1.184
 3597TIP3    H110736   6.839   4.126   1.158
 3597TIP3    H210737   6.837   4.267   1.102
 3598TIP3   OH210738   3.809   5.195   5.663
 3598TIP3    H110739   3.871   5.124   5.649
 3598TIP3    H210740   3.730   5.152   5.695
 3599TIP3   OH210741   0.040   6.507   2.631
 3599TIP3    H110742   0.132   6.534   2.641
 3599TIP3    H210743   0.012   6.485   2.720
 3600TIP3   OH210744   0.202   1.346   6.257
 3600TIP3    H110745   0.115   1.383   6.240
 3600TIP3    H210746   0.188   1.251   6.258
 3601TIP3   OH210747   5.727   7.049   0.342
 3601TIP3    H110748   5.805   7.018   0.388
 3601TIP3    H210749   5.760   7.076   0.256
 3602TIP3   OH210750   4.846   7.009   5.793
 3602TIP3    H110751   4.886   7.097   5.794
 3602TIP3    H210752   4.887   6.966   5.718
 3603TIP3   OH210753   4.712   2.951   4.263
 3603TIP3    H110754   4.773   3.024   4.267
 3603TIP3    H210755   4.710   2.926   4.170
 3604TIP3   OH210756   5.814   1.241   0.038
 3604TIP3    H110757   5.786   1.293   0.113
 3604TIP3    H210758   5.881   1.182   0.073
 3605TIP3   OH210759   5.142   7.328   4.430
 3605TIP3    H110760   5.235   7.307   4.427
 3605TIP3    H210761   5.113   7.298   4.516
 3606TIP3   OH210762   5.508   4.128   4.606
 3606TIP3    H110763   5.600   4.155   4.608
 3606TIP3    H210764   5.470   4.165   4.685
 3607TIP3   OH210765   1.705   1.805   3.312
 3607TIP3    H110766   1.691   1.721   3.269
 3607TIP3    H210767   1.671   1.793   3.400
 3608TIP3   OH210768   1.364   0.802   0.270
 3608TIP3    H110769   1.391   0.893   0.260
 3608TIP3    H210770   1.436   0.760   0.317
 3609TIP3   OH210771   7.710   5.791   1.175
 3609TIP3    H110772   7.720   5.883   1.149
 3609TIP3    H210773   7.631   5.790   1.230
 3610TIP3   OH210774   5.582   6.248   3.026
 3610TIP3    H110775   5.647   6.241   3.096
 3610TIP3    H210776   5.633   6.247   2.945
 3611TIP3   OH210777   1.744   3.064   5.537
 3611TIP3    H110778   1.714   3.111   5.459
 3611TIP3    H210779   1.770   3.133   5.598
 3612TIP3   OH210780   4.638   3.090   5.107
 3612TIP3    H110781   4.547   3.064   5.092
 3612TIP3    H210782   4.689   3.012   5.086
 3613TIP3   OH210783   0.999   3.594   3.852
 3613TIP3    H110784   0.946   3.590   3.932
 3613TIP3    H210785   1.089   3.593   3.882
 3614TIP3   OH210786   3.613   5.434   5.260
 3614TIP3    H110787   3.657   5.399   5.337
 3614TIP3    H210788   3.655   5.390   5.186
 3615TIP3   OH210789   5.108   2.228   1.153
 3615TIP3    H110790   5.163   2.263   1.223
 3615TIP3    H210791   5.087   2.139   1.182
 3616TIP3   OH210792   0.541   3.422   5.146
 3616TIP3    H110793   0.628   3.456   5.168
 3616TIP3    H210794   0.551   3.327   5.151
 3617TIP3   OH210795   2.123   5.424   2.554
 3617TIP3    H110796   2.062   5.367   2.601
 3617TIP3    H210797   2.104   5.407   2.461
 3618TIP3   OH210798   2.312   3.123   4.555
 3618TIP3    H110799   2.247   3.095   4.490
 3618TIP3    H210800   2.270   3.105   4.639
 3619TIP3   OH210801   0.050   1.979   5.631
 3619TIP3    H110802   0.095   2.055   5.669
 3619TIP3    H210803   0.085   1.973   5.542
 3620TIP3   OH210804   6.611   5.618   6.187
 3620TIP3    H110805   6.521   5.650   6.184
 3620TIP3    H210806   6.611   5.550   6.254
 3621TIP3   OH210807   2.550   6.404   4.694
 3621TIP3    H110808   2.540   6.328   4.637
 3621TIP3    H210809   2.618   6.379   4.757
 3622TIP3   OH210810   0.948   6.533   0.793
 3622TIP3    H110811   1.040   6.541   0.770
 3622TIP3    H210812   0.913   6.622   0.786
 3623TIP3   OH210813   2.241   3.936   1.119
 3623TIP3    H110814   2.292   3.877   1.174
 3623TIP3    H210815   2.182   3.879   1.070
 3624TIP3   OH210816   5.022   3.527   4.508
 3624TIP3    H110817   5.041   3.437   4.534
 3624TIP3    H210818   4.927   3.533   4.506
 3625TIP3   OH210819   2.651   5.506   4.224
 3625TIP3    H110820   2.586   5.468   4.283
 3625TIP3    H210821   2.642   5.457   4.142
 3626TIP3   OH210822   6.720   7.357   5.599
 3626TIP3    H110823   6.814   7.360   5.583
 3626TIP3    H210824   6.691   7.278   5.554
 3627TIP3   OH210825   2.750   3.335   2.241
 3627TIP3    H110826   2.729   3.384   2.162
 3627TIP3    H210827   2.666   3.322   2.284
 3628TIP3   OH210828   4.828   3.207   1.178
 3628TIP3    H110829   4.916   3.175   1.157
 3628TIP3    H210830   4.807   3.166   1.262
 3629TIP3   OH210831   1.503   5.844   3.731
 3629TIP3    H110832   1.523   5.890   3.650
 3629TIP3    H210833   1.588   5.819   3.767
 3630TIP3   OH210834   7.134   5.145   6.230
 3630TIP3    H110835   7.074   5.149   6.304
 3630TIP3    H210836   7.177   5.060   6.239
 3631TIP3   OH210837   7.423   7.450   3.510
 3631TIP3    H110838   7.395   7.541   3.514
 3631TIP3    H210839   7.368   7.410   3.444
 3632TIP3   OH210840   6.083   5.405   0.154
 3632TIP3    H110841   6.017   5.363   0.209
 3632TIP3    H210842   6.034   5.437   0.078
 3633TIP3   OH210843   3.298   2.865   3.909
 3633TIP3    H110844   3.337   2.789   3.953
 3633TIP3    H210845   3.325   2.940   3.962
 3634TIP3   OH210846   0.238   0.028   2.407
 3634TIP3    H110847   0.260   0.118   2.386
 3634TIP3    H210848   0.251  -0.020   2.325
 3635TIP3   OH210849   6.876   7.441   6.149
 3635TIP3    H110850   6.876   7.403   6.061
 3635TIP3    H210851   6.952   7.402   6.192
 3636TIP3   OH210852   1.038   1.167   4.658
 3636TIP3    H110853   1.053   1.074   4.671
 3636TIP3    H210854   0.956   1.186   4.704
 3637TIP3   OH210855   3.415   5.898   0.880
 3637TIP3    H110856   3.423   5.814   0.834
 3637TIP3    H210857   3.320   5.915   0.882
 3638TIP3   OH210858   5.488   3.497   1.015
 3638TIP3    H110859   5.463   3.523   1.104
 3638TIP3    H210860   5.569   3.544   0.998
 3639TIP3   OH210861   1.953   5.592   0.571
 3639TIP3    H110862   1.911   5.631   0.648
 3639TIP3    H210863   1.920   5.502   0.569
 3640TIP3   OH210864   7.904   4.314   4.332
 3640TIP3    H110865   7.963   4.327   4.257
 3640TIP3    H210866   7.890   4.401   4.368
 3641TIP3   OH210867   4.914   5.098   4.591
 3641TIP3    H110868   4.841   5.158   4.578
 3641TIP3    H210869   4.977   5.121   4.523
 3642TIP3   OH210870   2.613   6.414   1.185
 3642TIP3    H110871   2.681   6.386   1.246
 3642TIP3    H210872   2.652   6.402   1.098
 3643TIP3   OH210873   0.553   7.031   5.085
 3643TIP3    H110874   0.632   7.071   5.049
 3643TIP3    H210875   0.481   7.072   5.037
 3644TIP3   OH210876   1.500   1.600   5.482
 3644TIP3    H110877   1.428   1.593   5.544
 3644TIP3    H210878   1.461   1.641   5.404
 3645TIP3   OH210879   4.786   4.236   4.882
 3645TIP3    H110880   4.856   4.248   4.818
 3645TIP3    H210881   4.729   4.312   4.871
 3646TIP3   OH210882   2.697   0.755   6.341
 3646TIP3    H110883   2.708   0.718   6.429
 3646TIP3    H210884   2.676   0.847   6.356
 3647TIP3   OH210885   6.200   4.375   1.798
 3647TIP3    H110886   6.281   4.420   1.821
 3647TIP3    H210887   6.214   4.344   1.708
 3648TIP3   OH210888   4.014   7.151   6.369
 3648TIP3    H110889   4.092   7.140   6.314
 3648TIP3    H210890   3.953   7.200   6.313
 3649TIP3   OH210891   0.507   4.188   6.633
 3649TIP3    H110892   0.537   4.216   6.546
 3649TIP3    H210893   0.436   4.249   6.654
 3650TIP3   OH210894   0.790   1.671   1.614
 3650TIP3    H110895   0.867   1.618   1.594
 3650TIP3    H210896   0.819   1.732   1.682
 3651TIP3   OH210897   3.890   6.705   0.366
 3651TIP3    H110898   3.823   6.664   0.311
 3651TIP3    H210899   3.961   6.726   0.306
 3652TIP3   OH210900   4.893   6.790   4.796
 3652TIP3    H110901   4.878   6.697   4.809
 3652TIP3    H210902   4.917   6.823   4.883
 3653TIP3   OH210903   6.920   3.599   2.733
 3653TIP3    H110904   6.948   3.522   2.782
 3653TIP3    H210905   6.826   3.603   2.748
 3654TIP3   OH210906   6.004   4.902   6.004
 3654TIP3    H110907   5.999   4.993   6.034
 3654TIP3    H210908   5.916   4.867   6.019
 3655TIP3   OH210909   6.724   7.292   1.629
 3655TIP3    H110910   6.630   7.283   1.645
 3655TIP3    H210911   6.765   7.268   1.712
 3656TIP3   OH210912   5.766   2.958   0.955
 3656TIP3    H110913   5.798   2.893   1.017
 3656TIP3    H210914   5.720   2.907   0.888
 3657TIP3   OH210915   2.664   1.988   3.827
 3657TIP3    H110916   2.619   2.055   3.777
 3657TIP3    H210917   2.736   2.034   3.870
 3658TIP3   OH210918   0.192   2.458   3.105
 3658TIP3    H110919   0.182   2.380   3.161
 3658TIP3    H210920   0.111   2.507   3.119
 3659TIP3   OH210921   1.085   7.348   0.110
 3659TIP3    H110922   1.123   7.435   0.097
 3659TIP3    H210923   1.093   7.332   0.204
 3660TIP3   OH210924   0.695   6.381   5.069
 3660TIP3    H110925   0.629   6.339   5.125
 3660TIP3    H210926   0.744   6.309   5.031
 3661TIP3   OH210927   2.348   4.743   4.573
 3661TIP3    H110928   2.283   4.742   4.502
 3661TIP3    H210929   2.301   4.780   4.648
 3662TIP3   OH210930   7.579   3.230   5.758
 3662TIP3    H110931   7.652   3.172   5.738
 3662TIP3    H210932   7.521   3.178   5.814
 3663TIP3   OH210933   2.645   4.672   4.530
 3663TIP3    H110934   2.635   4.590   4.482
 3663TIP3    H210935   2.556   4.705   4.540
 3664TIP3   OH210936   3.524   7.305   1.879
 3664TIP3    H110937   3.560   7.272   1.796
 3664TIP3    H210938   3.468   7.378   1.853
 3665TIP3   OH210939   5.103   0.159   4.389
 3665TIP3    H110940   5.138   0.248   4.380
 3665TIP3    H210941   5.073   0.137   4.301
 3666TIP3   OH210942   3.176   2.180   0.055
 3666TIP3    H110943   3.179   2.216  -0.033
 3666TIP3    H210944   3.090   2.206   0.089
 3667TIP3   OH210945   0.993   2.286   1.655
 3667TIP3    H110946   1.089   2.276   1.655
 3667TIP3    H210947   0.964   2.239   1.733
 3668TIP3   OH210948   7.418   6.316   0.453
 3668TIP3    H110949   7.452   6.392   0.406
 3668TIP3    H210950   7.353   6.278   0.393
 3669TIP3   OH210951   6.087   6.232   5.501
 3669TIP3    H110952   6.009   6.285   5.490
 3669TIP3    H210953   6.093   6.181   5.421
 3670TIP3   OH210954   5.412   6.894   4.377
 3670TIP3    H110955   5.357   6.884   4.299
 3670TIP3    H210956   5.485   6.835   4.362
 3671TIP3   OH210957   1.048   5.928   6.012
 3671TIP3    H110958   1.115   5.889   5.956
 3671TIP3    H210959   1.066   5.895   6.099
 3672TIP3   OH210960   2.472   0.893   1.388
 3672TIP3    H110961   2.501   0.951   1.318
 3672TIP3    H210962   2.402   0.841   1.349
 3673TIP3   OH210963   3.434   6.215   4.934
 3673TIP3    H110964   3.510   6.273   4.941
 3673TIP3    H210965   3.407   6.223   4.842
 3674TIP3   OH210966   4.067   3.473   6.352
 3674TIP3    H110967   3.995   3.438   6.300
 3674TIP3    H210968   4.043   3.455   6.443
 3675TIP3   OH210969   3.173   1.153   6.221
 3675TIP3    H110970   3.109   1.082   6.222
 3675TIP3    H210971   3.256   1.112   6.248
 3676TIP3   OH210972   1.968   4.695   6.655
 3676TIP3    H110973   1.911   4.623   6.629
 3676TIP3    H210974   1.908   4.770   6.663
 3677TIP3   OH210975   1.843   4.940   1.062
 3677TIP3    H110976   1.907   4.912   1.127
 3677TIP3    H210977   1.871   5.028   1.037
 3678TIP3   OH210978   7.013   3.281   0.715
 3678TIP3    H110979   6.943   3.223   0.744
 3678TIP3    H210980   6.969   3.364   0.695
 3679TIP3   OH210981   5.729   4.998   1.893
 3679TIP3    H110982   5.761   4.911   1.917
 3679TIP3    H210983   5.723   5.045   1.976
 3680TIP3   OH210984   1.108   1.632   5.869
 3680TIP3    H110985   1.196   1.635   5.905
 3680TIP3    H210986   1.055   1.592   5.937
 3681TIP3   OH210987   0.722   1.093   5.328
 3681TIP3    H110988   0.740   1.168   5.271
 3681TIP3    H210989   0.773   1.021   5.291
 3682TIP3   OH210990   6.717   3.378   5.793
 3682TIP3    H110991   6.801   3.346   5.828
 3682TIP3    H210992   6.655   3.308   5.813
 3683TIP3   OH210993   5.831   2.250   4.643
 3683TIP3    H110994   5.899   2.289   4.697
 3683TIP3    H210995   5.795   2.323   4.593
 3684TIP3   OH210996   4.821   6.173   6.194
 3684TIP3    H110997   4.866   6.117   6.256
 3684TIP3    H210998   4.732   6.180   6.228
 3685TIP3   OH210999   2.065   6.585   3.359
 3685TIP3    H111000   2.132   6.585   3.428
 3685TIP3    H211001   2.004   6.516   3.385
 3686TIP3   OH211002   7.036   1.901   1.434
 3686TIP3    H111003   6.973   1.973   1.444
 3686TIP3    H211004   7.027   1.875   1.342
 3687TIP3   OH211005   2.326   3.960   1.695
 3687TIP3    H111006   2.368   4.036   1.655
 3687TIP3    H211007   2.232   3.980   1.692
 3688TIP3   OH211008   4.556   5.805   1.166
 3688TIP3    H111009   4.607   5.726   1.183
 3688TIP3    H211010   4.475   5.774   1.127
 3689TIP3   OH211011   4.242   5.094   6.070
 3689TIP3    H111012   4.251   5.138   6.154
 3689TIP3    H211013   4.150   5.069   6.066
 3690TIP3   OH211014   3.919   6.599   5.180
 3690TIP3    H111015   3.860   6.536   5.222
 3690TIP3    H211016   3.990   6.612   5.244
 3691TIP3   OH211017   4.094   1.065   2.370
 3691TIP3    H111018   4.126   1.016   2.445
 3691TIP3    H211019   4.139   1.149   2.375
 3692TIP3   OH211020   1.916   6.966   6.066
 3692TIP3    H111021   1.853   6.997   6.000
 3692TIP3    H211022   1.870   6.894   6.109
 3693TIP3   OH211023   7.932   6.574   3.350
 3693TIP3    H111024   7.875   6.499   3.366
 3693TIP3    H211025   8.020   6.535   3.342
 3694TIP3   OH211026   7.217   5.087   3.802
 3694TIP3    H111027   7.268   5.050   3.730
 3694TIP3    H211028   7.268   5.067   3.881
 3695TIP3   OH211029   4.390   3.439   3.908
 3695TIP3    H111030   4.388   3.520   3.857
 3695TIP3    H211031   4.454   3.384   3.863
 3696TIP3   OH211032   4.185   1.789   5.172
 3696TIP3    H111033   4.191   1.769   5.079
 3696TIP3    H211034   4.106   1.744   5.202
 3697TIP3   OH211035   6.185   2.506   5.584
 3697TIP3    H111036   6.150   2.505   5.673
 3697TIP3    H211037   6.178   2.416   5.554
 3698TIP3   OH211038   3.625   7.275   2.519
 3698TIP3    H111039   3.588   7.337   2.581
 3698TIP3    H211040   3.549   7.234   2.478
 3699TIP3   OH211041   5.967   3.548   3.751
 3699TIP3    H111042   5.916   3.596   3.686
 3699TIP3    H211043   5.996   3.469   3.706
 3700TIP3   OH211044   3.499   5.375   0.008
 3700TIP3    H111045   3.444   5.391   0.085
 3700TIP3    H211046   3.437   5.365  -0.064
 3701TIP3   OH211047   4.042   0.461   1.161
 3701TIP3    H111048   3.980   0.439   1.092
 3701TIP3    H211049   4.002   0.430   1.242
 3702TIP3   OH211050   5.195   7.516   3.180
 3702TIP3    H111051   5.148   7.541   3.100
 3702TIP3    H211052   5.146   7.442   3.215
 3703TIP3   OH211053   7.260   1.403   5.673
 3703TIP3    H111054   7.315   1.447   5.738
 3703TIP3    H211055   7.170   1.425   5.699
 3704TIP3   OH211056   1.639   1.401   2.111
 3704TIP3    H111057   1.569   1.408   2.046
 3704TIP3    H211058   1.596   1.420   2.194
 3705TIP3   OH211059   5.016   2.919   1.730
 3705TIP3    H111060   5.004   2.944   1.822
 3705TIP3    H211061   4.992   2.826   1.727
 3706TIP3   OH211062   1.611   4.981   0.720
 3706TIP3    H111063   1.629   4.962   0.628
 3706TIP3    H211064   1.583   5.073   0.721
 3707TIP3   OH211065   0.297   3.354   5.954
 3707TIP3    H111066   0.335   3.430   5.997
 3707TIP3    H211067   0.355   3.282   5.976
 3708TIP3   OH211068   4.673   6.209   1.316
 3708TIP3    H111069   4.672   6.303   1.295
 3708TIP3    H211070   4.586   6.178   1.288
 3709TIP3   OH211071   2.488   4.775   6.066
 3709TIP3    H111072   2.547   4.836   6.112
 3709TIP3    H211073   2.496   4.799   5.973
 3710TIP3   OH211074   4.268   2.429   2.861
 3710TIP3    H111075   4.334   2.476   2.912
 3710TIP3    H211076   4.257   2.345   2.907
 3711TIP3   OH211077   0.499   2.061   0.687
 3711TIP3    H111078   0.425   2.000   0.689
 3711TIP3    H211079   0.477   2.128   0.751
 3712TIP3   OH211080   2.644   0.676   0.401
 3712TIP3    H111081   2.565   0.718   0.434
 3712TIP3    H211082   2.667   0.726   0.323
 3713TIP3   OH211083   4.603   0.668   5.422
 3713TIP3    H111084   4.693   0.679   5.392
 3713TIP3    H211085   4.603   0.701   5.512
 3714TIP3   OH211086   3.021   4.633   0.480
 3714TIP3    H111087   3.078   4.557   0.472
 3714TIP3    H211088   3.080   4.708   0.466
 3715TIP3   OH211089   3.455   6.114   1.434
 3715TIP3    H111090   3.543   6.129   1.400
 3715TIP3    H211091   3.413   6.200   1.429
 3716TIP3   OH211092   4.384   4.259   5.673
 3716TIP3    H111093   4.412   4.324   5.609
 3716TIP3    H211094   4.460   4.248   5.731
 3717TIP3   OH211095   4.218   0.648   2.188
 3717TIP3    H111096   4.252   0.600   2.264
 3717TIP3    H211097   4.123   0.637   2.194
 3718TIP3   OH211098   0.096   2.472   4.017
 3718TIP3    H111099   0.055   2.546   3.973
 3718TIP3    H211100   0.055   2.395   3.978
 3719TIP3   OH211101   5.977   3.266   5.280
 3719TIP3    H111102   5.899   3.320   5.292
 3719TIP3    H211103   5.971   3.200   5.348
 3720TIP3   OH211104   7.675   4.748   2.931
 3720TIP3    H111105   7.665   4.843   2.937
 3720TIP3    H211106   7.641   4.715   3.014
 3721TIP3   OH211107   3.772   2.025   2.815
 3721TIP3    H111108   3.833   1.956   2.840
 3721TIP3    H211109   3.716   1.985   2.749
 3722TIP3   OH211110   5.849   4.610   2.214
 3722TIP3    H111111   5.918   4.557   2.175
 3722TIP3    H211112   5.895   4.673   2.269
 3723TIP3   OH211113   0.836   3.497   1.911
 3723TIP3    H111114   0.805   3.469   1.825
 3723TIP3    H211115   0.846   3.592   1.903
 3724TIP3   OH211116   5.845   5.561   6.077
 3724TIP3    H111117   5.803   5.475   6.082
 3724TIP3    H211118   5.830   5.590   5.987
 3725TIP3   OH211119   6.011   3.308   3.603
 3725TIP3    H111120   6.077   3.244   3.577
 3725TIP3    H211121   5.933   3.283   3.553
 3726TIP3   OH211122   0.566   7.422   3.525
 3726TIP3    H111123   0.557   7.451   3.615
 3726TIP3    H211124   0.489   7.457   3.481
 3727TIP3   OH211125   6.593   5.717   5.898
 3727TIP3    H111126   6.628   5.714   5.987
 3727TIP3    H211127   6.582   5.625   5.873
 3728TIP3   OH211128   3.292   6.203   3.577
 3728TIP3    H111129   3.284   6.259   3.499
 3728TIP3    H211130   3.290   6.114   3.542
 3729TIP3   OH211131   2.040   2.631   4.614
 3729TIP3    H111132   1.952   2.669   4.614
 3729TIP3    H211133   2.087   2.679   4.683
 3730TIP3   OH211134   5.830   5.529   0.249
 3730TIP3    H111135   5.828   5.616   0.288
 3730TIP3    H211136   5.862   5.472   0.318
 3731TIP3   OH211137   6.382   2.675   3.073
 3731TIP3    H111138   6.299   2.713   3.102
 3731TIP3    H211139   6.448   2.735   3.106
 3732TIP3   OH211140   4.445   2.844   1.204
 3732TIP3    H111141   4.464   2.830   1.297
 3732TIP3    H211142   4.526   2.880   1.167
 3733TIP3   OH211143   6.035   2.094   3.739
 3733TIP3    H111144   6.068   2.004   3.748
 3733TIP3    H211145   6.003   2.099   3.649
 3734TIP3   OH211146   7.869   3.825   5.084
 3734TIP3    H111147   7.868   3.829   4.988
 3734TIP3    H211148   7.867   3.917   5.111
 3735TIP3   OH211149   7.015   2.840   3.873
 3735TIP3    H111150   7.040   2.889   3.951
 3735TIP3    H211151   7.087   2.855   3.811
 3736TIP3   OH211152   4.974   0.390   3.278
 3736TIP3    H111153   4.890   0.344   3.274
 3736TIP3    H211154   4.975   0.432   3.364
 3737TIP3   OH211155   6.725   2.284   4.941
 3737TIP3    H111156   6.759   2.252   5.024
 3737TIP3    H211157   6.679   2.365   4.963
 3738TIP3   OH211158   1.020   1.880   5.834
 3738TIP3    H111159   0.950   1.904   5.895
 3738TIP3    H211160   1.019   1.784   5.833
 3739TIP3   OH211161   2.444   0.256   2.013
 3739TIP3    H111162   2.381   0.194   1.978
 3739TIP3    H211163   2.478   0.214   2.092
 3740TIP3   OH211164   7.254   6.432   2.364
 3740TIP3    H111165   7.338   6.403   2.400
 3740TIP3    H211166   7.191   6.366   2.393
 3741TIP3   OH211167   1.271   2.071   4.443
 3741TIP3    H111168   1.306   2.160   4.453
 3741TIP3    H211169   1.278   2.053   4.350
 3742TIP3   OH211170   3.784   5.462   1.842
 3742TIP3    H111171   3.839   5.536   1.869
 3742TIP3    H211172   3.775   5.409   1.921
 3743TIP3   OH211173   5.029   2.299   1.717
 3743TIP3    H111174   4.987   2.314   1.632
 3743TIP3    H211175   5.070   2.383   1.739
 3744TIP3   OH211176   7.159   0.718   0.943
 3744TIP3    H111177   7.213   0.665   0.884
 3744TIP3    H211178   7.155   0.666   1.023
 3745TIP3   OH211179   4.305   7.136   1.506
 3745TIP3    H111180   4.304   7.041   1.496
 3745TIP3    H211181   4.283   7.151   1.598
 3746TIP3   OH211182   7.962   2.186   3.797
 3746TIP3    H111183   7.922   2.239   3.866
 3746TIP3    H211184   7.966   2.098   3.835
 3747TIP3   OH211185   2.231   7.657   5.904
 3747TIP3    H111186   2.259   7.599   5.974
 3747TIP3    H211187   2.236   7.604   5.825
 3748TIP3   OH211188   6.769   0.321   3.511
 3748TIP3    H111189   6.849   0.268   3.516
 3748TIP3    H211190   6.801   0.411   3.503
 3749TIP3   OH211191   1.274   3.769   3.723
 3749TIP3    H111192   1.268   3.690   3.776
 3749TIP3    H211193   1.183   3.787   3.695
 3750TIP3   OH211194   7.890   7.139   5.834
 3750TIP3    H111195   7.937   7.220   5.853
 3750TIP3    H211196   7.799   7.167   5.822
 3751TIP3   OH211197   5.842   3.651   4.776
 3751TIP3    H111198   5.794   3.733   4.790
 3751TIP3    H211199   5.811   3.620   4.690
 3752TIP3   OH211200   4.675   2.721   6.267
 3752TIP3    H111201   4.701   2.661   6.197
 3752TIP3    H211202   4.662   2.664   6.344
 3753TIP3   OH211203   4.789   4.293   5.843
 3753TIP3    H111204   4.794   4.304   5.748
 3753TIP3    H211205   4.806   4.381   5.879
 3754TIP3   OH211206   7.969   0.261   1.164
 3754TIP3    H111207   7.997   0.174   1.192
 3754TIP3    H211208   8.046   0.298   1.121
 3755TIP3   OH211209   1.601   3.554   6.137
 3755TIP3    H111210   1.529   3.528   6.080
 3755TIP3    H211211   1.568   3.540   6.226
 3756TIP3   OH211212   6.870   1.587   1.130
 3756TIP3    H111213   6.844   1.674   1.162
 3756TIP3    H211214   6.804   1.565   1.063
 3757TIP3   OH211215   5.893   0.544   5.159
 3757TIP3    H111216   5.967   0.504   5.113
 3757TIP3    H211217   5.819   0.487   5.138
 3758TIP3   OH211218   4.622   5.894   2.644
 3758TIP3    H111219   4.575   5.941   2.575
 3758TIP3    H211220   4.711   5.886   2.611
 3759TIP3   OH211221   4.363   0.864   3.419
 3759TIP3    H111222   4.299   0.833   3.355
 3759TIP3    H211223   4.377   0.789   3.477
 3760TIP3   OH211224   3.406   0.169   2.242
 3760TIP3    H111225   3.452   0.091   2.274
 3760TIP3    H211226   3.322   0.167   2.289
 3761TIP3   OH211227   7.512   7.673   3.218
 3761TIP3    H111228   7.505   7.691   3.124
 3761TIP3    H211229   7.528   7.759   3.258
 3762TIP3   OH211230   5.816   0.279   4.024
 3762TIP3    H111231   5.733   0.235   4.007
 3762TIP3    H211232   5.882   0.224   3.983
 3763TIP3   OH211233   0.744   3.424   4.580
 3763TIP3    H111234   0.806   3.494   4.562
 3763TIP3    H211235   0.661   3.456   4.545
 3764TIP3   OH211236   0.522   0.796   5.239
 3764TIP3    H111237   0.517   0.880   5.193
 3764TIP3    H211238   0.430   0.769   5.248
 3765TIP3   OH211239   5.048   3.744   1.042
 3765TIP3    H111240   5.037   3.662   0.995
 3765TIP3    H211241   5.142   3.760   1.041
 3766TIP3   OH211242   4.335   0.612   1.920
 3766TIP3    H111243   4.313   0.643   2.008
 3766TIP3    H211244   4.383   0.685   1.881
 3767TIP3   OH211245   0.468   0.596   3.982
 3767TIP3    H111246   0.521   0.549   4.047
 3767TIP3    H211247   0.397   0.536   3.961
 3768TIP3   OH211248   1.116   1.236   4.990
 3768TIP3    H111249   1.184   1.221   4.924
 3768TIP3    H211250   1.163   1.230   5.074
 3769TIP3   OH211251   4.083   7.388   4.090
 3769TIP3    H111252   4.126   7.404   4.174
 3769TIP3    H211253   4.087   7.472   4.044
 3770TIP3   OH211254   7.827   0.629   0.763
 3770TIP3    H111255   7.818   0.604   0.855
 3770TIP3    H211256   7.899   0.574   0.730
 3771TIP3   OH211257   5.490   3.570   1.290
 3771TIP3    H111258   5.488   3.475   1.283
 3771TIP3    H211259   5.583   3.592   1.286
 3772TIP3   OH211260   7.376   0.523   4.317
 3772TIP3    H111261   7.370   0.583   4.243
 3772TIP3    H211262   7.295   0.471   4.313
 3773TIP3   OH211263   1.028   6.014   1.553
 3773TIP3    H111264   1.038   6.049   1.642
 3773TIP3    H211265   0.934   6.014   1.537
 3774TIP3   OH211266   1.523   2.900   0.445
 3774TIP3    H111267   1.431   2.875   0.432
 3774TIP3    H211268   1.520   2.994   0.463
 3775TIP3   OH211269   7.176   4.050   1.046
 3775TIP3    H111270   7.222   4.100   0.978
 3775TIP3    H211271   7.244   3.997   1.086
 3776TIP3   OH211272   5.234   1.489   6.561
 3776TIP3    H111273   5.313   1.491   6.507
 3776TIP3    H211274   5.258   1.437   6.638
 3777TIP3   OH211275   2.680   5.714   5.244
 3777TIP3    H111276   2.732   5.789   5.214
 3777TIP3    H211277   2.594   5.727   5.203
 3778TIP3   OH211278   4.715   6.636   2.392
 3778TIP3    H111279   4.657   6.565   2.366
 3778TIP3    H211280   4.797   6.592   2.417
 3779TIP3   OH211281   7.411   4.216   0.197
 3779TIP3    H111282   7.345   4.250   0.257
 3779TIP3    H211283   7.471   4.289   0.183
 3780TIP3   OH211284   4.621   5.149   5.875
 3780TIP3    H111285   4.703   5.195   5.886
 3780TIP3    H211286   4.638   5.060   5.907
 3781TIP3   OH211287   1.540   2.388   2.439
 3781TIP3    H111288   1.535   2.375   2.345
 3781TIP3    H211289   1.451   2.411   2.466
 3782TIP3   OH211290   1.369   3.297   3.699
 3782TIP3    H111291   1.379   3.356   3.624
 3782TIP3    H211292   1.360   3.210   3.660
 3783TIP3   OH211293   3.580   1.479   4.939
 3783TIP3    H111294   3.659   1.521   4.907
 3783TIP3    H211295   3.521   1.475   4.863
 3784TIP3   OH211296   2.274   3.234   3.375
 3784TIP3    H111297   2.259   3.310   3.319
 3784TIP3    H211298   2.369   3.221   3.372
 3785TIP3   OH211299   5.491   5.984   6.058
 3785TIP3    H111300   5.440   5.907   6.036
 3785TIP3    H211301   5.566   5.950   6.106
 3786TIP3   OH211302   6.172   1.260   3.578
 3786TIP3    H111303   6.205   1.173   3.555
 3786TIP3    H211304   6.078   1.254   3.568
 3787TIP3   OH211305   6.059   3.935   2.184
 3787TIP3    H111306   5.980   3.987   2.204
 3787TIP3    H211307   6.051   3.916   2.090
 3788TIP3   OH211308   6.117   1.151   2.891
 3788TIP3    H111309   6.041   1.106   2.929
 3788TIP3    H211310   6.080   1.207   2.823
 3789TIP3   OH211311   3.067   0.508   5.978
 3789TIP3    H111312   2.990   0.507   5.921
 3789TIP3    H211313   3.136   0.547   5.924
 3790TIP3   OH211314   5.090   5.781   1.626
 3790TIP3    H111315   5.034   5.724   1.573
 3790TIP3    H211316   5.179   5.763   1.594
 3791TIP3   OH211317   0.050   5.486   0.948
 3791TIP3    H111318  -0.014   5.421   0.977
 3791TIP3    H211319   0.012   5.570   0.972
 3792TIP3   OH211320   5.817   5.692   0.009
 3792TIP3    H111321   5.805   5.614   0.063
 3792TIP3    H211322   5.744   5.750   0.032
 3793TIP3   OH211323   1.823   3.990   5.274
 3793TIP3    H111324   1.750   4.026   5.324
 3793TIP3    H211325   1.868   3.931   5.335
 3794TIP3   OH211326   5.974   4.456   2.023
 3794TIP3    H111327   5.895   4.410   1.993
 3794TIP3    H211328   6.045   4.418   1.971
 3795TIP3   OH211329   4.788   0.527   1.364
 3795TIP3    H111330   4.844   0.600   1.391
 3795TIP3    H211331   4.745   0.559   1.285
 3796TIP3   OH211332   0.151   4.921   1.456
 3796TIP3    H111333   0.061   4.894   1.439
 3796TIP3    H211334   0.145   4.977   1.533
 3797TIP3   OH211335   5.621   6.269   1.203
 3797TIP3    H111336   5.526   6.282   1.216
 3797TIP3    H211337   5.661   6.322   1.272
 3798TIP3   OH211338   4.511   5.313   0.361
 3798TIP3    H111339   4.453   5.362   0.302
 3798TIP3    H211340   4.550   5.246   0.305
 3799TIP3   OH211341   1.863   6.423   2.058
 3799TIP3    H111342   1.902   6.341   2.086
 3799TIP3    H211343   1.776   6.423   2.098
 3800TIP3   OH211344   5.252   2.682   1.497
 3800TIP3    H111345   5.278   2.746   1.431
 3800TIP3    H211346   5.268   2.726   1.580
 3801TIP3   OH211347   3.098   1.250   2.765
 3801TIP3    H111348   3.133   1.207   2.843
 3801TIP3    H211349   3.106   1.186   2.695
 3802TIP3   OH211350   3.149   7.036   4.270
 3802TIP3    H111351   3.225   7.060   4.216
 3802TIP3    H211352   3.077   7.088   4.234
 3803TIP3   OH211353   8.151   4.919   4.032
 3803TIP3    H111354   8.245   4.909   4.043
 3803TIP3    H211355   8.120   4.950   4.117
 3804TIP3   OH211356   1.109   3.040   1.551
 3804TIP3    H111357   1.128   3.024   1.644
 3804TIP3    H211358   1.069   3.127   1.550
 3805TIP3   OH211359   0.127   7.390   3.932
 3805TIP3    H111360   0.147   7.297   3.924
 3805TIP3    H211361   0.036   7.393   3.962
 3806TIP3   OH211362   0.927   4.457   3.038
 3806TIP3    H111363   1.017   4.446   3.069
 3806TIP3    H211364   0.936   4.467   2.943
 3807TIP3   OH211365   5.052   5.027   1.143
 3807TIP3    H111366   4.960   5.023   1.168
 3807TIP3    H211367   5.087   4.942   1.167
 3808TIP3   OH211368   3.172   7.580   0.256
 3808TIP3    H111369   3.266   7.591   0.269
 3808TIP3    H211370   3.149   7.506   0.313
 3809TIP3   OH211371   2.016   7.060   5.311
 3809TIP3    H111372   2.006   7.033   5.220
 3809TIP3    H211373   1.940   7.023   5.355
 3810TIP3   OH211374   2.841   3.004   1.594
 3810TIP3    H111375   2.777   3.039   1.656
 3810TIP3    H211376   2.791   2.983   1.516
 3811TIP3   OH211377   0.652   7.680   4.268
 3811TIP3    H111378   0.706   7.739   4.216
 3811TIP3    H211379   0.697   7.674   4.353
 3812TIP3   OH211380   5.035   0.453   6.381
 3812TIP3    H111381   4.942   0.445   6.359
 3812TIP3    H211382   5.057   0.543   6.357
 3813TIP3   OH211383   4.037   3.349   3.298
 3813TIP3    H111384   3.959   3.404   3.307
 3813TIP3    H211385   4.058   3.321   3.387
 3814TIP3   OH211386   0.751   2.084   4.016
 3814TIP3    H111387   0.782   2.162   4.063
 3814TIP3    H211388   0.802   2.012   4.052
 3815TIP3   OH211389   7.893   0.667   2.801
 3815TIP3    H111390   7.932   0.717   2.872
 3815TIP3    H211391   7.830   0.727   2.760
 3816TIP3   OH211392   4.094   2.580   3.100
 3816TIP3    H111393   4.077   2.603   3.191
 3816TIP3    H211394   4.135   2.658   3.063
 3817TIP3   OH211395   2.706   0.409   4.596
 3817TIP3    H111396   2.781   0.468   4.598
 3817TIP3    H211397   2.640   0.452   4.652
 3818TIP3   OH211398   7.108   2.432   5.558
 3818TIP3    H111399   7.081   2.470   5.474
 3818TIP3    H211400   7.086   2.339   5.550
 3819TIP3   OH211401   4.832   0.914   1.570
 3819TIP3    H111402   4.824   0.955   1.484
 3819TIP3    H211403   4.860   0.824   1.551
 3820TIP3   OH211404   7.552   3.618   1.743
 3820TIP3    H111405   7.501   3.661   1.811
 3820TIP3    H211406   7.598   3.690   1.699
 3821TIP3   OH211407   1.541   3.965   0.512
 3821TIP3    H111408   1.553   3.909   0.435
 3821TIP3    H211409   1.565   4.052   0.482
 3822TIP3   OH211410   5.746   1.510   1.039
 3822TIP3    H111411   5.833   1.492   1.075
 3822TIP3    H211412   5.729   1.601   1.061
 3823TIP3   OH211413   2.445   3.798   1.953
 3823TIP3    H111414   2.356   3.816   1.984
 3823TIP3    H211415   2.485   3.747   2.024
 3824TIP3   OH211416   4.112   0.491   2.884
 3824TIP3    H111417   4.154   0.563   2.836
 3824TIP3    H211418   4.083   0.431   2.815
 3825TIP3   OH211419   4.508   2.113   1.606
 3825TIP3    H111420   4.597   2.108   1.571
 3825TIP3    H211421   4.518   2.093   1.699
 3826TIP3   OH211422   2.917   3.709   3.081
 3826TIP3    H111423   2.931   3.658   3.161
 3826TIP3    H211424   2.984   3.678   3.021
 3827TIP3   OH211425   6.601   6.141   5.723
 3827TIP3    H111426   6.568   6.053   5.704
 3827TIP3    H211427   6.536   6.199   5.683
 3828TIP3   OH211428   4.584   0.996   5.662
 3828TIP3    H111429   4.584   1.001   5.567
 3828TIP3    H211430   4.545   1.080   5.690
 3829TIP3   OH211431   3.440   3.430   0.101
 3829TIP3    H111432   3.354   3.402   0.068
 3829TIP3    H211433   3.488   3.458   0.023
 3830TIP3   OH211434   2.544   7.275   3.820
 3830TIP3    H111435   2.471   7.229   3.861
 3830TIP3    H211436   2.554   7.231   3.735
 3831TIP3   OH211437   3.802   2.505   5.130
 3831TIP3    H111438   3.713   2.540   5.124
 3831TIP3    H211439   3.806   2.435   5.065
 3832TIP3   OH211440   5.956   3.792   5.627
 3832TIP3    H111441   6.010   3.818   5.552
 3832TIP3    H211442   6.015   3.742   5.684
 3833TIP3   OH211443   3.155   6.570   3.464
 3833TIP3    H111444   3.182   6.626   3.391
 3833TIP3    H211445   3.077   6.524   3.432
 3834TIP3   OH211446   6.943   5.814   1.906
 3834TIP3    H111447   6.909   5.866   1.833
 3834TIP3    H211448   7.009   5.757   1.867
 3835TIP3   OH211449   6.066   7.588   1.436
 3835TIP3    H111450   6.036   7.503   1.467
 3835TIP3    H211451   6.001   7.650   1.470
 3836TIP3   OH211452   5.808   2.982   4.925
 3836TIP3    H111453   5.724   2.996   4.881
 3836TIP3    H211454   5.860   2.934   4.860
 3837TIP3   OH211455   1.347   6.648   0.540
 3837TIP3    H111456   1.395   6.684   0.614
 3837TIP3    H211457   1.304   6.724   0.500
 3838TIP3   OH211458   5.902   7.532   0.919
 3838TIP3    H111459   5.891   7.440   0.898
 3838TIP3    H211460   5.824   7.554   0.970
 3839TIP3   OH211461  -0.034   4.455   1.118
 3839TIP3    H111462  -0.003   4.529   1.065
 3839TIP3    H211463   0.039   4.393   1.116
 3840TIP3   OH211464   7.906   7.746   4.503
 3840TIP3    H111465   7.908   7.823   4.560
 3840TIP3    H211466   7.822   7.752   4.457
 3841TIP3   OH211467   2.790   0.421   1.419
 3841TIP3    H111468   2.806   0.509   1.454
 3841TIP3    H211469   2.772   0.368   1.497
 3842TIP3   OH211470   7.587   4.045   0.605
 3842TIP3    H111471   7.581   4.013   0.515
 3842TIP3    H211472   7.677   4.025   0.631
 3843TIP3   OH211473   7.489   4.549   0.683
 3843TIP3    H111474   7.503   4.458   0.710
 3843TIP3    H211475   7.492   4.546   0.588
 3844TIP3   OH211476   4.815   4.947   4.347
 3844TIP3    H111477   4.727   4.981   4.335
 3844TIP3    H211478   4.854   5.002   4.415
 3845TIP3   OH211479   0.628   6.088   0.356
 3845TIP3    H111480   0.649   5.998   0.381
 3845TIP3    H211481   0.712   6.134   0.358
 3846TIP3   OH211482   3.588   3.953   0.408
 3846TIP3    H111483   3.493   3.939   0.409
 3846TIP3    H211484   3.598   4.046   0.427
 3847TIP3   OH211485   3.930   5.989   5.176
 3847TIP3    H111486   3.934   5.944   5.261
 3847TIP3    H211487   3.915   5.918   5.113
 3848TIP3   OH211488   2.258   6.998   5.640
 3848TIP3    H111489   2.312   7.042   5.705
 3848TIP3    H211490   2.215   6.927   5.689
 3849TIP3   OH211491   6.239   1.250   5.628
 3849TIP3    H111492   6.315   1.236   5.570
 3849TIP3    H211493   6.209   1.162   5.649
 3850TIP3   OH211494   0.521   3.540   3.684
 3850TIP3    H111495   0.485   3.613   3.735
 3850TIP3    H211496   0.445   3.497   3.647
 3851TIP3   OH211497   3.017   7.809   5.427
 3851TIP3    H111498   3.091   7.842   5.479
 3851TIP3    H211499   3.050   7.808   5.337
 3852TIP3   OH211500   5.603   5.167   3.703
 3852TIP3    H111501   5.637   5.227   3.637
 3852TIP3    H211502   5.545   5.108   3.654
 3853TIP3   OH211503   0.308   3.557   1.964
 3853TIP3    H111504   0.398   3.581   1.945
 3853TIP3    H211505   0.272   3.632   2.011
 3854TIP3   OH211506   3.039   1.321   3.597
 3854TIP3    H111507   3.095   1.267   3.652
 3854TIP3    H211508   2.952   1.315   3.638
 3855TIP3   OH211509   6.264   0.079   2.838
 3855TIP3    H111510   6.189   0.069   2.896
 3855TIP3    H211511   6.312   0.154   2.873
 3856TIP3   OH211512   0.327   2.281   0.526
 3856TIP3    H111513   0.376   2.269   0.607
 3856TIP3    H211514   0.268   2.354   0.545
 3857TIP3   OH211515   0.506   1.997   3.376
 3857TIP3    H111516   0.560   2.060   3.328
 3857TIP3    H211517   0.416   2.015   3.346
 3858TIP3   OH211518   7.983   7.806   6.378
 3858TIP3    H111519   7.924   7.868   6.335
 3858TIP3    H211520   7.925   7.749   6.429
 3859TIP3   OH211521   4.650   3.826   3.103
 3859TIP3    H111522   4.706   3.868   3.168
 3859TIP3    H211523   4.566   3.816   3.148
 3860TIP3   OH211524   7.754   0.230   3.007
 3860TIP3    H111525   7.803   0.289   2.951
 3860TIP3    H211526   7.721   0.162   2.948
 3861TIP3   OH211527   0.291   7.446   5.096
 3861TIP3    H111528   0.374   7.457   5.141
 3861TIP3    H211529   0.242   7.385   5.151
 3862TIP3   OH211530   1.844   6.580   5.966
 3862TIP3    H111531   1.845   6.579   5.870
 3862TIP3    H211532   1.761   6.621   5.989
 3863TIP3   OH211533   8.099   5.152   1.674
 3863TIP3    H111534   8.143   5.235   1.659
 3863TIP3    H211535   8.161   5.086   1.645
 3864TIP3   OH211536   6.691   3.831   1.623
 3864TIP3    H111537   6.667   3.814   1.532
 3864TIP3    H211538   6.773   3.880   1.617
 3865TIP3   OH211539   1.988   1.978   2.983
 3865TIP3    H111540   1.996   1.906   3.045
 3865TIP3    H211541   1.897   2.009   2.992
 3866TIP3   OH211542   6.934   5.332   2.917
 3866TIP3    H111543   6.981   5.380   2.848
 3866TIP3    H211544   6.888   5.262   2.870
 3867TIP3   OH211545   8.082   0.244   6.506
 3867TIP3    H111546   8.145   0.178   6.534
 3867TIP3    H211547   8.091   0.247   6.411
 3868TIP3   OH211548   6.550   7.110   4.838
 3868TIP3    H111549   6.515   7.164   4.767
 3868TIP3    H211550   6.480   7.048   4.858
 3869TIP3   OH211551   6.405   2.137   1.548
 3869TIP3    H111552   6.461   2.094   1.612
 3869TIP3    H211553   6.362   2.207   1.596
 3870TIP3   OH211554   1.360   6.238   2.969
 3870TIP3    H111555   1.364   6.168   2.904
 3870TIP3    H211556   1.310   6.200   3.041
 3871TIP3   OH211557   0.321   3.636   5.684
 3871TIP3    H111558   0.337   3.730   5.680
 3871TIP3    H211559   0.408   3.596   5.691
 3872TIP3   OH211560   7.372   3.366   2.633
 3872TIP3    H111561   7.395   3.297   2.696
 3872TIP3    H211562   7.277   3.373   2.638
 3873TIP3   OH211563   1.153   4.176   0.899
 3873TIP3    H111564   1.143   4.158   0.805
 3873TIP3    H211565   1.156   4.090   0.940
 3874TIP3   OH211566   6.253   4.951   1.580
 3874TIP3    H111567   6.186   4.939   1.512
 3874TIP3    H211568   6.258   4.867   1.625
 3875TIP3   OH211569   5.113   6.732   1.450
 3875TIP3    H111570   5.131   6.705   1.360
 3875TIP3    H211571   5.043   6.797   1.441
 3876TIP3   OH211572   1.991   2.254   3.129
 3876TIP3    H111573   1.980   2.171   3.176
 3876TIP3    H211574   1.915   2.259   3.071
 3877TIP3   OH211575   7.073   5.461   5.008
 3877TIP3    H111576   7.054   5.555   5.013
 3877TIP3    H211577   7.156   5.456   4.960
 3878TIP3   OH211578   7.033   6.326   5.971
 3878TIP3    H111579   6.939   6.340   5.959
 3878TIP3    H211580   7.071   6.340   5.884
 3879TIP3   OH211581   1.963   2.396   3.583
 3879TIP3    H111582   1.888   2.337   3.588
 3879TIP3    H211583   1.936   2.463   3.520
 3880TIP3   OH211584   6.282   5.068   0.813
 3880TIP3    H111585   6.206   5.073   0.754
 3880TIP3    H211586   6.340   5.004   0.771
 3881TIP3   OH211587   4.626   3.020   3.436
 3881TIP3    H111588   4.623   2.924   3.432
 3881TIP3    H211589   4.630   3.040   3.529
 3882TIP3   OH211590   6.691   1.029   1.027
 3882TIP3    H111591   6.748   1.086   1.078
 3882TIP3    H211592   6.603   1.046   1.062
 3883TIP3   OH211593   8.279   1.463   6.152
 3883TIP3    H111594   8.228   1.396   6.105
 3883TIP3    H211595   8.217   1.535   6.165
 3884TIP3   OH211596   7.640   5.015   3.015
 3884TIP3    H111597   7.667   4.975   3.098
 3884TIP3    H211598   7.557   5.059   3.036
 3885TIP3   OH211599   7.385   1.003   1.918
 3885TIP3    H111600   7.385   1.098   1.924
 3885TIP3    H211601   7.458   0.982   1.859
 3886TIP3   OH211602   0.605   3.154   2.802
 3886TIP3    H111603   0.679   3.148   2.863
 3886TIP3    H211604   0.617   3.079   2.743
 3887TIP3   OH211605   3.779   1.733   3.321
 3887TIP3    H111606   3.798   1.699   3.408
 3887TIP3    H211607   3.754   1.656   3.270
 3888TIP3   OH211608   3.012   7.397   6.667
 3888TIP3    H111609   3.063   7.368   6.591
 3888TIP3    H211610   3.078   7.411   6.735
 3889TIP3   OH211611   6.708   2.729   5.683
 3889TIP3    H111612   6.709   2.767   5.771
 3889TIP3    H211613   6.749   2.643   5.694
 3890TIP3   OH211614   7.149   4.086   5.984
 3890TIP3    H111615   7.151   4.062   6.076
 3890TIP3    H211616   7.199   4.168   5.979
 3891TIP3   OH211617   7.314   7.420   6.531
 3891TIP3    H111618   7.353   7.346   6.577
 3891TIP3    H211619   7.386   7.457   6.480
 3892TIP3   OH211620   4.242   4.988   6.513
 3892TIP3    H111621   4.280   4.919   6.567
 3892TIP3    H211622   4.202   5.048   6.576
 3893TIP3   OH211623   6.645   7.240   6.611
 3893TIP3    H111624   6.669   7.306   6.547
 3893TIP3    H211625   6.728   7.201   6.638
 3894TIP3   OH211626   2.808   3.194   6.488
 3894TIP3    H111627   2.847   3.113   6.456
 3894TIP3    H211628   2.861   3.264   6.449
 3895TIP3   OH211629   5.054   1.634   5.765
 3895TIP3    H111630   5.093   1.712   5.804
 3895TIP3    H211631   4.960   1.649   5.771
 3896TIP3   OH211632   7.527   6.707   5.363
 3896TIP3    H111633   7.601   6.726   5.421
 3896TIP3    H211634   7.535   6.771   5.292
 3897TIP3   OH211635   1.347   0.103   0.946
 3897TIP3    H111636   1.439   0.078   0.952
 3897TIP3    H211637   1.306   0.059   1.020
 3898TIP3   OH211638   6.899   4.117   5.384
 3898TIP3    H111639   6.930   4.100   5.295
 3898TIP3    H211640   6.923   4.039   5.433
 3899TIP3   OH211641   3.574   2.008   5.200
 3899TIP3    H111642   3.645   2.066   5.229
 3899TIP3    H211643   3.620   1.935   5.158
 3900TIP3   OH211644   6.335   5.563   2.482
 3900TIP3    H111645   6.378   5.513   2.552
 3900TIP3    H211646   6.249   5.524   2.473
 3901TIP3   OH211647   7.081   0.821   3.703
 3901TIP3    H111648   7.167   0.779   3.705
 3901TIP3    H211649   7.042   0.801   3.788
 3902TIP3   OH211650   1.885   1.993   6.007
 3902TIP3    H111651   1.872   1.990   6.101
 3902TIP3    H211652   1.839   1.916   5.973
 3903TIP3   OH211653   3.583   4.057   1.975
 3903TIP3    H111654   3.635   4.087   1.900
 3903TIP3    H211655   3.631   4.088   2.052
 3904TIP3   OH211656   4.244   7.336   2.096
 3904TIP3    H111657   4.247   7.294   2.010
 3904TIP3    H211658   4.262   7.265   2.158
 3905TIP3   OH211659   3.284   2.648   4.617
 3905TIP3    H111660   3.329   2.621   4.537
 3905TIP3    H211661   3.339   2.717   4.653
 3906TIP3   OH211662   5.683   4.669   5.891
 3906TIP3    H111663   5.742   4.679   5.965
 3906TIP3    H211664   5.732   4.702   5.816
 3907TIP3   OH211665   1.479   0.975   5.950
 3907TIP3    H111666   1.542   0.968   6.022
 3907TIP3    H211667   1.496   0.898   5.896
 3908TIP3   OH211668   1.036   7.302   2.641
 3908TIP3    H111669   1.114   7.299   2.587
 3908TIP3    H211670   1.057   7.249   2.718
 3909TIP3   OH211671   6.679   7.825   4.970
 3909TIP3    H111672   6.641   7.738   4.977
 3909TIP3    H211673   6.724   7.839   5.053
 3910TIP3   OH211674   1.740   6.001   6.534
 3910TIP3    H111675   1.752   6.080   6.481
 3910TIP3    H211676   1.827   5.981   6.568
 3911TIP3   OH211677   5.552   0.859   4.903
 3911TIP3    H111678   5.588   0.774   4.878
 3911TIP3    H211679   5.589   0.921   4.840
 3912TIP3   OH211680   1.558   2.395   4.088
 3912TIP3    H111681   1.549   2.478   4.135
 3912TIP3    H211682   1.469   2.375   4.058
 3913TIP3   OH211683   2.992   3.292   0.038
 3913TIP3    H111684   2.941   3.321   0.114
 3913TIP3    H211685   3.010   3.372  -0.011
 3914TIP3   OH211686   0.831   0.332   2.220
 3914TIP3    H111687   0.926   0.328   2.234
 3914TIP3    H211688   0.821   0.362   2.130
 3915TIP3   OH211689   8.188   0.013   3.009
 3915TIP3    H111690   8.142   0.093   2.986
 3915TIP3    H211691   8.214  -0.025   2.925
 3916TIP3   OH211692   1.300   6.240   4.017
 3916TIP3    H111693   1.318   6.174   3.950
 3916TIP3    H211694   1.258   6.192   4.087
 3917TIP3   OH211695   3.785   7.510   3.341
 3917TIP3    H111696   3.720   7.443   3.320
 3917TIP3    H211697   3.745   7.560   3.413
 3918TIP3   OH211698   2.905   0.387   2.682
 3918TIP3    H111699   2.903   0.482   2.691
 3918TIP3    H211700   2.999   0.365   2.684
 3919TIP3   OH211701   7.115   6.785   2.639
 3919TIP3    H111702   7.049   6.846   2.672
 3919TIP3    H211703   7.106   6.708   2.695
 3920TIP3   OH211704   2.500   3.642   6.576
 3920TIP3    H111705   2.584   3.652   6.621
 3920TIP3    H211706   2.439   3.694   6.628
 3921TIP3   OH211707  -0.016   2.072   1.954
 3921TIP3    H111708  -0.015   2.160   1.991
 3921TIP3    H211709   0.062   2.068   1.898
 3922TIP3   OH211710   6.763   5.138   3.100
 3922TIP3    H111711   6.819   5.081   3.047
 3922TIP3    H211712   6.765   5.098   3.187
 3923TIP3   OH211713   7.058   5.664   1.156
 3923TIP3    H111714   7.048   5.578   1.196
 3923TIP3    H211715   7.064   5.646   1.062
 3924TIP3   OH211716   2.887   2.143   3.852
 3924TIP3    H111717   2.883   2.177   3.941
 3924TIP3    H211718   2.832   2.203   3.801
 3925TIP3   OH211719   5.263   1.266   4.513
 3925TIP3    H111720   5.264   1.171   4.509
 3925TIP3    H211721   5.237   1.286   4.603
 3926TIP3   OH211722   0.765   1.653   1.315
 3926TIP3    H111723   0.679   1.693   1.305
 3926TIP3    H211724   0.778   1.645   1.410
 3927TIP3   OH211725   1.892   4.507   2.156
 3927TIP3    H111726   1.904   4.577   2.220
 3927TIP3    H211727   1.849   4.437   2.205
 3928TIP3   OH211728   1.171   3.559   6.174
 3928TIP3    H111729   1.079   3.543   6.196
 3928TIP3    H211730   1.180   3.654   6.180
 3929TIP3   OH211731   8.080   2.550   3.323
 3929TIP3    H111732   8.023   2.531   3.249
 3929TIP3    H211733   8.137   2.473   3.331
 3930TIP3   OH211734   1.097   1.241   0.942
 3930TIP3    H111735   1.005   1.236   0.918
 3930TIP3    H211736   1.136   1.162   0.904
 3931TIP3   OH211737   2.191   3.336   3.626
 3931TIP3    H111738   2.255   3.279   3.585
 3931TIP3    H211739   2.184   3.411   3.567
 3932TIP3   OH211740   0.564   6.456   2.520
 3932TIP3    H111741   0.552   6.542   2.559
 3932TIP3    H211742   0.645   6.464   2.470
 3933TIP3   OH211743   2.626   4.074   2.710
 3933TIP3    H111744   2.608   4.147   2.769
 3933TIP3    H211745   2.674   4.011   2.764
 3934TIP3   OH211746   2.049   0.187   4.487
 3934TIP3    H111747   2.049   0.096   4.457
 3934TIP3    H211748   1.996   0.185   4.567
 3935TIP3   OH211749   1.278   7.008   1.950
 3935TIP3    H111750   1.231   6.969   2.024
 3935TIP3    H211751   1.347   6.944   1.930
 3936TIP3   OH211752   0.506   6.524   1.624
 3936TIP3    H111753   0.499   6.496   1.533
 3936TIP3    H211754   0.474   6.615   1.624
 3937TIP3   OH211755   6.750   0.763   3.191
 3937TIP3    H111756   6.787   0.832   3.247
 3937TIP3    H211757   6.762   0.795   3.102
 3938TIP3   OH211758   6.885   6.604   1.349
 3938TIP3    H111759   6.838   6.663   1.290
 3938TIP3    H211760   6.975   6.606   1.318
 3939TIP3   OH211761   0.126   6.867   5.589
 3939TIP3    H111762   0.164   6.950   5.619
 3939TIP3    H211763   0.138   6.807   5.663
 3940TIP3   OH211764   2.412   6.291   4.921
 3940TIP3    H111765   2.493   6.309   4.873
 3940TIP3    H211766   2.343   6.302   4.855
 3941TIP3   OH211767   4.197   2.132   1.537
 3941TIP3    H111768   4.177   2.038   1.542
 3941TIP3    H211769   4.278   2.142   1.587
 3942TIP3   OH211770   3.749   2.023   0.881
 3942TIP3    H111771   3.785   2.100   0.836
 3942TIP3    H211772   3.803   2.013   0.959
 3943TIP3   OH211773   7.810   7.603   4.805
 3943TIP3    H111774   7.885   7.543   4.799
 3943TIP3    H211775   7.786   7.604   4.897
 3944TIP3   OH211776   0.026   6.039   3.531
 3944TIP3    H111777  -0.049   5.982   3.516
 3944TIP3    H211778   0.092   6.009   3.468
 3945TIP3   OH211779   0.993   3.416   3.200
 3945TIP3    H111780   1.018   3.421   3.293
 3945TIP3    H211781   1.009   3.504   3.167
 3946TIP3   OH211782   0.903   3.060   5.895
 3946TIP3    H111783   0.894   3.058   5.800
 3946TIP3    H211784   0.985   3.015   5.912
 3947TIP3   OH211785   3.338   1.411   2.341
 3947TIP3    H111786   3.266   1.452   2.388
 3947TIP3    H211787   3.392   1.372   2.409
 3948TIP3   OH211788   3.515   4.756   6.494
 3948TIP3    H111789   3.473   4.842   6.487
 3948TIP3    H211790   3.450   4.700   6.536
 3949TIP3   OH211791   0.259   5.561   1.585
 3949TIP3    H111792   0.257   5.647   1.627
 3949TIP3    H211793   0.169   5.547   1.554
 3950TIP3   OH211794   6.480   6.262   0.591
 3950TIP3    H111795   6.449   6.311   0.667
 3950TIP3    H211796   6.409   6.201   0.571
 3951TIP3   OH211797   7.135   6.051   4.518
 3951TIP3    H111798   7.043   6.049   4.544
 3951TIP3    H211799   7.141   5.986   4.448
 3952TIP3   OH211800   0.963   6.425   3.502
 3952TIP3    H111801   0.883   6.398   3.548
 3952TIP3    H211802   0.936   6.502   3.451
 3953TIP3   OH211803   2.305   0.318   4.327
 3953TIP3    H111804   2.395   0.326   4.360
 3953TIP3    H211805   2.313   0.262   4.250
 3954TIP3   OH211806   0.302   0.591   5.770
 3954TIP3    H111807   0.382   0.641   5.788
 3954TIP3    H211808   0.318   0.506   5.812
 3955TIP3   OH211809   0.192   5.097   2.642
 3955TIP3    H111810   0.106   5.063   2.666
 3955TIP3    H211811   0.191   5.188   2.671
 3956TIP3   OH211812   8.116   0.326   6.191
 3956TIP3    H111813   8.051   0.264   6.157
 3956TIP3    H211814   8.198   0.301   6.148
 3957TIP3   OH211815   0.081   7.568   1.966
 3957TIP3    H111816   0.104   7.483   2.002
 3957TIP3    H211817  -0.004   7.589   2.005
 3958TIP3   OH211818   5.441   5.014   5.784
 3958TIP3    H111819   5.496   5.063   5.846
 3958TIP3    H211820   5.484   5.028   5.699
 3959TIP3   OH211821   0.689   4.995   3.834
 3959TIP3    H111822   0.607   4.997   3.883
 3959TIP3    H211823   0.751   4.950   3.892
 3960TIP3   OH211824   3.318   4.118   4.979
 3960TIP3    H111825   3.319   4.149   4.888
 3960TIP3    H211826   3.391   4.164   5.021
 3961TIP3   OH211827   1.537   4.434   2.154
 3961TIP3    H111828   1.496   4.401   2.074
 3961TIP3    H211829   1.486   4.395   2.225
 3962TIP3   OH211830   3.565   5.329   4.211
 3962TIP3    H111831   3.471   5.327   4.231
 3962TIP3    H211832   3.568   5.352   4.118
 3963TIP3   OH211833   2.712   7.636   0.204
 3963TIP3    H111834   2.755   7.717   0.232
 3963TIP3    H211835   2.668   7.660   0.122
 3964TIP3   OH211836   3.077   1.347   3.314
 3964TIP3    H111837   3.043   1.279   3.372
 3964TIP3    H211838   3.108   1.416   3.374
 3965TIP3   OH211839   1.484   4.747   5.310
 3965TIP3    H111840   1.414   4.809   5.287
 3965TIP3    H211841   1.526   4.786   5.387
 3966TIP3   OH211842   3.994   5.646   1.275
 3966TIP3    H111843   4.023   5.591   1.348
 3966TIP3    H211844   3.950   5.586   1.215
 3967TIP3   OH211845   6.073   4.699   2.784
 3967TIP3    H111846   6.007   4.637   2.755
 3967TIP3    H211847   6.146   4.644   2.814
 3968TIP3   OH211848   3.106   4.449   1.662
 3968TIP3    H111849   3.201   4.438   1.659
 3968TIP3    H211850   3.092   4.541   1.637
 3969TIP3   OH211851   2.012   7.263   5.576
 3969TIP3    H111852   2.064   7.265   5.495
 3969TIP3    H211853   2.004   7.170   5.597
 3970TIP3   OH211854   1.032   2.178   2.335
 3970TIP3    H111855   1.092   2.253   2.337
 3970TIP3    H211856   1.017   2.158   2.428
 3971TIP3   OH211857   7.132   7.590   0.691
 3971TIP3    H111858   7.109   7.623   0.604
 3971TIP3    H211859   7.184   7.660   0.730
 3972TIP3   OH211860   7.595   5.982   0.444
 3972TIP3    H111861   7.590   5.888   0.425
 3972TIP3    H211862   7.687   6.004   0.427
 3973TIP3   OH211863   1.781   7.778   5.012
 3973TIP3    H111864   1.800   7.827   5.091
 3973TIP3    H211865   1.784   7.686   5.039
 3974TIP3   OH211866   5.963   1.463   2.498
 3974TIP3    H111867   5.868   1.475   2.500
 3974TIP3    H211868   5.980   1.421   2.413
 3975TIP3   OH211869   6.801   3.132   2.316
 3975TIP3    H111870   6.780   3.042   2.293
 3975TIP3    H211871   6.891   3.129   2.348
 3976TIP3   OH211872   7.458   4.278   4.275
 3976TIP3    H111873   7.534   4.221   4.287
 3976TIP3    H211874   7.383   4.222   4.294
 3977TIP3   OH211875   4.094   4.021   4.276
 3977TIP3    H111876   4.164   3.996   4.216
 3977TIP3    H211877   4.035   4.076   4.224
 3978TIP3   OH211878   0.170   2.570   1.234
 3978TIP3    H111879   0.191   2.499   1.295
 3978TIP3    H211880   0.096   2.537   1.183
 3979TIP3   OH211881   7.473   2.639   4.855
 3979TIP3    H111882   7.449   2.570   4.793
 3979TIP3    H211883   7.454   2.602   4.941
 3980TIP3   OH211884   5.369   6.522   3.320
 3980TIP3    H111885   5.448   6.568   3.347
 3980TIP3    H211886   5.370   6.525   3.225
 3981TIP3   OH211887   4.935   5.157   3.890
 3981TIP3    H111888   5.013   5.117   3.853
 3981TIP3    H211889   4.912   5.102   3.964
 3982TIP3   OH211890   4.792   2.768   1.446
 3982TIP3    H111891   4.701   2.790   1.468
 3982TIP3    H211892   4.805   2.805   1.359
 3983TIP3   OH211893   8.113   3.057   0.917
 3983TIP3    H111894   8.071   3.124   0.970
 3983TIP3    H211895   8.178   3.018   0.976
 3984TIP3   OH211896   1.699   1.520   4.539
 3984TIP3    H111897   1.643   1.446   4.563
 3984TIP3    H211898   1.708   1.513   4.444
 3985TIP3   OH211899   2.968   6.975   2.070
 3985TIP3    H111900   2.975   6.886   2.035
 3985TIP3    H211901   2.911   7.021   2.008
 3986TIP3   OH211902   3.933   1.002   0.596
 3986TIP3    H111903   3.884   0.993   0.514
 3986TIP3    H211904   4.019   0.967   0.576
 3987TIP3   OH211905   6.789   4.398   0.971
 3987TIP3    H111906   6.712   4.452   0.954
 3987TIP3    H211907   6.859   4.438   0.918
 3988TIP3   OH211908   0.251   5.359   5.350
 3988TIP3    H111909   0.305   5.281   5.338
 3988TIP3    H211910   0.296   5.427   5.300
 3989TIP3   OH211911   5.652   1.942   3.201
 3989TIP3    H111912   5.643   1.866   3.258
 3989TIP3    H211913   5.608   1.917   3.120
 3990TIP3   OH211914   1.169   3.783   2.714
 3990TIP3    H111915   1.206   3.757   2.799
 3990TIP3    H211916   1.190   3.876   2.707
 3991TIP3   OH211917   1.473   4.398   6.371
 3991TIP3    H111918   1.467   4.374   6.464
 3991TIP3    H211919   1.426   4.481   6.364
 3992TIP3   OH211920   1.367   2.263   3.745
 3992TIP3    H111921   1.336   2.291   3.831
 3992TIP3    H211922   1.305   2.303   3.684
 3993TIP3   OH211923   4.301   4.206   5.410
 3993TIP3    H111924   4.376   4.181   5.355
 3993TIP3    H211925   4.337   4.207   5.499
 3994TIP3   OH211926   0.827   5.249   3.791
 3994TIP3    H111927   0.779   5.166   3.783
 3994TIP3    H211928   0.763   5.312   3.822
 3995TIP3   OH211929   6.063   3.213   5.657
 3995TIP3    H111930   6.014   3.277   5.708
 3995TIP3    H211931   5.998   3.172   5.601
 3996TIP3   OH211932   3.551   3.622   0.664
 3996TIP3    H111933   3.608   3.560   0.619
 3996TIP3    H211934   3.607   3.697   0.682
 3997TIP3   OH211935   6.389   0.306   2.098
 3997TIP3    H111936   6.433   0.324   2.181
 3997TIP3    H211937   6.410   0.215   2.079
 3998TIP3   OH211938   8.198   6.652   6.272
 3998TIP3    H111939   8.132   6.613   6.215
 3998TIP3    H211940   8.244   6.715   6.215
 3999TIP3   OH211941   7.783   6.810   4.741
 3999TIP3    H111942   7.811   6.722   4.764
 3999TIP3    H211943   7.707   6.798   4.684
 4000TIP3   OH211944   2.097   1.382   1.308
 4000TIP3    H111945   2.023   1.385   1.249
 4000TIP3    H211946   2.143   1.301   1.288
 4001TIP3   OH211947   0.305   6.306   3.116
 4001TIP3    H111948   0.328   6.384   3.166
 4001TIP3    H211949   0.263   6.248   3.180
 4002TIP3   OH211950   4.610   4.651   3.327
 4002TIP3    H111951   4.636   4.671   3.237
 4002TIP3    H211952   4.656   4.715   3.381
 4003TIP3   OH211953   1.485   0.890   2.391
 4003TIP3    H111954   1.564   0.844   2.360
 4003TIP3    H211955   1.413   0.842   2.350
 4004TIP3   OH211956   8.163   3.176   4.020
 4004TIP3    H111957   8.211   3.256   3.998
 4004TIP3    H211958   8.201   3.147   4.103
 4005TIP3   OH211959   3.634   2.051   0.422
 4005TIP3    H111960   3.563   2.063   0.485
 4005TIP3    H211961   3.669   2.139   0.410
 4006TIP3   OH211962   0.864   0.481   6.304
 4006TIP3    H111963   0.784   0.530   6.281
 4006TIP3    H211964   0.891   0.440   6.222
 4007TIP3   OH211965   0.555   6.386   4.376
 4007TIP3    H111966   0.512   6.321   4.431
 4007TIP3    H211967   0.494   6.401   4.304
 4008TIP3   OH211968   5.768   6.649   6.200
 4008TIP3    H111969   5.684   6.604   6.212
 4008TIP3    H211970   5.785   6.692   6.283
 4009TIP3   OH211971   5.628   6.883   3.846
 4009TIP3    H111972   5.601   6.855   3.934
 4009TIP3    H211973   5.661   6.804   3.805
 4010TIP3   OH211974   0.402   2.685   2.069
 4010TIP3    H111975   0.451   2.748   2.016
 4010TIP3    H211976   0.438   2.695   2.157
 4011TIP3   OH211977   5.463   4.152   0.326
 4011TIP3    H111978   5.484   4.067   0.286
 4011TIP3    H211979   5.462   4.133   0.420
 4012TIP3   OH211980   6.292   0.780   5.564
 4012TIP3    H111981   6.359   0.741   5.620
 4012TIP3    H211982   6.218   0.719   5.570
 4013TIP3   OH211983   7.665   3.904   0.065
 4013TIP3    H111984   7.641   3.941  -0.020
 4013TIP3    H211985   7.597   3.840   0.083
 4014TIP3   OH211986   5.941   0.779   4.961
 4014TIP3    H111987   6.032   0.802   4.980
 4014TIP3    H211988   5.907   0.745   5.044
 4015TIP3   OH211989   4.156   2.898   0.473
 4015TIP3    H111990   4.163   2.931   0.562
 4015TIP3    H211991   4.235   2.845   0.461
 4016TIP3   OH211992   6.974   2.403   4.983
 4016TIP3    H111993   7.047   2.465   4.981
 4016TIP3    H211994   6.940   2.403   4.893
 4017TIP3   OH211995   0.395   4.403   2.107
 4017TIP3    H111996   0.305   4.370   2.109
 4017TIP3    H211997   0.397   4.464   2.034
 4018TIP3   OH211998   4.828   5.996   4.710
 4018TIP3    H111999   4.810   5.982   4.617
 4018TIP3    H212000   4.753   6.046   4.742
 4019TIP3   OH212001   6.876   3.446   1.590
 4019TIP3    H112002   6.966   3.474   1.573
 4019TIP3    H212003   6.868   3.445   1.685
 4020TIP3   OH212004   4.199   6.049   4.619
 4020TIP3    H112005   4.157   6.134   4.604
 4020TIP3    H212006   4.238   6.027   4.535
 4021TIP3   OH212007   1.146   1.974   1.148
 4021TIP3    H112008   1.189   1.943   1.227
 4021TIP3    H212009   1.073   1.913   1.135
 4022TIP3   OH212010   0.194   6.708   3.034
 4022TIP3    H112011   0.149   6.696   3.118
 4022TIP3    H212012   0.166   6.795   3.005
 4023TIP3   OH212013   6.728   6.836   4.041
 4023TIP3    H112014   6.722   6.742   4.060
 4023TIP3    H212015   6.821   6.856   4.051
 4024TIP3   OH212016   4.602   1.932   3.605
 4024TIP3    H112017   4.589   1.851   3.556
 4024TIP3    H212018   4.549   1.997   3.558
 4025TIP3   OH212019   2.121   0.034   2.673
 4025TIP3    H112020   2.039  -0.013   2.664
 4025TIP3    H212021   2.096   0.121   2.702
 4026TIP3   OH212022   6.094   7.794   0.680
 4026TIP3    H112023   6.167   7.800   0.620
 4026TIP3    H212024   6.073   7.701   0.686
 4027TIP3   OH212025   1.239   0.325   0.783
 4027TIP3    H112026   1.218   0.372   0.864
 4027TIP3    H212027   1.271   0.240   0.813
 4028TIP3   OH212028   3.009   5.635   2.708
 4028TIP3    H112029   3.036   5.655   2.798
 4028TIP3    H212030   2.914   5.645   2.709
 4029TIP3   OH212031   5.703   0.935   0.653
 4029TIP3    H112032   5.699   0.992   0.576
 4029TIP3    H212033   5.795   0.907   0.658
 4030TIP3   OH212034   7.260   2.509   4.251
 4030TIP3    H112035   7.180   2.535   4.205
 4030TIP3    H212036   7.330   2.527   4.188
 4031TIP3   OH212037   1.035   2.694   5.337
 4031TIP3    H112038   1.044   2.696   5.432
 4031TIP3    H212039   1.100   2.630   5.308
 4032TIP3   OH212040   0.352   2.316   6.035
 4032TIP3    H112041   0.442   2.299   6.007
 4032TIP3    H212042   0.298   2.262   5.977
 4033TIP3   OH212043   3.668   1.340   0.750
 4033TIP3    H112044   3.632   1.258   0.714
 4033TIP3    H212045   3.762   1.322   0.758
 4034TIP3   OH212046   0.191   0.897   6.103
 4034TIP3    H112047   0.153   0.821   6.147
 4034TIP3    H212048   0.283   0.876   6.093
 4035TIP3   OH212049   1.112   2.396   1.086
 4035TIP3    H112050   1.122   2.304   1.064
 4035TIP3    H212051   1.018   2.408   1.101
 4036TIP3   OH212052   2.774   3.698   4.967
 4036TIP3    H112053   2.827   3.746   4.904
 4036TIP3    H212054   2.696   3.752   4.979
 4037TIP3   OH212055   4.164   5.229   3.013
 4037TIP3    H112056   4.202   5.213   3.100
 4037TIP3    H212057   4.210   5.167   2.956
 4038TIP3   OH212058   2.479   5.984   6.695
 4038TIP3    H112059   2.464   6.067   6.651
 4038TIP3    H212060   2.564   5.996   6.739
 4039TIP3   OH212061   0.151   7.119   3.991
 4039TIP3    H112062   0.206   7.064   4.047
 4039TIP3    H212063   0.164   7.084   3.903
 4040TIP3   OH212064   2.057   0.453   0.319
 4040TIP3    H112065   2.115   0.527   0.301
 4040TIP3    H212066   1.969   0.490   0.314
 4041TIP3   OH212067   0.231   0.463   0.155
 4041TIP3    H112068   0.195   0.442   0.069
 4041TIP3    H212069   0.323   0.435   0.150
 4042TIP3   OH212070   5.094   6.129   1.507
 4042TIP3    H112071   5.143   6.104   1.585
 4042TIP3    H212072   5.100   6.225   1.505
 4043TIP3   OH212073   6.104   5.186   2.222
 4043TIP3    H112074   6.137   5.181   2.311
 4043TIP3    H212075   6.062   5.101   2.207
 4044TIP3   OH212076   2.843   2.067   3.458
 4044TIP3    H112077   2.936   2.087   3.459
 4044TIP3    H212078   2.832   2.007   3.384
 4045TIP3   OH212079   4.189   2.748   3.868
 4045TIP3    H112080   4.107   2.714   3.833
 4045TIP3    H212081   4.186   2.842   3.850
 4046TIP3   OH212082   4.053   3.697   5.776
 4046TIP3    H112083   4.078   3.610   5.807
 4046TIP3    H212084   4.100   3.757   5.835
 4047TIP3   OH212085   6.778   4.152   3.558
 4047TIP3    H112086   6.743   4.164   3.647
 4047TIP3    H212087   6.708   4.185   3.501
 4048TIP3   OH212088   0.758   0.180   3.124
 4048TIP3    H112089   0.834   0.204   3.177
 4048TIP3    H212090   0.792   0.116   3.061
 4049TIP3   OH212091   6.255   0.967   2.724
 4049TIP3    H112092   6.199   0.946   2.649
 4049TIP3    H212093   6.224   1.052   2.754
 4050TIP3   OH212094   4.882   5.069   2.963
 4050TIP3    H112095   4.798   5.113   2.974
 4050TIP3    H212096   4.941   5.138   2.933
 4051TIP3   OH212097   6.362   2.815   0.446
 4051TIP3    H112098   6.442   2.803   0.497
 4051TIP3    H212099   6.382   2.890   0.389
 4052TIP3   OH212100   1.847   3.838   3.041
 4052TIP3    H112101   1.849   3.874   3.129
 4052TIP3    H212102   1.831   3.913   2.984
 4053TIP3   OH212103   7.093   6.381   6.354
 4053TIP3    H112104   7.001   6.378   6.330
 4053TIP3    H212105   7.110   6.473   6.373
 4054TIP3   OH212106   4.504   7.786   3.321
 4054TIP3    H112107   4.420   7.756   3.286
 4054TIP3    H212108   4.560   7.794   3.244
 4055TIP3   OH212109   3.380   1.884   5.934
 4055TIP3    H112110   3.454   1.945   5.933
 4055TIP3    H212111   3.387   1.836   5.851
 4056TIP3   OH212112   0.409   7.757   0.990
 4056TIP3    H112113   0.451   7.671   0.995
 4056TIP3    H212114   0.349   7.750   0.915
 4057TIP3   OH212115   6.785   3.121   0.857
 4057TIP3    H112116   6.730   3.060   0.807
 4057TIP3    H212117   6.752   3.207   0.833
 4058TIP3   OH212118   3.032   2.026   5.562
 4058TIP3    H112119   3.006   1.944   5.604
 4058TIP3    H212120   3.101   2.062   5.618
 4059TIP3   OH212121   3.566   1.848   1.367
 4059TIP3    H112122   3.532   1.870   1.280
 4059TIP3    H212123   3.490   1.855   1.424
 4060TIP3   OH212124   8.304   1.655   3.484
 4060TIP3    H112125   8.245   1.580   3.494
 4060TIP3    H212126   8.316   1.663   3.389
 4061TIP3   OH212127   2.855   2.034   6.560
 4061TIP3    H112128   2.831   1.970   6.627
 4061TIP3    H212129   2.950   2.030   6.556
 4062TIP3   OH212130   2.562   1.555   5.350
 4062TIP3    H112131   2.505   1.616   5.397
 4062TIP3    H212132   2.556   1.474   5.401
 4063TIP3   OH212133   3.757   4.990   3.041
 4063TIP3    H112134   3.837   5.012   3.088
 4063TIP3    H212135   3.786   4.948   2.961
 4064TIP3   OH212136   1.018   3.363   5.409
 4064TIP3    H112137   1.104   3.394   5.379
 4064TIP3    H212138   1.004   3.282   5.360
 4065TIP3   OH212139   3.600   2.129   1.484
 4065TIP3    H112140   3.577   2.073   1.410
 4065TIP3    H212141   3.538   2.202   1.480
 4066TIP3   OH212142   0.949   2.276   4.867
 4066TIP3    H112143   0.889   2.336   4.823
 4066TIP3    H212144   0.983   2.220   4.797
 4067TIP3   OH212145   1.132   2.108   5.255
 4067TIP3    H112146   1.148   2.044   5.324
 4067TIP3    H212147   1.037   2.111   5.247
 4068TIP3   OH212148   4.653   1.910   4.847
 4068TIP3    H112149   4.564   1.900   4.811
 4068TIP3    H212150   4.642   1.896   4.941
 4069TIP3   OH212151   7.560   3.653   0.769
 4069TIP3    H112152   7.553   3.627   0.677
 4069TIP3    H212153   7.470   3.658   0.799
 4070TIP3   OH212154   8.044   1.592   5.620
 4070TIP3    H112155   8.031   1.631   5.533
 4070TIP3    H212156   8.095   1.513   5.604
 4071TIP3   OH212157   1.869   3.331   1.059
 4071TIP3    H112158   1.934   3.375   1.115
 4071TIP3    H212159   1.815   3.401   1.024
 4072TIP3   OH212160   8.217   6.779   4.130
 4072TIP3    H112161   8.186   6.800   4.041
 4072TIP3    H212162   8.266   6.857   4.157
 4073TIP3   OH212163   2.431   7.596   4.519
 4073TIP3    H112164   2.390   7.619   4.602
 4073TIP3    H212165   2.373   7.633   4.453
 4074TIP3   OH212166   4.914   2.813   0.076
 4074TIP3    H112167   4.925   2.738   0.019
 4074TIP3    H212168   4.831   2.853   0.049
 4075TIP3   OH212169   1.012   1.492   4.913
 4075TIP3    H112170   1.047   1.404   4.929
 4075TIP3    H212171   1.062   1.549   4.972
 4076TIP3   OH212172   4.609   7.247   4.665
 4076TIP3    H112173   4.657   7.164   4.659
 4076TIP3    H212174   4.544   7.232   4.733
 4077TIP3   OH212175   7.909   7.566   6.747
 4077TIP3    H112176   8.004   7.554   6.740
 4077TIP3    H212177   7.885   7.612   6.666
 4078TIP3   OH212178   1.375   1.052   3.802
 4078TIP3    H112179   1.362   1.000   3.722
 4078TIP3    H212180   1.457   1.098   3.788
 4079TIP3   OH212181   0.049   2.147   0.680
 4079TIP3    H112182   0.061   2.144   0.585
 4079TIP3    H212183   0.029   2.057   0.705
 4080TIP3   OH212184   1.029   2.773   4.992
 4080TIP3    H112185   1.017   2.720   5.070
 4080TIP3    H212186   0.959   2.746   4.933
 4081TIP3   OH212187   3.985   5.705   5.883
 4081TIP3    H112188   3.905   5.660   5.909
 4081TIP3    H212189   3.964   5.742   5.797
 4082TIP3   OH212190   0.235   7.263   3.589
 4082TIP3    H112191   0.311   7.206   3.598
 4082TIP3    H212192   0.161   7.204   3.577
 4083TIP3   OH212193   2.751   4.530   0.518
 4083TIP3    H112194   2.694   4.581   0.460
 4083TIP3    H212195   2.840   4.549   0.486
 4084TIP3   OH212196   3.119   3.729   4.442
 4084TIP3    H112197   3.060   3.795   4.405
 4084TIP3    H212198   3.070   3.647   4.437
 4085TIP3   OH212199   8.083   7.345   0.352
 4085TIP3    H112200   8.120   7.427   0.321
 4085TIP3    H212201   8.112   7.339   0.444
 4086TIP3   OH212202   3.289   5.034   1.734
 4086TIP3    H112203   3.315   5.121   1.764
 4086TIP3    H212204   3.331   4.973   1.795
 4087TIP3   OH212205   3.472   5.630   6.372
 4087TIP3    H112206   3.432   5.589   6.296
 4087TIP3    H212207   3.559   5.590   6.379
 4088TIP3   OH212208   3.064   3.694   2.142
 4088TIP3    H112209   3.129   3.674   2.074
 4088TIP3    H212210   3.113   3.690   2.224
 4089TIP3   OH212211   5.582   5.832   0.056
 4089TIP3    H112212   5.530   5.803   0.132
 4089TIP3    H212213   5.577   5.927   0.059
 4090TIP3   OH212214   3.866   4.420   6.093
 4090TIP3    H112215   3.813   4.342   6.109
 4090TIP3    H212216   3.954   4.386   6.078
 4091TIP3   OH212217   7.349   3.469   0.303
 4091TIP3    H112218   7.296   3.547   0.319
 4091TIP3    H212219   7.355   3.463   0.208
 4092TIP3   OH212220   6.626   2.336   1.878
 4092TIP3    H112221   6.708   2.351   1.829
 4092TIP3    H212222   6.572   2.412   1.858
 4093TIP3   OH212223   6.245   5.578   4.649
 4093TIP3    H112224   6.282   5.525   4.720
 4093TIP3    H212225   6.321   5.604   4.597
 4094TIP3   OH212226   3.598   6.007   2.277
 4094TIP3    H112227   3.528   6.061   2.314
 4094TIP3    H212228   3.569   5.988   2.188
 4095TIP3   OH212229   2.631   0.178   4.899
 4095TIP3    H112230   2.610   0.267   4.872
 4095TIP3    H212231   2.548   0.130   4.894
 4096TIP3   OH212232   5.747   0.753   1.805
 4096TIP3    H112233   5.727   0.733   1.896
 4096TIP3    H212234   5.732   0.847   1.797
 4097TIP3   OH212235   5.236   5.286   3.176
 4097TIP3    H112236   5.179   5.314   3.248
 4097TIP3    H212237   5.210   5.341   3.102
 4098TIP3   OH212238   5.351   3.494   2.210
 4098TIP3    H112239   5.297   3.522   2.284
 4098TIP3    H212240   5.437   3.530   2.228
 4099TIP3   OH212241   0.604   3.238   6.465
 4099TIP3    H112242   0.632   3.148   6.452
 4099TIP3    H212243   0.581   3.243   6.558
 4100TIP3   OH212244   2.039   5.719   4.894
 4100TIP3    H112245   2.129   5.691   4.910
 4100TIP3    H212246   2.035   5.732   4.799
 4101TIP3   OH212247   0.559   5.592   6.462
 4101TIP3    H112248   0.542   5.511   6.414
 4101TIP3    H212249   0.490   5.596   6.528
 4102TIP3   OH212250   0.647   7.810   0.146
 4102TIP3    H112251   0.624   7.752   0.218
 4102TIP3    H212252   0.647   7.898   0.185
 4103TIP3   OH212253   4.397   4.860   4.464
 4103TIP3    H112254   4.442   4.777   4.444
 4103TIP3    H212255   4.344   4.878   4.387
 4104TIP3   OH212256   3.743   1.082   3.642
 4104TIP3    H112257   3.787   1.064   3.559
 4104TIP3    H212258   3.652   1.099   3.618
 4105TIP3   OH212259   3.550   1.010   5.651
 4105TIP3    H112260   3.522   1.102   5.641
 4105TIP3    H212261   3.547   0.995   5.746
 4106TIP3   OH212262   7.742   3.347   3.349
 4106TIP3    H112263   7.669   3.401   3.378
 4106TIP3    H212264   7.815   3.408   3.342
 4107TIP3   OH212265   4.530   2.366   1.900
 4107TIP3    H112266   4.619   2.330   1.909
 4107TIP3    H212267   4.495   2.364   1.989
 4108TIP3   OH212268   2.267   6.161   2.422
 4108TIP3    H112269   2.340   6.169   2.360
 4108TIP3    H212270   2.192   6.139   2.368
 4109TIP3   OH212271   7.197   4.628   0.232
 4109TIP3    H112272   7.105   4.654   0.234
 4109TIP3    H212273   7.222   4.631   0.140
 4110TIP3   OH212274   0.212   2.199   5.666
 4110TIP3    H112275   0.184   2.228   5.579
 4110TIP3    H212276   0.307   2.215   5.667
 4111TIP3   OH212277   0.945   1.473   0.783
 4111TIP3    H112278   1.008   1.510   0.721
 4111TIP3    H212279   0.892   1.413   0.731
 4112TIP3   OH212280   6.475   3.456   0.426
 4112TIP3    H112281   6.385   3.431   0.407
 4112TIP3    H212282   6.524   3.432   0.347
 4113TIP3   OH212283   4.802   6.122   3.326
 4113TIP3    H112284   4.795   6.174   3.406
 4113TIP3    H212285   4.715   6.126   3.286
 4114TIP3   OH212286   6.875   3.362   6.426
 4114TIP3    H112287   6.796   3.409   6.400
 4114TIP3    H212288   6.940   3.430   6.443
 4115TIP3   OH212289   7.426   7.702   5.996
 4115TIP3    H112290   7.344   7.666   6.028
 4115TIP3    H212291   7.490   7.632   6.010
 4116TIP3   OH212292   0.636   2.126   0.473
 4116TIP3    H112293   0.591   2.097   0.552
 4116TIP3    H212294   0.687   2.202   0.501
 4117TIP3   OH212295   7.748   4.741   3.749
 4117TIP3    H112296   7.711   4.664   3.706
 4117TIP3    H212297   7.816   4.706   3.806
 4118TIP3   OH212298   4.791   1.810   0.670
 4118TIP3    H112299   4.879   1.799   0.703
 4118TIP3    H212300   4.791   1.764   0.586
 4119TIP3   OH212301   3.689   4.519   3.439
 4119TIP3    H112302   3.773   4.478   3.460
 4119TIP3    H212303   3.664   4.481   3.355
 4120TIP3   OH212304   2.016   3.780   1.035
 4120TIP3    H112305   1.935   3.748   1.073
 4120TIP3    H212306   1.993   3.806   0.946
 4121TIP3   OH212307   1.538   0.351   6.188
 4121TIP3    H112308   1.531   0.291   6.114
 4121TIP3    H212309   1.543   0.295   6.265
 4122TIP3   OH212310   3.599   7.710   2.536
 4122TIP3    H112311   3.591   7.633   2.479
 4122TIP3    H212312   3.550   7.778   2.491
 4123TIP3   OH212313   1.092   1.489   0.345
 4123TIP3    H112314   1.099   1.417   0.283
 4123TIP3    H212315   0.999   1.494   0.367
 4124TIP3   OH212316   3.754   1.087   2.437
 4124TIP3    H112317   3.732   0.994   2.429
 4124TIP3    H212318   3.846   1.092   2.409
 4125TIP3   OH212319   7.444   5.703   5.624
 4125TIP3    H112320   7.389   5.666   5.693
 4125TIP3    H212321   7.511   5.753   5.671
 4126TIP3   OH212322   7.309   7.726   1.932
 4126TIP3    H112323   7.356   7.803   1.900
 4126TIP3    H212324   7.345   7.653   1.882
 4127TIP3   OH212325   6.787   4.248   5.716
 4127TIP3    H112326   6.868   4.240   5.767
 4127TIP3    H212327   6.722   4.276   5.781
 4128TIP3   OH212328   5.854   6.332   1.068
 4128TIP3    H112329   5.905   6.368   1.141
 4128TIP3    H212330   5.774   6.299   1.109
 4129TIP3   OH212331   5.873   3.364   4.296
 4129TIP3    H112332   5.942   3.367   4.229
 4129TIP3    H212333   5.807   3.306   4.259
 4130TIP3   OH212334   6.754   7.374   4.114
 4130TIP3    H112335   6.714   7.337   4.035
 4130TIP3    H212336   6.846   7.349   4.109
 4131TIP3   OH212337   0.644   3.887   1.128
 4131TIP3    H112338   0.611   3.797   1.131
 4131TIP3    H212339   0.610   3.927   1.208
 4132TIP3   OH212340   0.955   0.600   1.887
 4132TIP3    H112341   1.042   0.567   1.866
 4132TIP3    H212342   0.939   0.668   1.821
 4133TIP3   OH212343   6.084   2.137   4.061
 4133TIP3    H112344   6.146   2.132   3.989
 4133TIP3    H212345   6.019   2.201   4.033
 4134TIP3   OH212346   7.847   0.424   1.331
 4134TIP3    H112347   7.881   0.365   1.264
 4134TIP3    H212348   7.772   0.467   1.289
 4135TIP3   OH212349   3.588   0.390   3.764
 4135TIP3    H112350   3.628   0.470   3.730
 4135TIP3    H212351   3.655   0.322   3.753
 4136TIP3   OH212352   2.630   5.032   1.333
 4136TIP3    H112353   2.716   5.003   1.364
 4136TIP3    H212354   2.596   5.087   1.403
 4137TIP3   OH212355   2.313   6.541   6.158
 4137TIP3    H112356   2.244   6.506   6.214
 4137TIP3    H212357   2.273   6.615   6.113
 4138TIP3   OH212358   7.188   1.731   0.909
 4138TIP3    H112359   7.156   1.819   0.887
 4138TIP3    H212360   7.130   1.672   0.863
 4139TIP3   OH212361   4.886   4.680   3.805
 4139TIP3    H112362   4.830   4.607   3.778
 4139TIP3    H212363   4.838   4.721   3.877
 4140TIP3   OH212364   5.221   3.741   2.647
 4140TIP3    H112365   5.296   3.685   2.669
 4140TIP3    H212366   5.257   3.830   2.646
 4141TIP3   OH212367   2.879   7.322   0.786
 4141TIP3    H112368   2.890   7.266   0.709
 4141TIP3    H212369   2.809   7.383   0.762
 4142TIP3   OH212370   0.035   1.948   2.555
 4142TIP3    H112371   0.028   1.918   2.645
 4142TIP3    H212372  -0.002   2.036   2.556
 4143TIP3   OH212373   0.306   0.225   0.370
 4143TIP3    H112374   0.389   0.233   0.416
 4143TIP3    H212375   0.283   0.314   0.346
 4144TIP3   OH212376   0.680   7.749   5.305
 4144TIP3    H112377   0.756   7.758   5.362
 4144TIP3    H212378   0.715   7.725   5.220
 4145TIP3   OH212379   2.093   0.506   5.760
 4145TIP3    H112380   2.082   0.562   5.684
 4145TIP3    H212381   2.040   0.429   5.741
 4146TIP3   OH212382   3.760   0.947   1.827
 4146TIP3    H112383   3.853   0.940   1.805
 4146TIP3    H212384   3.715   0.911   1.750
 4147TIP3   OH212385   6.456   5.513   6.729
 4147TIP3    H112386   6.378   5.542   6.681
 4147TIP3    H212387   6.529   5.551   6.680
 4148TIP3   OH212388   7.176   0.494   2.110
 4148TIP3    H112389   7.209   0.471   2.023
 4148TIP3    H212390   7.161   0.410   2.153
 4149TIP3   OH212391   3.652   2.415   1.217
 4149TIP3    H112392   3.577   2.389   1.269
 4149TIP3    H212393   3.728   2.387   1.268
 4150TIP3   OH212394   8.034   4.960   0.030
 4150TIP3    H112395   8.130   4.962   0.040
 4150TIP3    H212396   8.005   4.897   0.096
 4151TIP3   OH212397   6.467   4.553   1.858
 4151TIP3    H112398   6.541   4.551   1.797
 4151TIP3    H212399   6.507   4.570   1.943
 4152TIP3   OH212400   4.760   1.497   1.823
 4152TIP3    H112401   4.809   1.545   1.756
 4152TIP3    H212402   4.787   1.536   1.906
 4153TIP3   OH212403   8.245   5.122   5.123
 4153TIP3    H112404   8.324   5.079   5.090
 4153TIP3    H212405   8.189   5.049   5.150
 4154TIP3   OH212406   0.322   3.876   0.032
 4154TIP3    H112407   0.297   3.860   0.123
 4154TIP3    H212408   0.252   3.837  -0.020
 4155TIP3   OH212409   7.815   3.539   1.308
 4155TIP3    H112410   7.870   3.616   1.297
 4155TIP3    H212411   7.733   3.562   1.264
 4156TIP3   OH212412   0.508   6.007   0.113
 4156TIP3    H112413   0.529   6.021   0.205
 4156TIP3    H212414   0.547   5.923   0.092
 4157TIP3   OH212415   0.726   5.403   2.964
 4157TIP3    H112416   0.741   5.386   3.057
 4157TIP3    H212417   0.645   5.452   2.962
 4158TIP3   OH212418   6.944   7.719   1.948
 4158TIP3    H112419   6.983   7.773   1.879
 4158TIP3    H212420   6.945   7.630   1.913
 4159TIP3   OH212421   2.565   6.325   0.664
 4159TIP3    H112422   2.476   6.319   0.629
 4159TIP3    H212423   2.619   6.351   0.590
 4160TIP3   OH212424   6.630   3.439   3.795
 4160TIP3    H112425   6.578   3.471   3.721
 4160TIP3    H212426   6.565   3.408   3.858
 4161TIP3   OH212427   6.690   1.791   1.247
 4161TIP3    H112428   6.709   1.870   1.196
 4161TIP3    H212429   6.603   1.763   1.217
 4162TIP3   OH212430   0.900   7.743   5.026
 4162TIP3    H112431   0.808   7.718   5.022
 4162TIP3    H212432   0.946   7.675   4.976
 4163TIP3   OH212433   4.464   3.957   5.240
 4163TIP3    H112434   4.490   3.870   5.211
 4163TIP3    H212435   4.441   4.003   5.159
 4164TIP3   OH212436   0.382   2.904   0.968
 4164TIP3    H112437   0.417   2.836   1.025
 4164TIP3    H212438   0.405   2.877   0.880
 4165TIP3   OH212439   2.502   1.796   3.734
 4165TIP3    H112440   2.550   1.848   3.798
 4165TIP3    H212441   2.485   1.856   3.662
 4166TIP3   OH212442   8.048   3.573   1.872
 4166TIP3    H112443   7.996   3.522   1.934
 4166TIP3    H212444   8.072   3.652   1.920
 4167TIP3   OH212445   4.437   5.828   2.993
 4167TIP3    H112446   4.358   5.854   2.946
 4167TIP3    H212447   4.454   5.738   2.965
 4168TIP3   OH212448   1.942   3.567   3.425
 4168TIP3    H112449   2.031   3.570   3.460
 4168TIP3    H212450   1.911   3.479   3.448
 4169TIP3   OH212451   5.640   2.490   6.125
 4169TIP3    H112452   5.682   2.412   6.161
 4169TIP3    H212453   5.597   2.459   6.045
 4170TIP3   OH212454   3.137   5.116   0.511
 4170TIP3    H112455   3.105   5.199   0.476
 4170TIP3    H212456   3.058   5.071   0.542
 4171TIP3   OH212457   7.626   3.980   4.735
 4171TIP3    H112458   7.544   4.007   4.693
 4171TIP3    H212459   7.637   4.043   4.807
 4172TIP3   OH212460   2.613   3.466   3.228
 4172TIP3    H112461   2.614   3.504   3.316
 4172TIP3    H212462   2.699   3.485   3.192
 4173TIP3   OH212463   1.500   5.111   3.634
 4173TIP3    H112464   1.409   5.140   3.626
 4173TIP3    H212465   1.501   5.055   3.711
 4174TIP3   OH212466   5.275   3.543   6.328
 4174TIP3    H112467   5.356   3.583   6.296
 4174TIP3    H212468   5.218   3.617   6.347
 4175TIP3   OH212469   4.155   2.402   1.511
 4175TIP3    H112470   4.164   2.307   1.517
 4175TIP3    H212471   4.173   2.434   1.599
 4176TIP3   OH212472   7.919   0.873   3.702
 4176TIP3    H112473   7.887   0.793   3.745
 4176TIP3    H212474   7.843   0.931   3.700
 4177TIP3   OH212475   5.968   2.117   5.392
 4177TIP3    H112476   5.888   2.169   5.389
 4177TIP3    H212477   6.006   2.139   5.478
 4178TIP3   OH212478   1.154   4.688   2.225
 4178TIP3    H112479   1.244   4.722   2.225
 4178TIP3    H212480   1.145   4.644   2.141
 4179TIP3   OH212481   5.297   3.011   6.359
 4179TIP3    H112482   5.228   3.071   6.333
 4179TIP3    H212483   5.374   3.041   6.311
 4180TIP3   OH212484   5.654   5.999   2.508
 4180TIP3    H112485   5.566   6.036   2.520
 4180TIP3    H212486   5.687   5.988   2.597
 4181TIP3   OH212487   3.598   5.637   1.422
 4181TIP3    H112488   3.636   5.573   1.482
 4181TIP3    H212489   3.667   5.702   1.410
 4182TIP3   OH212490   1.774   1.756   6.159
 4182TIP3    H112491   1.763   1.846   6.189
 4182TIP3    H212492   1.692   1.713   6.182
 4183TIP3   OH212493   0.888   4.843   3.177
 4183TIP3    H112494   0.932   4.906   3.234
 4183TIP3    H212495   0.948   4.769   3.173
 4184TIP3   OH212496   2.239   7.272   6.634
 4184TIP3    H112497   2.259   7.262   6.541
 4184TIP3    H212498   2.223   7.183   6.666
 4185TIP3   OH212499   2.642   1.808   2.956
 4185TIP3    H112500   2.629   1.716   2.981
 4185TIP3    H212501   2.631   1.856   3.039
 4186TIP3   OH212502   3.576   2.195   6.410
 4186TIP3    H112503   3.627   2.238   6.341
 4186TIP3    H212504   3.500   2.252   6.423
 4187TIP3   OH212505   1.514   2.000   4.615
 4187TIP3    H112506   1.473   1.943   4.551
 4187TIP3    H212507   1.608   1.988   4.600
 4188TIP3   OH212508   4.123   4.032   4.820
 4188TIP3    H112509   4.147   4.032   4.728
 4188TIP3    H212510   4.175   4.102   4.859
 4189TIP3   OH212511   6.993   4.742   5.825
 4189TIP3    H112512   6.905   4.772   5.846
 4189TIP3    H212513   7.050   4.801   5.874
 4190TIP3   OH212514   5.779   3.655   5.805
 4190TIP3    H112515   5.822   3.707   5.737
 4190TIP3    H212516   5.702   3.618   5.762
 4191TIP3   OH212517   5.044   4.454   2.573
 4191TIP3    H112518   5.006   4.506   2.644
 4191TIP3    H212519   5.036   4.510   2.496
 4192TIP3   OH212520   7.435   0.560   1.728
 4192TIP3    H112521   7.367   0.594   1.670
 4192TIP3    H212522   7.417   0.601   1.813
 4193TIP3   OH212523   5.931   2.735   0.509
 4193TIP3    H112524   5.918   2.736   0.414
 4193TIP3    H212525   6.026   2.735   0.521
 4194TIP3   OH212526   4.619   6.914   0.423
 4194TIP3    H112527   4.659   6.996   0.395
 4194TIP3    H212528   4.674   6.846   0.385
 4195TIP3   OH212529   6.141   0.076   0.612
 4195TIP3    H112530   6.219   0.114   0.572
 4195TIP3    H212531   6.095   0.034   0.539
 4196TIP3   OH212532   1.306   6.288   5.481
 4196TIP3    H112533   1.369   6.357   5.458
 4196TIP3    H212534   1.349   6.207   5.454
 4197TIP3   OH212535   3.235   7.258   3.316
 4197TIP3    H112536   3.328   7.266   3.296
 4197TIP3    H212537   3.199   7.209   3.242
 4198TIP3   OH212538   4.323   7.650   1.426
 4198TIP3    H112539   4.314   7.625   1.518
 4198TIP3    H212540   4.366   7.575   1.386
 4199TIP3   OH212541   5.971   3.329   1.979
 4199TIP3    H112542   5.886   3.372   1.974
 4199TIP3    H212543   6.001   3.344   2.069
 4200TIP3   OH212544   7.868   6.084   5.279
 4200TIP3    H112545   7.786   6.085   5.230
 4200TIP3    H212546   7.936   6.098   5.212
 4201TIP3   OH212547   5.419   4.215   4.855
 4201TIP3    H112548   5.336   4.246   4.891
 4201TIP3    H212549   5.462   4.172   4.929
 4202TIP3   OH212550   5.129   3.531   3.100
 4202TIP3    H112551   5.100   3.478   3.026
 4202TIP3    H212552   5.201   3.584   3.064
 4203TIP3   OH212553   2.748   2.494   5.706
 4203TIP3    H112554   2.801   2.445   5.644
 4203TIP3    H212555   2.701   2.558   5.653
 4204TIP3   OH212556   0.472   3.367   2.681
 4204TIP3    H112557   0.541   3.428   2.656
 4204TIP3    H212558   0.511   3.312   2.749
 4205TIP3   OH212559   3.994   5.952   3.725
 4205TIP3    H112560   4.050   5.954   3.802
 4205TIP3    H212561   4.050   5.980   3.653
 4206TIP3   OH212562   7.497   2.556   5.136
 4206TIP3    H112563   7.555   2.630   5.153
 4206TIP3    H212564   7.441   2.551   5.214
 4207TIP3   OH212565   7.169   6.469   2.776
 4207TIP3    H112566   7.234   6.525   2.818
 4207TIP3    H212567   7.220   6.407   2.724
 4208TIP3   OH212568   4.507   7.562   5.790
 4208TIP3    H112569   4.462   7.522   5.716
 4208TIP3    H212570   4.596   7.578   5.758
 4209TIP3   OH212571   6.281   2.732   0.100
 4209TIP3    H112572   6.288   2.675   0.175
 4209TIP3    H212573   6.258   2.674   0.027
 4210TIP3   OH212574   4.659   3.362   1.882
 4210TIP3    H112575   4.625   3.351   1.971
 4210TIP3    H212576   4.580   3.366   1.828
 4211TIP3   OH212577   3.205   5.295   2.533
 4211TIP3    H112578   3.197   5.327   2.623
 4211TIP3    H212579   3.125   5.325   2.490
 4212TIP3   OH212580   2.700   7.540   0.652
 4212TIP3    H112581   2.626   7.483   0.673
 4212TIP3    H212582   2.661   7.627   0.646
 4213TIP3   OH212583   4.866   7.273   5.720
 4213TIP3    H112584   4.774   7.298   5.717
 4213TIP3    H212585   4.900   7.293   5.633
 4214TIP3   OH212586   3.209   3.774   5.642
 4214TIP3    H112587   3.280   3.792   5.581
 4214TIP3    H212588   3.230   3.687   5.677
 4215TIP3   OH212589   1.382   1.605   5.068
 4215TIP3    H112590   1.354   1.679   5.123
 4215TIP3    H212591   1.433   1.550   5.128
 4216TIP3   OH212592   4.832   1.002   1.313
 4216TIP3    H112593   4.775   1.009   1.236
 4216TIP3    H212594   4.887   0.926   1.295
 4217TIP3   OH212595   1.073   2.082   0.240
 4217TIP3    H112596   0.983   2.049   0.245
 4217TIP3    H212597   1.119   2.038   0.312
 4218TIP3   OH212598   1.238   0.535   3.358
 4218TIP3    H112599   1.291   0.462   3.327
 4218TIP3    H212600   1.149   0.500   3.363
 4219TIP3   OH212601   2.260   0.114   5.717
 4219TIP3    H112602   2.350   0.082   5.721
 4219TIP3    H212603   2.242   0.122   5.623
 4220TIP3   OH212604   1.262   6.733   6.660
 4220TIP3    H112605   1.170   6.754   6.646
 4220TIP3    H212606   1.260   6.655   6.717
 4221TIP3   OH212607   3.977   1.679   0.183
 4221TIP3    H112608   3.927   1.599   0.197
 4221TIP3    H212609   3.911   1.747   0.172
 4222TIP3   OH212610   0.476   1.011   5.059
 4222TIP3    H112611   0.560   1.043   5.028
 4222TIP3    H212612   0.415   1.032   4.988
 4223TIP3   OH212613   2.133   4.053   1.408
 4223TIP3    H112614   2.122   4.144   1.380
 4223TIP3    H212615   2.196   4.016   1.347
 4224TIP3   OH212616   5.940   0.160   5.591
 4224TIP3    H112617   5.929   0.255   5.597
 4224TIP3    H212618   5.881   0.124   5.657
 4225TIP3   OH212619   4.315   4.412   6.661
 4225TIP3    H112620   4.362   4.423   6.743
 4225TIP3    H212621   4.252   4.484   6.659
 4226TIP3   OH212622   6.497   3.604   5.403
 4226TIP3    H112623   6.499   3.537   5.335
 4226TIP3    H212624   6.460   3.681   5.361
 4227TIP3   OH212625   5.739   6.193   5.524
 4227TIP3    H112626   5.649   6.224   5.532
 4227TIP3    H212627   5.750   6.132   5.597
 4228TIP3   OH212628   3.849   7.592   3.988
 4228TIP3    H112629   3.873   7.569   3.899
 4228TIP3    H212630   3.879   7.682   3.999
 4229TIP3   OH212631   4.350   7.822   2.124
 4229TIP3    H112632   4.350   7.779   2.209
 4229TIP3    H212633   4.384   7.757   2.064
 4230TIP3   OH212634   3.066   6.466   4.137
 4230TIP3    H112635   3.079   6.436   4.047
 4230TIP3    H212636   2.994   6.412   4.169
 4231TIP3   OH212637   6.880   0.617   5.507
 4231TIP3    H112638   6.791   0.594   5.534
 4231TIP3    H212639   6.876   0.620   5.412
 4232TIP3   OH212640   4.482   0.409   5.437
 4232TIP3    H112641   4.433   0.419   5.518
 4232TIP3    H212642   4.518   0.496   5.420
 4233TIP3   OH212643   0.529   7.529   2.081
 4233TIP3    H112644   0.564   7.607   2.125
 4233TIP3    H212645   0.453   7.561   2.033
 4234TIP3   OH212646   1.544   7.770   1.433
 4234TIP3    H112647   1.580   7.856   1.408
 4234TIP3    H212648   1.516   7.731   1.351
 4235TIP3   OH212649   6.916   1.224   0.510
 4235TIP3    H112650   6.955   1.178   0.584
 4235TIP3    H212651   6.847   1.277   0.549
 4236TIP3   OH212652   1.159   2.642   3.924
 4236TIP3    H112653   1.127   2.730   3.941
 4236TIP3    H212654   1.132   2.623   3.834
 4237TIP3   OH212655   7.631   6.427   0.015
 4237TIP3    H112656   7.684   6.464   0.085
 4237TIP3    H212657   7.652   6.333   0.016
 4238TIP3   OH212658   4.289   7.201   5.137
 4238TIP3    H112659   4.238   7.280   5.120
 4238TIP3    H212660   4.265   7.141   5.066
 4239TIP3   OH212661   2.894   4.249   4.964
 4239TIP3    H112662   2.859   4.193   4.895
 4239TIP3    H212663   2.917   4.190   5.035
 4240TIP3   OH212664   6.387   4.159   2.636
 4240TIP3    H112665   6.300   4.166   2.597
 4240TIP3    H212666   6.381   4.207   2.718
 4241TIP3   OH212667   3.053   2.837   0.903
 4241TIP3    H112668   3.068   2.772   0.971
 4241TIP3    H212669   2.974   2.807   0.858
 4242TIP3   OH212670   4.306   2.904   3.399
 4242TIP3    H112671   4.217   2.882   3.427
 4242TIP3    H212672   4.299   2.919   3.305
 4243TIP3   OH212673   8.291   2.942   3.264
 4243TIP3    H112674   8.285   2.871   3.328
 4243TIP3    H212675   8.304   3.021   3.317
 4244TIP3   OH212676   5.455   6.743   1.681
 4244TIP3    H112677   5.381   6.686   1.704
 4244TIP3    H212678   5.503   6.754   1.763
 4245TIP3   OH212679   5.323   5.324   4.820
 4245TIP3    H112680   5.314   5.234   4.850
 4245TIP3    H212681   5.250   5.336   4.759
 4246TIP3   OH212682   0.742   2.014   3.088
 4246TIP3    H112683   0.716   2.054   3.171
 4246TIP3    H212684   0.695   2.063   3.021
 4247TIP3   OH212685   0.049   1.355   0.088
 4247TIP3    H112686   0.081   1.266   0.073
 4247TIP3    H212687   0.061   1.370   0.181
 4248TIP3   OH212688   4.431   2.179   5.657
 4248TIP3    H112689   4.473   2.242   5.598
 4248TIP3    H212690   4.478   2.189   5.740
 4249TIP3   OH212691   1.188   2.009   4.715
 4249TIP3    H112692   1.204   1.970   4.630
 4249TIP3    H212693   1.171   2.102   4.696
 4250TIP3   OH212694   7.292   1.927   0.469
 4250TIP3    H112695   7.303   1.879   0.386
 4250TIP3    H212696   7.216   1.983   0.454
 4251TIP3   OH212697   5.507   0.888   3.096
 4251TIP3    H112698   5.444   0.902   3.026
 4251TIP3    H212699   5.515   0.792   3.102
 4252TIP3   OH212700   7.544   5.588   1.575
 4252TIP3    H112701   7.624   5.562   1.528
 4252TIP3    H212702   7.508   5.505   1.607
 4253TIP3   OH212703   5.498   4.663   2.812
 4253TIP3    H112704   5.483   4.625   2.898
 4253TIP3    H212705   5.451   4.605   2.752
 4254TIP3   OH212706   1.757   1.866   4.439
 4254TIP3    H112707   1.703   1.789   4.458
 4254TIP3    H212708   1.736   1.888   4.348
 4255TIP3   OH212709   2.011   3.083   0.381
 4255TIP3    H112710   1.967   3.119   0.458
 4255TIP3    H212711   1.965   3.001   0.363
 4256TIP3   OH212712   2.094   7.584   6.484
 4256TIP3    H112713   2.022   7.620   6.535
 4256TIP3    H212714   2.067   7.494   6.464
 4257TIP3   OH212715   2.819   1.821   5.221
 4257TIP3    H112716   2.843   1.859   5.136
 4257TIP3    H212717   2.838   1.890   5.285
 4258TIP3   OH212718   6.241   2.837   6.733
 4258TIP3    H112719   6.329   2.860   6.764
 4258TIP3    H212720   6.242   2.741   6.726
 4259TIP3   OH212721   7.445   5.841   3.394
 4259TIP3    H112722   7.394   5.856   3.314
 4259TIP3    H212723   7.508   5.774   3.371
 4260TIP3   OH212724   2.953   5.366   6.584
 4260TIP3    H112725   2.887   5.328   6.526
 4260TIP3    H212726   2.919   5.350   6.672
 4261TIP3   OH212727   5.107   6.001   2.840
 4261TIP3    H112728   5.017   6.020   2.814
 4261TIP3    H212729   5.143   5.949   2.768
 4262TIP3   OH212730   2.468   3.976   3.669
 4262TIP3    H112731   2.431   4.021   3.745
 4262TIP3    H212732   2.500   4.046   3.612
 4263TIP3   OH212733   1.844   0.260   3.698
 4263TIP3    H112734   1.777   0.307   3.745
 4263TIP3    H212735   1.838   0.170   3.730
 4264TIP3   OH212736   1.856   7.257   1.746
 4264TIP3    H112737   1.887   7.345   1.765
 4264TIP3    H212738   1.777   7.270   1.693
 4265TIP3   OH212739   0.128   3.177   6.634
 4265TIP3    H112740   0.042   3.218   6.645
 4265TIP3    H212741   0.140   3.173   6.539
 4266TIP3   OH212742   0.821   5.366   6.054
 4266TIP3    H112743   0.829   5.356   6.149
 4266TIP3    H212744   0.857   5.452   6.036
 4267TIP3   OH212745   7.013   0.564   2.694
 4267TIP3    H112746   7.088   0.575   2.753
 4267TIP3    H212747   6.964   0.491   2.732
 4268TIP3   OH212748   2.936   3.524   3.734
 4268TIP3    H112749   2.952   3.484   3.820
 4268TIP3    H212750   3.024   3.538   3.698
 4269TIP3   OH212751   2.156   4.042   5.883
 4269TIP3    H112752   2.237   3.990   5.889
 4269TIP3    H212753   2.141   4.052   5.789
 4270TIP3   OH212754   2.102   2.099   5.856
 4270TIP3    H112755   2.148   2.105   5.939
 4270TIP3    H212756   2.013   2.073   5.880
 4271TIP3   OH212757   0.803   1.557   4.190
 4271TIP3    H112758   0.780   1.645   4.159
 4271TIP3    H212759   0.890   1.568   4.229
 4272TIP3   OH212760   4.015   3.422   1.102
 4272TIP3    H112761   4.006   3.381   1.016
 4272TIP3    H212762   4.092   3.478   1.094
 4273TIP3   OH212763   1.478   7.711   0.436
 4273TIP3    H112764   1.466   7.619   0.460
 4273TIP3    H212765   1.389   7.745   0.424
 4274TIP3   OH212766   2.759   4.199   1.356
 4274TIP3    H112767   2.786   4.153   1.436
 4274TIP3    H212768   2.841   4.237   1.323
 4275TIP3   OH212769   2.489   3.814   4.423
 4275TIP3    H112770   2.532   3.775   4.347
 4275TIP3    H212771   2.437   3.743   4.460
 4276TIP3   OH212772   0.874   0.550   0.521
 4276TIP3    H112773   0.788   0.562   0.482
 4276TIP3    H212774   0.933   0.600   0.465
 4277TIP3   OH212775   1.694   0.104   6.135
 4277TIP3    H112776   1.650   0.024   6.165
 4277TIP3    H212777   1.786   0.090   6.154
 4278TIP3   OH212778   4.406   0.069   1.959
 4278TIP3    H112779   4.440  -0.020   1.967
 4278TIP3    H212780   4.471   0.123   2.005
 4279TIP3   OH212781   4.570   6.236   3.255
 4279TIP3    H112782   4.629   6.304   3.221
 4279TIP3    H212783   4.503   6.285   3.303
 4280TIP3   OH212784   2.112   3.878   3.621
 4280TIP3    H112785   2.069   3.962   3.631
 4280TIP3    H212786   2.152   3.881   3.534
 4281TIP3   OH212787   5.203   0.809   1.529
 4281TIP3    H112788   5.186   0.903   1.527
 4281TIP3    H212789   5.293   0.801   1.559
 4282TIP3   OH212790   0.531   4.407   6.141
 4282TIP3    H112791   0.619   4.435   6.166
 4282TIP3    H212792   0.545   4.345   6.069
 4283TIP3   OH212793   3.365   4.112   1.807
 4283TIP3    H112794   3.294   4.137   1.867
 4283TIP3    H212795   3.441   4.099   1.864
 4284TIP3   OH212796   8.107   1.486   0.330
 4284TIP3    H112797   8.167   1.561   0.324
 4284TIP3    H212798   8.083   1.467   0.240
 4285TIP3   OH212799   4.256   5.668   6.689
 4285TIP3    H112800   4.323   5.668   6.757
 4285TIP3    H212801   4.265   5.753   6.646
 4286TIP3   OH212802   4.221   0.106   4.740
 4286TIP3    H112803   4.243   0.151   4.821
 4286TIP3    H212804   4.305   0.084   4.701
 4287TIP3   OH212805   2.498   6.083   5.712
 4287TIP3    H112806   2.529   6.043   5.630
 4287TIP3    H212807   2.469   6.171   5.687
 4288TIP3   OH212808   7.083   5.042   4.822
 4288TIP3    H112809   7.007   5.053   4.879
 4288TIP3    H212810   7.090   5.126   4.776
 4289TIP3   OH212811   5.402   4.776   6.356
 4289TIP3    H112812   5.481   4.801   6.309
 4289TIP3    H212813   5.376   4.855   6.404
 4290TIP3   OH212814   5.914   3.689   4.262
 4290TIP3    H112815   5.895   3.708   4.170
 4290TIP3    H212816   5.893   3.770   4.309
 4291TIP3   OH212817   5.689   4.870   5.060
 4291TIP3    H112818   5.658   4.872   5.150
 4291TIP3    H212819   5.614   4.901   5.008
 4292TIP3   OH212820   5.639   6.847   5.742
 4292TIP3    H112821   5.584   6.772   5.720
 4292TIP3    H212822   5.643   6.847   5.838
 4293TIP3   OH212823   7.859   1.663   3.594
 4293TIP3    H112824   7.932   1.667   3.657
 4293TIP3    H212825   7.783   1.693   3.644
 4294TIP3   OH212826   4.561   4.605   4.564
 4294TIP3    H112827   4.613   4.526   4.578
 4294TIP3    H212828   4.592   4.666   4.631
 4295TIP3   OH212829   6.104   2.748   4.218
 4295TIP3    H112830   6.188   2.706   4.235
 4295TIP3    H212831   6.049   2.679   4.182
 4296TIP3   OH212832   7.748   4.207   2.318
 4296TIP3    H112833   7.769   4.132   2.374
 4296TIP3    H212834   7.685   4.173   2.255
 4297TIP3   OH212835   4.395   2.880   3.115
 4297TIP3    H112836   4.395   2.968   3.075
 4297TIP3    H212837   4.328   2.833   3.065
 4298TIP3   OH212838   6.096   6.740   3.590
 4298TIP3    H112839   6.079   6.747   3.684
 4298TIP3    H212840   6.148   6.818   3.569
 4299TIP3   OH212841   7.285   1.397   5.394
 4299TIP3    H112842   7.310   1.479   5.351
 4299TIP3    H212843   7.258   1.424   5.482
 4300TIP3   OH212844   3.888   6.910   4.515
 4300TIP3    H112845   3.938   6.866   4.584
 4300TIP3    H212846   3.947   6.978   4.482
 4301TIP3   OH212847   3.325   2.588   1.974
 4301TIP3    H112848   3.263   2.659   1.959
 4301TIP3    H212849   3.405   2.616   1.929
 4302TIP3   OH212850   3.322   5.526   1.424
 4302TIP3    H112851   3.415   5.547   1.422
 4302TIP3    H212852   3.300   5.526   1.517
 4303TIP3   OH212853   5.157   3.134   3.474
 4303TIP3    H112854   5.165   3.187   3.554
 4303TIP3    H212855   5.134   3.047   3.505
 4304TIP3   OH212856   4.033   0.855   5.874
 4304TIP3    H112857   4.121   0.889   5.864
 4304TIP3    H212858   4.010   0.874   5.965
 4305TIP3   OH212859   5.364   5.256   1.010
 4305TIP3    H112860   5.362   5.215   1.096
 4305TIP3    H212861   5.364   5.183   0.948
 4306TIP3   OH212862   4.542   5.959   0.694
 4306TIP3    H112863   4.537   6.038   0.748
 4306TIP3    H212864   4.546   5.991   0.604
 4307TIP3   OH212865   6.056   5.425   0.832
 4307TIP3    H112866   6.064   5.511   0.874
 4307TIP3    H212867   6.118   5.369   0.878
 4308TIP3   OH212868   4.455   6.505   3.529
 4308TIP3    H112869   4.360   6.510   3.536
 4308TIP3    H212870   4.487   6.546   3.609
 4309TIP3   OH212871   4.119   7.386   4.605
 4309TIP3    H112872   4.099   7.361   4.695
 4309TIP3    H212873   4.035   7.412   4.568
 4310TIP3   OH212874   3.034   4.157   6.243
 4310TIP3    H112875   2.964   4.110   6.196
 4310TIP3    H212876   3.114   4.136   6.194
 4311TIP3   OH212877   5.602   7.694   4.860
 4311TIP3    H112878   5.650   7.695   4.777
 4311TIP3    H212879   5.658   7.646   4.920
 4312TIP3   OH212880   5.652   3.866   4.237
 4312TIP3    H112881   5.662   3.774   4.212
 4312TIP3    H212882   5.573   3.895   4.189
 4313TIP3   OH212883   1.643   3.512   4.955
 4313TIP3    H112884   1.559   3.555   4.970
 4313TIP3    H212885   1.697   3.579   4.912
 4314TIP3   OH212886   8.145   6.883   5.112
 4314TIP3    H112887   8.101   6.928   5.185
 4314TIP3    H212888   8.135   6.943   5.038
 4315TIP3   OH212889   5.502   4.111   0.876
 4315TIP3    H112890   5.534   4.021   0.869
 4315TIP3    H212891   5.441   4.110   0.950
 4316TIP3   OH212892   0.251   7.514   3.714
 4316TIP3    H112893   0.197   7.515   3.793
 4316TIP3    H212894   0.247   7.423   3.684
 4317TIP3   OH212895   4.268   7.505   2.933
 4317TIP3    H112896   4.242   7.497   2.842
 4317TIP3    H212897   4.200   7.458   2.982
 4318TIP3   OH212898   4.807   1.109   6.070
 4318TIP3    H112899   4.870   1.085   6.002
 4318TIP3    H212900   4.836   1.196   6.100
 4319TIP3   OH212901   2.496   2.685   3.092
 4319TIP3    H112902   2.456   2.611   3.047
 4319TIP3    H212903   2.574   2.706   3.041
 4320TIP3   OH212904   6.969   0.270   4.083
 4320TIP3    H112905   6.945   0.191   4.132
 4320TIP3    H212906   7.034   0.313   4.137
 4321TIP3   OH212907   3.361   1.221   6.502
 4321TIP3    H112908   3.332   1.312   6.496
 4321TIP3    H212909   3.282   1.171   6.523
 4322TIP3   OH212910   3.067   0.338   2.156
 4322TIP3    H112911   3.139   0.396   2.131
 4322TIP3    H212912   2.991   0.373   2.109
 4323TIP3   OH212913   6.889   4.834   0.501
 4323TIP3    H112914   6.799   4.823   0.534
 4323TIP3    H212915   6.884   4.912   0.445
 4324TIP3   OH212916   3.387   0.301   5.668
 4324TIP3    H112917   3.453   0.358   5.631
 4324TIP3    H212918   3.334   0.273   5.594
 4325TIP3   OH212919   5.085   5.520   6.653
 4325TIP3    H112920   5.159   5.580   6.662
 4325TIP3    H212921   5.120   5.447   6.602
 4326TIP3   OH212922   2.451   2.937   6.389
 4326TIP3    H112923   2.407   2.931   6.474
 4326TIP3    H212924   2.461   3.031   6.374
 4327TIP3   OH212925   0.222   4.703   2.316
 4327TIP3    H112926   0.302   4.726   2.362
 4327TIP3    H212927   0.168   4.661   2.382
 4328TIP3   OH212928   5.026   5.355   5.499
 4328TIP3    H112929   5.116   5.386   5.490
 4328TIP3    H212930   4.992   5.400   5.576
 4329TIP3   OH212931   4.632   6.879   2.141
 4329TIP3    H112932   4.710   6.860   2.090
 4329TIP3    H212933   4.611   6.797   2.186
 4330TIP3   OH212934   4.218   7.821   3.660
 4330TIP3    H112935   4.126   7.831   3.635
 4330TIP3    H212936   4.247   7.742   3.615
 4331TIP3   OH212937   1.690   6.272   1.200
 4331TIP3    H112938   1.653   6.282   1.288
 4331TIP3    H212939   1.658   6.349   1.152
 4332TIP3   OH212940   1.043   1.681   4.235
 4332TIP3    H112941   1.138   1.693   4.228
 4332TIP3    H212942   1.021   1.715   4.322
 4333TIP3   OH212943   2.769   5.518   3.795
 4333TIP3    H112944   2.858   5.553   3.790
 4333TIP3    H212945   2.715   5.584   3.751
 4334TIP3   OH212946   4.696   0.595   6.532
 4334TIP3    H112947   4.784   0.616   6.564
 4334TIP3    H212948   4.699   0.619   6.439
 4335TIP3   OH212949   4.732   6.993   6.666
 4335TIP3    H112950   4.824   6.972   6.673
 4335TIP3    H212951   4.709   7.033   6.750
 4336TIP3   OH212952   0.188   3.372   5.695
 4336TIP3    H112953   0.241   3.452   5.690
 4336TIP3    H212954   0.218   3.330   5.776
 4337TIP3   OH212955   4.267   0.968   4.733
 4337TIP3    H112956   4.338   0.911   4.703
 4337TIP3    H212957   4.309   1.026   4.797
 4338TIP3   OH212958   0.790   5.824   3.659
 4338TIP3    H112959   0.768   5.790   3.572
 4338TIP3    H212960   0.813   5.916   3.644
 4339TIP3   OH212961   1.042   5.014   3.328
 4339TIP3    H112962   1.021   5.094   3.279
 4339TIP3    H212963   1.073   5.046   3.413
 4340TIP3   OH212964   3.093   5.593   4.518
 4340TIP3    H112965   3.037   5.573   4.444
 4340TIP3    H212966   3.105   5.688   4.514
 4341TIP3   OH212967   3.879   3.121   4.856
 4341TIP3    H112968   3.858   3.099   4.765
 4341TIP3    H212969   3.871   3.216   4.860
 4342TIP3   OH212970   3.235   1.462   5.199
 4342TIP3    H112971   3.318   1.422   5.173
 4342TIP3    H212972   3.237   1.548   5.159
 4343TIP3   OH212973   0.276   5.388   4.242
 4343TIP3    H112974   0.358   5.433   4.222
 4343TIP3    H212975   0.299   5.295   4.242
 4344TIP3   OH212976   6.941   1.083   4.098
 4344TIP3    H112977   6.860   1.082   4.047
 4344TIP3    H212978   6.920   1.134   4.176
 4345TIP3   OH212979   0.516   6.996   1.367
 4345TIP3    H112980   0.552   6.910   1.347
 4345TIP3    H212981   0.539   7.050   1.291
 4346TIP3   OH212982   5.304   6.788   2.800
 4346TIP3    H112983   5.338   6.814   2.714
 4346TIP3    H212984   5.347   6.704   2.818
 4347TIP3   OH212985   1.245   2.076   6.382
 4347TIP3    H112986   1.149   2.083   6.381
 4347TIP3    H212987   1.274   2.149   6.436
 4348TIP3   OH212988   6.482   5.734   0.838
 4348TIP3    H112989   6.458   5.664   0.899
 4348TIP3    H212990   6.422   5.805   0.858
 4349TIP3   OH212991   4.538   3.691   5.428
 4349TIP3    H112992   4.625   3.673   5.464
 4349TIP3    H212993   4.554   3.701   5.334
 4350TIP3   OH212994   4.649   7.820   1.400
 4350TIP3    H112995   4.595   7.805   1.478
 4350TIP3    H212996   4.670   7.732   1.369
 4351TIP3   OH212997   6.641   2.393   3.970
 4351TIP3    H112998   6.589   2.438   3.903
 4351TIP3    H212999   6.730   2.394   3.936
 4352TIP3   OH213000   4.703   0.348   3.333
 4352TIP3    H113001   4.701   0.254   3.321
 4352TIP3    H213002   4.611   0.376   3.324
 4353TIP3   OH213003   6.738   6.030   3.686
 4353TIP3    H113004   6.677   5.958   3.666
 4353TIP3    H213005   6.776   6.007   3.771
 4354TIP3   OH213006   7.124   0.437   3.646
 4354TIP3    H113007   7.186   0.506   3.619
 4354TIP3    H213008   7.116   0.448   3.741
 4355TIP3   OH213009   6.914   7.185   6.699
 4355TIP3    H113010   6.906   7.097   6.736
 4355TIP3    H213011   6.984   7.178   6.635
 4356TIP3   OH213012   4.557   0.853   5.897
 4356TIP3    H113013   4.556   0.914   5.824
 4356TIP3    H213014   4.650   0.842   5.918
 4357TIP3   OH213015   4.552   6.148   0.454
 4357TIP3    H113016   4.620   6.191   0.403
 4357TIP3    H213017   4.502   6.098   0.389
 4358TIP3   OH213018   8.132   4.602   2.936
 4358TIP3    H113019   8.096   4.691   2.944
 4358TIP3    H213020   8.121   4.581   2.843
 4359TIP3   OH213021   5.447   5.870   1.306
 4359TIP3    H113022   5.391   5.935   1.348
 4359TIP3    H213023   5.389   5.826   1.243
 4360TIP3   OH213024   6.820   4.178   1.569
 4360TIP3    H113025   6.823   4.096   1.520
 4360TIP3    H213026   6.852   4.244   1.507
 4361TIP3   OH213027   2.797   6.133   3.971
 4361TIP3    H113028   2.748   6.086   4.039
 4361TIP3    H213029   2.752   6.217   3.963
 4362TIP3   OH213030   2.550   7.381   5.641
 4362TIP3    H113031   2.582   7.470   5.627
 4362TIP3    H213032   2.609   7.345   5.707
 4363TIP3   OH213033   4.334   2.640   1.058
 4363TIP3    H113034   4.370   2.721   1.093
 4363TIP3    H213035   4.322   2.583   1.134
 4364TIP3   OH213036   7.403   5.705   2.343
 4364TIP3    H113037   7.372   5.654   2.418
 4364TIP3    H213038   7.354   5.787   2.349
 4365TIP3   OH213039   2.952   7.216   1.482
 4365TIP3    H113040   2.863   7.244   1.506
 4365TIP3    H213041   2.990   7.184   1.564
 4366TIP3   OH213042   0.096   4.522   5.816
 4366TIP3    H113043   0.086   4.531   5.910
 4366TIP3    H213044   0.085   4.428   5.799
 4367TIP3   OH213045   6.836   5.206   2.372
 4367TIP3    H113046   6.755   5.180   2.415
 4367TIP3    H213047   6.873   5.273   2.430
 4368TIP3   OH213048   2.249   2.198   2.681
 4368TIP3    H113049   2.213   2.160   2.761
 4368TIP3    H213050   2.292   2.125   2.637
 4369TIP3   OH213051   1.670   0.765   6.353
 4369TIP3    H113052   1.722   0.688   6.333
 4369TIP3    H213053   1.670   0.816   6.272
 4370TIP3   OH213054   7.155   4.467   4.326
 4370TIP3    H113055   7.183   4.553   4.357
 4370TIP3    H213056   7.217   4.406   4.366
 4371TIP3   OH213057   0.297   2.667   1.666
 4371TIP3    H113058   0.367   2.714   1.622
 4371TIP3    H213059   0.333   2.580   1.682
 4372TIP3   OH213060   0.324   6.917   4.103
 4372TIP3    H113061   0.396   6.871   4.146
 4372TIP3    H213062   0.357   6.938   4.016
 4373TIP3   OH213063   0.103   2.301   3.537
 4373TIP3    H113064   0.125   2.248   3.460
 4373TIP3    H213065   0.024   2.260   3.572
 4374TIP3   OH213066   6.522   1.253   0.498
 4374TIP3    H113067   6.585   1.324   0.497
 4374TIP3    H213068   6.520   1.224   0.590
 4375TIP3   OH213069   1.543   6.011   6.722
 4375TIP3    H113070   1.606   6.061   6.775
 4375TIP3    H213071   1.590   5.992   6.641
 4376TIP3   OH213072   2.119   2.131   3.461
 4376TIP3    H113073   2.059   2.120   3.388
 4376TIP3    H213074   2.080   2.202   3.513
 4377TIP3   OH213075   5.461   2.397   0.348
 4377TIP3    H113076   5.481   2.444   0.268
 4377TIP3    H213077   5.510   2.315   0.342
 4378TIP3   OH213078   1.638   7.550   2.176
 4378TIP3    H113079   1.654   7.514   2.263
 4378TIP3    H213080   1.551   7.589   2.182
 4379TIP3   OH213081   6.281   5.332   1.236
 4379TIP3    H113082   6.284   5.245   1.278
 4379TIP3    H213083   6.328   5.319   1.154
 4380TIP3   OH213084   8.198   1.455   1.788
 4380TIP3    H113085   8.253   1.444   1.865
 4380TIP3    H213086   8.183   1.549   1.782
 4381TIP3   OH213087   1.311   1.002   1.095
 4381TIP3    H113088   1.268   0.990   1.010
 4381TIP3    H213089   1.240   1.018   1.156
 4382TIP3   OH213090   0.131   0.590   5.029
 4382TIP3    H113091   0.084   0.589   4.945
 4382TIP3    H213092   0.129   0.498   5.058
 4383TIP3   OH213093   5.072   7.567   3.839
 4383TIP3    H113094   5.160   7.556   3.804
 4383TIP3    H213095   5.034   7.479   3.840
 4384TIP3   OH213096   7.429   1.598   4.149
 4384TIP3    H113097   7.386   1.514   4.132
 4384TIP3    H213098   7.379   1.637   4.221
 4385TIP3   OH213099   5.974   0.161   4.610
 4385TIP3    H113100   5.892   0.207   4.627
 4385TIP3    H213101   5.949   0.069   4.599
 4386TIP3   OH213102   7.485   4.099   1.213
 4386TIP3    H113103   7.571   4.137   1.196
 4386TIP3    H213104   7.438   4.167   1.261
 4387TIP3   OH213105   2.354   0.294   2.976
 4387TIP3    H113106   2.447   0.274   2.982
 4387TIP3    H213107   2.311   0.212   3.000
 4388TIP3   OH213108   3.697   2.704   2.815
 4388TIP3    H113109   3.706   2.793   2.780
 4388TIP3    H213110   3.779   2.660   2.790
 4389TIP3   OH213111   4.138   3.273   3.868
 4389TIP3    H113112   4.135   3.256   3.962
 4389TIP3    H213113   4.183   3.357   3.860
 4390TIP3   OH213114   7.290   0.513   6.546
 4390TIP3    H113115   7.197   0.531   6.532
 4390TIP3    H213116   7.303   0.525   6.640
 4391TIP3   OH213117   7.851   4.088   5.183
 4391TIP3    H113118   7.941   4.115   5.163
 4391TIP3    H213119   7.836   4.118   5.273
 4392TIP3   OH213120   5.510   0.733   3.751
 4392TIP3    H113121   5.599   0.753   3.722
 4392TIP3    H213122   5.510   0.639   3.767
 4393TIP3   OH213123   5.893   2.397   1.828
 4393TIP3    H113124   5.853   2.356   1.904
 4393TIP3    H213125   5.883   2.333   1.757
 4394TIP3   OH213126   7.258   4.918   2.924
 4394TIP3    H113127   7.315   4.969   2.981
 4394TIP3    H213128   7.292   4.829   2.930
 4395TIP3   OH213129   2.645   5.770   6.160
 4395TIP3    H113130   2.591   5.697   6.192
 4395TIP3    H213131   2.700   5.731   6.092
 4396TIP3   OH213132   4.532   5.339   6.231
 4396TIP3    H113133   4.501   5.392   6.158
 4396TIP3    H213134   4.453   5.316   6.279
 4397TIP3   OH213135   4.002   2.220   0.447
 4397TIP3    H113136   4.028   2.170   0.370
 4397TIP3    H213137   4.026   2.165   0.521
 4398TIP3   OH213138   5.150   6.246   2.641
 4398TIP3    H113139   5.058   6.233   2.662
 4398TIP3    H213140   5.155   6.238   2.546
 4399TIP3   OH213141   0.994   1.993   3.189
 4399TIP3    H113142   1.042   1.989   3.106
 4399TIP3    H213143   0.902   1.983   3.164
 4400TIP3   OH213144   2.694   7.375   2.695
 4400TIP3    H113145   2.784   7.368   2.664
 4400TIP3    H213146   2.656   7.288   2.678
 4401TIP3   OH213147   4.362   5.247   5.896
 4401TIP3    H113148   4.305   5.188   5.945
 4401TIP3    H213149   4.450   5.222   5.922
 4402TIP3   OH213150   4.476   2.726   5.365
 4402TIP3    H113151   4.502   2.720   5.457
 4402TIP3    H213152   4.508   2.811   5.336
 4403TIP3   OH213153   2.496   1.462   0.836
 4403TIP3    H113154   2.424   1.525   0.828
 4403TIP3    H213155   2.463   1.383   0.793
 4404TIP3   OH213156   3.918   7.172   3.381
 4404TIP3    H113157   3.967   7.201   3.458
 4404TIP3    H213158   3.842   7.126   3.417
 4405TIP3   OH213159   3.522   0.642   2.092
 4405TIP3    H113160   3.604   0.618   2.134
 4405TIP3    H213161   3.543   0.648   1.999
 4406TIP3   OH213162   5.510   1.600   1.390
 4406TIP3    H113163   5.586   1.658   1.389
 4406TIP3    H213164   5.468   1.617   1.474
 4407TIP3   OH213165   6.414   3.926   0.304
 4407TIP3    H113166   6.417   3.970   0.389
 4407TIP3    H213167   6.450   3.991   0.243
 4408TIP3   OH213168   1.895   2.941   2.701
 4408TIP3    H113169   1.864   3.020   2.745
 4408TIP3    H213170   1.988   2.936   2.723
 4409TIP3   OH213171   0.902   1.677   3.166
 4409TIP3    H113172   0.830   1.706   3.109
 4409TIP3    H213173   0.898   1.736   3.241
 4410TIP3   OH213174   8.058   4.318   5.267
 4410TIP3    H113175   8.088   4.227   5.266
 4410TIP3    H213176   8.138   4.369   5.279
 4411TIP3   OH213177   2.743   3.113   6.730
 4411TIP3    H113178   2.712   3.203   6.717
 4411TIP3    H213179   2.835   3.116   6.703
 4412TIP3   OH213180   0.297   0.449   6.091
 4412TIP3    H113181   0.384   0.488   6.096
 4412TIP3    H213182   0.238   0.523   6.079
 4413TIP3   OH213183   1.443   4.638   4.956
 4413TIP3    H113184   1.402   4.574   4.898
 4413TIP3    H213185   1.493   4.695   4.897
 4414TIP3   OH213186   6.867   6.056   3.241
 4414TIP3    H113187   6.830   6.139   3.211
 4414TIP3    H213188   6.792   6.008   3.276
 4415TIP3   OH213189   5.071   5.566   3.296
 4415TIP3    H113190   5.103   5.652   3.272
 4415TIP3    H213191   4.976   5.573   3.294
 4416TIP3   OH213192   5.598   6.812   3.098
 4416TIP3    H113193   5.658   6.836   3.168
 4416TIP3    H213194   5.650   6.815   3.018
 4417TIP3   OH213195   5.664   7.362   4.868
 4417TIP3    H113196   5.675   7.431   4.933
 4417TIP3    H213197   5.622   7.291   4.916
 4418TIP3   OH213198   4.637   0.080   5.309
 4418TIP3    H113199   4.627   0.161   5.260
 4418TIP3    H213200   4.672   0.106   5.394
 4419TIP3   OH213201   3.216   0.415   3.257
 4419TIP3    H113202   3.218   0.511   3.247
 4419TIP3    H213203   3.301   0.394   3.297
 4420TIP3   OH213204   4.731   3.122   1.426
 4420TIP3    H113205   4.650   3.170   1.416
 4420TIP3    H213206   4.719   3.071   1.506
 4421TIP3   OH213207   2.892   3.864   1.352
 4421TIP3    H113208   2.851   3.864   1.265
 4421TIP3    H213209   2.948   3.941   1.352
 4422TIP3   OH213210   2.630   3.353   6.649
 4422TIP3    H113211   2.662   3.442   6.661
 4422TIP3    H213212   2.679   3.320   6.573
 4423TIP3   OH213213   5.101   3.629   0.747
 4423TIP3    H113214   5.193   3.609   0.730
 4423TIP3    H213215   5.057   3.545   0.744
 4424TIP3   OH213216   7.567   0.224   5.073
 4424TIP3    H113217   7.618   0.154   5.112
 4424TIP3    H213218   7.557   0.289   5.143
 4425TIP3   OH213219   0.274   1.695   2.273
 4425TIP3    H113220   0.255   1.771   2.218
 4425TIP3    H213221   0.246   1.722   2.361
 4426TIP3   OH213222   4.733   5.533   5.976
 4426TIP3    H113223   4.771   5.446   5.967
 4426TIP3    H213224   4.639   5.519   5.970
 4427TIP3   OH213225   0.343   3.442   4.796
 4427TIP3    H113226   0.342   3.354   4.757
 4427TIP3    H213227   0.261   3.446   4.846
 4428TIP3   OH213228   6.687   7.536   1.929
 4428TIP3    H113229   6.666   7.613   1.877
 4428TIP3    H213230   6.757   7.492   1.882
 4429TIP3   OH213231   2.130   1.577   6.019
 4429TIP3    H113232   2.045   1.608   5.987
 4429TIP3    H213233   2.112   1.543   6.106
 4430TIP3   OH213234   0.527   0.896   0.076
 4430TIP3    H113235   0.483   0.815   0.050
 4430TIP3    H213236   0.507   0.905   0.169
 4431TIP3   OH213237   4.706   4.321   6.709
 4431TIP3    H113238   4.771   4.264   6.749
 4431TIP3    H213239   4.623   4.276   6.723
 4432TIP3   OH213240   2.543   5.280   2.776
 4432TIP3    H113241   2.561   5.374   2.774
 4432TIP3    H213242   2.457   5.274   2.818
 4433TIP3   OH213243   5.963   4.935   5.501
 4433TIP3    H113244   5.987   4.860   5.447
 4433TIP3    H213245   5.945   5.005   5.439
 4434TIP3   OH213246   1.673   3.187   4.421
 4434TIP3    H113247   1.700   3.152   4.336
 4434TIP3    H213248   1.695   3.280   4.417
 4435TIP3   OH213249   4.111   0.068   0.668
 4435TIP3    H113250   4.167   0.131   0.712
 4435TIP3    H213251   4.123  -0.014   0.716
 4436TIP3   OH213252   1.575   5.636   6.674
 4436TIP3    H113253   1.492   5.596   6.647
 4436TIP3    H213254   1.643   5.579   6.639
 4437TIP3   OH213255   2.700   7.678   4.244
 4437TIP3    H113256   2.642   7.604   4.226
 4437TIP3    H213257   2.771   7.669   4.181
 4438TIP3   OH213258   3.314   5.912   5.366
 4438TIP3    H113259   3.374   5.948   5.300
 4438TIP3    H213260   3.305   5.820   5.343
 4439TIP3   OH213261   3.484   5.532   2.892
 4439TIP3    H113262   3.406   5.581   2.865
 4439TIP3    H213263   3.523   5.501   2.811
 4440TIP3   OH213264   0.095   6.420   5.583
 4440TIP3    H113265   0.046   6.360   5.638
 4440TIP3    H213266   0.029   6.472   5.537
 4441TIP3   OH213267   5.843   1.832   4.045
 4441TIP3    H113268   5.804   1.854   4.130
 4441TIP3    H213269   5.784   1.765   4.009
 4442TIP3   OH213270   1.535   7.590   3.094
 4442TIP3    H113271   1.541   7.527   3.022
 4442TIP3    H213272   1.510   7.537   3.170
 4443TIP3   OH213273   7.289   1.823   5.762
 4443TIP3    H113274   7.218   1.879   5.793
 4443TIP3    H213275   7.246   1.762   5.702
 4444TIP3   OH213276   3.257   0.693   3.256
 4444TIP3    H113277   3.179   0.745   3.238
 4444TIP3    H213278   3.331   0.749   3.230
 4445TIP3   OH213279   3.676   5.455   5.569
 4445TIP3    H113280   3.600   5.416   5.527
 4445TIP3    H213281   3.741   5.385   5.572
 4446TIP3   OH213282   5.191   6.877   6.517
 4446TIP3    H113283   5.246   6.871   6.595
 4446TIP3    H213284   5.206   6.967   6.485
 4447TIP3   OH213285   6.206   4.400   1.059
 4447TIP3    H113286   6.237   4.320   1.015
 4447TIP3    H213287   6.133   4.430   1.004
 4448TIP3   OH213288   3.625   4.275   3.845
 4448TIP3    H113289   3.595   4.190   3.812
 4448TIP3    H213290   3.566   4.338   3.804
 4449TIP3   OH213291   4.515   6.746   3.949
 4449TIP3    H113292   4.533   6.835   3.918
 4449TIP3    H213293   4.537   6.748   4.043
 4450TIP3   OH213294   5.246   0.575   2.372
 4450TIP3    H113295   5.325   0.527   2.348
 4450TIP3    H213296   5.277   0.647   2.427
 4451TIP3   OH213297   4.914   7.369   3.449
 4451TIP3    H113298   4.820   7.360   3.432
 4451TIP3    H213299   4.955   7.317   3.380
 4452TIP3   OH213300   8.130   0.746   5.591
 4452TIP3    H113301   8.225   0.749   5.605
 4452TIP3    H213302   8.116   0.670   5.535
 4453TIP3   OH213303   1.025   5.248   1.421
 4453TIP3    H113304   0.944   5.288   1.388
 4453TIP3    H213305   1.062   5.314   1.480
 4454TIP3   OH213306   6.919   6.583   5.616
 4454TIP3    H113307   6.926   6.596   5.522
 4454TIP3    H213308   6.868   6.657   5.647
 4455TIP3   OH213309   8.095   6.830   5.623
 4455TIP3    H113310   8.186   6.858   5.614
 4455TIP3    H213311   8.063   6.877   5.700
 4456TIP3   OH213312   4.407   5.481   1.879
 4456TIP3    H113313   4.468   5.531   1.933
 4456TIP3    H213314   4.455   5.401   1.858
 4457TIP3   OH213315   6.307   6.714   0.778
 4457TIP3    H113316   6.224   6.761   0.769
 4457TIP3    H213317   6.373   6.777   0.750
 4458TIP3   OH213318   4.388   1.476   2.799
 4458TIP3    H113319   4.348   1.434   2.876
 4458TIP3    H213320   4.465   1.521   2.832
 4459TIP3   OH213321   7.273   7.655   4.921
 4459TIP3    H113322   7.185   7.674   4.889
 4459TIP3    H213323   7.270   7.563   4.948
 4460TIP3   OH213324   2.285   6.706   4.066
 4460TIP3    H113325   2.367   6.737   4.104
 4460TIP3    H213326   2.287   6.611   4.077
 4461TIP3   OH213327   1.788   6.264   4.443
 4461TIP3    H113328   1.844   6.332   4.481
 4461TIP3    H213329   1.709   6.310   4.416
 4462TIP3   OH213330   0.339   0.368   5.127
 4462TIP3    H113331   0.419   0.418   5.143
 4462TIP3    H213332   0.281   0.392   5.199
 4463TIP3   OH213333   0.625   1.709   3.097
 4463TIP3    H113334   0.593   1.741   3.182
 4463TIP3    H213335   0.560   1.741   3.034
 4464TIP3   OH213336   0.611   3.873   3.452
 4464TIP3    H113337   0.623   3.779   3.464
 4464TIP3    H213338   0.517   3.887   3.468
 4465TIP3   OH213339   8.236   2.424   5.217
 4465TIP3    H113340   8.211   2.517   5.220
 4465TIP3    H213341   8.170   2.384   5.161
 4466TIP3   OH213342   4.353   5.829   4.296
 4466TIP3    H113343   4.282   5.788   4.247
 4466TIP3    H213344   4.366   5.914   4.254
 4467TIP3   OH213345   0.165   0.102   2.881
 4467TIP3    H113346   0.151   0.105   2.976
 4467TIP3    H213347   0.077   0.096   2.844
 4468TIP3   OH213348   4.481   4.503   5.486
 4468TIP3    H113349   4.513   4.570   5.547
 4468TIP3    H213350   4.405   4.544   5.445
 4469TIP3   OH213351   3.928   3.575   1.895
 4469TIP3    H113352   3.943   3.585   1.989
 4469TIP3    H213353   3.969   3.492   1.873
 4470TIP3   OH213354   0.951   0.850   4.204
 4470TIP3    H113355   0.936   0.779   4.266
 4470TIP3    H213356   0.874   0.849   4.147
 4471TIP3   OH213357   1.483   6.826   1.064
 4471TIP3    H113358   1.476   6.786   1.150
 4471TIP3    H213359   1.442   6.912   1.072
 4472TIP3   OH213360   7.182   1.173   0.422
 4472TIP3    H113361   7.192   1.186   0.328
 4472TIP3    H213362   7.089   1.185   0.438
 4473TIP3   OH213363   3.222   4.698   5.444
 4473TIP3    H113364   3.172   4.777   5.467
 4473TIP3    H213365   3.156   4.629   5.439
 4474TIP3   OH213366   0.459   5.003   2.564
 4474TIP3    H113367   0.515   4.955   2.625
 4474TIP3    H213368   0.374   5.006   2.608
 4475TIP3   OH213369   3.131   0.295   3.812
 4475TIP3    H113370   3.187   0.252   3.748
 4475TIP3    H213371   3.043   0.289   3.776
 4476TIP3   OH213372   1.240   4.584   5.166
 4476TIP3    H113373   1.289   4.629   5.098
 4476TIP3    H213374   1.153   4.570   5.128
 4477TIP3   OH213375   6.112   3.876   6.433
 4477TIP3    H113376   6.153   3.810   6.489
 4477TIP3    H213377   6.138   3.960   6.472
 4478TIP3   OH213378   0.447   3.884   6.330
 4478TIP3    H113379   0.450   3.849   6.241
 4478TIP3    H213380   0.453   3.979   6.320
 4479TIP3   OH213381   7.282   2.512   5.317
 4479TIP3    H113382   7.195   2.515   5.276
 4479TIP3    H213383   7.284   2.428   5.362
 4480TIP3   OH213384   7.699   1.788   2.927
 4480TIP3    H113385   7.607   1.814   2.927
 4480TIP3    H213386   7.740   1.843   2.994
 4481TIP3   OH213387   2.804   6.030   1.776
 4481TIP3    H113388   2.759   6.095   1.722
 4481TIP3    H213389   2.871   6.080   1.823
 4482TIP3   OH213390   6.399   7.061   3.054
 4482TIP3    H113391   6.329   7.037   3.114
 4482TIP3    H213392   6.479   7.025   3.093
 4483TIP3   OH213393   7.063   6.724   3.315
 4483TIP3    H113394   7.057   6.639   3.271
 4483TIP3    H213395   7.151   6.725   3.353
 4484TIP3   OH213396   6.006   4.460   5.991
 4484TIP3    H113397   6.055   4.480   5.911
 4484TIP3    H213398   5.976   4.369   5.979
 4485TIP3   OH213399   5.642   6.776   2.434
 4485TIP3    H113400   5.560   6.728   2.424
 4485TIP3    H213401   5.633   6.824   2.516
 4486TIP3   OH213402   1.016   2.899   0.566
 4486TIP3    H113403   0.980   2.977   0.609
 4486TIP3    H213404   1.036   2.839   0.638
 4487TIP3   OH213405   2.227   1.164   5.056
 4487TIP3    H113406   2.250   1.255   5.073
 4487TIP3    H213407   2.193   1.164   4.966
 4488TIP3   OH213408   1.834   2.507   1.901
 4488TIP3    H113409   1.788   2.591   1.900
 4488TIP3    H213410   1.829   2.476   1.810
 4489TIP3   OH213411   0.328   2.916   0.463
 4489TIP3    H113412   0.413   2.898   0.422
 4489TIP3    H213413   0.322   3.011   0.465
 4490TIP3   OH213414   3.729   0.565   2.288
 4490TIP3    H113415   3.727   0.472   2.264
 4490TIP3    H213416   3.772   0.566   2.374
 4491TIP3   OH213417   3.198   4.347   6.321
 4491TIP3    H113418   3.263   4.279   6.303
 4491TIP3    H213419   3.114   4.302   6.319
 4492TIP3   OH213420   7.827   6.305   1.298
 4492TIP3    H113421   7.826   6.302   1.202
 4492TIP3    H213422   7.819   6.214   1.325
 4493TIP3   OH213423   5.124   5.179   5.075
 4493TIP3    H113424   5.081   5.251   5.029
 4493TIP3    H213425   5.106   5.196   5.167
 4494TIP3   OH213426   5.259   3.809   3.681
 4494TIP3    H113427   5.291   3.764   3.603
 4494TIP3    H213428   5.311   3.889   3.686
 4495TIP3   OH213429   3.025   6.971   0.252
 4495TIP3    H113430   2.972   6.904   0.208
 4495TIP3    H213431   3.021   7.047   0.194
 4496TIP3   OH213432   1.654   3.995   4.248
 4496TIP3    H113433   1.566   3.958   4.257
 4496TIP3    H213434   1.700   3.933   4.190
 4497TIP3   OH213435   6.615   3.344   0.883
 4497TIP3    H113436   6.572   3.343   0.968
 4497TIP3    H213437   6.664   3.426   0.881
 4498TIP3   OH213438   1.590   3.592   0.572
 4498TIP3    H113439   1.534   3.622   0.500
 4498TIP3    H213440   1.648   3.528   0.533
 4499TIP3   OH213441   7.338   7.039   0.641
 4499TIP3    H113442   7.264   7.097   0.658
 4499TIP3    H213443   7.408   7.098   0.613
 4500TIP3   OH213444   6.263   3.880   2.619
 4500TIP3    H113445   6.299   3.969   2.625
 4500TIP3    H213446   6.237   3.859   2.709
 4501TIP3   OH213447   7.029   2.128   3.922
 4501TIP3    H113448   7.102   2.075   3.954
 4501TIP3    H213449   6.974   2.144   3.999
 4502TIP3   OH213450   3.844   7.194   1.056
 4502TIP3    H113451   3.825   7.136   0.983
 4502TIP3    H213452   3.793   7.158   1.129
 4503TIP3   OH213453   2.951   4.315   3.457
 4503TIP3    H113454   2.867   4.284   3.425
 4503TIP3    H213455   2.953   4.408   3.433
 4504TIP3   OH213456   3.331   2.638   4.946
 4504TIP3    H113457   3.394   2.581   4.902
 4504TIP3    H213458   3.261   2.578   4.974
 4505TIP3   OH213459   0.290   6.149   6.013
 4505TIP3    H113460   0.347   6.159   6.089
 4505TIP3    H213461   0.321   6.069   5.971
 4506TIP3   OH213462   4.746   5.904   4.028
 4506TIP3    H113463   4.826   5.860   4.056
 4506TIP3    H213464   4.776   5.984   3.986
 4507TIP3   OH213465   7.593   3.810   1.280
 4507TIP3    H113466   7.554   3.883   1.328
 4507TIP3    H213467   7.584   3.835   1.188
 4508TIP3   OH213468   5.668   5.711   2.978
 4508TIP3    H113469   5.758   5.711   3.011
 4508TIP3    H213470   5.617   5.755   3.047
 4509TIP3   OH213471   2.103   3.403   1.260
 4509TIP3    H113472   2.070   3.470   1.320
 4509TIP3    H213473   2.154   3.344   1.315
 4510TIP3   OH213474   6.271   4.235   4.152
 4510TIP3    H113475   6.290   4.174   4.080
 4510TIP3    H213476   6.357   4.269   4.177
 4511TIP3   OH213477   7.794   3.978   3.381
 4511TIP3    H113478   7.707   4.012   3.360
 4511TIP3    H213479   7.840   4.052   3.420
 4512TIP3   OH213480   5.501   7.423   6.293
 4512TIP3    H113481   5.504   7.517   6.271
 4512TIP3    H213482   5.461   7.420   6.379
 4513TIP3   OH213483   6.035   5.794   0.351
 4513TIP3    H113484   6.125   5.762   0.343
 4513TIP3    H213485   6.008   5.768   0.439
 4514TIP3   OH213486   5.055   5.706   5.310
 4514TIP3    H113487   5.017   5.722   5.223
 4514TIP3    H213488   4.986   5.658   5.357
 4515TIP3   OH213489   4.329   3.547   3.387
 4515TIP3    H113490   4.354   3.502   3.467
 4515TIP3    H213491   4.259   3.607   3.414
 4516TIP3   OH213492   4.948   7.394   0.135
 4516TIP3    H113493   4.911   7.481   0.155
 4516TIP3    H213494   5.028   7.412   0.086
 4517TIP3   OH213495   7.221   5.891   2.848
 4517TIP3    H113496   7.188   5.906   2.936
 4517TIP3    H213497   7.247   5.978   2.817
 4518TIP3   OH213498   4.409   7.395   5.296
 4518TIP3    H113499   4.399   7.317   5.242
 4518TIP3    H213500   4.356   7.462   5.252
 4519TIP3   OH213501   7.001   4.288   2.364
 4519TIP3    H113502   7.064   4.289   2.436
 4519TIP3    H213503   6.945   4.213   2.383
 4520TIP3   OH213504   7.030   1.666   3.523
 4520TIP3    H113505   7.088   1.673   3.447
 4520TIP3    H213506   6.965   1.601   3.498
 4521TIP3   OH213507   0.156   2.124   6.749
 4521TIP3    H113508   0.087   2.177   6.789
 4521TIP3    H213509   0.131   2.118   6.657
 4522TIP3   OH213510   1.472   2.834   2.510
 4522TIP3    H113511   1.477   2.881   2.593
 4522TIP3    H213512   1.414   2.887   2.456
 4523TIP3   OH213513   1.977   5.061   3.854
 4523TIP3    H113514   2.030   5.130   3.815
 4523TIP3    H213515   2.035   4.985   3.857
 4524TIP3   OH213516   0.084   0.204   1.122
 4524TIP3    H113517   0.009   0.263   1.137
 4524TIP3    H213518   0.161   0.259   1.137
 4525TIP3   OH213519   6.875   2.100   4.669
 4525TIP3    H113520   6.941   2.031   4.668
 4525TIP3    H213521   6.886   2.144   4.753
 4526TIP3   OH213522   1.420   6.748   2.691
 4526TIP3    H113523   1.499   6.695   2.702
 4526TIP3    H213524   1.431   6.820   2.752
 4527TIP3   OH213525   5.639   2.555   5.714
 4527TIP3    H113526   5.599   2.642   5.709
 4527TIP3    H213527   5.686   2.555   5.797
 4528TIP3   OH213528   4.986   1.834   4.531
 4528TIP3    H113529   5.048   1.895   4.490
 4528TIP3    H213530   4.973   1.766   4.465
 4529TIP3   OH213531   0.539   3.982   4.339
 4529TIP3    H113532   0.485   3.976   4.260
 4529TIP3    H213533   0.523   3.900   4.385
 4530TIP3   OH213534   2.670   7.781   4.522
 4530TIP3    H113535   2.694   7.750   4.434
 4530TIP3    H213536   2.590   7.733   4.544
 4531TIP3   OH213537   8.220   7.265   4.461
 4531TIP3    H113538   8.296   7.223   4.421
 4531TIP3    H213539   8.166   7.292   4.387
 4532TIP3   OH213540   5.765   3.743   2.116
 4532TIP3    H113541   5.802   3.705   2.195
 4532TIP3    H213542   5.756   3.836   2.136
 4533TIP3   OH213543   4.055   2.812  -0.018
 4533TIP3    H113544   4.043   2.809   0.077
 4533TIP3    H213545   4.128   2.753  -0.035
 4534TIP3   OH213546   6.893   5.360   0.698
 4534TIP3    H113547   6.851   5.330   0.778
 4534TIP3    H213548   6.836   5.330   0.628
 4535TIP3   OH213549   7.752   7.054   5.193
 4535TIP3    H113550   7.687   6.996   5.153
 4535TIP3    H213551   7.835   7.009   5.179
 4536TIP3   OH213552   5.403   7.556   0.583
 4536TIP3    H113553   5.341   7.570   0.510
 4536TIP3    H213554   5.348   7.563   0.661
 4537TIP3   OH213555   3.598   2.923   0.554
 4537TIP3    H113556   3.629   2.882   0.635
 4537TIP3    H213557   3.582   2.850   0.495
 4538TIP3   OH213558   2.520   0.999   6.723
 4538TIP3    H113559   2.504   1.024   6.814
 4538TIP3    H213560   2.469   1.062   6.672
 4539TIP3   OH213561   5.858   4.698   6.109
 4539TIP3    H113562   5.871   4.603   6.111
 4539TIP3    H213563   5.849   4.723   6.200
 4540TIP3   OH213564   6.792   6.968   0.924
 4540TIP3    H113565   6.883   6.938   0.922
 4540TIP3    H213566   6.792   7.046   0.868
 4541TIP3   OH213567   8.067   0.479   5.417
 4541TIP3    H113568   8.117   0.401   5.392
 4541TIP3    H213569   8.042   0.518   5.333
 4542TIP3   OH213570   4.170   3.281   6.132
 4542TIP3    H113571   4.230   3.338   6.084
 4542TIP3    H213572   4.121   3.341   6.189
 4543TIP3   OH213573   0.968   1.730   4.550
 4543TIP3    H113574   0.906   1.723   4.623
 4543TIP3    H213575   0.943   1.810   4.504
 4544TIP3   OH213576   2.920   0.936   1.293
 4544TIP3    H113577   2.908   0.860   1.237
 4544TIP3    H213578   2.836   0.945   1.339
 4545TIP3   OH213579   7.776   2.496   6.593
 4545TIP3    H113580   7.807   2.578   6.554
 4545TIP3    H213581   7.693   2.479   6.548
 4546TIP3   OH213582   0.313   0.432   4.282
 4546TIP3    H113583   0.331   0.386   4.364
 4546TIP3    H213584   0.279   0.517   4.310
 4547TIP3   OH213585   3.725   5.935   3.783
 4547TIP3    H113586   3.817   5.914   3.766
 4547TIP3    H213587   3.719   5.939   3.878
 4548TIP3   OH213588   7.210   0.881   2.568
 4548TIP3    H113589   7.250   0.848   2.648
 4548TIP3    H213590   7.121   0.907   2.594
 4549TIP3   OH213591   4.020   3.817   0.681
 4549TIP3    H113592   3.925   3.833   0.681
 4549TIP3    H213593   4.047   3.836   0.771
 4550TIP3   OH213594   0.112   4.180   4.167
 4550TIP3    H113595   0.082   4.094   4.196
 4550TIP3    H213596   0.206   4.180   4.186
 4551TIP3   OH213597   1.685   7.329   6.570
 4551TIP3    H113598   1.623   7.334   6.497
 4551TIP3    H213599   1.643   7.271   6.632
 4552TIP3   OH213600   4.155   2.445   6.556
 4552TIP3    H113601   4.191   2.468   6.471
 4552TIP3    H213602   4.228   2.402   6.602
 4553TIP3   OH213603   1.167   0.978   3.279
 4553TIP3    H113604   1.111   0.927   3.221
 4553TIP3    H213605   1.240   0.919   3.300
 4554TIP3   OH213606   4.253   6.034   6.433
 4554TIP3    H113607   4.230   6.100   6.498
 4554TIP3    H213608   4.305   5.970   6.480
 4555TIP3   OH213609   4.979   4.234   6.165
 4555TIP3    H113610   5.039   4.174   6.121
 4555TIP3    H213611   5.014   4.321   6.146
 4556TIP3   OH213612   2.728   6.166   4.796
 4556TIP3    H113613   2.791   6.130   4.734
 4556TIP3    H213614   2.775   6.234   4.843
 4557TIP3   OH213615   4.163   4.072   3.854
 4557TIP3    H113616   4.257   4.070   3.838
 4557TIP3    H213617   4.154   4.104   3.944
 4558TIP3   OH213618   3.161   2.557   5.692
 4558TIP3    H113619   3.161   2.522   5.603
 4558TIP3    H213620   3.074   2.595   5.703
 4559TIP3   OH213621   3.448   1.104   0.058
 4559TIP3    H113622   3.502   1.058  -0.007
 4559TIP3    H213623   3.492   1.188   0.070
 4560TIP3   OH213624   3.744   3.758   1.976
 4560TIP3    H113625   3.735   3.813   1.898
 4560TIP3    H213626   3.756   3.669   1.941
 4561TIP3   OH213627   3.297   5.408   0.267
 4561TIP3    H113628   3.331   5.492   0.295
 4561TIP3    H213629   3.212   5.428   0.227
 4562TIP3   OH213630   3.091   2.433   3.024
 4562TIP3    H113631   3.109   2.425   2.931
 4562TIP3    H213632   3.040   2.354   3.046
 4563TIP3   OH213633   7.177   7.183   5.580
 4563TIP3    H113634   7.224   7.233   5.514
 4563TIP3    H213635   7.095   7.231   5.593
 4564TIP3   OH213636   5.415   2.016   3.531
 4564TIP3    H113637   5.380   1.983   3.614
 4564TIP3    H213638   5.342   2.013   3.470
 4565TIP3   OH213639   4.712   4.931   6.427
 4565TIP3    H113640   4.773   4.989   6.381
 4565TIP3    H213641   4.630   4.939   6.378
 4566TIP3   OH213642   0.639   6.638   2.987
 4566TIP3    H113643   0.704   6.701   2.955
 4566TIP3    H213644   0.689   6.578   3.042
 4567TIP3   OH213645   1.307   7.694   5.256
 4567TIP3    H113646   1.274   7.614   5.215
 4567TIP3    H213647   1.265   7.764   5.207
 4568TIP3   OH213648   2.805   4.083   6.570
 4568TIP3    H113649   2.746   4.141   6.523
 4568TIP3    H213650   2.860   4.044   6.502
 4569TIP3   OH213651   1.987   1.719   0.821
 4569TIP3    H113652   1.991   1.774   0.743
 4569TIP3    H213653   2.028   1.773   0.890
 4570TIP3   OH213654   3.074   7.033   0.777
 4570TIP3    H113655   3.143   7.094   0.754
 4570TIP3    H213656   3.017   7.082   0.836
 4571TIP3   OH213657   5.130   2.766   1.106
 4571TIP3    H113658   5.046   2.730   1.079
 4571TIP3    H213659   5.123   2.860   1.087
 4572TIP3   OH213660   2.988   3.252   1.660
 4572TIP3    H113661   2.968   3.167   1.620
 4572TIP3    H213662   3.073   3.276   1.624
 4573TIP3   OH213663   1.039   2.665   0.302
 4573TIP3    H113664   1.018   2.574   0.324
 4573TIP3    H213665   1.070   2.661   0.212
 4574TIP3   OH213666   8.245   5.043   2.393
 4574TIP3    H113667   8.252   5.119   2.450
 4574TIP3    H213668   8.224   4.971   2.452
 4575TIP3   OH213669   5.366   2.215   4.834
 4575TIP3    H113670   5.372   2.266   4.915
 4575TIP3    H213671   5.338   2.128   4.862
 4576TIP3   OH213672   5.280   4.306   3.739
 4576TIP3    H113673   5.209   4.250   3.772
 4576TIP3    H213674   5.302   4.363   3.813
 4577TIP3   OH213675   4.508   1.573   3.659
 4577TIP3    H113676   4.442   1.517   3.700
 4577TIP3    H213677   4.458   1.648   3.625
 4578TIP3   OH213678   5.758   4.032   6.327
 4578TIP3    H113679   5.793   3.992   6.248
 4578TIP3    H213680   5.800   4.118   6.330
 4579TIP3   OH213681   3.839   1.636   1.665
 4579TIP3    H113682   3.884   1.554   1.647
 4579TIP3    H213683   3.906   1.693   1.703
 4580TIP3   OH213684   5.852   2.488   0.051
 4580TIP3    H113685   5.826   2.547  -0.020
 4580TIP3    H213686   5.923   2.435   0.014
 4581TIP3   OH213687   7.429   1.251   5.049
 4581TIP3    H113688   7.467   1.189   4.986
 4581TIP3    H213689   7.354   1.204   5.085
 4582TIP3   OH213690   1.451   1.537   1.683
 4582TIP3    H113691   1.392   1.493   1.622
 4582TIP3    H213692   1.448   1.629   1.658
 4583TIP3   OH213693   3.590   3.445   5.207
 4583TIP3    H113694   3.642   3.369   5.181
 4583TIP3    H213695   3.510   3.408   5.246
 4584TIP3   OH213696   1.434   2.594   3.705
 4584TIP3    H113697   1.348   2.596   3.664
 4584TIP3    H213698   1.421   2.634   3.791
 4585TIP3   OH213699   4.321   2.567   5.192
 4585TIP3    H113700   4.276   2.639   5.148
 4585TIP3    H213701   4.371   2.609   5.262
 4586TIP3   OH213702   7.787   6.768   4.448
 4586TIP3    H113703   7.825   6.766   4.360
 4586TIP3    H213704   7.719   6.836   4.443
 4587TIP3   OH213705   6.885   7.373   3.757
 4587TIP3    H113706   6.810   7.332   3.800
 4587TIP3    H213707   6.954   7.307   3.761
 4588TIP3   OH213708   0.255   1.823   4.370
 4588TIP3    H113709   0.179   1.806   4.314
 4588TIP3    H213710   0.286   1.909   4.343
 4589TIP3   OH213711   5.658   4.881   3.411
 4589TIP3    H113712   5.571   4.891   3.450
 4589TIP3    H213713   5.719   4.897   3.484
 4590TIP3   OH213714   7.382   5.847   6.716
 4590TIP3    H113715   7.463   5.897   6.728
 4590TIP3    H213716   7.408   5.772   6.661
 4591TIP3   OH213717   5.167   2.498   2.417
 4591TIP3    H113718   5.116   2.442   2.474
 4591TIP3    H213719   5.108   2.568   2.392
 4592TIP3   OH213720   0.692   6.756   1.383
 4592TIP3    H113721   0.773   6.762   1.434
 4592TIP3    H213722   0.713   6.696   1.311
 4593TIP3   OH213723   7.685   1.897   5.066
 4593TIP3    H113724   7.711   1.874   4.977
 4593TIP3    H213725   7.741   1.842   5.122
 4594TIP3   OH213726   1.278   4.688   2.572
 4594TIP3    H113727   1.356   4.692   2.516
 4594TIP3    H213728   1.258   4.780   2.591
 4595TIP3   OH213729   0.508   6.019   5.311
 4595TIP3    H113730   0.537   6.002   5.221
 4595TIP3    H213731   0.412   6.014   5.306
 4596TIP3   OH213732   4.580   0.030   1.705
 4596TIP3    H113733   4.599   0.075   1.623
 4596TIP3    H213734   4.632   0.076   1.771
 4597TIP3   OH213735   7.191   3.973   6.223
 4597TIP3    H113736   7.133   3.897   6.229
 4597TIP3    H213737   7.206   3.999   6.314
 4598TIP3   OH213738   3.342   6.188   0.344
 4598TIP3    H113739   3.363   6.281   0.333
 4598TIP3    H213740   3.364   6.169   0.435
 4599TIP3   OH213741   6.783   2.954   1.302
 4599TIP3    H113742   6.691   2.930   1.294
 4599TIP3    H213743   6.831   2.872   1.288
 4600TIP3   OH213744   7.880   2.917   3.514
 4600TIP3    H113745   7.955   2.858   3.511
 4600TIP3    H213746   7.835   2.895   3.595
 4601TIP3   OH213747   4.035   4.915   6.319
 4601TIP3    H113748   4.096   4.955   6.381
 4601TIP3    H213749   4.090   4.867   6.258
 4602TIP3   OH213750   2.082   7.495   1.234
 4602TIP3    H113751   2.111   7.423   1.291
 4602TIP3    H213752   2.163   7.541   1.211
 4603TIP3   OH213753   3.029   2.563   0.074
 4603TIP3    H113754   3.039   2.636   0.012
 4603TIP3    H213755   3.043   2.485   0.020
 4604TIP3   OH213756   2.921   6.379   4.896
 4604TIP3    H113757   2.895   6.431   4.972
 4604TIP3    H213758   3.016   6.370   4.904
 4605TIP3   OH213759   3.584   3.027   6.684
 4605TIP3    H113760   3.489   3.011   6.683
 4605TIP3    H213761   3.603   3.050   6.775
 4606TIP3   OH213762   0.435   6.509   2.073
 4606TIP3    H113763   0.363   6.569   2.096
 4606TIP3    H213764   0.421   6.488   1.981
 4607TIP3   OH213765   4.690   7.703   3.510
 4607TIP3    H113766   4.631   7.748   3.450
 4607TIP3    H213767   4.687   7.755   3.590
 4608TIP3   OH213768   4.888   2.273   2.879
 4608TIP3    H113769   4.832   2.272   2.957
 4608TIP3    H213770   4.955   2.206   2.897
 4609TIP3   OH213771   1.408   4.255   2.718
 4609TIP3    H113772   1.357   4.334   2.733
 4609TIP3    H213773   1.499   4.282   2.730
 4610TIP3   OH213774   2.692   3.185   0.577
 4610TIP3    H113775   2.670   3.231   0.659
 4610TIP3    H213776   2.782   3.212   0.558
 4611TIP3   OH213777   5.043   5.404   3.775
 4611TIP3    H113778   5.001   5.353   3.844
 4611TIP3    H213779   5.038   5.349   3.698
 4612TIP3   OH213780   7.093   2.566   3.288
 4612TIP3    H113781   7.119   2.630   3.354
 4612TIP3    H213782   7.115   2.607   3.205
 4613TIP3   OH213783   6.145   4.381   0.682
 4613TIP3    H113784   6.109   4.318   0.619
 4613TIP3    H213785   6.236   4.353   0.694
 4614TIP3   OH213786   8.299   6.110   5.499
 4614TIP3    H113787   8.226   6.159   5.462
 4614TIP3    H213788   8.266   6.020   5.507
 4615TIP3   OH213789   1.646   4.866   0.469
 4615TIP3    H113790   1.630   4.771   0.467
 4615TIP3    H213791   1.741   4.874   0.460
 4616TIP3   OH213792   7.261   7.434   5.106
 4616TIP3    H113793   7.305   7.409   5.187
 4616TIP3    H213794   7.256   7.353   5.056
 4617TIP3   OH213795   3.475   0.623   5.792
 4617TIP3    H113796   3.444   0.708   5.759
 4617TIP3    H213797   3.499   0.574   5.713
 4618TIP3   OH213798   6.722   4.463   1.591
 4618TIP3    H113799   6.707   4.474   1.497
 4618TIP3    H213800   6.752   4.373   1.601
 4619TIP3   OH213801   2.078   2.711   1.899
 4619TIP3    H113802   2.149   2.699   1.836
 4619TIP3    H213803   2.037   2.794   1.874
 4620TIP3   OH213804   7.755   7.718   6.508
 4620TIP3    H113805   7.683   7.690   6.563
 4620TIP3    H213806   7.713   7.757   6.431
 4621TIP3   OH213807   1.931   6.799   4.962
 4621TIP3    H113808   1.842   6.830   4.978
 4621TIP3    H213809   1.987   6.873   4.981
 4622TIP3   OH213810   2.295   6.275   2.074
 4622TIP3    H113811   2.367   6.215   2.093
 4622TIP3    H213812   2.217   6.231   2.106
 4623TIP3   OH213813   2.146   4.420   3.957
 4623TIP3    H113814   2.109   4.495   3.910
 4623TIP3    H213815   2.113   4.344   3.909
 4624TIP3   OH213816   6.335   2.203   3.510
 4624TIP3    H113817   6.299   2.114   3.503
 4624TIP3    H213818   6.426   2.193   3.482
 4625TIP3   OH213819   7.732   1.587   5.093
 4625TIP3    H113820   7.782   1.662   5.122
 4625TIP3    H213821   7.658   1.624   5.044
 4626TIP3   OH213822   0.532   4.200   1.956
 4626TIP3    H113823   0.542   4.117   2.004
 4626TIP3    H213824   0.514   4.265   2.024
 4627TIP3   OH213825   6.411   4.972   5.193
 4627TIP3    H113826   6.368   4.907   5.248
 4627TIP3    H213827   6.357   4.977   5.114
 4628TIP3   OH213828   4.233   0.482   4.453
 4628TIP3    H113829   4.174   0.472   4.528
 4628TIP3    H213830   4.305   0.536   4.486
 4629TIP3   OH213831   7.568   0.767   0.716
 4629TIP3    H113832   7.633   0.786   0.784
 4629TIP3    H213833   7.620   0.747   0.638
 4630TIP3   OH213834   5.787   2.463   0.904
 4630TIP3    H113835   5.803   2.498   0.816
 4630TIP3    H213836   5.714   2.515   0.937
 4631TIP3   OH213837   8.052   4.357   0.316
 4631TIP3    H113838   8.085   4.269   0.300
 4631TIP3    H213839   8.058   4.402   0.232
 4632TIP3   OH213840   5.556   5.380   3.505
 4632TIP3    H113841   5.465   5.407   3.493
 4632TIP3    H213842   5.582   5.346   3.419
 4633TIP3   OH213843   5.279   7.409   4.014
 4633TIP3    H113844   5.331   7.382   3.938
 4633TIP3    H213845   5.291   7.339   4.078
 4634TIP3   OH213846   2.359   3.905   5.711
 4634TIP3    H113847   2.287   3.842   5.708
 4634TIP3    H213848   2.438   3.851   5.712
 4635TIP3   OH213849   5.440   6.377   1.612
 4635TIP3    H113850   5.534   6.360   1.621
 4635TIP3    H213851   5.407   6.376   1.701
 4636TIP3   OH213852   7.548   2.036   2.462
 4636TIP3    H113853   7.590   1.981   2.528
 4636TIP3    H213854   7.454   2.027   2.480
 4637TIP3   OH213855   0.485   4.355   4.777
 4637TIP3    H113856   0.483   4.326   4.686
 4637TIP3    H213857   0.437   4.438   4.777
 4638TIP3   OH213858   5.916   3.141   6.614
 4638TIP3    H113859   5.969   3.062   6.613
 4638TIP3    H213860   5.929   3.180   6.528
 4639TIP3   OH213861   1.729   2.874   0.262
 4639TIP3    H113862   1.654   2.903   0.315
 4639TIP3    H213863   1.785   2.827   0.323
 4640TIP3   OH213864   2.258   5.580   5.016
 4640TIP3    H113865   2.217   5.525   4.949
 4640TIP3    H213866   2.275   5.521   5.089
 4641TIP3   OH213867   1.020   0.134   3.840
 4641TIP3    H113868   0.995   0.093   3.923
 4641TIP3    H213869   0.951   0.109   3.779
 4642TIP3   OH213870   7.915   6.963   0.506
 4642TIP3    H113871   7.967   6.993   0.581
 4642TIP3    H213872   7.979   6.924   0.447
 4643TIP3   OH213873   0.471   3.511   0.041
 4643TIP3    H113874   0.557   3.494   0.004
 4643TIP3    H213875   0.487   3.573   0.112
 4644TIP3   OH213876   2.446   1.310   4.597
 4644TIP3    H113877   2.534   1.294   4.565
 4644TIP3    H213878   2.427   1.401   4.573
 4645TIP3   OH213879   6.823   6.451   2.055
 4645TIP3    H113880   6.820   6.428   1.962
 4645TIP3    H213881   6.833   6.367   2.101
 4646TIP3   OH213882   6.060   0.361   0.542
 4646TIP3    H113883   6.132   0.303   0.518
 4646TIP3    H213884   6.102   0.432   0.591
 4647TIP3   OH213885   3.370   1.525   0.530
 4647TIP3    H113886   3.454   1.490   0.501
 4647TIP3    H213887   3.356   1.602   0.475
 4648TIP3   OH213888   6.517   6.062   6.573
 4648TIP3    H113889   6.594   6.069   6.516
 4648TIP3    H213890   6.516   5.971   6.601
 4649TIP3   OH213891   4.763   6.256   3.583
 4649TIP3    H113892   4.802   6.224   3.664
 4649TIP3    H213893   4.817   6.332   3.559
 4650TIP3   OH213894  -0.012   4.185   2.896
 4650TIP3    H113895   0.046   4.130   2.843
 4650TIP3    H213896  -0.014   4.143   2.982
 4651TIP3   OH213897   4.098   6.147   5.982
 4651TIP3    H113898   4.059   6.152   5.895
 4651TIP3    H213899   4.090   6.056   6.008
 4652TIP3   OH213900   5.226   5.602   2.143
 4652TIP3    H113901   5.303   5.599   2.087
 4652TIP3    H213902   5.174   5.526   2.116
 4653TIP3   OH213903   5.804   4.470   6.273
 4653TIP3    H113904   5.807   4.491   6.366
 4653TIP3    H213905   5.862   4.394   6.263
 4654TIP3   OH213906   8.253   0.725   2.564
 4654TIP3    H113907   8.261   0.793   2.631
 4654TIP3    H213908   8.343   0.712   2.533
 4655TIP3   OH213909   3.398   1.465   4.646
 4655TIP3    H113910   3.410   1.404   4.719
 4655TIP3    H213911   3.429   1.416   4.569
 4656TIP3   OH213912   7.528   1.256   5.544
 4656TIP3    H113913   7.562   1.285   5.459
 4656TIP3    H213914   7.465   1.324   5.569
 4657TIP3   OH213915   2.295   1.707   5.827
 4657TIP3    H113916   2.309   1.631   5.770
 4657TIP3    H213917   2.240   1.674   5.898
 4658TIP3   OH213918   2.022   4.880   3.327
 4658TIP3    H113919   2.012   4.972   3.304
 4658TIP3    H213920   2.084   4.880   3.400
 4659TIP3   OH213921   3.654   6.437   3.914
 4659TIP3    H113922   3.586   6.401   3.971
 4659TIP3    H213923   3.702   6.499   3.970
 4660TIP3   OH213924   0.240   4.502   4.572
 4660TIP3    H113925   0.182   4.562   4.525
 4660TIP3    H213926   0.224   4.417   4.531
 4661TIP3   OH213927   5.114   7.577   5.126
 4661TIP3    H113928   5.098   7.538   5.213
 4661TIP3    H213929   5.210   7.580   5.119
 4662TIP3   OH213930   6.147   6.618   3.150
 4662TIP3    H113931   6.227   6.601   3.199
 4662TIP3    H213932   6.174   6.678   3.080
 4663TIP3   OH213933   1.155   2.053   6.793
 4663TIP3    H113934   1.197   2.138   6.780
 4663TIP3    H213935   1.151   2.014   6.706
 4664TIP3   OH213936   7.784   0.035   5.343
 4664TIP3    H113937   7.738  -0.023   5.282
 4664TIP3    H213938   7.871   0.045   5.306
 4665TIP3   OH213939   2.085   1.176   0.244
 4665TIP3    H113940   2.002   1.220   0.260
 4665TIP3    H213941   2.091   1.110   0.314
 4666TIP3   OH213942   4.488   5.660   5.724
 4666TIP3    H113943   4.413   5.719   5.721
 4666TIP3    H213944   4.469   5.602   5.798
 4667TIP3   OH213945   5.883   6.745   5.257
 4667TIP3    H113946   5.809   6.752   5.316
 4667TIP3    H213947   5.959   6.734   5.314
 4668TIP3   OH213948   4.912   7.731   4.012
 4668TIP3    H113949   4.960   7.658   3.972
 4668TIP3    H213950   4.821   7.717   3.987
 4669TIP3   OH213951   7.199   6.185   0.322
 4669TIP3    H113952   7.119   6.198   0.270
 4669TIP3    H213953   7.167   6.148   0.405
 4670TIP3   OH213954   6.996   4.603   6.165
 4670TIP3    H113955   6.915   4.562   6.199
 4670TIP3    H213956   7.066   4.554   6.208
 4671TIP3   OH213957   5.857   4.877   5.779
 4671TIP3    H113958   5.887   4.931   5.706
 4671TIP3    H213959   5.921   4.893   5.848
 4672TIP3   OH213960   4.708   7.808   4.352
 4672TIP3    H113961   4.655   7.832   4.427
 4672TIP3    H213962   4.798   7.828   4.378
 4673TIP3   OH213963   0.065   5.065   3.210
 4673TIP3    H113964   0.005   5.063   3.284
 4673TIP3    H213965   0.039   4.991   3.156
 4674TIP3   OH213966   4.375   7.050   1.256
 4674TIP3    H113967   4.317   7.086   1.323
 4674TIP3    H213968   4.323   7.047   1.176
 4675TIP3   OH213969   1.121   7.542   2.252
 4675TIP3    H113970   1.065   7.589   2.191
 4675TIP3    H213971   1.196   7.600   2.265
 4676TIP3   OH213972   2.246   0.836   1.640
 4676TIP3    H113973   2.174   0.812   1.700
 4676TIP3    H213974   2.206   0.896   1.578
 4677TIP3   OH213975   3.072   4.232   2.196
 4677TIP3    H113976   3.049   4.163   2.259
 4677TIP3    H213977   2.988   4.270   2.170
 4678TIP3   OH213978   1.533   1.089   5.085
 4678TIP3    H113979   1.513   1.170   5.039
 4678TIP3    H213980   1.612   1.055   5.043
 4679TIP3   OH213981   2.717   3.524   4.128
 4679TIP3    H113982   2.634   3.524   4.175
 4679TIP3    H213983   2.763   3.602   4.160
 4680TIP3   OH213984   6.734   0.448   6.118
 4680TIP3    H113985   6.667   0.473   6.054
 4680TIP3    H213986   6.691   0.461   6.203
 4681TIP3   OH213987   0.769   5.270   1.273
 4681TIP3    H113988   0.828   5.196   1.257
 4681TIP3    H213989   0.707   5.237   1.338
 4682TIP3   OH213990   1.336   2.999   4.183
 4682TIP3    H113991   1.295   3.050   4.252
 4682TIP3    H213992   1.344   3.060   4.109
 4683TIP3   OH213993   6.161   7.048   3.816
 4683TIP3    H113994   6.148   6.954   3.828
 4683TIP3    H213995   6.133   7.087   3.899
 4684TIP3   OH213996   4.347   0.727   5.360
 4684TIP3    H113997   4.332   0.822   5.360
 4684TIP3    H213998   4.440   0.718   5.384
 4685TIP3   OH213999   7.424   0.970   6.631
 4685TIP3    H114000   7.512   0.936   6.615
 4685TIP3    H214001   7.393   0.999   6.546
 4686TIP3   OH214002   1.452   6.963   4.538
 4686TIP3    H114003   1.460   6.910   4.618
 4686TIP3    H214004   1.542   6.980   4.512
 4687TIP3   OH214005   6.830   2.787   0.367
 4687TIP3    H114006   6.886   2.795   0.444
 4687TIP3    H214007   6.756   2.733   0.396
 4688TIP3   OH214008   6.563   7.416   0.122
 4688TIP3    H114009   6.609   7.431   0.205
 4688TIP3    H214010   6.515   7.497   0.106
 4689TIP3   OH214011   0.686   2.643   3.696
 4689TIP3    H114012   0.628   2.570   3.676
 4689TIP3    H214013   0.686   2.649   3.792
 4690TIP3   OH214014   0.156   1.317   3.310
 4690TIP3    H114015   0.092   1.272   3.255
 4690TIP3    H214016   0.189   1.249   3.368
 4691TIP3   OH214017   2.933   2.236   4.642
 4691TIP3    H114018   2.991   2.214   4.570
 4691TIP3    H214019   2.991   2.248   4.717
 4692TIP3   OH214020   2.650   7.631   5.634
 4692TIP3    H114021   2.713   7.603   5.567
 4692TIP3    H214022   2.636   7.724   5.617
 4693TIP3   OH214023   0.035   6.202   2.646
 4693TIP3    H114024   0.091   6.224   2.572
 4693TIP3    H214025  -0.035   6.267   2.644
 4694TIP3   OH214026   6.684   5.190   0.620
 4694TIP3    H114027   6.705   5.110   0.572
 4694TIP3    H214028   6.682   5.164   0.712
 4695TIP3   OH214029   3.010   1.645   0.870
 4695TIP3    H114030   2.931   1.603   0.836
 4695TIP3    H214031   3.009   1.625   0.964
 4696TIP3   OH214032   0.593   0.156   4.645
 4696TIP3    H114033   0.684   0.171   4.672
 4696TIP3    H214034   0.576   0.065   4.671
 4697TIP3   OH214035   5.101   1.394   4.961
 4697TIP3    H114036   5.035   1.334   4.995
 4697TIP3    H214037   5.091   1.473   5.015
 4698TIP3   OH214038   3.939   1.478   0.524
 4698TIP3    H114039   3.949   1.566   0.562
 4698TIP3    H214040   3.937   1.419   0.599
 4699TIP3   OH214041   5.195   2.362   0.423
 4699TIP3    H114042   5.226   2.317   0.501
 4699TIP3    H214043   5.274   2.395   0.381
 4700TIP3   OH214044   7.778   4.777   4.169
 4700TIP3    H114045   7.730   4.775   4.252
 4700TIP3    H214046   7.835   4.853   4.177
 4701TIP3   OH214047   4.125   5.334   5.166
 4701TIP3    H114048   4.043   5.289   5.187
 4701TIP3    H214049   4.193   5.268   5.181
 4702TIP3   OH214050   0.148   5.974   0.506
 4702TIP3    H114051   0.141   6.057   0.460
 4702TIP3    H214052   0.085   5.917   0.460
 4703TIP3   OH214053   3.984   3.321   1.836
 4703TIP3    H114054   4.046   3.267   1.884
 4703TIP3    H214055   3.905   3.267   1.829
 4704TIP3   OH214056   4.396   1.557   5.056
 4704TIP3    H114057   4.363   1.631   5.005
 4704TIP3    H214058   4.486   1.546   5.027
 4705TIP3   OH214059   3.132   2.791   5.483
 4705TIP3    H114060   3.202   2.845   5.447
 4705TIP3    H214061   3.171   2.746   5.558
 4706TIP3   OH214062   6.027   2.512   6.425
 4706TIP3    H114063   5.992   2.582   6.371
 4706TIP3    H214064   6.108   2.485   6.381
 4707TIP3   OH214065   0.637   0.138   4.063
 4707TIP3    H114066   0.632   0.129   3.967
 4707TIP3    H214067   0.551   0.172   4.087
 4708TIP3   OH214068   7.544   4.798   4.334
 4708TIP3    H114069   7.495   4.717   4.319
 4708TIP3    H214070   7.534   4.815   4.427
 4709TIP3   OH214071   4.066   0.130   4.500
 4709TIP3    H114072   3.991   0.181   4.532
 4709TIP3    H214073   4.118   0.112   4.579
 4710TIP3   OH214074   4.241   3.814   6.022
 4710TIP3    H114075   4.256   3.858   6.105
 4710TIP3    H214076   4.255   3.722   6.040
 4711TIP3   OH214077   5.752   4.799   6.629
 4711TIP3    H114078   5.664   4.813   6.664
 4711TIP3    H214079   5.809   4.853   6.684
 4712TIP3   OH214080   3.636   6.432   0.819
 4712TIP3    H114081   3.708   6.387   0.774
 4712TIP3    H214082   3.607   6.370   0.886
 4713TIP3   OH214083   6.874   5.550   0.140
 4713TIP3    H114084   6.919   5.481   0.189
 4713TIP3    H214085   6.856   5.510   0.054
 4714TIP3   OH214086   0.843   6.177   4.608
 4714TIP3    H114087   0.824   6.084   4.592
 4714TIP3    H214088   0.867   6.180   4.701
 4715TIP3   OH214089   7.679   7.821   3.924
 4715TIP3    H114090   7.676   7.760   3.998
 4715TIP3    H214091   7.587   7.828   3.896
 4716TIP3   OH214092   5.906   0.448   5.600
 4716TIP3    H114093   5.969   0.507   5.559
 4716TIP3    H214094   5.823   0.468   5.557
 4717TIP3   OH214095   2.149   2.975   3.314
 4717TIP3    H114096   2.233   2.929   3.315
 4717TIP3    H214097   2.173   3.068   3.314
 4718TIP3   OH214098   7.203   5.834   6.302
 4718TIP3    H114099   7.155   5.752   6.288
 4718TIP3    H214100   7.283   5.825   6.249
 4719TIP3   OH214101   0.862   2.971   4.795
 4719TIP3    H114102   0.797   2.912   4.835
 4719TIP3    H214103   0.862   3.048   4.852
 4720TIP3   OH214104   6.617   1.494   3.877
 4720TIP3    H114105   6.556   1.564   3.900
 4720TIP3    H214106   6.698   1.518   3.922
 4721TIP3   OH214107   1.813   5.470   1.722
 4721TIP3    H114108   1.837   5.561   1.704
 4721TIP3    H214109   1.800   5.432   1.635
 4722TIP3   OH214110   3.616   6.275   0.229
 4722TIP3    H114111   3.559   6.338   0.273
 4722TIP3    H214112   3.633   6.208   0.295
 4723TIP3   OH214113   2.475   2.390   5.408
 4723TIP3    H114114   2.390   2.347   5.417
 4723TIP3    H214115   2.470   2.467   5.463
 4724TIP3   OH214116   7.874   4.805   4.803
 4724TIP3    H114117   7.897   4.741   4.736
 4724TIP3    H214118   7.877   4.755   4.885
 4725TIP3   OH214119   3.061   1.230   0.593
 4725TIP3    H114120   3.072   1.255   0.501
 4725TIP3    H214121   3.131   1.276   0.639
 4726TIP3   OH214122   2.599   6.051   2.876
 4726TIP3    H114123   2.660   6.097   2.934
 4726TIP3    H214124   2.517   6.049   2.926
 4727TIP3   OH214125   4.582   0.586   2.241
 4727TIP3    H114126   4.645   0.537   2.294
 4727TIP3    H214127   4.627   0.598   2.157
 4728TIP3   OH214128   0.555   7.721   3.596
 4728TIP3    H114129   0.539   7.731   3.502
 4728TIP3    H214130   0.650   7.727   3.604
 4729TIP3   OH214131   0.656   5.829   0.417
 4729TIP3    H114132   0.733   5.787   0.456
 4729TIP3    H214133   0.582   5.774   0.445
 4730TIP3   OH214134   3.327   2.003   5.016
 4730TIP3    H114135   3.412   2.006   5.061
 4730TIP3    H214136   3.344   2.040   4.930
 4731TIP3   OH214137   2.232   2.328   1.099
 4731TIP3    H114138   2.146   2.327   1.141
 4731TIP3    H214139   2.290   2.370   1.163
 4732TIP3   OH214140   3.695   3.868   2.725
 4732TIP3    H114141   3.662   3.808   2.658
 4732TIP3    H214142   3.649   3.842   2.805
 4733TIP3   OH214143   2.448   3.742   0.040
 4733TIP3    H114144   2.521   3.684   0.062
 4733TIP3    H214145   2.489   3.815  -0.007
 4734TIP3   OH214146   4.031   5.070   2.564
 4734TIP3    H114147   4.073   5.015   2.630
 4734TIP3    H214148   4.080   5.052   2.483
 4735TIP3   OH214149   1.641   7.452   4.838
 4735TIP3    H114150   1.709   7.461   4.905
 4735TIP3    H214151   1.560   7.441   4.887
 4736TIP3   OH214152   5.405   6.844   1.408
 4736TIP3    H114153   5.444   6.910   1.466
 4736TIP3    H214154   5.355   6.788   1.467
 4737TIP3   OH214155   8.191   7.745   4.553
 4737TIP3    H114156   8.096   7.742   4.559
 4737TIP3    H214157   8.220   7.657   4.576
 4738TIP3   OH214158   2.309   7.683   4.294
 4738TIP3    H114159   2.370   7.724   4.232
 4738TIP3    H214160   2.222   7.712   4.265
 4739TIP3   OH214161   0.220   0.617   2.501
 4739TIP3    H114162   0.297   0.580   2.459
 4739TIP3    H214163   0.162   0.640   2.428
 4740TIP3   OH214164   1.086   5.744   1.794
 4740TIP3    H114165   1.011   5.782   1.840
 4740TIP3    H214166   1.144   5.714   1.864
 4741TIP3   OH214167   7.881   3.370   4.949
 4741TIP3    H114168   7.914   3.433   5.013
 4741TIP3    H214169   7.787   3.384   4.948
 4742TIP3   OH214170   7.230   3.890   2.268
 4742TIP3    H114171   7.298   3.958   2.275
 4742TIP3    H214172   7.162   3.919   2.329
 4743TIP3   OH214173   6.539   0.974   2.669
 4743TIP3    H114174   6.445   0.958   2.677
 4743TIP3    H214175   6.574   0.895   2.628
 4744TIP3   OH214176   5.110   6.302   2.374
 4744TIP3    H114177   5.072   6.277   2.290
 4744TIP3    H214178   5.047   6.362   2.413
 4745TIP3   OH214179   2.151   7.309   0.301
 4745TIP3    H114180   2.192   7.311   0.388
 4745TIP3    H214181   2.219   7.341   0.242
 4746TIP3   OH214182   0.161   2.815   5.818
 4746TIP3    H114183   0.254   2.823   5.797
 4746TIP3    H214184   0.158   2.745   5.884
 4747TIP3   OH214185   6.536   4.152   6.207
 4747TIP3    H114186   6.519   4.209   6.281
 4747TIP3    H214187   6.630   4.137   6.209
 4748TIP3   OH214188   3.383   4.328   0.268
 4748TIP3    H114189   3.335   4.270   0.327
 4748TIP3    H214190   3.315   4.382   0.227
 4749TIP3   OH214191   3.666   7.475   0.255
 4749TIP3    H114192   3.681   7.454   0.163
 4749TIP3    H214193   3.750   7.457   0.298
 4750TIP3   OH214194   7.477   0.291   6.507
 4750TIP3    H114195   7.407   0.354   6.494
 4750TIP3    H214196   7.434   0.216   6.549
 4751TIP3   OH214197   4.719   4.427   3.758
 4751TIP3    H114198   4.697   4.425   3.665
 4751TIP3    H214199   4.753   4.340   3.778
 4752TIP3   OH214200   7.923   4.608   2.053
 4752TIP3    H114201   7.842   4.659   2.044
 4752TIP3    H214202   7.895   4.523   2.087
 4753TIP3   OH214203   5.079   4.754   0.619
 4753TIP3    H114204   5.032   4.731   0.539
 4753TIP3    H214205   5.028   4.824   0.658
 4754TIP3   OH214206   2.041   3.164   6.387
 4754TIP3    H114207   2.025   3.072   6.408
 4754TIP3    H214208   2.103   3.193   6.454
 4755TIP3   OH214209   5.566   1.785   2.984
 4755TIP3    H114210   5.558   1.710   3.043
 4755TIP3    H214211   5.632   1.758   2.920
 4756TIP3   OH214212   5.425   5.029   6.143
 4756TIP3    H114213   5.459   5.068   6.223
 4756TIP3    H214214   5.468   4.944   6.136
 4757TIP3   OH214215   3.998   2.031   6.156
 4757TIP3    H114216   4.073   1.972   6.152
 4757TIP3    H214217   3.922   1.973   6.157
 4758TIP3   OH214218   3.048   5.614   3.844
 4758TIP3    H114219   3.130   5.607   3.795
 4758TIP3    H214220   3.054   5.698   3.890
 4759TIP3   OH214221   3.382   6.401   2.070
 4759TIP3    H114222   3.475   6.380   2.073
 4759TIP3    H214223   3.376   6.491   2.102
 4760TIP3   OH214224   0.141   5.634   4.437
 4760TIP3    H114225   0.119   5.710   4.492
 4760TIP3    H214226   0.094   5.561   4.478
 4761TIP3   OH214227   3.403   6.615   4.511
 4761TIP3    H114228   3.347   6.594   4.437
 4761TIP3    H214229   3.383   6.707   4.530
 4762TIP3   OH214230   6.126   6.364   1.229
 4762TIP3    H114231   6.115   6.348   1.136
 4762TIP3    H214232   6.169   6.449   1.234
 4763TIP3   OH214233   5.816   0.691   1.062
 4763TIP3    H114234   5.795   0.760   1.124
 4763TIP3    H214235   5.853   0.621   1.117
 4764TIP3   OH214236   4.401   3.873   4.063
 4764TIP3    H114237   4.435   3.853   3.976
 4764TIP3    H214238   4.443   3.956   4.086
 4765TIP3   OH214239   4.466   0.402   0.336
 4765TIP3    H114240   4.529   0.416   0.406
 4765TIP3    H214241   4.406   0.477   0.341
 4766TIP3   OH214242   0.486   2.835   2.330
 4766TIP3    H114243   0.456   2.908   2.275
 4766TIP3    H214244   0.516   2.878   2.411
 4767TIP3   OH214245   0.520   0.883   0.384
 4767TIP3    H114246   0.425   0.879   0.373
 4767TIP3    H214247   0.540   0.977   0.388
 4768TIP3   OH214248   7.043   5.095   3.412
 4768TIP3    H114249   6.957   5.054   3.398
 4768TIP3    H214250   7.051   5.157   3.340
 4769TIP3   OH214251   0.452   6.865   3.468
 4769TIP3    H114252   0.360   6.868   3.443
 4769TIP3    H214253   0.491   6.801   3.408
 4770TIP3   OH214254   1.629   2.988   6.652
 4770TIP3    H114255   1.708   2.952   6.692
 4770TIP3    H214256   1.622   2.943   6.568
 4771TIP3   OH214257   5.238   5.083   0.441
 4771TIP3    H114258   5.168   5.136   0.478
 4771TIP3    H214259   5.318   5.133   0.458
 4772TIP3   OH214260   7.937   1.542   1.967
 4772TIP3    H114261   7.995   1.612   1.934
 4772TIP3    H214262   7.944   1.473   1.902
 4773TIP3   OH214263   3.121   5.218   4.963
 4773TIP3    H114264   3.196   5.178   5.006
 4773TIP3    H214265   3.063   5.244   5.035
 4774TIP3   OH214266   3.507   5.101   2.944
 4774TIP3    H114267   3.483   5.185   2.982
 4774TIP3    H214268   3.575   5.066   3.002
 4775TIP3   OH214269   2.783   5.922   4.426
 4775TIP3    H114270   2.871   5.919   4.388
 4775TIP3    H214271   2.788   5.994   4.490
 4776TIP3   OH214272   3.501   4.072   5.547
 4776TIP3    H114273   3.557   4.000   5.575
 4776TIP3    H214274   3.437   4.030   5.489
 4777TIP3   OH214275   2.321   5.421   3.134
 4777TIP3    H114276   2.358   5.453   3.052
 4777TIP3    H214277   2.338   5.491   3.197
 4778TIP3   OH214278   5.420   0.347   5.071
 4778TIP3    H114279   5.393   0.277   5.130
 4778TIP3    H214280   5.353   0.415   5.082
 4779TIP3   OH214281   0.780   7.420   2.129
 4779TIP3    H114282   0.695   7.462   2.120
 4779TIP3    H214283   0.810   7.406   2.040
 4780TIP3   OH214284   2.989   7.796   5.781
 4780TIP3    H114285   2.953   7.882   5.801
 4780TIP3    H214286   2.919   7.735   5.806
 4781TIP3   OH214287   2.329   6.448   2.492
 4781TIP3    H114288   2.421   6.422   2.484
 4781TIP3    H214289   2.281   6.365   2.486
 4782TIP3   OH214290   1.982   5.970   0.638
 4782TIP3    H114291   2.062   5.937   0.597
 4782TIP3    H214292   2.006   6.057   0.671
 4783TIP3   OH214293   2.296   2.726   5.331
 4783TIP3    H114294   2.357   2.720   5.404
 4783TIP3    H214295   2.307   2.644   5.283
 4784TIP3   OH214296   3.234   7.238   5.438
 4784TIP3    H114297   3.253   7.157   5.391
 4784TIP3    H214298   3.190   7.210   5.518
 4785TIP3   OH214299   7.003   4.770   4.603
 4785TIP3    H114300   6.984   4.787   4.696
 4785TIP3    H214301   6.968   4.683   4.587
 4786TIP3   OH214302   4.471   7.456   6.308
 4786TIP3    H114303   4.423   7.379   6.337
 4786TIP3    H214304   4.476   7.447   6.213
 4787TIP3   OH214305   1.386   4.678   2.064
 4787TIP3    H114306   1.414   4.587   2.064
 4787TIP3    H214307   1.467   4.728   2.073
 4788TIP3   OH214308   6.305   3.800   4.956
 4788TIP3    H114309   6.216   3.786   4.988
 4788TIP3    H214310   6.314   3.741   4.882
 4789TIP3   OH214311   7.059   2.872   2.105
 4789TIP3    H114312   7.122   2.928   2.059
 4789TIP3    H214313   7.043   2.799   2.044
 4790TIP3   OH214314   5.713   7.139   3.948
 4790TIP3    H114315   5.793   7.153   3.897
 4790TIP3    H214316   5.691   7.047   3.934
 4791TIP3   OH214317   3.419   4.176   6.337
 4791TIP3    H114318   3.373   4.110   6.285
 4791TIP3    H214319   3.439   4.132   6.420
 4792TIP3   OH214320   3.104   5.437   5.926
 4792TIP3    H114321   3.033   5.439   5.862
 4792TIP3    H214322   3.167   5.502   5.894
 4793TIP3   OH214323   5.740   7.020   0.668
 4793TIP3    H114324   5.647   7.001   0.658
 4793TIP3    H214325   5.770   6.957   0.734
 4794TIP3   OH214326   4.744   7.720   0.607
 4794TIP3    H114327   4.703   7.781   0.668
 4794TIP3    H214328   4.735   7.634   0.649
 4795TIP3   OH214329   4.495   0.229   3.710
 4795TIP3    H114330   4.474   0.136   3.716
 4795TIP3    H214331   4.475   0.264   3.796
 4796TIP3   OH214332   1.749   4.884   6.251
 4796TIP3    H114333   1.669   4.905   6.203
 4796TIP3    H214334   1.775   4.967   6.292
 4797TIP3   OH214335   6.102   5.124   2.832
 4797TIP3    H114336   6.022   5.173   2.816
 4797TIP3    H214337   6.074   5.047   2.881
 4798TIP3   OH214338   3.747   3.124   3.445
 4798TIP3    H114339   3.677   3.147   3.384
 4798TIP3    H214340   3.704   3.068   3.510
 4799TIP3   OH214341   1.878   2.761   6.176
 4799TIP3    H114342   1.938   2.827   6.140
 4799TIP3    H214343   1.845   2.715   6.099
 4800TIP3   OH214344   3.987   1.015   0.196
 4800TIP3    H114345   3.995   0.937   0.142
 4800TIP3    H214346   4.077   1.036   0.222
 4801TIP3   OH214347   5.433   4.320   2.261
 4801TIP3    H114348   5.508   4.379   2.258
 4801TIP3    H214349   5.405   4.321   2.353
 4802TIP3   OH214350   1.552   2.209   1.736
 4802TIP3    H114351   1.484   2.262   1.776
 4802TIP3    H214352   1.510   2.169   1.660
 4803TIP3   OH214353   5.280   5.857   6.693
 4803TIP3    H114354   5.292   5.763   6.681
 4803TIP3    H214355   5.292   5.894   6.606
 4804TIP3   OH214356   7.690   1.740   1.855
 4804TIP3    H114357   7.751   1.728   1.782
 4804TIP3    H214358   7.713   1.672   1.917
 4805TIP3   OH214359   0.569   1.157   6.542
 4805TIP3    H114360   0.593   1.227   6.480
 4805TIP3    H214361   0.482   1.129   6.514
 4806TIP3   OH214362   1.467   7.361   0.048
 4806TIP3    H114363   1.414   7.297   0.000
 4806TIP3    H214364   1.425   7.368   0.134
 4807TIP3   OH214365   7.271   6.599   5.400
 4807TIP3    H114366   7.256   6.619   5.492
 4807TIP3    H214367   7.355   6.639   5.379
 4808TIP3   OH214368   2.346   1.890   0.287
 4808TIP3    H114369   2.384   1.978   0.278
 4808TIP3    H214370   2.422   1.832   0.295
 4809TIP3   OH214371   1.017   0.164   0.020
 4809TIP3    H114372   1.082   0.104   0.058
 4809TIP3    H214373   1.057   0.194  -0.061
 4810TIP3   OH214374   1.917   6.688   0.789
 4810TIP3    H114375   1.884   6.739   0.863
 4810TIP3    H214376   1.842   6.638   0.759
 4811TIP3   OH214377   4.940   0.049   2.568
 4811TIP3    H114378   5.007   0.106   2.531
 4811TIP3    H214379   4.899   0.007   2.492
 4812TIP3   OH214380   1.919   0.040   4.169
 4812TIP3    H114381   1.876  -0.001   4.244
 4812TIP3    H214382   1.904  -0.021   4.097
 4813TIP3   OH214383   5.057   1.420   4.273
 4813TIP3    H114384   5.143   1.378   4.268
 4813TIP3    H214385   5.075   1.506   4.311
 4814TIP3   OH214386   2.261   2.018   2.949
 4814TIP3    H114387   2.280   1.927   2.928
 4814TIP3    H214388   2.170   2.018   2.977
 4815TIP3   OH214389   0.636   2.219   6.029
 4815TIP3    H114390   0.621   2.124   6.026
 4815TIP3    H214391   0.673   2.235   6.116
 4816TIP3   OH214392   1.394   7.655   2.155
 4816TIP3    H114393   1.382   7.721   2.087
 4816TIP3    H214394   1.365   7.573   2.114
 4817TIP3   OH214395   1.989   1.628   1.481
 4817TIP3    H114396   2.035   1.629   1.397
 4817TIP3    H214397   1.920   1.563   1.471
 4818TIP3   OH214398   3.786   6.616   4.088
 4818TIP3    H114399   3.732   6.635   4.165
 4818TIP3    H214400   3.873   6.599   4.124
 4819TIP3   OH214401   0.570   1.468   0.369
 4819TIP3    H114402   0.593   1.380   0.398
 4819TIP3    H214403   0.653   1.516   0.367
 4820TIP3   OH214404   4.807   2.710   0.318
 4820TIP3    H114405   4.874   2.739   0.255
 4820TIP3    H214406   4.842   2.628   0.353
 4821TIP3   OH214407   4.222   3.900   5.015
 4821TIP3    H114408   4.170   3.943   4.947
 4821TIP3    H214409   4.276   3.970   5.052
 4822TIP3   OH214410   5.637   0.279   5.393
 4822TIP3    H114411   5.714   0.224   5.401
 4822TIP3    H214412   5.618   0.282   5.299
 4823TIP3   OH214413   6.109   2.653   3.671
 4823TIP3    H114414   6.200   2.666   3.695
 4823TIP3    H214415   6.103   2.562   3.643
 4824TIP3   OH214416   2.354   4.436   1.010
 4824TIP3    H114417   2.274   4.484   1.031
 4824TIP3    H214418   2.329   4.343   1.016
 4825TIP3   OH214419   3.704   2.915   4.292
 4825TIP3    H114420   3.719   2.832   4.246
 4825TIP3    H214421   3.635   2.895   4.356
 4826TIP3   OH214422   5.908   7.758   4.167
 4826TIP3    H114423   5.930   7.836   4.219
 4826TIP3    H214424   5.857   7.704   4.227
 4827TIP3   OH214425   4.992   5.999   0.563
 4827TIP3    H114426   5.045   6.072   0.594
 4827TIP3    H214427   4.948   5.967   0.642
 4828TIP3   OH214428   6.580   2.781   3.310
 4828TIP3    H114429   6.622   2.758   3.392
 4828TIP3    H214430   6.651   2.805   3.251
 4829TIP3   OH214431   2.155   3.912   6.619
 4829TIP3    H114432   2.102   3.870   6.687
 4829TIP3    H214433   2.094   3.969   6.573
 4830TIP3   OH214434   4.669   1.086   3.112
 4830TIP3    H114435   4.638   1.083   3.203
 4830TIP3    H214436   4.606   1.034   3.063
 4831TIP3   OH214437   5.187   6.212   3.034
 4831TIP3    H114438   5.228   6.156   3.100
 4831TIP3    H214439   5.146   6.150   2.973
 4832TIP3   OH214440   7.544   0.702   2.979
 4832TIP3    H114441   7.601   0.628   2.958
 4832TIP3    H214442   7.600   0.779   2.970
 4833TIP3   OH214443   2.967   4.283   4.046
 4833TIP3    H114444   3.000   4.211   4.100
 4833TIP3    H214445   2.978   4.361   4.100
 4834TIP3   OH214446   6.623   7.493   1.446
 4834TIP3    H114447   6.530   7.470   1.445
 4834TIP3    H214448   6.666   7.417   1.484
 4835TIP3   OH214449   7.493   1.127   1.425
 4835TIP3    H114450   7.550   1.144   1.350
 4835TIP3    H214451   7.541   1.063   1.477
 4836TIP3   OH214452   8.147   1.920   4.678
 4836TIP3    H114453   8.146   1.831   4.643
 4836TIP3    H214454   8.166   1.975   4.602
 4837TIP3   OH214455   3.729   1.146   0.436
 4837TIP3    H114456   3.697   1.133   0.525
 4837TIP3    H214457   3.656   1.120   0.380
 4838TIP3   OH214458   5.280   3.262   5.504
 4838TIP3    H114459   5.228   3.236   5.427
 4838TIP3    H214460   5.340   3.328   5.471
 4839TIP3   OH214461   5.438   0.198   1.604
 4839TIP3    H114462   5.481   0.135   1.547
 4839TIP3    H214463   5.464   0.173   1.693
 4840TIP3   OH214464   2.396   1.120   5.368
 4840TIP3    H114465   2.438   1.150   5.288
 4840TIP3    H214466   2.468   1.095   5.425
 4841TIP3   OH214467   2.670   4.417   0.774
 4841TIP3    H114468   2.712   4.416   0.689
 4841TIP3    H214469   2.739   4.396   0.836
 4842TIP3   OH214470   3.292   2.295   3.685
 4842TIP3    H114471   3.312   2.342   3.604
 4842TIP3    H214472   3.196   2.296   3.690
 4843TIP3   OH214473   1.599   6.693   3.225
 4843TIP3    H114474   1.678   6.692   3.278
 4843TIP3    H214475   1.529   6.665   3.284
 4844TIP3   OH214476   4.133   1.420   0.130
 4844TIP3    H114477   4.219   1.379   0.123
 4844TIP3    H214478   4.098   1.389   0.214
 4845TIP3   OH214479   7.921   0.055   4.858
 4845TIP3    H114480   7.951   0.050   4.767
 4845TIP3    H214481   7.962  -0.020   4.901
 4846TIP3   OH214482   7.205   4.397   2.221
 4846TIP3    H114483   7.176   4.484   2.249
 4846TIP3    H214484   7.130   4.340   2.239
 4847TIP3   OH214485   2.373   1.182   6.579
 4847TIP3    H114486   2.279   1.199   6.581
 4847TIP3    H214487   2.409   1.250   6.523
 4848TIP3   OH214488   3.210   1.754   5.111
 4848TIP3    H114489   3.264   1.828   5.083
 4848TIP3    H214490   3.123   1.791   5.125
 4849TIP3   OH214491   4.690   2.306   6.472
 4849TIP3    H114492   4.651   2.238   6.418
 4849TIP3    H214493   4.776   2.272   6.496
 4850TIP3   OH214494   6.705   1.591   4.394
 4850TIP3    H114495   6.643   1.628   4.331
 4850TIP3    H214496   6.786   1.581   4.344
 4851TIP3   OH214497   3.420   4.598   2.905
 4851TIP3    H114498   3.330   4.596   2.938
 4851TIP3    H214499   3.415   4.560   2.818
 4852TIP3   OH214500   6.354   1.136   0.900
 4852TIP3    H114501   6.339   1.056   0.950
 4852TIP3    H214502   6.388   1.198   0.964
 4853TIP3   OH214503   1.136   2.806   6.492
 4853TIP3    H114504   1.162   2.764   6.411
 4853TIP3    H214505   1.163   2.745   6.561
 4854TIP3   OH214506   2.992   7.777   1.974
 4854TIP3    H114507   2.995   7.750   2.066
 4854TIP3    H214508   3.084   7.785   1.949
 4855TIP3   OH214509   6.193   2.859   3.991
 4855TIP3    H114510   6.153   2.817   3.915
 4855TIP3    H214511   6.131   2.843   4.063
 4856TIP3   OH214512   0.025   2.229   2.549
 4856TIP3    H114513   0.032   2.250   2.642
 4856TIP3    H214514   0.017   2.314   2.506
 4857TIP3   OH214515   1.488   1.648   4.736
 4857TIP3    H114516   1.533   1.572   4.774
 4857TIP3    H214517   1.520   1.722   4.787
 4858TIP3   OH214518   8.262   0.274   5.367
 4858TIP3    H114519   8.353   0.296   5.384
 4858TIP3    H214520   8.235   0.223   5.444
 4859TIP3   OH214521   5.903   4.726   4.156
 4859TIP3    H114522   5.913   4.696   4.247
 4859TIP3    H214523   5.972   4.792   4.145
 4860TIP3   OH214524   2.218   6.016   3.116
 4860TIP3    H114525   2.297   5.982   3.157
 4860TIP3    H214526   2.194   5.949   3.052
 4861TIP3   OH214527   4.111   2.006   0.599
 4861TIP3    H114528   4.128   2.038   0.687
 4861TIP3    H214529   4.198   1.991   0.562
 4862TIP3   OH214530   1.074   5.130   1.782
 4862TIP3    H114531   1.054   5.051   1.834
 4862TIP3    H214532   0.989   5.174   1.773
 4863TIP3   OH214533   6.123   4.723   6.586
 4863TIP3    H114534   6.156   4.668   6.657
 4863TIP3    H214535   6.183   4.708   6.513
 4864TIP3   OH214536   3.054   2.992   4.220
 4864TIP3    H114537   3.107   3.057   4.172
 4864TIP3    H214538   3.110   2.915   4.224
 4865TIP3   OH214539   3.998   0.090   4.062
 4865TIP3    H114540   4.090   0.079   4.039
 4865TIP3    H214541   3.965   0.153   3.998
 4866TIP3   OH214542   5.342   6.617   4.655
 4866TIP3    H114543   5.434   6.632   4.675
 4866TIP3    H214544   5.329   6.523   4.672
 4867TIP3   OH214545   1.908   3.561   5.829
 4867TIP3    H114546   1.849   3.489   5.850
 4867TIP3    H214547   1.862   3.640   5.859
 4868TIP3   OH214548   1.128   1.285   0.148
 4868TIP3    H114549   1.039   1.279   0.112
 4868TIP3    H214550   1.156   1.194   0.156
 4869TIP3   OH214551   4.459   2.131   3.837
 4869TIP3    H114552   4.506   2.125   3.754
 4869TIP3    H214553   4.374   2.091   3.819
 4870TIP3   OH214554   4.208   1.371   5.107
 4870TIP3    H114555   4.282   1.429   5.087
 4870TIP3    H214556   4.134   1.409   5.060
 4871TIP3   OH214557   0.101   1.263   2.440
 4871TIP3    H114558   0.160   1.338   2.438
 4871TIP3    H214559   0.154   1.190   2.406
 4872TIP3   OH214560   5.379   5.551   1.775
 4872TIP3    H114561   5.419   5.635   1.798
 4872TIP3    H214562   5.377   5.551   1.680
 4873TIP3   OH214563   4.510   6.988   6.011
 4873TIP3    H114564   4.440   6.931   6.040
 4873TIP3    H214565   4.586   6.962   6.063
 4874TIP3   OH214566   2.795   0.472   0.496
 4874TIP3    H114567   2.741   0.548   0.478
 4874TIP3    H214568   2.748   0.425   0.566
 4875TIP3   OH214569   7.647   5.217   1.411
 4875TIP3    H114570   7.700   5.183   1.483
 4875TIP3    H214571   7.658   5.154   1.340
 4876TIP3   OH214572   7.564   3.104   4.973
 4876TIP3    H114573   7.547   3.183   4.921
 4876TIP3    H214574   7.508   3.113   5.050
 4877TIP3   OH214575   1.553   2.845   4.782
 4877TIP3    H114576   1.604   2.767   4.800
 4877TIP3    H214577   1.618   2.916   4.778
 4878TIP3   OH214578   6.220   1.680   5.798
 4878TIP3    H114579   6.281   1.635   5.740
 4878TIP3    H214580   6.134   1.652   5.769
 4879TIP3   OH214581   8.113   6.681   4.923
 4879TIP3    H114582   8.173   6.716   4.857
 4879TIP3    H214583   8.133   6.730   5.002
 4880TIP3   OH214584   2.329   0.915   6.325
 4880TIP3    H114585   2.236   0.930   6.343
 4880TIP3    H214586   2.331   0.883   6.235
 4881TIP3   OH214587   8.084   7.647   2.569
 4881TIP3    H114588   8.153   7.596   2.611
 4881TIP3    H214589   8.039   7.585   2.511
 4882TIP3   OH214590   1.544   3.206   0.462
 4882TIP3    H114591   1.611   3.234   0.400
 4882TIP3    H214592   1.591   3.197   0.545
 4883TIP3   OH214593   3.900   3.078   4.274
 4883TIP3    H114594   3.978   3.027   4.256
 4883TIP3    H214595   3.830   3.014   4.285
 4884TIP3   OH214596   1.620   1.029   3.622
 4884TIP3    H114597   1.647   0.998   3.708
 4884TIP3    H214598   1.700   1.024   3.569
 4885TIP3   OH214599   7.163   3.798   0.164
 4885TIP3    H114600   7.251   3.837   0.156
 4885TIP3    H214601   7.159   3.766   0.254
 4886TIP3   OH214602   0.844   5.509   6.487
 4886TIP3    H114603   0.852   5.417   6.510
 4886TIP3    H214604   0.752   5.521   6.465
 4887TIP3   OH214605   7.798   4.498   1.579
 4887TIP3    H114606   7.724   4.475   1.635
 4887TIP3    H214607   7.848   4.561   1.631
 4888TIP3   OH214608   4.250   5.052   4.298
 4888TIP3    H114609   4.165   5.022   4.329
 4888TIP3    H214610   4.236   5.145   4.278
 4889TIP3   OH214611   7.677   7.477   6.038
 4889TIP3    H114612   7.749   7.420   6.064
 4889TIP3    H214613   7.716   7.540   5.978
 4890TIP3   OH214614   5.973   7.492   4.846
 4890TIP3    H114615   5.953   7.399   4.851
 4890TIP3    H214616   6.060   7.500   4.885
 4891TIP3   OH214617   3.582   6.280   6.137
 4891TIP3    H114618   3.594   6.304   6.045
 4891TIP3    H214619   3.627   6.196   6.146
 4892TIP3   OH214620   7.757   1.019   1.538
 4892TIP3    H114621   7.836   1.058   1.500
 4892TIP3    H214622   7.785   0.985   1.622
 4893TIP3   OH214623   2.016   1.063   3.785
 4893TIP3    H114624   1.995   0.977   3.748
 4893TIP3    H214625   2.047   1.044   3.874
 4894TIP3   OH214626   7.283   0.577   0.437
 4894TIP3    H114627   7.352   0.524   0.476
 4894TIP3    H214628   7.268   0.647   0.500
 4895TIP3   OH214629   6.677   2.657   6.664
 4895TIP3    H114630   6.771   2.677   6.669
 4895TIP3    H214631   6.664   2.629   6.573
 4896TIP3   OH214632   3.348   7.659   3.094
 4896TIP3    H114633   3.332   7.633   3.185
 4896TIP3    H214634   3.326   7.752   3.091
 4897TIP3   OH214635   6.020   0.293   3.310
 4897TIP3    H114636   6.071   0.220   3.346
 4897TIP3    H214637   5.953   0.310   3.376
 4898TIP3   OH214638   1.848   7.444   1.430
 4898TIP3    H114639   1.842   7.494   1.511
 4898TIP3    H214640   1.934   7.401   1.435
 4899TIP3   OH214641   6.724   3.067   5.661
 4899TIP3    H114642   6.658   3.127   5.626
 4899TIP3    H214643   6.718   2.989   5.606
 4900TIP3   OH214644   0.910   1.869   4.052
 4900TIP3    H114645   0.907   1.803   3.983
 4900TIP3    H214646   0.948   1.822   4.127
 4901TIP3   OH214647   5.576   2.992   3.846
 4901TIP3    H114648   5.488   3.016   3.875
 4901TIP3    H214649   5.628   2.987   3.926
 4902TIP3   OH214650   7.169   4.202   5.427
 4902TIP3    H114651   7.119   4.283   5.428
 4902TIP3    H214652   7.158   4.166   5.515
 4903TIP3   OH214653   4.898   2.009   3.997
 4903TIP3    H114654   4.826   1.981   3.942
 4903TIP3    H214655   4.940   2.080   3.948
 4904TIP3   OH214656   3.839   1.069   6.297
 4904TIP3    H114657   3.753   1.054   6.337
 4904TIP3    H214658   3.880   1.134   6.354
 4905TIP3   OH214659   7.025   5.427   5.692
 4905TIP3    H114660   7.045   5.334   5.699
 4905TIP3    H214661   6.969   5.434   5.614
 4906TIP3   OH214662   1.367   7.442   4.171
 4906TIP3    H114663   1.371   7.372   4.237
 4906TIP3    H214664   1.418   7.514   4.209
 4907TIP3   OH214665   6.111   4.211   0.466
 4907TIP3    H114666   6.145   4.191   0.379
 4907TIP3    H214667   6.016   4.203   0.457
 4908TIP3   OH214668   3.330   0.480   3.624
 4908TIP3    H114669   3.413   0.520   3.649
 4908TIP3    H214670   3.348   0.387   3.619
 4909TIP3   OH214671   7.481   0.426   3.438
 4909TIP3    H114672   7.490   0.407   3.532
 4909TIP3    H214673   7.393   0.396   3.416
 4910TIP3   OH214674   2.868   3.806   2.348
 4910TIP3    H114675   2.903   3.783   2.262
 4910TIP3    H214676   2.863   3.723   2.395
 4911TIP3   OH214677   0.373   0.123   0.067
 4911TIP3    H114678   0.326   0.136   0.149
 4911TIP3    H214679   0.459   0.163   0.083
 4912TIP3   OH214680   4.393   0.036   5.493
 4912TIP3    H114681   4.348   0.008   5.573
 4912TIP3    H214682   4.377  -0.035   5.431
 4913TIP3   OH214683   2.785   4.646   1.490
 4913TIP3    H114684   2.739   4.580   1.438
 4913TIP3    H214685   2.878   4.624   1.481
 4914TIP3   OH214686   4.031   6.248   0.469
 4914TIP3    H114687   4.076   6.196   0.535
 4914TIP3    H214688   4.098   6.309   0.438
 4915TIP3   OH214689   6.058   4.205   5.802
 4915TIP3    H114690   6.047   4.236   5.712
 4915TIP3    H214691   6.152   4.213   5.818
 4916TIP3   OH214692   4.907   4.132   3.145
 4916TIP3    H114693   4.994   4.116   3.183
 4916TIP3    H214694   4.923   4.137   3.051
 4917TIP3   OH214695   0.567   3.695   4.328
 4917TIP3    H114696   0.662   3.697   4.324
 4917TIP3    H214697   0.547   3.642   4.405
 4918TIP3   OH214698   4.107   5.907   0.328
 4918TIP3    H114699   4.150   5.989   0.355
 4918TIP3    H214700   4.015   5.922   0.348
 4919TIP3   OH214701   0.424   0.168   6.628
 4919TIP3    H114702   0.499   0.144   6.575
 4919TIP3    H214703   0.450   0.248   6.672
 4920TIP3   OH214704   0.173   6.789   3.380
 4920TIP3    H114705   0.143   6.745   3.460
 4920TIP3    H214706   0.123   6.747   3.310
 4921TIP3   OH214707   3.643   3.825   1.354
 4921TIP3    H114708   3.645   3.737   1.392
 4921TIP3    H214709   3.583   3.817   1.280
 4922TIP3   OH214710   6.113   4.585   6.222
 4922TIP3    H114711   6.097   4.528   6.147
 4922TIP3    H214712   6.132   4.671   6.184
 4923TIP3   OH214713   5.151   1.998   6.734
 4923TIP3    H114714   5.161   2.023   6.825
 4923TIP3    H214715   5.229   2.034   6.690
 4924TIP3   OH214716   3.011   6.358   3.265
 4924TIP3    H114717   3.039   6.350   3.174
 4924TIP3    H214718   3.049   6.281   3.308
 4925TIP3   OH214719   5.414   4.478   3.899
 4925TIP3    H114720   5.473   4.519   3.836
 4925TIP3    H214721   5.374   4.552   3.946
 4926TIP3   OH214722   2.341   4.522   0.227
 4926TIP3    H114723   2.415   4.555   0.176
 4926TIP3    H214724   2.377   4.508   0.314
 4927TIP3   OH214725   7.080   3.723   5.332
 4927TIP3    H114726   7.162   3.710   5.380
 4927TIP3    H214727   7.019   3.659   5.369
 4928TIP3   OH214728   5.861   0.219   1.087
 4928TIP3    H114729   5.926   0.180   1.145
 4928TIP3    H214730   5.913   0.270   1.024
 4929TIP3   OH214731   4.776   2.193   5.285
 4929TIP3    H114732   4.740   2.120   5.335
 4929TIP3    H214733   4.871   2.186   5.296
 4930TIP3   OH214734   4.349   5.463   5.380
 4930TIP3    H114735   4.305   5.393   5.331
 4930TIP3    H214736   4.346   5.433   5.471
 4931TIP3   OH214737   3.406   3.131   6.278
 4931TIP3    H114738   3.326   3.140   6.329
 4931TIP3    H214739   3.378   3.141   6.187
 4932TIP3   OH214740   2.707   7.210   3.163
 4932TIP3    H114741   2.619   7.203   3.200
 4932TIP3    H214742   2.700   7.279   3.097
 4933TIP3   OH214743   3.474   5.950   4.073
 4933TIP3    H114744   3.565   5.974   4.086
 4933TIP3    H214745   3.452   5.894   4.148
 4934TIP3   OH214746   5.534   6.442   0.788
 4934TIP3    H114747   5.493   6.397   0.714
 4934TIP3    H214748   5.511   6.534   0.776
 4935TIP3   OH214749   1.821   3.475   0.478
 4935TIP3    H114750   1.850   3.449   0.391
 4935TIP3    H214751   1.897   3.518   0.517
 4936TIP3   OH214752   1.224   3.315   2.873
 4936TIP3    H114753   1.278   3.266   2.935
 4936TIP3    H214754   1.237   3.407   2.896
 4937TIP3   OH214755   7.397   6.356   5.054
 4937TIP3    H114756   7.460   6.283   5.055
 4937TIP3    H214757   7.440   6.425   5.103
 4938TIP3   OH214758   6.303   1.875   5.153
 4938TIP3    H114759   6.353   1.800   5.119
 4938TIP3    H214760   6.212   1.848   5.144
 4939TIP3   OH214761   3.306   3.523   5.731
 4939TIP3    H114762   3.248   3.455   5.697
 4939TIP3    H214763   3.386   3.477   5.756
 4940TIP3   OH214764   7.646   2.248   4.920
 4940TIP3    H114765   7.561   2.220   4.886
 4940TIP3    H214766   7.641   2.231   5.014
 4941TIP3   OH214767   4.482   3.613   4.697
 4941TIP3    H114768   4.408   3.551   4.701
 4941TIP3    H214769   4.441   3.699   4.699
 4942TIP3   OH214770   0.144   6.424   1.583
 4942TIP3    H114771   0.063   6.435   1.632
 4942TIP3    H214772   0.119   6.371   1.507
 4943TIP3   OH214773   8.223   7.362   2.889
 4943TIP3    H114774   8.232   7.453   2.916
 4943TIP3    H214775   8.310   7.337   2.857
 4944TIP3   OH214776   0.521   6.310   1.028
 4944TIP3    H114777   0.613   6.317   1.000
 4944TIP3    H214778   0.526   6.305   1.124
 4945TIP3   OH214779   1.713   7.786   0.902
 4945TIP3    H114780   1.782   7.750   0.958
 4945TIP3    H214781   1.636   7.732   0.923
 4946TIP3   OH214782   7.997   1.726   5.903
 4946TIP3    H114783   7.985   1.636   5.870
 4946TIP3    H214784   8.013   1.778   5.824
 4947TIP3   OH214785   7.763   3.124   6.508
 4947TIP3    H114786   7.674   3.111   6.540
 4947TIP3    H214787   7.813   3.051   6.545
 4948TIP3   OH214788   3.784   5.332   2.376
 4948TIP3    H114789   3.750   5.422   2.382
 4948TIP3    H214790   3.877   5.343   2.358
 4949TIP3   OH214791   0.343   5.008   3.347
 4949TIP3    H114792   0.252   5.023   3.321
 4949TIP3    H214793   0.381   5.096   3.354
 4950TIP3   OH214794   3.417   0.670   4.142
 4950TIP3    H114795   3.389   0.609   4.074
 4950TIP3    H214796   3.343   0.675   4.202
 4951TIP3   OH214797   2.630   7.806   0.937
 4951TIP3    H114798   2.573   7.784   0.863
 4951TIP3    H214799   2.702   7.855   0.897
 4952TIP3   OH214800   4.055   4.803   0.354
 4952TIP3    H114801   4.099   4.802   0.439
 4952TIP3    H214802   4.100   4.871   0.304
 4953TIP3   OH214803   3.659   6.873   6.649
 4953TIP3    H114804   3.746   6.894   6.615
 4953TIP3    H214805   3.599   6.923   6.594
 4954TIP3   OH214806   6.777   0.877   3.696
 4954TIP3    H114807   6.814   0.822   3.765
 4954TIP3    H214808   6.683   0.855   3.696
 4955TIP3   OH214809   2.338   1.236   2.219
 4955TIP3    H114810   2.310   1.312   2.169
 4955TIP3    H214811   2.319   1.258   2.310
 4956TIP3   OH214812   4.376   6.822   6.177
 4956TIP3    H114813   4.426   6.746   6.147
 4956TIP3    H214814   4.376   6.814   6.273
 4957TIP3   OH214815   2.921   4.597   6.014
 4957TIP3    H114816   2.994   4.547   5.976
 4957TIP3    H214817   2.844   4.567   5.967
 4958TIP3   OH214818   4.744   2.222   1.361
 4958TIP3    H114819   4.741   2.137   1.404
 4958TIP3    H214820   4.741   2.202   1.267
 4959TIP3   OH214821   4.027   5.120   0.602
 4959TIP3    H114822   4.113   5.159   0.582
 4959TIP3    H214823   3.967   5.160   0.539
 4960TIP3   OH214824   1.485   0.686   1.382
 4960TIP3    H114825   1.430   0.619   1.340
 4960TIP3    H214826   1.451   0.769   1.349
 4961TIP3   OH214827   6.132   6.923   5.606
 4961TIP3    H114828   6.176   6.867   5.542
 4961TIP3    H214829   6.052   6.876   5.629
 4962TIP3   OH214830   2.009   0.936   0.099
 4962TIP3    H114831   1.954   0.921   0.175
 4962TIP3    H214832   2.083   0.988   0.132
 4963TIP3   OH214833   6.462   6.151   2.047
 4963TIP3    H114834   6.547   6.182   2.018
 4963TIP3    H214835   6.480   6.069   2.093
 4964TIP3   OH214836   3.049   5.785   0.233
 4964TIP3    H114837   3.129   5.822   0.195
 4964TIP3    H214838   2.998   5.755   0.158
 4965TIP3   OH214839   6.109   4.055   1.876
 4965TIP3    H114840   6.064   3.970   1.883
 4965TIP3    H214841   6.119   4.068   1.781
 4966TIP3   OH214842   5.602   0.430   3.439
 4966TIP3    H114843   5.509   0.410   3.451
 4966TIP3    H214844   5.612   0.520   3.470
 4967TIP3   OH214845   5.397   1.277   2.723
 4967TIP3    H114846   5.460   1.323   2.667
 4967TIP3    H214847   5.316   1.279   2.672
 4968TIP3   OH214848   2.724   3.760   0.572
 4968TIP3    H114849   2.737   3.828   0.506
 4968TIP3    H214850   2.629   3.755   0.583
 4969TIP3   OH214851   6.887   0.379   4.426
 4969TIP3    H114852   6.925   0.311   4.371
 4969TIP3    H214853   6.808   0.339   4.463
 4970TIP3   OH214854   2.831   5.143   5.645
 4970TIP3    H114855   2.903   5.193   5.608
 4970TIP3    H214856   2.860   5.119   5.733
 4971TIP3   OH214857   7.045   6.568   6.698
 4971TIP3    H114858   7.090   6.487   6.678
 4971TIP3    H214859   7.106   6.637   6.672
 4972TIP3   OH214860   4.669   5.431   2.053
 4972TIP3    H114861   4.719   5.350   2.040
 4972TIP3    H214862   4.715   5.496   1.999
 4973TIP3   OH214863   0.514   6.345   0.260
 4973TIP3    H114864   0.600   6.372   0.290
 4973TIP3    H214865   0.509   6.252   0.282
 4974TIP3   OH214866   1.466   1.914   1.040
 4974TIP3    H114867   1.401   1.865   0.989
 4974TIP3    H214868   1.518   1.847   1.084
 4975TIP3   OH214869   1.989   5.436   4.146
 4975TIP3    H114870   2.036   5.516   4.171
 4975TIP3    H214871   1.900   5.451   4.177
 4976TIP3   OH214872   7.453   7.385   4.628
 4976TIP3    H114873   7.425   7.474   4.650
 4976TIP3    H214874   7.501   7.355   4.705
 4977TIP3   OH214875   1.467   7.671   4.979
 4977TIP3    H114876   1.557   7.698   4.959
 4977TIP3    H214877   1.432   7.742   5.033
 4978TIP3   OH214878   5.821   5.613   1.349
 4978TIP3    H114879   5.891   5.554   1.321
 4978TIP3    H214880   5.841   5.696   1.306
 4979TIP3   OH214881   6.915   6.869   0.086
 4979TIP3    H114882   6.942   6.951   0.045
 4979TIP3    H214883   6.976   6.803   0.051
 4980TIP3   OH214884   7.276   0.222   2.806
 4980TIP3    H114885   7.298   0.201   2.897
 4980TIP3    H214886   7.292   0.316   2.798
 4981TIP3   OH214887   2.167   6.581   6.538
 4981TIP3    H114888   2.131   6.560   6.452
 4981TIP3    H214889   2.206   6.499   6.568
 4982TIP3   OH214890   0.420   6.099   1.472
 4982TIP3    H114891   0.397   6.139   1.556
 4982TIP3    H214892   0.376   6.013   1.474
 4983TIP3   OH214893   0.664   3.596   6.668
 4983TIP3    H114894   0.668   3.528   6.735
 4983TIP3    H214895   0.572   3.598   6.642
 4984TIP3   OH214896   5.590   0.486   5.565
 4984TIP3    H114897   5.509   0.483   5.618
 4984TIP3    H214898   5.585   0.407   5.511
 4985TIP3   OH214899   8.027   4.109   5.911
 4985TIP3    H114900   8.009   4.169   5.984
 4985TIP3    H214901   7.979   4.029   5.934
 4986TIP3   OH214902   0.020   3.185   4.997
 4986TIP3    H114903  -0.027   3.212   5.077
 4986TIP3    H214904   0.106   3.158   5.028
 4987TIP3   OH214905   1.540   1.063   0.838
 4987TIP3    H114906   1.505   1.084   0.751
 4987TIP3    H214907   1.625   1.022   0.821
 4988TIP3   OH214908   7.958   3.217   1.063
 4988TIP3    H114909   7.870   3.246   1.040
 4988TIP3    H214910   7.979   3.264   1.143
 4989TIP3   OH214911   1.799   7.201   0.414
 4989TIP3    H114912   1.800   7.113   0.375
 4989TIP3    H214913   1.792   7.185   0.508
 4990TIP3   OH214914   0.567   2.535   6.124
 4990TIP3    H114915   0.479   2.515   6.094
 4990TIP3    H214916   0.582   2.476   6.198
 4991TIP3   OH214917   3.076   1.362   6.396
 4991TIP3    H114918   3.088   1.288   6.337
 4991TIP3    H214919   2.985   1.390   6.382
 4992TIP3   OH214920   6.557   6.295   5.399
 4992TIP3    H114921   6.566   6.270   5.307
 4992TIP3    H214922   6.646   6.317   5.427
 4993TIP3   OH214923   2.120   7.318   5.117
 4993TIP3    H114924   2.148   7.299   5.206
 4993TIP3    H214925   2.182   7.384   5.086
 4994TIP3   OH214926   1.238   1.718   4.800
 4994TIP3    H114927   1.271   1.693   4.886
 4994TIP3    H214928   1.304   1.687   4.738
 4995TIP3   OH214929   0.236   1.312   5.929
 4995TIP3    H114930   0.231   1.315   5.834
 4995TIP3    H214931   0.183   1.236   5.954
 4996TIP3   OH214932   6.789   0.471   1.032
 4996TIP3    H114933   6.826   0.534   1.094
 4996TIP3    H214934   6.749   0.403   1.088
 4997TIP3   OH214935   2.431   1.542   2.302
 4997TIP3    H114936   2.451   1.633   2.282
 4997TIP3    H214937   2.351   1.523   2.251
 4998TIP3   OH214938   2.661   1.165   0.861
 4998TIP3    H114939   2.700   1.146   0.776
 4998TIP3    H214940   2.566   1.154   0.847
 4999TIP3   OH214941   6.519   1.531   4.897
 4999TIP3    H114942   6.499   1.625   4.895
 4999TIP3    H214943   6.465   1.493   4.827
 5000TIP3   OH214944   5.276   0.389   4.382
 5000TIP3    H114945   5.363   0.427   4.391
 5000TIP3    H214946   5.217   0.455   4.420
 5001TIP3   OH214947   7.900   5.640   4.512
 5001TIP3    H114948   7.974   5.580   4.506
 5001TIP3    H214949   7.939   5.723   4.542
 5002TIP3   OH214950   7.958   0.852   0.420
 5002TIP3    H114951   8.041   0.814   0.450
 5002TIP3    H214952   7.974   0.947   0.421
 5003TIP3   OH214953   2.695   4.778   6.408
 5003TIP3    H114954   2.778   4.736   6.388
 5003TIP3    H214955   2.694   4.857   6.353
 5004TIP3   OH214956   7.618   3.234   1.231
 5004TIP3    H114957   7.664   3.268   1.154
 5004TIP3    H214958   7.532   3.210   1.198
 5005TIP3   OH214959   2.088   1.052   0.745
 5005TIP3    H114960   2.081   1.129   0.802
 5005TIP3    H214961   2.156   0.998   0.786
 5006TIP3   OH214962   3.738   2.318   0.461
 5006TIP3    H114963   3.790   2.338   0.383
 5006TIP3    H214964   3.802   2.314   0.532
 5007TIP3   OH214965   8.075   5.268   4.802
 5007TIP3    H114966   8.111   5.272   4.714
 5007TIP3    H214967   8.036   5.181   4.808
 5008TIP3   OH214968   3.607   2.101   3.840
 5008TIP3    H114969   3.518   2.113   3.807
 5008TIP3    H214970   3.614   2.164   3.912
 5009TIP3   OH214971   2.135   3.127   4.054
 5009TIP3    H114972   2.119   3.066   3.981
 5009TIP3    H214973   2.084   3.205   4.032
 5010TIP3   OH214974   7.279   6.054   5.655
 5010TIP3    H114975   7.350   5.995   5.629
 5010TIP3    H214976   7.282   6.054   5.750
 5011TIP3   OH214977   5.827   3.079   4.536
 5011TIP3    H114978   5.894   3.053   4.598
 5011TIP3    H214979   5.780   3.151   4.579
 5012TIP3   OH214980   7.623   1.360   0.968
 5012TIP3    H114981   7.546   1.350   0.913
 5012TIP3    H214982   7.594   1.332   1.055
 5013TIP3   OH214983   4.417   2.976   1.642
 5013TIP3    H114984   4.432   2.987   1.736
 5013TIP3    H214985   4.441   3.060   1.603
 5014TIP3   OH214986   3.066   5.275   4.576
 5014TIP3    H114987   3.098   5.362   4.551
 5014TIP3    H214988   2.974   5.289   4.599
 5015TIP3   OH214989   6.804   2.573  -0.001
 5015TIP3    H114990   6.847   2.503  -0.050
 5015TIP3    H214991   6.750   2.527   0.064
 5016TIP3   OH214992   5.939   4.226   0.092
 5016TIP3    H114993   6.010   4.198   0.150
 5016TIP3    H214994   5.897   4.145   0.065
 5017TIP3   OH214995   6.087   7.619   1.953
 5017TIP3    H114996   6.174   7.635   1.991
 5017TIP3    H214997   6.046   7.705   1.951
 5018TIP3   OH214998   4.548   4.622   6.369
 5018TIP3    H114999   4.529   4.671   6.449
 5018TIP3    H215000   4.610   4.554   6.397
 5019TIP3   OH215001   7.433   2.891   3.478
 5019TIP3    H115002   7.454   2.888   3.384
 5019TIP3    H215003   7.472   2.811   3.514
 5020TIP3   OH215004   2.461   5.448   1.232
 5020TIP3    H115005   2.541   5.423   1.278
 5020TIP3    H215006   2.430   5.366   1.192
 5021TIP3   OH215007   5.869   4.524   2.618
 5021TIP3    H115008   5.912   4.442   2.640
 5021TIP3    H215009   5.776   4.506   2.624
 5022TIP3   OH215010   3.286   1.195   3.423
 5022TIP3    H115011   3.213   1.147   3.384
 5022TIP3    H215012   3.255   1.286   3.428
 5023TIP3   OH215013   8.307   6.735   2.179
 5023TIP3    H115014   8.333   6.648   2.210
 5023TIP3    H215015   8.257   6.718   2.099
 5024TIP3   OH215016   5.996   0.363   2.773
 5024TIP3    H115017   5.955   0.449   2.762
 5024TIP3    H215018   6.021   0.360   2.866
 5025TIP3   OH215019   1.997   2.598   0.601
 5025TIP3    H115020   1.972   2.524   0.657
 5025TIP3    H215021   2.022   2.667   0.662
 5026TIP3   OH215022   7.648   1.869   2.631
 5026TIP3    H115023   7.621   1.793   2.683
 5026TIP3    H215024   7.716   1.912   2.683
 5027TIP3   OH215025   1.865   4.604   5.829
 5027TIP3    H115026   1.886   4.625   5.920
 5027TIP3    H215027   1.922   4.530   5.807
 5028TIP3   OH215028   3.680   3.784   4.303
 5028TIP3    H115029   3.684   3.759   4.211
 5028TIP3    H215030   3.605   3.844   4.309
 5029TIP3   OH215031   2.639   3.809   2.583
 5029TIP3    H115032   2.681   3.790   2.499
 5029TIP3    H215033   2.595   3.728   2.608
 5030TIP3   OH215034   6.631   5.298   4.569
 5030TIP3    H115035   6.586   5.286   4.485
 5030TIP3    H215036   6.708   5.350   4.548
 5031TIP3   OH215037   7.174   1.214   3.013
 5031TIP3    H115038   7.110   1.165   2.962
 5031TIP3    H215039   7.123   1.286   3.052
 5032TIP3   OH215040   3.377   6.701   2.677
 5032TIP3    H115041   3.296   6.650   2.681
 5032TIP3    H215042   3.393   6.712   2.584
 5033TIP3   OH215043   2.252   4.747   0.425
 5033TIP3    H115044   2.258   4.742   0.521
 5033TIP3    H215045   2.258   4.655   0.397
 5034TIP3   OH215046   1.289   2.517   1.273
 5034TIP3    H115047   1.220   2.497   1.211
 5034TIP3    H215048   1.264   2.472   1.353
 5035TIP3   OH215049   8.127   6.255   3.095
 5035TIP3    H115050   8.193   6.205   3.047
 5035TIP3    H215051   8.105   6.327   3.037
 5036TIP3   OH215052   3.649   6.970   0.382
 5036TIP3    H115053   3.702   6.953   0.305
 5036TIP3    H215054   3.568   6.921   0.367
 5037TIP3   OH215055   3.368   2.325   4.889
 5037TIP3    H115056   3.439   2.294   4.834
 5037TIP3    H215057   3.402   2.317   4.978
 5038TIP3   OH215058   5.297   1.588   1.191
 5038TIP3    H115059   5.369   1.589   1.253
 5038TIP3    H215060   5.299   1.674   1.150
 5039TIP3   OH215061   3.992   6.707   6.369
 5039TIP3    H115062   4.033   6.717   6.283
 5039TIP3    H215063   4.062   6.673   6.425
 5040TIP3   OH215064   1.219   5.359   4.773
 5040TIP3    H115065   1.296   5.336   4.722
 5040TIP3    H215066   1.176   5.428   4.722
 5041TIP3   OH215067   8.083   1.146   3.480
 5041TIP3    H115068   8.010   1.110   3.529
 5041TIP3    H215069   8.141   1.072   3.464
 5042TIP3   OH215070   4.221   2.040   3.651
 5042TIP3    H115071   4.242   2.120   3.603
 5042TIP3    H215072   4.126   2.041   3.659
 5043TIP3   OH215073   5.986   7.435   2.653
 5043TIP3    H115074   5.924   7.378   2.699
 5043TIP3    H215075   5.933   7.511   2.627
 5044TIP3   OH215076   7.833   1.904   0.014
 5044TIP3    H115077   7.876   1.819   0.027
 5044TIP3    H215078   7.903   1.963  -0.014
 5045TIP3   OH215079   7.228   1.080   3.647
 5045TIP3    H115080   7.241   1.173   3.629
 5045TIP3    H215081   7.314   1.040   3.633
 5046TIP3   OH215082   7.727   6.139   1.475
 5046TIP3    H115083   7.740   6.047   1.494
 5046TIP3    H215084   7.642   6.161   1.513
 5047TIP3   OH215085   0.953   6.539   0.400
 5047TIP3    H115086   1.006   6.469   0.436
 5047TIP3    H215087   0.895   6.496   0.337
 5048TIP3   OH215088   1.136   4.381   3.972
 5048TIP3    H115089   1.154   4.464   3.926
 5048TIP3    H215090   1.093   4.327   3.906
 5049TIP3   OH215091   5.342   2.160   2.111
 5049TIP3    H115092   5.323   2.077   2.067
 5049TIP3    H215093   5.292   2.225   2.061
 5050TIP3   OH215094   1.545   5.114   4.194
 5050TIP3    H115095   1.498   5.090   4.273
 5050TIP3    H215096   1.480   5.110   4.124
 5051TIP3   OH215097   7.018   5.979   0.378
 5051TIP3    H115098   6.960   5.924   0.326
 5051TIP3    H215099   7.105   5.941   0.366
 5052TIP3   OH215100   4.772   0.030   1.402
 5052TIP3    H115101   4.829   0.014   1.327
 5052TIP3    H215102   4.700  -0.032   1.391
 5053TIP3   OH215103   2.841   5.754   6.405
 5053TIP3    H115104   2.899   5.825   6.432
 5053TIP3    H215105   2.889   5.709   6.335
 5054TIP3   OH215106   4.605   4.460   1.294
 5054TIP3    H115107   4.579   4.515   1.368
 5054TIP3    H215108   4.560   4.499   1.219
 5055TIP3   OH215109   7.437   7.441   1.910
 5055TIP3    H115110   7.532   7.431   1.921
 5055TIP3    H215111   7.414   7.376   1.843
 5056TIP3   OH215112   0.073   1.014   2.955
 5056TIP3    H115113   0.033   1.038   3.039
 5056TIP3    H215114   0.167   1.015   2.972
 5057TIP3   OH215115   3.200   0.007   5.080
 5057TIP3    H115116   3.278   0.051   5.044
 5057TIP3    H215117   3.233  -0.043   5.154
 5058TIP3   OH215118   6.860   1.175   5.780
 5058TIP3    H115119   6.848   1.254   5.727
 5058TIP3    H215120   6.949   1.145   5.759
 5059TIP3   OH215121   8.071   4.468   0.071
 5059TIP3    H115122   8.013   4.460  -0.005
 5059TIP3    H215123   8.144   4.521   0.040
 5060TIP3   OH215124   7.805   1.980   4.579
 5060TIP3    H115125   7.856   2.054   4.613
 5060TIP3    H215126   7.838   1.966   4.491
 5061TIP3   OH215127   5.147   5.082   4.809
 5061TIP3    H115128   5.057   5.080   4.774
 5061TIP3    H215129   5.136   5.113   4.899
 5062TIP3   OH215130   5.432   5.703   6.294
 5062TIP3    H115131   5.424   5.618   6.337
 5062TIP3    H215132   5.522   5.706   6.262
 5063TIP3   OH215133   6.590   7.187   1.957
 5063TIP3    H115134   6.567   7.275   1.985
 5063TIP3    H215135   6.516   7.159   1.903
 5064TIP3   OH215136   2.963   5.054   0.134
 5064TIP3    H115137   2.938   4.974   0.182
 5064TIP3    H215138   2.904   5.121   0.168
 5065TIP3   OH215139   1.014   6.042   5.103
 5065TIP3    H115140   0.983   6.004   5.185
 5065TIP3    H215141   1.075   6.111   5.130
 5066TIP3   OH215142   7.896   5.623   2.495
 5066TIP3    H115143   7.875   5.672   2.415
 5066TIP3    H215144   7.847   5.667   2.564
 5067TIP3   OH215145   1.060   3.213   4.765
 5067TIP3    H115146   1.109   3.142   4.806
 5067TIP3    H215147   1.024   3.175   4.685
 5068TIP3   OH215148   6.468   6.728   4.639
 5068TIP3    H115149   6.526   6.749   4.712
 5068TIP3    H215150   6.415   6.655   4.671
 5069TIP3   OH215151   1.363   3.787   1.134
 5069TIP3    H115152   1.303   3.861   1.135
 5069TIP3    H215153   1.386   3.776   1.042
 5070TIP3   OH215154   7.621   6.383   1.101
 5070TIP3    H115155   7.539   6.404   1.144
 5070TIP3    H215156   7.596   6.326   1.028
 5071TIP3   OH215157   1.409   2.422   6.031
 5071TIP3    H115158   1.332   2.380   6.070
 5071TIP3    H215159   1.401   2.404   5.937
 5072TIP3   OH215160   5.079   5.334   1.212
 5072TIP3    H115161   5.041   5.252   1.180
 5072TIP3    H215162   5.123   5.310   1.294
 5073TIP3   OH215163   2.157   4.274   1.269
 5073TIP3    H115164   2.213   4.351   1.282
 5073TIP3    H215165   2.159   4.259   1.175
 5074TIP3   OH215166   3.395   6.281   4.371
 5074TIP3    H115167   3.313   6.325   4.392
 5074TIP3    H215168   3.375   6.230   4.292
 5075TIP3   OH215169   8.122   7.427   5.719
 5075TIP3    H115170   8.161   7.382   5.644
 5075TIP3    H215171   8.196   7.468   5.764
 5076TIP3   OH215172   3.487   2.574   5.614
 5076TIP3    H115173   3.429   2.550   5.686
 5076TIP3    H215174   3.542   2.644   5.650
 5077TIP3   OH215175   0.959   7.150   1.745
 5077TIP3    H115176   1.003   7.132   1.662
 5077TIP3    H215177   0.926   7.064   1.773
 5078TIP3   OH215178   1.807   0.885   4.110
 5078TIP3    H115179   1.898   0.899   4.085
 5078TIP3    H215180   1.809   0.804   4.162
 5079TIP3   OH215181   2.409   2.271   1.755
 5079TIP3    H115182   2.473   2.317   1.809
 5079TIP3    H215183   2.419   2.178   1.779
 5080TIP3   OH215184   0.099   4.862   5.238
 5080TIP3    H115185   0.037   4.908   5.294
 5080TIP3    H215186   0.130   4.789   5.291
 5081TIP3   OH215187   4.290   4.169   0.653
 5081TIP3    H115188   4.251   4.106   0.591
 5081TIP3    H215189   4.343   4.115   0.712
 5082TIP3   OH215190   2.953   7.753   6.260
 5082TIP3    H115191   3.007   7.675   6.259
 5082TIP3    H215192   2.865   7.721   6.283
 5083TIP3   OH215193   5.602   5.267   5.852
 5083TIP3    H115194   5.603   5.352   5.807
 5083TIP3    H215195   5.684   5.225   5.826
 5084TIP3   OH215196   5.455   1.857   4.347
 5084TIP3    H115197   5.477   1.896   4.263
 5084TIP3    H215198   5.493   1.769   4.343
 5085TIP3   OH215199   0.601   5.013   1.240
 5085TIP3    H115200   0.548   5.005   1.319
 5085TIP3    H215201   0.679   4.960   1.258
 5086TIP3   OH215202   6.564   7.405   6.081
 5086TIP3    H115203   6.653   7.401   6.115
 5086TIP3    H215204   6.564   7.347   6.005
 5087TIP3   OH215205   1.279   5.226   4.997
 5087TIP3    H115206   1.288   5.306   4.945
 5087TIP3    H215207   1.198   5.186   4.965
 5088TIP3   OH215208   8.238   5.767   2.078
 5088TIP3    H115209   8.299   5.707   2.035
 5088TIP3    H215210   8.258   5.852   2.040
 5089TIP3   OH215211   7.839   0.265   2.120
 5089TIP3    H115212   7.868   0.212   2.194
 5089TIP3    H215213   7.750   0.235   2.102
 5090TIP3   OH215214   0.081   4.637   2.573
 5090TIP3    H115215   0.022   4.571   2.540
 5090TIP3    H215216   0.101   4.609   2.663
 5091TIP3   OH215217   5.125   1.600   1.765
 5091TIP3    H115218   5.136   1.505   1.769
 5091TIP3    H215219   5.120   1.627   1.856
 5092TIP3   OH215220   8.154   6.886   0.959
 5092TIP3    H115221   8.248   6.868   0.954
 5092TIP3    H215222   8.123   6.833   1.032
 5093TIP3   OH215223   2.245   3.692   1.783
 5093TIP3    H115224   2.331   3.650   1.789
 5093TIP3    H215225   2.264   3.779   1.748
 5094TIP3   OH215226   7.176   1.409   2.744
 5094TIP3    H115227   7.201   1.382   2.832
 5094TIP3    H215228   7.098   1.356   2.724
 5095TIP3   OH215229   4.160   2.333   1.109
 5095TIP3    H115230   4.102   2.268   1.149
 5095TIP3    H215231   4.217   2.361   1.181
 5096TIP3   OH215232   7.926   5.976   2.395
 5096TIP3    H115233   7.882   5.897   2.366
 5096TIP3    H215234   8.018   5.963   2.371
 5097TIP3   OH215235   3.756   0.242   5.493
 5097TIP3    H115236   3.825   0.309   5.485
 5097TIP3    H215237   3.792   0.178   5.555
 5098TIP3   OH215238   4.125   6.466   5.683
 5098TIP3    H115239   4.170   6.385   5.707
 5098TIP3    H215240   4.073   6.488   5.760
 5099TIP3   OH215241   0.714   2.185   3.316
 5099TIP3    H115242   0.683   2.217   3.401
 5099TIP3    H215243   0.809   2.196   3.320
 5100TIP3   OH215244   2.610   7.410   4.060
 5100TIP3    H115245   2.673   7.370   4.120
 5100TIP3    H215246   2.601   7.347   3.989
 5101TIP3   OH215247   1.614   5.968   1.190
 5101TIP3    H115248   1.570   5.939   1.270
 5101TIP3    H215249   1.620   6.063   1.200
 5102TIP3   OH215250   3.274   2.457   3.453
 5102TIP3    H115251   3.193   2.496   3.487
 5102TIP3    H215252   3.274   2.480   3.360
 5103TIP3   OH215253   6.464   2.537   5.554
 5103TIP3    H115254   6.490   2.612   5.608
 5103TIP3    H215255   6.369   2.542   5.551
 5104TIP3   OH215256   6.476   6.181   6.266
 5104TIP3    H115257   6.450   6.119   6.198
 5104TIP3    H215258   6.432   6.262   6.242
 5105TIP3   OH215259   6.165   7.589   6.512
 5105TIP3    H115260   6.233   7.571   6.576
 5105TIP3    H215261   6.194   7.544   6.433
 5106TIP3   OH215262   0.873   4.105   2.771
 5106TIP3    H115263   0.917   4.098   2.856
 5106TIP3    H215264   0.890   4.021   2.728
 5107TIP3   OH215265   0.352   2.052   0.386
 5107TIP3    H115266   0.332   2.126   0.442
 5107TIP3    H215267   0.444   2.062   0.363
 5108TIP3   OH215268   2.570   5.205   2.011
 5108TIP3    H115269   2.610   5.155   1.939
 5108TIP3    H215270   2.578   5.147   2.087
 5109TIP3   OH215271   2.513   5.053   4.259
 5109TIP3    H115272   2.466   5.135   4.271
 5109TIP3    H215273   2.591   5.061   4.313
 5110TIP3   OH215274   7.273   4.274   3.050
 5110TIP3    H115275   7.222   4.283   3.131
 5110TIP3    H215276   7.235   4.339   2.990
 5111TIP3   OH215277   3.276   5.853   2.024
 5111TIP3    H115278   3.267   5.859   1.929
 5111TIP3    H215279   3.192   5.882   2.058
 5112TIP3   OH215280   7.558   5.705   0.758
 5112TIP3    H115281   7.619   5.640   0.722
 5112TIP3    H215282   7.603   5.789   0.745
 5113TIP3   OH215283   5.730   1.864   4.306
 5113TIP3    H115284   5.719   1.927   4.378
 5113TIP3    H215285   5.694   1.782   4.341
 5114TIP3   OH215286   6.986   0.771   0.571
 5114TIP3    H115287   6.919   0.723   0.620
 5114TIP3    H215288   6.984   0.859   0.606
 5115TIP3   OH215289   6.942   1.129   4.384
 5115TIP3    H115290   7.037   1.134   4.394
 5115TIP3    H215291   6.922   1.036   4.394
 5116TIP3   OH215292   1.759   3.784   5.881
 5116TIP3    H115293   1.670   3.803   5.852
 5116TIP3    H215294   1.787   3.863   5.928
 5117TIP3   OH215295   0.122   3.734   2.499
 5117TIP3    H115296   0.112   3.829   2.497
 5117TIP3    H215297   0.169   3.716   2.580
 5118TIP3   OH215298   0.118   2.556   3.650
 5118TIP3    H115299   0.205   2.559   3.691
 5118TIP3    H215300   0.122   2.480   3.591
 5119TIP3   OH215301   1.220   5.494   6.111
 5119TIP3    H115302   1.264   5.575   6.137
 5119TIP3    H215303   1.142   5.523   6.063
 5120TIP3   OH215304   7.539   7.070   3.857
 5120TIP3    H115305   7.538   6.994   3.916
 5120TIP3    H215306   7.544   7.146   3.915
 5121TIP3   OH215307   5.677   7.260   3.448
 5121TIP3    H115308   5.601   7.257   3.506
 5121TIP3    H215309   5.734   7.190   3.480
 5122TIP3   OH215310   5.896   0.615   2.768
 5122TIP3    H115311   5.863   0.675   2.835
 5122TIP3    H215312   5.823   0.605   2.707
 5123TIP3   OH215313   6.515   0.077   3.606
 5123TIP3    H115314   6.504   0.058   3.513
 5123TIP3    H215315   6.430   0.057   3.645
 5124TIP3   OH215316   5.931   0.248   1.801
 5124TIP3    H115317   5.886   0.332   1.796
 5124TIP3    H215318   5.886   0.193   1.736
 5125TIP3   OH215319   7.196   6.717   0.794
 5125TIP3    H115320   7.282   6.758   0.788
 5125TIP3    H215321   7.213   6.624   0.780
 5126TIP3   OH215322   0.097   7.806   3.126
 5126TIP3    H115323   0.172   7.749   3.143
 5126TIP3    H215324   0.049   7.806   3.209
 5127TIP3   OH215325   0.507   1.573   0.635
 5127TIP3    H115326   0.520   1.489   0.592
 5127TIP3    H215327   0.522   1.638   0.566
 5128TIP3   OH215328   5.396   4.793   0.321
 5128TIP3    H115329   5.469   4.748   0.278
 5128TIP3    H215330   5.427   4.883   0.332
 5129TIP3   OH215331   6.787   1.276   3.469
 5129TIP3    H115332   6.863   1.332   3.452
 5129TIP3    H215333   6.820   1.208   3.527
 5130TIP3   OH215334   1.090   7.468   3.704
 5130TIP3    H115335   1.094   7.434   3.794
 5130TIP3    H215336   1.008   7.515   3.700
 5131TIP3   OH215337   4.729   0.887   2.472
 5131TIP3    H115338   4.677   0.961   2.440
 5131TIP3    H215339   4.666   0.817   2.486
 5132TIP3   OH215340   4.157   1.767   1.181
 5132TIP3    H115341   4.212   1.694   1.208
 5132TIP3    H215342   4.187   1.788   1.092
 5133TIP3   OH215343   3.545   3.064   1.320
 5133TIP3    H115344   3.462   3.080   1.275
 5133TIP3    H215345   3.596   3.011   1.258
 5134TIP3   OH215346   5.307   4.991   1.576
 5134TIP3    H115347   5.395   5.025   1.564
 5134TIP3    H215348   5.319   4.908   1.623
 5135TIP3   OH215349   4.802   1.557   4.563
 5135TIP3    H115350   4.829   1.607   4.486
 5135TIP3    H215351   4.883   1.534   4.607
 5136TIP3   OH215352   7.517   1.279   1.726
 5136TIP3    H115353   7.558   1.198   1.757
 5136TIP3    H215354   7.433   1.283   1.773
 5137TIP3   OH215355   8.109   7.562   3.383
 5137TIP3    H115356   8.125   7.485   3.329
 5137TIP3    H215357   8.051   7.530   3.453
 5138TIP3   OH215358   5.735   3.338   4.582
 5138TIP3    H115359   5.770   3.349   4.493
 5138TIP3    H215360   5.640   3.336   4.570
 5139TIP3   OH215361   0.049   1.794   4.857
 5139TIP3    H115362  -0.043   1.778   4.837
 5139TIP3    H215363   0.086   1.828   4.776
 5140TIP3   OH215364   4.622   0.262   6.568
 5140TIP3    H115365   4.536   0.280   6.608
 5140TIP3    H215366   4.661   0.348   6.554
 5141TIP3   OH215367   8.054   1.010   4.662
 5141TIP3    H115368   8.137   1.026   4.707
 5141TIP3    H215369   8.029   1.094   4.625
 5142TIP3   OH215370   2.507   1.810   1.287
 5142TIP3    H115371   2.582   1.801   1.229
 5142TIP3    H215372   2.514   1.899   1.321
 5143TIP3   OH215373   2.130   4.282   4.287
 5143TIP3    H115374   2.104   4.199   4.326
 5143TIP3    H215375   2.162   4.259   4.200
 5144TIP3   OH215376   1.816   5.896   1.855
 5144TIP3    H115377   1.808   5.856   1.768
 5144TIP3    H215378   1.879   5.966   1.843
 5145TIP3   OH215379   7.268   7.155   2.218
 5145TIP3    H115380   7.321   7.148   2.297
 5145TIP3    H215381   7.331   7.169   2.147
 5146TIP3   OH215382   2.495   7.682   0.399
 5146TIP3    H115383   2.568   7.701   0.340
 5146TIP3    H215384   2.455   7.603   0.364
 5147TIP3   OH215385   4.038   2.874   1.705
 5147TIP3    H115386   3.948   2.891   1.679
 5147TIP3    H215387   4.090   2.891   1.626
 5148TIP3   OH215388   1.078   4.836   1.459
 5148TIP3    H115389   1.146   4.773   1.437
 5148TIP3    H215390   1.125   4.917   1.478
 5149TIP3   OH215391   4.538   5.660   0.869
 5149TIP3    H115392   4.553   5.755   0.866
 5149TIP3    H215393   4.557   5.630   0.780
 5150TIP3   OH215394   1.980   6.040   2.730
 5150TIP3    H115395   1.943   6.055   2.817
 5150TIP3    H215396   2.035   5.962   2.740
 5151TIP3   OH215397   1.794   4.551   4.932
 5151TIP3    H115398   1.750   4.527   5.013
 5151TIP3    H215399   1.743   4.624   4.897
 5152TIP3   OH215400   5.141   3.432   4.214
 5152TIP3    H115401   5.220   3.467   4.257
 5152TIP3    H215402   5.130   3.345   4.252
 5153TIP3   OH215403   1.753   6.855   0.949
 5153TIP3    H115404   1.801   6.909   1.012
 5153TIP3    H215405   1.677   6.823   0.998
 5154TIP3   OH215406   2.979   3.423   4.074
 5154TIP3    H115407   2.898   3.473   4.073
 5154TIP3    H215408   3.022   3.447   4.156
 5155TIP3   OH215409   3.934   1.017   4.143
 5155TIP3    H115410   3.903   1.012   4.053
 5155TIP3    H215411   3.967   1.106   4.153
 5156TIP3   OH215412   4.384   6.154   3.950
 5156TIP3    H115413   4.410   6.206   3.874
 5156TIP3    H215414   4.310   6.202   3.988
 5157TIP3   OH215415   0.600   7.797   5.955
 5157TIP3    H115416   0.620   7.779   5.863
 5157TIP3    H215417   0.607   7.892   5.963
 5158TIP3   OH215418   0.675   7.534   6.086
 5158TIP3    H115419   0.580   7.531   6.074
 5158TIP3    H215420   0.698   7.625   6.065
 5159TIP3   OH215421   1.251   4.156   2.498
 5159TIP3    H115422   1.175   4.202   2.532
 5159TIP3    H215423   1.316   4.161   2.568
 5160TIP3   OH215424   0.491   2.003   4.029
 5160TIP3    H115425   0.583   2.027   4.041
 5160TIP3    H215426   0.488   1.910   4.052
 5161TIP3   OH215427   8.273   6.443   1.126
 5161TIP3    H115428   8.290   6.487   1.043
 5161TIP3    H215429   8.256   6.514   1.188
 5162TIP3   OH215430   2.575   7.173   5.173
 5162TIP3    H115431   2.527   7.184   5.255
 5162TIP3    H215432   2.661   7.211   5.190
 5163TIP3   OH215433   2.625   4.025   2.132
 5163TIP3    H115434   2.600   3.935   2.150
 5163TIP3    H215435   2.625   4.067   2.218
 5164TIP3   OH215436   4.959   0.498   5.281
 5164TIP3    H115437   4.969   0.452   5.365
 5164TIP3    H215438   4.982   0.432   5.215
 5165TIP3   OH215439   6.374   6.152   5.908
 5165TIP3    H115440   6.352   6.237   5.870
 5165TIP3    H215441   6.469   6.150   5.910
 5166TIP3   OH215442   6.067   1.395   4.837
 5166TIP3    H115443   6.059   1.365   4.746
 5166TIP3    H215444   5.984   1.438   4.855
 5167TIP3   OH215445   0.491   5.405   0.754
 5167TIP3    H115446   0.480   5.478   0.814
 5167TIP3    H215447   0.558   5.434   0.692
 5168TIP3   OH215448   0.584   4.200   5.978
 5168TIP3    H115449   0.600   4.218   5.886
 5168TIP3    H215450   0.659   4.148   6.006
 5169TIP3   OH215451   1.787   5.007   4.263
 5169TIP3    H115452   1.870   5.047   4.237
 5169TIP3    H215453   1.720   5.056   4.215
 5170TIP3   OH215454   3.794   0.502   4.900
 5170TIP3    H115455   3.797   0.498   4.996
 5170TIP3    H215456   3.845   0.580   4.878
 5171TIP3   OH215457   6.420   1.515   0.683
 5171TIP3    H115458   6.507   1.510   0.721
 5171TIP3    H215459   6.434   1.525   0.589
 5172TIP3   OH215460   4.714   5.838   2.311
 5172TIP3    H115461   4.761   5.770   2.263
 5172TIP3    H215462   4.772   5.861   2.384
 5173TIP3   OH215463   3.840   2.780   4.038
 5173TIP3    H115464   3.907   2.748   4.099
 5173TIP3    H215465   3.807   2.700   3.997
 5174TIP3   OH215466   2.916   5.587   5.602
 5174TIP3    H115467   2.957   5.669   5.574
 5174TIP3    H215468   2.822   5.606   5.599
 5175TIP3   OH215469   2.944   0.924   4.394
 5175TIP3    H115470   2.891   0.872   4.334
 5175TIP3    H215471   3.019   0.869   4.414
 5176TIP3   OH215472   3.311   2.391   0.748
 5176TIP3    H115473   3.398   2.362   0.719
 5176TIP3    H215474   3.322   2.407   0.842
 5177TIP3   OH215475   1.280   1.522   5.626
 5177TIP3    H115476   1.227   1.582   5.678
 5177TIP3    H215477   1.251   1.435   5.653
 5178TIP3   OH215478   0.920   3.671   6.211
 5178TIP3    H115479   0.870   3.592   6.190
 5178TIP3    H215480   0.919   3.675   6.307
 5179TIP3   OH215481   0.520   5.261   3.345
 5179TIP3    H115482   0.563   5.177   3.326
 5179TIP3    H215483   0.435   5.254   3.303
 5180TIP3   OH215484   0.131   5.343   4.454
 5180TIP3    H115485   0.205   5.393   4.418
 5180TIP3    H215486   0.172   5.277   4.511
 5181TIP3   OH215487   8.188   0.880   3.719
 5181TIP3    H115488   8.097   0.911   3.719
 5181TIP3    H215489   8.197   0.832   3.637
 5182TIP3   OH215490   4.764   7.145   0.360
 5182TIP3    H115491   4.726   7.231   0.347
 5182TIP3    H215492   4.825   7.134   0.287
 5183TIP3   OH215493   6.395   6.617   6.549
 5183TIP3    H115494   6.464   6.610   6.615
 5183TIP3    H215495   6.416   6.696   6.499
 5184TIP3   OH215496   4.801   4.342   5.557
 5184TIP3    H115497   4.725   4.328   5.501
 5184TIP3    H215498   4.859   4.267   5.537
 5185TIP3   OH215499   2.097   4.279   2.925
 5185TIP3    H115500   2.041   4.278   3.003
 5185TIP3    H215501   2.150   4.359   2.934
 5186TIP3   OH215502   4.005   4.022   1.751
 5186TIP3    H115503   3.917   4.059   1.744
 5186TIP3    H215504   3.995   3.931   1.723
 5187TIP3   OH215505   7.015   1.827   1.843
 5187TIP3    H115506   7.090   1.879   1.813
 5187TIP3    H215507   6.939   1.882   1.823
 5188TIP3   OH215508   4.059   3.326   0.413
 5188TIP3    H115509   3.986   3.290   0.463
 5188TIP3    H215510   4.085   3.404   0.462
 5189TIP3   OH215511   2.888   7.309   2.525
 5189TIP3    H115512   2.960   7.348   2.476
 5189TIP3    H215513   2.914   7.217   2.538
 5190TIP3   OH215514   7.939   1.784   0.301
 5190TIP3    H115515   7.999   1.858   0.315
 5190TIP3    H215516   7.983   1.729   0.236
 5191TIP3   OH215517   5.005   0.445   0.901
 5191TIP3    H115518   4.970   0.403   0.822
 5191TIP3    H215519   5.041   0.528   0.870
 5192TIP3   OH215520   2.457   0.585   2.450
 5192TIP3    H115521   2.394   0.599   2.521
 5192TIP3    H215522   2.539   0.620   2.484
 5193TIP3   OH215523   4.338   2.450   6.077
 5193TIP3    H115524   4.245   2.434   6.059
 5193TIP3    H215525   4.371   2.489   5.996
 5194TIP3   OH215526   5.530   6.349   0.500
 5194TIP3    H115527   5.512   6.255   0.491
 5194TIP3    H215528   5.613   6.361   0.454
 5195TIP3   OH215529   5.361   2.422   1.624
 5195TIP3    H115530   5.448   2.447   1.592
 5195TIP3    H215531   5.301   2.481   1.580
 5196TIP3   OH215532   2.867   3.803   3.988
 5196TIP3    H115533   2.792   3.773   3.937
 5196TIP3    H215534   2.832   3.817   4.076
 5197TIP3   OH215535   7.811   5.548   4.265
 5197TIP3    H115536   7.802   5.616   4.199
 5197TIP3    H215537   7.823   5.596   4.347
 5198TIP3   OH215538   0.438   0.967   5.474
 5198TIP3    H115539   0.518   0.986   5.426
 5198TIP3    H215540   0.423   0.873   5.460
 5199TIP3   OH215541   7.870   6.839   0.043
 5199TIP3    H115542   7.830   6.767   0.092
 5199TIP3    H215543   7.830   6.918   0.080
 5200TIP3   OH215544   0.364   6.415   1.830
 5200TIP3    H115545   0.286   6.463   1.800
 5200TIP3    H215546   0.425   6.421   1.757
 5201TIP3   OH215547   0.100   5.820   5.356
 5201TIP3    H115548   0.055   5.798   5.275
 5201TIP3    H215549   0.031   5.823   5.422
 5202TIP3   OH215550   0.220   0.562   1.656
 5202TIP3    H115551   0.143   0.615   1.635
 5202TIP3    H215552   0.241   0.517   1.574
 5203TIP3   OH215553   0.470   2.020   4.634
 5203TIP3    H115554   0.451   1.949   4.696
 5203TIP3    H215555   0.538   2.071   4.676
 5204TIP3   OH215556   3.400   0.920   3.202
 5204TIP3    H115557   3.416   1.006   3.162
 5204TIP3    H215558   3.386   0.939   3.295
 5205TIP3   OH215559   6.062   1.892   4.182
 5205TIP3    H115560   6.067   1.978   4.141
 5205TIP3    H215561   6.001   1.843   4.127
 5206TIP3   OH215562   8.148   4.367   2.269
 5206TIP3    H115563   8.157   4.352   2.363
 5206TIP3    H215564   8.117   4.458   2.262
 5207TIP3   OH215565   1.676   4.608   5.602
 5207TIP3    H115566   1.724   4.615   5.685
 5207TIP3    H215567   1.726   4.543   5.552
 5208TIP3   OH215568   6.532   4.177   1.465
 5208TIP3    H115569   6.609   4.122   1.473
 5208TIP3    H215570   6.537   4.213   1.376
 5209TIP3   OH215571   3.983   7.763   0.318
 5209TIP3    H115572   4.055   7.826   0.318
 5209TIP3    H215573   3.945   7.769   0.406
 5210TIP3   OH215574   4.660   7.048   6.262
 5210TIP3    H115575   4.586   7.093   6.304
 5210TIP3    H215576   4.680   7.103   6.186
 5211TIP3   OH215577   6.958   6.290   2.839
 5211TIP3    H115578   7.050   6.314   2.836
 5211TIP3    H215579   6.946   6.230   2.765
 5212TIP3   OH215580   6.782   6.451   4.194
 5212TIP3    H115581   6.816   6.453   4.284
 5212TIP3    H215582   6.689   6.473   4.204
 5213TIP3   OH215583   3.322   3.830   0.395
 5213TIP3    H115584   3.364   3.745   0.379
 5213TIP3    H215585   3.233   3.808   0.422
 5214TIP3   OH215586   6.576   0.619   4.460
 5214TIP3    H115587   6.630   0.693   4.488
 5214TIP3    H215588   6.526   0.653   4.385
 5215TIP3   OH215589   2.231   5.884   1.371
 5215TIP3    H115590   2.309   5.866   1.424
 5215TIP3    H215591   2.264   5.889   1.281
 5216TIP3   OH215592   4.947   1.241   5.624
 5216TIP3    H115593   5.035   1.264   5.592
 5216TIP3    H215594   4.953   1.148   5.644
 5217TIP3   OH215595   1.316   1.921   0.200
 5217TIP3    H115596   1.278   1.835   0.215
 5217TIP3    H215597   1.372   1.936   0.276
 5218TIP3   OH215598   8.155   3.376   4.261
 5218TIP3    H115599   8.099   3.425   4.201
 5218TIP3    H215600   8.095   3.317   4.307
 5219TIP3   OH215601   4.461   7.570   1.985
 5219TIP3    H115602   4.489   7.592   2.073
 5219TIP3    H215603   4.520   7.499   1.958
 5220TIP3   OH215604   0.219   6.184   6.623
 5220TIP3    H115605   0.191   6.094   6.609
 5220TIP3    H215606   0.312   6.184   6.601
 5221TIP3   OH215607   5.522   0.312   0.116
 5221TIP3    H115608   5.589   0.371   0.150
 5221TIP3    H215609   5.459   0.371   0.074
 5222TIP3   OH215610   7.390   1.957   0.850
 5222TIP3    H115611   7.419   1.884   0.905
 5222TIP3    H215612   7.450   1.956   0.775
 5223TIP3   OH215613   2.147   0.855   5.457
 5223TIP3    H115614   2.203   0.878   5.383
 5223TIP3    H215615   2.207   0.818   5.522
 5224TIP3   OH215616   2.517   6.136   2.233
 5224TIP3    H115617   2.545   6.201   2.297
 5224TIP3    H215618   2.544   6.052   2.270
 5225TIP3   OH215619   2.642   1.828   2.665
 5225TIP3    H115620   2.621   1.748   2.616
 5225TIP3    H215621   2.657   1.799   2.755
 5226TIP3   OH215622   7.990   0.082   1.636
 5226TIP3    H115623   8.029   0.098   1.722
 5226TIP3    H215624   7.943   0.163   1.616
 5227TIP3   OH215625   4.348   6.768   4.558
 5227TIP3    H115626   4.399   6.819   4.621
 5227TIP3    H215627   4.336   6.683   4.599
 5228TIP3   OH215628   2.197   3.131   2.346
 5228TIP3    H115629   2.221   3.138   2.253
 5228TIP3    H215630   2.168   3.219   2.370
 5229TIP3   OH215631   7.253   1.392   3.383
 5229TIP3    H115632   7.301   1.321   3.340
 5229TIP3    H215633   7.252   1.463   3.318
 5230TIP3   OH215634   6.230   3.117   6.726
 5230TIP3    H115635   6.205   3.059   6.654
 5230TIP3    H215636   6.189   3.078   6.803
 5231TIP3   OH215637   3.877   7.287   2.437
 5231TIP3    H115638   3.787   7.258   2.452
 5231TIP3    H215639   3.913   7.299   2.525
 5232TIP3   OH215640   0.494   6.295   5.226
 5232TIP3    H115641   0.399   6.293   5.222
 5232TIP3    H215642   0.518   6.220   5.281
 5233TIP3   OH215643   1.676   3.760   2.104
 5233TIP3    H115644   1.759   3.762   2.153
 5233TIP3    H215645   1.628   3.837   2.134
 5234TIP3   OH215646   2.775   3.762   4.279
 5234TIP3    H115647   2.838   3.830   4.303
 5234TIP3    H215648   2.758   3.716   4.361
 5235TIP3   OH215649   1.134   1.498   3.877
 5235TIP3    H115650   1.121   1.404   3.866
 5235TIP3    H215651   1.046   1.535   3.876
 5236TIP3   OH215652   4.117   1.461   6.722
 5236TIP3    H115653   4.041   1.405   6.739
 5236TIP3    H215654   4.185   1.401   6.691
 5237TIP3   OH215655   1.388   2.963   6.459
 5237TIP3    H115656   1.345   2.946   6.543
 5237TIP3    H215657   1.441   2.884   6.443
 5238TIP3   OH215658   2.838   2.291   5.888
 5238TIP3    H115659   2.881   2.334   5.962
 5238TIP3    H215660   2.815   2.363   5.829
 5239TIP3   OH215661   2.951   3.182   5.659
 5239TIP3    H115662   2.923   3.095   5.687
 5239TIP3    H215663   2.902   3.198   5.578
 5240TIP3   OH215664   5.287   5.569   0.949
 5240TIP3    H115665   5.338   5.646   0.976
 5240TIP3    H215666   5.327   5.496   0.995
 5241TIP3   OH215667   5.480   6.576   2.755
 5241TIP3    H115668   5.525   6.519   2.818
 5241TIP3    H215669   5.436   6.515   2.696
 5242TIP3   OH215670   3.479   5.921   0.472
 5242TIP3    H115671   3.429   5.920   0.390
 5242TIP3    H215672   3.523   6.006   0.472
 5243TIP3   OH215673   1.127   6.863   1.234
 5243TIP3    H115674   1.062   6.891   1.169
 5243TIP3    H215675   1.196   6.929   1.228
 5244TIP3   OH215676   1.132   5.401   0.619
 5244TIP3    H115677   1.158   5.309   0.625
 5244TIP3    H215678   1.052   5.406   0.673
 5245TIP3   OH215679   8.256   1.569   2.260
 5245TIP3    H115680   8.196   1.632   2.221
 5245TIP3    H215681   8.319   1.622   2.309
 5246TIP3   OH215682   3.191   4.583   3.578
 5246TIP3    H115683   3.278   4.558   3.546
 5246TIP3    H215684   3.134   4.574   3.502
 5247TIP3   OH215685   3.938   0.984   1.327
 5247TIP3    H115686   3.855   1.014   1.363
 5247TIP3    H215687   4.001   0.997   1.398
 5248TIP3   OH215688   0.970   1.247   2.545
 5248TIP3    H115689   1.018   1.306   2.487
 5248TIP3    H215690   0.929   1.306   2.609
 5249TIP3   OH215691   2.029   0.152   6.171
 5249TIP3    H115692   1.993   0.238   6.193
 5249TIP3    H215693   2.117   0.152   6.209
 5250TIP3   OH215694   6.871   5.386   5.231
 5250TIP3    H115695   6.784   5.382   5.191
 5250TIP3    H215696   6.931   5.364   5.160
 5251TIP3   OH215697   5.191   3.457   6.086
 5251TIP3    H115698   5.268   3.490   6.040
 5251TIP3    H215699   5.209   3.477   6.178
 5252TIP3   OH215700   5.762   6.048   3.867
 5252TIP3    H115701   5.710   6.076   3.942
 5252TIP3    H215702   5.817   6.124   3.846
 5253TIP3   OH215703   0.130   2.824   2.609
 5253TIP3    H115704   0.057   2.777   2.651
 5253TIP3    H215705   0.186   2.754   2.575
 5254TIP3   OH215706   3.614   0.634   3.180
 5254TIP3    H115707   3.603   0.679   3.264
 5254TIP3    H215708   3.700   0.662   3.148
 5255TIP3   OH215709   5.049   3.210   1.464
 5255TIP3    H115710   4.975   3.263   1.493
 5255TIP3    H215711   5.017   3.120   1.466
 5256TIP3   OH215712   2.822   3.550   2.424
 5256TIP3    H115713   2.800   3.480   2.363
 5256TIP3    H215714   2.767   3.535   2.500
 5257TIP3   OH215715   3.891   4.231   5.258
 5257TIP3    H115716   3.831   4.165   5.295
 5257TIP3    H215717   3.835   4.306   5.240
 5258TIP3   OH215718   6.825   5.671   0.910
 5258TIP3    H115719   6.755   5.638   0.966
 5258TIP3    H215720   6.897   5.608   0.923
 5259TIP3   OH215721   8.186   1.953   1.619
 5259TIP3    H115722   8.247   1.885   1.648
 5259TIP3    H215723   8.101   1.923   1.652
 5260TIP3   OH215724   5.502   3.689   6.283
 5260TIP3    H115725   5.553   3.656   6.210
 5260TIP3    H215726   5.544   3.653   6.361
 5261TIP3   OH215727   7.999   0.343   0.654
 5261TIP3    H115728   7.932   0.295   0.702
 5261TIP3    H215729   8.076   0.288   0.657
 5262TIP3   OH215730   3.594   6.405   5.056
 5262TIP3    H115731   3.575   6.356   5.136
 5262TIP3    H215732   3.541   6.484   5.062
 5263TIP3   OH215733   1.450   5.701   0.503
 5263TIP3    H115734   1.381   5.636   0.485
 5263TIP3    H215735   1.410   5.761   0.566
 5264TIP3   OH215736   4.017   0.868   3.774
 5264TIP3    H115737   4.077   0.821   3.831
 5264TIP3    H215738   3.938   0.879   3.827
 5265TIP3   OH215739   0.451   3.924   2.082
 5265TIP3    H115740   0.427   3.833   2.094
 5265TIP3    H215741   0.528   3.936   2.138
 5266TIP3   OH215742   3.931   5.333   1.664
 5266TIP3    H115743   3.946   5.415   1.616
 5266TIP3    H215744   3.877   5.358   1.738
 5267TIP3   OH215745   4.694   5.726   3.492
 5267TIP3    H115746   4.673   5.633   3.501
 5267TIP3    H215747   4.737   5.732   3.406
 5268TIP3   OH215748   6.916   4.026   4.775
 5268TIP3    H115749   6.825   4.015   4.803
 5268TIP3    H215750   6.967   3.979   4.840
 5269TIP3   OH215751   1.952   0.701   2.940
 5269TIP3    H115752   1.897   0.637   2.986
 5269TIP3    H215753   2.036   0.656   2.928
 5270TIP3   OH215754   1.961   5.766   5.149
 5270TIP3    H115755   1.922   5.681   5.171
 5270TIP3    H215756   1.997   5.753   5.061
 5271TIP3   OH215757   0.251   2.768   4.054
 5271TIP3    H115758   0.222   2.740   4.141
 5271TIP3    H215759   0.170   2.784   4.006
 5272TIP3   OH215760   6.745   3.784   2.430
 5272TIP3    H115761   6.759   3.689   2.427
 5272TIP3    H215762   6.650   3.795   2.437
 5273TIP3   OH215763   4.054   3.303   5.548
 5273TIP3    H115764   4.119   3.254   5.496
 5273TIP3    H215765   4.080   3.395   5.537
 5274TIP3   OH215766   6.958   4.125   3.051
 5274TIP3    H115767   6.928   4.110   3.141
 5274TIP3    H215768   6.964   4.037   3.013
 5275TIP3   OH215769   3.422   2.453   1.025
 5275TIP3    H115770   3.355   2.486   1.085
 5275TIP3    H215771   3.504   2.461   1.073
 5276TIP3   OH215772   3.306   5.921   0.243
 5276TIP3    H115773   3.284   6.010   0.271
 5276TIP3    H215774   3.312   5.926   0.148
 5277TIP3   OH215775   7.048   5.538   0.897
 5277TIP3    H115776   7.009   5.452   0.880
 5277TIP3    H215777   7.142   5.524   0.887
 5278TIP3   OH215778   5.304   0.563   1.713
 5278TIP3    H115779   5.323   0.549   1.620
 5278TIP3    H215780   5.371   0.626   1.742
 5279TIP3   OH215781   3.715   2.303   6.200
 5279TIP3    H115782   3.783   2.370   6.194
 5279TIP3    H215783   3.746   2.233   6.142
 5280TIP3   OH215784   5.444   7.016   2.477
 5280TIP3    H115785   5.350   6.994   2.479
 5280TIP3    H215786   5.448   7.096   2.423
 5281TIP3   OH215787   5.574   3.373   0.693
 5281TIP3    H115788   5.605   3.286   0.668
 5281TIP3    H215789   5.649   3.430   0.678
 5282TIP3   OH215790   0.935   6.079   0.881
 5282TIP3    H115791   0.861   6.029   0.846
 5282TIP3    H215792   0.925   6.072   0.976
 5283TIP3   OH215793   1.019   3.165   5.140
 5283TIP3    H115794   0.961   3.113   5.085
 5283TIP3    H215795   1.080   3.101   5.178
 5284TIP3   OH215796   0.849   3.736   3.633
 5284TIP3    H115797   0.884   3.666   3.689
 5284TIP3    H215798   0.768   3.700   3.598
 5285TIP3   OH215799   6.383   7.051   0.167
 5285TIP3    H115800   6.457   7.081   0.220
 5285TIP3    H215801   6.323   7.011   0.230
 5286TIP3   OH215802   6.080   7.170   6.065
 5286TIP3    H115803   5.995   7.134   6.039
 5286TIP3    H215804   6.096   7.240   6.001
 5287TIP3   OH215805   6.424   6.046   3.770
 5287TIP3    H115806   6.501   6.089   3.808
 5287TIP3    H215807   6.355   6.057   3.836
 5288TIP3   OH215808   0.596   4.973   3.555
 5288TIP3    H115809   0.621   5.001   3.643
 5288TIP3    H215810   0.502   4.955   3.561
 5289TIP3   OH215811   0.096   0.872   2.323
 5289TIP3    H115812   0.082   0.904   2.234
 5289TIP3    H215813   0.035   0.924   2.376
 5290TIP3   OH215814   3.971   2.839   2.693
 5290TIP3    H115815   4.031   2.782   2.741
 5290TIP3    H215816   3.974   2.805   2.603
 5291TIP3   OH215817   0.031   3.660   3.058
 5291TIP3    H115818   0.071   3.723   2.999
 5291TIP3    H215819   0.076   3.577   3.039
 5292TIP3   OH215820   4.186   2.867   6.408
 5292TIP3    H115821   4.251   2.802   6.383
 5292TIP3    H215822   4.234   2.950   6.408
 5293TIP3   OH215823   4.915   0.992   0.928
 5293TIP3    H115824   4.834   0.982   0.978
 5293TIP3    H215825   4.906   1.076   0.883
 5294TIP3   OH215826   4.333   1.683   6.239
 5294TIP3    H115827   4.238   1.688   6.233
 5294TIP3    H215828   4.361   1.655   6.151
 5295TIP3   OH215829   6.175   1.437   2.232
 5295TIP3    H115830   6.198   1.392   2.150
 5295TIP3    H215831   6.165   1.367   2.296
 5296TIP3   OH215832   0.592   5.523   4.896
 5296TIP3    H115833   0.502   5.521   4.929
 5296TIP3    H215834   0.593   5.457   4.826
 5297TIP3   OH215835   6.482   0.187   5.036
 5297TIP3    H115836   6.532   0.206   4.957
 5297TIP3    H215837   6.471   0.092   5.036
 5298TIP3   OH215838   3.913   1.717   0.634
 5298TIP3    H115839   3.821   1.719   0.609
 5298TIP3    H215840   3.953   1.788   0.584
 5299TIP3   OH215841   4.419   3.198   4.323
 5299TIP3    H115842   4.369   3.275   4.296
 5299TIP3    H215843   4.471   3.175   4.246
 5300TIP3   OH215844   5.245   5.521   4.364
 5300TIP3    H115845   5.170   5.580   4.375
 5300TIP3    H215846   5.218   5.460   4.296
 5301TIP3   OH215847   2.932   2.705   5.065
 5301TIP3    H115848   2.853   2.756   5.079
 5301TIP3    H215849   2.989   2.763   5.013
 5302TIP3   OH215850   7.020   7.472   1.343
 5302TIP3    H115851   6.974   7.398   1.384
 5302TIP3    H215852   7.111   7.445   1.341
 5303TIP3   OH215853   6.842   2.468   3.310
 5303TIP3    H115854   6.846   2.374   3.293
 5303TIP3    H215855   6.929   2.501   3.286
 5304TIP3   OH215856   2.322   6.120   0.945
 5304TIP3    H115857   2.309   6.126   0.850
 5304TIP3    H215858   2.407   6.076   0.955
 5305TIP3   OH215859   5.310   0.813   3.589
 5305TIP3    H115860   5.249   0.850   3.653
 5305TIP3    H215861   5.383   0.780   3.640
 5306TIP3   OH215862   4.620   5.066   1.442
 5306TIP3    H115863   4.595   5.152   1.474
 5306TIP3    H215864   4.688   5.036   1.502
 5307TIP3   OH215865   1.081   3.277   6.788
 5307TIP3    H115866   1.038   3.359   6.811
 5307TIP3    H215867   1.147   3.302   6.723
 5308TIP3   OH215868   2.915   2.553   4.792
 5308TIP3    H115869   2.976   2.621   4.819
 5308TIP3    H215870   2.967   2.472   4.790
 5309TIP3   OH215871   5.388   0.158   2.757
 5309TIP3    H115872   5.305   0.110   2.760
 5309TIP3    H215873   5.448   0.105   2.809
 5310TIP3   OH215874   1.703   6.379   3.468
 5310TIP3    H115875   1.627   6.437   3.468
 5310TIP3    H215876   1.768   6.423   3.522
 5311TIP3   OH215877   5.201   6.107   1.755
 5311TIP3    H115878   5.118   6.092   1.801
 5311TIP3    H215879   5.253   6.158   1.816
 5312TIP3   OH215880   8.204   5.537   6.310
 5312TIP3    H115881   8.110   5.552   6.322
 5312TIP3    H215882   8.216   5.444   6.332
 5313TIP3   OH215883   4.173   0.722   4.014
 5313TIP3    H115884   4.182   0.640   4.063
 5313TIP3    H215885   4.164   0.789   4.082
 5314TIP3   OH215886   2.884   0.498   1.973
 5314TIP3    H115887   2.876   0.581   1.927
 5314TIP3    H215888   2.941   0.445   1.916
 5315TIP3   OH215889   0.061   4.033   2.440
 5315TIP3    H115890   0.122   4.011   2.369
 5315TIP3    H215891  -0.025   4.033   2.399
 5316TIP3   OH215892   5.952   4.829   4.755
 5316TIP3    H115893   5.908   4.746   4.772
 5316TIP3    H215894   5.881   4.892   4.743
 5317TIP3   OH215895   2.075   7.333   3.552
 5317TIP3    H115896   2.012   7.390   3.596
 5317TIP3    H215897   2.150   7.389   3.532
 5318TIP3   OH215898   1.863   1.080   2.711
 5318TIP3    H115899   1.857   1.106   2.803
 5318TIP3    H215900   1.860   1.162   2.662
 5319TIP3   OH215901   6.450   3.990   1.038
 5319TIP3    H115902   6.513   3.939   0.987
 5319TIP3    H215903   6.389   3.926   1.073
 5320TIP3   OH215904   3.049   4.243   1.508
 5320TIP3    H115905   3.086   4.317   1.556
 5320TIP3    H215906   3.026   4.180   1.576
 5321TIP3   OH215907   6.856   1.430   2.530
 5321TIP3    H115908   6.778   1.473   2.495
 5321TIP3    H215909   6.828   1.339   2.544
 5322TIP3   OH215910   3.206   6.520   6.117
 5322TIP3    H115911   3.301   6.524   6.130
 5322TIP3    H215912   3.195   6.459   6.043
 5323TIP3   OH215913   3.769   5.734   0.999
 5323TIP3    H115914   3.690   5.700   1.040
 5323TIP3    H215915   3.841   5.684   1.039
 5324TIP3   OH215916   3.490   2.254   5.131
 5324TIP3    H115917   3.509   2.167   5.168
 5324TIP3    H215918   3.480   2.311   5.208
 5325TIP3   OH215919   0.150   4.827   1.868
 5325TIP3    H115920   0.126   4.755   1.927
 5325TIP3    H215921   0.069   4.848   1.822
 5326TIP3   OH215922   1.413   0.190   2.018
 5326TIP3    H115923   1.351   0.244   2.066
 5326TIP3    H215924   1.365   0.109   2.000
 5327TIP3   OH215925   4.455   1.170   4.838
 5327TIP3    H115926   4.464   1.198   4.929
 5327TIP3    H215927   4.442   1.252   4.789
 5328TIP3   OH215928   2.386   0.539   3.869
 5328TIP3    H115929   2.462   0.550   3.927
 5328TIP3    H215930   2.343   0.460   3.901
 5329TIP3   OH215931   0.427   6.999   0.112
 5329TIP3    H115932   0.393   6.985   0.024
 5329TIP3    H215933   0.450   7.092   0.114
 5330TIP3   OH215934   3.190   4.275   0.731
 5330TIP3    H115935   3.198   4.249   0.822
 5330TIP3    H215936   3.230   4.203   0.682
 5331TIP3   OH215937   2.871   4.765   3.236
 5331TIP3    H115938   2.931   4.806   3.173
 5331TIP3    H215939   2.843   4.837   3.293
 5332TIP3   OH215940   2.332   6.858   3.600
 5332TIP3    H115941   2.324   6.865   3.696
 5332TIP3    H215942   2.290   6.774   3.579
 5333TIP3   OH215943   0.539   4.809   0.823
 5333TIP3    H115944   0.574   4.734   0.871
 5333TIP3    H215945   0.552   4.883   0.883
 5334TIP3   OH215946   1.596   0.720   3.572
 5334TIP3    H115947   1.654   0.743   3.645
 5334TIP3    H215948   1.508   0.735   3.607
 5335TIP3   OH215949   6.380   1.491   5.670
 5335TIP3    H115950   6.465   1.447   5.679
 5335TIP3    H215951   6.316   1.420   5.663
 5336TIP3   OH215952   2.220   1.336   5.417
 5336TIP3    H115953   2.253   1.247   5.405
 5336TIP3    H215954   2.243   1.358   5.507
 5337TIP3   OH215955   2.903   7.105   2.892
 5337TIP3    H115956   2.821   7.155   2.897
 5337TIP3    H215957   2.876   7.014   2.903
 5338TIP3   OH215958   5.996   4.722   4.427
 5338TIP3    H115959   6.068   4.759   4.478
 5338TIP3    H215960   5.920   4.774   4.453
 5339TIP3   OH215961   7.978   1.150   1.455
 5339TIP3    H115962   8.067   1.127   1.478
 5339TIP3    H215963   7.963   1.236   1.494
 5340TIP3   OH215964   5.913   3.531   5.073
 5340TIP3    H115965   5.902   3.600   5.008
 5340TIP3    H215966   5.974   3.566   5.137
 5341TIP3   OH215967   4.403   7.556   3.895
 5341TIP3    H115968   4.339   7.610   3.943
 5341TIP3    H215969   4.368   7.552   3.806
 5342TIP3   OH215970   6.983   5.505   2.342
 5342TIP3    H115971   6.941   5.497   2.257
 5342TIP3    H215972   7.077   5.505   2.323
 5343TIP3   OH215973   6.386   6.050   4.373
 5343TIP3    H115974   6.444   6.035   4.298
 5343TIP3    H215975   6.433   6.114   4.427
 5344TIP3   OH215976   0.122   5.090   1.942
 5344TIP3    H115977   0.139   4.997   1.927
 5344TIP3    H215978   0.037   5.093   1.984
 5345TIP3   OH215979   1.006   0.877   4.934
 5345TIP3    H115980   1.098   0.849   4.936
 5345TIP3    H215981   0.993   0.910   4.845
 5346TIP3   OH215982   4.888   5.029   0.524
 5346TIP3    H115983   4.800   5.048   0.557
 5346TIP3    H215984   4.942   5.102   0.554
 5347TIP3   OH215985   2.886   3.775   4.739
 5347TIP3    H115986   2.858   3.717   4.667
 5347TIP3    H215987   2.981   3.777   4.733
 5348TIP3   OH215988   0.032   3.179   3.478
 5348TIP3    H115989  -0.053   3.154   3.516
 5348TIP3    H215990   0.026   3.274   3.467
 5349TIP3   OH215991   5.926   3.085   2.472
 5349TIP3    H115992   5.854   3.110   2.415
 5349TIP3    H215993   5.896   3.005   2.515
 5350TIP3   OH215994  -0.006   4.934   1.126
 5350TIP3    H115995  -0.034   4.917   1.216
 5350TIP3    H215996   0.082   4.898   1.120
 5351TIP3   OH215997   2.130   2.499   1.565
 5351TIP3    H115998   2.146   2.424   1.508
 5351TIP3    H215999   2.041   2.486   1.597
 5352TIP3   OH216000   6.550   0.571   3.864
 5352TIP3    H116001   6.488   0.501   3.847
 5352TIP3    H216002   6.518   0.645   3.812
 5353TIP3   OH216003   7.025   7.775   5.521
 5353TIP3    H116004   7.017   7.704   5.457
 5353TIP3    H216005   7.067   7.733   5.597
 5354TIP3   OH216006   8.289   4.725   4.781
 5354TIP3    H116007   8.335   4.775   4.848
 5354TIP3    H216008   8.199   4.718   4.814
 5355TIP3   OH216009   8.219   1.088   1.549
 5355TIP3    H116010   8.246   1.062   1.460
 5355TIP3    H216011   8.298   1.075   1.602
 5356TIP3   OH216012   3.562   5.343   0.447
 5356TIP3    H116013   3.477   5.377   0.475
 5356TIP3    H216014   3.544   5.255   0.415
 5357TIP3   OH216015   2.317   6.054   2.711
 5357TIP3    H116016   2.301   6.113   2.638
 5357TIP3    H216017   2.310   5.966   2.673
 5358TIP3   OH216018   0.362   1.666   2.712
 5358TIP3    H116019   0.293   1.638   2.652
 5358TIP3    H216020   0.363   1.600   2.781
 5359TIP3   OH216021   2.273   0.294   3.967
 5359TIP3    H116022   2.287   0.210   4.011
 5359TIP3    H216023   2.179   0.306   3.967
 5360TIP3   OH216024   6.085   7.344   5.848
 5360TIP3    H116025   6.030   7.349   5.770
 5360TIP3    H216026   6.162   7.397   5.827
 5361TIP3   OH216027   0.316   0.371   2.857
 5361TIP3    H116028   0.395   0.341   2.813
 5361TIP3    H216029   0.259   0.294   2.858
 5362TIP3   OH216030   6.991   1.341   4.780
 5362TIP3    H116031   6.919   1.376   4.833
 5362TIP3    H216032   7.011   1.256   4.820
 5363TIP3   OH216033   6.879   3.046   5.249
 5363TIP3    H116034   6.822   3.102   5.302
 5363TIP3    H216035   6.842   2.958   5.260
 5364TIP3   OH216036   0.494   2.250   5.647
 5364TIP3    H116037   0.586   2.254   5.671
 5364TIP3    H216038   0.488   2.296   5.564
 5365TIP3   OH216039   2.834   3.495   1.772
 5365TIP3    H116040   2.826   3.580   1.729
 5365TIP3    H216041   2.864   3.436   1.703
 5366TIP3   OH216042   1.985   5.826   6.620
 5366TIP3    H116043   1.938   5.758   6.571
 5366TIP3    H216044   1.997   5.789   6.708
 5367TIP3   OH216045   6.105   0.450   5.004
 5367TIP3    H116046   6.129   0.359   5.020
 5367TIP3    H216047   6.080   0.453   4.911
 5368TIP3   OH216048   4.789   4.541   5.981
 5368TIP3    H116049   4.847   4.491   6.039
 5368TIP3    H216050   4.728   4.585   6.040
 5369TIP3   OH216051   5.492   5.159   3.959
 5369TIP3    H116052   5.477   5.065   3.970
 5369TIP3    H216053   5.556   5.164   3.888
 5370TIP3   OH216054   6.154   7.742   4.300
 5370TIP3    H116055   6.103   7.705   4.229
 5370TIP3    H216056   6.165   7.835   4.277
 5371TIP3   OH216057   5.909   2.713   6.284
 5371TIP3    H116058   5.827   2.732   6.328
 5371TIP3    H216059   5.918   2.782   6.219
 5372TIP3   OH216060   6.640   5.221   6.008
 5372TIP3    H116061   6.675   5.177   6.085
 5372TIP3    H216062   6.716   5.232   5.950
 5373TIP3   OH216063   4.289   5.341   4.215
 5373TIP3    H116064   4.220   5.392   4.173
 5373TIP3    H216065   4.330   5.401   4.277
 5374TIP3   OH216066   1.853   1.491   0.835
 5374TIP3    H116067   1.911   1.567   0.835
 5374TIP3    H216068   1.867   1.449   0.751
 5375TIP3   OH216069   2.699   4.578   3.234
 5375TIP3    H116070   2.780   4.627   3.248
 5375TIP3    H216071   2.676   4.597   3.143
 5376TIP3   OH216072   1.839   5.362   0.642
 5376TIP3    H116073   1.746   5.350   0.627
 5376TIP3    H216074   1.848   5.371   0.737
 5377TIP3   OH216075   2.187   2.107   0.687
 5377TIP3    H116076   2.153   2.173   0.749
 5377TIP3    H216077   2.113   2.091   0.628
 5378TIP3   OH216078   3.428   6.066   4.567
 5378TIP3    H116079   3.427   6.138   4.504
 5378TIP3    H216080   3.367   6.094   4.635
 5379TIP3   OH216081   1.341   3.153   3.063
 5379TIP3    H116082   1.373   3.065   3.078
 5379TIP3    H216083   1.374   3.204   3.137
 5380TIP3   OH216084   5.343   2.944   6.632
 5380TIP3    H116085   5.275   2.969   6.695
 5380TIP3    H216086   5.300   2.952   6.547
 5381TIP3   OH216087   2.439   3.245   1.545
 5381TIP3    H116088   2.378   3.244   1.471
 5381TIP3    H216089   2.525   3.260   1.505
 5382TIP3   OH216090   1.320   5.631   0.136
 5382TIP3    H116091   1.283   5.552   0.175
 5382TIP3    H216092   1.249   5.696   0.142
 5383TIP3   OH216093   4.224   5.744   4.645
 5383TIP3    H116094   4.132   5.725   4.665
 5383TIP3    H216095   4.227   5.838   4.633
 5384TIP3   OH216096   3.043   3.005   6.580
 5384TIP3    H116097   2.976   2.973   6.519
 5384TIP3    H216098   3.065   2.928   6.634
 5385TIP3   OH216099   0.965   0.924   0.517
 5385TIP3    H116100   0.991   0.833   0.502
 5385TIP3    H216101   0.926   0.952   0.434
 5386TIP3   OH216102   0.880   7.804   6.114
 5386TIP3    H116103   0.933   7.728   6.090
 5386TIP3    H216104   0.863   7.848   6.031
 5387TIP3   OH216105   1.302   3.905   2.337
 5387TIP3    H116106   1.222   3.952   2.361
 5387TIP3    H216107   1.360   3.917   2.412
 5388TIP3   OH216108   6.305   4.845   1.009
 5388TIP3    H116109   6.285   4.925   0.960
 5388TIP3    H216110   6.392   4.860   1.045
 5389TIP3   OH216111   3.962   2.012   3.389
 5389TIP3    H116112   3.939   2.102   3.412
 5389TIP3    H216113   3.890   1.959   3.424
 5390TIP3   OH216114   6.629   3.740   1.361
 5390TIP3    H116115   6.688   3.667   1.340
 5390TIP3    H216116   6.541   3.704   1.349
 5391TIP3   OH216117   6.762   2.459   2.471
 5391TIP3    H116118   6.673   2.449   2.506
 5391TIP3    H216119   6.755   2.432   2.380
 5392TIP3   OH216120   5.052   2.011   1.469
 5392TIP3    H116121   5.006   2.052   1.395
 5392TIP3    H216122   5.088   1.930   1.433
 5393TIP3   OH216123   0.544   6.358   3.796
 5393TIP3    H116124   0.454   6.331   3.779
 5393TIP3    H216125   0.558   6.339   3.889
 5394TIP3   OH216126   0.248   7.501   6.274
 5394TIP3    H116127   0.236   7.556   6.351
 5394TIP3    H216128   0.317   7.545   6.224
 5395TIP3   OH216129   5.267   1.583   4.572
 5395TIP3    H116130   5.317   1.553   4.496
 5395TIP3    H216131   5.334   1.616   4.633
 5396TIP3   OH216132   1.426   4.243   6.143
 5396TIP3    H116133   1.470   4.281   6.220
 5396TIP3    H216134   1.354   4.303   6.125
 5397TIP3   OH216135   6.092   5.675   0.926
 5397TIP3    H116136   6.064   5.742   0.864
 5397TIP3    H216137   6.135   5.723   0.996
 5398TIP3   OH216138   5.809   2.729   1.724
 5398TIP3    H116139   5.785   2.754   1.813
 5398TIP3    H216140   5.903   2.708   1.729
 5399TIP3   OH216141   1.092   2.099   5.679
 5399TIP3    H116142   1.065   2.176   5.728
 5399TIP3    H216143   1.049   2.026   5.724
 5400TIP3   OH216144   3.330   4.520   0.730
 5400TIP3    H116145   3.299   4.434   0.702
 5400TIP3    H216146   3.386   4.502   0.805
 5401TIP3   OH216147   0.116   7.410   0.276
 5401TIP3    H116148   0.143   7.329   0.232
 5401TIP3    H216149   0.078   7.381   0.359
 5402TIP3   OH216150   1.690   4.876   2.910
 5402TIP3    H116151   1.649   4.910   2.830
 5402TIP3    H216152   1.734   4.951   2.949
 5403TIP3   OH216153   1.452   6.469   2.806
 5403TIP3    H116154   1.409   6.440   2.725
 5403TIP3    H216155   1.465   6.389   2.856
 5404TIP3   OH216156   8.186   3.763   0.057
 5404TIP3    H116157   8.174   3.782  -0.036
 5404TIP3    H216158   8.097   3.757   0.091
 5405TIP3   OH216159   6.153   7.515   0.450
 5405TIP3    H116160   6.208   7.592   0.464
 5405TIP3    H216161   6.115   7.496   0.535
 5406TIP3   OH216162   3.854   4.087   5.526
 5406TIP3    H116163   3.945   4.065   5.545
 5406TIP3    H216164   3.821   4.128   5.606
 5407TIP3   OH216165   6.438   5.994   0.922
 5407TIP3    H116166   6.395   6.027   1.001
 5407TIP3    H216167   6.379   6.018   0.850
 5408TIP3   OH216168   0.215   5.425   2.509
 5408TIP3    H116169   0.234   5.400   2.419
 5408TIP3    H216170   0.293   5.473   2.538
 5409TIP3   OH216171   0.509   6.226   2.656
 5409TIP3    H116172   0.497   6.306   2.605
 5409TIP3    H216173   0.469   6.245   2.741
 5410TIP3   OH216174   3.240   4.812   6.554
 5410TIP3    H116175   3.276   4.901   6.560
 5410TIP3    H216176   3.259   4.773   6.639
 5411TIP3   OH216177   2.018   0.697   1.743
 5411TIP3    H116178   1.992   0.784   1.773
 5411TIP3    H216179   1.977   0.636   1.804
 5412TIP3   OH216180   6.515   1.956   2.177
 5412TIP3    H116181   6.574   2.028   2.153
 5412TIP3    H216182   6.548   1.881   2.127
 5413TIP3   OH216183   7.821   7.397   0.652
 5413TIP3    H116184   7.887   7.391   0.721
 5413TIP3    H216185   7.854   7.464   0.593
 5414TIP3   OH216186   0.382   5.158   5.225
 5414TIP3    H116187   0.319   5.182   5.157
 5414TIP3    H216188   0.464   5.200   5.198
 5415TIP3   OH216189   7.694   4.381   2.692
 5415TIP3    H116190   7.616   4.385   2.636
 5415TIP3    H216191   7.731   4.469   2.687
 5416TIP3   OH216192   3.577   0.454   2.763
 5416TIP3    H116193   3.590   0.440   2.857
 5416TIP3    H216194   3.548   0.369   2.730
 5417TIP3   OH216195   2.391   5.582   5.930
 5417TIP3    H116196   2.329   5.629   5.985
 5417TIP3    H216197   2.338   5.550   5.857
 5418TIP3   OH216198   6.975   4.200   0.794
 5418TIP3    H116199   6.938   4.286   0.774
 5418TIP3    H216200   7.069   4.215   0.799
 5419TIP3   OH216201   5.742   7.386   4.046
 5419TIP3    H116202   5.760   7.308   3.994
 5419TIP3    H216203   5.797   7.454   4.007
 5420TIP3   OH216204   2.935   3.962   4.347
 5420TIP3    H116205   2.865   4.005   4.397
 5420TIP3    H216206   2.986   4.034   4.310
 5421TIP3   OH216207   1.292   1.611   4.158
 5421TIP3    H116208   1.304   1.558   4.237
 5421TIP3    H216209   1.273   1.547   4.090
 5422TIP3   OH216210   7.539   7.503   6.407
 5422TIP3    H116211   7.580   7.575   6.359
 5422TIP3    H216212   7.602   7.431   6.402
 5423TIP3   OH216213   2.725   0.694   3.173
 5423TIP3    H116214   2.675   0.755   3.119
 5423TIP3    H216215   2.716   0.610   3.130
 5424TIP3   OH216216   6.756   3.671   0.617
 5424TIP3    H116217   6.756   3.767   0.612
 5424TIP3    H216218   6.804   3.643   0.539
 5425TIP3   OH216219   6.674   3.421   3.529
 5425TIP3    H116220   6.712   3.501   3.565
 5425TIP3    H216221   6.600   3.452   3.476
 5426TIP3   OH216222   2.356   7.119   3.957
 5426TIP3    H116223   2.376   7.076   4.040
 5426TIP3    H216224   2.304   7.054   3.908
 5427TIP3   OH216225   0.435   1.473   6.719
 5427TIP3    H116226   0.371   1.448   6.652
 5427TIP3    H216227   0.392   1.453   6.802
 5428TIP3   OH216228   3.661   6.551   3.632
 5428TIP3    H116229   3.646   6.517   3.721
 5428TIP3    H216230   3.731   6.495   3.597
 5429TIP3   OH216231   0.366   4.947   0.235
 5429TIP3    H116232   0.295   4.988   0.186
 5429TIP3    H216233   0.327   4.868   0.272
 5430TIP3   OH216234   2.138   2.103   1.983
 5430TIP3    H116235   2.074   2.127   2.050
 5430TIP3    H216236   2.183   2.184   1.962
 5431TIP3   OH216237   7.050   6.191   1.766
 5431TIP3    H116238   6.994   6.249   1.818
 5431TIP3    H216239   6.988   6.130   1.724
 5432TIP3   OH216240   4.945   4.139   6.744
 5432TIP3    H116241   5.024   4.192   6.757
 5432TIP3    H216242   4.936   4.132   6.649
 5433TIP3   OH216243   1.664   0.076   3.508
 5433TIP3    H116244   1.740   0.107   3.458
 5433TIP3    H216245   1.645   0.148   3.569
 5434TIP3   OH216246   8.275   1.731   5.420
 5434TIP3    H116247   8.321   1.714   5.502
 5434TIP3    H216248   8.229   1.649   5.401
 5435TIP3   OH216249   2.585   3.956   4.961
 5435TIP3    H116250   2.557   4.045   4.982
 5435TIP3    H216251   2.508   3.902   4.979
 5436TIP3   OH216252   2.489   5.823   3.390
 5436TIP3    H116253   2.525   5.872   3.464
 5436TIP3    H216254   2.395   5.841   3.392
 5437TIP3   OH216255   7.936   0.508   6.484
 5437TIP3    H116256   8.026   0.525   6.511
 5437TIP3    H216257   7.934   0.413   6.468
 5438TIP3   OH216258   1.519   7.513   2.499
 5438TIP3    H116259   1.588   7.563   2.542
 5438TIP3    H216260   1.550   7.423   2.500
 5439TIP3   OH216261   8.257   2.890   5.645
 5439TIP3    H116262   8.345   2.865   5.674
 5439TIP3    H216263   8.265   2.982   5.620
 5440TIP3   OH216264   2.885   7.107   0.973
 5440TIP3    H116265   2.892   7.194   0.934
 5440TIP3    H216266   2.797   7.105   1.011
 5441TIP3   OH216267   5.497   2.050   5.873
 5441TIP3    H116268   5.513   2.009   5.958
 5441TIP3    H216269   5.402   2.040   5.860
 5442TIP3   OH216270   1.577   1.620   4.234
 5442TIP3    H116271   1.497   1.589   4.191
 5442TIP3    H216272   1.547   1.650   4.320
 5443TIP3   OH216273   4.220   7.402   4.344
 5443TIP3    H116274   4.315   7.393   4.350
 5443TIP3    H216275   4.190   7.400   4.434
 5444TIP3   OH216276   4.305   0.289   6.476
 5444TIP3    H116277   4.372   0.291   6.406
 5444TIP3    H216278   4.258   0.207   6.461
 5445TIP3   OH216279   3.855   1.070   3.894
 5445TIP3    H116280   3.789   1.105   3.954
 5445TIP3    H216281   3.818   1.083   3.807
 5446TIP3   OH216282   4.506   3.109   0.706
 5446TIP3    H116283   4.440   3.054   0.665
 5446TIP3    H216284   4.566   3.048   0.748
 5447TIP3   OH216285   1.302   1.350   2.630
 5447TIP3    H116286   1.360   1.419   2.661
 5447TIP3    H216287   1.360   1.287   2.587
 5448TIP3   OH216288   5.703   3.378   5.612
 5448TIP3    H116289   5.615   3.388   5.647
 5448TIP3    H216290   5.698   3.302   5.554
 5449TIP3   OH216291   1.543   0.181   1.210
 5449TIP3    H116292   1.598   0.122   1.262
 5449TIP3    H216293   1.533   0.136   1.126
 5450TIP3   OH216294   6.226   1.546   6.277
 5450TIP3    H116295   6.244   1.475   6.338
 5450TIP3    H216296   6.137   1.575   6.298
 5451TIP3   OH216297   1.503   4.772   2.413
 5451TIP3    H116298   1.521   4.835   2.343
 5451TIP3    H216299   1.552   4.694   2.388
 5452TIP3   OH216300   0.088   4.240   5.738
 5452TIP3    H116301   0.156   4.211   5.676
 5452TIP3    H216302   0.054   4.159   5.776
 5453TIP3   OH216303   0.094   7.591   1.676
 5453TIP3    H116304   0.170   7.642   1.648
 5453TIP3    H216305   0.113   7.568   1.767
 5454TIP3   OH216306   6.577   0.083   2.001
 5454TIP3    H116307   6.596   0.069   1.908
 5454TIP3    H216308   6.636   0.153   2.028
 5455TIP3   OH216309   1.748   7.505   5.135
 5455TIP3    H116310   1.700   7.562   5.195
 5455TIP3    H216311   1.759   7.423   5.183
 5456TIP3   OH216312   6.337   0.820   0.347
 5456TIP3    H116313   6.429   0.806   0.371
 5456TIP3    H216314   6.341   0.870   0.266
 5457TIP3   OH216315   0.719   0.815   6.166
 5457TIP3    H116316   0.740   0.762   6.090
 5457TIP3    H216317   0.661   0.760   6.219
 5458TIP3   OH216318   1.423   0.598   4.143
 5458TIP3    H116319   1.451   0.680   4.102
 5458TIP3    H216320   1.381   0.549   4.072
 5459TIP3   OH216321   1.969   7.624   4.525
 5459TIP3    H116322   1.948   7.568   4.600
 5459TIP3    H216323   2.028   7.691   4.561
 5460TIP3   OH216324   0.578   4.078   0.477
 5460TIP3    H116325   0.580   4.141   0.406
 5460TIP3    H216326   0.663   4.086   0.520
 5461TIP3   OH216327   2.890   1.444   1.459
 5461TIP3    H116328   2.806   1.466   1.419
 5461TIP3    H216329   2.932   1.386   1.397
 5462TIP3   OH216330   4.675   4.703   1.147
 5462TIP3    H116331   4.620   4.728   1.072
 5462TIP3    H216332   4.755   4.669   1.108
 5463TIP3   OH216333   1.478   7.132   5.970
 5463TIP3    H116334   1.433   7.203   5.925
 5463TIP3    H216335   1.408   7.081   6.010
 5464TIP3   OH216336   0.699   6.086   3.712
 5464TIP3    H116337   0.716   6.161   3.656
 5464TIP3    H216338   0.607   6.093   3.736
 5465TIP3   OH216339   7.724   2.034   6.490
 5465TIP3    H116340   7.666   1.988   6.429
 5465TIP3    H216341   7.812   2.002   6.469
 5466TIP3   OH216342   7.743   2.762   6.167
 5466TIP3    H116343   7.786   2.691   6.119
 5466TIP3    H216344   7.753   2.839   6.110
 5467TIP3   OH216345   0.473   4.826   1.609
 5467TIP3    H116346   0.525   4.865   1.679
 5467TIP3    H216347   0.451   4.900   1.552
 5468TIP3   OH216348   7.299   7.140   1.492
 5468TIP3    H116349   7.252   7.109   1.415
 5468TIP3    H216350   7.297   7.065   1.552
 5469TIP3   OH216351   1.467   5.421   3.173
 5469TIP3    H116352   1.406   5.492   3.196
 5469TIP3    H216353   1.470   5.367   3.251
 5470TIP3   OH216354   4.876   2.683   1.691
 5470TIP3    H116355   4.845   2.688   1.600
 5470TIP3    H216356   4.799   2.653   1.740
 5471TIP3   OH216357   7.271   3.264   0.624
 5471TIP3    H116358   7.287   3.278   0.531
 5471TIP3    H216359   7.180   3.237   0.630
 5472TIP3   OH216360   1.311   5.364   2.689
 5472TIP3    H116361   1.318   5.371   2.594
 5472TIP3    H216362   1.268   5.279   2.703
 5473TIP3   OH216363   3.462   3.057   4.032
 5473TIP3    H116364   3.496   3.086   4.117
 5473TIP3    H216365   3.453   3.138   3.981
 5474TIP3   OH216366   1.745   4.669   1.110
 5474TIP3    H116367   1.780   4.643   1.196
 5474TIP3    H216368   1.729   4.763   1.118
 5475TIP3   OH216369   7.190   3.364   5.150
 5475TIP3    H116370   7.168   3.457   5.139
 5475TIP3    H216371   7.137   3.320   5.083
 5476TIP3   OH216372   0.822   3.385   1.238
 5476TIP3    H116373   0.848   3.352   1.152
 5476TIP3    H216374   0.862   3.472   1.243
 5477TIP3   OH216375   4.254   5.832   0.122
 5477TIP3    H116376   4.197   5.756   0.111
 5477TIP3    H216377   4.209   5.887   0.186
 5478TIP3   OH216378   7.199   2.810   5.929
 5478TIP3    H116379   7.287   2.804   5.966
 5478TIP3    H216380   7.155   2.878   5.981
 5479TIP3   OH216381   5.547   3.922   3.228
 5479TIP3    H116382   5.556   3.958   3.140
 5479TIP3    H216383   5.484   3.980   3.271
 5480TIP3   OH216384   7.984   6.382   4.043
 5480TIP3    H116385   7.951   6.464   4.006
 5480TIP3    H216386   8.052   6.409   4.104
 5481TIP3   OH216387   1.936   3.606   5.253
 5481TIP3    H116388   1.951   3.659   5.331
 5481TIP3    H216389   2.022   3.599   5.212
 5482TIP3   OH216390   4.576   6.164   6.012
 5482TIP3    H116391   4.519   6.117   6.073
 5482TIP3    H216392   4.653   6.187   6.064
 5483TIP3   OH216393   1.648   7.483   0.697
 5483TIP3    H116394   1.686   7.485   0.785
 5483TIP3    H216395   1.715   7.520   0.640
 5484TIP3   OH216396   2.808   7.851   2.922
 5484TIP3    H116397   2.830   7.779   2.863
 5484TIP3    H216398   2.846   7.826   3.006
 5485TIP3   OH216399   5.025   5.781   5.739
 5485TIP3    H116400   4.930   5.787   5.731
 5485TIP3    H216401   5.051   5.863   5.780
 5486TIP3   OH216402   6.171   4.411   1.345
 5486TIP3    H116403   6.076   4.427   1.342
 5486TIP3    H216404   6.199   4.412   1.254
 5487TIP3   OH216405   1.160   0.536   4.799
 5487TIP3    H116406   1.166   0.463   4.861
 5487TIP3    H216407   1.185   0.613   4.851
 5488TIP3   OH216408   0.590   0.401   2.694
 5488TIP3    H116409   0.676   0.366   2.721
 5488TIP3    H216410   0.606   0.493   2.677
 5489TIP3   OH216411   2.698   5.436   2.116
 5489TIP3    H116412   2.763   5.369   2.095
 5489TIP3    H216413   2.744   5.519   2.103
 5490TIP3   OH216414   2.102   5.768   0.993
 5490TIP3    H116415   2.020   5.738   0.954
 5490TIP3    H216416   2.085   5.858   1.018
 5491TIP3   OH216417   4.637   7.136   3.677
 5491TIP3    H116418   4.721   7.144   3.722
 5491TIP3    H216419   4.656   7.155   3.585
 5492TIP3   OH216420   7.618   0.570   1.472
 5492TIP3    H116421   7.570   0.548   1.552
 5492TIP3    H216422   7.552   0.609   1.415
 5493TIP3   OH216423   1.932   3.445   1.481
 5493TIP3    H116424   1.959   3.481   1.566
 5493TIP3    H216425   1.860   3.387   1.502
 5494TIP3   OH216426   0.043   3.115   2.628
 5494TIP3    H116427   0.037   3.189   2.688
 5494TIP3    H216428  -0.040   3.068   2.638
 5495TIP3   OH216429   6.471   3.537   5.664
 5495TIP3    H116430   6.473   3.562   5.572
 5495TIP3    H216431   6.467   3.619   5.712
 5496TIP3   OH216432   6.531   6.701   6.105
 5496TIP3    H116433   6.479   6.764   6.155
 5496TIP3    H216434   6.508   6.718   6.014
 5497TIP3   OH216435   2.309   4.278   2.327
 5497TIP3    H116436   2.357   4.327   2.260
 5497TIP3    H216437   2.237   4.236   2.279
 5498TIP3   OH216438   5.311   1.226   5.679
 5498TIP3    H116439   5.272   1.314   5.673
 5498TIP3    H216440   5.371   1.232   5.754
 5499TIP3   OH216441   2.930   4.711   4.558
 5499TIP3    H116442   2.956   4.647   4.625
 5499TIP3    H216443   2.838   4.692   4.541
 5500TIP3   OH216444   1.272   7.609   4.790
 5500TIP3    H116445   1.344   7.642   4.844
 5500TIP3    H216446   1.286   7.649   4.704
 5501TIP3   OH216447   7.133   0.261   1.052
 5501TIP3    H116448   7.100   0.311   0.977
 5501TIP3    H216449   7.105   0.312   1.129
 5502TIP3   OH216450   4.875   3.645   4.225
 5502TIP3    H116451   4.827   3.689   4.155
 5502TIP3    H216452   4.882   3.554   4.196
 5503TIP3   OH216453   1.150   4.199   0.399
 5503TIP3    H116454   1.081   4.265   0.391
 5503TIP3    H216455   1.188   4.193   0.312
 5504TIP3   OH216456   6.669   5.762   1.996
 5504TIP3    H116457   6.761   5.785   1.987
 5504TIP3    H216458   6.667   5.667   1.994
 5505TIP3   OH216459   6.175   3.454   4.901
 5505TIP3    H116460   6.181   3.531   4.844
 5505TIP3    H216461   6.094   3.410   4.874
 5506TIP3   OH216462   1.808   5.490   5.970
 5506TIP3    H116463   1.726   5.536   5.954
 5506TIP3    H216464   1.785   5.397   5.969
 5507TIP3   OH216465   0.148   0.802   6.431
 5507TIP3    H116466   0.185   0.730   6.481
 5507TIP3    H216467   0.070   0.828   6.480
 5508TIP3   OH216468   1.150   2.364   5.033
 5508TIP3    H116469   1.077   2.336   4.977
 5508TIP3    H216470   1.217   2.297   5.020
 5509TIP3   OH216471   0.097   6.124   4.427
 5509TIP3    H116472   0.087   6.057   4.495
 5509TIP3    H216473   0.053   6.088   4.351
 5510TIP3   OH216474   7.310   2.894   4.161
 5510TIP3    H116475   7.215   2.892   4.155
 5510TIP3    H216476   7.340   2.885   4.071
 5511TIP3   OH216477   6.601   5.523   0.696
 5511TIP3    H116478   6.538   5.582   0.736
 5511TIP3    H216479   6.679   5.531   0.750
 5512TIP3   OH216480   5.919   0.490   0.346
 5512TIP3    H116481   5.986   0.552   0.317
 5512TIP3    H216482   5.954   0.452   0.426
 5513TIP3   OH216483   3.208   3.365   2.982
 5513TIP3    H116484   3.129   3.313   2.998
 5513TIP3    H216485   3.268   3.338   3.052
 5514TIP3   OH216486   0.105   0.258   6.099
 5514TIP3    H116487   0.182   0.312   6.115
 5514TIP3    H216488   0.130   0.200   6.026
 5515TIP3   OH216489   7.816   3.778   6.601
 5515TIP3    H116490   7.854   3.708   6.548
 5515TIP3    H216491   7.797   3.848   6.538
 5516TIP3   OH216492   1.481   2.046   3.103
 5516TIP3    H116493   1.409   2.071   3.045
 5516TIP3    H216494   1.440   1.992   3.170
 5517TIP3   OH216495   7.980   2.868   0.441
 5517TIP3    H116496   8.012   2.821   0.518
 5517TIP3    H216497   8.012   2.958   0.453
 5518TIP3   OH216498   6.849   6.309   5.452
 5518TIP3    H116499   6.917   6.265   5.504
 5518TIP3    H216500   6.897   6.366   5.392
 5519TIP3   OH216501   5.542   0.434   4.337
 5519TIP3    H116502   5.607   0.466   4.399
 5519TIP3    H216503   5.554   0.339   4.336
 5520TIP3   OH216504   5.426   5.649   5.834
 5520TIP3    H116505   5.385   5.695   5.761
 5520TIP3    H216506   5.376   5.677   5.911
 5521TIP3   OH216507   3.068   2.081   5.058
 5521TIP3    H116508   3.154   2.039   5.061
 5521TIP3    H216509   3.038   2.081   5.149
 5522TIP3   OH216510   7.144   1.000   3.320
 5522TIP3    H116511   7.143   1.056   3.398
 5522TIP3    H216512   7.087   1.046   3.258
 5523TIP3   OH216513   4.939   3.635   2.318
 5523TIP3    H116514   4.851   3.672   2.326
 5523TIP3    H216515   4.929   3.561   2.259
 5524TIP3   OH216516   7.271   2.963   2.769
 5524TIP3    H116517   7.321   2.883   2.780
 5524TIP3    H216518   7.286   2.989   2.678
 5525TIP3   OH216519   7.831   3.644   1.628
 5525TIP3    H116520   7.868   3.676   1.546
 5525TIP3    H216521   7.893   3.578   1.658
 5526TIP3   OH216522   5.707   6.429   5.737
 5526TIP3    H116523   5.740   6.503   5.686
 5526TIP3    H216524   5.783   6.397   5.784
 5527TIP3   OH216525   0.460   5.492   1.340
 5527TIP3    H116526   0.546   5.455   1.360
 5527TIP3    H216527   0.467   5.584   1.365
 5528TIP3   OH216528   3.677   7.046   4.376
 5528TIP3    H116529   3.741   7.006   4.435
 5528TIP3    H216530   3.592   7.017   4.408
 5529TIP3   OH216531   2.840   6.245   1.344
 5529TIP3    H116532   2.912   6.192   1.380
 5529TIP3    H216533   2.765   6.225   1.400
 5530TIP3   OH216534   3.785   1.621   1.087
 5530TIP3    H116535   3.807   1.568   1.011
 5530TIP3    H216536   3.707   1.670   1.061
 5531TIP3   OH216537   7.672   6.844   6.218
 5531TIP3    H116538   7.615   6.778   6.180
 5531TIP3    H216539   7.759   6.824   6.183
 5532TIP3   OH216540   6.000   7.180   0.948
 5532TIP3    H116541   5.916   7.210   0.915
 5532TIP3    H216542   5.979   7.110   1.010
 5533TIP3   OH216543   6.812   5.391   5.513
 5533TIP3    H116544   6.811   5.300   5.541
 5533TIP3    H216545   6.814   5.386   5.417
 5534TIP3   OH216546   6.916   5.592   3.199
 5534TIP3    H116547   6.894   5.608   3.291
 5534TIP3    H216548   6.993   5.534   3.203
 5535TIP3   OH216549   1.295   7.162   3.866
 5535TIP3    H116550   1.303   7.143   3.960
 5535TIP3    H216551   1.300   7.077   3.823
 5536TIP3   OH216552   0.551   7.678   2.527
 5536TIP3    H116553   0.577   7.673   2.619
 5536TIP3    H216554   0.612   7.620   2.482
 5537TIP3   OH216555   0.542   6.923   0.714
 5537TIP3    H116556   0.490   6.845   0.695
 5537TIP3    H216557   0.550   6.967   0.630
 5538TIP3   OH216558   8.296   0.792   0.965
 5538TIP3    H116559   8.260   0.818   0.880
 5538TIP3    H216560   8.338   0.708   0.948
 5539TIP3   OH216561   6.467   4.550   5.464
 5539TIP3    H116562   6.458   4.505   5.381
 5539TIP3    H216563   6.561   4.550   5.481
 5540TIP3   OH216564   4.779   7.772   4.805
 5540TIP3    H116565   4.785   7.786   4.900
 5540TIP3    H216566   4.797   7.678   4.794
 5541TIP3   OH216567   3.183   6.502   2.340
 5541TIP3    H116568   3.174   6.596   2.326
 5541TIP3    H216569   3.278   6.486   2.336
 5542TIP3   OH216570   4.639   7.174   4.974
 5542TIP3    H116571   4.700   7.248   4.971
 5542TIP3    H216572   4.561   7.206   4.929
 5543TIP3   OH216573   2.110   6.116   0.245
 5543TIP3    H116574   2.118   6.101   0.151
 5543TIP3    H216575   2.053   6.046   0.276
 5544TIP3   OH216576   7.099   1.336   2.399
 5544TIP3    H116577   7.068   1.257   2.444
 5544TIP3    H216578   7.045   1.407   2.434
 5545TIP3   OH216579   7.893   5.142   2.170
 5545TIP3    H116580   7.918   5.166   2.081
 5545TIP3    H216581   7.797   5.144   2.170
 5546TIP3   OH216582   6.453   1.378   3.522
 5546TIP3    H116583   6.541   1.364   3.485
 5546TIP3    H216584   6.401   1.305   3.488
 5547TIP3   OH216585   1.750   3.309   0.240
 5547TIP3    H116586   1.814   3.261   0.188
 5547TIP3    H216587   1.713   3.373   0.180
 5548TIP3   OH216588   7.487   2.789   2.496
 5548TIP3    H116589   7.473   2.785   2.590
 5548TIP3    H216590   7.472   2.699   2.466
 5549TIP3   OH216591   1.937   2.188   5.016
 5549TIP3    H116592   1.942   2.228   5.102
 5549TIP3    H216593   2.028   2.178   4.989
 5550TIP3   OH216594   1.549   5.522   6.050
 5550TIP3    H116595   1.486   5.468   6.099
 5550TIP3    H216596   1.537   5.495   5.959
 5551TIP3   OH216597   7.212   5.938   3.861
 5551TIP3    H116598   7.139   5.942   3.799
 5551TIP3    H216599   7.289   5.921   3.806
 5552TIP3   OH216600   1.502   2.092   4.157
 5552TIP3    H116601   1.422   2.039   4.158
 5552TIP3    H216602   1.522   2.104   4.064
 5553TIP3   OH216603   7.400   5.235   6.297
 5553TIP3    H116604   7.421   5.170   6.364
 5553TIP3    H216605   7.305   5.230   6.289
 5554TIP3   OH216606   2.319   4.972   1.960
 5554TIP3    H116607   2.376   5.000   1.888
 5554TIP3    H216608   2.291   4.884   1.934
 5555TIP3   OH216609   5.387   7.586   1.057
 5555TIP3    H116610   5.369   7.492   1.063
 5555TIP3    H216611   5.324   7.619   0.993
 5556TIP3   OH216612   5.921   6.291   6.635
 5556TIP3    H116613   6.002   6.287   6.583
 5556TIP3    H216614   5.866   6.354   6.588
 5557TIP3   OH216615   1.787   1.854   1.556
 5557TIP3    H116616   1.740   1.792   1.612
 5557TIP3    H216617   1.862   1.804   1.523
 5558TIP3   OH216618   3.166   3.158   0.248
 5558TIP3    H116619   3.077   3.185   0.227
 5558TIP3    H216620   3.200   3.120   0.167
 5559TIP3   OH216621   4.970   7.322   4.688
 5559TIP3    H116622   4.979   7.354   4.778
 5559TIP3    H216623   4.977   7.227   4.695
 5560TIP3   OH216624   7.565   7.277   4.118
 5560TIP3    H116625   7.546   7.284   4.212
 5560TIP3    H216626   7.481   7.253   4.079
 5561TIP3   OH216627   4.404   1.909   4.710
 5561TIP3    H116628   4.319   1.940   4.739
 5561TIP3    H216629   4.403   1.921   4.615
 5562TIP3   OH216630   4.259   5.512   1.507
 5562TIP3    H116631   4.238   5.574   1.577
 5562TIP3    H216632   4.232   5.427   1.540
 5563TIP3   OH216633   7.793   1.264   6.213
 5563TIP3    H116634   7.749   1.212   6.280
 5563TIP3    H216635   7.762   1.228   6.130
 5564TIP3   OH216636   6.855   0.634   4.262
 5564TIP3    H116637   6.780   0.615   4.207
 5564TIP3    H216638   6.868   0.554   4.314
 5565TIP3   OH216639   2.803   5.951   5.640
 5565TIP3    H116640   2.731   5.950   5.577
 5565TIP3    H216641   2.761   5.938   5.725
 5566TIP3   OH216642   0.493   2.409   3.402
 5566TIP3    H116643   0.442   2.368   3.332
 5566TIP3    H216644   0.472   2.357   3.480
 5567TIP3   OH216645   0.162   3.846   2.894
 5567TIP3    H116646   0.185   3.897   2.972
 5567TIP3    H216647   0.158   3.910   2.824
 5568TIP3   OH216648   1.921   3.038   2.432
 5568TIP3    H116649   2.003   3.075   2.398
 5568TIP3    H216650   1.936   3.030   2.527
 5569TIP3   OH216651   5.696   1.099   1.011
 5569TIP3    H116652   5.771   1.148   0.976
 5569TIP3    H216653   5.651   1.066   0.933
 5570TIP3   OH216654   5.363   1.114   0.573
 5570TIP3    H116655   5.339   1.064   0.495
 5570TIP3    H216656   5.287   1.107   0.630
 5571TIP3   OH216657   1.757   5.718   4.838
 5571TIP3    H116658   1.694   5.647   4.823
 5571TIP3    H216659   1.839   5.674   4.860
 5572TIP3   OH216660   4.723   2.306   3.097
 5572TIP3    H116661   4.773   2.282   3.175
 5572TIP3    H216662   4.708   2.400   3.106
 5573TIP3   OH216663   0.500   1.002   3.241
 5573TIP3    H116664   0.534   0.913   3.237
 5573TIP3    H216665   0.558   1.047   3.303
 5574TIP3   OH216666   7.308   7.267   1.744
 5574TIP3    H116667   7.238   7.329   1.724
 5574TIP3    H216668   7.366   7.270   1.668
 5575TIP3   OH216669   4.357   2.370   3.528
 5575TIP3    H116670   4.334   2.412   3.611
 5575TIP3    H216671   4.299   2.413   3.464
 5576TIP3   OH216672   1.564   3.052   2.039
 5576TIP3    H116673   1.469   3.050   2.044
 5576TIP3    H216674   1.584   3.021   1.951
 5577TIP3   OH216675   1.111   0.377   3.837
 5577TIP3    H116676   1.207   0.383   3.845
 5577TIP3    H216677   1.093   0.283   3.832
 5578TIP3   OH216678   3.408   2.908   2.592
 5578TIP3    H116679   3.351   2.968   2.640
 5578TIP3    H216680   3.434   2.957   2.514
 5579TIP3   OH216681   7.950   6.401   0.579
 5579TIP3    H116682   8.028   6.387   0.632
 5579TIP3    H216683   7.973   6.476   0.523
 5580TIP3   OH216684   5.659   6.001   1.160
 5580TIP3    H116685   5.600   5.945   1.211
 5580TIP3    H216686   5.624   6.090   1.174
 5581TIP3   OH216687   3.999   6.932   3.599
 5581TIP3    H116688   4.049   6.886   3.532
 5581TIP3    H216689   4.020   7.025   3.586
 5582TIP3   OH216690   6.115   6.882   6.069
 5582TIP3    H116691   6.029   6.917   6.047
 5582TIP3    H216692   6.176   6.936   6.018
 5583TIP3   OH216693   3.419   3.132   0.837
 5583TIP3    H116694   3.337   3.179   0.820
 5583TIP3    H216695   3.390   3.046   0.869
 5584TIP3   OH216696   3.413   4.483   4.665
 5584TIP3    H116697   3.480   4.512   4.727
 5584TIP3    H216698   3.354   4.429   4.717
 5585TIP3   OH216699   4.795   2.742   4.698
 5585TIP3    H116700   4.843   2.668   4.662
 5585TIP3    H216701   4.733   2.766   4.630
 5586TIP3   OH216702   5.732   6.061   4.231
 5586TIP3    H116703   5.715   5.967   4.235
 5586TIP3    H216704   5.739   6.088   4.323
 5587TIP3   OH216705   0.577   7.379   4.344
 5587TIP3    H116706   0.513   7.376   4.415
 5587TIP3    H216707   0.597   7.472   4.334
 5588TIP3   OH216708   6.702   1.669   5.671
 5588TIP3    H116709   6.649   1.590   5.660
 5588TIP3    H216710   6.658   1.735   5.616
 5589TIP3   OH216711   6.846   2.340   3.819
 5589TIP3    H116712   6.805   2.309   3.738
 5589TIP3    H216713   6.908   2.407   3.790
 5590TIP3   OH216714   0.393   5.832   4.737
 5590TIP3    H116715   0.407   5.777   4.814
 5590TIP3    H216716   0.318   5.887   4.760
 5591TIP3   OH216717   1.224   6.550   0.780
 5591TIP3    H116718   1.267   6.549   0.694
 5591TIP3    H216719   1.286   6.506   0.838
 5592TIP3   OH216720   1.894   0.123   1.026
 5592TIP3    H116721   1.894   0.103   1.120
 5592TIP3    H216722   1.987   0.125   1.002
 5593TIP3   OH216723   7.248   5.993   5.941
 5593TIP3    H116724   7.255   5.898   5.954
 5593TIP3    H216725   7.155   6.010   5.929
 5594TIP3   OH216726   7.006   2.010   2.254
 5594TIP3    H116727   7.010   1.942   2.187
 5594TIP3    H216728   7.049   2.086   2.215
 5595TIP3   OH216729   6.459   1.529   4.610
 5595TIP3    H116730   6.491   1.619   4.610
 5595TIP3    H216731   6.366   1.536   4.628
 5596TIP3   OH216732   0.106   7.025   3.484
 5596TIP3    H116733   0.129   6.938   3.451
 5596TIP3    H216734   0.062   7.068   3.410
 5597TIP3   OH216735   5.118   5.339   5.839
 5597TIP3    H116736   5.185   5.300   5.895
 5597TIP3    H216737   5.151   5.328   5.750
 5598TIP3   OH216738   4.737   2.495   3.813
 5598TIP3    H116739   4.656   2.545   3.806
 5598TIP3    H216740   4.716   2.423   3.872
 5599TIP3   OH216741   6.171   3.963   3.479
 5599TIP3    H116742   6.128   3.904   3.417
 5599TIP3    H216743   6.100   3.996   3.533
 5600TIP3   OH216744   7.673   7.631   5.498
 5600TIP3    H116745   7.763   7.597   5.506
 5600TIP3    H216746   7.674   7.684   5.419
 5601TIP3   OH216747   2.558   4.919   4.846
 5601TIP3    H116748   2.565   4.823   4.837
 5601TIP3    H216749   2.622   4.953   4.784
 5602TIP3   OH216750   2.249   6.642   3.167
 5602TIP3    H116751   2.189   6.713   3.146
 5602TIP3    H216752   2.210   6.600   3.244
 5603TIP3   OH216753   5.613   1.505   5.594
 5603TIP3    H116754   5.612   1.600   5.603
 5603TIP3    H216755   5.620   1.473   5.684
 5604TIP3   OH216756   7.212   6.457   4.898
 5604TIP3    H116757   7.212   6.429   4.807
 5604TIP3    H216758   7.288   6.412   4.937
 5605TIP3   OH216759   4.324   1.285   6.731
 5605TIP3    H116760   4.322   1.207   6.787
 5605TIP3    H216761   4.413   1.319   6.741
 5606TIP3   OH216762   5.735   1.421   5.362
 5606TIP3    H116763   5.737   1.327   5.376
 5606TIP3    H216764   5.685   1.456   5.436
 5607TIP3   OH216765   8.083   1.935   5.752
 5607TIP3    H116766   8.173   1.950   5.720
 5607TIP3    H216767   8.040   2.020   5.741
 5608TIP3   OH216768   1.928   0.229   2.811
 5608TIP3    H116769   1.953   0.274   2.892
 5608TIP3    H216770   1.892   0.298   2.755
 5609TIP3   OH216771   1.698   2.681   3.772
 5609TIP3    H116772   1.707   2.590   3.744
 5609TIP3    H216773   1.605   2.701   3.760
 5610TIP3   OH216774   5.426   6.104   0.645
 5610TIP3    H116775   5.344   6.153   0.651
 5610TIP3    H216776   5.473   6.124   0.726
 5611TIP3   OH216777   0.535   4.840   2.782
 5611TIP3    H116778   0.524   4.764   2.839
 5611TIP3    H216779   0.609   4.888   2.820
 5612TIP3   OH216780   3.626   7.232   4.073
 5612TIP3    H116781   3.665   7.180   4.144
 5612TIP3    H216782   3.680   7.311   4.069
 5613TIP3   OH216783   7.240   0.699   0.057
 5613TIP3    H116784   7.255   0.770   0.119
 5613TIP3    H216785   7.328   0.665   0.039
 5614TIP3   OH216786   1.283   2.239   0.185
 5614TIP3    H116787   1.241   2.154   0.197
 5614TIP3    H216788   1.213   2.296   0.154
 5615TIP3   OH216789   3.944   0.835   1.102
 5615TIP3    H116790   4.024   0.784   1.112
 5615TIP3    H216791   3.944   0.896   1.176
 5616TIP3   OH216792   6.131   0.296   2.105
 5616TIP3    H116793   6.099   0.369   2.052
 5616TIP3    H216794   6.223   0.316   2.120
 5617TIP3   OH216795   3.631   3.047   6.063
 5617TIP3    H116796   3.680   3.010   6.137
 5617TIP3    H216797   3.547   3.074   6.101
 5618TIP3   OH216798   5.943   3.219   0.119
 5618TIP3    H116799   6.026   3.202   0.164
 5618TIP3    H216800   5.969   3.242   0.030
 5619TIP3   OH216801   5.822   2.275   0.479
 5619TIP3    H116802   5.804   2.345   0.542
 5619TIP3    H216803   5.757   2.208   0.499
 5620TIP3   OH216804   5.169   4.292   4.951
 5620TIP3    H116805   5.119   4.213   4.932
 5620TIP3    H216806   5.168   4.299   5.046
 5621TIP3   OH216807   2.776   1.371   3.634
 5621TIP3    H116808   2.705   1.354   3.696
 5621TIP3    H216809   2.774   1.466   3.620
 5622TIP3   OH216810   6.058   2.309   4.475
 5622TIP3    H116811   6.023   2.220   4.480
 5622TIP3    H216812   6.132   2.303   4.415
 5623TIP3   OH216813   5.156   7.588   1.888
 5623TIP3    H116814   5.198   7.508   1.856
 5623TIP3    H216815   5.229   7.641   1.920
 5624TIP3   OH216816   2.403   2.286   5.762
 5624TIP3    H116817   2.389   2.216   5.825
 5624TIP3    H216818   2.443   2.357   5.812
 5625TIP3   OH216819   3.648   5.366   0.693
 5625TIP3    H116820   3.632   5.350   0.600
 5625TIP3    H216821   3.719   5.429   0.694
 5626TIP3   OH216822   0.351   4.871   4.863
 5626TIP3    H116823   0.357   4.882   4.768
 5626TIP3    H216824   0.432   4.910   4.897
 5627TIP3   OH216825   5.304   2.945   2.100
 5627TIP3    H116826   5.333   3.006   2.168
 5627TIP3    H216827   5.257   2.877   2.147
 5628TIP3   OH216828   6.242   5.996   0.180
 5628TIP3    H116829   6.220   5.990   0.087
 5628TIP3    H216830   6.177   5.941   0.224
 5629TIP3   OH216831   7.343   4.219   1.447
 5629TIP3    H116832   7.248   4.231   1.441
 5629TIP3    H216833   7.353   4.127   1.472
 5630TIP3   OH216834   0.557   6.223   5.611
 5630TIP3    H116835   0.465   6.249   5.607
 5630TIP3    H216836   0.602   6.283   5.551
 5631TIP3   OH216837   7.982   4.570   4.693
 5631TIP3    H116838   7.968   4.554   4.600
 5631TIP3    H216839   7.975   4.484   4.733
 5632TIP3   OH216840   3.659   3.528   4.402
 5632TIP3    H116841   3.688   3.563   4.486
 5632TIP3    H216842   3.669   3.601   4.341
 5633TIP3   OH216843   2.284   6.999   4.820
 5633TIP3    H116844   2.369   6.995   4.863
 5633TIP3    H216845   2.303   7.020   4.729
 5634TIP3   OH216846   5.430   4.924   3.536
 5634TIP3    H116847   5.390   4.880   3.611
 5634TIP3    H216848   5.360   4.933   3.472
 5635TIP3   OH216849   3.073   1.643   6.095
 5635TIP3    H116850   3.092   1.617   6.005
 5635TIP3    H216851   3.136   1.595   6.148
 5636TIP3   OH216852   1.060   4.026   1.770
 5636TIP3    H116853   1.034   4.055   1.857
 5636TIP3    H216854   1.101   4.103   1.730
 5637TIP3   OH216855   2.748   4.350   3.052
 5637TIP3    H116856   2.727   4.402   3.129
 5637TIP3    H216857   2.763   4.262   3.086
 5638TIP3   OH216858   8.126   5.570   0.160
 5638TIP3    H116859   8.149   5.628   0.232
 5638TIP3    H216860   8.127   5.627   0.082
 5639TIP3   OH216861   7.476   1.296   0.723
 5639TIP3    H116862   7.459   1.362   0.656
 5639TIP3    H216863   7.518   1.224   0.676
 5640TIP3   OH216864   0.459   1.597   5.555
 5640TIP3    H116865   0.483   1.609   5.463
 5640TIP3    H216866   0.506   1.666   5.601
 5641TIP3   OH216867   5.242   0.200   3.395
 5641TIP3    H116868   5.193   0.175   3.474
 5641TIP3    H216869   5.296   0.274   3.423
 5642TIP3   OH216870   6.358   0.184   5.511
 5642TIP3    H116871   6.283   0.194   5.453
 5642TIP3    H216872   6.434   0.201   5.455
 5643TIP3   OH216873   5.637   5.709   0.455
 5643TIP3    H116874   5.545   5.732   0.438
 5643TIP3    H216875   5.637   5.672   0.543
 5644TIP3   OH216876   6.795   2.635   2.163
 5644TIP3    H116877   6.766   2.726   2.150
 5644TIP3    H216878   6.832   2.634   2.251
 5645TIP3   OH216879   4.565   5.465   3.525
 5645TIP3    H116880   4.502   5.428   3.464
 5645TIP3    H216881   4.525   5.454   3.611
 5646TIP3   OH216882   6.503   1.478   1.946
 5646TIP3    H116883   6.563   1.443   1.880
 5646TIP3    H216884   6.451   1.543   1.899
 5647TIP3   OH216885   8.120   2.512   3.654
 5647TIP3    H116886   8.216   2.505   3.653
 5647TIP3    H216887   8.103   2.604   3.631
 5648TIP3   OH216888   2.333   1.527   2.576
 5648TIP3    H116889   2.397   1.528   2.504
 5648TIP3    H216890   2.278   1.603   2.560
 5649TIP3   OH216891   1.801   0.975   1.267
 5649TIP3    H116892   1.778   1.035   1.338
 5649TIP3    H216893   1.717   0.938   1.239
 5650TIP3   OH216894   0.034   3.510   4.481
 5650TIP3    H116895   0.045   3.439   4.544
 5650TIP3    H216896  -0.036   3.480   4.423
 5651TIP3   OH216897   4.874   1.894   5.216
 5651TIP3    H116898   4.886   1.873   5.124
 5651TIP3    H216899   4.946   1.953   5.238
 5652TIP3   OH216900   4.698   2.579   0.672
 5652TIP3    H116901   4.758   2.515   0.710
 5652TIP3    H216902   4.726   2.663   0.710
 5653TIP3   OH216903   2.371   7.204   2.928
 5653TIP3    H116904   2.360   7.255   2.848
 5653TIP3    H216905   2.345   7.115   2.903
 5654TIP3   OH216906   5.233   4.823   2.661
 5654TIP3    H116907   5.272   4.826   2.749
 5654TIP3    H216908   5.138   4.821   2.677
 5655TIP3   OH216909   5.796   2.838   5.292
 5655TIP3    H116910   5.797   2.805   5.202
 5655TIP3    H216911   5.788   2.933   5.282
 5656TIP3   OH216912   7.499   6.942   1.182
 5656TIP3    H116913   7.544   6.858   1.182
 5656TIP3    H216914   7.470   6.954   1.092
 5657TIP3   OH216915   3.659   3.415   3.589
 5657TIP3    H116916   3.719   3.346   3.560
 5657TIP3    H216917   3.611   3.440   3.511
 5658TIP3   OH216918   7.949   4.357   3.300
 5658TIP3    H116919   7.935   4.361   3.205
 5658TIP3    H216920   7.929   4.446   3.330
 5659TIP3   OH216921   5.949   2.154   2.995
 5659TIP3    H116922   5.971   2.081   3.054
 5659TIP3    H216923   6.010   2.145   2.922
 5660TIP3   OH216924   0.446   7.227   5.898
 5660TIP3    H116925   0.492   7.197   5.977
 5660TIP3    H216926   0.477   7.168   5.829
 5661TIP3   OH216927   1.071   0.053   5.915
 5661TIP3    H116928   1.022  -0.010   5.968
 5661TIP3    H216929   1.006   0.091   5.856
 5662TIP3   OH216930   7.882   2.587   1.373
 5662TIP3    H116931   7.908   2.668   1.417
 5662TIP3    H216932   7.935   2.519   1.415
 5663TIP3   OH216933   5.473   6.527   3.055
 5663TIP3    H116934   5.561   6.490   3.062
 5663TIP3    H216935   5.488   6.621   3.045
 5664TIP3   OH216936   5.265   4.277   1.460
 5664TIP3    H116937   5.228   4.197   1.424
 5664TIP3    H216938   5.291   4.254   1.549
 5665TIP3   OH216939   6.120   0.654   0.282
 5665TIP3    H116940   6.121   0.705   0.362
 5665TIP3    H216941   6.212   0.644   0.259
 5666TIP3   OH216942   6.428   6.641   2.257
 5666TIP3    H116943   6.411   6.652   2.164
 5666TIP3    H216944   6.342   6.650   2.298
 5667TIP3   OH216945   3.336   3.187   2.507
 5667TIP3    H116946   3.429   3.201   2.522
 5667TIP3    H216947   3.293   3.216   2.587
 5668TIP3   OH216948   2.738   1.220   0.602
 5668TIP3    H116949   2.713   1.237   0.512
 5668TIP3    H216950   2.763   1.306   0.636
 5669TIP3   OH216951   7.746   3.036   1.401
 5669TIP3    H116952   7.717   3.102   1.338
 5669TIP3    H216953   7.806   2.980   1.352
 5670TIP3   OH216954   4.561   2.079   1.886
 5670TIP3    H116955   4.479   2.087   1.935
 5670TIP3    H216956   4.628   2.109   1.948
 5671TIP3   OH216957   2.849  -0.018   5.498
 5671TIP3    H116958   2.902   0.058   5.478
 5671TIP3    H216959   2.760   0.016   5.506
 5672TIP3   OH216960   4.385   7.134   5.624
 5672TIP3    H116961   4.336   7.118   5.543
 5672TIP3    H216962   4.443   7.058   5.633
 5673TIP3   OH216963   8.001   5.016   5.188
 5673TIP3    H116964   8.001   5.001   5.282
 5673TIP3    H216965   8.022   5.109   5.178
 5674TIP3   OH216966   6.116   2.433   2.084
 5674TIP3    H116967   6.034   2.386   2.090
 5674TIP3    H216968   6.123   2.479   2.168
 5675TIP3   OH216969   5.091   1.187   3.316
 5675TIP3    H116970   5.148   1.181   3.392
 5675TIP3    H216971   5.140   1.144   3.246
 5676TIP3   OH216972   3.428   0.166   4.308
 5676TIP3    H116973   3.431   0.115   4.227
 5676TIP3    H216974   3.511   0.213   4.310
 5677TIP3   OH216975   7.859   2.587   2.539
 5677TIP3    H116976   7.814   2.521   2.487
 5677TIP3    H216977   7.935   2.541   2.575
 5678TIP3   OH216978   5.686   3.924   1.678
 5678TIP3    H116979   5.692   3.992   1.745
 5678TIP3    H216980   5.745   3.953   1.609
 5679TIP3   OH216981   5.848   1.308   4.100
 5679TIP3    H116982   5.902   1.370   4.051
 5679TIP3    H216983   5.901   1.229   4.106
 5680TIP3   OH216984   5.554   4.956   2.322
 5680TIP3    H116985   5.498   5.019   2.276
 5680TIP3    H216986   5.492   4.897   2.366
 5681TIP3   OH216987   4.467   6.858   1.632
 5681TIP3    H116988   4.415   6.879   1.710
 5681TIP3    H216989   4.402   6.840   1.564
 5682TIP3   OH216990   6.927   7.255   1.447
 5682TIP3    H116991   6.908   7.164   1.422
 5682TIP3    H216992   6.870   7.271   1.522
 5683TIP3   OH216993   2.470   3.607   4.209
 5683TIP3    H116994   2.463   3.617   4.114
 5683TIP3    H216995   2.407   3.539   4.231
 5684TIP3   OH216996   7.701   3.132   3.168
 5684TIP3    H116997   7.740   3.161   3.086
 5684TIP3    H216998   7.727   3.199   3.232
 5685TIP3   OH216999   6.900   6.973   2.635
 5685TIP3    H117000   6.840   6.900   2.652
 5685TIP3    H217001   6.865   7.016   2.557
 5686TIP3   OH217002   2.594   3.924   0.824
 5686TIP3    H117003   2.588   4.001   0.768
 5686TIP3    H217004   2.550   3.949   0.905
 5687TIP3   OH217005   7.407   2.488   5.994
 5687TIP3    H117006   7.416   2.397   5.966
 5687TIP3    H217007   7.454   2.538   5.927
 5688TIP3   OH217008   6.265   2.731   6.318
 5688TIP3    H117009   6.313   2.811   6.297
 5688TIP3    H217010   6.242   2.695   6.232
 5689TIP3   OH217011   0.928   4.796   2.414
 5689TIP3    H117012   0.849   4.807   2.361
 5689TIP3    H217013   0.998   4.781   2.350
 5690TIP3   OH217014   4.288   0.963   5.783
 5690TIP3    H117015   4.369   0.919   5.755
 5690TIP3    H217016   4.310   1.003   5.867
 5691TIP3   OH217017   5.740   1.845   6.227
 5691TIP3    H117018   5.771   1.892   6.304
 5691TIP3    H217019   5.819   1.817   6.182
 5692TIP3   OH217020   4.108   0.883   3.326
 5692TIP3    H117021   4.061   0.904   3.246
 5692TIP3    H217022   4.066   0.805   3.360
 5693TIP3   OH217023   5.364   6.706   2.515
 5693TIP3    H117024   5.321   6.640   2.570
 5693TIP3    H217025   5.300   6.725   2.447
 5694TIP3   OH217026   6.896   0.713   0.882
 5694TIP3    H117027   6.869   0.650   0.948
 5694TIP3    H217028   6.991   0.719   0.890
 5695TIP3   OH217029   7.406   7.076   5.352
 5695TIP3    H117030   7.388   7.168   5.371
 5695TIP3    H217031   7.486   7.057   5.401
 5696TIP3   OH217032   6.609   6.845   1.919
 5696TIP3    H117033   6.540   6.907   1.942
 5696TIP3    H217034   6.680   6.864   1.980
 5697TIP3   OH217035   6.388   5.764   6.200
 5697TIP3    H117036   6.320   5.714   6.154
 5697TIP3    H217037   6.342   5.806   6.273
 5698TIP3   OH217038   0.351   7.024   2.756
 5698TIP3    H117039   0.274   6.968   2.751
 5698TIP3    H217040   0.388   7.022   2.668
 5699TIP3   OH217041   7.449   3.894   4.392
 5699TIP3    H117042   7.412   3.838   4.461
 5699TIP3    H217043   7.491   3.966   4.439
 5700TIP3   OH217044   7.360   4.681   1.515
 5700TIP3    H117045   7.350   4.662   1.608
 5700TIP3    H217046   7.286   4.636   1.473
 5701TIP3   OH217047   2.377   4.277   6.731
 5701TIP3    H117048   2.344   4.201   6.683
 5701TIP3    H217049   2.471   4.277   6.712
 5702TIP3   OH217050   6.498   3.950   2.416
 5702TIP3    H117051   6.434   3.985   2.354
 5702TIP3    H217052   6.484   4.000   2.496
 5703TIP3   OH217053   6.521   6.527   2.001
 5703TIP3    H117054   6.599   6.556   2.049
 5703TIP3    H217055   6.516   6.433   2.016
 5704TIP3   OH217056   1.089   6.755   1.740
 5704TIP3    H117057   1.121   6.691   1.677
 5704TIP3    H217058   1.103   6.714   1.825
 5705TIP3   OH217059   3.714   6.784   2.097
 5705TIP3    H117060   3.749   6.697   2.082
 5705TIP3    H217061   3.653   6.774   2.170
 5706TIP3   OH217062   6.106   3.316   3.250
 5706TIP3    H117063   6.031   3.374   3.265
 5706TIP3    H217064   6.120   3.319   3.155
 5707TIP3   OH217065   7.868   6.550   4.812
 5707TIP3    H117066   7.940   6.585   4.864
 5707TIP3    H217067   7.832   6.478   4.864
 5708TIP3   OH217068   2.820   6.182   3.385
 5708TIP3    H117069   2.784   6.253   3.334
 5708TIP3    H217070   2.853   6.223   3.465
 5709TIP3   OH217071   6.312   4.640   0.795
 5709TIP3    H117072   6.345   4.729   0.807
 5709TIP3    H217073   6.307   4.629   0.701
 5710TIP3   OH217074   0.665   3.614   3.458
 5710TIP3    H117075   0.602   3.598   3.529
 5710TIP3    H217076   0.653   3.540   3.398
 5711TIP3   OH217077   6.184   4.441   5.138
 5711TIP3    H117078   6.220   4.523   5.103
 5711TIP3    H217079   6.100   4.467   5.176
 5712TIP3   OH217080   7.009   0.457   6.105
 5712TIP3    H117081   7.059   0.440   6.185
 5712TIP3    H217082   6.920   0.472   6.135
 5713TIP3   OH217083   5.093   6.632   6.008
 5713TIP3    H117084   5.004   6.665   5.990
 5713TIP3    H217085   5.111   6.571   5.937
 5714TIP3   OH217086   1.754   2.655   0.025
 5714TIP3    H117087   1.846   2.629   0.025
 5714TIP3    H217088   1.750   2.725   0.092
 5715TIP3   OH217089   5.203   3.343   1.264
 5715TIP3    H117090   5.143   3.289   1.316
 5715TIP3    H217091   5.288   3.302   1.275
 5716TIP3   OH217092   5.694   7.467   2.791
 5716TIP3    H117093   5.629   7.512   2.737
 5716TIP3    H217094   5.760   7.534   2.810
 5717TIP3   OH217095   7.288   3.383   4.165
 5717TIP3    H117096   7.364   3.417   4.212
 5717TIP3    H217097   7.282   3.291   4.193
 5718TIP3   OH217098   5.018   6.891   5.613
 5718TIP3    H117099   5.111   6.893   5.634
 5718TIP3    H217100   4.997   6.798   5.603
 5719TIP3   OH217101   1.970   1.171   1.550
 5719TIP3    H117102   2.021   1.246   1.578
 5719TIP3    H217103   1.891   1.209   1.511
 5720TIP3   OH217104   1.158   1.972   1.442
 5720TIP3    H117105   1.133   1.944   1.530
 5720TIP3    H217106   1.168   1.891   1.393
 5721TIP3   OH217107   4.864   7.147   6.083
 5721TIP3    H117108   4.916   7.067   6.095
 5721TIP3    H217109   4.921   7.205   6.031
 5722TIP3   OH217110   6.265   1.986   6.759
 5722TIP3    H117111   6.237   1.894   6.762
 5722TIP3    H217112   6.232   2.018   6.675
 5723TIP3   OH217113   4.978   1.185   4.566
 5723TIP3    H117114   4.945   1.128   4.496
 5723TIP3    H217115   5.034   1.248   4.521
 5724TIP3   OH217116   7.789   6.191   0.048
 5724TIP3    H117117   7.822   6.201   0.137
 5724TIP3    H217118   7.734   6.113   0.051
 5725TIP3   OH217119   5.746   0.122   1.646
 5725TIP3    H117120   5.706   0.094   1.563
 5725TIP3    H217121   5.679   0.106   1.712
 5726TIP3   OH217122   1.136   1.069   2.646
 5726TIP3    H117123   1.201   1.063   2.576
 5726TIP3    H217124   1.087   1.148   2.627
 5727TIP3   OH217125   3.193   5.474   3.333
 5727TIP3    H117126   3.114   5.437   3.371
 5727TIP3    H217127   3.262   5.410   3.353
 5728TIP3   OH217128   4.530   0.278   2.557
 5728TIP3    H117129   4.498   0.301   2.469
 5728TIP3    H217130   4.569   0.359   2.589
 5729TIP3   OH217131   4.200   1.128   0.441
 5729TIP3    H117132   4.246   1.082   0.371
 5729TIP3    H217133   4.163   1.205   0.399
 5730TIP3   OH217134   0.231   5.171   4.649
 5730TIP3    H117135   0.309   5.199   4.697
 5730TIP3    H217136   0.171   5.140   4.717
 5731TIP3   OH217137   1.919   3.769   2.207
 5731TIP3    H117138   1.919   3.862   2.231
 5731TIP3    H217139   1.957   3.724   2.283
 5732TIP3   OH217140   6.912   7.502   1.034
 5732TIP3    H117141   7.004   7.523   1.018
 5732TIP3    H217142   6.915   7.434   1.101
 5733TIP3   OH217143   0.202   3.452   1.264
 5733TIP3    H117144   0.228   3.514   1.195
 5733TIP3    H217145   0.115   3.483   1.291
 5734TIP3   OH217146   7.092   1.591   5.115
 5734TIP3    H117147   7.100   1.685   5.132
 5734TIP3    H217148   7.149   1.575   5.041
 5735TIP3   OH217149   3.931   7.139   4.141
 5735TIP3    H117150   3.955   7.228   4.114
 5735TIP3    H217151   3.945   7.139   4.236
 5736TIP3   OH217152   3.612   1.453   2.867
 5736TIP3    H117153   3.520   1.431   2.855
 5736TIP3    H217154   3.659   1.370   2.857
 5737TIP3   OH217155   1.332   2.703   2.835
 5737TIP3    H117156   1.272   2.756   2.888
 5737TIP3    H217157   1.414   2.753   2.834
 5738TIP3   OH217158   1.662   7.214   0.993
 5738TIP3    H117159   1.734   7.260   1.037
 5738TIP3    H217160   1.656   7.130   1.039
 5739TIP3   OH217161   6.203   7.575   0.165
 5739TIP3    H117162   6.177   7.500   0.219
 5739TIP3    H217163   6.133   7.582   0.099
 5740TIP3   OH217164   0.658   3.691   1.628
 5740TIP3    H117165   0.589   3.727   1.572
 5740TIP3    H217166   0.649   3.738   1.711
 5741TIP3   OH217167   0.455   0.758   1.024
 5741TIP3    H117168   0.409   0.675   1.017
 5741TIP3    H217169   0.414   0.814   0.958
 5742TIP3   OH217170   6.066   2.302   4.781
 5742TIP3    H117171   6.155   2.269   4.794
 5742TIP3    H217172   6.074   2.369   4.714
 5743TIP3   OH217173   1.807   6.986   1.172
 5743TIP3    H117174   1.760   7.065   1.200
 5743TIP3    H217175   1.837   6.946   1.253
 5744TIP3   OH217176   2.835   5.233   0.678
 5744TIP3    H117177   2.740   5.222   0.681
 5744TIP3    H217178   2.853   5.299   0.746
 5745TIP3   OH217179   5.792   1.769   1.183
 5745TIP3    H117180   5.774   1.809   1.268
 5745TIP3    H217181   5.886   1.756   1.181
 5746TIP3   OH217182   4.964   6.890   2.905
 5746TIP3    H117183   4.902   6.884   2.833
 5746TIP3    H217184   4.978   6.984   2.917
 5747TIP3   OH217185   2.871   0.976   2.125
 5747TIP3    H117186   2.777   0.988   2.128
 5747TIP3    H217187   2.900   1.030   2.052
 5748TIP3   OH217188   1.809   3.165   5.248
 5748TIP3    H117189   1.763   3.212   5.179
 5748TIP3    H217190   1.876   3.115   5.202
 5749TIP3   OH217191   6.330   2.518   0.675
 5749TIP3    H117192   6.244   2.489   0.644
 5749TIP3    H217193   6.334   2.487   0.766
 5750TIP3   OH217194   0.935   6.015   6.663
 5750TIP3    H117195   1.003   6.007   6.731
 5750TIP3    H217196   0.908   5.925   6.645
 5751TIP3   OH217197   3.726   3.229   0.773
 5751TIP3    H117198   3.772   3.173   0.710
 5751TIP3    H217199   3.755   3.318   0.751
 5752TIP3   OH217200   6.590   5.753   3.598
 5752TIP3    H117201   6.614   5.667   3.631
 5752TIP3    H217202   6.494   5.750   3.592
 5753TIP3   OH217203   4.891   0.773   6.346
 5753TIP3    H117204   4.944   0.827   6.287
 5753TIP3    H217205   4.806   0.768   6.302
 5754TIP3   OH217206   7.999   4.325   1.694
 5754TIP3    H117207   8.069   4.365   1.745
 5754TIP3    H217208   7.933   4.393   1.686
 5755TIP3   OH217209   0.280   7.699   2.511
 5755TIP3    H117210   0.367   7.703   2.472
 5755TIP3    H217211   0.296   7.674   2.602
 5756TIP3   OH217212   1.114   6.319   0.438
 5756TIP3    H117213   1.179   6.290   0.374
 5756TIP3    H217214   1.135   6.268   0.517
 5757TIP3   OH217215   4.244   4.157   6.235
 5757TIP3    H117216   4.290   4.073   6.237
 5757TIP3    H217217   4.280   4.207   6.308
 5758TIP3   OH217218   5.345   6.363   1.188
 5758TIP3    H117219   5.271   6.410   1.228
 5758TIP3    H217220   5.306   6.283   1.154
 5759TIP3   OH217221   0.057   1.141   6.656
 5759TIP3    H117222   0.020   1.225   6.629
 5759TIP3    H217223   0.103   1.160   6.737
 5760TIP3   OH217224   5.191   6.806   4.230
 5760TIP3    H117225   5.142   6.731   4.196
 5760TIP3    H217226   5.230   6.846   4.152
 5761TIP3   OH217227   2.703   0.433   0.230
 5761TIP3    H117228   2.703   0.477   0.315
 5761TIP3    H217229   2.622   0.383   0.229
 5762TIP3   OH217230   3.785   7.827   4.579
 5762TIP3    H117231   3.767   7.887   4.506
 5762TIP3    H217232   3.731   7.750   4.561
 5763TIP3   OH217233   2.361   4.472   5.289
 5763TIP3    H117234   2.392   4.500   5.375
 5763TIP3    H217235   2.400   4.535   5.228
 5764TIP3   OH217236   5.612   7.536   5.471
 5764TIP3    H117237   5.527   7.576   5.452
 5764TIP3    H217238   5.629   7.561   5.562
 5765TIP3   OH217239   3.617   1.037   6.452
 5765TIP3    H117240   3.642   0.971   6.517
 5765TIP3    H217241   3.587   1.111   6.504
 5766TIP3   OH217242   6.413   2.250   6.011
 5766TIP3    H117243   6.459   2.168   6.028
 5766TIP3    H217244   6.427   2.302   6.090
 5767TIP3   OH217245   1.012   0.753   2.118
 5767TIP3    H117246   0.935   0.744   2.175
 5767TIP3    H217247   1.004   0.682   2.055
 5768TIP3   OH217248   4.419   5.513   0.044
 5768TIP3    H117249   4.512   5.492   0.040
 5768TIP3    H217250   4.415   5.608   0.048
 5769TIP3   OH217251   5.736   7.336   6.186
 5769TIP3    H117252   5.698   7.250   6.172
 5769TIP3    H217253   5.664   7.389   6.220
 5770TIP3   OH217254   6.708   6.626   5.370
 5770TIP3    H117255   6.788   6.677   5.379
 5770TIP3    H217256   6.703   6.605   5.277
 5771TIP3   OH217257   2.684   4.092   2.435
 5771TIP3    H117258   2.757   4.030   2.439
 5771TIP3    H217259   2.652   4.097   2.525
 5772TIP3   OH217260   2.562   4.947   5.384
 5772TIP3    H117261   2.591   4.928   5.295
 5772TIP3    H217262   2.472   4.915   5.388
 5773TIP3   OH217263   7.633   7.562   4.046
 5773TIP3    H117264   7.556   7.535   4.096
 5773TIP3    H217265   7.612   7.536   3.956
 5774TIP3   OH217266   5.745   1.934   5.784
 5774TIP3    H117267   5.667   1.959   5.833
 5774TIP3    H217268   5.788   2.017   5.764
 5775TIP3   OH217269   2.970   0.597   4.605
 5775TIP3    H117270   3.003   0.616   4.518
 5775TIP3    H217271   3.032   0.533   4.641
 5776TIP3   OH217272   8.253   3.667   3.364
 5776TIP3    H117273   8.292   3.754   3.356
 5776TIP3    H217274   8.197   3.659   3.286
 5777TIP3   OH217275   2.534   1.450   1.106
 5777TIP3    H117276   2.520   1.432   1.013
 5777TIP3    H217277   2.582   1.533   1.107
 5778TIP3   OH217278   4.902   3.193   5.123
 5778TIP3    H117279   4.965   3.121   5.117
 5778TIP3    H217280   4.822   3.157   5.085
 5779TIP3   OH217281   0.938   6.170   6.001
 5779TIP3    H117282   0.974   6.082   6.005
 5779TIP3    H217283   1.009   6.225   5.967
 5780TIP3   OH217284   6.686   5.462   2.672
 5780TIP3    H117285   6.719   5.389   2.620
 5780TIP3    H217286   6.593   5.443   2.684
 5781TIP3   OH217287   4.568   2.089   2.949
 5781TIP3    H117288   4.570   2.027   3.022
 5781TIP3    H217289   4.599   2.172   2.987
 5782TIP3   OH217290   6.958   1.137   2.520
 5782TIP3    H117291   6.964   1.045   2.494
 5782TIP3    H217292   6.883   1.140   2.580
 5783TIP3   OH217293   1.748   2.721   2.581
 5783TIP3    H117294   1.771   2.804   2.624
 5783TIP3    H217295   1.694   2.748   2.506
 5784TIP3   OH217296   1.706   0.287   0.898
 5784TIP3    H117297   1.767   0.234   0.949
 5784TIP3    H217298   1.681   0.358   0.957
 5785TIP3   OH217299   4.114   5.554   2.521
 5785TIP3    H117300   4.113   5.491   2.593
 5785TIP3    H217301   4.052   5.622   2.549
 5786TIP3   OH217302   1.108   7.133   5.531
 5786TIP3    H117303   1.038   7.077   5.499
 5786TIP3    H217304   1.137   7.092   5.613
 5787TIP3   OH217305   5.771   5.179   2.624
 5787TIP3    H117306   5.767   5.206   2.533
 5787TIP3    H217307   5.823   5.247   2.667
 5788TIP3   OH217308   6.383   3.812   5.256
 5788TIP3    H117309   6.383   3.817   5.160
 5788TIP3    H217310   6.421   3.896   5.284
 5789TIP3   OH217311   6.080   7.012   6.783
 5789TIP3    H117312   6.176   7.013   6.780
 5789TIP3    H217313   6.054   6.965   6.705
 5790TIP3   OH217314   6.617   4.825   3.556
 5790TIP3    H117315   6.662   4.880   3.621
 5790TIP3    H217316   6.688   4.785   3.506
 5791TIP3   OH217317   2.196   2.999   5.280
 5791TIP3    H117318   2.230   2.910   5.289
 5791TIP3    H217319   2.135   2.994   5.207
 5792TIP3   OH217320   2.965   5.355   3.445
 5792TIP3    H117321   2.957   5.280   3.386
 5792TIP3    H217322   2.999   5.318   3.527
 5793TIP3   OH217323   8.243   0.942   3.356
 5793TIP3    H117324   8.314   0.951   3.292
 5793TIP3    H217325   8.269   0.868   3.410
 5794TIP3   OH217326   8.285   1.665   1.081
 5794TIP3    H117327   8.289   1.620   0.996
 5794TIP3    H217328   8.191   1.670   1.100
 5795TIP3   OH217329   2.873   0.239   0.114
 5795TIP3    H117330   2.808   0.171   0.132
 5795TIP3    H217331   2.833   0.320   0.146
 5796TIP3   OH217332   2.094   1.778   0.356
 5796TIP3    H117333   2.128   1.692   0.381
 5796TIP3    H217334   2.172   1.829   0.335
 5797TIP3   OH217335   2.165   6.296   5.890
 5797TIP3    H117336   2.095   6.324   5.949
 5797TIP3    H217337   2.157   6.201   5.886
 5798TIP3   OH217338   0.631   4.093   1.334
 5798TIP3    H117339   0.669   4.177   1.359
 5798TIP3    H217340   0.590   4.059   1.414
 5799TIP3   OH217341   8.116   3.546   2.891
 5799TIP3    H117342   8.069   3.500   2.960
 5799TIP3    H217343   8.170   3.610   2.937
 5800TIP3   OH217344   4.023   4.591   5.454
 5800TIP3    H117345   3.984   4.633   5.531
 5800TIP3    H217346   4.011   4.498   5.468
 5801TIP3   OH217347   8.136   5.509   4.650
 5801TIP3    H117348   8.231   5.505   4.662
 5801TIP3    H217349   8.100   5.500   4.738
 5802TIP3   OH217350   5.073   7.368   2.300
 5802TIP3    H117351   4.980   7.364   2.278
 5802TIP3    H217352   5.117   7.326   2.226
 5803TIP3   OH217353   1.100   0.618   6.362
 5803TIP3    H117354   1.128   0.703   6.328
 5803TIP3    H217355   1.018   0.599   6.317
 5804TIP3   OH217356   3.197   3.191   4.119
 5804TIP3    H117357   3.151   3.275   4.122
 5804TIP3    H217358   3.223   3.181   4.028
 5805TIP3   OH217359   0.884   1.259   1.742
 5805TIP3    H117360   0.808   1.284   1.793
 5805TIP3    H217361   0.914   1.177   1.782
 5806TIP3   OH217362   4.153   5.147   1.962
 5806TIP3    H117363   4.141   5.233   2.003
 5806TIP3    H217364   4.080   5.094   1.995
 5807TIP3   OH217365   3.620   1.064   0.679
 5807TIP3    H117366   3.539   1.014   0.687
 5807TIP3    H217367   3.680   1.022   0.741
 5808TIP3   OH217368   1.876   7.131   4.206
 5808TIP3    H117369   1.783   7.133   4.184
 5808TIP3    H217370   1.879   7.101   4.296
 5809TIP3   OH217371   0.632   1.585   4.428
 5809TIP3    H117372   0.689   1.612   4.356
 5809TIP3    H217373   0.674   1.619   4.507
 5810TIP3   OH217374   3.535   5.849   2.050
 5810TIP3    H117375   3.565   5.776   1.995
 5810TIP3    H217376   3.440   5.846   2.042
 5811TIP3   OH217377   0.264   0.241   0.725
 5811TIP3    H117378   0.249   0.235   0.631
 5811TIP3    H217379   0.202   0.180   0.764
 5812TIP3   OH217380   0.093   2.033   1.099
 5812TIP3    H117381   0.136   2.119   1.099
 5812TIP3    H217382   0.122   1.991   1.180
 5813TIP3   OH217383   2.718   2.402   6.355
 5813TIP3    H117384   2.811   2.420   6.363
 5813TIP3    H217385   2.712   2.340   6.283
 5814TIP3   OH217386   1.740   7.288   0.069
 5814TIP3    H117387   1.650   7.321   0.071
 5814TIP3    H217388   1.784   7.334   0.140
 5815TIP3   OH217389   5.471   5.875   5.074
 5815TIP3    H117390   5.474   5.920   4.989
 5815TIP3    H217391   5.379   5.876   5.099
 5816TIP3   OH217392   1.368   5.782   6.243
 5816TIP3    H117393   1.333   5.866   6.274
 5816TIP3    H217394   1.457   5.780   6.275
 5817TIP3   OH217395   1.452   6.521   0.270
 5817TIP3    H117396   1.397   6.587   0.228
 5817TIP3    H217397   1.431   6.528   0.363
 5818TIP3   OH217398   5.586   1.314   4.141
 5818TIP3    H117399   5.545   1.305   4.055
 5818TIP3    H217400   5.678   1.334   4.122
 5819TIP3   OH217401   5.576   7.180   1.292
 5819TIP3    H117402   5.481   7.170   1.294
 5819TIP3    H217403   5.606   7.116   1.227
 5820TIP3   OH217404   0.277   7.485   2.306
 5820TIP3    H117405   0.279   7.525   2.393
 5820TIP3    H217406   0.186   7.491   2.278
 5821TIP3   OH217407   3.826   2.442   0.737
 5821TIP3    H117408   3.847   2.448   0.830
 5821TIP3    H217409   3.908   2.462   0.692
 5822TIP3   OH217410   6.237   4.726   6.004
 5822TIP3    H117411   6.210   4.677   5.927
 5822TIP3    H217412   6.174   4.798   6.011
 5823TIP3   OH217413   2.661   1.578   6.204
 5823TIP3    H117414   2.672   1.509   6.138
 5823TIP3    H217415   2.648   1.658   6.153
 5824TIP3   OH217416   3.930   1.291   6.516
 5824TIP3    H117417   3.893   1.379   6.519
 5824TIP3    H217418   3.900   1.250   6.598
 5825TIP3   OH217419   4.704   0.598   0.873
 5825TIP3    H117420   4.634   0.642   0.823
 5825TIP3    H217421   4.708   0.510   0.836
 5826TIP3   OH217422   2.437   4.667   3.384
 5826TIP3    H117423   2.495   4.623   3.322
 5826TIP3    H217424   2.407   4.746   3.338
 5827TIP3   OH217425   0.693   6.438   3.216
 5827TIP3    H117426   0.689   6.379   3.141
 5827TIP3    H217427   0.781   6.424   3.253
 5828TIP3   OH217428   1.777   2.121   1.608
 5828TIP3    H117429   1.690   2.139   1.645
 5828TIP3    H217430   1.768   2.037   1.565
 5829TIP3   OH217431   4.975   5.474   2.097
 5829TIP3    H117432   4.994   5.454   2.005
 5829TIP3    H217433   4.953   5.567   2.097
 5830TIP3   OH217434   7.247   7.314   0.653
 5830TIP3    H117435   7.233   7.408   0.654
 5830TIP3    H217436   7.313   7.300   0.584
 5831TIP3   OH217437   1.264   1.707   2.002
 5831TIP3    H117438   1.342   1.651   2.001
 5831TIP3    H217439   1.205   1.668   1.937
 5832TIP3   OH217440   4.567   6.249   0.721
 5832TIP3    H117441   4.552   6.220   0.631
 5832TIP3    H217442   4.651   6.293   0.719
 5833TIP3   OH217443   3.019   0.995   5.641
 5833TIP3    H117444   3.058   0.944   5.570
 5833TIP3    H217445   3.093   1.022   5.696
 5834TIP3   OH217446   0.276   4.969   4.496
 5834TIP3    H117447   0.191   4.926   4.486
 5834TIP3    H217448   0.259   5.042   4.556
 5835TIP3   OH217449   2.317   1.458   5.682
 5835TIP3    H117450   2.321   1.415   5.767
 5835TIP3    H217451   2.400   1.436   5.639
 5836TIP3   OH217452   6.708   1.532   5.209
 5836TIP3    H117453   6.716   1.624   5.187
 5836TIP3    H217454   6.654   1.531   5.289
 5837TIP3   OH217455   4.737   3.435   4.564
 5837TIP3    H117456   4.692   3.474   4.489
 5837TIP3    H217457   4.697   3.478   4.641
 5838TIP3   OH217458   5.625   1.339   1.360
 5838TIP3    H117459   5.625   1.434   1.373
 5838TIP3    H217460   5.580   1.326   1.276
 5839TIP3   OH217461   8.305   0.362   5.117
 5839TIP3    H117462   8.274   0.346   5.206
 5839TIP3    H217463   8.317   0.275   5.080
 5840TIP3   OH217464   6.737   4.914   4.659
 5840TIP3    H117465   6.802   4.979   4.632
 5840TIP3    H217466   6.783   4.858   4.722
 5841TIP3   OH217467   3.240   3.226   1.846
 5841TIP3    H117468   3.228   3.136   1.817
 5841TIP3    H217469   3.153   3.255   1.872
 5842TIP3   OH217470   6.541   5.958   6.069
 5842TIP3    H117471   6.473   5.929   6.129
 5842TIP3    H217472   6.545   5.889   6.003
 5843TIP3   OH217473   6.220   4.579   3.347
 5843TIP3    H117474   6.140   4.583   3.401
 5843TIP3    H217475   6.289   4.553   3.408
 5844TIP3   OH217476   0.334   1.570   6.200
 5844TIP3    H117477   0.275   1.496   6.190
 5844TIP3    H217478   0.313   1.605   6.287
 5845TIP3   OH217479   1.403   6.041   2.576
 5845TIP3    H117480   1.480   6.090   2.606
 5845TIP3    H217481   1.381   6.081   2.492
 5846TIP3   OH217482   5.061   3.964   4.191
 5846TIP3    H117483   5.092   3.877   4.218
 5846TIP3    H217484   5.037   3.954   4.099
 5847TIP3   OH217485   6.867   5.171   1.927
 5847TIP3    H117486   6.850   5.081   1.956
 5847TIP3    H217487   6.824   5.177   1.842
 5848TIP3   OH217488   4.017   0.275   1.378
 5848TIP3    H117489   4.087   0.318   1.427
 5848TIP3    H217490   3.999   0.195   1.427
 5849TIP3   OH217491   3.301   7.052   5.245
 5849TIP3    H117492   3.310   7.086   5.156
 5849TIP3    H217493   3.245   6.975   5.235
 5850TIP3   OH217494   3.239   5.078   3.579
 5850TIP3    H117495   3.262   5.165   3.612
 5850TIP3    H217496   3.306   5.020   3.615
 5851TIP3   OH217497   6.555   4.053   4.177
 5851TIP3    H117498   6.548   4.016   4.265
 5851TIP3    H217499   6.646   4.081   4.170
 5852TIP3   OH217500   7.816   6.268   5.798
 5852TIP3    H117501   7.842   6.238   5.711
 5852TIP3    H217502   7.737   6.218   5.818
 5853TIP3   OH217503   3.547   4.716   3.140
 5853TIP3    H117504   3.507   4.718   3.227
 5853TIP3    H217505   3.474   4.697   3.080
 5854TIP3   OH217506   4.981   6.034   0.255
 5854TIP3    H117507   4.976   6.002   0.345
 5854TIP3    H217508   5.038   6.111   0.261
 5855TIP3   OH217509   5.528   2.748   6.204
 5855TIP3    H117510   5.500   2.811   6.137
 5855TIP3    H217511   5.548   2.668   6.154
 5856TIP3   OH217512   1.636   4.859   5.089
 5856TIP3    H117513   1.569   4.804   5.129
 5856TIP3    H217514   1.587   4.921   5.035
 5857TIP3   OH217515   3.098   6.732   0.717
 5857TIP3    H117516   3.156   6.695   0.651
 5857TIP3    H217517   3.111   6.827   0.711
 5858TIP3   OH217518   3.324   3.744   1.996
 5858TIP3    H117519   3.409   3.706   2.018
 5858TIP3    H217520   3.316   3.821   2.052
 5859TIP3   OH217521   4.492   6.737   5.671
 5859TIP3    H117522   4.540   6.815   5.699
 5859TIP3    H217523   4.556   6.666   5.677
 5860TIP3   OH217524   5.823   2.936   6.115
 5860TIP3    H117525   5.735   2.926   6.151
 5860TIP3    H217526   5.829   3.029   6.092
 5861TIP3   OH217527   5.007   6.764   2.665
 5861TIP3    H117528   5.082   6.707   2.644
 5861TIP3    H217529   5.013   6.777   2.759
 5862TIP3   OH217530   7.697   1.120   1.864
 5862TIP3    H117531   7.742   1.045   1.904
 5862TIP3    H217532   7.755   1.195   1.881
 5863TIP3   OH217533   1.884   5.148   3.175
 5863TIP3    H117534   1.918   5.182   3.258
 5863TIP3    H217535   1.937   5.190   3.108
 5864TIP3   OH217536   0.078   4.073   6.652
 5864TIP3    H117537   0.109   4.062   6.742
 5864TIP3    H217538  -0.008   4.113   6.661
 5865TIP3   OH217539   3.676   3.173   5.097
 5865TIP3    H117540   3.728   3.197   5.174
 5865TIP3    H217541   3.721   3.095   5.062
 5866TIP3   OH217542   7.857   1.040   0.082
 5866TIP3    H117543   7.792   0.974   0.107
 5866TIP3    H217544   7.886   1.013  -0.005
 5867TIP3   OH217545   7.907   2.448   5.556
 5867TIP3    H117546   7.850   2.485   5.488
 5867TIP3    H217547   7.866   2.366   5.580
 5868TIP3   OH217548   5.441   0.037   3.568
 5868TIP3    H117549   5.422   0.121   3.610
 5868TIP3    H217550   5.421  -0.028   3.636
 5869TIP3   OH217551   1.960   5.054   1.881
 5869TIP3    H117552   1.945   5.015   1.795
 5869TIP3    H217553   1.999   4.983   1.933
 5870TIP3   OH217554   7.379   3.139   5.180
 5870TIP3    H117555   7.340   3.224   5.157
 5870TIP3    H217556   7.448   3.160   5.243
 5871TIP3   OH217557   5.065   0.074   4.117
 5871TIP3    H117558   4.971   0.068   4.129
 5871TIP3    H217559   5.079   0.054   4.025
 5872TIP3   OH217560   2.326   5.771   4.129
 5872TIP3    H117561   2.408   5.770   4.178
 5872TIP3    H217562   2.329   5.692   4.074
 5873TIP3   OH217563   3.029   2.332   3.691
 5873TIP3    H117564   2.957   2.313   3.751
 5873TIP3    H217565   2.993   2.395   3.628
 5874TIP3   OH217566   0.123   2.835   1.789
 5874TIP3    H117567   0.117   2.918   1.741
 5874TIP3    H217568   0.178   2.780   1.734
 5875TIP3   OH217569   3.382   0.245   5.948
 5875TIP3    H117570   3.466   0.274   5.983
 5875TIP3    H217571   3.376   0.288   5.862
 5876TIP3   OH217572   2.359   5.340   1.858
 5876TIP3    H117573   2.381   5.311   1.769
 5876TIP3    H217574   2.265   5.326   1.865
 5877TIP3   OH217575   6.017   2.010   4.456
 5877TIP3    H117576   5.922   1.995   4.464
 5877TIP3    H217577   6.035   1.999   4.363
 5878TIP3   OH217578   7.239   2.159   0.812
 5878TIP3    H117579   7.293   2.080   0.813
 5878TIP3    H217580   7.276   2.213   0.741
 5879TIP3   OH217581   3.060   3.786   0.393
 5879TIP3    H117582   3.085   3.765   0.302
 5879TIP3    H217583   3.006   3.865   0.385
 5880TIP3   OH217584   7.847   7.433   1.124
 5880TIP3    H117585   7.852   7.392   1.210
 5880TIP3    H217586   7.795   7.373   1.071
 5881TIP3   OH217587   6.891   6.925   6.328
 5881TIP3    H117588   6.819   6.988   6.333
 5881TIP3    H217589   6.850   6.843   6.302
 5882TIP3   OH217590   0.971   1.549   2.280
 5882TIP3    H117591   1.059   1.537   2.316
 5882TIP3    H217592   0.936   1.625   2.326
 5883TIP3   OH217593   3.984   7.166   1.496
 5883TIP3    H117594   3.988   7.146   1.590
 5883TIP3    H217595   3.970   7.082   1.454
 5884TIP3   OH217596   4.881   2.866   2.540
 5884TIP3    H117597   4.964   2.895   2.577
 5884TIP3    H217598   4.835   2.826   2.614
 5885TIP3   OH217599   7.310   1.130   5.372
 5885TIP3    H117600   7.307   1.226   5.373
 5885TIP3    H217601   7.388   1.107   5.421
 5886TIP3   OH217602   2.576   6.034   0.974
 5886TIP3    H117603   2.655   6.057   1.024
 5886TIP3    H217604   2.608   6.024   0.884
 5887TIP3   OH217605   7.717   2.751   2.818
 5887TIP3    H117606   7.772   2.725   2.744
 5887TIP3    H217607   7.765   2.822   2.860
 5888TIP3   OH217608   6.429   2.941   4.225
 5888TIP3    H117609   6.349   2.913   4.271
 5888TIP3    H217610   6.500   2.898   4.273
 5889TIP3   OH217611   2.126   3.943   4.257
 5889TIP3    H117612   2.110   3.867   4.313
 5889TIP3    H217613   2.214   3.930   4.223
 5890TIP3   OH217614   2.266   7.494   5.703
 5890TIP3    H117615   2.222   7.503   5.619
 5890TIP3    H217616   2.355   7.468   5.681
 5891TIP3   OH217617   2.980   5.321   5.483
 5891TIP3    H117618   2.956   5.411   5.505
 5891TIP3    H217619   2.929   5.301   5.405
 5892TIP3   OH217620   1.159   1.717   1.303
 5892TIP3    H117621   1.136   1.692   1.214
 5892TIP3    H217622   1.255   1.714   1.305
 5893TIP3   OH217623   6.802   2.087   0.733
 5893TIP3    H117624   6.800   2.110   0.640
 5893TIP3    H217625   6.763   2.162   0.777
 5894TIP3   OH217626   3.189   4.017   6.531
 5894TIP3    H117627   3.253   3.956   6.493
 5894TIP3    H217628   3.172   3.982   6.619
 5895TIP3   OH217629   8.129   7.116   0.185
 5895TIP3    H117630   8.064   7.120   0.114
 5895TIP3    H217631   8.111   7.194   0.238
 5896TIP3   OH217632   6.261   6.409   5.932
 5896TIP3    H117633   6.179   6.375   5.968
 5896TIP3    H217634   6.250   6.504   5.932
 5897TIP3   OH217635   7.294   5.928   2.029
 5897TIP3    H117636   7.203   5.906   2.049
 5897TIP3    H217637   7.299   5.926   1.933
 5898TIP3   OH217638   0.672   2.215   4.429
 5898TIP3    H117639   0.724   2.179   4.500
 5898TIP3    H217640   0.659   2.307   4.453
 5899TIP3   OH217641   2.003   5.439   6.180
 5899TIP3    H117642   2.033   5.358   6.220
 5899TIP3    H217643   1.945   5.411   6.109
 5900TIP3   OH217644   6.610   2.137   0.147
 5900TIP3    H117645   6.683   2.197   0.136
 5900TIP3    H217646   6.602   2.124   0.241
 5901TIP3   OH217647   5.397   3.306   5.766
 5901TIP3    H117648   5.361   3.229   5.810
 5901TIP3    H217649   5.371   3.295   5.674
 5902TIP3   OH217650   6.794   2.595   3.018
 5902TIP3    H117651   6.805   2.674   3.072
 5902TIP3    H217652   6.727   2.545   3.064
 5903TIP3   OH217653   5.554   5.144   6.358
 5903TIP3    H117654   5.520   5.233   6.368
 5903TIP3    H217655   5.569   5.115   6.448
 5904TIP3   OH217656   8.118   3.362   2.647
 5904TIP3    H117657   8.111   3.300   2.720
 5904TIP3    H217658   8.139   3.445   2.688
 5905TIP3   OH217659   0.267   1.074   5.615
 5905TIP3    H117660   0.329   1.030   5.556
 5905TIP3    H217661   0.248   1.157   5.572
 5906TIP3   OH217662   4.265   2.624   0.284
 5906TIP3    H117663   4.219   2.592   0.361
 5906TIP3    H217664   4.196   2.654   0.225
 5907TIP3   OH217665   0.648   7.770   3.890
 5907TIP3    H117666   0.576   7.745   3.947
 5907TIP3    H217667   0.620   7.742   3.803
 5908TIP3   OH217668   3.526   1.071   3.455
 5908TIP3    H117669   3.471   0.999   3.488
 5908TIP3    H217670   3.469   1.148   3.460
 5909TIP3   OH217671   5.598   1.576   2.023
 5909TIP3    H117672   5.550   1.514   1.969
 5909TIP3    H217673   5.660   1.522   2.073
 5910TIP3   OH217674   2.963   3.173   2.300
 5910TIP3    H117675   3.028   3.221   2.250
 5910TIP3    H217676   2.880   3.218   2.282
 5911TIP3   OH217677   7.577   3.769   4.913
 5911TIP3    H117678   7.605   3.816   4.835
 5911TIP3    H217679   7.586   3.677   4.890
 5912TIP3   OH217680   6.508   3.151   3.795
 5912TIP3    H117681   6.487   3.069   3.840
 5912TIP3    H217682   6.449   3.215   3.835
 5913TIP3   OH217683   4.951   6.011   4.291
 5913TIP3    H117684   4.884   5.988   4.355
 5913TIP3    H217685   4.978   5.927   4.253
 5914TIP3   OH217686   7.079   4.009   1.453
 5914TIP3    H117687   7.065   3.958   1.532
 5914TIP3    H217688   7.139   3.956   1.400
 5915TIP3   OH217689   3.066   6.909   5.262
 5915TIP3    H117690   3.000   6.845   5.236
 5915TIP3    H217691   3.070   6.971   5.190
 5916TIP3   OH217692   2.092   6.852   3.157
 5916TIP3    H117693   2.026   6.787   3.180
 5916TIP3    H217694   2.042   6.930   3.133
 5917TIP3   OH217695   1.488   2.950   2.751
 5917TIP3    H117696   1.488   3.045   2.742
 5917TIP3    H217697   1.557   2.931   2.814
 5918TIP3   OH217698   7.687   3.945   0.362
 5918TIP3    H117699   7.647   3.931   0.276
 5918TIP3    H217700   7.777   3.913   0.351
 5919TIP3   OH217701   4.335   0.158   6.127
 5919TIP3    H117702   4.430   0.147   6.135
 5919TIP3    H217703   4.319   0.247   6.156
 5920TIP3   OH217704   3.517   2.631   2.981
 5920TIP3    H117705   3.577   2.661   2.913
 5920TIP3    H217706   3.575   2.602   3.052
 5921TIP3   OH217707   5.121   6.792   2.356
 5921TIP3    H117708   5.071   6.872   2.368
 5921TIP3    H217709   5.079   6.747   2.283
 5922TIP3   OH217710   2.887   1.056   1.606
 5922TIP3    H117711   2.830   1.130   1.628
 5922TIP3    H217712   2.827   0.989   1.571
 5923TIP3   OH217713   7.717   3.267   0.951
 5923TIP3    H117714   7.626   3.294   0.941
 5923TIP3    H217715   7.733   3.209   0.876
 5924TIP3   OH217716   6.878   2.120   4.163
 5924TIP3    H117717   6.877   2.047   4.224
 5924TIP3    H217718   6.786   2.132   4.139
 5925TIP3   OH217719   2.504   7.536   3.771
 5925TIP3    H117720   2.588   7.557   3.732
 5925TIP3    H217721   2.519   7.453   3.817
 5926TIP3   OH217722   0.978   2.373   0.350
 5926TIP3    H117723   0.972   2.374   0.254
 5926TIP3    H217724   1.030   2.294   0.369
 5927TIP3   OH217725   4.956   1.831   4.199
 5927TIP3    H117726   4.952   1.904   4.137
 5927TIP3    H217727   5.004   1.763   4.151
 5928TIP3   OH217728   1.304   5.877   0.714
 5928TIP3    H117729   1.327   5.836   0.797
 5928TIP3    H217730   1.209   5.869   0.709
 5929TIP3   OH217731   3.618   2.346   5.410
 5929TIP3    H117732   3.619   2.322   5.503
 5929TIP3    H217733   3.603   2.440   5.410
 5930TIP3   OH217734   4.378   7.781   5.953
 5930TIP3    H117735   4.292   7.751   5.981
 5930TIP3    H217736   4.411   7.712   5.896
 5931TIP3   OH217737   3.675   1.196   4.087
 5931TIP3    H117738   3.680   1.129   4.154
 5931TIP3    H217739   3.583   1.201   4.063
 5932TIP3   OH217740   4.393   7.252   2.697
 5932TIP3    H117741   4.465   7.285   2.750
 5932TIP3    H217742   4.435   7.204   2.625
 5933TIP3   OH217743   7.288   4.194   3.733
 5933TIP3    H117744   7.217   4.193   3.669
 5933TIP3    H217745   7.368   4.188   3.681
 5934TIP3   OH217746   3.002   3.938   5.531
 5934TIP3    H117747   2.915   3.909   5.503
 5934TIP3    H217748   3.046   3.859   5.560
 5935TIP3   OH217749   5.092   0.641   0.567
 5935TIP3    H117750   5.030   0.674   0.632
 5935TIP3    H217751   5.041   0.637   0.486
 5936TIP3   OH217752   4.485   1.102   2.244
 5936TIP3    H117753   4.548   1.068   2.181
 5936TIP3    H217754   4.402   1.060   2.219
 5937TIP3   OH217755   7.210   1.312   0.700
 5937TIP3    H117756   7.212   1.285   0.608
 5937TIP3    H217757   7.300   1.304   0.730
 5938TIP3   OH217758   0.864   5.537   1.174
 5938TIP3    H117759   0.796   5.561   1.111
 5938TIP3    H217760   0.833   5.455   1.213
 5939TIP3   OH217761   5.858   4.902   3.586
 5939TIP3    H117762   5.943   4.909   3.545
 5939TIP3    H217763   5.873   4.847   3.663
 5940TIP3   OH217764   3.164   4.768   4.109
 5940TIP3    H117765   3.163   4.686   4.158
 5940TIP3    H217766   3.157   4.741   4.017
 5941TIP3   OH217767   5.362   1.393   0.137
 5941TIP3    H117768   5.367   1.347   0.053
 5941TIP3    H217769   5.315   1.474   0.116
 5942TIP3   OH217770   2.878   7.630   2.737
 5942TIP3    H117771   2.962   7.663   2.705
 5942TIP3    H217772   2.901   7.556   2.794
 5943TIP3   OH217773   2.599   2.027   5.702
 5943TIP3    H117774   2.547   2.046   5.624
 5943TIP3    H217775   2.557   2.077   5.772
 5944TIP3   OH217776   7.823   4.873   1.765
 5944TIP3    H117777   7.868   4.808   1.712
 5944TIP3    H217778   7.893   4.918   1.812
 5945TIP3   OH217779   7.524   6.026   2.560
 5945TIP3    H117780   7.541   6.088   2.489
 5945TIP3    H217781   7.443   5.982   2.535
 5946TIP3   OH217782   3.448   6.282   6.438
 5946TIP3    H117783   3.378   6.276   6.372
 5946TIP3    H217784   3.499   6.202   6.426
 5947TIP3   OH217785   4.739   3.884   3.635
 5947TIP3    H117786   4.680   3.810   3.647
 5947TIP3    H217787   4.794   3.884   3.714
 5948TIP3   OH217788   5.732   7.530   3.125
 5948TIP3    H117789   5.696   7.591   3.190
 5948TIP3    H217790   5.763   7.586   3.054
 5949TIP3   OH217791   4.885   7.149   3.875
 5949TIP3    H117792   4.967   7.186   3.842
 5949TIP3    H217793   4.887   7.057   3.847
 5950TIP3   OH217794   7.286   2.748   3.152
 5950TIP3    H117795   7.374   2.731   3.186
 5950TIP3    H217796   7.279   2.692   3.074
 5951TIP3   OH217797   7.425   4.540   0.413
 5951TIP3    H117798   7.342   4.582   0.390
 5951TIP3    H217799   7.460   4.509   0.329
 5952TIP3   OH217800   7.000   7.406   2.872
 5952TIP3    H117801   6.945   7.440   2.943
 5952TIP3    H217802   6.985   7.466   2.799
 5953TIP3   OH217803   5.677   3.525   2.538
 5953TIP3    H117804   5.711   3.448   2.583
 5953TIP3    H217805   5.746   3.550   2.477
 5954TIP3   OH217806   4.979   3.489   3.572
 5954TIP3    H117807   5.016   3.540   3.500
 5954TIP3    H217808   4.987   3.546   3.648
 5955TIP3   OH217809   7.826   0.288   1.578
 5955TIP3    H117810   7.840   0.368   1.527
 5955TIP3    H217811   7.735   0.262   1.558
 5956TIP3   OH217812   1.751   2.886   6.427
 5956TIP3    H117813   1.742   2.952   6.358
 5956TIP3    H217814   1.811   2.822   6.391
 5957TIP3   OH217815   6.770   3.502   5.555
 5957TIP3    H117816   6.699   3.558   5.522
 5957TIP3    H217817   6.731   3.452   5.626
 5958TIP3   OH217818   8.233   5.535   2.253
 5958TIP3    H117819   8.254   5.589   2.177
 5958TIP3    H217820   8.145   5.501   2.234
 5959TIP3   OH217821   1.345   4.088   4.570
 5959TIP3    H117822   1.293   4.164   4.544
 5959TIP3    H217823   1.310   4.016   4.518
 5960TIP3   OH217824   3.561   7.309   2.154
 5960TIP3    H117825   3.579   7.300   2.061
 5960TIP3    H217826   3.599   7.230   2.193
 5961TIP3   OH217827   3.278   6.156   2.110
 5961TIP3    H117828   3.316   6.241   2.089
 5961TIP3    H217829   3.188   6.176   2.138
 5962TIP3   OH217830   5.239   1.973   3.312
 5962TIP3    H117831   5.148   1.951   3.331
 5962TIP3    H217832   5.233   2.044   3.248
 5963TIP3   OH217833   0.086   0.755   4.170
 5963TIP3    H117834   0.103   0.698   4.245
 5963TIP3    H217835  -0.001   0.728   4.139
 5964TIP3   OH217836   4.325   4.433   0.684
 5964TIP3    H117837   4.246   4.486   0.676
 5964TIP3    H217838   4.292   4.344   0.698
 5965TIP3   OH217839   1.833   6.648   5.706
 5965TIP3    H117840   1.844   6.604   5.621
 5965TIP3    H217841   1.740   6.643   5.724
 5966TIP3   OH217842   0.882   5.304   1.690
 5966TIP3    H117843   0.873   5.244   1.615
 5966TIP3    H217844   0.803   5.358   1.686
 5967TIP3   OH217845   3.387   3.805   4.345
 5967TIP3    H117846   3.296   3.790   4.371
 5967TIP3    H217847   3.382   3.872   4.277
 5968TIP3   OH217848   3.531   3.890   1.089
 5968TIP3    H117849   3.519   3.931   1.003
 5968TIP3    H217850   3.512   3.960   1.151
 5969TIP3   OH217851   3.922   4.491   3.194
 5969TIP3    H117852   3.875   4.571   3.217
 5969TIP3    H217853   3.948   4.503   3.103
 5970TIP3   OH217854   6.522   2.563   1.318
 5970TIP3    H117855   6.431   2.593   1.316
 5970TIP3    H217856   6.516   2.468   1.331
 5971TIP3   OH217857   3.668   7.651   1.811
 5971TIP3    H117858   3.711   7.659   1.896
 5971TIP3    H217859   3.715   7.581   1.766
 5972TIP3   OH217860   6.275   7.140   0.505
 5972TIP3    H117861   6.279   7.084   0.582
 5972TIP3    H217862   6.194   7.190   0.515
 5973TIP3   OH217863   3.283   4.907   6.213
 5973TIP3    H117864   3.207   4.930   6.267
 5973TIP3    H217865   3.262   4.821   6.178
 5974TIP3   OH217866   0.613   7.267   2.980
 5974TIP3    H117867   0.701   7.284   3.012
 5974TIP3    H217868   0.616   7.178   2.946
 5975TIP3   OH217869   6.601   2.222   2.520
 5975TIP3    H117870   6.692   2.222   2.489
 5975TIP3    H217871   6.562   2.144   2.481
 5976TIP3   OH217872   0.544   4.484   6.607
 5976TIP3    H117873   0.568   4.442   6.525
 5976TIP3    H217874   0.577   4.425   6.675
 5977TIP3   OH217875   7.442   2.397   3.077
 5977TIP3    H117876   7.515   2.457   3.060
 5977TIP3    H217877   7.416   2.417   3.167
 5978TIP3   OH217878   0.578   5.384   0.042
 5978TIP3    H117879   0.620   5.454  -0.008
 5978TIP3    H217880   0.565   5.314  -0.022
 5979TIP3   OH217881   4.242   7.673   3.240
 5979TIP3    H117882   4.158   7.631   3.218
 5979TIP3    H217883   4.217   7.761   3.268
 5980TIP3   OH217884   8.288   0.514   4.809
 5980TIP3    H117885   8.304   0.420   4.801
 5980TIP3    H217886   8.203   0.528   4.768
 5981TIP3   OH217887   1.270   6.173   1.024
 5981TIP3    H117888   1.328   6.148   1.096
 5981TIP3    H217889   1.322   6.233   0.971
 5982TIP3   OH217890   3.190   0.308   6.540
 5982TIP3    H117891   3.097   0.305   6.563
 5982TIP3    H217892   3.233   0.339   6.620
 5983TIP3   OH217893   0.234   2.463   0.920
 5983TIP3    H117894   0.142   2.441   0.931
 5983TIP3    H217895   0.238   2.507   0.835
 5984TIP3   OH217896   4.100   0.951   5.342
 5984TIP3    H117897   4.093   1.016   5.272
 5984TIP3    H217898   4.091   0.866   5.297
 5985TIP3   OH217899   0.564   3.592   4.859
 5985TIP3    H117900   0.483   3.548   4.885
 5985TIP3    H217901   0.632   3.525   4.868
 5986TIP3   OH217902   1.273   0.189   2.420
 5986TIP3    H117903   1.369   0.183   2.421
 5986TIP3    H217904   1.246   0.114   2.367
 5987TIP3   OH217905   6.094   6.493   0.984
 5987TIP3    H117906   6.067   6.575   1.025
 5987TIP3    H217907   6.014   6.441   0.977
 5988TIP3   OH217908   7.647   6.511   0.480
 5988TIP3    H117909   7.569   6.523   0.534
 5988TIP3    H217910   7.690   6.434   0.518
 5989TIP3   OH217911   4.184   3.537   5.467
 5989TIP3    H117912   4.235   3.572   5.540
 5989TIP3    H217913   4.198   3.599   5.395
 5990TIP3   OH217914   3.974   4.640   1.322
 5990TIP3    H117915   3.988   4.729   1.292
 5990TIP3    H217916   3.891   4.644   1.370
 5991TIP3   OH217917   0.893   0.585   2.984
 5991TIP3    H117918   0.808   0.573   3.027
 5991TIP3    H217919   0.938   0.500   2.995
 5992TIP3   OH217920   3.801   7.082   5.680
 5992TIP3    H117921   3.855   7.154   5.715
 5992TIP3    H217922   3.864   7.024   5.637
 5993TIP3   OH217923   0.137   3.413   4.205
 5993TIP3    H117924   0.045   3.392   4.221
 5993TIP3    H217925   0.135   3.492   4.151
 5994TIP3   OH217926   2.003   3.426   0.768
 5994TIP3    H117927   2.075   3.431   0.705
 5994TIP3    H217928   2.047   3.412   0.852
 5995TIP3   OH217929   1.206   0.002   4.111
 5995TIP3    H117930   1.189   0.070   4.176
 5995TIP3    H217931   1.121  -0.016   4.073
 5996TIP3   OH217932   7.007   3.759   1.274
 5996TIP3    H117933   7.012   3.676   1.322
 5996TIP3    H217934   7.095   3.796   1.279
 5997TIP3   OH217935   7.251   6.286   6.637
 5997TIP3    H117936   7.206   6.206   6.665
 5997TIP3    H217937   7.326   6.294   6.697
 5998TIP3   OH217938   2.539   6.166   0.350
 5998TIP3    H117939   2.553   6.120   0.433
 5998TIP3    H217940   2.465   6.224   0.367
 5999TIP3   OH217941   8.258   7.255   1.222
 5999TIP3    H117942   8.333   7.213   1.180
 5999TIP3    H217943   8.187   7.246   1.158
 6000TIP3   OH217944   6.727   4.295   6.420
 6000TIP3    H117945   6.731   4.211   6.467
 6000TIP3    H217946   6.818   4.325   6.416
 6001TIP3   OH217947   6.168   3.537   4.300
 6001TIP3    H117948   6.074   3.525   4.315
 6001TIP3    H217949   6.173   3.588   4.219
 6002TIP3   OH217950   5.341   1.411   1.997
 6002TIP3    H117951   5.339   1.341   2.063
 6002TIP3    H217952   5.268   1.390   1.939
 6003TIP3   OH217953   0.821   7.649   0.816
 6003TIP3    H117954   0.829   7.578   0.880
 6003TIP3    H217955   0.777   7.720   0.863
 6004TIP3   OH217956   0.087   5.224   0.468
 6004TIP3    H117957   0.000   5.244   0.504
 6004TIP3    H217958   0.146   5.237   0.542
 6005TIP3   OH217959   0.761   5.955   5.801
 6005TIP3    H117960   0.751   6.046   5.827
 6005TIP3    H217961   0.734   5.952   5.710
 6006TIP3   OH217962   2.952   2.662   6.216
 6006TIP3    H117963   2.998   2.596   6.268
 6006TIP3    H217964   3.017   2.731   6.203
 6007TIP3   OH217965   0.574   6.778   0.254
 6007TIP3    H117966   0.612   6.715   0.193
 6007TIP3    H217967   0.504   6.820   0.204
 6008TIP3   OH217968   1.729   6.919   0.316
 6008TIP3    H117969   1.678   6.867   0.378
 6008TIP3    H217970   1.664   6.956   0.256
 6009TIP3   OH217971   7.987   3.952   6.212
 6009TIP3    H117972   7.898   3.957   6.247
 6009TIP3    H217973   8.023   4.039   6.226
 6010TIP3   OH217974   3.888   4.864   5.361
 6010TIP3    H117975   3.855   4.876   5.450
 6010TIP3    H217976   3.828   4.802   5.320
 6011TIP3   OH217977   7.354   7.709   2.293
 6011TIP3    H117978   7.272   7.758   2.283
 6011TIP3    H217979   7.419   7.776   2.316
 6012TIP3   OH217980   6.726   6.661   3.285
 6012TIP3    H117981   6.714   6.675   3.379
 6012TIP3    H217982   6.794   6.593   3.279
 6013TIP3   OH217983   5.882   7.660   2.873
 6013TIP3    H117984   5.964   7.627   2.837
 6013TIP3    H217985   5.886   7.755   2.857
 6014TIP3   OH217986   1.368   6.212   2.358
 6014TIP3    H117987   1.279   6.227   2.392
 6014TIP3    H217988   1.371   6.263   2.277
 6015TIP3   OH217989   2.393   3.348   3.024
 6015TIP3    H117990   2.473   3.346   3.077
 6015TIP3    H217991   2.325   3.377   3.085
 6016TIP3   OH217992   3.449   0.399   1.195
 6016TIP3    H117993   3.432   0.384   1.102
 6016TIP3    H217994   3.496   0.482   1.198
 6017TIP3   OH217995   1.282   6.584   1.615
 6017TIP3    H117996   1.281   6.534   1.697
 6017TIP3    H217997   1.371   6.572   1.581
 6018TIP3   OH217998   1.251   2.680   6.259
 6018TIP3    H117999   1.308   2.757   6.255
 6018TIP3    H218000   1.176   2.703   6.204
 6019TIP3   OH218001   0.374   5.657   3.975
 6019TIP3    H118002   0.286   5.621   3.961
 6019TIP3    H218003   0.413   5.661   3.887
 6020TIP3   OH218004   7.570   1.353   5.272
 6020TIP3    H118005   7.551   1.446   5.283
 6020TIP3    H218006   7.501   1.320   5.214
 6021TIP3   OH218007   5.715   0.320   5.119
 6021TIP3    H118008   5.632   0.346   5.077
 6021TIP3    H218009   5.736   0.236   5.079
 6022TIP3   OH218010   0.377   1.146   2.997
 6022TIP3    H118011   0.433   1.082   3.042
 6022TIP3    H218012   0.357   1.211   3.064
 6023TIP3   OH218013   4.433   6.685   5.047
 6023TIP3    H118014   4.397   6.723   5.128
 6023TIP3    H218015   4.522   6.718   5.042
 6024TIP3   OH218016   5.097   7.250   4.966
 6024TIP3    H118017   5.014   7.287   4.994
 6024TIP3    H218018   5.151   7.249   5.046
 6025TIP3   OH218019   7.461   0.314   0.335
 6025TIP3    H118020   7.541   0.346   0.295
 6025TIP3    H218021   7.390   0.346   0.279
 6026TIP3   OH218022   5.316   3.513   4.460
 6026TIP3    H118023   5.393   3.518   4.517
 6026TIP3    H218024   5.243   3.536   4.517
 6027TIP3   OH218025   1.687   2.246   5.802
 6027TIP3    H118026   1.652   2.196   5.875
 6027TIP3    H218027   1.689   2.185   5.729
 6028TIP3   OH218028   7.736   5.757   4.093
 6028TIP3    H118029   7.749   5.737   4.000
 6028TIP3    H218030   7.771   5.845   4.104
 6029TIP3   OH218031   2.419   5.853   1.869
 6029TIP3    H118032   2.504   5.885   1.898
 6029TIP3    H218033   2.357   5.883   1.936
 6030TIP3   OH218034   3.300   5.598   3.724
 6030TIP3    H118035   3.373   5.659   3.737
 6030TIP3    H218036   3.268   5.618   3.636
 6031TIP3   OH218037   5.049   5.433   0.861
 6031TIP3    H118038   5.128   5.487   0.865
 6031TIP3    H218039   5.075   5.349   0.899
 6032TIP3   OH218040   2.090   0.366   4.818
 6032TIP3    H118041   2.142   0.374   4.737
 6032TIP3    H218042   2.010   0.322   4.791
 6033TIP3   OH218043   3.096   5.968   3.411
 6033TIP3    H118044   3.189   5.965   3.433
 6033TIP3    H218045   3.094   6.000   3.320
 6034TIP3   OH218046   4.063   2.907   4.602
 6034TIP3    H118047   4.100   2.989   4.568
 6034TIP3    H218048   4.128   2.840   4.580
 6035TIP3   OH218049   4.819   5.235   4.867
 6035TIP3    H118050   4.798   5.279   4.949
 6035TIP3    H218051   4.844   5.307   4.807
 6036TIP3   OH218052   7.339   1.623   4.414
 6036TIP3    H118053   7.332   1.712   4.448
 6036TIP3    H218054   7.285   1.570   4.473
 6037TIP3   OH218055   7.500   6.274   2.406
 6037TIP3    H118056   7.590   6.261   2.377
 6037TIP3    H218057   7.446   6.242   2.334
 6038TIP3   OH218058   5.511   7.174   5.816
 6038TIP3    H118059   5.468   7.238   5.873
 6038TIP3    H218060   5.509   7.214   5.729
 6039TIP3   OH218061   3.166   4.813   2.808
 6039TIP3    H118062   3.126   4.867   2.739
 6039TIP3    H218063   3.092   4.765   2.846
 6040TIP3   OH218064   1.375   2.635   0.795
 6040TIP3    H118065   1.334   2.688   0.864
 6040TIP3    H218066   1.367   2.545   0.827
 6041TIP3   OH218067   5.300   5.780   2.982
 6041TIP3    H118068   5.334   5.703   2.938
 6041TIP3    H218069   5.300   5.849   2.915
 6042TIP3   OH218070   7.877   1.470   0.585
 6042TIP3    H118071   7.811   1.478   0.516
 6042TIP3    H218072   7.838   1.513   0.661
 6043TIP3   OH218073   5.437   2.815   2.703
 6043TIP3    H118074   5.414   2.723   2.688
 6043TIP3    H218075   5.440   2.823   2.799
 6044TIP3   OH218076   0.213   0.229   2.632
 6044TIP3    H118077   0.146   0.168   2.603
 6044TIP3    H218078   0.264   0.179   2.697
 6045TIP3   OH218079   4.915   3.745   4.684
 6045TIP3    H118080   4.936   3.758   4.592
 6045TIP3    H218081   4.821   3.765   4.690
 6046TIP3   OH218082   2.446   5.877   1.600
 6046TIP3    H118083   2.429   5.916   1.685
 6046TIP3    H218084   2.527   5.828   1.612
 6047TIP3   OH218085   6.902   2.274   0.178
 6047TIP3    H118086   6.888   2.252   0.271
 6047TIP3    H218087   6.940   2.362   0.180
 6048TIP3   OH218088   2.585   0.870   2.795
 6048TIP3    H118089   2.577   0.897   2.886
 6048TIP3    H218090   2.507   0.906   2.752
 6049TIP3   OH218091   6.837   3.844   4.284
 6049TIP3    H118092   6.750   3.848   4.324
 6049TIP3    H218093   6.843   3.923   4.232
 6050TIP3   OH218094   1.677   4.561   1.808
 6050TIP3    H118095   1.634   4.640   1.773
 6050TIP3    H218096   1.630   4.488   1.769
 6051TIP3   OH218097   2.778   2.389   0.361
 6051TIP3    H118098   2.707   2.395   0.424
 6051TIP3    H218099   2.842   2.330   0.402
 6052TIP3   OH218100   7.482   6.145   5.377
 6052TIP3    H118101   7.414   6.196   5.420
 6052TIP3    H218102   7.435   6.090   5.314
 6053TIP3   OH218103   0.766   2.676   5.272
 6053TIP3    H118104   0.754   2.611   5.203
 6053TIP3    H218105   0.861   2.680   5.283
 6054TIP3   OH218106   1.517   2.236   4.719
 6054TIP3    H118107   1.609   2.262   4.715
 6054TIP3    H218108   1.516   2.146   4.686
 6055TIP3   OH218109   3.612   3.000   2.331
 6055TIP3    H118110   3.587   3.009   2.239
 6055TIP3    H218111   3.615   2.905   2.346
 6056TIP3   OH218112   4.206   2.565   5.619
 6056TIP3    H118113   4.140   2.577   5.688
 6056TIP3    H218114   4.242   2.652   5.605
 6057TIP3   OH218115   6.503   6.437   3.951
 6057TIP3    H118116   6.435   6.487   3.907
 6057TIP3    H218117   6.525   6.489   4.028
 6058TIP3   OH218118   4.063   2.196   6.712
 6058TIP3    H118119   3.983   2.247   6.703
 6058TIP3    H218120   4.037   2.121   6.766
 6059TIP3   OH218121   1.413   0.038   1.676
 6059TIP3    H118122   1.407  -0.011   1.594
 6059TIP3    H218123   1.430   0.128   1.648
 6060TIP3   OH218124   7.482   4.028   5.837
 6060TIP3    H118125   7.459   3.935   5.842
 6060TIP3    H218126   7.556   4.037   5.896
 6061TIP3   OH218127   5.498   6.027   2.030
 6061TIP3    H118128   5.420   6.080   2.047
 6061TIP3    H218129   5.541   6.071   1.957
 6062TIP3   OH218130   6.723   1.792   5.160
 6062TIP3    H118131   6.706   1.831   5.073
 6062TIP3    H218132   6.771   1.860   5.208
 6063TIP3   OH218133   7.980   5.283   5.063
 6063TIP3    H118134   7.980   5.378   5.079
 6063TIP3    H218135   8.016   5.275   4.974
 6064TIP3   OH218136   1.304   0.226   4.680
 6064TIP3    H118137   1.239   0.229   4.750
 6064TIP3    H218138   1.384   0.196   4.724
 6065TIP3   OH218139   2.889   7.043   2.345
 6065TIP3    H118140   2.819   7.108   2.348
 6065TIP3    H218141   2.900   7.024   2.252
 6066TIP3   OH218142   3.861   1.928   1.144
 6066TIP3    H118143   3.931   1.864   1.161
 6066TIP3    H218144   3.782   1.875   1.135
 6067TIP3   OH218145   7.124   4.527   1.419
 6067TIP3    H118146   7.137   4.505   1.327
 6067TIP3    H218147   7.094   4.446   1.460
 6068TIP3   OH218148   6.673   7.068   6.373
 6068TIP3    H118149   6.634   7.061   6.460
 6068TIP3    H218150   6.598   7.074   6.314
 6069TIP3   OH218151   5.726   3.924   6.661
 6069TIP3    H118152   5.745   3.945   6.570
 6069TIP3    H218153   5.806   3.947   6.708
 6070TIP3   OH218154   6.574   6.336  -0.003
 6070TIP3    H118155   6.598   6.390   0.073
 6070TIP3    H218156   6.566   6.248   0.032
 6071TIP3   OH218157   3.677   5.881   2.812
 6071TIP3    H118158   3.614   5.832   2.758
 6071TIP3    H218159   3.627   5.908   2.889
 6072TIP3   OH218160   7.463   2.524   0.139
 6072TIP3    H118161   7.458   2.499   0.231
 6072TIP3    H218162   7.535   2.587   0.135
 6073TIP3   OH218163   3.662   2.992   0.963
 6073TIP3    H118164   3.665   2.924   0.895
 6073TIP3    H218165   3.686   2.945   1.043
 6074TIP3   OH218166   7.180   7.114   3.105
 6074TIP3    H118167   7.147   7.109   3.194
 6074TIP3    H218168   7.101   7.117   3.050
 6075TIP3   OH218169   2.117   6.896   2.605
 6075TIP3    H118170   2.125   6.922   2.514
 6075TIP3    H218171   2.128   6.801   2.605
 6076TIP3   OH218172   3.324   3.314   0.438
 6076TIP3    H118173   3.275   3.311   0.520
 6076TIP3    H218174   3.262   3.282   0.372
 6077TIP3   OH218175   2.672   0.737   4.798
 6077TIP3    H118176   2.584   0.753   4.831
 6077TIP3    H218177   2.678   0.790   4.719
 6078TIP3   OH218178   8.223   5.588   5.579
 6078TIP3    H118179   8.302   5.533   5.586
 6078TIP3    H218180   8.169   5.561   5.653
 6079TIP3   OH218181   7.775  -0.010   0.999
 6079TIP3    H118182   7.788  -0.014   1.094
 6079TIP3    H218183   7.744   0.079   0.983
 6080TIP3   OH218184   2.158   5.179   6.632
 6080TIP3    H118185   2.100   5.131   6.574
 6080TIP3    H218186   2.175   5.262   6.587
 6081TIP3   OH218187   7.182   7.182   5.015
 6081TIP3    H118188   7.174   7.183   5.110
 6081TIP3    H218189   7.092   7.168   4.983
 6082TIP3   OH218190   0.166   4.207   6.138
 6082TIP3    H118191   0.118   4.127   6.160
 6082TIP3    H218192   0.157   4.263   6.216
 6083TIP3   OH218193   2.893   1.555   1.913
 6083TIP3    H118194   2.922   1.534   2.001
 6083TIP3    H218195   2.959   1.617   1.880
 6084TIP3   OH218196   3.699   0.285   2.255
 6084TIP3    H118197   3.751   0.228   2.197
 6084TIP3    H218198   3.608   0.262   2.236
 6085TIP3   OH218199   7.221   0.499   4.666
 6085TIP3    H118200   7.239   0.406   4.658
 6085TIP3    H218201   7.217   0.515   4.761
 6086TIP3   OH218202   3.510   4.702   3.583
 6086TIP3    H118203   3.466   4.734   3.505
 6086TIP3    H218204   3.570   4.634   3.552
 6087TIP3   OH218205   6.092   2.315   5.048
 6087TIP3    H118206   6.183   2.343   5.048
 6087TIP3    H218207   6.065   2.319   4.956
 6088TIP3   OH218208   3.188   4.686   2.396
 6088TIP3    H118209   3.262   4.716   2.448
 6088TIP3    H218210   3.124   4.656   2.461
 6089TIP3   OH218211   1.130   6.356   5.915
 6089TIP3    H118212   1.223   6.379   5.912
 6089TIP3    H218213   1.092   6.415   5.980
 6090TIP3   OH218214  -0.021   5.939   1.593
 6090TIP3    H118215  -0.052   5.859   1.634
 6090TIP3    H218216   0.074   5.935   1.602
 6091TIP3   OH218217   6.728   4.717   0.020
 6091TIP3    H118218   6.784   4.676   0.086
 6091TIP3    H218219   6.663   4.650  -0.001
 6092TIP3   OH218220   1.657   3.624   2.613
 6092TIP3    H118221   1.632   3.598   2.524
 6092TIP3    H218222   1.625   3.713   2.623
 6093TIP3   OH218223   2.984   1.338   5.317
 6093TIP3    H118224   3.055   1.364   5.257
 6093TIP3    H218225   2.933   1.418   5.329
 6094TIP3   OH218226   1.303   6.041   6.629
 6094TIP3    H118227   1.267   5.957   6.659
 6094TIP3    H218228   1.384   6.051   6.680
 6095TIP3   OH218229   4.982   2.270   6.526
 6095TIP3    H118230   4.960   2.177   6.522
 6095TIP3    H218231   5.018   2.283   6.614
 6096TIP3   OH218232   2.279   6.146   1.231
 6096TIP3    H118233   2.303   6.151   1.138
 6096TIP3    H218234   2.197   6.194   1.238
 6097TIP3   OH218235   5.183   7.130   1.562
 6097TIP3    H118236   5.092   7.103   1.573
 6097TIP3    H218237   5.231   7.082   1.629
 6098TIP3   OH218238   1.579   4.939   1.346
 6098TIP3    H118239   1.503   4.884   1.328
 6098TIP3    H218240   1.642   4.880   1.387
 6099TIP3   OH218241   6.187   2.496   2.754
 6099TIP3    H118242   6.165   2.548   2.831
 6099TIP3    H218243   6.110   2.440   2.740
 6100TIP3   OH218244   3.406   1.686   4.419
 6100TIP3    H118245   3.352   1.637   4.481
 6100TIP3    H218246   3.434   1.622   4.354
 6101TIP3   OH218247   0.850   6.847   3.956
 6101TIP3    H118248   0.806   6.907   3.897
 6101TIP3    H218249   0.801   6.765   3.949
 6102TIP3   OH218250   0.102   0.081   3.348
 6102TIP3    H118251   0.188   0.117   3.328
 6102TIP3    H218252   0.065   0.142   3.412
 6103TIP3   OH218253   4.525   6.141   2.156
 6103TIP3    H118254   4.594   6.093   2.112
 6103TIP3    H218255   4.505   6.214   2.097
 6104TIP3   OH218256   7.752   7.199   4.690
 6104TIP3    H118257   7.781   7.133   4.753
 6104TIP3    H218258   7.710   7.267   4.743
 6105TIP3   OH218259   7.038   4.118   2.109
 6105TIP3    H118260   7.069   4.182   2.045
 6105TIP3    H218261   7.089   4.039   2.090
 6106TIP3   OH218262   4.031   1.824   1.754
 6106TIP3    H118263   4.100   1.766   1.785
 6106TIP3    H218264   4.057   1.847   1.664
 6107TIP3   OH218265   5.973   1.579   4.006
 6107TIP3    H118266   6.061   1.560   4.040
 6107TIP3    H218267   5.958   1.671   4.029
 6108TIP3   OH218268   5.282   6.880   4.646
 6108TIP3    H118269   5.335   6.910   4.572
 6108TIP3    H218270   5.285   6.785   4.641
 6109TIP3   OH218271   7.965   3.205   4.361
 6109TIP3    H118272   7.978   3.179   4.452
 6109TIP3    H218273   7.972   3.124   4.311
 6110TIP3   OH218274   5.702   5.980   5.703
 6110TIP3    H118275   5.775   5.954   5.759
 6110TIP3    H218276   5.694   5.910   5.639
 6111TIP3   OH218277   5.342   1.733   5.986
 6111TIP3    H118278   5.259   1.767   5.953
 6111TIP3    H218279   5.376   1.802   6.042
 6112TIP3   OH218280   0.888   5.201   0.579
 6112TIP3    H118281   0.979   5.171   0.575
 6112TIP3    H218282   0.881   5.246   0.663
 6113TIP3   OH218283   7.712   1.644   0.414
 6113TIP3    H118284   7.706   1.694   0.495
 6113TIP3    H218285   7.791   1.678   0.371
 6114TIP3   OH218286   4.459   6.314   4.877
 6114TIP3    H118287   4.443   6.223   4.850
 6114TIP3    H218288   4.381   6.362   4.848
 6115TIP3   OH218289   1.026   1.128   5.364
 6115TIP3    H118290   1.104   1.176   5.337
 6115TIP3    H218291   1.060   1.059   5.422
 6116TIP3   OH218292   4.588   3.620   2.950
 6116TIP3    H118293   4.578   3.661   2.865
 6116TIP3    H218294   4.643   3.680   3.000
 6117TIP3   OH218295   0.410   2.009   6.690
 6117TIP3    H118296   0.389   2.005   6.597
 6117TIP3    H218297   0.329   2.039   6.731
 6118TIP3   OH218298   4.831   3.995   4.959
 6118TIP3    H118299   4.812   4.082   4.926
 6118TIP3    H218300   4.755   3.942   4.935
 6119TIP3   OH218301   4.864   3.105   3.175
 6119TIP3    H118302   4.923   3.042   3.218
 6119TIP3    H218303   4.882   3.188   3.218
 6120TIP3   OH218304   5.333   6.662   0.735
 6120TIP3    H118305   5.263   6.645   0.798
 6120TIP3    H218306   5.305   6.619   0.655
 6121TIP3   OH218307   5.281   5.707   6.072
 6121TIP3    H118308   5.330   5.692   6.153
 6121TIP3    H218309   5.218   5.635   6.068
 6122TIP3   OH218310   1.232   2.586   0.577
 6122TIP3    H118311   1.266   2.548   0.496
 6122TIP3    H218312   1.303   2.574   0.641
 6123TIP3   OH218313   6.982   1.320   3.770
 6123TIP3    H118314   6.950   1.235   3.739
 6123TIP3    H218315   7.058   1.338   3.716
 6124TIP3   OH218316   1.722   2.296   1.020
 6124TIP3    H118317   1.651   2.349   1.056
 6124TIP3    H218318   1.752   2.242   1.093
 6125TIP3   OH218319   4.239   5.929   3.886
 6125TIP3    H118320   4.294   5.853   3.867
 6125TIP3    H218321   4.301   6.002   3.896
 6126TIP3   OH218322   2.670   2.898   5.430
 6126TIP3    H118323   2.619   2.840   5.487
 6126TIP3    H218324   2.754   2.853   5.419
 6127TIP3   OH218325   2.128   2.788   0.731
 6127TIP3    H118326   2.146   2.767   0.823
 6127TIP3    H218327   2.204   2.753   0.684
 6128TIP3   OH218328   6.104   4.570   2.332
 6128TIP3    H118329   6.100   4.483   2.292
 6128TIP3    H218330   6.166   4.560   2.405
 6129TIP3   OH218331   2.511   6.655   2.610
 6129TIP3    H118332   2.430   6.637   2.562
 6129TIP3    H218333   2.572   6.686   2.543
 6130TIP3   OH218334   4.017   2.643   5.861
 6130TIP3    H118335   3.945   2.580   5.866
 6130TIP3    H218336   3.973   2.728   5.855
 6131TIP3   OH218337   2.292   7.799   2.252
 6131TIP3    H118338   2.223   7.753   2.299
 6131TIP3    H218339   2.371   7.782   2.304
 6132TIP3   OH218340   4.545   6.662   6.038
 6132TIP3    H118341   4.595   6.591   5.997
 6132TIP3    H218342   4.600   6.690   6.111
 6133TIP3   OH218343   5.813   0.892   6.763
 6133TIP3    H118344   5.877   0.958   6.790
 6133TIP3    H218345   5.788   0.918   6.675
 6134TIP3   OH218346   1.836   4.213   1.022
 6134TIP3    H118347   1.906   4.182   0.964
 6134TIP3    H218348   1.798   4.133   1.058
 6135TIP3   OH218349   8.193   1.449   5.455
 6135TIP3    H118350   8.164   1.457   5.364
 6135TIP3    H218351   8.260   1.380   5.452
 6136TIP3   OH218352   0.557   5.463   2.056
 6136TIP3    H118353   0.601   5.396   2.003
 6136TIP3    H218354   0.613   5.473   2.133
 6137TIP3   OH218355   7.371   4.833   2.202
 6137TIP3    H118356   7.281   4.811   2.180
 6137TIP3    H218357   7.409   4.750   2.232
 6138TIP3   OH218358   0.632   4.076   3.008
 6138TIP3    H118359   0.720   4.112   3.004
 6138TIP3    H218360   0.606   4.087   3.100
 6139TIP3   OH218361   3.236   3.332   0.713
 6139TIP3    H118362   3.153   3.327   0.762
 6139TIP3    H218363   3.253   3.426   0.705
 6140TIP3   OH218364   7.485   2.350   3.371
 6140TIP3    H118365   7.478   2.265   3.327
 6140TIP3    H218366   7.575   2.354   3.401
 6141TIP3   OH218367   1.563   1.495   5.946
 6141TIP3    H118368   1.494   1.443   5.905
 6141TIP3    H218369   1.644   1.467   5.904
 6142TIP3   OH218370   5.470   5.100   2.993
 6142TIP3    H118371   5.495   5.171   2.935
 6142TIP3    H218372   5.440   5.143   3.073
 6143TIP3   OH218373   7.690   0.235   6.365
 6143TIP3    H118374   7.747   0.219   6.440
 6143TIP3    H218375   7.613   0.278   6.402
 6144TIP3   OH218376   7.069   5.450   1.651
 6144TIP3    H118377   7.115   5.511   1.710
 6144TIP3    H218378   7.076   5.365   1.694
 6145TIP3   OH218379   3.068   7.601   0.540
 6145TIP3    H118380   3.049   7.693   0.523
 6145TIP3    H218381   2.987   7.555   0.518
 6146TIP3   OH218382   1.409   6.993   5.025
 6146TIP3    H118383   1.471   6.991   5.098
 6146TIP3    H218384   1.336   7.046   5.057
 6147TIP3   OH218385   1.056   5.083   4.145
 6147TIP3    H118386   0.986   5.031   4.105
 6147TIP3    H218387   1.011   5.156   4.187
 6148TIP3   OH218388   1.491   4.582   1.382
 6148TIP3    H118389   1.407   4.578   1.335
 6148TIP3    H218390   1.552   4.534   1.326
 6149TIP3   OH218391   1.105   4.730   6.199
 6149TIP3    H118392   1.065   4.708   6.115
 6149TIP3    H218393   1.114   4.825   6.196
 6150TIP3   OH218394   6.034   1.020   0.417
 6150TIP3    H118395   6.107   1.058   0.368
 6150TIP3    H218396   6.057   1.035   0.509
 6151TIP3   OH218397   4.791   7.330   1.591
 6151TIP3    H118398   4.723   7.397   1.597
 6151TIP3    H218399   4.854   7.364   1.528
 6152TIP3   OH218400   7.196   5.854   1.436
 6152TIP3    H118401   7.123   5.915   1.425
 6152TIP3    H218402   7.239   5.882   1.517
 6153TIP3   OH218403   4.586   5.078   5.594
 6153TIP3    H118404   4.654   5.011   5.598
 6153TIP3    H218405   4.569   5.102   5.685
 6154TIP3   OH218406   4.551   2.679   0.184
 6154TIP3    H118407   4.622   2.643   0.238
 6154TIP3    H218408   4.471   2.648   0.226
 6155TIP3   OH218409   0.281   6.263   5.414
 6155TIP3    H118410   0.287   6.176   5.454
 6155TIP3    H218411   0.226   6.313   5.474
 6156TIP3   OH218412   2.027   0.274   1.567
 6156TIP3    H118413   2.098   0.211   1.555
 6156TIP3    H218414   2.071   0.356   1.587
 6157TIP3   OH218415   0.540   7.303   0.531
 6157TIP3    H118416   0.492   7.338   0.456
 6157TIP3    H218417   0.556   7.211   0.510
 6158TIP3   OH218418   2.721   0.780   6.759
 6158TIP3    H118419   2.660   0.850   6.737
 6158TIP3    H218420   2.670   0.718   6.811
 6159TIP3   OH218421   0.946   1.465   1.204
 6159TIP3    H118422   0.995   1.472   1.123
 6159TIP3    H218423   0.859   1.497   1.183
 6160TIP3   OH218424   6.800   1.103   0.293
 6160TIP3    H118425   6.855   1.144   0.360
 6160TIP3    H218426   6.861   1.055   0.238
 6161TIP3   OH218427   6.119   3.710   4.743
 6161TIP3    H118428   6.026   3.689   4.749
 6161TIP3    H218429   6.121   3.797   4.702
 6162TIP3   OH218430   8.197   2.738   2.763
 6162TIP3    H118431   8.148   2.818   2.780
 6162TIP3    H218432   8.276   2.746   2.817
 6163TIP3   OH218433   8.312   2.022   3.869
 6163TIP3    H118434   8.257   1.966   3.813
 6163TIP3    H218435   8.279   2.006   3.958
 6164TIP3   OH218436   2.020   5.057   6.044
 6164TIP3    H118437   1.988   4.988   5.986
 6164TIP3    H218438   2.094   5.096   5.998
 6165TIP3   OH218439   5.196   1.706   1.997
 6165TIP3    H118440   5.265   1.644   2.019
 6165TIP3    H218441   5.238   1.792   2.001
 6166TIP3   OH218442   0.507   0.676   2.095
 6166TIP3    H118443   0.513   0.606   2.029
 6166TIP3    H218444   0.432   0.728   2.068
 6167TIP3   OH218445   7.405   2.531   6.263
 6167TIP3    H118446   7.374   2.526   6.173
 6167TIP3    H218447   7.498   2.512   6.258
 6168TIP3   OH218448   3.326   7.780   5.534
 6168TIP3    H118449   3.282   7.703   5.570
 6168TIP3    H218450   3.286   7.854   5.581
 6169TIP3   OH218451   0.315   1.405   2.318
 6169TIP3    H118452   0.273   1.489   2.339
 6169TIP3    H218453   0.393   1.402   2.373
 6170TIP3   OH218454   5.080   5.737   0.692
 6170TIP3    H118455   5.062   5.716   0.601
 6170TIP3    H218456   5.089   5.652   0.736
 6171TIP3   OH218457   0.653   5.756   4.116
 6171TIP3    H118458   0.722   5.722   4.173
 6171TIP3    H218459   0.698   5.821   4.062
 6172TIP3   OH218460   8.073   5.473   5.391
 6172TIP3    H118461   8.118   5.536   5.448
 6172TIP3    H218462   8.142   5.434   5.338
 6173TIP3   OH218463   7.257   6.922   5.555
 6173TIP3    H118464   7.199   6.997   5.570
 6173TIP3    H218465   7.339   6.961   5.523
 6174TIP3   OH218466   0.816   7.482   2.449
 6174TIP3    H118467   0.904   7.501   2.481
 6174TIP3    H218468   0.830   7.449   2.360
 6175TIP3   OH218469   0.037   3.704   6.480
 6175TIP3    H118470   0.120   3.751   6.477
 6175TIP3    H218471  -0.028   3.771   6.499
 6176TIP3   OH218472   1.729   5.163   3.936
 6176TIP3    H118473   1.809   5.110   3.937
 6176TIP3    H218474   1.661   5.103   3.906
 6177TIP3   OH218475   3.343   2.033   3.724
 6177TIP3    H118476   3.334   2.128   3.721
 6177TIP3    H218477   3.254   2.000   3.717
 6178TIP3   OH218478   0.681   7.525   0.577
 6178TIP3    H118479   0.732   7.548   0.655
 6178TIP3    H218480   0.640   7.441   0.600
 6179TIP3   OH218481   7.316   5.747   6.002
 6179TIP3    H118482   7.364   5.689   6.061
 6179TIP3    H218483   7.226   5.715   6.006
 6180TIP3   OH218484   2.630   3.854   1.717
 6180TIP3    H118485   2.594   3.787   1.660
 6180TIP3    H218486   2.578   3.848   1.797
 6181TIP3   OH218487   6.464   5.555   1.465
 6181TIP3    H118488   6.446   5.470   1.506
 6181TIP3    H218489   6.500   5.609   1.536
 6182TIP3   OH218490   4.181   7.412   2.606
 6182TIP3    H118491   4.241   7.456   2.545
 6182TIP3    H218492   4.231   7.339   2.641
 6183TIP3   OH218493   2.205   1.802   3.708
 6183TIP3    H118494   2.173   1.869   3.769
 6183TIP3    H218495   2.283   1.767   3.750
 6184TIP3   OH218496   0.695   4.374   0.815
 6184TIP3    H118497   0.674   4.413   0.730
 6184TIP3    H218498   0.784   4.342   0.805
 6185TIP3   OH218499   6.421   5.062   2.253
 6185TIP3    H118500   6.435   5.156   2.261
 6185TIP3    H218501   6.327   5.050   2.269
 6186TIP3   OH218502   0.215   4.388   4.901
 6186TIP3    H118503   0.280   4.342   4.954
 6186TIP3    H218504   0.192   4.465   4.952
 6187TIP3   OH218505   6.500   5.150   0.097
 6187TIP3    H118506   6.427   5.199   0.058
 6187TIP3    H218507   6.464   5.064   0.116
 6188TIP3   OH218508   6.644   6.683   2.990
 6188TIP3    H118509   6.717   6.667   3.050
 6188TIP3    H218510   6.598   6.599   2.985
 6189TIP3   OH218511   4.688   6.382   2.610
 6189TIP3    H118512   4.631   6.373   2.687
 6189TIP3    H218513   4.632   6.360   2.536
 6190TIP3   OH218514   4.290   5.119   5.179
 6190TIP3    H118515   4.239   5.082   5.250
 6190TIP3    H218516   4.381   5.099   5.201
 6191TIP3   OH218517   2.121   7.381   1.475
 6191TIP3    H118518   2.135   7.291   1.504
 6191TIP3    H218519   2.102   7.429   1.555
 6192TIP3   OH218520   7.590   7.116   2.713
 6192TIP3    H118521   7.508   7.116   2.761
 6192TIP3    H218522   7.582   7.189   2.652
 6193TIP3   OH218523   5.018   0.793   3.158
 6193TIP3    H118524   5.109   0.782   3.186
 6193TIP3    H218525   4.969   0.807   3.239
 6194TIP3   OH218526   1.196   7.114   5.147
 6194TIP3    H118527   1.164   7.026   5.167
 6194TIP3    H218528   1.133   7.172   5.190
 6195TIP3   OH218529   6.324   0.357   4.432
 6195TIP3    H118530   6.277   0.436   4.406
 6195TIP3    H218531   6.378   0.335   4.356
 6196TIP3   OH218532   6.631   4.271   5.489
 6196TIP3    H118533   6.644   4.355   5.447
 6196TIP3    H218534   6.709   4.258   5.543
 6197TIP3   OH218535   1.956   0.510   2.077
 6197TIP3    H118536   2.018   0.579   2.101
 6197TIP3    H218537   1.985   0.482   1.990
 6198TIP3   OH218538   6.130   6.343   0.730
 6198TIP3    H118539   6.217   6.304   0.732
 6198TIP3    H218540   6.072   6.271   0.707
 6199TIP3   OH218541   1.929   4.085   0.545
 6199TIP3    H118542   1.948   4.024   0.474
 6199TIP3    H218543   1.895   4.163   0.500
 6200TIP3   OH218544   6.036   3.497   2.184
 6200TIP3    H118545   6.101   3.447   2.234
 6200TIP3    H218546   6.088   3.548   2.122
 6201TIP3   OH218547   0.013   6.932   2.950
 6201TIP3    H118548   0.057   7.001   3.000
 6201TIP3    H218549  -0.051   6.979   2.897
 6202TIP3   OH218550   0.806   6.826   5.113
 6202TIP3    H118551   0.718   6.826   5.150
 6202TIP3    H218552   0.833   6.734   5.116
 6203TIP3   OH218553   0.486   2.288   0.293
 6203TIP3    H118554   0.414   2.303   0.355
 6203TIP3    H218555   0.562   2.272   0.348
 6204TIP3   OH218556   4.627   6.853   5.001
 6204TIP3    H118557   4.594   6.942   4.988
 6204TIP3    H218558   4.717   6.865   5.030
 6205TIP3   OH218559   7.280   5.583   3.747
 6205TIP3    H118560   7.360   5.546   3.709
 6205TIP3    H218561   7.294   5.677   3.746
 6206TIP3   OH218562   6.608   0.579   1.862
 6206TIP3    H118563   6.694   0.543   1.884
 6206TIP3    H218564   6.608   0.584   1.766
 6207TIP3   OH218565   3.575   6.994   5.316
 6207TIP3    H118566   3.573   7.032   5.404
 6207TIP3    H218567   3.485   7.002   5.285
 6208TIP3   OH218568   5.103   7.701   0.628
 6208TIP3    H118569   5.127   7.746   0.547
 6208TIP3    H218570   5.030   7.644   0.603
 6209TIP3   OH218571   7.256   2.714   0.367
 6209TIP3    H118572   7.218   2.761   0.441
 6209TIP3    H218573   7.270   2.625   0.399
 6210TIP3   OH218574   8.253   7.427   6.023
 6210TIP3    H118575   8.231   7.511   5.981
 6210TIP3    H218576   8.327   7.395   5.973
 6211TIP3   OH218577   7.997   1.720   3.833
 6211TIP3    H118578   8.006   1.802   3.882
 6211TIP3    H218579   7.989   1.652   3.901
 6212TIP3   OH218580   2.611   0.397   2.775
 6212TIP3    H118581   2.696   0.378   2.736
 6212TIP3    H218582   2.627   0.473   2.832
 6213TIP3   OH218583   3.496   4.587   6.227
 6213TIP3    H118584   3.515   4.612   6.318
 6213TIP3    H218585   3.401   4.584   6.223
 6214TIP3   OH218586   2.046   1.708   2.193
 6214TIP3    H118587   1.953   1.686   2.204
 6214TIP3    H218588   2.092   1.625   2.211
 6215TIP3   OH218589   5.578   2.831   6.768
 6215TIP3    H118590   5.581   2.746   6.724
 6215TIP3    H218591   5.495   2.870   6.741
 6216TIP3   OH218592   0.004   0.780   3.105
 6216TIP3    H118593   0.084   0.828   3.083
 6216TIP3    H218594   0.018   0.751   3.195
 6217TIP3   OH218595   7.054   7.216   2.345
 6217TIP3    H118596   7.134   7.207   2.293
 6217TIP3    H218597   7.079   7.189   2.433
 6218TIP3   OH218598   7.491   1.120   4.777
 6218TIP3    H118599   7.538   1.037   4.773
 6218TIP3    H218600   7.402   1.098   4.751
 6219TIP3   OH218601   3.784   7.537   0.849
 6219TIP3    H118602   3.730   7.464   0.877
 6219TIP3    H218603   3.872   7.500   0.839
 6220TIP3   OH218604   1.207   0.314   2.733
 6220TIP3    H118605   1.187   0.220   2.740
 6220TIP3    H218606   1.300   0.317   2.710
 6221TIP3   OH218607   3.577   2.316   2.382
 6221TIP3    H118608   3.596   2.307   2.476
 6221TIP3    H218609   3.660   2.346   2.344
 6222TIP3   OH218610   4.608   1.768   1.491
 6222TIP3    H118611   4.543   1.794   1.426
 6222TIP3    H218612   4.641   1.684   1.459
 6223TIP3   OH218613   0.602   2.169   6.511
 6223TIP3    H118614   0.570   2.079   6.504
 6223TIP3    H218615   0.621   2.181   6.604
 6224TIP3   OH218616   3.196   2.248   6.203
 6224TIP3    H118617   3.189   2.172   6.145
 6224TIP3    H218618   3.271   2.297   6.169
 6225TIP3   OH218619   0.348   2.917   3.293
 6225TIP3    H118620   0.364   2.883   3.205
 6225TIP3    H218621   0.360   2.841   3.350
 6226TIP3   OH218622   5.272   4.036   3.072
 6226TIP3    H118623   5.204   3.973   3.095
 6226TIP3    H218624   5.249   4.116   3.120
 6227TIP3   OH218625   3.148   3.913   3.205
 6227TIP3    H118626   3.147   3.996   3.253
 6227TIP3    H218627   3.064   3.911   3.159
 6228TIP3   OH218628   7.452   1.875   2.894
 6228TIP3    H118629   7.428   1.962   2.862
 6228TIP3    H218630   7.395   1.815   2.846
 6229TIP3   OH218631   6.852   5.729   5.755
 6229TIP3    H118632   6.771   5.750   5.801
 6229TIP3    H218633   6.824   5.705   5.667
 6230TIP3   OH218634   4.033   5.613   6.524
 6230TIP3    H118635   4.105   5.595   6.585
 6230TIP3    H218636   4.073   5.607   6.437
 6231TIP3   OH218637   7.892   0.856   5.144
 6231TIP3    H118638   7.918   0.860   5.236
 6231TIP3    H218639   7.842   0.936   5.130
 6232TIP3   OH218640   4.884   5.859   2.583
 6232TIP3    H118641   4.940   5.898   2.517
 6232TIP3    H218642   4.926   5.775   2.603
 6233TIP3   OH218643   2.142   7.307   0.957
 6233TIP3    H118644   2.067   7.275   0.907
 6233TIP3    H218645   2.141   7.402   0.942
 6234TIP3   OH218646   1.745   5.999   1.529
 6234TIP3    H118647   1.712   6.081   1.565
 6234TIP3    H218648   1.821   6.024   1.476
 6235TIP3   OH218649   2.744   2.938   1.344
 6235TIP3    H118650   2.746   2.872   1.275
 6235TIP3    H218651   2.662   2.986   1.330
 6236TIP3   OH218652   7.476   2.182   4.410
 6236TIP3    H118653   7.428   2.193   4.327
 6236TIP3    H218654   7.416   2.132   4.465
 6237TIP3   OH218655   3.207   0.361   1.371
 6237TIP3    H118656   3.227   0.431   1.309
 6237TIP3    H218657   3.182   0.286   1.317
 6238TIP3   OH218658   3.459   0.824   5.337
 6238TIP3    H118659   3.534   0.879   5.314
 6238TIP3    H218660   3.383   0.882   5.328
 6239TIP3   OH218661   5.347   4.530   2.609
 6239TIP3    H118662   5.335   4.438   2.585
 6239TIP3    H218663   5.261   4.559   2.639
 6240TIP3   OH218664   5.614   1.866   3.840
 6240TIP3    H118665   5.552   1.794   3.845
 6240TIP3    H218666   5.610   1.896   3.749
 6241TIP3   OH218667   0.648   1.529   2.464
 6241TIP3    H118668   0.601   1.452   2.494
 6241TIP3    H218669   0.650   1.522   2.368
 6242TIP3   OH218670   5.000   3.353   2.913
 6242TIP3    H118671   4.917   3.334   2.957
 6242TIP3    H218672   4.979   3.426   2.854
 6243TIP3   OH218673   5.019   5.760   0.414
 6243TIP3    H118674   5.061   5.756   0.328
 6243TIP3    H218675   5.027   5.852   0.441
 6244TIP3   OH218676   3.528   4.495   4.107
 6244TIP3    H118677   3.619   4.476   4.132
 6244TIP3    H218678   3.503   4.421   4.051
 6245TIP3   OH218679   0.559   2.304   2.942
 6245TIP3    H118680   0.518   2.386   2.970
 6245TIP3    H218681   0.515   2.281   2.860
 6246TIP3   OH218682   1.154   2.744   0.080
 6246TIP3    H118683   1.245   2.714   0.075
 6246TIP3    H218684   1.159   2.839   0.081
 6247TIP3   OH218685   4.379   3.133   3.017
 6247TIP3    H118686   4.449   3.122   3.082
 6247TIP3    H218687   4.404   3.211   2.967
 6248TIP3   OH218688   8.035   3.487   0.154
 6248TIP3    H118689   7.984   3.413   0.187
 6248TIP3    H218690   7.973   3.560   0.153
 6249TIP3   OH218691   7.780   1.055   5.716
 6249TIP3    H118692   7.873   1.047   5.693
 6249TIP3    H218693   7.761   1.148   5.703
 6250TIP3   OH218694   5.760   0.710   0.798
 6250TIP3    H118695   5.828   0.766   0.761
 6250TIP3    H218696   5.790   0.691   0.887
 6251TIP3   OH218697   4.164   3.922   2.067
 6251TIP3    H118698   4.161   3.986   1.996
 6251TIP3    H218699   4.076   3.921   2.104
 6252TIP3   OH218700   7.267   4.010   2.963
 6252TIP3    H118701   7.253   4.084   3.021
 6252TIP3    H218702   7.346   3.968   2.997
 6253TIP3   OH218703   4.764   6.333   4.490
 6253TIP3    H118704   4.747   6.310   4.582
 6253TIP3    H218705   4.859   6.345   4.486
 6254TIP3   OH218706   5.934   3.261   1.148
 6254TIP3    H118707   5.839   3.273   1.137
 6254TIP3    H218708   5.943   3.227   1.237
 6255TIP3   OH218709   1.829   5.386   1.976
 6255TIP3    H118710   1.764   5.316   1.975
 6255TIP3    H218711   1.837   5.413   1.885
 6256TIP3   OH218712   4.653   3.517   2.495
 6256TIP3    H118713   4.627   3.545   2.582
 6256TIP3    H218714   4.685   3.596   2.453
 6257TIP3   OH218715   3.673   0.653   3.981
 6257TIP3    H118716   3.634   0.676   4.065
 6257TIP3    H218717   3.725   0.575   4.000
 6258TIP3   OH218718   3.048   6.152   6.280
 6258TIP3    H118719   3.076   6.240   6.302
 6258TIP3    H218720   3.115   6.120   6.219
 6259TIP3   OH218721   0.208   2.900   1.218
 6259TIP3    H118722   0.201   2.873   1.310
 6259TIP3    H218723   0.256   2.828   1.176
 6260TIP3   OH218724   4.391   1.630   1.341
 6260TIP3    H118725   4.336   1.625   1.419
 6260TIP3    H218726   4.458   1.564   1.355
 6261TIP3   OH218727   1.671   2.622   4.859
 6261TIP3    H118728   1.642   2.625   4.950
 6261TIP3    H218729   1.663   2.530   4.834
 6262TIP3   OH218730   6.445   4.287   0.118
 6262TIP3    H118731   6.480   4.357   0.063
 6262TIP3    H218732   6.441   4.324   0.206
 6263TIP3   OH218733   0.555   6.224   2.135
 6263TIP3    H118734   0.627   6.223   2.198
 6263TIP3    H218735   0.528   6.315   2.130
 6264TIP3   OH218736   7.126   7.741   6.330
 6264TIP3    H118737   7.200   7.756   6.389
 6264TIP3    H218738   7.083   7.664   6.366
 6265TIP3   OH218739   2.338   1.400   3.525
 6265TIP3    H118740   2.259   1.420   3.574
 6265TIP3    H218741   2.347   1.305   3.531
 6266TIP3   OH218742   5.615   1.095   2.773
 6266TIP3    H118743   5.541   1.154   2.757
 6266TIP3    H218744   5.585   1.009   2.742
 6267TIP3   OH218745   2.162   0.327   3.289
 6267TIP3    H118746   2.183   0.420   3.296
 6267TIP3    H218747   2.222   0.294   3.223
 6268TIP3   OH218748   1.046   1.707   2.849
 6268TIP3    H118749   0.953   1.687   2.857
 6268TIP3    H218750   1.064   1.699   2.755
 6269TIP3   OH218751   0.771   0.937   1.288
 6269TIP3    H118752   0.809   0.974   1.368
 6269TIP3    H218753   0.753   1.013   1.232
 6270TIP3   OH218754   6.161   0.189   5.024
 6270TIP3    H118755   6.232   0.155   5.078
 6270TIP3    H218756   6.181   0.155   4.936
 6271TIP3   OH218757   7.787   2.915   5.531
 6271TIP3    H118758   7.695   2.931   5.509
 6271TIP3    H218759   7.798   2.956   5.617
 6272TIP3   OH218760   3.143   6.650   0.973
 6272TIP3    H118761   3.129   6.657   0.879
 6272TIP3    H218762   3.083   6.715   1.011
 6273TIP3   OH218763   2.328   7.293   4.605
 6273TIP3    H118764   2.332   7.310   4.699
 6273TIP3    H218765   2.420   7.295   4.577
 6274TIP3   OH218766   0.359   3.334   4.346
 6274TIP3    H118767   0.280   3.375   4.309
 6274TIP3    H218768   0.404   3.296   4.270
 6275TIP3   OH218769   0.153   7.128   1.038
 6275TIP3    H118770   0.188   7.185   0.970
 6275TIP3    H218771   0.223   7.065   1.055
 6276TIP3   OH218772   0.719   5.271   1.004
 6276TIP3    H118773   0.670   5.353   1.001
 6276TIP3    H218774   0.751   5.265   1.094
 6277TIP3   OH218775   6.967   3.221   3.272
 6277TIP3    H118776   6.955   3.316   3.271
 6277TIP3    H218777   7.056   3.208   3.239
 6278TIP3   OH218778   0.946   2.284   5.486
 6278TIP3    H118779   0.925   2.300   5.394
 6278TIP3    H218780   1.037   2.314   5.495
 6279TIP3   OH218781   7.446   6.950   3.634
 6279TIP3    H118782   7.504   7.000   3.691
 6279TIP3    H218783   7.505   6.897   3.581
 6280TIP3   OH218784   5.896   1.197   1.520
 6280TIP3    H118785   5.882   1.143   1.598
 6280TIP3    H218786   5.869   1.285   1.546
 6281TIP3   OH218787   4.876   0.129   6.604
 6281TIP3    H118788   4.794   0.104   6.560
 6281TIP3    H218789   4.873   0.224   6.607
 6282TIP3   OH218790   5.948   3.598   6.720
 6282TIP3    H118791   5.876   3.597   6.657
 6282TIP3    H218792   5.914   3.645   6.796
 6283TIP3   OH218793   6.319   6.393   4.307
 6283TIP3    H118794   6.396   6.370   4.359
 6283TIP3    H218795   6.265   6.446   4.366
 6284TIP3   OH218796   5.399   7.033   4.875
 6284TIP3    H118797   5.308   7.028   4.904
 6284TIP3    H218798   5.415   6.950   4.830
 6285TIP3   OH218799   6.643   7.373   4.842
 6285TIP3    H118800   6.662   7.352   4.750
 6285TIP3    H218801   6.638   7.288   4.885
 6286TIP3   OH218802   3.269   1.826   2.352
 6286TIP3    H118803   3.207   1.876   2.406
 6286TIP3    H218804   3.218   1.752   2.319
 6287TIP3   OH218805   7.649   2.121   6.744
 6287TIP3    H118806   7.683   2.082   6.663
 6287TIP3    H218807   7.628   2.211   6.720
 6288TIP3   OH218808   2.952   1.228   0.856
 6288TIP3    H118809   2.946   1.139   0.892
 6288TIP3    H218810   2.994   1.216   0.771
 6289TIP3   OH218811   1.588   6.305   5.435
 6289TIP3    H118812   1.564   6.385   5.389
 6289TIP3    H218813   1.639   6.255   5.371
 6290TIP3   OH218814   3.605   4.226   0.426
 6290TIP3    H118815   3.547   4.254   0.355
 6290TIP3    H218816   3.597   4.295   0.492
 6291TIP3   OH218817   1.217   1.964   2.586
 6291TIP3    H118818   1.176   2.050   2.594
 6291TIP3    H218819   1.290   1.966   2.648
 6292TIP3   OH218820   2.518   7.742   1.356
 6292TIP3    H118821   2.483   7.798   1.286
 6292TIP3    H218822   2.573   7.678   1.310
 6293TIP3   OH218823   4.651   5.180   2.297
 6293TIP3    H118824   4.666   5.090   2.266
 6293TIP3    H218825   4.609   5.224   2.222
 6294TIP3   OH218826   0.422   7.670   6.158
 6294TIP3    H118827   0.353   7.736   6.166
 6294TIP3    H218828   0.490   7.711   6.105
 6295TIP3   OH218829   3.991   6.135   5.731
 6295TIP3    H118830   3.936   6.059   5.709
 6295TIP3    H218831   3.929   6.205   5.751
 6296TIP3   OH218832   4.854   3.834   0.857
 6296TIP3    H118833   4.923   3.806   0.918
 6296TIP3    H218834   4.816   3.753   0.824
 6297TIP3   OH218835   6.690   2.909   2.187
 6297TIP3    H118836   6.703   2.939   2.097
 6297TIP3    H218837   6.598   2.928   2.205
 6298TIP3   OH218838   7.242   1.061   4.655
 6298TIP3    H118839   7.168   1.002   4.640
 6298TIP3    H218840   7.267   1.090   4.567
 6299TIP3   OH218841   5.063   4.356   3.483
 6299TIP3    H118842   5.109   4.382   3.563
 6299TIP3    H218843   5.052   4.438   3.434
 6300TIP3   OH218844   7.040   6.492   3.179
 6300TIP3    H118845   7.061   6.400   3.197
 6300TIP3    H218846   6.980   6.489   3.104
 6301TIP3   OH218847   3.429   5.787   4.302
 6301TIP3    H118848   3.337   5.799   4.328
 6301TIP3    H218849   3.444   5.693   4.313
 6302TIP3   OH218850   5.085   0.552   4.881
 6302TIP3    H118851   5.104   0.471   4.833
 6302TIP3    H218852   5.117   0.621   4.824
 6303TIP3   OH218853   4.003   1.813   5.917
 6303TIP3    H118854   4.092   1.790   5.890
 6303TIP3    H218855   3.999   1.791   6.010
 6304TIP3   OH218856   3.279   2.790   3.050
 6304TIP3    H118857   3.334   2.855   3.008
 6304TIP3    H218858   3.339   2.719   3.073
 6305TIP3   OH218859   6.116   7.636   1.098
 6305TIP3    H118860   6.047   7.581   1.062
 6305TIP3    H218861   6.126   7.605   1.188
 6306TIP3   OH218862   7.338   7.248   2.735
 6306TIP3    H118863   7.297   7.331   2.714
 6306TIP3    H218864   7.305   7.187   2.669
 6307TIP3   OH218865   4.829   1.876   3.039
 6307TIP3    H118866   4.867   1.963   3.049
 6307TIP3    H218867   4.791   1.857   3.125
 6308TIP3   OH218868   5.905   5.049   0.153
 6308TIP3    H118869   5.855   5.130   0.145
 6308TIP3    H218870   5.963   5.048   0.077
 6309TIP3   OH218871   6.602   4.292   4.946
 6309TIP3    H118872   6.559   4.213   4.912
 6309TIP3    H218873   6.639   4.265   5.030
 6310TIP3   OH218874   6.698   4.146   3.822
 6310TIP3    H118875   6.771   4.130   3.881
 6310TIP3    H218876   6.639   4.203   3.872
 6311TIP3   OH218877   8.066   7.414   3.131
 6311TIP3    H118878   7.990   7.357   3.119
 6311TIP3    H218879   8.132   7.378   3.072
 6312TIP3   OH218880   5.771   1.080   4.405
 6312TIP3    H118881   5.860   1.045   4.401
 6312TIP3    H218882   5.733   1.056   4.320
 6313TIP3   OH218883   1.200   1.331   2.378
 6313TIP3    H118884   1.206   1.236   2.365
 6313TIP3    H218885   1.254   1.348   2.455
 6314TIP3   OH218886   5.075   2.538   5.926
 6314TIP3    H118887   5.056   2.472   5.992
 6314TIP3    H218888   5.035   2.618   5.959
 6315TIP3   OH218889   0.214   7.242   2.835
 6315TIP3    H118890   0.249   7.316   2.784
 6315TIP3    H218891   0.271   7.169   2.814
 6316TIP3   OH218892   6.761   0.334   0.716
 6316TIP3    H118893   6.717   0.280   0.650
 6316TIP3    H218894   6.702   0.332   0.791
 6317TIP3   OH218895   7.735   1.817   5.973
 6317TIP3    H118896   7.697   1.777   5.896
 6317TIP3    H218897   7.823   1.779   5.979
 6318TIP3   OH218898   8.278   0.261   2.397
 6318TIP3    H118899   8.310   0.345   2.363
 6318TIP3    H218900   8.267   0.276   2.491
 6319TIP3   OH218901   8.246   3.318   5.218
 6319TIP3    H118902   8.231   3.402   5.175
 6319TIP3    H218903   8.173   3.310   5.280
 6320TIP3   OH218904   2.520   2.969  -0.005
 6320TIP3    H118905   2.523   2.874  -0.011
 6320TIP3    H218906   2.582   2.991   0.064
 6321TIP3   OH218907   0.746   5.094   0.172
 6321TIP3    H118908   0.817   5.044   0.133
 6321TIP3    H218909   0.736   5.057   0.260
 6322TIP3   OH218910   1.757   4.278   6.382
 6322TIP3    H118911   1.678   4.228   6.361
 6322TIP3    H218912   1.787   4.312   6.298
 6323TIP3   OH218913   6.382   3.470   3.675
 6323TIP3    H118914   6.353   3.378   3.677
 6323TIP3    H218915   6.301   3.521   3.668
 6324TIP3   OH218916   6.907   5.867   0.120
 6324TIP3    H118917   6.874   5.778   0.132
 6324TIP3    H218918   6.978   5.859   0.056
 6325TIP3   OH218919   5.847   0.115   4.971
 6325TIP3    H118920   5.856   0.021   4.957
 6325TIP3    H218921   5.936   0.146   4.987
 6326TIP3   OH218922   1.026   0.627   0.062
 6326TIP3    H118923   1.122   0.626   0.059
 6326TIP3    H218924   0.999   0.671  -0.018
 6327TIP3   OH218925   6.259   6.356   3.377
 6327TIP3    H118926   6.265   6.323   3.288
 6327TIP3    H218927   6.216   6.287   3.426
 6328TIP3   OH218928   4.273   0.740   1.640
 6328TIP3    H118929   4.191   0.773   1.676
 6328TIP3    H218930   4.282   0.652   1.677
 6329TIP3   OH218931   8.301   0.095   0.050
 6329TIP3    H118932   8.323   0.115  -0.041
 6329TIP3    H218933   8.241   0.021   0.045
 6330TIP3   OH218934   5.231   2.628   0.022
 6330TIP3    H118935   5.269   2.668  -0.056
 6330TIP3    H218936   5.285   2.660   0.094
 6331TIP3   OH218937   7.075   5.737   5.159
 6331TIP3    H118938   7.104   5.778   5.077
 6331TIP3    H218939   7.132   5.773   5.226
 6332TIP3   OH218940   0.079   0.613   2.245
 6332TIP3    H118941   0.075   0.621   2.149
 6332TIP3    H218942   0.084   0.704   2.275
 6333TIP3   OH218943   7.901   3.131   2.102
 6333TIP3    H118944   7.829   3.072   2.079
 6333TIP3    H218945   7.945   3.148   2.019
 6334TIP3   OH218946   2.459   3.331   0.037
 6334TIP3    H118947   2.439   3.285   0.119
 6334TIP3    H218948   2.540   3.378   0.055
 6335TIP3   OH218949   7.301   1.822   0.217
 6335TIP3    H118950   7.246   1.785   0.148
 6335TIP3    H218951   7.376   1.763   0.222
 6336TIP3   OH218952   5.800   7.210   5.744
 6336TIP3    H118953   5.840   7.142   5.798
 6336TIP3    H218954   5.713   7.223   5.781
 6337TIP3   OH218955   5.665   5.877   5.238
 6337TIP3    H118956   5.710   5.957   5.209
 6337TIP3    H218957   5.602   5.858   5.169
 6338TIP3   OH218958   7.113   2.523   2.152
 6338TIP3    H118959   7.041   2.554   2.208
 6338TIP3    H218960   7.121   2.591   2.085
 6339TIP3   OH218961   2.564   5.458   5.077
 6339TIP3    H118962   2.617   5.394   5.125
 6339TIP3    H218963   2.482   5.462   5.125
 6340TIP3   OH218964   0.157   2.742   1.436
 6340TIP3    H118965   0.160   2.681   1.363
 6340TIP3    H218966   0.217   2.705   1.501
 6341TIP3   OH218967   2.021   0.416   1.812
 6341TIP3    H118968   2.116   0.407   1.803
 6341TIP3    H218969   1.986   0.333   1.780
 6342TIP3   OH218970   5.707   5.273   0.242
 6342TIP3    H118971   5.723   5.349   0.187
 6342TIP3    H218972   5.762   5.286   0.319
 6343TIP3   OH218973   5.660   2.957   1.531
 6343TIP3    H118974   5.720   2.922   1.596
 6343TIP3    H218975   5.709   2.957   1.449
 6344TIP3   OH218976   3.642   4.655   1.192
 6344TIP3    H118977   3.710   4.662   1.125
 6344TIP3    H218978   3.581   4.590   1.158
 6345TIP3   OH218979   6.277   2.686   1.305
 6345TIP3    H118980   6.309   2.746   1.373
 6345TIP3    H218981   6.257   2.743   1.231
 6346TIP3   OH218982   5.270   7.236   2.741
 6346TIP3    H118983   5.252   7.249   2.834
 6346TIP3    H218984   5.353   7.189   2.740
 6347TIP3   OH218985   2.887   4.041   0.059
 6347TIP3    H118986   2.854   3.995   0.136
 6347TIP3    H218987   2.920   4.124   0.093
 6348TIP3   OH218988   7.737   2.514   3.426
 6348TIP3    H118989   7.815   2.549   3.382
 6348TIP3    H218990   7.769   2.482   3.511
 6349TIP3   OH218991   1.154   3.299   1.252
 6349TIP3    H118992   1.241   3.276   1.219
 6349TIP3    H218993   1.162   3.390   1.280
 6350TIP3   OH218994   0.444   6.477   1.359
 6350TIP3    H118995   0.388   6.532   1.414
 6350TIP3    H218996   0.386   6.410   1.324
 6351TIP3   OH218997   1.566   0.211   4.782
 6351TIP3    H118998   1.564   0.115   4.778
 6351TIP3    H218999   1.612   0.231   4.864
 6352TIP3   OH219000   2.521   4.445   4.428
 6352TIP3    H119001   2.474   4.413   4.505
 6352TIP3    H219002   2.546   4.366   4.381
 6353TIP3   OH219003   3.983   5.404   4.363
 6353TIP3    H119004   3.905   5.447   4.397
 6353TIP3    H219005   4.056   5.456   4.397
 6354TIP3   OH219006   4.442   2.259   6.568
 6354TIP3    H119007   4.422   2.237   6.477
 6354TIP3    H219008   4.529   2.297   6.565
 6355TIP3   OH219009   0.094   3.314   0.749
 6355TIP3    H119010   0.027   3.349   0.808
 6355TIP3    H219011   0.137   3.246   0.800
 6356TIP3   OH219012   8.113   2.520   6.075
 6356TIP3    H119013   8.081   2.458   6.009
 6356TIP3    H219014   8.120   2.603   6.028
 6357TIP3   OH219015   3.571   0.936   2.857
 6357TIP3    H119016   3.654   0.893   2.837
 6357TIP3    H219017   3.515   0.866   2.888
 6358TIP3   OH219018   6.686   7.741   2.505
 6358TIP3    H119019   6.590   7.735   2.504
 6358TIP3    H219020   6.710   7.754   2.413
 6359TIP3   OH219021   5.467   0.606   3.107
 6359TIP3    H119022   5.484   0.534   3.047
 6359TIP3    H219023   5.372   0.615   3.109
 6360TIP3   OH219024   0.666   3.158   2.387
 6360TIP3    H119025   0.652   3.078   2.437
 6360TIP3    H219026   0.583   3.171   2.340
 6361TIP3   OH219027   7.636   4.642   0.074
 6361TIP3    H119028   7.674   4.708   0.132
 6361TIP3    H219029   7.623   4.689  -0.009
 6362TIP3   OH219030   7.588   5.089   3.904
 6362TIP3    H119031   7.562   5.178   3.879
 6362TIP3    H219032   7.672   5.075   3.859
 6363TIP3   OH219033   3.990   3.614   1.498
 6363TIP3    H119034   4.031   3.551   1.557
 6363TIP3    H219035   4.053   3.686   1.493
 6364TIP3   OH219036   7.990   4.770   3.553
 6364TIP3    H119037   7.951   4.730   3.475
 6364TIP3    H219038   8.021   4.696   3.605
 6365TIP3   OH219039   2.647   0.755   5.547
 6365TIP3    H119040   2.647   0.820   5.618
 6365TIP3    H219041   2.588   0.791   5.481
 6366TIP3   OH219042   8.049   0.586   6.194
 6366TIP3    H119043   8.056   0.497   6.227
 6366TIP3    H219044   8.096   0.585   6.111
 6367TIP3   OH219045   8.043   2.045   4.889
 6367TIP3    H119046   8.082   2.004   4.812
 6367TIP3    H219047   8.070   1.991   4.963
 6368TIP3   OH219048   2.539   0.362   5.322
 6368TIP3    H119049   2.593   0.439   5.301
 6368TIP3    H219050   2.466   0.397   5.373
 6369TIP3   OH219051   3.443   0.449   6.696
 6369TIP3    H119052   3.447   0.354   6.690
 6369TIP3    H219053   3.469   0.480   6.609
 6370TIP3   OH219054   6.928   7.135   4.942
 6370TIP3    H119055   6.861   7.116   5.008
 6370TIP3    H219056   6.894   7.097   4.861
 6371TIP3   OH219057   8.235   2.218   1.614
 6371TIP3    H119058   8.318   2.203   1.660
 6371TIP3    H219059   8.186   2.137   1.626
 6372TIP3   OH219060   5.894   4.413   3.827
 6372TIP3    H119061   5.851   4.334   3.796
 6372TIP3    H219062   5.890   4.408   3.923
 6373TIP3   OH219063   0.034   2.975   4.518
 6373TIP3    H119064   0.107   2.934   4.564
 6373TIP3    H219065  -0.038   2.913   4.528
 6374TIP3   OH219066   4.439   6.355   1.980
 6374TIP3    H119067   4.460   6.301   1.904
 6374TIP3    H219068   4.349   6.383   1.965
 6375TIP3   OH219069   0.570   5.757   0.936
 6375TIP3    H119070   0.507   5.763   0.864
 6375TIP3    H219071   0.582   5.848   0.964
 6376TIP3   OH219072   0.237   4.753   0.391
 6376TIP3    H119073   0.310   4.697   0.363
 6376TIP3    H219074   0.171   4.691   0.423
 6377TIP3   OH219075   5.858   1.685   5.917
 6377TIP3    H119076   5.823   1.752   5.858
 6377TIP3    H219077   5.796   1.683   5.990
 6378TIP3   OH219078   6.134   0.166   1.197
 6378TIP3    H119079   6.131   0.220   1.119
 6378TIP3    H219080   6.192   0.213   1.257
 6379TIP3   OH219081   6.332   5.474   3.740
 6379TIP3    H119082   6.417   5.440   3.770
 6379TIP3    H219083   6.270   5.404   3.761
 6380TIP3   OH219084   3.398   7.560   4.180
 6380TIP3    H119085   3.442   7.544   4.096
 6380TIP3    H219086   3.428   7.647   4.207
 6381TIP3   OH219087   6.045   0.705   6.689
 6381TIP3    H119088   6.012   0.626   6.646
 6381TIP3    H219089   5.967   0.744   6.729
 6382TIP3   OH219090   7.441   4.683   5.370
 6382TIP3    H119091   7.381   4.699   5.443
 6382TIP3    H219092   7.432   4.589   5.352
 6383TIP3   OH219093   1.581   4.806   1.730
 6383TIP3    H119094   1.614   4.818   1.641
 6383TIP3    H219095   1.514   4.873   1.741
 6384TIP3   OH219096   1.738   5.473   2.796
 6384TIP3    H119097   1.691   5.417   2.858
 6384TIP3    H219098   1.823   5.489   2.837
 6385TIP3   OH219099   6.728   7.802   0.138
 6385TIP3    H119100   6.739   7.797   0.233
 6385TIP3    H219101   6.661   7.737   0.118
 6386TIP3   OH219102   2.187   5.231   3.712
 6386TIP3    H119103   2.191   5.326   3.703
 6386TIP3    H219104   2.194   5.198   3.622
 6387TIP3   OH219105   0.647   3.403   3.070
 6387TIP3    H119106   0.606   3.401   3.156
 6387TIP3    H219107   0.700   3.323   3.066
 6388TIP3   OH219108   6.798   4.466   4.450
 6388TIP3    H119109   6.831   4.442   4.537
 6388TIP3    H219110   6.728   4.529   4.468
 6389TIP3   OH219111   4.173   6.875   3.376
 6389TIP3    H119112   4.105   6.815   3.345
 6389TIP3    H219113   4.165   6.952   3.321
 6390TIP3   OH219114   2.544   2.435   5.151
 6390TIP3    H119115   2.502   2.444   5.237
 6390TIP3    H219116   2.533   2.521   5.110
 6391TIP3   OH219117   6.623   7.785   1.473
 6391TIP3    H119118   6.561   7.853   1.450
 6391TIP3    H219119   6.609   7.716   1.408
 6392TIP3   OH219120   6.133   6.320   5.086
 6392TIP3    H119121   6.090   6.402   5.063
 6392TIP3    H219122   6.086   6.254   5.036
 6393TIP3   OH219123   0.581   1.037   4.148
 6393TIP3    H119124   0.599   1.130   4.136
 6393TIP3    H219125   0.528   1.033   4.227
 6394TIP3   OH219126   5.112   4.832   0.221
 6394TIP3    H119127   5.049   4.903   0.209
 6394TIP3    H219128   5.190   4.875   0.255
 6395TIP3   OH219129   1.551   0.199   4.461
 6395TIP3    H119130   1.531   0.121   4.409
 6395TIP3    H219131   1.488   0.196   4.533
 6396TIP3   OH219132   5.733   5.396   1.973
 6396TIP3    H119133   5.701   5.432   2.055
 6396TIP3    H219134   5.829   5.400   1.980
 6397TIP3   OH219135   7.344   7.797   5.150
 6397TIP3    H119136   7.266   7.839   5.185
 6397TIP3    H219137   7.316   7.758   5.068
 6398TIP3   OH219138   4.279   6.711   4.310
 6398TIP3    H119139   4.278   6.750   4.397
 6398TIP3    H219140   4.364   6.735   4.273
 6399TIP3   OH219141   0.538   6.294   4.074
 6399TIP3    H119142   0.493   6.367   4.117
 6399TIP3    H219143   0.630   6.307   4.096
 6400TIP3   OH219144   2.674   6.746   1.246
 6400TIP3    H119145   2.743   6.699   1.198
 6400TIP3    H219146   2.716   6.828   1.274
 6401TIP3   OH219147   0.764   5.508   2.222
 6401TIP3    H119148   0.843   5.519   2.169
 6401TIP3    H219149   0.744   5.596   2.254
 6402TIP3   OH219150   4.967   2.340   2.595
 6402TIP3    H119151   4.879   2.356   2.560
 6402TIP3    H219152   4.951   2.287   2.674
 6403TIP3   OH219153   2.235   6.570   3.567
 6403TIP3    H119154   2.203   6.616   3.644
 6403TIP3    H219155   2.287   6.498   3.603
 6404TIP3   OH219156   2.138   1.521   3.680
 6404TIP3    H119157   2.161   1.614   3.685
 6404TIP3    H219158   2.048   1.516   3.712
 6405TIP3   OH219159   0.447   1.780   0.437
 6405TIP3    H119160   0.411   1.869   0.427
 6405TIP3    H219161   0.372   1.725   0.456
 6406TIP3   OH219162   8.099   7.598   1.624
 6406TIP3    H119163   8.183   7.580   1.583
 6406TIP3    H219164   8.101   7.550   1.707
 6407TIP3   OH219165   4.225   5.881   2.453
 6407TIP3    H119166   4.262   5.960   2.491
 6407TIP3    H219167   4.284   5.858   2.382
 6408TIP3   OH219168   2.439   0.820   5.294
 6408TIP3    H119169   2.387   0.861   5.224
 6408TIP3    H219170   2.525   0.862   5.287
 6409TIP3   OH219171   6.367   6.951   4.400
 6409TIP3    H119172   6.396   7.030   4.355
 6409TIP3    H219173   6.301   6.981   4.463
 6410TIP3   OH219174   7.322   4.632   4.529
 6410TIP3    H119175   7.268   4.577   4.587
 6410TIP3    H219176   7.320   4.718   4.570
 6411TIP3   OH219177   4.056   1.180   2.716
 6411TIP3    H119178   4.052   1.263   2.668
 6411TIP3    H219179   4.142   1.180   2.757
 6412TIP3   OH219180   2.623   2.146   1.075
 6412TIP3    H119181   2.658   2.188   1.154
 6412TIP3    H219182   2.679   2.180   1.004
 6413TIP3   OH219183   4.860   6.864   1.063
 6413TIP3    H119184   4.780   6.911   1.086
 6413TIP3    H219185   4.859   6.858   0.968
 6414TIP3   OH219186   4.590   4.264   5.409
 6414TIP3    H119187   4.566   4.354   5.389
 6414TIP3    H219188   4.646   4.237   5.336
 6415TIP3   OH219189   7.778   3.270   2.360
 6415TIP3    H119190   7.869   3.241   2.355
 6415TIP3    H219191   7.740   3.247   2.276
 6416TIP3   OH219192   1.936   4.546   1.871
 6416TIP3    H119193   1.849   4.510   1.857
 6416TIP3    H219194   1.956   4.526   1.963
 6417TIP3   OH219195   1.350   0.592   1.121
 6417TIP3    H119196   1.257   0.613   1.112
 6417TIP3    H219197   1.392   0.639   1.050
 6418TIP3   OH219198   2.924   4.978   4.407
 6418TIP3    H119199   2.973   4.908   4.449
 6418TIP3    H219200   2.990   5.039   4.377
 6419TIP3   OH219201   3.121   3.363   6.222
 6419TIP3    H119202   3.118   3.313   6.141
 6419TIP3    H219203   3.148   3.299   6.288
 6420TIP3   OH219204   5.882   1.603   1.820
 6420TIP3    H119205   5.820   1.532   1.805
 6420TIP3    H219206   5.968   1.564   1.806
 6421TIP3   OH219207   4.854   6.727   2.040
 6421TIP3    H119208   4.791   6.659   2.016
 6421TIP3    H219209   4.916   6.684   2.099
 6422TIP3   OH219210   0.823   6.367   5.658
 6422TIP3    H119211   0.900   6.312   5.669
 6422TIP3    H219212   0.832   6.404   5.570
 6423TIP3   OH219213   0.233   5.340   2.027
 6423TIP3    H119214   0.182   5.259   2.024
 6423TIP3    H219215   0.275   5.345   1.941
 6424TIP3   OH219216   3.606   6.254   3.652
 6424TIP3    H119217   3.554   6.205   3.588
 6424TIP3    H219218   3.545   6.273   3.723
 6425TIP3   OH219219   3.103   5.523   0.861
 6425TIP3    H119220   3.173   5.504   0.924
 6425TIP3    H219221   3.126   5.473   0.783
 6426TIP3   OH219222   4.383   5.544   2.918
 6426TIP3    H119223   4.297   5.583   2.899
 6426TIP3    H219224   4.432   5.553   2.836
 6427TIP3   OH219225   5.806   5.160   4.914
 6427TIP3    H119226   5.764   5.232   4.867
 6427TIP3    H219227   5.749   5.145   4.990
 6428TIP3   OH219228   1.736   3.514   4.095
 6428TIP3    H119229   1.650   3.491   4.131
 6428TIP3    H219230   1.747   3.456   4.020
 6429TIP3   OH219231   7.066   7.151   6.485
 6429TIP3    H119232   7.161   7.165   6.490
 6429TIP3    H219233   7.052   7.115   6.398
 6430TIP3   OH219234   0.361   1.377   1.832
 6430TIP3    H119235   0.348   1.417   1.918
 6430TIP3    H219236   0.314   1.294   1.837
 6431TIP3   OH219237   1.872   0.882   3.178
 6431TIP3    H119238   1.858   0.837   3.094
 6431TIP3    H219239   1.953   0.930   3.166
 6432TIP3   OH219240   6.811   7.418   3.501
 6432TIP3    H119241   6.863   7.359   3.446
 6432TIP3    H219242   6.848   7.409   3.589
 6433TIP3   OH219243   7.413   7.722   3.548
 6433TIP3    H119244   7.472   7.788   3.512
 6433TIP3    H219245   7.326   7.761   3.540
 6434TIP3   OH219246   4.857   5.734   4.816
 6434TIP3    H119247   4.827   5.825   4.819
 6434TIP3    H219248   4.931   5.735   4.755
 6435TIP3   OH219249   0.872   1.248   0.071
 6435TIP3    H119250   0.783   1.265   0.101
 6435TIP3    H219251   0.866   1.249  -0.025
 6436TIP3   OH219252   5.747   2.226   2.668
 6436TIP3    H119253   5.665   2.178   2.680
 6436TIP3    H219254   5.786   2.228   2.755
 6437TIP3   OH219255   1.667   4.064   5.664
 6437TIP3    H119256   1.662   4.160   5.666
 6437TIP3    H219257   1.584   4.035   5.703
 6438TIP3   OH219258   7.326   2.275   3.855
 6438TIP3    H119259   7.316   2.246   3.764
 6438TIP3    H219260   7.421   2.284   3.867
 6439TIP3   OH219261   5.127   2.142   3.641
 6439TIP3    H119262   5.058   2.075   3.635
 6439TIP3    H219263   5.189   2.105   3.704
 6440TIP3   OH219264   4.276   0.601   0.341
 6440TIP3    H119265   4.219   0.649   0.401
 6440TIP3    H219266   4.217   0.550   0.286
 6441TIP3   OH219267   1.382   7.416   3.261
 6441TIP3    H119268   1.297   7.458   3.245
 6441TIP3    H219269   1.385   7.402   3.355
 6442TIP3   OH219270   0.404   2.165   2.756
 6442TIP3    H119271   0.376   2.190   2.668
 6442TIP3    H219272   0.323   2.144   2.802
 6443TIP3   OH219273   4.075   6.566   5.428
 6443TIP3    H119274   4.078   6.542   5.520
 6443TIP3    H219275   4.092   6.484   5.381
 6444TIP3   OH219276   3.208   2.310   6.776
 6444TIP3    H119277   3.279   2.279   6.720
 6444TIP3    H219278   3.186   2.235   6.831
 6445TIP3   OH219279   3.050   1.037   0.177
 6445TIP3    H119280   3.099   1.050   0.095
 6445TIP3    H219281   3.024   0.945   0.174
 6446TIP3   OH219282   6.781   4.567   3.648
 6446TIP3    H119283   6.855   4.559   3.708
 6446TIP3    H219284   6.706   4.536   3.698
 6447TIP3   OH219285   2.958   4.708   0.048
 6447TIP3    H119286   2.920   4.721   0.135
 6447TIP3    H219287   3.051   4.728   0.060
 6448TIP3   OH219288   7.826   4.790   4.511
 6448TIP3    H119289   7.835   4.882   4.537
 6448TIP3    H219290   7.755   4.757   4.567
 6449TIP3   OH219291   5.417   5.845   0.875
 6449TIP3    H119292   5.480   5.916   0.862
 6449TIP3    H219293   5.446   5.801   0.956
 6450TIP3   OH219294   2.839   1.376   2.751
 6450TIP3    H119295   2.917   1.321   2.757
 6450TIP3    H219296   2.811   1.389   2.841
 6451TIP3   OH219297   1.265   4.148   5.945
 6451TIP3    H119298   1.317   4.208   5.998
 6451TIP3    H219299   1.203   4.109   6.006
 6452TIP3   OH219300   3.015   2.064   1.809
 6452TIP3    H119301   2.985   2.100   1.726
 6452TIP3    H219302   3.109   2.082   1.811
 6453TIP3   OH219303   2.693   1.704   1.092
 6453TIP3    H119304   2.713   1.639   1.025
 6453TIP3    H219305   2.776   1.749   1.108
 6454TIP3   OH219306   5.668   2.771   6.421
 6454TIP3    H119307   5.599   2.764   6.355
 6454TIP3    H219308   5.662   2.861   6.453
 6455TIP3   OH219309   2.411   1.419   6.265
 6455TIP3    H119310   2.483   1.472   6.231
 6455TIP3    H219311   2.406   1.345   6.205
 6456TIP3   OH219312   7.757   1.943   2.059
 6456TIP3    H119313   7.748   1.847   2.060
 6456TIP3    H219314   7.830   1.959   1.999
 6457TIP3   OH219315   2.838   1.033   1.035
 6457TIP3    H119316   2.865   1.075   1.117
 6457TIP3    H219317   2.781   1.097   0.993
 6458TIP3   OH219318   4.454   2.104   3.464
 6458TIP3    H119319   4.482   2.192   3.491
 6458TIP3    H219320   4.366   2.117   3.430
 6459TIP3   OH219321   2.482   7.149   5.434
 6459TIP3    H119322   2.528   7.066   5.447
 6459TIP3    H219323   2.476   7.187   5.521
 6460TIP3   OH219324   4.800   6.263   1.885
 6460TIP3    H119325   4.843   6.183   1.913
 6460TIP3    H219326   4.785   6.251   1.791
 6461TIP3   OH219327   3.673   0.184   5.128
 6461TIP3    H119328   3.609   0.195   5.057
 6461TIP3    H219329   3.691   0.090   5.130
 6462TIP3   OH219330   5.639   5.761   6.585
 6462TIP3    H119331   5.632   5.852   6.614
 6462TIP3    H219332   5.552   5.724   6.601
 6463TIP3   OH219333   3.502   6.696   5.090
 6463TIP3    H119334   3.464   6.770   5.043
 6463TIP3    H219335   3.593   6.723   5.107
 6464TIP3   OH219336   5.336   2.515   0.736
 6464TIP3    H119337   5.282   2.440   0.758
 6464TIP3    H219338   5.345   2.563   0.819
 6465TIP3   OH219339   4.607   0.205   6.237
 6465TIP3    H119340   4.571   0.158   6.313
 6465TIP3    H219341   4.694   0.166   6.224
 6466TIP3   OH219342   4.562   7.694   2.660
 6466TIP3    H119343   4.511   7.689   2.580
 6466TIP3    H219344   4.497   7.700   2.730
 6467TIP3   OH219345   2.356   6.832   6.604
 6467TIP3    H119346   2.357   6.754   6.660
 6467TIP3    H219347   2.399   6.804   6.523
 6468TIP3   OH219348   6.428   0.907   4.859
 6468TIP3    H119349   6.464   0.819   4.853
 6468TIP3    H219350   6.349   0.897   4.912
 6469TIP3   OH219351   5.913   5.469   4.494
 6469TIP3    H119352   5.999   5.460   4.537
 6469TIP3    H219353   5.863   5.525   4.553
 6470TIP3   OH219354   6.229   6.359   2.550
 6470TIP3    H119355   6.156   6.301   2.573
 6470TIP3    H219356   6.272   6.316   2.476
 6471TIP3   OH219357   3.693   1.441   3.700
 6471TIP3    H119358   3.730   1.405   3.619
 6471TIP3    H219359   3.733   1.528   3.708
 6472TIP3   OH219360   2.824   1.570   5.334
 6472TIP3    H119361   2.729   1.555   5.340
 6472TIP3    H219362   2.832   1.662   5.310
 6473TIP3   OH219363   6.354   6.010   2.779
 6473TIP3    H119364   6.378   5.999   2.687
 6473TIP3    H219365   6.381   5.929   2.821
 6474TIP3   OH219366   5.646   5.469   1.542
 6474TIP3    H119367   5.679   5.526   1.612
 6474TIP3    H219368   5.691   5.500   1.463
 6475TIP3   OH219369   8.219   1.389   6.601
 6475TIP3    H119370   8.159   1.344   6.543
 6475TIP3    H219371   8.226   1.477   6.565
 6476TIP3   OH219372   5.583   3.650   1.796
 6476TIP3    H119373   5.530   3.614   1.725
 6476TIP3    H219374   5.611   3.736   1.764
 6477TIP3   OH219375   2.214   7.373   0.573
 6477TIP3    H119376   2.200   7.462   0.543
 6477TIP3    H219377   2.140   7.355   0.631
 6478TIP3   OH219378   5.220   5.851   2.602
 6478TIP3    H119379   5.264   5.778   2.558
 6478TIP3    H219380   5.279   5.875   2.673
 6479TIP3   OH219381   3.871   5.893   5.692
 6479TIP3    H119382   3.816   5.864   5.765
 6479TIP3    H219383   3.819   5.876   5.614
 6480TIP3   OH219384   2.781   2.478   1.946
 6480TIP3    H119385   2.814   2.396   1.984
 6480TIP3    H219386   2.779   2.539   2.020
 6481TIP3   OH219387   4.258   1.320   1.735
 6481TIP3    H119388   4.170   1.313   1.700
 6481TIP3    H219389   4.254   1.275   1.820
 6482TIP3   OH219390   6.979   1.556   4.277
 6482TIP3    H119391   6.984   1.470   4.235
 6482TIP3    H219392   7.058   1.561   4.331
 6483TIP3   OH219393   2.367   6.341   5.629
 6483TIP3    H119394   2.357   6.429   5.594
 6483TIP3    H219395   2.279   6.318   5.662
 6484TIP3   OH219396   6.685   3.502   6.256
 6484TIP3    H119397   6.627   3.544   6.319
 6484TIP3    H219398   6.664   3.544   6.172
 6485TIP3   OH219399   0.561   4.957   4.563
 6485TIP3    H119400   0.568   5.039   4.613
 6485TIP3    H219401   0.476   4.963   4.519
 6486TIP3   OH219402   5.690   6.238   3.550
 6486TIP3    H119403   5.682   6.280   3.465
 6486TIP3    H219404   5.629   6.164   3.547
 6487TIP3   OH219405   1.415   0.711   5.378
 6487TIP3    H119406   1.378   0.629   5.409
 6487TIP3    H219407   1.341   0.772   5.378
 6488TIP3   OH219408   5.212   0.906   5.981
 6488TIP3    H119409   5.304   0.883   5.987
 6488TIP3    H219410   5.211   1.002   5.985
 6489TIP3   OH219411   4.548   4.153   3.542
 6489TIP3    H119412   4.531   4.212   3.468
 6489TIP3    H219413   4.642   4.133   3.536
 6490TIP3   OH219414   1.790   6.651   6.467
 6490TIP3    H119415   1.696   6.666   6.453
 6490TIP3    H219416   1.808   6.688   6.553
 6491TIP3   OH219417   4.116   4.513   5.758
 6491TIP3    H119418   4.026   4.517   5.726
 6491TIP3    H219419   4.169   4.493   5.681
 6492TIP3   OH219420   4.109   4.008   5.547
 6492TIP3    H119421   4.197   3.972   5.544
 6492TIP3    H219422   4.120   4.097   5.581
 6493TIP3   OH219423   1.453   7.788   5.707
 6493TIP3    H119424   1.395   7.728   5.662
 6493TIP3    H219425   1.439   7.770   5.800
 6494TIP3   OH219426   7.768   4.629   5.917
 6494TIP3    H119427   7.821   4.553   5.940
 6494TIP3    H219428   7.789   4.645   5.825
 6495TIP3   OH219429   6.649   7.103   3.608
 6495TIP3    H119430   6.735   7.062   3.608
 6495TIP3    H219431   6.643   7.145   3.522
 6496TIP3   OH219432   7.664   0.664   5.085
 6496TIP3    H119433   7.734   0.610   5.047
 6496TIP3    H219434   7.709   0.742   5.118
 6497TIP3   OH219435   3.983   7.603   4.878
 6497TIP3    H119436   4.021   7.661   4.813
 6497TIP3    H219437   3.900   7.644   4.902
 6498TIP3   OH219438   1.049   3.602   5.783
 6498TIP3    H119439   0.964   3.607   5.739
 6498TIP3    H219440   1.055   3.684   5.833
 6499TIP3   OH219441   8.033   4.093   6.575
 6499TIP3    H119442   8.095   4.153   6.615
 6499TIP3    H219443   7.950   4.142   6.573
 6500TIP3   OH219444   5.103   6.476   4.953
 6500TIP3    H119445   5.021   6.505   4.912
 6500TIP3    H219446   5.090   6.383   4.971
 6501TIP3   OH219447   4.475   3.256   2.400
 6501TIP3    H119448   4.557   3.209   2.420
 6501TIP3    H219449   4.486   3.342   2.441
 6502TIP3   OH219450   2.909   0.726   2.230
 6502TIP3    H119451   2.858   0.805   2.216
 6502TIP3    H219452   2.970   0.723   2.156
 6503TIP3   OH219453   4.249   1.656   1.789
 6503TIP3    H119454   4.344   1.662   1.786
 6503TIP3    H219455   4.230   1.591   1.856
 6504TIP3   OH219456   1.657   3.664   3.053
 6504TIP3    H119457   1.715   3.728   3.011
 6504TIP3    H219458   1.705   3.633   3.129
 6505TIP3   OH219459   4.109   4.184   0.902
 6505TIP3    H119460   4.180   4.203   0.965
 6505TIP3    H219461   4.152   4.187   0.817
 6506TIP3   OH219462   7.788   7.771   2.376
 6506TIP3    H119463   7.835   7.688   2.368
 6506TIP3    H219464   7.843   7.824   2.433
 6507TIP3   OH219465   1.134   0.960   0.130
 6507TIP3    H119466   1.168   0.872   0.149
 6507TIP3    H219467   1.066   0.974   0.196
 6508TIP3   OH219468   2.754   2.490   1.677
 6508TIP3    H119469   2.790   2.566   1.631
 6508TIP3    H219470   2.793   2.494   1.764
 6509TIP3   OH219471   1.806   0.077   5.811
 6509TIP3    H119472   1.828   0.045   5.724
 6509TIP3    H219473   1.850   0.016   5.870
 6510TIP3   OH219474   6.009   1.459   5.926
 6510TIP3    H119475   5.955   1.407   5.867
 6510TIP3    H219476   5.966   1.545   5.929
 6511TIP3   OH219477   3.994   1.538   5.015
 6511TIP3    H119478   3.970   1.546   4.923
 6511TIP3    H219479   3.977   1.446   5.036
 6512TIP3   OH219480   5.066   2.664   4.945
 6512TIP3    H119481   5.146   2.691   4.991
 6512TIP3    H219482   5.091   2.586   4.896
 6513TIP3   OH219483   4.164   5.830   0.932
 6513TIP3    H119484   4.226   5.858   0.864
 6513TIP3    H219485   4.217   5.775   0.991
 6514TIP3   OH219486   1.180   0.748   4.495
 6514TIP3    H119487   1.168   0.694   4.417
 6514TIP3    H219488   1.235   0.695   4.553
 6515TIP3   OH219489   4.617   4.968   2.158
 6515TIP3    H119490   4.679   4.916   2.107
 6515TIP3    H219491   4.593   4.912   2.231
 6516TIP3   OH219492   3.252   1.927   3.296
 6516TIP3    H119493   3.224   2.014   3.326
 6516TIP3    H219494   3.334   1.943   3.249
 6517TIP3   OH219495   2.114   2.636   3.395
 6517TIP3    H119496   2.187   2.698   3.401
 6517TIP3    H219497   2.073   2.656   3.310
 6518TIP3   OH219498   1.138   0.688   2.861
 6518TIP3    H119499   1.121   0.738   2.780
 6518TIP3    H219500   1.086   0.609   2.852
 6519TIP3   OH219501   0.147   7.469   1.326
 6519TIP3    H119502   0.078   7.410   1.296
 6519TIP3    H219503   0.191   7.420   1.396
 6520TIP3   OH219504   1.945   2.343   5.270
 6520TIP3    H119505   1.956   2.425   5.221
 6520TIP3    H219506   1.865   2.357   5.321
 6521TIP3   OH219507   4.004   2.812   0.254
 6521TIP3    H119508   3.911   2.806   0.275
 6521TIP3    H219509   4.046   2.836   0.336
 6522TIP3   OH219510   7.938   0.153   3.974
 6522TIP3    H119511   7.868   0.207   4.013
 6522TIP3    H219512   7.985   0.213   3.916
 6523TIP3   OH219513   2.350   3.505   2.305
 6523TIP3    H119514   2.274   3.516   2.362
 6523TIP3    H219515   2.312   3.487   2.218
 6524TIP3   OH219516   7.157   4.883   1.429
 6524TIP3    H119517   7.203   4.813   1.474
 6524TIP3    H219518   7.114   4.932   1.500
 6525TIP3   OH219519   4.483   6.281   2.810
 6525TIP3    H119520   4.417   6.280   2.879
 6525TIP3    H219521   4.552   6.338   2.844
 6526TIP3   OH219522   5.386   3.271   1.891
 6526TIP3    H119523   5.417   3.180   1.888
 6526TIP3    H219524   5.328   3.278   1.815
 6527TIP3   OH219525   0.605   4.653   3.360
 6527TIP3    H119526   0.596   4.690   3.448
 6527TIP3    H219527   0.549   4.708   3.305
 6528TIP3   OH219528   6.754   7.651   5.865
 6528TIP3    H119529   6.846   7.677   5.857
 6528TIP3    H219530   6.708   7.733   5.880
 6529TIP3   OH219531   5.342   4.194   1.103
 6529TIP3    H119532   5.257   4.161   1.133
 6529TIP3    H219533   5.321   4.265   1.043
 6530TIP3   OH219534   4.325   2.321   0.635
 6530TIP3    H119535   4.321   2.283   0.723
 6530TIP3    H219536   4.394   2.272   0.590
 6531TIP3   OH219537   3.987   4.307   2.195
 6531TIP3    H119538   3.984   4.403   2.193
 6531TIP3    H219539   4.063   4.285   2.141
 6532TIP3   OH219540   0.350   7.679   1.908
 6532TIP3    H119541   0.339   7.762   1.955
 6532TIP3    H219542   0.275   7.626   1.936
 6533TIP3   OH219543   0.072   2.408   5.767
 6533TIP3    H119544   0.125   2.333   5.740
 6533TIP3    H219545   0.040   2.445   5.684
 6534TIP3   OH219546   0.144   0.949   3.948
 6534TIP3    H119547   0.088   1.015   3.907
 6534TIP3    H219548   0.137   0.872   3.891
 6535TIP3   OH219549   4.259   4.746   6.216
 6535TIP3    H119550   4.257   4.725   6.122
 6535TIP3    H219551   4.261   4.661   6.259
 6536TIP3   OH219552   2.077   2.896   6.478
 6536TIP3    H119553   2.151   2.925   6.532
 6536TIP3    H219554   2.102   2.809   6.448
 6537TIP3   OH219555   5.267   5.267   6.544
 6537TIP3    H119556   5.286   5.275   6.638
 6537TIP3    H219557   5.335   5.319   6.501
 6538TIP3   OH219558   2.230   2.285   5.370
 6538TIP3    H119559   2.151   2.332   5.397
 6538TIP3    H219560   2.205   2.193   5.370
 6539TIP3   OH219561   1.113   2.407   0.057
 6539TIP3    H119562   1.139   2.455  -0.021
 6539TIP3    H219563   1.021   2.430   0.070
 6540TIP3   OH219564   4.337   3.438   1.725
 6540TIP3    H119565   4.274   3.407   1.661
 6540TIP3    H219566   4.341   3.533   1.711
 6541TIP3   OH219567   1.083   5.562   0.898
 6541TIP3    H119568   1.131   5.634   0.859
 6541TIP3    H219569   0.995   5.597   0.914
 6542TIP3   OH219570   0.380   0.232   2.198
 6542TIP3    H119571   0.400   0.292   2.270
 6542TIP3    H219572   0.289   0.249   2.176
 6543TIP3   OH219573   7.657   6.462   4.150
 6543TIP3    H119574   7.592   6.500   4.209
 6543TIP3    H219575   7.741   6.494   4.184
 6544TIP3   OH219576   0.748   6.540   1.774
 6544TIP3    H119577   0.708   6.534   1.861
 6544TIP3    H219578   0.674   6.538   1.714
 6545TIP3   OH219579   0.446   6.772   5.704
 6545TIP3    H119580   0.512   6.708   5.731
 6545TIP3    H219581   0.410   6.737   5.623
 6546TIP3   OH219582   6.608   0.673   0.309
 6546TIP3    H119583   6.688   0.673   0.363
 6546TIP3    H219584   6.636   0.711   0.226
 6547TIP3   OH219585   6.249   4.059   0.666
 6547TIP3    H119586   6.221   4.116   0.594
 6547TIP3    H219587   6.291   3.985   0.622
 6548TIP3   OH219588   6.901   0.558   3.500
 6548TIP3    H119589   6.906   0.654   3.498
 6548TIP3    H219590   6.987   0.530   3.530
 6549TIP3   OH219591   4.294   5.735   6.193
 6549TIP3    H119592   4.273   5.650   6.232
 6549TIP3    H219593   4.389   5.733   6.182
 6550TIP3   OH219594   3.357   6.513   3.150
 6550TIP3    H119595   3.434   6.487   3.099
 6550TIP3    H219596   3.383   6.593   3.194
 6551TIP3   OH219597   3.224   3.720   5.192
 6551TIP3    H119598   3.131   3.721   5.215
 6551TIP3    H219599   3.247   3.627   5.188
 6552TIP3   OH219600   8.067   6.939   5.864
 6552TIP3    H119601   7.988   6.993   5.857
 6552TIP3    H219602   8.139   7.001   5.863
 6553TIP3   OH219603   0.760   5.672   5.800
 6553TIP3    H119604   0.730   5.682   5.710
 6553TIP3    H219605   0.765   5.761   5.835
 6554TIP3   OH219606   2.119   4.885   5.695
 6554TIP3    H119607   2.139   4.791   5.693
 6554TIP3    H219608   2.202   4.928   5.675
 6555TIP3   OH219609   7.439   6.926   2.324
 6555TIP3    H119610   7.411   6.926   2.232
 6555TIP3    H219611   7.373   6.873   2.368
 6556TIP3   OH219612   7.167   0.312   4.269
 6556TIP3    H119613   7.169   0.289   4.362
 6556TIP3    H219614   7.230   0.253   4.228
 6557TIP3   OH219615   5.210   6.863   0.305
 6557TIP3    H119616   5.181   6.912   0.228
 6557TIP3    H219617   5.306   6.868   0.301
 6558TIP3   OH219618   5.395   0.262   3.709
 6558TIP3    H119619   5.310   0.299   3.688
 6558TIP3    H219620   5.445   0.335   3.744
 6559TIP3   OH219621   3.720   2.714   1.441
 6559TIP3    H119622   3.758   2.628   1.457
 6559TIP3    H219623   3.628   2.696   1.422
 6560TIP3   OH219624   4.821   5.150   1.997
 6560TIP3    H119625   4.807   5.103   2.079
 6560TIP3    H219626   4.778   5.096   1.930
 6561TIP3   OH219627   5.672   2.414   2.959
 6561TIP3    H119628   5.665   2.327   2.998
 6561TIP3    H219629   5.648   2.474   3.030
 6562TIP3   OH219630   3.481   4.257   2.284
 6562TIP3    H119631   3.554   4.317   2.270
 6562TIP3    H219632   3.404   4.314   2.291
 6563TIP3   OH219633   3.476   7.771   4.318
 6563TIP3    H119634   3.393   7.814   4.299
 6563TIP3    H219635   3.507   7.814   4.397
 6564TIP3   OH219636   5.532   0.865   2.376
 6564TIP3    H119637   5.450   0.859   2.425
 6564TIP3    H219638   5.531   0.952   2.337
 6565TIP3   OH219639   5.071   1.806   2.720
 6565TIP3    H119640   5.143   1.747   2.697
 6565TIP3    H219641   5.024   1.759   2.789
 6566TIP3   OH219642   7.065   2.143   5.492
 6566TIP3    H119643   7.000   2.074   5.483
 6566TIP3    H219644   7.088   2.143   5.585
 6567TIP3   OH219645   3.250   3.653   3.249
 6567TIP3    H119646   3.158   3.625   3.250
 6567TIP3    H219647   3.246   3.747   3.231
 6568TIP3   OH219648   1.060   6.205   6.491
 6568TIP3    H119649   1.004   6.150   6.546
 6568TIP3    H219650   1.049   6.293   6.527
 6569TIP3   OH219651   0.788   5.654   6.162
 6569TIP3    H119652   0.821   5.738   6.131
 6569TIP3    H219653   0.799   5.657   6.257
 6570TIP3   OH219654   3.509   1.166   1.309
 6570TIP3    H119655   3.582   1.106   1.320
 6570TIP3    H219656   3.546   1.252   1.326
 6571TIP3   OH219657   5.470   5.974   3.432
 6571TIP3    H119658   5.534   5.957   3.501
 6571TIP3    H219659   5.386   5.946   3.469
 6572TIP3   OH219660   4.307   0.930   0.988
 6572TIP3    H119661   4.299   0.969   1.075
 6572TIP3    H219662   4.327   1.004   0.930
 6573TIP3   OH219663   5.296   1.983   5.178
 6573TIP3    H119664   5.382   1.962   5.214
 6573TIP3    H219665   5.246   2.015   5.253
 6574TIP3   OH219666   0.698   2.664   4.220
 6574TIP3    H119667   0.763   2.617   4.169
 6574TIP3    H219668   0.614   2.625   4.194
 6575TIP3   OH219669   4.758   7.358   6.228
 6575TIP3    H119670   4.748   7.350   6.322
 6575TIP3    H219671   4.780   7.269   6.199
 6576TIP3   OH219672   2.606   3.525   2.602
 6576TIP3    H119673   2.636   3.494   2.687
 6576TIP3    H219674   2.524   3.477   2.587
 6577TIP3   OH219675   4.915   2.653   0.998
 6577TIP3    H119676   4.899   2.561   1.018
 6577TIP3    H219677   4.862   2.671   0.920
 6578TIP3   OH219678   3.489   0.805   0.488
 6578TIP3    H119679   3.448   0.851   0.415
 6578TIP3    H219680   3.418   0.758   0.531
 6579TIP3   OH219681   4.471   3.902   0.146
 6579TIP3    H119682   4.486   3.826   0.090
 6579TIP3    H219683   4.427   3.965   0.089
 6580TIP3   OH219684   3.466   3.055   1.916
 6580TIP3    H119685   3.554   3.092   1.912
 6580TIP3    H219686   3.408   3.131   1.913
 6581TIP3   OH219687   5.890   5.947   1.686
 6581TIP3    H119688   5.821   5.914   1.628
 6581TIP3    H219689   5.878   5.899   1.768
 6582TIP3   OH219690   6.350   1.442   1.562
 6582TIP3    H119691   6.431   1.393   1.575
 6582TIP3    H219692   6.376   1.521   1.515
 6583TIP3   OH219693   5.076   6.731   1.174
 6583TIP3    H119694   5.141   6.793   1.140
 6583TIP3    H219695   4.991   6.770   1.151
 6584TIP3   OH219696   8.214   7.682   6.238
 6584TIP3    H119697   8.182   7.604   6.193
 6584TIP3    H219698   8.150   7.697   6.308
 6585TIP3   OH219699   3.758   2.983   5.810
 6585TIP3    H119700   3.786   3.057   5.756
 6585TIP3    H219701   3.707   3.022   5.881
 6586TIP3   OH219702   3.164   1.821   0.743
 6586TIP3    H119703   3.095   1.782   0.797
 6586TIP3    H219704   3.241   1.767   0.760
 6587TIP3   OH219705   5.506   4.638   0.718
 6587TIP3    H119706   5.562   4.624   0.642
 6587TIP3    H219707   5.429   4.583   0.702
 6588TIP3   OH219708   2.862   2.595   2.210
 6588TIP3    H119709   2.917   2.520   2.235
 6588TIP3    H219710   2.916   2.672   2.230
 6589TIP3   OH219711   4.334   0.569   4.848
 6589TIP3    H119712   4.341   0.580   4.943
 6589TIP3    H219713   4.396   0.633   4.812
 6590TIP3   OH219714   2.219   3.407   5.964
 6590TIP3    H119715   2.134   3.395   6.009
 6590TIP3    H219716   2.245   3.318   5.940
 6591TIP3   OH219717   1.846   6.188   6.324
 6591TIP3    H119718   1.859   6.138   6.244
 6591TIP3    H219719   1.771   6.244   6.306
 6592TIP3   OH219720   6.032   1.421   1.484
 6592TIP3    H119721   6.021   1.326   1.487
 6592TIP3    H219722   6.117   1.436   1.527
 6593TIP3   OH219723   3.883   3.325   2.949
 6593TIP3    H119724   3.916   3.342   2.861
 6593TIP3    H219725   3.950   3.272   2.990
 6594TIP3   OH219726   0.773   1.950   1.534
 6594TIP3    H119727   0.735   1.874   1.490
 6594TIP3    H219728   0.806   2.005   1.462
 6595TIP3   OH219729   5.518   0.734   0.601
 6595TIP3    H119730   5.572   0.793   0.653
 6595TIP3    H219731   5.564   0.650   0.604
 6596TIP3   OH219732   7.871   1.289   5.573
 6596TIP3    H119733   7.892   1.243   5.492
 6596TIP3    H219734   7.956   1.297   5.618
 6597TIP3   OH219735   5.370   0.508   5.370
 6597TIP3    H119736   5.321   0.493   5.289
 6597TIP3    H219737   5.420   0.588   5.354
 6598TIP3   OH219738   0.163   0.602   3.315
 6598TIP3    H119739   0.238   0.660   3.321
 6598TIP3    H219740   0.193   0.528   3.262
 6599TIP3   OH219741   2.997   2.428   5.385
 6599TIP3    H119742   2.949   2.366   5.440
 6599TIP3    H219743   2.930   2.484   5.347
 6600TIP3   OH219744   3.395   6.396   1.481
 6600TIP3    H119745   3.310   6.438   1.468
 6600TIP3    H219746   3.392   6.363   1.570
 6601TIP3   OH219747   6.527   3.004   3.570
 6601TIP3    H119748   6.442   2.960   3.558
 6601TIP3    H219749   6.585   2.961   3.507
 6602TIP3   OH219750   3.216   1.803   3.561
 6602TIP3    H119751   3.158   1.863   3.608
 6602TIP3    H219752   3.288   1.859   3.531
 6603TIP3   OH219753   0.990   1.072   3.076
 6603TIP3    H119754   0.976   0.985   3.039
 6603TIP3    H219755   0.906   1.117   3.066
 6604TIP3   OH219756   6.363   2.781   5.684
 6604TIP3    H119757   6.345   2.834   5.762
 6604TIP3    H219758   6.302   2.815   5.618
 6605TIP3   OH219759   5.199   2.382   2.014
 6605TIP3    H119760   5.156   2.466   2.034
 6605TIP3    H219761   5.234   2.394   1.926
 6606TIP3   OH219762   0.969   4.219   2.252
 6606TIP3    H119763   0.919   4.186   2.327
 6606TIP3    H219764   1.015   4.296   2.286
 6607TIP3   OH219765   6.362   1.595   6.024
 6607TIP3    H119766   6.303   1.578   6.097
 6607TIP3    H219767   6.304   1.607   5.949
 6608TIP3   OH219768   4.089   0.130   1.930
 6608TIP3    H119769   4.142   0.210   1.923
 6608TIP3    H219770   4.146   0.061   1.896
 6609TIP3   OH219771   5.894   5.098   5.307
 6609TIP3    H119772   5.816   5.091   5.252
 6609TIP3    H219773   5.889   5.186   5.344
 6610TIP3   OH219774   8.289   7.558   0.763
 6610TIP3    H119775   8.240   7.607   0.829
 6610TIP3    H219776   8.251   7.585   0.680
 6611TIP3   OH219777   7.720   0.413   0.230
 6611TIP3    H119778   7.766   0.496   0.240
 6611TIP3    H219779   7.696   0.410   0.137
 6612TIP3   OH219780   7.646   5.693   1.823
 6612TIP3    H119781   7.568   5.675   1.876
 6612TIP3    H219782   7.613   5.700   1.734
 6613TIP3   OH219783   4.652   0.666   4.971
 6613TIP3    H119784   4.572   0.720   4.967
 6613TIP3    H219785   4.694   0.692   5.052
 6614TIP3   OH219786   0.952   0.829   2.691
 6614TIP3    H119787   0.973   0.912   2.648
 6614TIP3    H219788   0.941   0.767   2.619
 6615TIP3   OH219789   6.114   5.623   1.725
 6615TIP3    H119790   6.173   5.582   1.788
 6615TIP3    H219791   6.053   5.554   1.701
 6616TIP3   OH219792   5.792   1.433   6.474
 6616TIP3    H119793   5.814   1.352   6.428
 6616TIP3    H219794   5.864   1.492   6.455
 6617TIP3   OH219795   4.554   5.449   4.105
 6617TIP3    H119796   4.471   5.454   4.056
 6617TIP3    H219797   4.572   5.355   4.111
 6618TIP3   OH219798   6.423   1.786   4.859
 6618TIP3    H119799   6.440   1.808   4.767
 6618TIP3    H219800   6.334   1.753   4.860
 6619TIP3   OH219801   2.077   4.399   6.435
 6619TIP3    H119802   2.170   4.396   6.415
 6619TIP3    H219803   2.034   4.403   6.350
 6620TIP3   OH219804   5.870   3.651   2.340
 6620TIP3    H119805   5.951   3.685   2.377
 6620TIP3    H219806   5.899   3.582   2.280
 6621TIP3   OH219807   6.451   6.664   0.268
 6621TIP3    H119808   6.356   6.665   0.278
 6621TIP3    H219809   6.479   6.584   0.314
 6622TIP3   OH219810   1.042   7.276   5.314
 6622TIP3    H119811   0.960   7.318   5.338
 6622TIP3    H219812   1.069   7.230   5.394
 6623TIP3   OH219813   4.701   4.277   6.272
 6623TIP3    H119814   4.787   4.276   6.229
 6623TIP3    H219815   4.660   4.195   6.245
 6624TIP3   OH219816   3.462   3.706   3.575
 6624TIP3    H119817   3.457   3.800   3.554
 6624TIP3    H219818   3.553   3.682   3.555
 6625TIP3   OH219819   1.982   6.736   5.410
 6625TIP3    H119820   1.986   6.682   5.331
 6625TIP3    H219821   1.929   6.812   5.383
 6626TIP3   OH219822   4.243   2.465   2.584
 6626TIP3    H119823   4.232   2.477   2.678
 6626TIP3    H219824   4.164   2.417   2.557
 6627TIP3   OH219825   1.442   7.459   0.538
 6627TIP3    H119826   1.392   7.416   0.608
 6627TIP3    H219827   1.532   7.460   0.570
 6628TIP3   OH219828   5.970   2.446   2.328
 6628TIP3    H119829   5.921   2.496   2.394
 6628TIP3    H219830   5.981   2.360   2.368
 6629TIP3   OH219831   3.943   2.044   1.902
 6629TIP3    H119832   3.851   2.066   1.888
 6629TIP3    H219833   3.959   1.969   1.845
 6630TIP3   OH219834   5.253   7.551   0.134
 6630TIP3    H119835   5.194   7.605   0.082
 6630TIP3    H219836   5.327   7.609   0.153
 6631TIP3   OH219837   4.322   3.056   6.131
 6631TIP3    H119838   4.269   3.135   6.120
 6631TIP3    H219839   4.268   2.998   6.184
 6632TIP3   OH219840   7.598   7.071   1.418
 6632TIP3    H119841   7.555   7.012   1.356
 6632TIP3    H219842   7.588   7.158   1.379
 6633TIP3   OH219843   5.363   0.498   5.745
 6633TIP3    H119844   5.281   0.462   5.779
 6633TIP3    H219845   5.350   0.593   5.749
 6634TIP3   OH219846   5.563   3.166   5.514
 6634TIP3    H119847   5.587   3.076   5.537
 6634TIP3    H219848   5.502   3.156   5.441
 6635TIP3   OH219849   2.097   1.127   1.021
 6635TIP3    H119850   2.028   1.175   1.068
 6635TIP3    H219851   2.170   1.124   1.083
 6636TIP3   OH219852   7.603   5.529   0.236
 6636TIP3    H119853   7.673   5.486   0.187
 6636TIP3    H219854   7.568   5.595   0.176
 6637TIP3   OH219855   2.847   5.148   1.825
 6637TIP3    H119856   2.900   5.200   1.885
 6637TIP3    H219857   2.855   5.058   1.858
 6638TIP3   OH219858   5.139   1.094   1.119
 6638TIP3    H119859   5.227   1.068   1.091
 6638TIP3    H219860   5.089   1.013   1.120
 6639TIP3   OH219861   5.247   5.477   0.574
 6639TIP3    H119862   5.273   5.522   0.494
 6639TIP3    H219863   5.329   5.469   0.624
 6640TIP3   OH219864   4.725   0.683   2.010
 6640TIP3    H119865   4.702   0.771   1.981
 6640TIP3    H219866   4.730   0.632   1.929
 6641TIP3   OH219867   0.400   7.207   6.548
 6641TIP3    H119868   0.449   7.129   6.574
 6641TIP3    H219869   0.467   7.274   6.537
 6642TIP3   OH219870   5.343   1.335   1.444
 6642TIP3    H119871   5.436   1.318   1.426
 6642TIP3    H219872   5.343   1.417   1.493
 6643TIP3   OH219873   5.745   7.725   0.723
 6643TIP3    H119874   5.742   7.807   0.772
 6643TIP3    H219875   5.809   7.671   0.770
 6644TIP3   OH219876   5.534   0.470   3.802
 6644TIP3    H119877   5.626   0.446   3.810
 6644TIP3    H219878   5.503   0.477   3.892
 6645TIP3   OH219879   2.488   0.785   2.195
 6645TIP3    H119880   2.402   0.825   2.204
 6645TIP3    H219881   2.528   0.831   2.121
 6646TIP3   OH219882   4.293   7.522   4.937
 6646TIP3    H119883   4.213   7.491   4.980
 6646TIP3    H219884   4.346   7.556   5.009
 6647TIP3   OH219885   3.991   1.203   3.291
 6647TIP3    H119886   4.047   1.216   3.214
 6647TIP3    H219887   4.048   1.225   3.365
 6648TIP3   OH219888   0.896   1.793   5.500
 6648TIP3    H119889   0.885   1.732   5.572
 6648TIP3    H219890   0.839   1.867   5.521
 6649TIP3   OH219891   5.188   6.550   2.641
 6649TIP3    H119892   5.198   6.539   2.735
 6649TIP3    H219893   5.203   6.463   2.605
 6650TIP3   OH219894   7.976   5.057   5.843
 6650TIP3    H119895   7.977   5.020   5.755
 6650TIP3    H219896   7.951   5.149   5.830
 6651TIP3   OH219897   2.656   7.246   2.050
 6651TIP3    H119898   2.572   7.292   2.043
 6651TIP3    H219899   2.686   7.264   2.139
 6652TIP3   OH219900   6.056   2.159   1.367
 6652TIP3    H119901   6.140   2.112   1.363
 6652TIP3    H219902   6.060   2.222   1.295
 6653TIP3   OH219903   0.153   3.443   3.348
 6653TIP3    H119904   0.150   3.384   3.273
 6653TIP3    H219905   0.087   3.510   3.329
 6654TIP3   OH219906   2.368   4.475   1.358
 6654TIP3    H119907   2.448   4.479   1.307
 6654TIP3    H219908   2.389   4.521   1.439
 6655TIP3   OH219909   4.573   5.555   0.613
 6655TIP3    H119910   4.582   5.566   0.519
 6655TIP3    H219911   4.663   5.553   0.646
 6656TIP3   OH219912   2.034   5.067   5.218
 6656TIP3    H119913   1.948   5.049   5.180
 6656TIP3    H219914   2.033   5.022   5.303
 6657TIP3   OH219915   3.215   1.049   2.560
 6657TIP3    H119916   3.235   0.961   2.530
 6657TIP3    H219917   3.198   1.098   2.480
 6658TIP3   OH219918   4.845   3.305   6.424
 6658TIP3    H119919   4.916   3.370   6.423
 6658TIP3    H219920   4.887   3.224   6.454
 6659TIP3   OH219921   1.868   1.254   6.428
 6659TIP3    H119922   1.776   1.235   6.411
 6659TIP3    H219923   1.869   1.347   6.450
 6660TIP3   OH219924   3.461   7.262   0.023
 6660TIP3    H119925   3.394   7.194   0.029
 6660TIP3    H219926   3.539   7.217  -0.011
 6661TIP3   OH219927   2.531   4.157   0.712
 6661TIP3    H119928   2.575   4.196   0.637
 6661TIP3    H219929   2.546   4.219   0.783
 6662TIP3   OH219930   3.069   4.680   1.522
 6662TIP3    H119931   3.152   4.698   1.566
 6662TIP3    H219932   3.094   4.642   1.438
 6663TIP3   OH219933   2.718   1.580   0.119
 6663TIP3    H119934   2.752   1.660   0.158
 6663TIP3    H219935   2.787   1.515   0.134
 6664TIP3   OH219936   1.121   1.280   5.699
 6664TIP3    H119937   1.046   1.304   5.645
 6664TIP3    H219938   1.126   1.185   5.691
 6665TIP3   OH219939   7.557   5.017   5.039
 6665TIP3    H119940   7.586   4.974   4.958
 6665TIP3    H219941   7.628   5.078   5.060
 6666TIP3   OH219942   2.845   5.356   0.050
 6666TIP3    H119943   2.819   5.299   0.122
 6666TIP3    H219944   2.791   5.326  -0.024
 6667TIP3   OH219945   0.392   5.923   2.842
 6667TIP3    H119946   0.320   5.973   2.804
 6667TIP3    H219947   0.352   5.877   2.916
 6668TIP3   OH219948   4.292   7.578   1.726
 6668TIP3    H119949   4.213   7.525   1.738
 6668TIP3    H219950   4.335   7.576   1.812
 6669TIP3   OH219951   0.923   1.450   5.277
 6669TIP3    H119952   0.974   1.510   5.331
 6669TIP3    H219953   0.858   1.505   5.233
 6670TIP3   OH219954   3.606   0.613   5.228
 6670TIP3    H119955   3.567   0.623   5.141
 6670TIP3    H219956   3.585   0.695   5.274
 6671TIP3   OH219957   7.163   1.970   1.662
 6671TIP3    H119958   7.131   1.923   1.585
 6671TIP3    H219959   7.250   1.999   1.637
 6672TIP3   OH219960   0.129   4.392   1.394
 6672TIP3    H119961   0.167   4.384   1.482
 6672TIP3    H219962   0.163   4.475   1.361
 6673TIP3   OH219963   4.961   3.433   5.918
 6673TIP3    H119964   5.013   3.461   5.994
 6673TIP3    H219965   5.025   3.390   5.861
 6674TIP3   OH219966   3.068   6.080   1.362
 6674TIP3    H119967   3.141   6.030   1.396
 6674TIP3    H219968   2.997   6.016   1.352
 6675TIP3   OH219969   4.546   5.655   2.721
 6675TIP3    H119970   4.532   5.630   2.629
 6675TIP3    H219971   4.568   5.748   2.717
 6676TIP3   OH219972   1.973   7.009   0.842
 6676TIP3    H119973   1.891   6.962   0.855
 6676TIP3    H219974   2.022   6.954   0.781
 6677TIP3   OH219975   4.421   1.138   0.613
 6677TIP3    H119976   4.330   1.153   0.587
 6677TIP3    H219977   4.470   1.207   0.568
 6678TIP3   OH219978   5.765   7.094   4.665
 6678TIP3    H119979   5.715   7.174   4.649
 6678TIP3    H219980   5.788   7.063   4.577
 6679TIP3   OH219981   7.224   2.837   3.669
 6679TIP3    H119982   7.285   2.864   3.600
 6679TIP3    H219983   7.280   2.806   3.740
 6680TIP3   OH219984   6.083   2.201   5.635
 6680TIP3    H119985   6.135   2.151   5.698
 6680TIP3    H219986   6.056   2.279   5.684
 6681TIP3   OH219987   5.391   3.430   3.224
 6681TIP3    H119988   5.305   3.458   3.193
 6681TIP3    H219989   5.381   3.420   3.319
 6682TIP3   OH219990   7.493   2.480   4.081
 6682TIP3    H119991   7.564   2.471   4.144
 6682TIP3    H219992   7.528   2.443   4.000
 6683TIP3   OH219993   7.681   3.144   3.743
 6683TIP3    H119994   7.614   3.212   3.749
 6683TIP3    H219995   7.743   3.177   3.678
 6684TIP3   OH219996   1.938   2.132   0.566
 6684TIP3    H119997   1.904   2.147   0.654
 6684TIP3    H219998   1.861   2.115   0.512
 6685TIP3   OH219999   2.349   3.820   0.600
 6685TIP3    H120000   2.381   3.733   0.623
 6685TIP3    H220001   2.285   3.840   0.668
 6686TIP3   OH220002   7.384   6.624   1.738
 6686TIP3    H120003   7.369   6.531   1.721
 6686TIP3    H220004   7.329   6.644   1.815
 6687TIP3   OH220005   6.312   4.464   2.125
 6687TIP3    H120006   6.387   4.515   2.156
 6687TIP3    H220007   6.247   4.530   2.100
 6688TIP3   OH220008   2.757   1.960   0.897
 6688TIP3    H120009   2.670   1.962   0.935
 6688TIP3    H220010   2.815   1.934   0.969
 6689TIP3   OH220011   1.546   4.825   0.193
 6689TIP3    H120012   1.451   4.824   0.180
 6689TIP3    H220013   1.558   4.862   0.280
 6690TIP3   OH220014   5.496   6.875   0.723
 6690TIP3    H120015   5.452   6.791   0.729
 6690TIP3    H220016   5.435   6.930   0.674
 6691TIP3   OH220017   0.989   3.781   2.206
 6691TIP3    H120018   1.057   3.714   2.209
 6691TIP3    H220019   1.027   3.850   2.152
 6692TIP3   OH220020   2.448   6.862   3.190
 6692TIP3    H120021   2.381   6.795   3.203
 6692TIP3    H220022   2.507   6.826   3.124
 6693TIP3   OH220023   4.630   4.147   4.396
 6693TIP3    H120024   4.720   4.167   4.368
 6693TIP3    H220025   4.631   4.054   4.416
 6694TIP3   OH220026   0.837   3.164   0.900
 6694TIP3    H120027   0.879   3.100   0.958
 6694TIP3    H220028   0.743   3.142   0.906
 6695TIP3   OH220029   2.815   2.260   4.099
 6695TIP3    H120030   2.799   2.231   4.188
 6695TIP3    H220031   2.872   2.337   4.108
 6696TIP3   OH220032   2.734   6.329   6.183
 6696TIP3    H120033   2.705   6.420   6.178
 6696TIP3    H220034   2.815   6.327   6.131
 6697TIP3   OH220035   1.461   0.820   3.982
 6697TIP3    H120036   1.395   0.881   3.949
 6697TIP3    H220037   1.532   0.826   3.919
 6698TIP3   OH220038   7.886   2.431   0.068
 6698TIP3    H120039   7.936   2.366   0.119
 6698TIP3    H220040   7.883   2.394  -0.020
 6699TIP3   OH220041   1.836   5.139   5.572
 6699TIP3    H120042   1.888   5.076   5.522
 6699TIP3    H220043   1.794   5.194   5.505
 6700TIP3   OH220044   2.820   7.309   5.285
 6700TIP3    H120045   2.817   7.291   5.379
 6700TIP3    H220046   2.904   7.353   5.272
 6701TIP3   OH220047   0.924   3.643   4.539
 6701TIP3    H120048   0.885   3.721   4.579
 6701TIP3    H220049   1.018   3.661   4.538
 6702TIP3   OH220050   5.664   4.588   5.519
 6702TIP3    H120051   5.591   4.532   5.546
 6702TIP3    H220052   5.725   4.584   5.593
 6703TIP3   OH220053   5.312   7.827   1.225
 6703TIP3    H120054   5.353   7.767   1.163
 6703TIP3    H220055   5.266   7.770   1.287
 6704TIP3   OH220056   3.830   3.203   1.232
 6704TIP3    H120057   3.816   3.113   1.203
 6704TIP3    H220058   3.918   3.225   1.201
 6705TIP3   OH220059   5.626   5.700   4.576
 6705TIP3    H120060   5.658   5.743   4.655
 6705TIP3    H220061   5.571   5.629   4.608
 6706TIP3   OH220062   0.990   2.660   3.011
 6706TIP3    H120063   1.004   2.743   2.966
 6706TIP3    H220064   0.936   2.609   2.951
 6707TIP3   OH220065   2.812   1.025   0.340
 6707TIP3    H120066   2.862   1.031   0.259
 6707TIP3    H220067   2.879   1.011   0.408
 6708TIP3   OH220068   4.643   3.392   0.068
 6708TIP3    H120069   4.726   3.420   0.027
 6708TIP3    H220070   4.631   3.453   0.141
 6709TIP3   OH220071   1.228   0.530   6.068
 6709TIP3    H120072   1.311   0.483   6.055
 6709TIP3    H220073   1.186   0.528   5.982
 6710TIP3   OH220074   6.568   0.632   2.966
 6710TIP3    H120075   6.522   0.639   3.049
 6710TIP3    H220076   6.510   0.580   2.910
 6711TIP3   OH220077   5.950   0.236   3.604
 6711TIP3    H120078   5.965   0.142   3.593
 6711TIP3    H220079   6.020   0.265   3.662
 6712TIP3   OH220080   2.771   2.265   2.242
 6712TIP3    H120081   2.748   2.228   2.157
 6712TIP3    H220082   2.833   2.203   2.280
 6713TIP3   OH220083   4.475   3.681   0.606
 6713TIP3    H120084   4.491   3.744   0.536
 6713TIP3    H220085   4.445   3.733   0.680
 6714TIP3   OH220086   0.949   2.952   0.312
 6714TIP3    H120087   0.948   2.858   0.294
 6714TIP3    H220088   0.968   2.959   0.405
 6715TIP3   OH220089   6.824   6.391   0.307
 6715TIP3    H120090   6.829   6.296   0.292
 6715TIP3    H220091   6.891   6.409   0.372
 6716TIP3   OH220092   6.375   2.749   3.751
 6716TIP3    H120093   6.357   2.773   3.660
 6716TIP3    H220094   6.415   2.827   3.789
 6717TIP3   OH220095   7.643   1.408   4.800
 6717TIP3    H120096   7.605   1.332   4.756
 6717TIP3    H220097   7.583   1.426   4.873
 6718TIP3   OH220098   1.259   3.471   5.294
 6718TIP3    H120099   1.281   3.550   5.344
 6718TIP3    H220100   1.318   3.472   5.219
 6719TIP3   OH220101   0.338   0.511   1.900
 6719TIP3    H120102   0.321   0.517   1.806
 6719TIP3    H220103   0.294   0.431   1.928
 6720TIP3   OH220104   6.512   2.100   6.558
 6720TIP3    H120105   6.467   2.032   6.608
 6720TIP3    H220106   6.510   2.069   6.468
 6721TIP3   OH220107   1.849   0.679   5.272
 6721TIP3    H120108   1.769   0.637   5.241
 6721TIP3    H220109   1.919   0.617   5.252
 6722TIP3   OH220110   5.422   3.170   5.258
 6722TIP3    H120111   5.344   3.134   5.302
 6722TIP3    H220112   5.389   3.199   5.173
 6723TIP3   OH220113   4.375   4.931   2.590
 6723TIP3    H120114   4.348   4.958   2.502
 6723TIP3    H220115   4.340   4.843   2.600
 6724TIP3   OH220116   2.091   6.836   6.374
 6724TIP3    H120117   2.057   6.787   6.298
 6724TIP3    H220118   2.099   6.770   6.443
 6725TIP3   OH220119   2.826   5.615   1.228
 6725TIP3    H120120   2.865   5.679   1.168
 6725TIP3    H220121   2.887   5.541   1.228
 6726TIP3   OH220122   8.085   6.983   6.241
 6726TIP3    H120123   8.033   6.910   6.207
 6726TIP3    H220124   8.161   6.941   6.281
 6727TIP3   OH220125   2.697   0.570   5.264
 6727TIP3    H120126   2.721   0.651   5.219
 6727TIP3    H220127   2.780   0.533   5.293
 6728TIP3   OH220128   6.626   0.825   5.079
 6728TIP3    H120129   6.640   0.730   5.078
 6728TIP3    H220130   6.590   0.845   4.993
 6729TIP3   OH220131   7.026   4.257   3.592
 6729TIP3    H120132   6.932   4.251   3.576
 6729TIP3    H220133   7.043   4.350   3.606
 6730TIP3   OH220134   4.092   5.012   5.748
 6730TIP3    H120135   4.122   5.004   5.838
 6730TIP3    H220136   4.159   5.063   5.704
 6731TIP3   OH220137   0.659   4.551   0.112
 6731TIP3    H120138   0.724   4.497   0.066
 6731TIP3    H220139   0.615   4.600   0.042
 6732TIP3   OH220140   4.685   1.545   6.403
 6732TIP3    H120141   4.609   1.497   6.438
 6732TIP3    H220142   4.729   1.579   6.480
 6733TIP3   OH220143   3.891   6.371   3.672
 6733TIP3    H120144   3.874   6.306   3.740
 6733TIP3    H220145   3.923   6.448   3.719
 6734TIP3   OH220146   2.516   2.452   1.564
 6734TIP3    H120147   2.478   2.369   1.594
 6734TIP3    H220148   2.592   2.465   1.620
 6735TIP3   OH220149   5.579   5.226   1.844
 6735TIP3    H120150   5.609   5.292   1.906
 6735TIP3    H220151   5.654   5.168   1.832
 6736TIP3   OH220152   0.773   5.268   6.316
 6736TIP3    H120153   0.773   5.207   6.389
 6736TIP3    H220154   0.687   5.310   6.320
 6737TIP3   OH220155   0.378   3.712   3.274
 6737TIP3    H120156   0.404   3.620   3.284
 6737TIP3    H220157   0.375   3.746   3.363
 6738TIP3   OH220158   6.489   5.783   4.872
 6738TIP3    H120159   6.515   5.813   4.785
 6738TIP3    H220160   6.468   5.691   4.860
 6739TIP3   OH220161   1.750   3.139   3.248
 6739TIP3    H120162   1.778   3.189   3.172
 6739TIP3    H220163   1.722   3.205   3.311
 6740TIP3   OH220164   4.370   2.288   5.181
 6740TIP3    H120165   4.368   2.281   5.276
 6740TIP3    H220166   4.367   2.382   5.164
 6741TIP3   OH220167   0.449   2.528   3.052
 6741TIP3    H120168   0.462   2.623   3.060
 6741TIP3    H220169   0.355   2.515   3.065
 6742TIP3   OH220170   2.812   0.847   3.978
 6742TIP3    H120171   2.890   0.876   3.931
 6742TIP3    H220172   2.744   0.909   3.951
 6743TIP3   OH220173   1.253   1.618   6.473
 6743TIP3    H120174   1.182   1.553   6.476
 6743TIP3    H220175   1.322   1.581   6.528
 6744TIP3   OH220176   0.602   0.985   1.876
 6744TIP3    H120177   0.515   0.978   1.916
 6744TIP3    H220178   0.659   1.016   1.946
 6745TIP3   OH220179   3.412   6.869   0.299
 6745TIP3    H120180   3.366   6.842   0.219
 6745TIP3    H220181   3.343   6.873   0.365
 6746TIP3   OH220182   3.869   1.428   2.239
 6746TIP3    H120183   3.802   1.393   2.180
 6746TIP3    H220184   3.841   1.399   2.326
 6747TIP3   OH220185   4.504   5.160   4.970
 6747TIP3    H120186   4.530   5.233   5.026
 6747TIP3    H220187   4.412   5.145   4.992
 6748TIP3   OH220188   6.398   1.933   5.830
 6748TIP3    H120189   6.377   1.849   5.789
 6748TIP3    H220190   6.415   1.992   5.757
 6749TIP3   OH220191   5.193   2.829   3.892
 6749TIP3    H120192   5.259   2.843   3.960
 6749TIP3    H220193   5.112   2.814   3.941
 6750TIP3   OH220194   5.813   2.625   3.501
 6750TIP3    H120195   5.751   2.675   3.554
 6750TIP3    H220196   5.864   2.692   3.455
 6751TIP3   OH220197   4.497   7.458   2.511
 6751TIP3    H120198   4.468   7.366   2.509
 6751TIP3    H220199   4.521   7.473   2.602
 6752TIP3   OH220200   4.949   1.858   0.311
 6752TIP3    H120201   4.959   1.826   0.222
 6752TIP3    H220202   4.897   1.790   0.355
 6753TIP3   OH220203   1.920   4.340   0.020
 6753TIP3    H120204   1.984   4.341  -0.050
 6753TIP3    H220205   1.943   4.263   0.072
 6754TIP3   OH220206   4.298   4.617   5.285
 6754TIP3    H120207   4.269   4.541   5.235
 6754TIP3    H220208   4.228   4.632   5.348
 6755TIP3   OH220209   3.035   4.840   6.379
 6755TIP3    H120210   3.098   4.799   6.437
 6755TIP3    H220211   3.010   4.921   6.424
 6756TIP3   OH220212   7.020   2.530   2.544
 6756TIP3    H120213   7.012   2.600   2.480
 6756TIP3    H220214   6.958   2.463   2.515
 6757TIP3   OH220215   6.684   6.423   1.233
 6757TIP3    H120216   6.727   6.478   1.298
 6757TIP3    H220217   6.598   6.403   1.270
 6758TIP3   OH220218   4.281   0.109   4.052
 6758TIP3    H120219   4.292   0.117   4.146
 6758TIP3    H220220   4.273   0.199   4.020
 6759TIP3   OH220221   1.798   5.522   6.516
 6759TIP3    H120222   1.850   5.565   6.449
 6759TIP3    H220223   1.862   5.491   6.580
 6760TIP3   OH220224   3.912   3.553   3.673
 6760TIP3    H120225   3.857   3.480   3.701
 6760TIP3    H220226   3.854   3.610   3.622
 6761TIP3   OH220227   3.401   4.039   4.176
 6761TIP3    H120228   3.403   4.056   4.082
 6761TIP3    H220229   3.492   4.048   4.204
 6762TIP3   OH220230   7.194   0.410   6.310
 6762TIP3    H120231   7.276   0.428   6.264
 6762TIP3    H220232   7.215   0.422   6.403
 6763TIP3   OH220233   4.177   0.058   6.340
 6763TIP3    H120234   4.191   0.098   6.254
 6763TIP3    H220235   4.212  -0.031   6.331
 6764TIP3   OH220236   2.372   0.107   4.131
 6764TIP3    H120237   2.384   0.015   4.105
 6764TIP3    H220238   2.453   0.150   4.103
 6765TIP3   OH220239   0.729   2.718   1.588
 6765TIP3    H120240   0.809   2.757   1.554
 6765TIP3    H220241   0.702   2.776   1.660
 6766TIP3   OH220242   0.916   0.233   1.738
 6766TIP3    H120243   0.867   0.243   1.820
 6766TIP3    H220244   0.876   0.295   1.678
 6767TIP3   OH220245   8.056   4.837   1.947
 6767TIP3    H120246   8.020   4.758   1.987
 6767TIP3    H220247   8.098   4.884   2.019
 6768TIP3   OH220248   5.105   7.317   6.575
 6768TIP3    H120249   5.023   7.363   6.590
 6768TIP3    H220250   5.134   7.290   6.662
 6769TIP3   OH220251   7.426   6.025   0.235
 6769TIP3    H120252   7.466   6.035   0.322
 6769TIP3    H220253   7.362   6.096   0.231
 6770TIP3   OH220254   1.186   3.623   2.487
 6770TIP3    H120255   1.160   3.661   2.571
 6770TIP3    H220256   1.144   3.538   2.484
 6771TIP3   OH220257   7.046   4.106   0.125
 6771TIP3    H120258   7.050   4.056   0.043
 6771TIP3    H220259   7.012   4.044   0.189
 6772TIP3   OH220260   0.218   7.707   0.802
 6772TIP3    H120261   0.275   7.685   0.728
 6772TIP3    H220262   0.133   7.669   0.780
 6773TIP3   OH220263   5.099   2.599   4.433
 6773TIP3    H120264   5.036   2.659   4.393
 6773TIP3    H220265   5.050   2.519   4.450
 6774TIP3   OH220266   1.547   3.714   1.735
 6774TIP3    H120267   1.496   3.697   1.656
 6774TIP3    H220268   1.614   3.776   1.706
 6775TIP3   OH220269   3.468   5.814   3.839
 6775TIP3    H120270   3.467   5.869   3.917
 6775TIP3    H220271   3.555   5.827   3.802
 6776TIP3   OH220272   3.369   3.485   1.030
 6776TIP3    H120273   3.434   3.546   0.995
 6776TIP3    H220274   3.328   3.448   0.952
 6777TIP3   OH220275   6.915   5.294   4.363
 6777TIP3    H120276   6.958   5.208   4.364
 6777TIP3    H220277   6.985   5.355   4.339
 6778TIP3   OH220278   6.256   6.634   4.519
 6778TIP3    H120279   6.264   6.725   4.491
 6778TIP3    H220280   6.220   6.640   4.608
 6779TIP3   OH220281   1.418   0.748   0.883
 6779TIP3    H120282   1.447   0.834   0.855
 6779TIP3    H220283   1.333   0.737   0.840
 6780TIP3   OH220284   0.663   0.672   2.752
 6780TIP3    H120285   0.590   0.733   2.766
 6780TIP3    H220286   0.741   0.726   2.758
 6781TIP3   OH220287   3.827   6.164   2.265
 6781TIP3    H120288   3.756   6.101   2.273
 6781TIP3    H220289   3.905   6.111   2.251
 6782TIP3   OH220290   4.572   7.285   2.883
 6782TIP3    H120291   4.625   7.353   2.925
 6782TIP3    H220292   4.633   7.241   2.824
 6783TIP3   OH220293   3.909   1.805   2.927
 6783TIP3    H120294   3.958   1.790   3.007
 6783TIP3    H220295   3.821   1.771   2.946
 6784TIP3   OH220296   7.585   7.351   4.862
 6784TIP3    H120297   7.550   7.299   4.935
 6784TIP3    H220298   7.652   7.406   4.902
 6785TIP3   OH220299   5.731   1.882   1.446
 6785TIP3    H120300   5.736   1.791   1.475
 6785TIP3    H220301   5.687   1.928   1.517
 6786TIP3   OH220302   2.716   4.334   5.158
 6786TIP3    H120303   2.779   4.354   5.228
 6786TIP3    H220304   2.770   4.317   5.081
 6787TIP3   OH220305   8.031   5.004   4.739
 6787TIP3    H120306   7.972   4.933   4.764
 6787TIP3    H220307   8.002   5.030   4.651
 6788TIP3   OH220308   6.782   5.842   4.275
 6788TIP3    H120309   6.856   5.782   4.288
 6788TIP3    H220310   6.723   5.794   4.217
 6789TIP3   OH220311   4.053   4.713   1.622
 6789TIP3    H120312   4.124   4.654   1.597
 6789TIP3    H220313   4.061   4.722   1.716
 6790TIP3   OH220314   8.088   3.681   4.804
 6790TIP3    H120315   8.027   3.621   4.760
 6790TIP3    H220316   8.075   3.765   4.760
 6791TIP3   OH220317   6.072   5.621   5.639
 6791TIP3    H120318   6.111   5.560   5.576
 6791TIP3    H220319   6.139   5.688   5.652
 6792TIP3   OH220320   1.187   1.488   5.349
 6792TIP3    H120321   1.210   1.428   5.278
 6792TIP3    H220322   1.228   1.450   5.426
 6793TIP3   OH220323   3.054   4.911   3.092
 6793TIP3    H120324   3.081   4.937   3.004
 6793TIP3    H220325   3.100   4.971   3.150
 6794TIP3   OH220326   6.053   1.107   0.924
 6794TIP3    H120327   6.056   1.110   1.020
 6794TIP3    H220328   6.135   1.147   0.896
 6795TIP3   OH220329   0.271   3.773   0.292
 6795TIP3    H120330   0.215   3.847   0.312
 6795TIP3    H220331   0.213   3.709   0.250
 6796TIP3   OH220332   8.190   4.232   1.348
 6796TIP3    H120333   8.262   4.292   1.366
 6796TIP3    H220334   8.229   4.165   1.291
 6797TIP3   OH220335   3.531   2.635   5.130
 6797TIP3    H120336   3.451   2.659   5.083
 6797TIP3    H220337   3.521   2.676   5.216
 6798TIP3   OH220338   2.485   1.696   1.552
 6798TIP3    H120339   2.480   1.736   1.465
 6798TIP3    H220340   2.396   1.701   1.587
 6799TIP3   OH220341   4.228   5.537   4.844
 6799TIP3    H120342   4.190   5.621   4.873
 6799TIP3    H220343   4.154   5.488   4.809
 6800TIP3   OH220344   0.262   2.521   5.217
 6800TIP3    H120345   0.179   2.567   5.231
 6800TIP3    H220346   0.238   2.445   5.163
 6801TIP3   OH220347   4.250   7.122   2.296
 6801TIP3    H120348   4.249   7.029   2.275
 6801TIP3    H220349   4.169   7.137   2.345
 6802TIP3   OH220350   2.000   5.336   5.689
 6802TIP3    H120351   1.961   5.251   5.707
 6802TIP3    H220352   1.997   5.343   5.593
 6803TIP3   OH220353   6.962   2.312   6.557
 6803TIP3    H120354   6.998   2.369   6.625
 6803TIP3    H220355   7.038   2.285   6.505
 6804TIP3   OH220356   6.834   6.442   6.293
 6804TIP3    H120357   6.806   6.384   6.222
 6804TIP3    H220358   6.804   6.529   6.266
 6805TIP3   OH220359   6.282   7.339   5.128
 6805TIP3    H120360   6.267   7.256   5.083
 6805TIP3    H220361   6.272   7.406   5.060
 6806TIP3   OH220362   6.831   3.700   0.366
 6806TIP3    H120363   6.847   3.629   0.304
 6806TIP3    H220364   6.740   3.725   0.352
 6807TIP3   OH220365   0.040   4.794   4.511
 6807TIP3    H120366   0.032   4.772   4.604
 6807TIP3    H220367  -0.048   4.786   4.477
 6808TIP3   OH220368   3.177   6.515   4.381
 6808TIP3    H120369   3.183   6.491   4.289
 6808TIP3    H220370   3.121   6.593   4.382
 6809TIP3   OH220371   8.080   1.797   0.803
 6809TIP3    H120372   8.044   1.871   0.755
 6809TIP3    H220373   8.111   1.737   0.736
 6810TIP3   OH220374   1.652   2.251   4.297
 6810TIP3    H120375   1.640   2.322   4.234
 6810TIP3    H220376   1.618   2.174   4.252
 6811TIP3   OH220377   5.647   1.771   6.615
 6811TIP3    H120378   5.720   1.741   6.561
 6811TIP3    H220379   5.642   1.708   6.686
 6812TIP3   OH220380   7.464   0.238   3.052
 6812TIP3    H120381   7.553   0.256   3.082
 6812TIP3    H220382   7.449   0.302   2.983
 6813TIP3   OH220383   3.003   0.772   0.154
 6813TIP3    H120384   3.049   0.693   0.124
 6813TIP3    H220385   2.910   0.753   0.136
 6814TIP3   OH220386   1.288   0.432   1.623
 6814TIP3    H120387   1.361   0.434   1.562
 6814TIP3    H220388   1.235   0.358   1.596
 6815TIP3   OH220389   0.487   1.781   1.601
 6815TIP3    H120390   0.506   1.786   1.695
 6815TIP3    H220391   0.448   1.695   1.589
 6816TIP3   OH220392   0.758   3.114   3.020
 6816TIP3    H120393   0.850   3.133   3.039
 6816TIP3    H220394   0.734   3.047   3.084
 6817TIP3   OH220395   0.584   4.059   3.787
 6817TIP3    H120396   0.575   4.089   3.877
 6817TIP3    H220397   0.535   4.123   3.735
 6818TIP3   OH220398   7.737   4.551   1.317
 6818TIP3    H120399   7.663   4.490   1.308
 6818TIP3    H220400   7.766   4.539   1.407
 6819TIP3   OH220401   5.775   4.118   0.750
 6819TIP3    H120402   5.711   4.088   0.814
 6819TIP3    H220403   5.855   4.071   0.773
 6820TIP3   OH220404   7.774   5.867   1.523
 6820TIP3    H120405   7.855   5.895   1.566
 6820TIP3    H220406   7.803   5.807   1.455
 6821TIP3   OH220407   1.120   4.898   5.512
 6821TIP3    H120408   1.121   4.908   5.607
 6821TIP3    H220409   1.141   4.805   5.498
 6822TIP3   OH220410   4.161   6.331   1.662
 6822TIP3    H120411   4.257   6.326   1.662
 6822TIP3    H220412   4.139   6.376   1.743
 6823TIP3   OH220413   4.044   4.627   3.467
 6823TIP3    H120414   4.010   4.548   3.424
 6823TIP3    H220415   3.969   4.687   3.467
 6824TIP3   OH220416   5.058   6.748   6.253
 6824TIP3    H120417   5.049   6.832   6.207
 6824TIP3    H220418   5.064   6.683   6.184
 6825TIP3   OH220419   3.474   7.832   6.074
 6825TIP3    H120420   3.486   7.739   6.091
 6825TIP3    H220421   3.384   7.840   6.044
 6826TIP3   OH220422   1.107   2.341   0.624
 6826TIP3    H120423   1.087   2.427   0.586
 6826TIP3    H220424   1.028   2.316   0.672
 6827TIP3   OH220425   8.074   5.524   1.912
 6827TIP3    H120426   8.066   5.444   1.861
 6827TIP3    H220427   8.082   5.495   2.002
 6828TIP3   OH220428   7.437   3.859   6.523
 6828TIP3    H120429   7.467   3.872   6.433
 6828TIP3    H220430   7.459   3.768   6.543
 6829TIP3   OH220431   8.243   2.936   1.452
 6829TIP3    H120432   8.229   2.941   1.547
 6829TIP3    H220433   8.275   2.847   1.436
 6830TIP3   OH220434   1.583   0.297   3.214
 6830TIP3    H120435   1.491   0.318   3.230
 6830TIP3    H220436   1.594   0.311   3.120
 6831TIP3   OH220437   3.330   6.166   4.102
 6831TIP3    H120438   3.395   6.100   4.077
 6831TIP3    H220439   3.246   6.127   4.077
 6832TIP3   OH220440   4.348   6.875   1.889
 6832TIP3    H120441   4.372   6.803   1.947
 6832TIP3    H220442   4.262   6.850   1.854
 6833TIP3   OH220443   6.046   3.708   0.696
 6833TIP3    H120444   6.093   3.633   0.731
 6833TIP3    H220445   6.098   3.736   0.621
 6834TIP3   OH220446   7.046   5.548   6.336
 6834TIP3    H120447   6.973   5.486   6.346
 6834TIP3    H220448   7.007   5.621   6.287
 6835TIP3   OH220449   5.248   1.034   4.786
 6835TIP3    H120450   5.277   1.126   4.789
 6835TIP3    H220451   5.255   1.010   4.694
 6836TIP3   OH220452   2.574   5.582   1.883
 6836TIP3    H120453   2.643   5.542   1.830
 6836TIP3    H220454   2.615   5.659   1.921
 6837TIP3   OH220455   1.331   7.111   2.554
 6837TIP3    H120456   1.324   7.179   2.486
 6837TIP3    H220457   1.404   7.141   2.609
 6838TIP3   OH220458   0.163   4.364   2.825
 6838TIP3    H120459   0.224   4.308   2.874
 6838TIP3    H220460   0.078   4.320   2.834
 6839TIP3   OH220461   1.444   1.445   3.944
 6839TIP3    H120462   1.448   1.381   4.016
 6839TIP3    H220463   1.350   1.453   3.926
 6840TIP3   OH220464   5.547   0.470   0.535
 6840TIP3    H120465   5.551   0.440   0.444
 6840TIP3    H220466   5.629   0.440   0.574
 6841TIP3   OH220467   0.743   4.401   4.919
 6841TIP3    H120468   0.761   4.493   4.903
 6841TIP3    H220469   0.665   4.382   4.867
 6842TIP3   OH220470   1.021   0.280   3.249
 6842TIP3    H120471   1.116   0.281   3.251
 6842TIP3    H220472   0.999   0.326   3.168
 6843TIP3   OH220473   2.269   5.179   2.134
 6843TIP3    H120474   2.200   5.232   2.095
 6843TIP3    H220475   2.309   5.133   2.061
 6844TIP3   OH220476   7.974   5.634   6.603
 6844TIP3    H120477   8.068   5.638   6.616
 6844TIP3    H220478   7.942   5.720   6.631
 6845TIP3   OH220479   2.052   3.789   6.012
 6845TIP3    H120480   2.082   3.716   5.958
 6845TIP3    H220481   2.084   3.867   5.967
 6846TIP3   OH220482   3.410   7.754   6.406
 6846TIP3    H120483   3.449   7.785   6.487
 6846TIP3    H220484   3.315   7.762   6.421
 6847TIP3   OH220485   2.499   6.460   2.059
 6847TIP3    H120486   2.458   6.518   2.124
 6847TIP3    H220487   2.432   6.394   2.041
 6848TIP3   OH220488   3.115   2.955   0.593
 6848TIP3    H120489   3.095   2.864   0.616
 6848TIP3    H220490   3.201   2.951   0.551
 6849TIP3   OH220491   7.376   1.398   0.202
 6849TIP3    H120492   7.291   1.358   0.185
 6849TIP3    H220493   7.439   1.330   0.176
 6850TIP3   OH220494   7.836   7.304   5.177
 6850TIP3    H120495   7.873   7.315   5.264
 6850TIP3    H220496   7.810   7.212   5.173
 6851TIP3   OH220497   5.912   6.700   2.457
 6851TIP3    H120498   5.933   6.762   2.526
 6851TIP3    H220499   5.820   6.718   2.437
 6852TIP3   OH220500   1.306   0.539   0.555
 6852TIP3    H120501   1.284   0.484   0.631
 6852TIP3    H220502   1.239   0.517   0.490
 6853TIP3   OH220503   3.128   1.018   1.708
 6853TIP3    H120504   3.105   1.110   1.689
 6853TIP3    H220505   3.049   0.969   1.689
 6854TIP3   OH220506   6.988   7.416   4.782
 6854TIP3    H120507   7.057   7.362   4.743
 6854TIP3    H220508   6.984   7.387   4.873
 6855TIP3   OH220509   0.871   4.670   1.172
 6855TIP3    H120510   0.871   4.657   1.267
 6855TIP3    H220511   0.799   4.616   1.141
 6856TIP3   OH220512   0.901   6.982   4.922
 6856TIP3    H120513   0.987   6.942   4.908
 6856TIP3    H220514   0.878   6.960   5.012
 6857TIP3   OH220515   1.202   3.077   2.729
 6857TIP3    H120516   1.198   3.172   2.741
 6857TIP3    H220517   1.272   3.064   2.665
 6858TIP3   OH220518   6.859   6.598   5.933
 6858TIP3    H120519   6.840   6.529   5.870
 6858TIP3    H220520   6.831   6.679   5.889
 6859TIP3   OH220521   0.349   1.601   3.907
 6859TIP3    H120522   0.383   1.647   3.831
 6859TIP3    H220523   0.257   1.586   3.888
 6860TIP3   OH220524   2.033   1.754   3.137
 6860TIP3    H120525   1.990   1.695   3.076
 6860TIP3    H220526   2.015   1.716   3.223
 6861TIP3   OH220527   0.930   3.142   0.652
 6861TIP3    H120528   0.907   3.144   0.745
 6861TIP3    H220529   0.846   3.136   0.606
 6862TIP3   OH220530   5.416   0.444   1.484
 6862TIP3    H120531   5.395   0.357   1.518
 6862TIP3    H220532   5.512   0.449   1.487
 6863TIP3   OH220533   6.175   3.879   6.000
 6863TIP3    H120534   6.250   3.822   6.015
 6863TIP3    H220535   6.212   3.963   5.976
 6864TIP3   OH220536   8.073   4.368   4.903
 6864TIP3    H120537   8.152   4.317   4.881
 6864TIP3    H220538   8.107   4.454   4.929
 6865TIP3   OH220539   6.380   2.494   1.949
 6865TIP3    H120540   6.295   2.464   1.980
 6865TIP3    H220541   6.425   2.522   2.029
 6866TIP3   OH220542   7.092   4.517   5.717
 6866TIP3    H120543   7.059   4.596   5.759
 6866TIP3    H220544   7.144   4.474   5.784
 6867TIP3   OH220545   3.528   5.512   1.951
 6867TIP3    H120546   3.461   5.529   1.885
 6867TIP3    H220547   3.611   5.523   1.904
 6868TIP3   OH220548   0.218   2.190   4.699
 6868TIP3    H120549   0.215   2.096   4.687
 6868TIP3    H220550   0.310   2.213   4.686
 6869TIP3   OH220551   4.989   0.206   2.071
 6869TIP3    H120552   5.065   0.237   2.022
 6869TIP3    H220553   5.027   0.149   2.139
 6870TIP3   OH220554   6.978   3.197   4.117
 6870TIP3    H120555   7.018   3.265   4.062
 6870TIP3    H220556   6.969   3.238   4.203
 6871TIP3   OH220557   4.114   2.399   2.154
 6871TIP3    H120558   4.155   2.486   2.160
 6871TIP3    H220559   4.186   2.338   2.165
 6872TIP3   OH220560   8.221   4.306   6.616
 6872TIP3    H120561   8.270   4.308   6.534
 6872TIP3    H220562   8.199   4.398   6.633
 6873TIP3   OH220563   4.310   4.366   2.304
 6873TIP3    H120564   4.294   4.272   2.292
 6873TIP3    H220565   4.276   4.385   2.391
 6874TIP3   OH220566   3.008   3.437   6.743
 6874TIP3    H120567   2.999   3.392   6.659
 6874TIP3    H220568   3.043   3.372   6.803
 6875TIP3   OH220569   5.159   4.238   0.208
 6875TIP3    H120570   5.107   4.314   0.234
 6875TIP3    H220571   5.170   4.188   0.289
 6876TIP3   OH220572   7.854   5.276   4.335
 6876TIP3    H120573   7.887   5.364   4.348
 6876TIP3    H220574   7.782   5.286   4.273
 6877TIP3   OH220575   5.179   5.961   0.829
 6877TIP3    H120576   5.252   5.903   0.850
 6877TIP3    H220577   5.127   5.912   0.765
 6878TIP3   OH220578   4.627   0.696   1.730
 6878TIP3    H120579   4.594   0.763   1.671
 6878TIP3    H220580   4.549   0.666   1.778
 6879TIP3   OH220581   1.529   3.238   6.564
 6879TIP3    H120582   1.605   3.202   6.611
 6879TIP3    H220583   1.496   3.164   6.513
 6880TIP3   OH220584   0.702   6.939   0.960
 6880TIP3    H120585   0.714   6.951   0.866
 6880TIP3    H220586   0.696   6.844   0.972
 6881TIP3   OH220587   7.926   0.800   4.540
 6881TIP3    H120588   7.948   0.727   4.598
 6881TIP3    H220589   7.984   0.871   4.568
 6882TIP3   OH220590   5.631   1.054   6.511
 6882TIP3    H120591   5.572   1.025   6.441
 6882TIP3    H220592   5.717   1.060   6.469
 6883TIP3   OH220593   5.798   4.805   1.453
 6883TIP3    H120594   5.746   4.851   1.519
 6883TIP3    H220595   5.734   4.776   1.388
 6884TIP3   OH220596   2.307   1.779   3.203
 6884TIP3    H120597   2.220   1.776   3.164
 6884TIP3    H220598   2.291   1.789   3.297
 6885TIP3   OH220599   6.966   5.425   1.246
 6885TIP3    H120600   6.954   5.464   1.332
 6885TIP3    H220601   6.991   5.334   1.264
 6886TIP3   OH220602   1.657   2.161   2.552
 6886TIP3    H120603   1.686   2.107   2.478
 6886TIP3    H220604   1.599   2.226   2.514
 6887TIP3   OH220605   4.346   4.248   3.275
 6887TIP3    H120606   4.388   4.171   3.238
 6887TIP3    H220607   4.303   4.290   3.200
 6888TIP3   OH220608   4.108   5.615   5.230
 6888TIP3    H120609   4.107   5.523   5.204
 6888TIP3    H220610   4.034   5.624   5.289
 6889TIP3   OH220611   0.759   6.068   2.713
 6889TIP3    H120612   0.742   5.979   2.743
 6889TIP3    H220613   0.673   6.109   2.709
 6890TIP3   OH220614   5.893   0.862   2.405
 6890TIP3    H120615   5.857   0.923   2.469
 6890TIP3    H220616   5.981   0.843   2.435
 6891TIP3   OH220617   6.167   6.892   5.210
 6891TIP3    H120618   6.119   6.823   5.166
 6891TIP3    H220619   6.208   6.849   5.285
 6892TIP3   OH220620   2.488   0.292   0.251
 6892TIP3    H120621   2.409   0.321   0.297
 6892TIP3    H220622   2.456   0.229   0.186
 6893TIP3   OH220623   6.815   0.071   2.455
 6893TIP3    H120624   6.784   0.110   2.537
 6893TIP3    H220625   6.739   0.073   2.397
 6894TIP3   OH220626   6.035   1.782   2.801
 6894TIP3    H120627   6.079   1.809   2.721
 6894TIP3    H220628   6.020   1.864   2.849
 6895TIP3   OH220629   7.991   4.910   5.620
 6895TIP3    H120630   8.069   4.910   5.564
 6895TIP3    H220631   7.919   4.889   5.560
 6896TIP3   OH220632   4.378   6.859   6.446
 6896TIP3    H120633   4.468   6.833   6.465
 6896TIP3    H220634   4.330   6.845   6.528
 6897TIP3   OH220635   0.917   3.646   1.211
 6897TIP3    H120636   0.986   3.664   1.147
 6897TIP3    H220637   0.912   3.725   1.264
 6898TIP3   OH220638   5.270   1.139   5.353
 6898TIP3    H120639   5.223   1.221   5.371
 6898TIP3    H220640   5.309   1.153   5.266
 6899TIP3   OH220641   0.228   0.598   6.611
 6899TIP3    H120642   0.322   0.581   6.620
 6899TIP3    H220643   0.210   0.669   6.673
 6900TIP3   OH220644   7.897   3.017   3.977
 6900TIP3    H120645   7.819   3.069   3.998
 6900TIP3    H220646   7.970   3.075   3.998
 6901TIP3   OH220647   1.624   1.368   5.429
 6901TIP3    H120648   1.543   1.317   5.432
 6901TIP3    H220649   1.597   1.457   5.454
 6902TIP3   OH220650   0.428   6.967   4.726
 6902TIP3    H120651   0.521   6.969   4.749
 6902TIP3    H220652   0.386   7.026   4.788
 6903TIP3   OH220653   3.299   2.347   5.525
 6903TIP3    H120654   3.327   2.357   5.434
 6903TIP3    H220655   3.381   2.349   5.575
 6904TIP3   OH220656   3.858   6.403   2.796
 6904TIP3    H120657   3.853   6.388   2.701
 6904TIP3    H220658   3.785   6.354   2.832
 6905TIP3   OH220659   0.030   1.692   5.687
 6905TIP3    H120660  -0.047   1.736   5.722
 6905TIP3    H220661   0.080   1.667   5.765
 6906TIP3   OH220662   1.305   3.089   0.279
 6906TIP3    H120663   1.260   3.004   0.274
 6906TIP3    H220664   1.308   3.108   0.373
 6907TIP3   OH220665   7.374   6.346   3.708
 6907TIP3    H120666   7.415   6.292   3.775
 6907TIP3    H220667   7.312   6.287   3.665
 6908TIP3   OH220668   0.490   3.942   5.770
 6908TIP3    H120669   0.436   4.012   5.807
 6908TIP3    H220670   0.475   3.947   5.676
 6909TIP3   OH220671   4.988   0.495   4.355
 6909TIP3    H120672   4.967   0.505   4.262
 6909TIP3    H220673   4.906   0.464   4.395
 6910TIP3   OH220674   5.231   0.179   6.578
 6910TIP3    H120675   5.232   0.262   6.626
 6910TIP3    H220676   5.207   0.114   6.644
 6911TIP3   OH220677   0.873   4.954   1.198
 6911TIP3    H120678   0.905   4.973   1.110
 6911TIP3    H220679   0.874   4.858   1.205
 6912TIP3   OH220680   4.961   2.321   2.190
 6912TIP3    H120681   5.052   2.339   2.166
 6912TIP3    H220682   4.946   2.231   2.159
 6913TIP3   OH220683   0.414   3.318   6.268
 6913TIP3    H120684   0.479   3.307   6.199
 6913TIP3    H220685   0.463   3.306   6.349
 6914TIP3   OH220686   7.376   3.149   4.308
 6914TIP3    H120687   7.472   3.148   4.307
 6914TIP3    H220688   7.350   3.062   4.280
 6915TIP3   OH220689   0.474   4.698   6.192
 6915TIP3    H120690   0.547   4.736   6.142
 6915TIP3    H220691   0.482   4.604   6.177
 6916TIP3   OH220692   1.683   3.907   2.650
 6916TIP3    H120693   1.590   3.916   2.626
 6916TIP3    H220694   1.689   3.943   2.738
 6917TIP3   OH220695   2.743   2.014   4.674
 6917TIP3    H120696   2.774   1.977   4.757
 6917TIP3    H220697   2.800   2.090   4.660
 6918TIP3   OH220698   5.481   1.947   2.763
 6918TIP3    H120699   5.491   1.930   2.856
 6918TIP3    H220700   5.526   1.874   2.720
 6919TIP3   OH220701   7.021   0.560   6.520
 6919TIP3    H120702   6.967   0.626   6.565
 6919TIP3    H220703   6.978   0.548   6.435
 6920TIP3   OH220704   7.999   6.828   1.617
 6920TIP3    H120705   8.001   6.755   1.555
 6920TIP3    H220706   7.963   6.901   1.567
 6921TIP3   OH220707   2.829   6.859   5.072
 6921TIP3    H120708   2.847   6.950   5.096
 6921TIP3    H220709   2.879   6.845   4.992
 6922TIP3   OH220710   0.162   7.157   4.679
 6922TIP3    H120711   0.135   7.239   4.720
 6922TIP3    H220712   0.162   7.176   4.585
 6923TIP3   OH220713   4.514   2.745   1.482
 6923TIP3    H120714   4.521   2.656   1.517
 6923TIP3    H220715   4.478   2.796   1.554
 6924TIP3   OH220716   8.032   1.521   4.031
 6924TIP3    H120717   8.076   1.507   4.115
 6924TIP3    H220718   8.082   1.468   3.968
 6925TIP3   OH220719   5.703   6.034   6.597
 6925TIP3    H120720   5.742   6.116   6.628
 6925TIP3    H220721   5.614   6.057   6.571
 6926TIP3   OH220722   5.828   4.068   2.256
 6926TIP3    H120723   5.749   4.022   2.284
 6926TIP3    H220724   5.805   4.161   2.262
 6927TIP3   OH220725   3.928   2.759   0.622
 6927TIP3    H120726   3.951   2.692   0.557
 6927TIP3    H220727   4.002   2.820   0.621
 6928TIP3   OH220728   1.291   2.875   4.648
 6928TIP3    H120729   1.346   2.948   4.618
 6928TIP3    H220730   1.305   2.806   4.582
 6929TIP3   OH220731   5.992   0.886   0.736
 6929TIP3    H120732   6.074   0.867   0.690
 6929TIP3    H220733   6.015   0.957   0.797
 6930TIP3   OH220734   6.959   6.651   2.888
 6930TIP3    H120735   6.892   6.588   2.915
 6930TIP3    H220736   7.029   6.597   2.852
 6931TIP3   OH220737   0.405   5.231   6.051
 6931TIP3    H120738   0.445   5.317   6.058
 6931TIP3    H220739   0.316   5.243   6.084
 6932TIP3   OH220740   7.929   4.262   1.413
 6932TIP3    H120741   8.016   4.242   1.378
 6932TIP3    H220742   7.942   4.272   1.507
 6933TIP3   OH220743   8.020   3.053   4.598
 6933TIP3    H120744   8.052   3.142   4.603
 6933TIP3    H220745   8.087   3.000   4.641
 6934TIP3   OH220746   0.248   6.305   5.063
 6934TIP3    H120747   0.239   6.400   5.068
 6934TIP3    H220748   0.178   6.271   5.120
 6935TIP3   OH220749   3.169   5.949   1.052
 6935TIP3    H120750   3.178   5.873   1.109
 6935TIP3    H220751   3.075   5.967   1.051
 6936TIP3   OH220752   2.027   3.333   3.884
 6936TIP3    H120753   1.935   3.354   3.873
 6936TIP3    H220754   2.058   3.315   3.795
 6937TIP3   OH220755   4.584   7.149   1.682
 6937TIP3    H120756   4.664   7.176   1.637
 6937TIP3    H220757   4.582   7.054   1.673
 6938TIP3   OH220758   6.002   0.972   3.680
 6938TIP3    H120759   5.956   1.041   3.728
 6938TIP3    H220760   6.007   0.900   3.742
 6939TIP3   OH220761   0.705   2.543   6.738
 6939TIP3    H120762   0.678   2.552   6.829
 6939TIP3    H220763   0.664   2.615   6.692
 6940TIP3   OH220764   8.172   6.565   5.498
 6940TIP3    H120765   8.129   6.639   5.540
 6940TIP3    H220766   8.191   6.595   5.410
 6941TIP3   OH220767   3.857   5.022   3.556
 6941TIP3    H120768   3.941   4.976   3.551
 6941TIP3    H220769   3.808   4.975   3.624
 6942TIP3   OH220770   7.127   3.902   1.950
 6942TIP3    H120771   7.060   3.967   1.928
 6942TIP3    H220772   7.083   3.818   1.939
 6943TIP3   OH220773   1.018   5.907   4.352
 6943TIP3    H120774   0.950   5.840   4.350
 6943TIP3    H220775   1.097   5.861   4.379
 6944TIP3   OH220776   1.331   7.546   3.568
 6944TIP3    H120777   1.333   7.467   3.623
 6944TIP3    H220778   1.240   7.554   3.540
 6945TIP3   OH220779   0.368   4.607   4.780
 6945TIP3    H120780   0.299   4.649   4.832
 6945TIP3    H220781   0.322   4.574   4.703
 6946TIP3   OH220782   0.070   0.276   4.720
 6946TIP3    H120783   0.158   0.287   4.684
 6946TIP3    H220784   0.018   0.241   4.647
 6947TIP3   OH220785   4.263   5.251   0.492
 6947TIP3    H120786   4.242   5.330   0.443
 6947TIP3    H220787   4.352   5.228   0.465
 6948TIP3   OH220788   7.740   2.533   4.890
 6948TIP3    H120789   7.657   2.577   4.902
 6948TIP3    H220790   7.718   2.450   4.848
 6949TIP3   OH220791   0.578   7.354   1.518
 6949TIP3    H120792   0.627   7.275   1.538
 6949TIP3    H220793   0.638   7.407   1.466
 6950TIP3   OH220794   3.615   3.586   0.967
 6950TIP3    H120795   3.632   3.606   0.875
 6950TIP3    H220796   3.688   3.626   1.014
 6951TIP3   OH220797   6.463   5.887   2.102
 6951TIP3    H120798   6.492   5.808   2.055
 6951TIP3    H220799   6.418   5.854   2.179
 6952TIP3   OH220800   5.763   5.070   2.193
 6952TIP3    H120801   5.779   5.146   2.249
 6952TIP3    H220802   5.699   5.018   2.241
 6953TIP3   OH220803   1.215   4.454   3.290
 6953TIP3    H120804   1.297   4.453   3.339
 6953TIP3    H220805   1.166   4.528   3.327
 6954TIP3   OH220806   2.399   0.720   4.898
 6954TIP3    H120807   2.434   0.661   4.966
 6954TIP3    H220808   2.305   0.703   4.899
 6955TIP3   OH220809   6.482   5.889   5.712
 6955TIP3    H120810   6.527   5.820   5.762
 6955TIP3    H220811   6.409   5.844   5.670
 6956TIP3   OH220812   6.862   4.442   5.927
 6956TIP3    H120813   6.865   4.525   5.879
 6956TIP3    H220814   6.893   4.464   6.015
 6957TIP3   OH220815   6.961   6.167   0.167
 6957TIP3    H120816   6.921   6.089   0.207
 6957TIP3    H220817   6.946   6.155   0.073
 6958TIP3   OH220818   6.144   1.011   5.594
 6958TIP3    H120819   6.212   0.945   5.603
 6958TIP3    H220820   6.062   0.964   5.606
 6959TIP3   OH220821   5.637   4.641   0.461
 6959TIP3    H120822   5.623   4.714   0.400
 6959TIP3    H220823   5.586   4.569   0.424
 6960TIP3   OH220824   6.528   4.099   2.901
 6960TIP3    H120825   6.540   4.055   2.986
 6960TIP3    H220826   6.445   4.145   2.910
 6961TIP3   OH220827   1.254   5.852   5.865
 6961TIP3    H120828   1.334   5.899   5.845
 6961TIP3    H220829   1.277   5.760   5.856
 6962TIP3   OH220830   4.846   0.088   6.263
 6962TIP3    H120831   4.932   0.101   6.301
 6962TIP3    H220832   4.819   0.001   6.294
 6963TIP3   OH220833   6.280   1.982   1.839
 6963TIP3    H120834   6.263   2.075   1.853
 6963TIP3    H220835   6.374   1.973   1.850
 6964TIP3   OH220836   0.646   5.011   1.779
 6964TIP3    H120837   0.617   4.976   1.863
 6964TIP3    H220838   0.694   4.939   1.739
 6965TIP3   OH220839   3.159   5.640   4.805
 6965TIP3    H120840   3.170   5.735   4.804
 6965TIP3    H220841   3.110   5.621   4.725
 6966TIP3   OH220842   7.149   0.878   4.193
 6966TIP3    H120843   7.095   0.956   4.179
 6966TIP3    H220844   7.235   0.914   4.216
 6967TIP3   OH220845   7.588   5.130   4.575
 6967TIP3    H120846   7.594   5.064   4.644
 6967TIP3    H220847   7.670   5.179   4.582
 6968TIP3   OH220848   2.130   2.264   0.422
 6968TIP3    H120849   2.084   2.347   0.409
 6968TIP3    H220850   2.068   2.210   0.470
 6969TIP3   OH220851   4.840   1.476   0.623
 6969TIP3    H120852   4.917   1.420   0.610
 6969TIP3    H220853   4.767   1.415   0.629
 6970TIP3   OH220854   6.374   4.601   3.117
 6970TIP3    H120855   6.430   4.677   3.130
 6970TIP3    H220856   6.314   4.602   3.191
 6971TIP3   OH220857   5.469   7.247   3.605
 6971TIP3    H120858   5.471   7.297   3.687
 6971TIP3    H220859   5.394   7.188   3.615
 6972TIP3   OH220860   1.586   3.844   3.336
 6972TIP3    H120861   1.591   3.803   3.422
 6972TIP3    H220862   1.677   3.862   3.313
 6973TIP3   OH220863   2.613   2.483   2.285
 6973TIP3    H120864   2.648   2.394   2.285
 6973TIP3    H220865   2.688   2.538   2.263
 6974TIP3   OH220866   7.031   3.915   2.448
 6974TIP3    H120867   6.939   3.935   2.433
 6974TIP3    H220868   7.039   3.913   2.544
 6975TIP3   OH220869   0.366   3.950   3.157
 6975TIP3    H120870   0.417   4.001   3.220
 6975TIP3    H220871   0.379   3.859   3.183
 6976TIP3   OH220872   6.906   7.689   1.457
 6976TIP3    H120873   6.811   7.686   1.461
 6976TIP3    H220874   6.931   7.613   1.406
 6977TIP3   OH220875   5.566   6.479   6.305
 6977TIP3    H120876   5.483   6.526   6.319
 6977TIP3    H220877   5.541   6.404   6.251
 6978TIP3   OH220878   5.025   7.269   2.608
 6978TIP3    H120879   5.065   7.256   2.522
 6978TIP3    H220880   5.087   7.323   2.656
 6979TIP3   OH220881   0.206   1.661   0.463
 6979TIP3    H120882   0.120   1.681   0.425
 6979TIP3    H220883   0.199   1.690   0.554
 6980TIP3   OH220884   4.148   5.012   3.958
 6980TIP3    H120885   4.079   5.044   4.016
 6980TIP3    H220886   4.206   5.088   3.947
 6981TIP3   OH220887   5.021   1.283   4.033
 6981TIP3    H120888   5.105   1.307   3.992
 6981TIP3    H220889   5.014   1.341   4.109
 6982TIP3   OH220890   5.329   2.253   3.209
 6982TIP3    H120891   5.319   2.277   3.117
 6982TIP3    H220892   5.420   2.225   3.217
 6983TIP3   OH220893   4.863   5.380   2.343
 6983TIP3    H120894   4.780   5.345   2.312
 6983TIP3    H220895   4.914   5.397   2.263
 6984TIP3   OH220896   0.280   1.059   6.506
 6984TIP3    H120897   0.244   1.017   6.427
 6984TIP3    H220898   0.211   1.049   6.572
 6985TIP3   OH220899   3.638   0.365   3.441
 6985TIP3    H120900   3.613   0.457   3.442
 6985TIP3    H220901   3.709   0.358   3.504
 6986TIP3   OH220902   0.956   6.781   1.456
 6986TIP3    H120903   0.959   6.847   1.525
 6986TIP3    H220904   1.003   6.820   1.383
 6987TIP3   OH220905   4.620   7.445   0.905
 6987TIP3    H120906   4.629   7.456   0.811
 6987TIP3    H220907   4.693   7.493   0.943
 6988TIP3   OH220908   1.298   7.395   2.740
 6988TIP3    H120909   1.245   7.474   2.724
 6988TIP3    H220910   1.267   7.363   2.825
 6989TIP3   OH220911   2.060   7.617   0.854
 6989TIP3    H120912   2.019   7.657   0.931
 6989TIP3    H220913   2.090   7.691   0.802
 6990TIP3   OH220914   7.023   3.475   2.324
 6990TIP3    H120915   7.069   3.506   2.402
 6990TIP3    H220916   6.930   3.492   2.342
 6991TIP3   OH220917   3.895   6.494   2.071
 6991TIP3    H120918   3.978   6.508   2.025
 6991TIP3    H220919   3.917   6.502   2.163
 6992TIP3   OH220920   2.379   5.540   3.981
 6992TIP3    H120921   2.328   5.468   4.018
 6992TIP3    H220922   2.467   5.504   3.971
 6993TIP3   OH220923   2.477   0.968   4.226
 6993TIP3    H120924   2.495   0.948   4.318
 6993TIP3    H220925   2.533   1.043   4.206
 6994TIP3   OH220926   1.826   7.260   5.936
 6994TIP3    H120927   1.818   7.330   5.871
 6994TIP3    H220928   1.862   7.186   5.887
 6995TIP3   OH220929   7.698   4.112   4.396
 6995TIP3    H120930   7.706   4.131   4.489
 6995TIP3    H220931   7.776   4.153   4.357
 6996TIP3   OH220932   0.371   0.259   4.520
 6996TIP3    H120933   0.455   0.231   4.557
 6996TIP3    H220934   0.340   0.183   4.470
 6997TIP3   OH220935   7.172   3.620   4.085
 6997TIP3    H120936   7.141   3.620   4.176
 6997TIP3    H220937   7.228   3.543   4.079
 6998TIP3   OH220938   3.121   5.057   5.334
 6998TIP3    H120939   3.067   5.036   5.410
 6998TIP3    H220940   3.079   5.134   5.295
 6999TIP3   OH220941   2.329   5.377   5.180
 6999TIP3    H120942   2.312   5.332   5.263
 6999TIP3    H220943   2.300   5.314   5.114
 7000TIP3   OH220944   2.544   6.437   1.739
 7000TIP3    H120945   2.610   6.483   1.687
 7000TIP3    H220946   2.589   6.417   1.821
 7001TIP3   OH220947   4.355   4.203   4.355
 7001TIP3    H120948   4.358   4.186   4.261
 7001TIP3    H220949   4.447   4.199   4.382
 7002TIP3   OH220950   1.007   1.413   6.469
 7002TIP3    H120951   1.050   1.346   6.415
 7002TIP3    H220952   0.991   1.369   6.553
 7003TIP3   OH220953   2.683   4.912   2.961
 7003TIP3    H120954   2.716   4.961   3.036
 7003TIP3    H220955   2.648   4.979   2.902
 7004TIP3   OH220956   7.531   1.652   0.203
 7004TIP3    H120957   7.473   1.582   0.235
 7004TIP3    H220958   7.591   1.668   0.275
 7005TIP3   OH220959   7.005   5.829   2.284
 7005TIP3    H120960   7.017   5.862   2.373
 7005TIP3    H220961   6.972   5.905   2.235
 7006TIP3   OH220962   0.362   5.674   2.294
 7006TIP3    H120963   0.275   5.707   2.312
 7006TIP3    H220964   0.348   5.583   2.268
 7007TIP3   OH220965   0.112   2.038   5.040
 7007TIP3    H120966   0.125   1.962   4.984
 7007TIP3    H220967   0.018   2.038   5.058
 7008TIP3   OH220968   2.007   6.333   0.363
 7008TIP3    H120969   2.043   6.252   0.326
 7008TIP3    H220970   1.957   6.371   0.291
 7009TIP3   OH220971   7.511   6.559   3.607
 7009TIP3    H120972   7.562   6.587   3.683
 7009TIP3    H220973   7.477   6.473   3.632
 7010TIP3   OH220974   2.432   3.734   1.176
 7010TIP3    H120975   2.525   3.718   1.160
 7010TIP3    H220976   2.411   3.677   1.250
 7011TIP3   OH220977   1.832   7.256   5.257
 7011TIP3    H120978   1.925   7.244   5.275
 7011TIP3    H220979   1.787   7.217   5.332
 7012TIP3   OH220980   1.951   2.579   2.418
 7012TIP3    H120981   2.031   2.631   2.426
 7012TIP3    H220982   1.934   2.575   2.323
 7013TIP3   OH220983   4.880   3.374   0.453
 7013TIP3    H120984   4.846   3.288   0.433
 7013TIP3    H220985   4.883   3.378   0.549
 7014TIP3   OH220986   1.349   1.361   5.843
 7014TIP3    H120987   1.355   1.280   5.792
 7014TIP3    H220988   1.255   1.378   5.849
 7015TIP3   OH220989   4.030   3.396   0.154
 7015TIP3    H120990   4.049   3.359   0.240
 7015TIP3    H220991   4.091   3.353   0.095
 7016TIP3   OH220992   8.232   0.477   5.717
 7016TIP3    H120993   8.290   0.401   5.708
 7016TIP3    H220994   8.286   0.552   5.689
 7017TIP3   OH220995   4.978   3.825   2.950
 7017TIP3    H120996   4.993   3.731   2.946
 7017TIP3    H220997   4.946   3.840   3.039
 7018TIP3   OH220998   1.509   0.968   3.251
 7018TIP3    H120999   1.547   0.917   3.180
 7018TIP3    H221000   1.455   0.906   3.300
 7019TIP3   OH221001   0.331   4.182   2.977
 7019TIP3    H121002   0.351   4.245   3.047
 7019TIP3    H221003   0.366   4.099   3.009
 7020TIP3   OH221004   1.255   1.242   1.995
 7020TIP3    H121005   1.323   1.181   2.023
 7020TIP3    H221006   1.231   1.212   1.907
 7021TIP3   OH221007   6.316   1.299   5.220
 7021TIP3    H121008   6.355   1.245   5.151
 7021TIP3    H221009   6.389   1.324   5.276
 7022TIP3   OH221010   2.054   6.710   1.089
 7022TIP3    H121011   2.115   6.782   1.070
 7022TIP3    H221012   2.072   6.687   1.180
 7023TIP3   OH221013   5.476   1.959   4.091
 7023TIP3    H121014   5.470   2.054   4.083
 7023TIP3    H221015   5.527   1.932   4.014
 7024TIP3   OH221016   1.100   7.281   6.632
 7024TIP3    H121017   1.085   7.205   6.576
 7024TIP3    H221018   1.174   7.256   6.687
 7025TIP3   OH221019   2.290   2.624   4.493
 7025TIP3    H121020   2.208   2.618   4.541
 7025TIP3    H221021   2.278   2.566   4.418
 7026TIP3   OH221022   4.341   2.498   1.298
 7026TIP3    H121023   4.288   2.476   1.374
 7026TIP3    H221024   4.427   2.520   1.334
 7027TIP3   OH221025   1.639   7.157   1.334
 7027TIP3    H121026   1.553   7.115   1.337
 7027TIP3    H221027   1.664   7.168   1.425
 7028TIP3   OH221028   5.040   2.608   2.993
 7028TIP3    H121029   5.065   2.544   3.060
 7028TIP3    H221030   5.070   2.692   3.027
 7029TIP3   OH221031   1.881   6.393   2.408
 7029TIP3    H121032   1.844   6.480   2.419
 7029TIP3    H221033   1.886   6.357   2.497
 7030TIP3   OH221034   4.990   5.888   1.065
 7030TIP3    H121035   4.926   5.946   1.105
 7030TIP3    H221036   4.990   5.911   0.972
 7031TIP3   OH221037   5.305   1.952   1.924
 7031TIP3    H121038   5.305   2.014   1.851
 7031TIP3    H221039   5.356   1.878   1.892
 7032TIP3   OH221040   2.512   0.582   5.893
 7032TIP3    H121041   2.430   0.536   5.908
 7032TIP3    H221042   2.579   0.513   5.899
 7033TIP3   OH221043   3.244   6.665   1.721
 7033TIP3    H121044   3.278   6.730   1.660
 7033TIP3    H221045   3.321   6.630   1.765
 7034TIP3   OH221046   3.852   3.726   6.005
 7034TIP3    H121047   3.898   3.688   5.930
 7034TIP3    H221048   3.900   3.808   6.023
 7035TIP3   OH221049   3.897   4.185   4.479
 7035TIP3    H121050   3.988   4.166   4.502
 7035TIP3    H221051   3.898   4.273   4.443
 7036TIP3   OH221052   2.830   0.220   2.995
 7036TIP3    H121053   2.810   0.176   2.912
 7036TIP3    H221054   2.843   0.148   3.057
 7037TIP3   OH221055   4.962   1.207   1.426
 7037TIP3    H121056   4.920   1.127   1.395
 7037TIP3    H221057   5.012   1.239   1.351
 7038TIP3   OH221058   5.743   5.091   3.292
 7038TIP3    H121059   5.703   5.017   3.338
 7038TIP3    H221060   5.671   5.154   3.282
 7039TIP3   OH221061   1.484   7.181   4.774
 7039TIP3    H121062   1.502   7.087   4.768
 7039TIP3    H221063   1.570   7.222   4.761
 7040TIP3   OH221064   3.512   3.613   2.354
 7040TIP3    H121065   3.579   3.557   2.314
 7040TIP3    H221066   3.526   3.699   2.315
 7041TIP3   OH221067   5.030   2.101   4.974
 7041TIP3    H121068   4.965   2.031   4.983
 7041TIP3    H221069   5.097   2.063   4.917
 7042TIP3   OH221070   4.761   1.684   2.025
 7042TIP3    H121071   4.755   1.753   1.958
 7042TIP3    H221072   4.828   1.715   2.085
 7043TIP3   OH221073   0.839   6.505   2.266
 7043TIP3    H121074   0.823   6.419   2.303
 7043TIP3    H221075   0.804   6.500   2.177
 7044TIP3   OH221076   3.659   3.849   5.550
 7044TIP3    H121077   3.739   3.798   5.547
 7044TIP3    H221078   3.590   3.788   5.526
 7045TIP3   OH221079   2.896   6.607   3.106
 7045TIP3    H121080   2.914   6.523   3.147
 7045TIP3    H221081   2.907   6.671   3.177
 7046TIP3   OH221082   0.039   5.798   3.981
 7046TIP3    H121083   0.072   5.708   3.976
 7046TIP3    H221084  -0.044   5.791   4.028
 7047TIP3   OH221085   0.401   1.616   1.133
 7047TIP3    H121086   0.390   1.652   1.221
 7047TIP3    H221087   0.381   1.523   1.143
 7048TIP3   OH221088   4.136   3.136   5.291
 7048TIP3    H121089   4.133   3.057   5.345
 7048TIP3    H221090   4.221   3.176   5.313
 7049TIP3   OH221091   0.588   4.294   6.396
 7049TIP3    H121092   0.561   4.220   6.342
 7049TIP3    H221093   0.671   4.324   6.357
 7050TIP3   OH221094   7.974   6.780   3.178
 7050TIP3    H121095   7.942   6.719   3.245
 7050TIP3    H221096   7.961   6.733   3.095
 7051TIP3   OH221097   4.309   5.089   5.611
 7051TIP3    H121098   4.392   5.081   5.565
 7051TIP3    H221099   4.298   5.184   5.624
 7052TIP3   OH221100   6.253   3.497   2.474
 7052TIP3    H121101   6.318   3.461   2.413
 7052TIP3    H221102   6.191   3.543   2.418
 7053TIP3   OH221103   2.615   5.502   0.114
 7053TIP3    H121104   2.689   5.456   0.077
 7053TIP3    H221105   2.637   5.513   0.207
 7054TIP3   OH221106   0.379   3.155   4.101
 7054TIP3    H121107   0.298   3.104   4.094
 7054TIP3    H221108   0.369   3.226   4.039
 7055TIP3   OH221109   8.152   1.589   0.607
 7055TIP3    H121110   8.209   1.614   0.534
 7055TIP3    H221111   8.080   1.540   0.566
 7056TIP3   OH221112   1.879   2.163   0.821
 7056TIP3    H121113   1.822   2.086   0.813
 7056TIP3    H221114   1.841   2.213   0.893
 7057TIP3   OH221115   5.139   1.972   2.245
 7057TIP3    H121116   5.122   2.012   2.330
 7057TIP3    H221117   5.210   1.910   2.261
 7058TIP3   OH221118   1.306   7.030   3.288
 7058TIP3    H121119   1.363   7.033   3.211
 7058TIP3    H221120   1.258   6.948   3.279
 7059TIP3   OH221121   0.659   4.491   2.910
 7059TIP3    H121122   0.675   4.450   2.825
 7059TIP3    H221123   0.724   4.452   2.968
 7060TIP3   OH221124   2.095   3.373   0.382
 7060TIP3    H121125   2.059   3.458   0.359
 7060TIP3    H221126   2.032   3.310   0.347
 7061TIP3   OH221127   0.632   6.999   6.320
 7061TIP3    H121128   0.696   6.980   6.389
 7061TIP3    H221129   0.662   6.946   6.246
 7062TIP3   OH221130   1.610   7.392   3.968
 7062TIP3    H121131   1.597   7.357   3.880
 7062TIP3    H221132   1.535   7.449   3.983
 7063TIP3   OH221133   8.180   0.172   5.813
 7063TIP3    H121134   8.209   0.261   5.833
 7063TIP3    H221135   8.240   0.116   5.862
 7064TIP3   OH221136   2.329   4.175   6.223
 7064TIP3    H121137   2.342   4.246   6.286
 7064TIP3    H221138   2.416   4.138   6.210
 7065TIP3   OH221139   3.095   4.141   0.348
 7065TIP3    H121140   3.119   4.103   0.264
 7065TIP3    H221141   3.007   4.106   0.366
 7066TIP3   OH221142   4.007   3.317   0.854
 7066TIP3    H121143   4.094   3.289   0.827
 7066TIP3    H221144   3.961   3.236   0.876
 7067TIP3   OH221145   6.768   3.725   5.067
 7067TIP3    H121146   6.803   3.636   5.069
 7067TIP3    H221147   6.792   3.762   5.152
 7068TIP3   OH221148   2.326   6.037   5.326
 7068TIP3    H121149   2.360   5.989   5.250
 7068TIP3    H221150   2.330   6.129   5.299
 7069TIP3   OH221151   2.497   2.004   3.564
 7069TIP3    H121152   2.588   2.002   3.533
 7069TIP3    H221153   2.449   2.047   3.493
 7070TIP3   OH221154   7.340   4.286   5.829
 7070TIP3    H121155   7.368   4.345   5.899
 7070TIP3    H221156   7.417   4.233   5.810
 7071TIP3   OH221157   7.369   3.561   1.505
 7071TIP3    H121158   7.400   3.606   1.584
 7071TIP3    H221159   7.413   3.476   1.507
 7072TIP3   OH221160   4.041   1.670   6.230
 7072TIP3    H121161   3.974   1.611   6.197
 7072TIP3    H221162   4.010   1.695   6.317
 7073TIP3   OH221163   0.153   6.362   6.085
 7073TIP3    H121164   0.211   6.287   6.073
 7073TIP3    H221165   0.092   6.356   6.011
 7074TIP3   OH221166   5.851   5.132   6.502
 7074TIP3    H121167   5.946   5.133   6.496
 7074TIP3    H221168   5.823   5.205   6.447
 7075TIP3   OH221169   5.082   3.761   6.364
 7075TIP3    H121170   5.067   3.794   6.453
 7075TIP3    H221171   4.995   3.740   6.331
 7076TIP3   OH221172   1.857   3.967   1.277
 7076TIP3    H121173   1.893   3.955   1.189
 7076TIP3    H221174   1.929   3.943   1.336
 7077TIP3   OH221175   3.801   5.055   1.432
 7077TIP3    H121176   3.751   4.994   1.379
 7077TIP3    H221177   3.809   5.013   1.517
 7078TIP3   OH221178   2.893   5.624   2.320
 7078TIP3    H121179   2.926   5.711   2.297
 7078TIP3    H221180   2.847   5.637   2.403
 7079TIP3   OH221181   3.122   2.931   6.177
 7079TIP3    H121182   3.169   2.879   6.242
 7079TIP3    H221183   3.149   2.894   6.093
 7080TIP3   OH221184   2.317   4.826   5.368
 7080TIP3    H121185   2.322   4.862   5.280
 7080TIP3    H221186   2.227   4.796   5.377
 7081TIP3   OH221187   4.824   5.335   1.093
 7081TIP3    H121188   4.771   5.414   1.088
 7081TIP3    H221189   4.912   5.366   1.114
 7082TIP3   OH221190   2.107   1.164   2.013
 7082TIP3    H121191   2.079   1.250   2.045
 7082TIP3    H221192   2.141   1.182   1.925
 7083TIP3   OH221193   3.686   4.091   3.106
 7083TIP3    H121194   3.642   4.083   3.021
 7083TIP3    H221195   3.775   4.060   3.090
 7084TIP3   OH221196   5.330   6.634   6.269
 7084TIP3    H121197   5.309   6.646   6.177
 7084TIP3    H221198   5.266   6.689   6.315
 7085TIP3   OH221199   4.018   5.861   1.528
 7085TIP3    H121200   3.987   5.925   1.592
 7085TIP3    H221201   4.095   5.902   1.488
 7086TIP3   OH221202   2.165   7.004   6.700
 7086TIP3    H121203   2.147   6.962   6.785
 7086TIP3    H221204   2.233   6.949   6.661
 7087TIP3   OH221205   7.390   2.174   4.862
 7087TIP3    H121206   7.321   2.183   4.797
 7087TIP3    H221207   7.384   2.083   4.891
 7088TIP3   OH221208   4.578   2.460   1.444
 7088TIP3    H121209   4.594   2.481   1.536
 7088TIP3    H221210   4.615   2.372   1.433
 7089TIP3   OH221211   0.746   3.908   6.305
 7089TIP3    H121212   0.733   3.816   6.280
 7089TIP3    H221213   0.718   3.912   6.396
 7090TIP3   OH221214   4.462   4.551   3.584
 7090TIP3    H121215   4.531   4.513   3.530
 7090TIP3    H221216   4.479   4.645   3.581
 7091TIP3   OH221217   4.731   4.245   0.355
 7091TIP3    H121218   4.763   4.171   0.406
 7091TIP3    H221219   4.800   4.261   0.290
 7092TIP3   OH221220   7.555   5.041   2.628
 7092TIP3    H121221   7.564   5.100   2.703
 7092TIP3    H221222   7.547   5.099   2.552
 7093TIP3   OH221223   1.585   2.226   6.199
 7093TIP3    H121224   1.630   2.306   6.173
 7093TIP3    H221225   1.548   2.192   6.118
 7094TIP3   OH221226   0.442   1.798   3.709
 7094TIP3    H121227   0.524   1.840   3.735
 7094TIP3    H221228   0.374   1.861   3.734
 7095TIP3   OH221229   0.580   4.711   5.803
 7095TIP3    H121230   0.485   4.717   5.793
 7095TIP3    H221231   0.612   4.795   5.770
 7096TIP3   OH221232   5.046   6.608   0.062
 7096TIP3    H121233   5.064   6.691   0.019
 7096TIP3    H221234   4.984   6.563   0.005
 7097TIP3   OH221235   1.762   2.726   2.944
 7097TIP3    H121236   1.709   2.659   2.986
 7097TIP3    H221237   1.842   2.681   2.918
 7098TIP3   OH221238   7.030   3.800   3.281
 7098TIP3    H121239   6.948   3.755   3.259
 7098TIP3    H221240   7.077   3.739   3.338
 7099TIP3   OH221241   2.492   4.208   5.058
 7099TIP3    H121242   2.556   4.252   5.114
 7099TIP3    H221243   2.513   4.237   4.970
 7100TIP3   OH221244   7.918   3.463   3.052
 7100TIP3    H121245   7.838   3.481   3.002
 7100TIP3    H221246   7.897   3.491   3.141
 7101TIP3   OH221247   7.422   3.147   3.297
 7101TIP3    H121248   7.505   3.138   3.250
 7101TIP3    H221249   7.421   3.239   3.326
 7102TIP3   OH221250   3.199   5.880   3.720
 7102TIP3    H121251   3.193   5.841   3.633
 7102TIP3    H221252   3.293   5.883   3.739
 7103TIP3   OH221253   8.063   1.320   6.042
 7103TIP3    H121254   8.059   1.226   6.028
 7103TIP3    H221255   7.978   1.342   6.082
 7104TIP3   OH221256   7.959   2.056   0.626
 7104TIP3    H121257   7.869   2.025   0.618
 7104TIP3    H221258   7.954   2.127   0.690
 7105TIP3   OH221259   7.071   7.682   3.642
 7105TIP3    H121260   6.981   7.711   3.628
 7105TIP3    H221261   7.124   7.757   3.614
 7106TIP3   OH221262   1.367   2.169   2.856
 7106TIP3    H121263   1.273   2.178   2.866
 7106TIP3    H221264   1.402   2.253   2.887
 7107TIP3   OH221265   3.454   1.308   6.193
 7107TIP3    H121266   3.513   1.266   6.130
 7107TIP3    H221267   3.428   1.238   6.252
 7108TIP3   OH221268   0.897   2.520   4.061
 7108TIP3    H121269   0.863   2.433   4.084
 7108TIP3    H221270   0.967   2.503   3.998
 7109TIP3   OH221271   0.199   3.162   0.522
 7109TIP3    H121272   0.250   3.236   0.488
 7109TIP3    H221273   0.174   3.190   0.610
 7110TIP3   OH221274   0.900   5.213   3.526
 7110TIP3    H121275   0.893   5.123   3.493
 7110TIP3    H221276   0.853   5.212   3.609
 7111TIP3   OH221277   1.195   2.416   5.481
 7111TIP3    H121278   1.220   2.351   5.416
 7111TIP3    H221279   1.217   2.500   5.441
 7112TIP3   OH221280   4.503   3.097   4.567
 7112TIP3    H121281   4.476   3.131   4.482
 7112TIP3    H221282   4.455   3.151   4.631
 7113TIP3   OH221283   1.494   2.385   5.460
 7113TIP3    H121284   1.587   2.388   5.482
 7113TIP3    H221285   1.467   2.296   5.483
 7114TIP3   OH221286   8.047   4.859   0.456
 7114TIP3    H121287   8.027   4.940   0.409
 7114TIP3    H221288   8.102   4.887   0.529
 7115TIP3   OH221289   0.192   7.677   5.980
 7115TIP3    H121290   0.158   7.726   6.055
 7115TIP3    H221291   0.271   7.635   6.013
 7116TIP3   OH221292   1.287   1.870   3.879
 7116TIP3    H121293   1.268   1.786   3.836
 7116TIP3    H221294   1.208   1.922   3.864
 7117TIP3   OH221295   0.582   7.088   4.312
 7117TIP3    H121296   0.541   7.138   4.242
 7117TIP3    H221297   0.651   7.145   4.345
 7118TIP3   OH221298   1.699   6.283   0.373
 7118TIP3    H121299   1.661   6.359   0.418
 7118TIP3    H221300   1.791   6.284   0.399
 7119TIP3   OH221301   7.206   3.639   6.299
 7119TIP3    H121302   7.130   3.648   6.240
 7119TIP3    H221303   7.183   3.566   6.356
 7120TIP3   OH221304   2.106   2.886   0.116
 7120TIP3    H121305   2.149   2.956   0.066
 7120TIP3    H221306   2.043   2.849   0.055
 7121TIP3   OH221307   5.767   3.195   3.459
 7121TIP3    H121308   5.706   3.162   3.525
 7121TIP3    H221309   5.731   3.166   3.376
 7122TIP3   OH221310   2.459   7.486   6.364
 7122TIP3    H121311   2.535   7.433   6.341
 7122TIP3    H221312   2.456   7.485   6.459
 7123TIP3   OH221313   4.181   7.544   5.592
 7123TIP3    H121314   4.213   7.583   5.673
 7123TIP3    H221315   4.258   7.506   5.551
 7124TIP3   OH221316   4.149   1.875   5.516
 7124TIP3    H121317   4.091   1.948   5.495
 7124TIP3    H221318   4.115   1.802   5.464
 7125TIP3   OH221319   0.767   7.474   1.374
 7125TIP3    H121320   0.767   7.563   1.339
 7125TIP3    H221321   0.860   7.452   1.384
 7126TIP3   OH221322   0.715   7.820   6.340
 7126TIP3    H121323   0.718   7.725   6.331
 7126TIP3    H221324   0.753   7.853   6.259
 7127TIP3   OH221325   0.822   3.914   3.888
 7127TIP3    H121326   0.868   3.895   3.806
 7127TIP3    H221327   0.734   3.941   3.861
 7128TIP3   OH221328   1.121   3.906   3.147
 7128TIP3    H121329   1.059   3.892   3.218
 7128TIP3    H221330   1.200   3.938   3.189
 7129TIP3   OH221331   6.831   3.787   2.152
 7129TIP3    H121332   6.908   3.844   2.146
 7129TIP3    H221333   6.792   3.809   2.236
 7130TIP3   OH221334   3.121   2.485   5.028
 7130TIP3    H121335   3.060   2.555   5.054
 7130TIP3    H221336   3.070   2.429   4.970
 7131TIP3   OH221337   3.215   1.495   1.871
 7131TIP3    H121338   3.152   1.508   1.800
 7131TIP3    H221339   3.301   1.497   1.828
 7132TIP3   OH221340   5.790   3.202   6.075
 7132TIP3    H121341   5.771   3.217   5.982
 7132TIP3    H221342   5.846   3.276   6.100
 7133TIP3   OH221343   1.187   3.596   2.213
 7133TIP3    H121344   1.217   3.616   2.302
 7133TIP3    H221345   1.264   3.564   2.168
 7134TIP3   OH221346   2.334   7.492   3.540
 7134TIP3    H121347   2.289   7.568   3.502
 7134TIP3    H221348   2.396   7.529   3.602
 7135TIP3   OH221349   5.732   3.086   2.286
 7135TIP3    H121350   5.677   3.151   2.243
 7135TIP3    H221351   5.697   3.002   2.257
 7136TIP3   OH221352   2.149   5.298   1.202
 7136TIP3    H121353   2.072   5.254   1.165
 7136TIP3    H221354   2.224   5.256   1.159
 7137TIP3   OH221355   2.662   3.563   3.726
 7137TIP3    H121356   2.757   3.550   3.735
 7137TIP3    H221357   2.642   3.634   3.787
 7138TIP3   OH221358   4.806   3.651   5.809
 7138TIP3    H121359   4.825   3.567   5.850
 7138TIP3    H221360   4.851   3.647   5.724
 7139TIP3   OH221361   7.681   6.510   5.673
 7139TIP3    H121362   7.719   6.435   5.719
 7139TIP3    H221363   7.658   6.476   5.586
 7140TIP3   OH221364   2.381   3.306   1.221
 7140TIP3    H121365   2.375   3.211   1.217
 7140TIP3    H221366   2.433   3.330   1.145
 7141TIP3   OH221367   5.601   2.153   1.209
 7141TIP3    H121368   5.694   2.160   1.185
 7141TIP3    H221369   5.601   2.124   1.300
 7142TIP3   OH221370   0.960   1.765   5.206
 7142TIP3    H121371   0.872   1.765   5.170
 7142TIP3    H221372   0.951   1.804   5.293
 7143TIP3   OH221373   5.988   1.833   6.106
 7143TIP3    H121374   6.072   1.875   6.123
 7143TIP3    H221375   5.994   1.804   6.015
 7144TIP3   OH221376   4.719   2.475   2.467
 7144TIP3    H121377   4.671   2.432   2.397
 7144TIP3    H221378   4.664   2.465   2.544
 7145TIP3   OH221379   3.478   3.583   0.307
 7145TIP3    H121380   3.429   3.538   0.377
 7145TIP3    H221381   3.463   3.529   0.229
 7146TIP3   OH221382   3.583   3.175   4.248
 7146TIP3    H121383   3.578   3.145   4.339
 7146TIP3    H221384   3.663   3.133   4.214
 7147TIP3   OH221385   3.502   0.646   1.282
 7147TIP3    H121386   3.530   0.608   1.365
 7147TIP3    H221387   3.564   0.717   1.267
 7148TIP3   OH221388   0.470   5.578   3.023
 7148TIP3    H121389   0.390   5.580   3.074
 7148TIP3    H221390   0.530   5.638   3.068
 7149TIP3   OH221391   1.595   7.138   4.153
 7149TIP3    H121392   1.504   7.113   4.171
 7149TIP3    H221393   1.587   7.212   4.092
 7150TIP3   OH221394   1.803   1.519   3.493
 7150TIP3    H121395   1.868   1.581   3.461
 7150TIP3    H221396   1.806   1.527   3.588
 7151TIP3   OH221397   5.745   0.440   0.772
 7151TIP3    H121398   5.733   0.535   0.762
 7151TIP3    H221399   5.710   0.420   0.859
 7152TIP3   OH221400   8.278   2.750   2.212
 7152TIP3    H121401   8.338   2.789   2.276
 7152TIP3    H221402   8.204   2.811   2.208
 7153TIP3   OH221403   3.715   2.791   0.263
 7153TIP3    H121404   3.713   2.703   0.226
 7153TIP3    H221405   3.627   2.825   0.249
 7154TIP3   OH221406   2.570   4.603   1.097
 7154TIP3    H121407   2.512   4.536   1.058
 7154TIP3    H221408   2.526   4.686   1.077
 7155TIP3   OH221409   1.705   6.016   4.514
 7155TIP3    H121410   1.771   5.956   4.482
 7155TIP3    H221411   1.730   6.101   4.478
 7156TIP3   OH221412   3.042   6.030   2.348
 7156TIP3    H121413   3.071   6.094   2.282
 7156TIP3    H221414   3.013   6.084   2.421
 7157TIP3   OH221415   8.108   7.671   5.954
 7157TIP3    H121416   8.096   7.749   6.007
 7157TIP3    H221417   8.020   7.650   5.923
 7158TIP3   OH221418   0.313   7.031   0.474
 7158TIP3    H121419   0.402   7.004   0.454
 7158TIP3    H221420   0.280   7.069   0.392
 7159TIP3   OH221421   5.199   2.503   6.718
 7159TIP3    H121422   5.147   2.433   6.757
 7159TIP3    H221423   5.135   2.568   6.690
 7160TIP3   OH221424   7.358   7.187   0.283
 7160TIP3    H121425   7.275   7.168   0.239
 7160TIP3    H221426   7.418   7.211   0.213
 7161TIP3   OH221427   2.096   5.293   0.560
 7161TIP3    H121428   2.094   5.197   0.555
 7161TIP3    H221429   2.004   5.318   0.564
 7162TIP3   OH221430   6.054   4.043   4.245
 7162TIP3    H121431   6.131   4.099   4.256
 7162TIP3    H221432   6.012   4.043   4.331
 7163TIP3   OH221433   6.668   6.260   6.705
 7163TIP3    H121434   6.607   6.190   6.680
 7163TIP3    H221435   6.735   6.258   6.636
 7164TIP3   OH221436   6.978   3.781   6.202
 7164TIP3    H121437   6.917   3.755   6.134
 7164TIP3    H221438   6.939   3.748   6.283
 7165TIP3   OH221439   0.431   4.412   3.363
 7165TIP3    H121440   0.508   4.469   3.365
 7165TIP3    H221441   0.395   4.424   3.275
 7166TIP3   OH221442   3.586   4.365   0.045
 7166TIP3    H121443   3.527   4.439   0.058
 7166TIP3    H221444   3.529   4.288   0.041
 7167TIP3   OH221445   5.316   0.808   1.269
 7167TIP3    H121446   5.332   0.901   1.254
 7167TIP3    H221447   5.223   0.796   1.251
 7168TIP3   OH221448   6.683   4.270   2.760
 7168TIP3    H121449   6.767   4.224   2.766
 7168TIP3    H221450   6.619   4.205   2.790
 7169TIP3   OH221451   4.704   5.008   4.906
 7169TIP3    H121452   4.618   5.034   4.938
 7169TIP3    H221453   4.741   5.088   4.868
 7170TIP3   OH221454   4.090   5.373   2.769
 7170TIP3    H121455   4.107   5.298   2.825
 7170TIP3    H221456   3.995   5.379   2.764
 7171TIP3   OH221457   6.854   0.969   5.952
 7171TIP3    H121458   6.925   0.935   5.897
 7171TIP3    H221459   6.851   1.062   5.931
 7172TIP3   OH221460   3.127   4.121   3.378
 7172TIP3    H121461   3.128   4.079   3.464
 7172TIP3    H221462   3.079   4.203   3.393
 7173TIP3   OH221463   1.413   3.362   5.580
 7173TIP3    H121464   1.469   3.372   5.503
 7173TIP3    H221465   1.350   3.434   5.574
 7174TIP3   OH221466   4.764   5.728   5.796
 7174TIP3    H121467   4.694   5.788   5.820
 7174TIP3    H221468   4.755   5.655   5.857
 7175TIP3   OH221469   5.026   5.998   6.658
 7175TIP3    H121470   5.112   5.956   6.666
 7175TIP3    H221471   5.046   6.087   6.629
 7176TIP3   OH221472   4.513   0.544   5.871
 7176TIP3    H121473   4.428   0.584   5.850
 7176TIP3    H221474   4.512   0.532   5.965
 7177TIP3   OH221475   3.565   1.140   2.218
 7177TIP3    H121476   3.584   1.127   2.310
 7177TIP3    H221477   3.503   1.070   2.196
 7178TIP3   OH221478   4.499   0.803   4.059
 7178TIP3    H121479   4.535   0.720   4.092
 7178TIP3    H221480   4.432   0.827   4.123
 7179TIP3   OH221481   2.164   5.869   2.881
 7179TIP3    H121482   2.208   5.940   2.834
 7179TIP3    H221483   2.198   5.789   2.841
 7180TIP3   OH221484   6.797   2.226   3.191
 7180TIP3    H121485   6.806   2.142   3.146
 7180TIP3    H221486   6.711   2.259   3.163
 7181TIP3   OH221487   5.156   7.283   5.607
 7181TIP3    H121488   5.251   7.285   5.608
 7181TIP3    H221489   5.130   7.376   5.608
 7182TIP3   OH221490   6.554   7.125   2.544
 7182TIP3    H121491   6.628   7.184   2.556
 7182TIP3    H221492   6.509   7.126   2.629
 7183TIP3   OH221493   4.074   7.053   3.205
 7183TIP3    H121494   4.013   7.104   3.258
 7183TIP3    H221495   4.018   7.007   3.142
 7184TIP3   OH221496   3.477   2.625   0.802
 7184TIP3    H121497   3.475   2.579   0.886
 7184TIP3    H221498   3.422   2.572   0.745
 7185TIP3   OH221499   5.173   0.437   3.095
 7185TIP3    H121500   5.104   0.433   3.160
 7185TIP3    H221501   5.169   0.352   3.051
 7186TIP3   OH221502   3.283   0.791   2.921
 7186TIP3    H121503   3.216   0.838   2.873
 7186TIP3    H221504   3.303   0.848   2.996
 7187TIP3   OH221505   6.762   2.489   1.174
 7187TIP3    H121506   6.808   2.412   1.206
 7187TIP3    H221507   6.700   2.511   1.243
 7188TIP3   OH221508   1.022   4.722   4.587
 7188TIP3    H121509   0.954   4.756   4.528
 7188TIP3    H221510   0.974   4.674   4.654
 7189TIP3   OH221511   8.160   3.847   1.059
 7189TIP3    H121512   8.180   3.854   0.966
 7189TIP3    H221513   8.065   3.840   1.063
 7190TIP3   OH221514   3.308   2.483   3.192
 7190TIP3    H121515   3.221   2.467   3.154
 7190TIP3    H221516   3.369   2.449   3.126
 7191TIP3   OH221517   5.491   6.748   6.596
 7191TIP3    H121518   5.532   6.819   6.644
 7191TIP3    H221519   5.441   6.699   6.661
 7192TIP3   OH221520   7.437   7.217   3.157
 7192TIP3    H121521   7.392   7.207   3.240
 7192TIP3    H221522   7.375   7.184   3.092
 7193TIP3   OH221523   3.303   7.122   4.974
 7193TIP3    H121524   3.378   7.177   4.952
 7193TIP3    H221525   3.227   7.170   4.940
 7194TIP3   OH221526   2.008   6.264   1.209
 7194TIP3    H121527   1.914   6.278   1.224
 7194TIP3    H221528   2.032   6.332   1.145
 7195TIP3   OH221529   3.344   2.316   2.066
 7195TIP3    H121530   3.418   2.276   2.021
 7195TIP3    H221531   3.327   2.397   2.019
 7196TIP3   OH221532   3.747   4.670   2.126
 7196TIP3    H121533   3.770   4.641   2.038
 7196TIP3    H221534   3.791   4.754   2.137
 7197TIP3   OH221535   4.997   6.968   6.712
 7197TIP3    H121536   5.034   6.917   6.640
 7197TIP3    H221537   5.067   6.974   6.777
 7198TIP3   OH221538   5.370   4.785   0.925
 7198TIP3    H121539   5.362   4.720   0.996
 7198TIP3    H221540   5.408   4.736   0.852
 7199TIP3   OH221541   1.485   5.305   3.998
 7199TIP3    H121542   1.562   5.249   3.996
 7199TIP3    H221543   1.498   5.366   3.925
 7200TIP3   OH221544   8.092   4.969   6.329
 7200TIP3    H121545   8.128   4.973   6.240
 7200TIP3    H221546   7.997   4.977   6.316
 7201TIP3   OH221547   8.157   5.982   2.742
 7201TIP3    H121548   8.233   6.023   2.699
 7201TIP3    H221549   8.176   5.889   2.741
 7202TIP3   OH221550   1.684   2.847   2.257
 7202TIP3    H121551   1.719   2.863   2.344
 7202TIP3    H221552   1.595   2.817   2.272
 7203TIP3   OH221553   3.638   7.474   1.246
 7203TIP3    H121554   3.723   7.465   1.291
 7203TIP3    H221555   3.634   7.567   1.222
 7204TIP3   OH221556   4.364   2.144   1.021
 7204TIP3    H121557   4.311   2.203   1.075
 7204TIP3    H221558   4.424   2.103   1.083
 7205TIP3   OH221559   7.211   3.726   6.628
 7205TIP3    H121560   7.227   3.815   6.661
 7205TIP3    H221561   7.241   3.729   6.537
 7206TIP3   OH221562   1.772   2.834   5.319
 7206TIP3    H121563   1.813   2.918   5.338
 7206TIP3    H221564   1.678   2.850   5.328
 7207TIP3   OH221565   7.150   4.154   5.702
 7207TIP3    H121566   7.097   4.097   5.758
 7207TIP3    H221567   7.203   4.205   5.762
 7208TIP3   OH221568   4.709   5.637   3.904
 7208TIP3    H121569   4.630   5.615   3.953
 7208TIP3    H221570   4.781   5.615   3.962
 7209TIP3   OH221571   3.157   2.172   5.784
 7209TIP3    H121572   3.172   2.231   5.710
 7209TIP3    H221573   3.075   2.203   5.823
 7210TIP3   OH221574   4.479   4.400   0.996
 7210TIP3    H121575   4.531   4.393   0.916
 7210TIP3    H221576   4.447   4.490   0.997
 7211TIP3   OH221577   7.002   2.613   4.140
 7211TIP3    H121578   6.998   2.518   4.130
 7211TIP3    H221579   6.985   2.647   4.052
 7212TIP3   OH221580   2.469   3.144   0.423
 7212TIP3    H121581   2.526   3.111   0.353
 7212TIP3    H221582   2.527   3.157   0.498
 7213TIP3   OH221583   0.228   0.778   5.198
 7213TIP3    H121584   0.211   0.856   5.146
 7213TIP3    H221585   0.215   0.705   5.137
 7214TIP3   OH221586   5.532   5.667   1.040
 7214TIP3    H121587   5.627   5.676   1.031
 7214TIP3    H221588   5.519   5.639   1.131
 7215TIP3   OH221589   7.668   4.988   1.262
 7215TIP3    H121590   7.608   4.922   1.227
 7215TIP3    H221591   7.738   4.938   1.304
 7216TIP3   OH221592   0.135   0.293   5.746
 7216TIP3    H121593   0.153   0.208   5.705
 7216TIP3    H221594   0.220   0.321   5.780
 7217TIP3   OH221595   0.754   1.765   6.340
 7217TIP3    H121596   0.761   1.671   6.325
 7217TIP3    H221597   0.668   1.789   6.303
 7218TIP3   OH221598   0.500   1.319   3.829
 7218TIP3    H121599   0.553   1.254   3.783
 7218TIP3    H221600   0.557   1.351   3.899
 7219TIP3   OH221601   5.543   1.415   5.891
 7219TIP3    H121602   5.564   1.334   5.939
 7219TIP3    H221603   5.564   1.485   5.952
 7220TIP3   OH221604   0.765   3.958   5.838
 7220TIP3    H121605   0.694   3.921   5.785
 7220TIP3    H221606   0.780   4.045   5.802
 7221TIP3   OH221607   0.365   5.059   1.399
 7221TIP3    H121608   0.280   5.016   1.403
 7221TIP3    H221609   0.344   5.152   1.387
 7222TIP3   OH221610   1.358   7.345   5.835
 7222TIP3    H121611   1.328   7.387   5.754
 7222TIP3    H221612   1.284   7.357   5.896
 7223TIP3   OH221613   4.613   1.109   2.754
 7223TIP3    H121614   4.619   1.189   2.805
 7223TIP3    H221615   4.648   1.133   2.668
 7224TIP3   OH221616   1.203   3.854   5.349
 7224TIP3    H121617   1.149   3.790   5.395
 7224TIP3    H221618   1.284   3.859   5.400
 7225TIP3   OH221619   5.837   0.674   5.798
 7225TIP3    H121620   5.778   0.628   5.739
 7225TIP3    H221621   5.893   0.606   5.834
 7226TIP3   OH221622   2.925   7.522   4.124
 7226TIP3    H121623   2.928   7.466   4.046
 7226TIP3    H221624   2.922   7.460   4.197
 7227TIP3   OH221625   5.147   7.532   4.232
 7227TIP3    H121626   5.173   7.510   4.142
 7227TIP3    H221627   5.149   7.448   4.278
 7228TIP3   OH221628   4.502   2.273   6.168
 7228TIP3    H121629   4.448   2.198   6.192
 7228TIP3    H221630   4.439   2.341   6.143
 7229TIP3   OH221631   4.989   4.102   6.443
 7229TIP3    H121632   4.965   4.158   6.369
 7229TIP3    H221633   5.079   4.128   6.465
 7230TIP3   OH221634   3.711   4.553   2.947
 7230TIP3    H121635   3.703   4.617   3.017
 7230TIP3    H221636   3.620   4.533   2.922
 7231TIP3   OH221637   0.536   2.938   0.052
 7231TIP3    H121638   0.559   2.887  -0.026
 7231TIP3    H221639   0.450   2.976   0.032
 7232TIP3   OH221640   3.214   7.530   5.562
 7232TIP3    H121641   3.202   7.527   5.657
 7232TIP3    H221642   3.253   7.446   5.540
 7233TIP3   OH221643   7.389   0.121   4.146
 7233TIP3    H121644   7.398   0.076   4.062
 7233TIP3    H221645   7.444   0.071   4.206
 7234TIP3   OH221646   6.938   4.498   4.669
 7234TIP3    H121647   6.877   4.508   4.742
 7234TIP3    H221648   7.024   4.490   4.711
 7235TIP3   OH221649   6.718   5.416   4.196
 7235TIP3    H121650   6.756   5.396   4.111
 7235TIP3    H221651   6.773   5.369   4.259
 7236TIP3   OH221652   6.884   4.965   1.068
 7236TIP3    H121653   6.952   5.032   1.066
 7236TIP3    H221654   6.878   4.939   1.160
 7237TIP3   OH221655   3.958   5.567   0.376
 7237TIP3    H121656   3.863   5.554   0.375
 7237TIP3    H221657   3.972   5.632   0.445
 7238TIP3   OH221658   3.035   0.757   5.776
 7238TIP3    H121659   3.107   0.739   5.714
 7238TIP3    H221660   3.016   0.850   5.763
 7239TIP3   OH221661   3.236   4.761   4.774
 7239TIP3    H121662   3.319   4.807   4.784
 7239TIP3    H221663   3.199   4.796   4.693
 7240TIP3   OH221664   7.832   3.107   5.734
 7240TIP3    H121665   7.900   3.174   5.727
 7240TIP3    H221666   7.866   3.046   5.799
 7241TIP3   OH221667   5.761   6.565   5.530
 7241TIP3    H121668   5.781   6.476   5.502
 7241TIP3    H221669   5.703   6.599   5.462
 7242TIP3   OH221670   5.580   4.695   2.553
 7242TIP3    H121671   5.553   4.730   2.468
 7242TIP3    H221672   5.517   4.625   2.571
 7243TIP3   OH221673   5.211   2.140   5.785
 7243TIP3    H121674   5.171   2.225   5.805
 7243TIP3    H221675   5.246   2.149   5.697
 7244TIP3   OH221676   5.186   0.912   4.218
 7244TIP3    H121677   5.163   0.835   4.167
 7244TIP3    H221678   5.135   0.983   4.179
 7245TIP3   OH221679   0.752   6.919   6.576
 7245TIP3    H121680   0.698   6.842   6.596
 7245TIP3    H221681   0.694   6.993   6.592
 7246TIP3   OH221682   8.140   1.148   3.992
 7246TIP3    H121683   8.164   1.212   4.059
 7246TIP3    H221684   8.221   1.131   3.944
 7247TIP3   OH221685   7.761   6.990   4.241
 7247TIP3    H121686   7.819   6.972   4.167
 7247TIP3    H221687   7.801   7.066   4.283
 7248TIP3   OH221688   7.823   6.186   3.766
 7248TIP3    H121689   7.833   6.118   3.699
 7248TIP3    H221690   7.781   6.141   3.840
 7249TIP3   OH221691   2.244   3.452   0.638
 7249TIP3    H121692   2.334   3.482   0.652
 7249TIP3    H221693   2.213   3.501   0.562
 7250TIP3   OH221694   7.450   4.967   6.084
 7250TIP3    H121695   7.396   4.965   6.162
 7250TIP3    H221696   7.494   4.882   6.083
 7251TIP3   OH221697   4.674   3.410   4.939
 7251TIP3    H121698   4.582   3.384   4.941
 7251TIP3    H221699   4.672   3.505   4.936
 7252TIP3   OH221700   7.718   0.053   2.752
 7252TIP3    H121701   7.788   0.057   2.687
 7252TIP3    H221702   7.698  -0.040   2.760
 7253TIP3   OH221703   1.121   0.516   2.571
 7253TIP3    H121704   1.087   0.592   2.617
 7253TIP3    H221705   1.175   0.471   2.635
 7254TIP3   OH221706   6.257   7.360   2.645
 7254TIP3    H121707   6.273   7.274   2.685
 7254TIP3    H221708   6.163   7.362   2.629
 7255TIP3   OH221709   0.451   1.562   2.085
 7255TIP3    H121710   0.389   1.559   2.157
 7255TIP3    H221711   0.534   1.533   2.123
 7256TIP3   OH221712   3.778   1.881   5.545
 7256TIP3    H121713   3.685   1.857   5.547
 7256TIP3    H221714   3.823   1.804   5.580
 7257TIP3   OH221715   6.951   4.971   0.164
 7257TIP3    H121716   7.000   4.995   0.243
 7257TIP3    H221717   7.015   4.930   0.107
 7258TIP3   OH221718   0.471   0.079   1.293
 7258TIP3    H121719   0.429   0.163   1.274
 7258TIP3    H221720   0.399   0.017   1.297
 7259TIP3   OH221721   2.373   4.713   1.872
 7259TIP3    H121722   2.414   4.752   1.795
 7259TIP3    H221723   2.436   4.727   1.943
 7260TIP3   OH221724   7.074   5.101   4.228
 7260TIP3    H121725   6.988   5.092   4.186
 7260TIP3    H221726   7.128   5.036   4.183
 7261TIP3   OH221727   6.942   5.706   4.616
 7261TIP3    H121728   7.033   5.682   4.633
 7261TIP3    H221729   6.910   5.738   4.700
 7262TIP3   OH221730   3.047   5.825   5.587
 7262TIP3    H121731   3.115   5.886   5.558
 7262TIP3    H221732   2.970   5.879   5.601
 7263TIP3   OH221733   7.492   3.115   6.535
 7263TIP3    H121734   7.440   3.067   6.599
 7263TIP3    H221735   7.478   3.207   6.556
 7264TIP3   OH221736   8.147   7.344   2.309
 7264TIP3    H121737   8.165   7.336   2.403
 7264TIP3    H221738   8.108   7.259   2.285
 7265TIP3   OH221739   1.962   1.926   5.538
 7265TIP3    H121740   2.043   1.887   5.568
 7265TIP3    H221741   1.965   2.016   5.570
 7266TIP3   OH221742   7.137   5.237   1.807
 7266TIP3    H121743   7.204   5.280   1.860
 7266TIP3    H221744   7.089   5.182   1.869
 7267TIP3   OH221745   5.002   3.022   1.049
 7267TIP3    H121746   4.963   3.031   0.962
 7267TIP3    H221747   5.086   3.066   1.043
 7268TIP3   OH221748   1.795   5.741   1.616
 7268TIP3    H121749   1.753   5.816   1.574
 7268TIP3    H221750   1.874   5.726   1.564
 7269TIP3   OH221751   3.311   3.422   5.279
 7269TIP3    H121752   3.219   3.424   5.306
 7269TIP3    H221753   3.324   3.334   5.246
 7270TIP3   OH221754   5.993   6.699   1.144
 7270TIP3    H121755   5.914   6.665   1.185
 7270TIP3    H221756   6.061   6.690   1.211
 7271TIP3   OH221757   0.071   6.502   2.907
 7271TIP3    H121758   0.098   6.462   2.990
 7271TIP3    H221759   0.103   6.592   2.913
 7272TIP3   OH221760   0.657   0.505   6.083
 7272TIP3    H121761   0.714   0.549   6.020
 7272TIP3    H221762   0.654   0.414   6.053
 7273TIP3   OH221763   8.170   5.759   4.899
 7273TIP3    H121764   8.163   5.853   4.882
 7273TIP3    H221765   8.220   5.726   4.824
 7274TIP3   OH221766   4.310   0.047   6.654
 7274TIP3    H121767   4.306  -0.049   6.659
 7274TIP3    H221768   4.376   0.065   6.586
 7275TIP3   OH221769   7.551   3.941   2.263
 7275TIP3    H121770   7.600   3.866   2.296
 7275TIP3    H221771   7.569   3.942   2.169
 7276TIP3   OH221772   1.695   7.828   3.873
 7276TIP3    H121773   1.642   7.872   3.939
 7276TIP3    H221774   1.709   7.740   3.908
 7277TIP3   OH221775   7.980   4.612   2.370
 7277TIP3    H121776   7.958   4.704   2.356
 7277TIP3    H221777   7.902   4.564   2.341
 7278TIP3   OH221778   0.529   0.412   1.497
 7278TIP3    H121779   0.451   0.368   1.463
 7278TIP3    H221780   0.541   0.487   1.438
 7279TIP3   OH221781   1.237   5.842   1.556
 7279TIP3    H121782   1.166   5.906   1.562
 7279TIP3    H221783   1.264   5.829   1.647
 7280TIP3   OH221784   6.671   4.593   2.064
 7280TIP3    H121785   6.741   4.528   2.072
 7280TIP3    H221786   6.647   4.614   2.154
 7281TIP3   OH221787   5.543   2.613   3.833
 7281TIP3    H121788   5.534   2.518   3.823
 7281TIP3    H221789   5.617   2.623   3.893
 7282TIP3   OH221790   2.378   2.458   3.016
 7282TIP3    H121791   2.419   2.380   2.978
 7282TIP3    H221792   2.303   2.424   3.066
 7283TIP3   OH221793   0.580   0.791   3.799
 7283TIP3    H121794   0.533   0.744   3.867
 7283TIP3    H221795   0.556   0.746   3.718
 7284TIP3   OH221796   0.166   1.690   2.525
 7284TIP3    H121797   0.137   1.780   2.539
 7284TIP3    H221798   0.089   1.637   2.545
 7285TIP3   OH221799   0.890   0.395   0.166
 7285TIP3    H121800   0.902   0.345   0.086
 7285TIP3    H221801   0.904   0.486   0.140
 7286TIP3   OH221802   2.824   5.761   4.062
 7286TIP3    H121803   2.840   5.667   4.071
 7286TIP3    H221804   2.856   5.799   4.144
 7287TIP3   OH221805   4.066   0.136   0.193
 7287TIP3    H121806   3.993   0.074   0.191
 7287TIP3    H221807   4.064   0.173   0.282
 7288TIP3   OH221808   5.597   4.457   4.115
 7288TIP3    H121809   5.531   4.458   4.045
 7288TIP3    H221810   5.585   4.541   4.160
 7289TIP3   OH221811   1.404   5.665   5.286
 7289TIP3    H121812   1.376   5.641   5.374
 7289TIP3    H221813   1.322   5.686   5.241
 7290TIP3   OH221814   2.439   6.282   5.184
 7290TIP3    H121815   2.430   6.283   5.089
 7290TIP3    H221816   2.420   6.371   5.212
 7291TIP3   OH221817   0.606   3.861   2.864
 7291TIP3    H121818   0.656   3.799   2.918
 7291TIP3    H221819   0.608   3.943   2.914
 7292TIP3   OH221820   5.614   5.789   2.332
 7292TIP3    H121821   5.673   5.853   2.371
 7292TIP3    H221822   5.526   5.819   2.355
 7293TIP3   OH221823   2.268   0.536   0.004
 7293TIP3    H121824   2.198   0.597  -0.020
 7293TIP3    H221825   2.265   0.534   0.100
 7294TIP3   OH221826   2.672   4.813   4.174
 7294TIP3    H121827   2.615   4.888   4.189
 7294TIP3    H221828   2.748   4.848   4.129
 7295TIP3   OH221829   6.264   1.336   6.470
 7295TIP3    H121830   6.199   1.291   6.523
 7295TIP3    H221831   6.324   1.375   6.534
 7296TIP3   OH221832   6.448   6.779   1.368
 7296TIP3    H121833   6.519   6.820   1.418
 7296TIP3    H221834   6.453   6.818   1.281
 7297TIP3   OH221835   1.835   6.211   0.136
 7297TIP3    H121836   1.837   6.294   0.088
 7297TIP3    H221837   1.760   6.219   0.195
 7298TIP3   OH221838   6.305   6.774   5.460
 7298TIP3    H121839   6.327   6.683   5.483
 7298TIP3    H221840   6.381   6.825   5.490
 7299TIP3   OH221841   7.959   6.191   4.420
 7299TIP3    H121842   8.015   6.264   4.396
 7299TIP3    H221843   7.884   6.232   4.463
 7300TIP3   OH221844   3.366   1.922   6.209
 7300TIP3    H121845   3.273   1.925   6.229
 7300TIP3    H221846   3.377   1.984   6.137
 7301TIP3   OH221847   1.321   1.398   1.477
 7301TIP3    H121848   1.257   1.416   1.408
 7301TIP3    H221849   1.376   1.328   1.443
 7302TIP3   OH221850   2.868   6.736   1.956
 7302TIP3    H121851   2.900   6.762   1.870
 7302TIP3    H221852   2.780   6.701   1.940
 7303TIP3   OH221853   0.638   5.817   2.794
 7303TIP3    H121854   0.547   5.845   2.803
 7303TIP3    H221855   0.636   5.752   2.724
 7304TIP3   OH221856   7.367   2.783   5.306
 7304TIP3    H121857   7.340   2.692   5.309
 7304TIP3    H221858   7.287   2.832   5.287
 7305TIP3   OH221859   0.131   4.524   0.897
 7305TIP3    H121860   0.125   4.488   0.809
 7305TIP3    H221861   0.213   4.489   0.932
 7306TIP3   OH221862   5.140   7.139   5.854
 7306TIP3    H121863   5.115   7.176   5.769
 7306TIP3    H221864   5.130   7.211   5.916
 7307TIP3   OH221865   5.470   3.052   3.285
 7307TIP3    H121866   5.519   3.133   3.271
 7307TIP3    H221867   5.383   3.071   3.249
 7308TIP3   OH221868   7.888   3.899   1.052
 7308TIP3    H121869   7.831   3.824   1.033
 7308TIP3    H221870   7.828   3.972   1.067
 7309TIP3   OH221871   5.582   7.415   0.163
 7309TIP3    H121872   5.633   7.391   0.086
 7309TIP3    H221873   5.648   7.431   0.231
 7310TIP3   OH221874   5.030   7.476   5.386
 7310TIP3    H121875   5.010   7.527   5.465
 7310TIP3    H221876   4.955   7.417   5.376
 7311TIP3   OH221877   6.257   4.246   3.287
 7311TIP3    H121878   6.298   4.210   3.366
 7311TIP3    H221879   6.330   4.288   3.241
 7312TIP3   OH221880   7.406   6.810   0.473
 7312TIP3    H121881   7.399   6.885   0.531
 7312TIP3    H221882   7.500   6.794   0.464
 7313TIP3   OH221883   0.543   6.662   4.442
 7313TIP3    H121884   0.460   6.669   4.490
 7313TIP3    H221885   0.558   6.568   4.432
 7314TIP3   OH221886   4.485   5.810   3.960
 7314TIP3    H121887   4.468   5.859   4.040
 7314TIP3    H221888   4.577   5.830   3.939
 7315TIP3   OH221889   7.521   3.809   5.553
 7315TIP3    H121890   7.465   3.756   5.495
 7315TIP3    H221891   7.489   3.789   5.641
 7316TIP3   OH221892   2.238   4.893   0.195
 7316TIP3    H121893   2.258   4.845   0.276
 7316TIP3    H221894   2.302   4.861   0.132
 7317TIP3   OH221895   6.506   0.650   4.818
 7317TIP3    H121896   6.601   0.639   4.820
 7317TIP3    H221897   6.471   0.562   4.806
 7318TIP3   OH221898   3.538   6.700   5.983
 7318TIP3    H121899   3.625   6.734   6.004
 7318TIP3    H221900   3.518   6.639   6.054
 7319TIP3   OH221901   6.892   5.819   4.852
 7319TIP3    H121902   6.971   5.838   4.902
 7319TIP3    H221903   6.832   5.891   4.872
 7320TIP3   OH221904   1.450   6.465   5.223
 7320TIP3    H121905   1.419   6.529   5.159
 7320TIP3    H221906   1.457   6.383   5.175
 7321TIP3   OH221907   2.509   7.416   1.447
 7321TIP3    H121908   2.438   7.464   1.491
 7321TIP3    H221909   2.520   7.462   1.364
 7322TIP3   OH221910   7.166   5.004   6.641
 7322TIP3    H121911   7.095   5.055   6.603
 7322TIP3    H221912   7.193   4.944   6.571
 7323TIP3   OH221913   2.422   5.760   5.138
 7323TIP3    H121914   2.420   5.844   5.092
 7323TIP3    H221915   2.354   5.708   5.094
 7324TIP3   OH221916   4.787   4.579   6.734
 7324TIP3    H121917   4.737   4.637   6.676
 7324TIP3    H221918   4.736   4.498   6.736
 7325TIP3   OH221919   0.980   4.105   5.532
 7325TIP3    H121920   0.901   4.051   5.535
 7325TIP3    H221921   1.032   4.075   5.608
 7326TIP3   OH221922   6.937   0.551   4.644
 7326TIP3    H121923   6.923   0.517   4.555
 7326TIP3    H221924   7.028   0.530   4.663
 7327TIP3   OH221925   0.788   0.635   0.770
 7327TIP3    H121926   0.794   0.600   0.681
 7327TIP3    H221927   0.763   0.561   0.824
 7328TIP3   OH221928   1.509   6.389   0.550
 7328TIP3    H121929   1.434   6.447   0.538
 7328TIP3    H221930   1.471   6.301   0.553
 7329TIP3   OH221931   1.283   5.941   2.223
 7329TIP3    H121932   1.197   5.953   2.263
 7329TIP3    H221933   1.335   6.015   2.254
 7330TIP3   OH221934   5.953   3.338   6.409
 7330TIP3    H121935   5.909   3.400   6.466
 7330TIP3    H221936   5.927   3.364   6.321
 7331TIP3   OH221937   6.741   0.455   3.133
 7331TIP3    H121938   6.828   0.493   3.143
 7331TIP3    H221939   6.681   0.524   3.161
 7332TIP3   OH221940   5.608   1.615   4.339
 7332TIP3    H121941   5.589   1.597   4.247
 7332TIP3    H221942   5.642   1.533   4.374
 7333TIP3   OH221943   7.440   4.449   6.027
 7333TIP3    H121944   7.527   4.407   6.020
 7333TIP3    H221945   7.448   4.507   6.103
 7334TIP3   OH221946   2.884   1.096   4.928
 7334TIP3    H121947   2.873   1.065   4.838
 7334TIP3    H221948   2.797   1.085   4.968
 7335TIP3   OH221949   4.746   6.214   4.216
 7335TIP3    H121950   4.794   6.143   4.259
 7335TIP3    H221951   4.729   6.277   4.286
 7336TIP3   OH221952   7.966   2.196   5.733
 7336TIP3    H121953   7.881   2.223   5.768
 7336TIP3    H221954   8.029   2.227   5.799
 7337TIP3   OH221955   6.859   2.484   5.766
 7337TIP3    H121956   6.834   2.392   5.766
 7337TIP3    H221957   6.955   2.483   5.760
 7338TIP3   OH221958   3.442   0.267   0.177
 7338TIP3    H121959   3.405   0.303   0.096
 7338TIP3    H221960   3.393   0.310   0.247
 7339TIP3   OH221961   2.783   3.751   0.863
 7339TIP3    H121962   2.822   3.730   0.778
 7339TIP3    H221963   2.701   3.796   0.841
 7340TIP3   OH221964   2.223   0.109   0.240
 7340TIP3    H121965   2.183   0.159   0.169
 7340TIP3    H221966   2.185   0.145   0.320
 7341TIP3   OH221967   4.936   7.729   6.356
 7341TIP3    H121968   4.961   7.819   6.379
 7341TIP3    H221969   4.866   7.708   6.418
 7342TIP3   OH221970   6.628   4.775   3.942
 7342TIP3    H121971   6.605   4.695   3.894
 7342TIP3    H221972   6.691   4.745   4.008
 7343TIP3   OH221973   5.824   4.890   1.125
 7343TIP3    H121974   5.815   4.809   1.176
 7343TIP3    H221975   5.876   4.864   1.048
 7344TIP3   OH221976   3.259   0.634   0.520
 7344TIP3    H121977   3.201   0.708   0.503
 7344TIP3    H221978   3.216   0.587   0.591
 7345TIP3   OH221979   8.097   6.170   6.187
 7345TIP3    H121980   8.090   6.213   6.101
 7345TIP3    H221981   8.025   6.207   6.238
 7346TIP3   OH221982   2.636   6.270   3.679
 7346TIP3    H121983   2.722   6.241   3.648
 7346TIP3    H221984   2.573   6.212   3.635
 7347TIP3   OH221985   0.205   2.229   6.253
 7347TIP3    H121986   0.272   2.258   6.191
 7347TIP3    H221987   0.194   2.303   6.313
 7348TIP3   OH221988   4.104   6.162   5.074
 7348TIP3    H121989   4.060   6.084   5.108
 7348TIP3    H221990   4.033   6.218   5.043
 7349TIP3   OH221991   0.033   3.463   2.486
 7349TIP3    H121992   0.089   3.476   2.563
 7349TIP3    H221993  -0.014   3.382   2.504
 7350TIP3   OH221994   3.766   4.756   1.602
 7350TIP3    H121995   3.760   4.821   1.673
 7350TIP3    H221996   3.860   4.750   1.584
 7351TIP3   OH221997   1.237   7.574   6.520
 7351TIP3    H121998   1.194   7.584   6.605
 7351TIP3    H221999   1.324   7.613   6.533
 7352TIP3   OH222000   7.252   1.639   1.553
 7352TIP3    H122001   7.262   1.628   1.459
 7352TIP3    H222002   7.158   1.651   1.566
 7353TIP3   OH222003   6.868   1.526   2.191
 7353TIP3    H122004   6.883   1.518   2.285
 7353TIP3    H222005   6.792   1.471   2.174
 7354TIP3   OH222006   6.070   6.861   0.668
 7354TIP3    H122007   6.019   6.902   0.738
 7354TIP3    H222008   6.060   6.767   0.683
 7355TIP3   OH222009   6.180   7.452   3.986
 7355TIP3    H122010   6.110   7.508   3.952
 7355TIP3    H222011   6.237   7.438   3.910
 7356TIP3   OH222012   2.250   4.314   3.447
 7356TIP3    H122013   2.319   4.299   3.383
 7356TIP3    H222014   2.296   4.329   3.530
 7357TIP3   OH222015   5.684   6.371   2.746
 7357TIP3    H122016   5.659   6.285   2.709
 7357TIP3    H222017   5.731   6.414   2.675
 7358TIP3   OH222018   7.143   1.570   1.837
 7358TIP3    H122019   7.186   1.559   1.752
 7358TIP3    H222020   7.098   1.654   1.831
 7359TIP3   OH222021   2.493   5.450   1.648
 7359TIP3    H122022   2.572   5.501   1.666
 7359TIP3    H222023   2.438   5.509   1.596
 7360TIP3   OH222024   3.631   5.033   5.845
 7360TIP3    H122025   3.555   4.975   5.853
 7360TIP3    H222026   3.707   4.974   5.844
 7361TIP3   OH222027   7.703   2.402   4.241
 7361TIP3    H122028   7.714   2.315   4.279
 7361TIP3    H222029   7.690   2.460   4.316
 7362TIP3   OH222030   0.576   1.379   5.376
 7362TIP3    H122031   0.522   1.306   5.345
 7362TIP3    H222032   0.571   1.373   5.471
 7363TIP3   OH222033   3.476   7.388   4.379
 7363TIP3    H122034   3.443   7.441   4.307
 7363TIP3    H222035   3.424   7.307   4.376
 7364TIP3   OH222036   4.608   2.727   2.356
 7364TIP3    H122037   4.677   2.663   2.370
 7364TIP3    H222038   4.529   2.685   2.393
 7365TIP3   OH222039   1.995   4.172   3.350
 7365TIP3    H122040   2.032   4.138   3.268
 7365TIP3    H222041   2.068   4.218   3.391
 7366TIP3   OH222042   5.190   7.433   0.406
 7366TIP3    H122043   5.186   7.486   0.327
 7366TIP3    H222044   5.247   7.360   0.382
 7367TIP3   OH222045   4.067   5.554   5.543
 7367TIP3    H122046   4.155   5.553   5.504
 7367TIP3    H222047   4.010   5.585   5.474
 7368TIP3   OH222048   6.970   1.951   5.261
 7368TIP3    H122049   6.993   2.043   5.245
 7368TIP3    H222050   7.047   1.902   5.232
 7369TIP3   OH222051   0.441   2.847   0.698
 7369TIP3    H122052   0.480   2.764   0.668
 7369TIP3    H222053   0.393   2.880   0.622
 7370TIP3   OH222054   6.049   3.494   1.216
 7370TIP3    H122055   6.008   3.416   1.179
 7370TIP3    H222056   6.110   3.460   1.281
 7371TIP3   OH222057   1.188   7.601   0.086
 7371TIP3    H122058   1.185   7.638  -0.002
 7371TIP3    H222059   1.280   7.607   0.112
 7372TIP3   OH222060   2.095   7.234   5.879
 7372TIP3    H122061   2.081   7.230   5.785
 7372TIP3    H222062   2.012   7.266   5.914
 7373TIP3   OH222063   2.223   5.897   0.520
 7373TIP3    H122064   2.307   5.854   0.539
 7373TIP3    H222065   2.192   5.853   0.440
 7374TIP3   OH222066   6.531   2.669   6.393
 7374TIP3    H122067   6.436   2.671   6.407
 7374TIP3    H222068   6.542   2.685   6.299
 7375TIP3   OH222069   5.326   0.209   4.159
 7375TIP3    H122070   5.241   0.166   4.149
 7375TIP3    H222071   5.314   0.270   4.232
 7376TIP3   OH222072   3.745   0.053   3.192
 7376TIP3    H122073   3.714   0.111   3.122
 7376TIP3    H222074   3.812   0.104   3.237
 7377TIP3   OH222075   2.416   3.881   2.766
 7377TIP3    H122076   2.491   3.900   2.709
 7377TIP3    H222077   2.351   3.948   2.742
 7378TIP3   OH222078   3.291   7.044   1.174
 7378TIP3    H122079   3.269   6.976   1.239
 7378TIP3    H222080   3.284   7.000   1.090
 7379TIP3   OH222081   1.427   4.396   4.016
 7379TIP3    H122082   1.335   4.367   4.020
 7379TIP3    H222083   1.454   4.403   4.108
 7380TIP3   OH222084   6.116   4.019   3.988
 7380TIP3    H122085   6.071   4.011   4.072
 7380TIP3    H222086   6.209   4.007   4.010
 7381TIP3   OH222087   4.724   6.511   0.101
 7381TIP3    H122088   4.776   6.503   0.021
 7381TIP3    H222089   4.635   6.525   0.070
 7382TIP3   OH222090   1.076   6.757   4.879
 7382TIP3    H122091   0.995   6.741   4.928
 7382TIP3    H222092   1.062   6.713   4.795
 7383TIP3   OH222093   6.863   1.166   1.175
 7383TIP3    H122094   6.895   1.124   1.255
 7383TIP3    H222095   6.942   1.187   1.126
 7384TIP3   OH222096   1.043   3.358   2.124
 7384TIP3    H122097   1.082   3.436   2.162
 7384TIP3    H222098   1.036   3.377   2.030
 7385TIP3   OH222099   0.471   5.138   2.874
 7385TIP3    H122100   0.417   5.211   2.903
 7385TIP3    H222101   0.426   5.060   2.906
 7386TIP3   OH222102   7.384   1.655   5.313
 7386TIP3    H122103   7.396   1.748   5.295
 7386TIP3    H222104   7.417   1.643   5.402
 7387TIP3   OH222105   7.480   7.157   2.453
 7387TIP3    H122106   7.539   7.213   2.404
 7387TIP3    H222107   7.484   7.072   2.408
 7388TIP3   OH222108   2.076   6.446   6.286
 7388TIP3    H122109   2.045   6.374   6.232
 7388TIP3    H222110   2.015   6.518   6.269
 7389TIP3   OH222111   3.625   1.462   0.448
 7389TIP3    H122112   3.693   1.487   0.385
 7389TIP3    H222113   3.673   1.445   0.529
 7390TIP3   OH222114   2.675   1.756   5.574
 7390TIP3    H122115   2.693   1.842   5.612
 7390TIP3    H222116   2.599   1.771   5.517
 7391TIP3   OH222117   6.863   2.929   1.923
 7391TIP3    H122118   6.914   2.988   1.867
 7391TIP3    H222119   6.905   2.935   2.009
 7392TIP3   OH222120   0.793   2.222   2.219
 7392TIP3    H122121   0.886   2.237   2.238
 7392TIP3    H222122   0.779   2.130   2.241
 7393TIP3   OH222123   2.365   6.713   4.429
 7393TIP3    H122124   2.287   6.765   4.409
 7393TIP3    H222125   2.438   6.775   4.417
 7394TIP3   OH222126   6.878   3.597   4.589
 7394TIP3    H122127   6.785   3.611   4.570
 7394TIP3    H222128   6.880   3.519   4.645
 7395TIP3   OH222129   6.490   3.336   1.605
 7395TIP3    H122130   6.408   3.362   1.563
 7395TIP3    H222131   6.519   3.415   1.651
 7396TIP3   OH222132   0.105   4.411   3.429
 7396TIP3    H122133   0.070   4.349   3.492
 7396TIP3    H222134   0.195   4.427   3.457
 7397TIP3   OH222135   1.850   3.999   3.599
 7397TIP3    H122136   1.841   3.910   3.566
 7397TIP3    H222137   1.761   4.024   3.623
 7398TIP3   OH222138   7.029   1.990   0.852
 7398TIP3    H122139   7.096   2.055   0.831
 7398TIP3    H222140   6.949   2.025   0.812
 7399TIP3   OH222141   6.590   0.826   1.703
 7399TIP3    H122142   6.501   0.792   1.719
 7399TIP3    H222143   6.598   0.829   1.608
 7400TIP3   OH222144   6.884   2.318   1.738
 7400TIP3    H122145   6.893   2.358   1.824
 7400TIP3    H222146   6.973   2.314   1.704
 7401TIP3   OH222147   7.477   2.083   5.568
 7401TIP3    H122148   7.422   2.161   5.559
 7401TIP3    H222149   7.445   2.024   5.500
 7402TIP3   OH222150   8.001   1.458   2.699
 7402TIP3    H122151   7.931   1.415   2.748
 7402TIP3    H222152   8.003   1.547   2.734
 7403TIP3   OH222153   5.601   2.014   0.479
 7403TIP3    H122154   5.524   2.012   0.423
 7403TIP3    H222155   5.566   2.015   0.568
 7404TIP3   OH222156   6.583   0.353   2.297
 7404TIP3    H122157   6.586   0.352   2.392
 7404TIP3    H222158   6.670   0.381   2.270
 7405TIP3   OH222159   6.378   0.781   3.970
 7405TIP3    H122160   6.349   0.721   3.901
 7405TIP3    H222161   6.432   0.846   3.924
 7406TIP3   OH222162   0.697   2.060   1.209
 7406TIP3    H122163   0.655   2.016   1.136
 7406TIP3    H222164   0.631   2.060   1.279
 7407TIP3   OH222165   6.547   0.766   1.255
 7407TIP3    H122166   6.506   0.800   1.335
 7407TIP3    H222167   6.486   0.699   1.224
 7408TIP3   OH222168   0.122   7.127   0.229
 7408TIP3    H122169   0.143   7.034   0.232
 7408TIP3    H222170   0.026   7.130   0.226
 7409TIP3   OH222171   0.364   1.118  -0.019
 7409TIP3    H122172   0.437   1.055  -0.021
 7409TIP3    H222173   0.327   1.109   0.069
 7410TIP3   OH222174   0.571   0.457   3.737
 7410TIP3    H122175   0.665   0.440   3.744
 7410TIP3    H222176   0.542   0.468   3.828
 7411TIP3   OH222177   1.046   2.582   4.634
 7411TIP3    H122178   1.056   2.674   4.611
 7411TIP3    H222179   1.019   2.540   4.552
 7412TIP3   OH222180   6.123   1.958   0.821
 7412TIP3    H122181   6.142   1.870   0.787
 7412TIP3    H222182   6.205   1.985   0.862
 7413TIP3   OH222183   7.795   7.709   3.279
 7413TIP3    H122184   7.725   7.643   3.277
 7413TIP3    H222185   7.811   7.724   3.373
 7414TIP3   OH222186   0.276   0.413   3.554
 7414TIP3    H122187   0.310   0.355   3.485
 7414TIP3    H222188   0.182   0.395   3.556
 7415TIP3   OH222189   5.473   7.016   1.649
 7415TIP3    H122190   5.413   6.953   1.689
 7415TIP3    H222191   5.555   7.005   1.697
 7416TIP3   OH222192   1.400   5.645   3.438
 7416TIP3    H122193   1.313   5.631   3.400
 7416TIP3    H222194   1.385   5.649   3.532
 7417TIP3   OH222195   1.084   3.798   3.551
 7417TIP3    H122196   1.082   3.879   3.500
 7417TIP3    H222197   0.994   3.786   3.582
 7418TIP3   OH222198   1.881   0.597   6.244
 7418TIP3    H122199   1.884   0.614   6.149
 7418TIP3    H222200   1.864   0.503   6.251
 7419TIP3   OH222201   0.025   3.732   3.687
 7419TIP3    H122202   0.094   3.794   3.709
 7419TIP3    H222203  -0.023   3.720   3.770
 7420TIP3   OH222204   1.647   0.103   2.114
 7420TIP3    H122205   1.581   0.154   2.066
 7420TIP3    H222206   1.684   0.045   2.048
 7421TIP3   OH222207   1.852   6.514   0.527
 7421TIP3    H122208   1.926   6.455   0.538
 7421TIP3    H222209   1.891   6.597   0.498
 7422TIP3   OH222210   2.148   4.193   0.341
 7422TIP3    H122211   2.172   4.284   0.361
 7422TIP3    H222212   2.195   4.141   0.407
 7423TIP3   OH222213   5.577   4.486   4.488
 7423TIP3    H122214   5.565   4.466   4.580
 7423TIP3    H222215   5.627   4.413   4.453
 7424TIP3   OH222216   3.051   0.083   5.835
 7424TIP3    H122217   3.010   0.009   5.882
 7424TIP3    H222218   3.137   0.051   5.810
 7425TIP3   OH222219   0.691   2.135   4.956
 7425TIP3    H122220   0.770   2.150   5.009
 7425TIP3    H222221   0.724   2.111   4.870
 7426TIP3   OH222222   3.860   5.146   0.386
 7426TIP3    H122223   3.861   5.095   0.306
 7426TIP3    H222224   3.776   5.126   0.427
 7427TIP3   OH222225   4.826   4.102   0.781
 7427TIP3    H122226   4.814   4.020   0.829
 7427TIP3    H222227   4.765   4.097   0.707
 7428TIP3   OH222228   6.373   5.770   2.319
 7428TIP3    H122229   6.319   5.715   2.263
 7428TIP3    H222230   6.412   5.709   2.382
 7429TIP3   OH222231   1.870   1.961   6.509
 7429TIP3    H122232   1.819   2.007   6.575
 7429TIP3    H222233   1.953   2.010   6.504
 7430TIP3   OH222234   4.195   2.161   2.964
 7430TIP3    H122235   4.134   2.090   2.943
 7430TIP3    H222236   4.266   2.150   2.900
 7431TIP3   OH222237   3.163   5.672   6.745
 7431TIP3    H122238   3.247   5.696   6.782
 7431TIP3    H222239   3.181   5.658   6.652
 7432TIP3   OH222240   3.398   4.380   1.341
 7432TIP3    H122241   3.358   4.335   1.267
 7432TIP3    H222242   3.371   4.472   1.331
 7433TIP3   OH222243   7.536   1.678   3.251
 7433TIP3    H122244   7.557   1.617   3.322
 7433TIP3    H222245   7.456   1.643   3.212
 7434TIP3   OH222246   0.375   5.738   5.012
 7434TIP3    H122247   0.348   5.812   5.067
 7434TIP3    H222248   0.316   5.667   5.038
 7435TIP3   OH222249   0.117   4.437   4.264
 7435TIP3    H122250   0.108   4.363   4.203
 7435TIP3    H222251   0.054   4.419   4.333
 7436TIP3   OH222252   2.349   0.570   5.355
 7436TIP3    H122253   2.337   0.557   5.449
 7436TIP3    H222254   2.372   0.662   5.346
 7437TIP3   OH222255   3.166   6.045   5.906
 7437TIP3    H122256   3.199   6.110   5.967
 7437TIP3    H222257   3.117   6.095   5.841
 7438TIP3   OH222258   1.156   2.643   5.817
 7438TIP3    H122259   1.203   2.560   5.810
 7438TIP3    H222260   1.224   2.709   5.828
 7439TIP3   OH222261   1.009   6.968   0.992
 7439TIP3    H122262   1.052   6.899   0.941
 7439TIP3    H222263   0.928   6.986   0.945
 7440TIP3   OH222264   4.177   6.655   4.907
 7440TIP3    H122265   4.117   6.688   4.974
 7440TIP3    H222266   4.263   6.659   4.947
 7441TIP3   OH222267   5.422   3.551   2.619
 7441TIP3    H122268   5.405   3.470   2.667
 7441TIP3    H222269   5.514   3.546   2.594
 7442TIP3   OH222270   2.339   2.969   3.029
 7442TIP3    H122271   2.410   3.014   3.075
 7442TIP3    H222272   2.384   2.906   2.972
 7443TIP3   OH222273   1.002   4.307   3.400
 7443TIP3    H122274   1.067   4.335   3.335
 7443TIP3    H222275   0.953   4.386   3.420
 7444TIP3   OH222276   4.047   3.156   3.089
 7444TIP3    H122277   4.142   3.152   3.080
 7444TIP3    H222278   4.032   3.209   3.168
 7445TIP3   OH222279   3.869   2.477   1.486
 7445TIP3    H122280   3.869   2.382   1.492
 7445TIP3    H222281   3.890   2.506   1.575
 7446TIP3   OH222282   0.104   0.705   3.817
 7446TIP3    H122283   0.078   0.624   3.861
 7446TIP3    H222284   0.023   0.738   3.778
 7447TIP3   OH222285   3.709   4.420   2.254
 7447TIP3    H122286   3.711   4.496   2.195
 7447TIP3    H222287   3.767   4.444   2.326
 7448TIP3   OH222288   6.658   5.829   5.109
 7448TIP3    H122289   6.592   5.777   5.062
 7448TIP3    H222290   6.723   5.765   5.137
 7449TIP3   OH222291   5.380   4.405   0.095
 7449TIP3    H122292   5.437   4.333   0.121
 7449TIP3    H222293   5.293   4.378   0.123
 7450TIP3   OH222294   4.634   1.463   3.439
 7450TIP3    H122295   4.696   1.398   3.473
 7450TIP3    H222296   4.593   1.501   3.517
 7451TIP3   OH222297   2.843   3.060   5.883
 7451TIP3    H122298   2.805   3.143   5.912
 7451TIP3    H222299   2.769   3.009   5.851
 7452TIP3   OH222300   4.622   3.997   0.588
 7452TIP3    H122301   4.550   4.024   0.531
 7452TIP3    H222302   4.581   3.940   0.653
 7453TIP3   OH222303   1.043   6.264   3.913
 7453TIP3    H122304   1.023   6.172   3.930
 7453TIP3    H222305   1.134   6.275   3.942
 7454TIP3   OH222306   4.374   3.719   2.085
 7454TIP3    H122307   4.315   3.793   2.095
 7454TIP3    H222308   4.457   3.758   2.056
 7455TIP3   OH222309   8.076   0.947   2.692
 7455TIP3    H122310   8.056   1.010   2.762
 7455TIP3    H222311   8.056   0.862   2.730
 7456TIP3   OH222312   7.055   0.197   5.464
 7456TIP3    H122313   7.064   0.279   5.513
 7456TIP3    H222314   7.091   0.130   5.523
 7457TIP3   OH222315   4.184   5.511   5.931
 7457TIP3    H122316   4.151   5.427   5.900
 7457TIP3    H222317   4.115   5.573   5.911
 7458TIP3   OH222318   3.764   1.982   3.189
 7458TIP3    H122319   3.784   1.899   3.233
 7458TIP3    H222320   3.839   1.997   3.131
 7459TIP3   OH222321   5.406   3.355   2.787
 7459TIP3    H122322   5.363   3.309   2.860
 7459TIP3    H222323   5.487   3.307   2.774
 7460TIP3   OH222324   5.785   2.234   2.404
 7460TIP3    H122325   5.852   2.188   2.455
 7460TIP3    H222326   5.743   2.292   2.467
 7461TIP3   OH222327   3.094   2.740   3.640
 7461TIP3    H122328   3.053   2.696   3.715
 7461TIP3    H222329   3.074   2.684   3.566
 7462TIP3   OH222330   1.923   4.302   5.884
 7462TIP3    H122331   1.925   4.236   5.953
 7462TIP3    H222332   2.008   4.296   5.842
 7463TIP3   OH222333   5.853   2.039   0.855
 7463TIP3    H122334   5.945   2.013   0.849
 7463TIP3    H222335   5.842   2.069   0.945
 7464TIP3   OH222336   5.458   0.777   5.331
 7464TIP3    H122337   5.539   0.811   5.292
 7464TIP3    H222338   5.439   0.837   5.403
 7465TIP3   OH222339   1.430   1.370   0.417
 7465TIP3    H122340   1.446   1.410   0.503
 7465TIP3    H222341   1.353   1.314   0.431
 7466TIP3   OH222342   3.217   5.322   3.702
 7466TIP3    H122343   3.158   5.321   3.777
 7466TIP3    H222344   3.255   5.410   3.702
 7467TIP3   OH222345   6.599   2.141   4.022
 7467TIP3    H122346   6.592   2.085   3.945
 7467TIP3    H222347   6.589   2.230   3.989
 7468TIP3   OH222348   4.161   0.943   1.493
 7468TIP3    H122349   4.136   0.965   1.583
 7468TIP3    H222350   4.213   0.863   1.502
 7469TIP3   OH222351   6.303   2.929   1.458
 7469TIP3    H122352   6.346   2.922   1.543
 7469TIP3    H222353   6.321   3.018   1.429
 7470TIP3   OH222354   1.211   7.006   1.669
 7470TIP3    H122355   1.209   7.049   1.755
 7470TIP3    H222356   1.173   6.920   1.684
 7471TIP3   OH222357   8.105   6.311   5.413
 7471TIP3    H122358   8.057   6.349   5.339
 7471TIP3    H222359   8.128   6.386   5.467
 7472TIP3   OH222360   0.064   3.804   4.419
 7472TIP3    H122361   0.080   3.719   4.459
 7472TIP3    H222362   0.108   3.866   4.477
 7473TIP3   OH222363   1.800   2.303   2.080
 7473TIP3    H122364   1.713   2.266   2.062
 7473TIP3    H222365   1.817   2.362   2.007
 7474TIP3   OH222366   0.348   7.378   5.492
 7474TIP3    H122367   0.363   7.425   5.410
 7474TIP3    H222368   0.402   7.424   5.557
 7475TIP3   OH222369   4.683   4.765   3.976
 7475TIP3    H122370   4.651   4.677   3.958
 7475TIP3    H222371   4.604   4.819   3.980
 7476TIP3   OH222372   8.148   5.441   3.855
 7476TIP3    H122373   8.146   5.346   3.840
 7476TIP3    H222374   8.072   5.458   3.911
 7477TIP3   OH222375   6.229   2.700   2.564
 7477TIP3    H122376   6.324   2.711   2.571
 7477TIP3    H222377   6.208   2.636   2.632
 7478TIP3   OH222378   5.231   2.676   5.671
 7478TIP3    H122379   5.169   2.721   5.728
 7478TIP3    H222380   5.295   2.637   5.731
 7479TIP3   OH222381   6.593   2.331   5.839
 7479TIP3    H122382   6.596   2.426   5.833
 7479TIP3    H222383   6.521   2.313   5.900
 7480TIP3   OH222384   1.631   6.511   4.149
 7480TIP3    H122385   1.622   6.604   4.172
 7480TIP3    H222386   1.625   6.465   4.233
 7481TIP3   OH222387   1.517   6.931   0.565
 7481TIP3    H122388   1.529   6.850   0.615
 7481TIP3    H222389   1.580   6.992   0.605
 7482TIP3   OH222390   4.008   4.468   2.919
 7482TIP3    H122391   4.011   4.377   2.891
 7482TIP3    H222392   3.944   4.510   2.862
 7483TIP3   OH222393   4.984   3.613   2.732
 7483TIP3    H122394   5.058   3.674   2.734
 7483TIP3    H222395   4.923   3.652   2.670
 7484TIP3   OH222396   3.193   7.501   0.835
 7484TIP3    H122397   3.205   7.576   0.893
 7484TIP3    H222398   3.109   7.516   0.792
 7485TIP3   OH222399   5.690   0.860   5.161
 7485TIP3    H122400   5.736   0.941   5.181
 7485TIP3    H222401   5.639   0.880   5.083
 7486TIP3   OH222402   3.191   6.846   3.757
 7486TIP3    H122403   3.142   6.840   3.839
 7486TIP3    H222404   3.180   6.760   3.715
 7487TIP3   OH222405   1.704   6.272   0.786
 7487TIP3    H122406   1.722   6.218   0.864
 7487TIP3    H222407   1.672   6.209   0.721
 7488TIP3   OH222408   1.848   4.526   1.364
 7488TIP3    H122409   1.807   4.443   1.389
 7488TIP3    H222410   1.935   4.523   1.405
 7489TIP3   OH222411   1.742   6.001   3.935
 7489TIP3    H122412   1.804   6.074   3.928
 7489TIP3    H222413   1.788   5.927   3.897
 7490TIP3   OH222414   4.859   4.494   1.018
 7490TIP3    H122415   4.933   4.510   0.958
 7490TIP3    H222416   4.792   4.455   0.962
 7491TIP3   OH222417   7.241   3.926   5.501
 7491TIP3    H122418   7.274   3.930   5.412
 7491TIP3    H222419   7.305   3.973   5.554
 7492TIP3   OH222420   6.436   6.933   6.629
 7492TIP3    H122421   6.527   6.910   6.648
 7492TIP3    H222422   6.390   6.916   6.712
 7493TIP3   OH222423   7.221   5.145   2.142
 7493TIP3    H122424   7.244   5.052   2.139
 7493TIP3    H222425   7.217   5.165   2.236
 7494TIP3   OH222426   3.022   7.464   3.435
 7494TIP3    H122427   2.956   7.514   3.484
 7494TIP3    H222428   3.065   7.410   3.501
 7495TIP3   OH222429   7.378   2.468   2.170
 7495TIP3    H122430   7.420   2.497   2.251
 7495TIP3    H222431   7.289   2.503   2.176
 7496TIP3   OH222432   4.324   1.142   4.194
 7496TIP3    H122433   4.283   1.157   4.279
 7496TIP3    H222434   4.271   1.193   4.133
 7497TIP3   OH222435   6.074   5.070   0.637
 7497TIP3    H122436   5.996   5.124   0.626
 7497TIP3    H222437   6.040   4.982   0.653
 7498TIP3   OH222438   7.927   0.795   6.493
 7498TIP3    H122439   7.936   0.811   6.399
 7498TIP3    H222440   7.963   0.707   6.506
 7499TIP3   OH222441   1.314   4.826   1.112
 7499TIP3    H122442   1.400   4.842   1.073
 7499TIP3    H222443   1.255   4.880   1.060
 7500TIP3   OH222444   1.048   5.948   3.480
 7500TIP3    H122445   1.028   6.034   3.515
 7500TIP3    H222446   0.964   5.913   3.453
 7501TIP3   OH222447   1.170   4.933   3.030
 7501TIP3    H122448   1.176   4.912   3.123
 7501TIP3    H222449   1.079   4.915   3.007
 7502TIP3   OH222450   4.612   3.787   0.352
 7502TIP3    H122451   4.677   3.854   0.371
 7502TIP3    H222452   4.566   3.820   0.274
 7503TIP3   OH222453   2.984   6.783   1.716
 7503TIP3    H122454   2.976   6.785   1.621
 7503TIP3    H222455   3.048   6.714   1.733
 7504TIP3   OH222456   2.622   4.709   0.348
 7504TIP3    H122457   2.624   4.683   0.256
 7504TIP3    H222458   2.532   4.740   0.362
 7505TIP3   OH222459   6.617   0.576   0.853
 7505TIP3    H122460   6.553   0.570   0.924
 7505TIP3    H222461   6.699   0.547   0.893
 7506TIP3   OH222462   1.899   2.760   4.930
 7506TIP3    H122463   1.965   2.746   4.862
 7506TIP3    H222464   1.818   2.724   4.892
 7507TIP3   OH222465   8.112   6.590   6.528
 7507TIP3    H122466   8.175   6.606   6.458
 7507TIP3    H222467   8.048   6.661   6.519
 7508TIP3   OH222468   1.301   2.961   3.831
 7508TIP3    H122469   1.224   2.955   3.888
 7508TIP3    H222470   1.265   2.971   3.743
 7509TIP3   OH222471   5.576   2.446   1.258
 7509TIP3    H122472   5.580   2.467   1.165
 7509TIP3    H222473   5.528   2.362   1.261
 7510TIP3   OH222474   6.773   1.501   3.181
 7510TIP3    H122475   6.711   1.452   3.127
 7510TIP3    H222476   6.718   1.547   3.244
 7511TIP3   OH222477   1.319   6.356   3.516
 7511TIP3    H122478   1.400   6.404   3.532
 7511TIP3    H222479   1.311   6.296   3.591
 7512TIP3   OH222480   8.203   1.216   3.218
 7512TIP3    H122481   8.166   1.193   3.303
 7512TIP3    H222482   8.131   1.204   3.156
 7513TIP3   OH222483   2.809   4.158   5.429
 7513TIP3    H122484   2.720   4.149   5.395
 7513TIP3    H222485   2.864   4.119   5.362
 7514TIP3   OH222486   5.421   1.077   1.268
 7514TIP3    H122487   5.403   1.171   1.270
 7514TIP3    H222488   5.413   1.053   1.175
 7515TIP3   OH222489   6.018   5.785   5.054
 7515TIP3    H122490   6.091   5.835   5.017
 7515TIP3    H222491   6.013   5.706   5.000
 7516TIP3   OH222492   6.216   7.074   4.574
 7516TIP3    H122493   6.169   7.153   4.549
 7516TIP3    H222494   6.186   7.054   4.662
 7517TIP3   OH222495   4.584   3.330   5.249
 7517TIP3    H122496   4.667   3.377   5.239
 7517TIP3    H222497   4.597   3.247   5.203
 7518TIP3   OH222498   4.660   1.537   1.347
 7518TIP3    H122499   4.716   1.530   1.270
 7518TIP3    H222500   4.703   1.482   1.413
 7519TIP3   OH222501   2.167   4.811   3.771
 7519TIP3    H122502   2.118   4.780   3.847
 7519TIP3    H222503   2.256   4.823   3.804
 7520TIP3   OH222504   1.273   6.043   6.360
 7520TIP3    H122505   1.323   6.123   6.346
 7520TIP3    H222506   1.250   6.045   6.453
 7521TIP3   OH222507   0.564   0.131   0.907
 7521TIP3    H122508   0.487   0.081   0.934
 7521TIP3    H222509   0.603   0.079   0.837
 7522TIP3   OH222510   3.164   4.717   3.253
 7522TIP3    H122511   3.136   4.791   3.197
 7522TIP3    H222512   3.183   4.647   3.191
 7523TIP3   OH222513   3.820   3.064   0.351
 7523TIP3    H122514   3.844   3.068   0.259
 7523TIP3    H222515   3.767   2.984   0.359
 7524TIP3   OH222516   0.118   5.596   1.964
 7524TIP3    H122517   0.119   5.500   1.963
 7524TIP3    H222518   0.210   5.622   1.959
 7525TIP3   OH222519   1.948   7.081   3.118
 7525TIP3    H122520   2.033   7.121   3.135
 7525TIP3    H222521   1.897   7.098   3.197
 7526TIP3   OH222522   7.521   7.432   2.383
 7526TIP3    H122523   7.503   7.525   2.377
 7526TIP3    H222524   7.436   7.391   2.399
 7527TIP3   OH222525   1.033   2.863   2.609
 7527TIP3    H122526   1.085   2.930   2.653
 7527TIP3    H222527   1.098   2.797   2.583
 7528TIP3   OH222528   1.936   0.581   5.975
 7528TIP3    H122529   2.027   0.561   5.952
 7528TIP3    H222530   1.887   0.505   5.946
 7529TIP3   OH222531   3.444   2.369   6.101
 7529TIP3    H122532   3.434   2.410   6.015
 7529TIP3    H222533   3.538   2.370   6.117
 7530TIP3   OH222534   1.317   5.059   2.357
 7530TIP3    H122535   1.286   5.149   2.347
 7530TIP3    H222536   1.405   5.060   2.318
 7531TIP3   OH222537   1.123   4.949   2.555
 7531TIP3    H122538   1.060   4.891   2.512
 7531TIP3    H222539   1.165   4.997   2.483
 7532TIP3   OH222540   4.205   2.581   4.785
 7532TIP3    H122541   4.185   2.661   4.835
 7532TIP3    H222542   4.173   2.510   4.841
 7533TIP3   OH222543   8.259   2.456   1.097
 7533TIP3    H122544   8.219   2.388   1.153
 7533TIP3    H222545   8.189   2.483   1.038
 7534TIP3   OH222546   5.479   6.590   5.662
 7534TIP3    H122547   5.399   6.545   5.688
 7534TIP3    H222548   5.547   6.522   5.665
 7535TIP3   OH222549   4.814   0.267   6.022
 7535TIP3    H122550   4.837   0.305   6.107
 7535TIP3    H222551   4.880   0.199   6.008
 7536TIP3   OH222552   1.319   3.940   6.578
 7536TIP3    H122553   1.236   3.938   6.625
 7536TIP3    H222554   1.309   4.011   6.514
 7537TIP3   OH222555   7.344   4.439   5.276
 7537TIP3    H122556   7.313   4.358   5.235
 7537TIP3    H222557   7.268   4.496   5.279
 7538TIP3   OH222558   7.790   7.716   0.831
 7538TIP3    H122559   7.767   7.698   0.740
 7538TIP3    H222560   7.865   7.774   0.826
 7539TIP3   OH222561   0.305   0.325   3.839
 7539TIP3    H122562   0.312   0.314   3.744
 7539TIP3    H222563   0.211   0.338   3.855
 7540TIP3   OH222564   0.399   1.448   2.872
 7540TIP3    H122565   0.382   1.358   2.844
 7540TIP3    H222566   0.464   1.439   2.942
 7541TIP3   OH222567   1.214   2.233   1.382
 7541TIP3    H122568   1.179   2.150   1.416
 7541TIP3    H222569   1.283   2.207   1.322
 7542TIP3   OH222570   6.290   1.504   1.134
 7542TIP3    H122571   6.218   1.505   1.070
 7542TIP3    H222572   6.353   1.441   1.098
 7543TIP3   OH222573   4.317   3.114   6.707
 7543TIP3    H122574   4.233   3.097   6.665
 7543TIP3    H222575   4.370   3.155   6.640
 7544TIP3   OH222576   1.539   1.863   4.890
 7544TIP3    H122577   1.493   1.931   4.840
 7544TIP3    H222578   1.579   1.910   4.963
 7545TIP3   OH222579   5.658   3.745   2.722
 7545TIP3    H122580   5.586   3.782   2.671
 7545TIP3    H222581   5.672   3.658   2.684
 7546TIP3   OH222582   4.869   2.250   4.600
 7546TIP3    H122583   4.938   2.222   4.540
 7546TIP3    H222584   4.822   2.170   4.623
 7547TIP3   OH222585   7.225   2.199   6.517
 7547TIP3    H122586   7.316   2.211   6.544
 7547TIP3    H222587   7.230   2.185   6.422
 7548TIP3   OH222588   2.563   2.456   3.613
 7548TIP3    H122589   2.515   2.462   3.530
 7548TIP3    H222590   2.495   2.455   3.680
 7549TIP3   OH222591   7.234   1.901   3.904
 7549TIP3    H122592   7.329   1.896   3.907
 7549TIP3    H222593   7.204   1.823   3.952
 7550TIP3   OH222594   3.563   5.053   0.456
 7550TIP3    H122595   3.613   4.975   0.433
 7550TIP3    H222596   3.490   5.055   0.394
 7551TIP3   OH222597   6.539   6.442   0.397
 7551TIP3    H122598   6.633   6.429   0.408
 7551TIP3    H222599   6.499   6.377   0.455
 7552TIP3   OH222600   0.259   2.346   4.371
 7552TIP3    H122601   0.312   2.267   4.381
 7552TIP3    H222602   0.178   2.314   4.331
 7553TIP3   OH222603   3.736   7.777   2.757
 7553TIP3    H122604   3.709   7.750   2.669
 7553TIP3    H222605   3.658   7.817   2.795
 7554TIP3   OH222606   1.515   7.836   3.474
 7554TIP3    H122607   1.543   7.765   3.530
 7554TIP3    H222608   1.557   7.819   3.390
 7555TIP3   OH222609   1.919   7.797   3.711
 7555TIP3    H122610   1.836   7.770   3.751
 7555TIP3    H222611   1.951   7.717   3.668
 7556TIP3   OH222612   7.397   1.023   4.217
 7556TIP3    H122613   7.462   1.010   4.147
 7556TIP3    H222614   7.431   0.975   4.292
 7557TIP3   OH222615   8.058   6.332   2.640
 7557TIP3    H122616   8.048   6.406   2.580
 7557TIP3    H222617   8.003   6.263   2.602
 7558TIP3   OH222618   0.663   7.400   4.720
 7558TIP3    H122619   0.669   7.493   4.698
 7558TIP3    H222620   0.570   7.379   4.709
 7559TIP3   OH222621   0.740   2.636   0.318
 7559TIP3    H122622   0.746   2.564   0.255
 7559TIP3    H222623   0.828   2.642   0.355
 7560TIP3   OH222624   0.651   0.230   0.309
 7560TIP3    H122625   0.743   0.252   0.318
 7560TIP3    H222626   0.619   0.225   0.399
 7561TIP3   OH222627   5.327   4.270   1.730
 7561TIP3    H122628   5.336   4.180   1.762
 7561TIP3    H222629   5.416   4.297   1.707
 7562TIP3   OH222630   1.515   2.628   1.747
 7562TIP3    H122631   1.578   2.699   1.758
 7562TIP3    H222632   1.434   2.671   1.720
 7563TIP3   OH222633   8.005   6.604   0.397
 7563TIP3    H122634   8.049   6.627   0.315
 7563TIP3    H222635   8.023   6.677   0.456
 7564TIP3   OH222636   0.073   5.930   0.756
 7564TIP3    H122637   0.146   5.963   0.808
 7564TIP3    H222638   0.096   5.950   0.666
 7565TIP3   OH222639   5.246   7.042   5.420
 7565TIP3    H122640   5.275   6.973   5.480
 7565TIP3    H222641   5.211   7.110   5.477
 7566TIP3   OH222642   2.231   2.410   3.273
 7566TIP3    H122643   2.164   2.342   3.268
 7566TIP3    H222644   2.185   2.486   3.308
 7567TIP3   OH222645   6.823   6.454   4.452
 7567TIP3    H122646   6.831   6.388   4.521
 7567TIP3    H222647   6.828   6.538   4.499
 7568TIP3   OH222648   5.703   1.801   1.893
 7568TIP3    H122649   5.651   1.766   1.965
 7568TIP3    H222650   5.778   1.742   1.886
 7569TIP3   OH222651   4.504   1.765   4.213
 7569TIP3    H122652   4.511   1.714   4.133
 7569TIP3    H222653   4.455   1.709   4.273
 7570TIP3   OH222654   0.803   5.019   4.785
 7570TIP3    H122655   0.729   5.077   4.804
 7570TIP3    H222656   0.762   4.935   4.763
 7571TIP3   OH222657   0.236   3.696   3.996
 7571TIP3    H122658   0.227   3.782   3.955
 7571TIP3    H222659   0.330   3.689   4.016
 7572TIP3   OH222660   0.726   0.780   2.232
 7572TIP3    H122661   0.685   0.863   2.257
 7572TIP3    H222662   0.676   0.750   2.156
 7573TIP3   OH222663   0.531   3.950   0.736
 7573TIP3    H122664   0.529   3.990   0.649
 7573TIP3    H222665   0.450   3.978   0.777
 7574TIP3   OH222666   4.247   3.725   5.275
 7574TIP3    H122667   4.339   3.700   5.273
 7574TIP3    H222668   4.248   3.821   5.278
 7575TIP3   OH222669   3.639   7.569   4.520
 7575TIP3    H122670   3.620   7.543   4.610
 7575TIP3    H222671   3.576   7.521   4.467
 7576TIP3   OH222672   1.863   3.769   0.797
 7576TIP3    H122673   1.776   3.801   0.773
 7576TIP3    H222674   1.851   3.675   0.808
 7577TIP3   OH222675   0.593   1.064   1.053
 7577TIP3    H122676   0.599   0.995   0.987
 7577TIP3    H222677   0.659   1.128   1.026
 7578TIP3   OH222678   6.209   6.318   6.260
 7578TIP3    H122679   6.263   6.397   6.260
 7578TIP3    H222680   6.119   6.350   6.257
 7579TIP3   OH222681   3.606   6.096   1.955
 7579TIP3    H122682   3.616   6.125   1.864
 7579TIP3    H222683   3.568   6.009   1.948
 7580TIP3   OH222684   5.261   4.148   6.501
 7580TIP3    H122685   5.318   4.098   6.442
 7580TIP3    H222686   5.285   4.239   6.487
 7581TIP3   OH222687   0.197   6.470   6.544
 7581TIP3    H122688   0.142   6.392   6.540
 7581TIP3    H222689   0.245   6.469   6.461
 7582TIP3   OH222690   8.229   7.189   3.770
 7582TIP3    H122691   8.173   7.135   3.713
 7582TIP3    H222692   8.239   7.136   3.849
 7583TIP3   OH222693   2.407   5.888   3.855
 7583TIP3    H122694   2.481   5.949   3.858
 7583TIP3    H222695   2.379   5.881   3.947
 7584TIP3   OH222696   5.599   3.922   2.281
 7584TIP3    H122697   5.570   3.837   2.315
 7584TIP3    H222698   5.525   3.954   2.229
 7585TIP3   OH222699   3.310   3.672   3.803
 7585TIP3    H122700   3.368   3.693   3.729
 7585TIP3    H222701   3.343   3.589   3.837
 7586TIP3   OH222702   0.198   5.729   6.387
 7586TIP3    H122703   0.205   5.770   6.301
 7586TIP3    H222704   0.181   5.637   6.368
 7587TIP3   OH222705   0.889   0.353   4.997
 7587TIP3    H122706   0.821   0.288   5.018
 7587TIP3    H222707   0.846   0.416   4.940
 7588TIP3   OH222708   0.901   1.169   4.321
 7588TIP3    H122709   0.867   1.110   4.388
 7588TIP3    H222710   0.908   1.115   4.243
 7589TIP3   OH222711   7.329   5.002   1.868
 7589TIP3    H122712   7.402   4.940   1.871
 7589TIP3    H222713   7.353   5.069   1.933
 7590TIP3   OH222714   6.244   2.455   4.163
 7590TIP3    H122715   6.153   2.461   4.192
 7590TIP3    H222716   6.243   2.493   4.075
 7591TIP3   OH222717   1.456   5.363   1.323
 7591TIP3    H122718   1.410   5.445   1.341
 7591TIP3    H222719   1.545   5.378   1.357
 7592TIP3   OH222720   2.538   5.007   1.069
 7592TIP3    H122721   2.616   4.999   1.014
 7592TIP3    H222722   2.572   5.002   1.158
 7593TIP3   OH222723   2.536   6.969   2.005
 7593TIP3    H122724   2.490   6.972   2.089
 7593TIP3    H222725   2.585   7.051   2.002
 7594TIP3   OH222726   5.392   1.289   3.000
 7594TIP3    H122727   5.404   1.262   2.909
 7594TIP3    H222728   5.330   1.362   2.995
 7595TIP3   OH222729   4.711   0.402   4.396
 7595TIP3    H122730   4.663   0.370   4.320
 7595TIP3    H222731   4.725   0.325   4.450
 7596TIP3   OH222732   5.708   0.701   3.559
 7596TIP3    H122733   5.796   0.674   3.585
 7596TIP3    H222734   5.722   0.770   3.494
 7597TIP3   OH222735   7.541   1.211   3.569
 7597TIP3    H122736   7.513   1.302   3.571
 7597TIP3    H222737   7.545   1.189   3.476
 7598TIP3   OH222738   4.795   1.752   3.311
 7598TIP3    H122739   4.831   1.696   3.380
 7598TIP3    H222740   4.701   1.755   3.330
 7599TIP3   OH222741   5.117   6.625   3.340
 7599TIP3    H122742   5.207   6.593   3.342
 7599TIP3    H222743   5.095   6.627   3.247
 7600TIP3   OH222744   7.284   2.455   2.644
 7600TIP3    H122745   7.193   2.469   2.616
 7600TIP3    H222746   7.286   2.362   2.669
 7601TIP3   OH222747   2.936   3.479   2.745
 7601TIP3    H122748   2.956   3.391   2.714
 7601TIP3    H222749   2.868   3.466   2.811
 7602TIP3   OH222750   5.871   4.335   4.121
 7602TIP3    H122751   5.776   4.340   4.117
 7602TIP3    H222752   5.893   4.250   4.084
 7603TIP3   OH222753   0.029  -0.003   4.253
 7603TIP3    H122754  -0.053  -0.034   4.214
 7603TIP3    H222755   0.036   0.088   4.227
 7604TIP3   OH222756   3.067   0.467   1.564
 7604TIP3    H122757   3.026   0.536   1.511
 7604TIP3    H222758   3.119   0.416   1.501
 7605TIP3   OH222759   5.725   4.762   3.169
 7605TIP3    H122760   5.808   4.715   3.180
 7605TIP3    H222761   5.712   4.807   3.252
 7606TIP3   OH222762   6.805   1.149   1.882
 7606TIP3    H122763   6.871   1.112   1.824
 7606TIP3    H222764   6.853   1.173   1.962
 7607TIP3   OH222765   0.943   4.928   6.600
 7607TIP3    H122766   0.880   4.857   6.609
 7607TIP3    H222767   0.924   4.987   6.673
 7608TIP3   OH222768   2.432   3.722   5.274
 7608TIP3    H122769   2.381   3.673   5.210
 7608TIP3    H222770   2.396   3.810   5.273
 7609TIP3   OH222771   0.912   5.739   5.267
 7609TIP3    H122772   0.864   5.786   5.199
 7609TIP3    H222773   0.954   5.808   5.319
 7610TIP3   OH222774   7.137   3.995   3.458
 7610TIP3    H122775   7.149   3.958   3.370
 7610TIP3    H222776   7.119   4.088   3.442
 7611TIP3   OH222777   3.690   3.678   4.051
 7611TIP3    H122778   3.687   3.582   4.053
 7611TIP3    H222779   3.781   3.699   4.029
 7612TIP3   OH222780   2.158   7.255   4.400
 7612TIP3    H122781   2.087   7.195   4.425
 7612TIP3    H222782   2.195   7.284   4.483
 7613TIP3   OH222783   0.620   1.148   3.642
 7613TIP3    H122784   0.635   1.096   3.721
 7613TIP3    H222785   0.543   1.108   3.601
 7614TIP3   OH222786   8.032   7.445   4.808
 7614TIP3    H122787   8.101   7.478   4.865
 7614TIP3    H222788   8.054   7.353   4.795
 7615TIP3   OH222789   6.606   0.359   2.575
 7615TIP3    H122790   6.532   0.387   2.630
 7615TIP3    H222791   6.635   0.277   2.613
 7616TIP3   OH222792   1.553   6.136   2.134
 7616TIP3    H122793   1.556   6.053   2.087
 7616TIP3    H222794   1.619   6.127   2.203
 7617TIP3   OH222795   4.808   2.151   6.113
 7617TIP3    H122796   4.838   2.075   6.062
 7617TIP3    H222797   4.734   2.119   6.164
 7618TIP3   OH222798   2.342   3.964   2.362
 7618TIP3    H122799   2.415   4.020   2.390
 7618TIP3    H222800   2.283   3.963   2.437
 7619TIP3   OH222801   4.385   3.324   5.062
 7619TIP3    H122802   4.451   3.334   5.130
 7619TIP3    H222803   4.336   3.407   5.065
 7620TIP3   OH222804   3.838   2.283   0.220
 7620TIP3    H122805   3.918   2.232   0.230
 7620TIP3    H222806   3.849   2.327   0.135
 7621TIP3   OH222807   7.524   0.948   3.255
 7621TIP3    H122808   7.477   0.915   3.179
 7621TIP3    H222809   7.500   0.887   3.326
 7622TIP3   OH222810   1.717   5.850   2.399
 7622TIP3    H122811   1.630   5.813   2.391
 7622TIP3    H222812   1.710   5.937   2.359
 7623TIP3   OH222813   4.544   5.239   6.520
 7623TIP3    H122814   4.467   5.279   6.560
 7623TIP3    H222815   4.546   5.273   6.431
 7624TIP3   OH222816   6.604   4.291   5.935
 7624TIP3    H122817   6.566   4.300   6.023
 7624TIP3    H222818   6.674   4.356   5.932
 7625TIP3   OH222819   6.292   4.215   2.052
 7625TIP3    H122820   6.278   4.309   2.052
 7625TIP3    H222821   6.256   4.185   1.968
 7626TIP3   OH222822   1.144   1.480   4.628
 7626TIP3    H122823   1.049   1.483   4.616
 7626TIP3    H222824   1.161   1.540   4.701
 7627TIP3   OH222825   7.767   5.774   2.269
 7627TIP3    H122826   7.699   5.813   2.214
 7627TIP3    H222827   7.840   5.757   2.209
 7628TIP3   OH222828   5.512   4.897   6.713
 7628TIP3    H122829   5.489   4.854   6.796
 7628TIP3    H222830   5.429   4.923   6.675
 7629TIP3   OH222831   6.580   4.542   3.833
 7629TIP3    H122832   6.621   4.520   3.917
 7629TIP3    H222833   6.521   4.468   3.815
 7630TIP3   OH222834   3.891   6.167   4.569
 7630TIP3    H122835   3.920   6.128   4.652
 7630TIP3    H222836   3.918   6.104   4.502
 7631TIP3   OH222837   1.313   7.245   2.992
 7631TIP3    H122838   1.406   7.230   2.973
 7631TIP3    H222839   1.311   7.271   3.084
 7632TIP3   OH222840   8.223   0.593   1.949
 7632TIP3    H122841   8.290   0.658   1.931
 7632TIP3    H222842   8.143   0.629   1.910
 7633TIP3   OH222843   2.729   7.563   0.970
 7633TIP3    H122844   2.800   7.566   0.906
 7633TIP3    H222845   2.692   7.651   0.969
 7634TIP3   OH222846   6.810   0.297   2.068
 7634TIP3    H122847   6.759   0.365   2.025
 7634TIP3    H222848   6.838   0.336   2.150
 7635TIP3   OH222849   4.138   1.378   1.319
 7635TIP3    H122850   4.114   1.359   1.409
 7635TIP3    H222851   4.088   1.456   1.297
 7636TIP3   OH222852   5.133   2.556   1.766
 7636TIP3    H122853   5.182   2.629   1.804
 7636TIP3    H222854   5.048   2.593   1.744
 7637TIP3   OH222855   6.807   0.069   4.568
 7637TIP3    H122856   6.843  -0.020   4.567
 7637TIP3    H222857   6.713   0.056   4.586
 7638TIP3   OH222858   4.478   6.865   4.770
 7638TIP3    H122859   4.557   6.858   4.717
 7638TIP3    H222860   4.506   6.844   4.859
 7639TIP3   OH222861   6.472   2.482   3.741
 7639TIP3    H122862   6.392   2.430   3.752
 7639TIP3    H222863   6.442   2.573   3.749
 7640TIP3   OH222864   8.283   6.943   0.643
 7640TIP3    H122865   8.269   6.983   0.558
 7640TIP3    H222866   8.198   6.907   0.667
 7641TIP3   OH222867   4.479   7.109   3.241
 7641TIP3    H122868   4.407   7.159   3.203
 7641TIP3    H222869   4.498   7.041   3.176
 7642TIP3   OH222870   0.141   3.965   1.519
 7642TIP3    H122871   0.173   3.942   1.432
 7642TIP3    H222872   0.215   3.945   1.577
 7643TIP3   OH222873   8.094   2.754   3.517
 7643TIP3    H122874   8.185   2.772   3.492
 7643TIP3    H222875   8.067   2.683   3.459
 7644TIP3   OH222876   6.741   2.863   5.011
 7644TIP3    H122877   6.771   2.799   5.076
 7644TIP3    H222878   6.680   2.919   5.060
 7645TIP3   OH222879   6.337   4.937   3.301
 7645TIP3    H122880   6.258   4.936   3.247
 7645TIP3    H222881   6.386   4.860   3.273
 7646TIP3   OH222882   2.224   1.831   3.444
 7646TIP3    H122883   2.189   1.917   3.421
 7646TIP3    H222884   2.215   1.825   3.539
 7647TIP3   OH222885   8.226   5.728   0.939
 7647TIP3    H122886   8.271   5.782   0.874
 7647TIP3    H222887   8.201   5.790   1.007
 7648TIP3   OH222888   1.958   5.717   1.378
 7648TIP3    H122889   2.016   5.783   1.415
 7648TIP3    H222890   2.016   5.649   1.344
 7649TIP3   OH222891   2.646   6.078   4.179
 7649TIP3    H122892   2.613   6.138   4.246
 7649TIP3    H222893   2.595   5.998   4.190
 7650TIP3   OH222894   7.805   4.473   5.071
 7650TIP3    H122895   7.882   4.439   5.025
 7650TIP3    H222896   7.841   4.510   5.152
 7651TIP3   OH222897   7.840   1.306   4.263
 7651TIP3    H122898   7.784   1.357   4.204
 7651TIP3    H222899   7.922   1.355   4.264
 7652TIP3   OH222900   6.973   5.597   0.552
 7652TIP3    H122901   7.062   5.628   0.537
 7652TIP3    H222902   6.965   5.591   0.647
 7653TIP3   OH222903   7.033   5.263   3.193
 7653TIP3    H122904   7.077   5.346   3.173
 7653TIP3    H222905   6.990   5.239   3.111
 7654TIP3   OH222906   5.822   7.516   5.833
 7654TIP3    H122907   5.867   7.569   5.898
 7654TIP3    H222908   5.850   7.426   5.850
 7655TIP3   OH222909   8.168   7.089   4.029
 7655TIP3    H122910   8.254   7.072   4.068
 7655TIP3    H222911   8.138   7.170   4.072
 7656TIP3   OH222912   2.694   7.212   4.754
 7656TIP3    H122913   2.670   7.305   4.747
 7656TIP3    H222914   2.776   7.204   4.705
 7657TIP3   OH222915   2.556   6.531   6.303
 7657TIP3    H122916   2.562   6.623   6.330
 7657TIP3    H222917   2.483   6.530   6.240
 7658TIP3   OH222918   0.067   2.118   0.413
 7658TIP3    H122919   0.077   2.201   0.366
 7658TIP3    H222920   0.148   2.070   0.394
 7659TIP3   OH222921   4.428   3.151   3.964
 7659TIP3    H122922   4.401   3.077   3.910
 7659TIP3    H222923   4.356   3.214   3.956
 7660TIP3   OH222924   6.166   4.496   5.776
 7660TIP3    H122925   6.254   4.462   5.787
 7660TIP3    H222926   6.158   4.514   5.682
 7661TIP3   OH222927   5.914   0.927   5.822
 7661TIP3    H122928   5.871   0.847   5.792
 7661TIP3    H222929   5.958   0.902   5.903
 7662TIP3   OH222930   3.200   7.437   2.601
 7662TIP3    H122931   3.193   7.469   2.511
 7662TIP3    H222932   3.114   7.452   2.639
 7663TIP3   OH222933   7.629   7.431   3.171
 7663TIP3    H122934   7.564   7.362   3.160
 7663TIP3    H222935   7.579   7.512   3.167
 7664TIP3   OH222936   2.118   2.501   4.228
 7664TIP3    H122937   2.161   2.420   4.202
 7664TIP3    H222938   2.024   2.483   4.219
 7665TIP3   OH222939   6.156   2.410   1.314
 7665TIP3    H122940   6.191   2.496   1.290
 7665TIP3    H222941   6.127   2.420   1.405
 7666TIP3   OH222942   7.072   4.638   0.989
 7666TIP3    H122943   7.129   4.665   0.917
 7666TIP3    H222944   7.108   4.683   1.066
 7667TIP3   OH222945   7.867   2.305   4.042
 7667TIP3    H122946   7.810   2.376   4.069
 7667TIP3    H222947   7.873   2.247   4.118
 7668TIP3   OH222948   0.315   6.510   0.927
 7668TIP3    H122949   0.372   6.433   0.926
 7668TIP3    H222950   0.306   6.532   1.020
 7669TIP3   OH222951   8.224   5.627   5.157
 7669TIP3    H122952   8.165   5.552   5.151
 7669TIP3    H222953   8.195   5.686   5.088
 7670TIP3   OH222954   4.585   0.242   4.205
 7670TIP3    H122955   4.597   0.175   4.138
 7670TIP3    H222956   4.493   0.236   4.230
 7671TIP3   OH222957   7.270   2.931   0.176
 7671TIP3    H122958   7.275   2.861   0.240
 7671TIP3    H222959   7.302   3.009   0.223
 7672TIP3   OH222960   5.423   3.510   6.691
 7672TIP3    H122961   5.327   3.507   6.697
 7672TIP3    H222962   5.448   3.421   6.665
 7673TIP3   OH222963   7.623   7.197   5.761
 7673TIP3    H122964   7.563   7.233   5.827
 7673TIP3    H222965   7.632   7.267   5.696
 7674TIP3   OH222966   6.560   3.866   6.075
 7674TIP3    H122967   6.535   3.815   5.998
 7674TIP3    H222968   6.640   3.911   6.049
 7675TIP3   OH222969   3.174   6.497   0.574
 7675TIP3    H122970   3.192   6.530   0.486
 7675TIP3    H222971   3.256   6.455   0.601
 7676TIP3   OH222972   1.347   1.123   6.473
 7676TIP3    H122973   1.382   1.200   6.518
 7676TIP3    H222974   1.348   1.054   6.540
 7677TIP3   OH222975   7.438   4.637   6.230
 7677TIP3    H122976   7.533   4.650   6.229
 7677TIP3    H222977   7.404   4.709   6.284
 7678TIP3   OH222978   3.084   0.278   5.133
 7678TIP3    H122979   3.049   0.283   5.044
 7678TIP3    H222980   3.114   0.187   5.142
 7679TIP3   OH222981   0.799   2.257   6.737
 7679TIP3    H122982   0.817   2.280   6.828
 7679TIP3    H222983   0.808   2.339   6.689
 7680TIP3   OH222984   0.373   6.482   4.200
 7680TIP3    H122985   0.322   6.459   4.278
 7680TIP3    H222986   0.312   6.531   4.145
 7681TIP3   OH222987   5.849   7.832   5.300
 7681TIP3    H122988   5.868   7.755   5.353
 7681TIP3    H222989   5.784   7.881   5.351
 7682TIP3   OH222990   2.873   0.144   2.554
 7682TIP3    H122991   2.849   0.228   2.592
 7682TIP3    H222992   2.883   0.085   2.629
 7683TIP3   OH222993   2.884   7.199   1.903
 7683TIP3    H122994   2.958   7.256   1.923
 7683TIP3    H222995   2.812   7.234   1.956
 7684TIP3   OH222996   3.308   2.079   1.740
 7684TIP3    H122997   3.349   2.064   1.826
 7684TIP3    H222998   3.312   2.173   1.728
 7685TIP3   OH222999   4.918   7.084   0.874
 7685TIP3    H123000   4.886   7.089   0.784
 7685TIP3    H223001   4.979   7.010   0.874
 7686TIP3   OH223002   2.618   5.716   3.687
 7686TIP3    H123003   2.526   5.714   3.715
 7686TIP3    H223004   2.662   5.770   3.752
 7687TIP3   OH223005   5.092   4.966   5.762
 7687TIP3    H123006   5.061   4.999   5.678
 7687TIP3    H223007   5.185   4.985   5.762
 7688TIP3   OH223008   8.164   6.043   4.819
 7688TIP3    H123009   8.069   6.048   4.810
 7688TIP3    H223010   8.195   6.130   4.795
 7689TIP3   OH223011   7.507   6.914   5.176
 7689TIP3    H123012   7.464   6.977   5.234
 7689TIP3    H223013   7.488   6.947   5.088
 7690TIP3   OH223014   1.341   5.622   3.722
 7690TIP3    H123015   1.401   5.692   3.746
 7690TIP3    H223016   1.254   5.657   3.742
 7691TIP3   OH223017   7.966   5.252   1.275
 7691TIP3    H123018   7.940   5.202   1.353
 7691TIP3    H223019   7.989   5.339   1.308
 7692TIP3   OH223020   6.816   6.668   2.594
 7692TIP3    H123021   6.860   6.635   2.673
 7692TIP3    H223022   6.748   6.727   2.626
 7693TIP3   OH223023   0.111   3.143   1.170
 7693TIP3    H123024   0.145   3.055   1.182
 7693TIP3    H223025   0.121   3.160   1.076
 7694TIP3   OH223026   3.062   3.445   0.963
 7694TIP3    H123027   3.027   3.502   1.032
 7694TIP3    H223028   3.070   3.359   1.004
 7695TIP3   OH223029   3.563   5.818   6.621
 7695TIP3    H123030   3.545   5.888   6.559
 7695TIP3    H223031   3.657   5.803   6.614
 7696TIP3   OH223032   6.197   0.193   5.761
 7696TIP3    H123033   6.237   0.134   5.825
 7696TIP3    H223034   6.213   0.150   5.676
 7697TIP3   OH223035   1.474   0.742   5.807
 7697TIP3    H123036   1.479   0.685   5.730
 7697TIP3    H223037   1.507   0.688   5.879
 7698TIP3   OH223038   5.832   3.919   3.160
 7698TIP3    H123039   5.745   3.960   3.160
 7698TIP3    H223040   5.822   3.840   3.106
 7699TIP3   OH223041   7.795   2.346   2.404
 7699TIP3    H123042   7.752   2.266   2.375
 7699TIP3    H223043   7.838   2.322   2.486
 7700TIP3   OH223044   0.856   7.430   6.604
 7700TIP3    H123045   0.851   7.482   6.524
 7700TIP3    H223046   0.937   7.381   6.596
 7701TIP3   OH223047   1.973   4.908   0.121
 7701TIP3    H123048   2.065   4.886   0.135
 7701TIP3    H223049   1.960   4.895   0.027
 7702TIP3   OH223050   7.996   1.545   1.250
 7702TIP3    H123051   8.025   1.594   1.326
 7702TIP3    H223052   7.978   1.611   1.183
 7703TIP3   OH223053   1.858   2.417   1.604
 7703TIP3    H123054   1.784   2.460   1.562
 7703TIP3    H223055   1.845   2.324   1.586
 7704TIP3   OH223056   6.452   1.652   6.332
 7704TIP3    H123057   6.381   1.590   6.317
 7704TIP3    H223058   6.499   1.655   6.249
 7705TIP3   OH223059   2.108   7.071   3.604
 7705TIP3    H123060   2.182   7.037   3.654
 7705TIP3    H223061   2.133   7.160   3.581
 7706TIP3   OH223062   4.779   3.559   5.486
 7706TIP3    H123063   4.769   3.539   5.393
 7706TIP3    H223064   4.874   3.563   5.500
 7707TIP3   OH223065   4.669   6.460   2.913
 7707TIP3    H123066   4.746   6.465   2.856
 7707TIP3    H223067   4.703   6.426   2.995
 7708TIP3   OH223068   2.201   1.156   3.285
 7708TIP3    H123069   2.277   1.128   3.335
 7708TIP3    H223070   2.137   1.183   3.350
 7709TIP3   OH223071   7.579   3.709   2.607
 7709TIP3    H123072   7.625   3.729   2.526
 7709TIP3    H223073   7.577   3.614   2.611
 7710TIP3   OH223074   7.374   3.791   3.362
 7710TIP3    H123075   7.403   3.879   3.338
 7710TIP3    H223076   7.344   3.801   3.453
 7711TIP3   OH223077   6.846   1.986   4.389
 7711TIP3    H123078   6.873   1.894   4.391
 7711TIP3    H223079   6.874   2.022   4.473
 7712TIP3   OH223080   0.138   2.330   5.398
 7712TIP3    H123081   0.215   2.358   5.348
 7712TIP3    H223082   0.063   2.360   5.345
 7713TIP3   OH223083   2.174   4.454   3.226
 7713TIP3    H123084   2.190   4.388   3.294
 7713TIP3    H223085   2.261   4.483   3.199
 7714TIP3   OH223086   2.461   4.081   2.992
 7714TIP3    H123087   2.454   4.156   2.932
 7714TIP3    H223088   2.460   4.005   2.935
 7715TIP3   OH223089   2.740   2.265   3.653
 7715TIP3    H123090   2.695   2.340   3.615
 7715TIP3    H223091   2.757   2.207   3.579
 7716TIP3   OH223092   3.303   5.535   4.164
 7716TIP3    H123093   3.353   5.492   4.094
 7716TIP3    H223094   3.263   5.463   4.212
 7717TIP3   OH223095   2.780   2.554   5.296
 7717TIP3    H123096   2.721   2.543   5.222
 7717TIP3    H223097   2.828   2.635   5.277
 7718TIP3   OH223098   1.797   5.228   6.028
 7718TIP3    H123099   1.866   5.169   6.058
 7718TIP3    H223100   1.747   5.176   5.965
 7719TIP3   OH223101   5.730   3.323   5.066
 7719TIP3    H123102   5.662   3.390   5.067
 7719TIP3    H223103   5.812   3.372   5.064
 7720TIP3   OH223104   7.757   2.384   2.119
 7720TIP3    H123105   7.849   2.364   2.101
 7720TIP3    H223106   7.756   2.423   2.206
 7721TIP3   OH223107   7.301   7.784   0.807
 7721TIP3    H123108   7.361   7.761   0.736
 7721TIP3    H223109   7.356   7.825   0.873
 7722TIP3   OH223110   0.095   6.900   1.198
 7722TIP3    H123111   0.188   6.879   1.184
 7722TIP3    H223112   0.086   6.991   1.168
 7723TIP3   OH223113   7.261   1.420   4.887
 7723TIP3    H123114   7.333   1.375   4.932
 7723TIP3    H223115   7.191   1.355   4.880
 7724TIP3   OH223116   0.678   4.200   1.716
 7724TIP3    H123117   0.614   4.160   1.774
 7724TIP3    H223118   0.626   4.254   1.656
 7725TIP3   OH223119   4.132   1.304   3.503
 7725TIP3    H123120   4.215   1.335   3.465
 7725TIP3    H223121   4.159   1.248   3.576
 7726TIP3   OH223122   2.711   2.604   2.539
 7726TIP3    H123123   2.791   2.560   2.510
 7726TIP3    H223124   2.642   2.566   2.486
 7727TIP3   OH223125   6.994   2.562   0.281
 7727TIP3    H123126   7.069   2.560   0.221
 7727TIP3    H223127   6.964   2.653   0.278
 7728TIP3   OH223128   1.783   3.826   1.656
 7728TIP3    H123129   1.817   3.779   1.580
 7728TIP3    H223130   1.860   3.867   1.695
 7729TIP3   OH223131   3.748   6.415   5.311
 7729TIP3    H123132   3.727   6.323   5.296
 7729TIP3    H223133   3.742   6.427   5.405
 7730TIP3   OH223134   3.745   3.792   0.796
 7730TIP3    H123135   3.787   3.708   0.811
 7730TIP3    H223136   3.766   3.844   0.873
 7731TIP3   OH223137   6.816   5.299   3.924
 7731TIP3    H123138   6.905   5.300   3.889
 7731TIP3    H223139   6.812   5.218   3.976
 7732TIP3   OH223140   3.728   1.831   3.571
 7732TIP3    H123141   3.657   1.890   3.547
 7732TIP3    H223142   3.696   1.784   3.648
 7733TIP3   OH223143   5.670   7.619   1.035
 7733TIP3    H123144   5.600   7.642   0.973
 7733TIP3    H223145   5.623   7.584   1.111
 7734TIP3   OH223146   7.220   4.431   2.752
 7734TIP3    H123147   7.223   4.375   2.675
 7734TIP3    H223148   7.312   4.442   2.778
 7735TIP3   OH223149   5.114   3.138   0.388
 7735TIP3    H123150   5.146   3.209   0.444
 7735TIP3    H223151   5.136   3.058   0.435
 7736TIP3   OH223152   5.326   7.650   4.911
 7736TIP3    H123153   5.410   7.682   4.881
 7736TIP3    H223154   5.316   7.565   4.869
 7737TIP3   OH223155   5.339   7.559   5.407
 7737TIP3    H123156   5.277   7.631   5.414
 7737TIP3    H223157   5.321   7.519   5.322
 7738TIP3   OH223158   2.702   6.281   1.919
 7738TIP3    H123159   2.657   6.265   2.003
 7738TIP3    H223160   2.778   6.333   1.943
 7739TIP3   OH223161   4.650   4.980   1.870
 7739TIP3    H123162   4.588   4.908   1.876
 7739TIP3    H223163   4.704   4.959   1.793
 7740TIP3   OH223164   5.630   7.095   6.131
 7740TIP3    H123165   5.554   7.142   6.096
 7740TIP3    H223166   5.603   7.003   6.132
 7741TIP3   OH223167   6.542   2.237   2.796
 7741TIP3    H123168   6.572   2.226   2.706
 7741TIP3    H223169   6.522   2.330   2.804
 7742TIP3   OH223170   2.914   6.913   4.816
 7742TIP3    H123171   2.937   7.003   4.840
 7742TIP3    H223172   2.960   6.899   4.733
 7743TIP3   OH223173   5.808   5.011   3.962
 7743TIP3    H123174   5.864   5.086   3.940
 7743TIP3    H223175   5.831   4.944   3.897
 7744TIP3   OH223176   6.127   3.748   2.397
 7744TIP3    H123177   6.193   3.788   2.454
 7744TIP3    H223178   6.108   3.815   2.331
 7745TIP3   OH223179   3.785   2.780   4.617
 7745TIP3    H123180   3.854   2.839   4.586
 7745TIP3    H223181   3.738   2.832   4.682
 7746TIP3   OH223182   4.462   1.560   0.842
 7746TIP3    H123183   4.485   1.653   0.841
 7746TIP3    H223184   4.418   1.548   0.927
 7747TIP3   OH223185   0.698   1.878   4.345
 7747TIP3    H123186   0.745   1.961   4.351
 7747TIP3    H223187   0.693   1.846   4.435
 7748TIP3   OH223188   7.400   4.492   5.005
 7748TIP3    H123189   7.422   4.552   5.076
 7748TIP3    H223190   7.418   4.405   5.040
 7749TIP3   OH223191   3.484   2.662   1.331
 7749TIP3    H123192   3.407   2.609   1.310
 7749TIP3    H223193   3.475   2.740   1.276
 7750TIP3   OH223194   7.420   6.836   5.754
 7750TIP3    H123195   7.336   6.852   5.710
 7750TIP3    H223196   7.431   6.741   5.750
 7751TIP3   OH223197   6.906   6.090   2.638
 7751TIP3    H123198   6.941   6.002   2.649
 7751TIP3    H223199   6.815   6.077   2.610
 7752TIP3   OH223200   4.278   2.017   1.883
 7752TIP3    H123201   4.270   1.933   1.838
 7752TIP3    H223202   4.225   2.007   1.962
 7753TIP3   OH223203   6.392   0.435   0.959
 7753TIP3    H123204   6.395   0.422   1.054
 7753TIP3    H223205   6.454   0.371   0.924
 7754TIP3   OH223206   5.261   7.087   0.136
 7754TIP3    H123207   5.307   7.141   0.200
 7754TIP3    H223208   5.324   7.076   0.065
 7755TIP3   OH223209   2.174   1.326   0.019
 7755TIP3    H123210   2.155   1.293   0.107
 7755TIP3    H223211   2.190   1.420   0.032
 7756TIP3   OH223212   1.917   7.428   0.289
 7756TIP3    H123213   1.880   7.359   0.345
 7756TIP3    H223214   2.001   7.393   0.260
 7757TIP3   OH223215   6.966   3.137   5.784
 7757TIP3    H123216   6.881   3.132   5.740
 7757TIP3    H223217   7.025   3.088   5.727
 7758TIP3   OH223218   5.437   7.678   6.175
 7758TIP3    H123219   5.347   7.682   6.205
 7758TIP3    H223220   5.478   7.756   6.212
 7759TIP3   OH223221   4.805   7.592   0.271
 7759TIP3    H123222   4.884   7.607   0.323
 7759TIP3    H223223   4.743   7.658   0.302
 7760TIP3   OH223224   0.809   7.366   1.865
 7760TIP3    H123225   0.715   7.384   1.865
 7760TIP3    H223226   0.815   7.274   1.838
 7761TIP3   OH223227   0.051   5.037   3.590
 7761TIP3    H123228  -0.019   5.054   3.653
 7761TIP3    H223229   0.015   4.970   3.531
 7762TIP3   OH223230   8.033   0.013   5.244
 7762TIP3    H123231   8.038   0.101   5.208
 7762TIP3    H223232   8.124  -0.012   5.260
 7763TIP3   OH223233   5.624   1.712   2.320
 7763TIP3    H123234   5.680   1.640   2.291
 7763TIP3    H223235   5.637   1.780   2.255
 7764TIP3   OH223236   1.709   3.176   1.821
 7764TIP3    H123237   1.721   3.167   1.916
 7764TIP3    H223238   1.631   3.230   1.812
 7765TIP3   OH223239   3.940   2.702   1.069
 7765TIP3    H123240   3.846   2.683   1.068
 7765TIP3    H223241   3.972   2.660   1.148
 7766TIP3   OH223242   2.479   7.241   0.209
 7766TIP3    H123243   2.436   7.202   0.133
 7766TIP3    H223244   2.538   7.173   0.241
 7767TIP3   OH223245   6.289   7.195   6.247
 7767TIP3    H123246   6.367   7.204   6.192
 7767TIP3    H223247   6.218   7.176   6.185
 7768TIP3   OH223248   4.447   0.474   3.292
 7768TIP3    H123249   4.418   0.528   3.219
 7768TIP3    H223250   4.400   0.392   3.282
 7769TIP3   OH223251   4.710   5.066   3.584
 7769TIP3    H123252   4.642   5.011   3.623
 7769TIP3    H223253   4.685   5.072   3.492
 7770TIP3   OH223254   0.737   4.458   0.560
 7770TIP3    H123255   0.800   4.447   0.489
 7770TIP3    H223256   0.716   4.552   0.559
 7771TIP3   OH223257   5.333   4.661   4.070
 7771TIP3    H123258   5.249   4.704   4.085
 7771TIP3    H223259   5.366   4.642   4.157
 7772TIP3   OH223260   1.665   5.628   4.288
 7772TIP3    H123261   1.711   5.659   4.209
 7772TIP3    H223262   1.641   5.708   4.334
 7773TIP3   OH223263   3.273   5.670   6.153
 7773TIP3    H123264   3.184   5.670   6.117
 7773TIP3    H223265   3.283   5.757   6.192
 7774TIP3   OH223266   2.643   1.220   1.489
 7774TIP3    H123267   2.661   1.203   1.397
 7774TIP3    H223268   2.670   1.311   1.502
 7775TIP3   OH223269   4.925   2.647   2.360
 7775TIP3    H123270   4.904   2.717   2.421
 7775TIP3    H223271   4.885   2.569   2.399
 7776TIP3   OH223272   7.579   5.038   2.173
 7776TIP3    H123273   7.507   4.976   2.188
 7776TIP3    H223274   7.605   5.023   2.082
 7777TIP3   OH223275   1.990   5.887   5.774
 7777TIP3    H123276   2.050   5.913   5.703
 7777TIP3    H223277   1.998   5.792   5.777
 7778TIP3   OH223278   7.837   6.713   6.489
 7778TIP3    H123279   7.774   6.674   6.429
 7778TIP3    H223280   7.811   6.805   6.495
 7779TIP3   OH223281   5.149   2.920   2.611
 7779TIP3    H123282   5.138   2.910   2.706
 7779TIP3    H223283   5.243   2.932   2.600
 7780TIP3   OH223284   3.899   2.923   3.090
 7780TIP3    H123285   3.835   2.929   3.161
 7780TIP3    H223286   3.947   3.006   3.094
 7781TIP3   OH223287   6.936   1.083   3.586
 7781TIP3    H123288   6.863   1.024   3.606
 7781TIP3    H223289   7.013   1.038   3.622
 7782TIP3   OH223290   8.223   3.454   3.541
 7782TIP3    H123291   8.190   3.495   3.621
 7782TIP3    H223292   8.219   3.524   3.475
 7783TIP3   OH223293   4.764   2.271   5.590
 7783TIP3    H123294   4.793   2.309   5.672
 7783TIP3    H223295   4.824   2.307   5.524
 7784TIP3   OH223296   5.758   6.595   4.799
 7784TIP3    H123297   5.757   6.665   4.734
 7784TIP3    H223298   5.673   6.601   4.842
 7785TIP3   OH223299   8.147   2.275   1.256
 7785TIP3    H123300   8.187   2.210   1.315
 7785TIP3    H223301   8.057   2.245   1.246
 7786TIP3   OH223302   4.839   7.361   5.035
 7786TIP3    H123303   4.818   7.341   5.126
 7786TIP3    H223304   4.805   7.450   5.022
 7787TIP3   OH223305   3.816   6.093   6.655
 7787TIP3    H123306   3.860   6.019   6.698
 7787TIP3    H223307   3.867   6.169   6.682
 7788TIP3   OH223308   7.908   1.843   2.739
 7788TIP3    H123309   7.849   1.838   2.814
 7788TIP3    H223310   7.993   1.817   2.774
 7789TIP3   OH223311   2.332   7.584   1.126
 7789TIP3    H123312   2.362   7.577   1.035
 7789TIP3    H223313   2.348   7.676   1.149
 7790TIP3   OH223314   1.669   3.031   0.708
 7790TIP3    H123315   1.697   3.002   0.795
 7790TIP3    H223316   1.738   3.091   0.679
 7791TIP3   OH223317   4.213   4.441   4.397
 7791TIP3    H123318   4.226   4.354   4.359
 7791TIP3    H223319   4.253   4.436   4.484
 7792TIP3   OH223320   2.165   1.935   6.344
 7792TIP3    H123321   2.239   1.887   6.307
 7792TIP3    H223322   2.198   1.970   6.427
 7793TIP3   OH223323   2.812   5.736   0.564
 7793TIP3    H123324   2.825   5.777   0.650
 7793TIP3    H223325   2.758   5.659   0.582
 7794TIP3   OH223326   4.496   7.152   2.442
 7794TIP3    H123327   4.417   7.149   2.389
 7794TIP3    H223328   4.568   7.140   2.379
 7795TIP3   OH223329   4.246   6.852   1.453
 7795TIP3    H123330   4.226   6.823   1.364
 7795TIP3    H223331   4.206   6.786   1.509
 7796TIP3   OH223332   4.910   3.472   1.259
 7796TIP3    H123333   4.831   3.436   1.300
 7796TIP3    H223334   4.923   3.556   1.302
 7797TIP3   OH223335   7.399   6.780   4.255
 7797TIP3    H123336   7.432   6.725   4.326
 7797TIP3    H223337   7.339   6.723   4.207
 7798TIP3   OH223338   4.008   6.157   1.162
 7798TIP3    H123339   4.013   6.061   1.169
 7798TIP3    H223340   4.053   6.189   1.240
 7799TIP3   OH223341   7.538   2.046   1.383
 7799TIP3    H123342   7.484   1.983   1.431
 7799TIP3    H223343   7.475   2.106   1.343
 7800TIP3   OH223344   7.460   2.513   6.530
 7800TIP3    H123345   7.390   2.465   6.574
 7800TIP3    H223346   7.424   2.535   6.444
 7801TIP3   OH223347   1.048   0.367   2.988
 7801TIP3    H123348   1.139   0.395   2.987
 7801TIP3    H223349   1.040   0.309   2.913
 7802TIP3   OH223350   4.684   2.306   0.793
 7802TIP3    H123351   4.640   2.348   0.867
 7802TIP3    H223352   4.772   2.342   0.794
 7803TIP3   OH223353   3.958   5.669   1.915
 7803TIP3    H123354   3.977   5.715   1.833
 7803TIP3    H223355   3.953   5.738   1.981
 7804TIP3   OH223356   8.313   7.555   2.323
 7804TIP3    H123357   8.258   7.483   2.292
 7804TIP3    H223358   8.277   7.633   2.283
 7805TIP3   OH223359   6.527   0.142   4.351
 7805TIP3    H123360   6.592   0.171   4.286
 7805TIP3    H223361   6.444   0.139   4.302
 7806TIP3   OH223362   7.636   6.787   4.096
 7806TIP3    H123363   7.561   6.814   4.150
 7806TIP3    H223364   7.713   6.806   4.150
 7807TIP3   OH223365   4.243   7.360   1.101
 7807TIP3    H123366   4.320   7.416   1.089
 7807TIP3    H223367   4.223   7.368   1.195
 7808TIP3   OH223368   6.173   1.945   3.517
 7808TIP3    H123369   6.177   1.891   3.596
 7808TIP3    H223370   6.192   1.885   3.445
 7809TIP3   OH223371   7.877   5.788   0.663
 7809TIP3    H123372   7.807   5.850   0.686
 7809TIP3    H223373   7.930   5.834   0.598
 7810TIP3   OH223374   5.125   5.772   0.163
 7810TIP3    H123375   5.143   5.850   0.111
 7810TIP3    H223376   5.123   5.701   0.098
 7811TIP3   OH223377   5.596   0.067   0.259
 7811TIP3    H123378   5.677   0.042   0.214
 7811TIP3    H223379   5.584   0.160   0.238
 7812TIP3   OH223380   5.294   1.203   3.492
 7812TIP3    H123381   5.253   1.244   3.569
 7812TIP3    H223382   5.375   1.253   3.478
 7813TIP3   OH223383   4.803   4.759   2.104
 7813TIP3    H123384   4.823   4.759   2.198
 7813TIP3    H223385   4.876   4.713   2.064
 7814TIP3   OH223386   4.564   3.349   2.159
 7814TIP3    H123387   4.535   3.295   2.233
 7814TIP3    H223388   4.483   3.379   2.118
 7815TIP3   OH223389   7.776   7.698   1.099
 7815TIP3    H123390   7.809   7.608   1.099
 7815TIP3    H223391   7.762   7.718   1.006
 7816TIP3   OH223392   4.634   2.519   3.377
 7816TIP3    H123393   4.686   2.537   3.298
 7816TIP3    H223394   4.543   2.519   3.347
 7817TIP3   OH223395   7.408   1.424   2.559
 7817TIP3    H123396   7.336   1.419   2.623
 7817TIP3    H223397   7.440   1.334   2.553
 7818TIP3   OH223398   8.248   0.986   0.421
 7818TIP3    H123399   8.245   0.909   0.365
 7818TIP3    H223400   8.203   1.055   0.371
 7819TIP3   OH223401   5.879   6.981   5.924
 7819TIP3    H123402   5.791   6.970   5.961
 7819TIP3    H223403   5.892   6.901   5.872
 7820TIP3   OH223404   0.135   5.175   6.164
 7820TIP3    H123405   0.085   5.155   6.085
 7820TIP3    H223406   0.069   5.207   6.226
 7821TIP3   OH223407   0.426   1.760   5.135
 7821TIP3    H123408   0.370   1.774   5.212
 7821TIP3    H223409   0.495   1.702   5.167
 7822TIP3   OH223410   5.111   2.984   0.134
 7822TIP3    H123411   5.195   2.971   0.090
 7822TIP3    H223412   5.057   2.911   0.106
 7823TIP3   OH223413   0.442   3.211   0.770
 7823TIP3    H123414   0.500   3.136   0.780
 7823TIP3    H223415   0.440   3.227   0.676
 7824TIP3   OH223416   3.775   6.621   2.402
 7824TIP3    H123417   3.713   6.690   2.378
 7824TIP3    H223418   3.860   6.654   2.371
 7825TIP3   OH223419   6.213   5.847   5.615
 7825TIP3    H123420   6.240   5.862   5.524
 7825TIP3    H223421   6.148   5.915   5.632
 7826TIP3   OH223422   1.462   2.723   1.220
 7826TIP3    H123423   1.413   2.804   1.226
 7826TIP3    H223424   1.400   2.655   1.244
 7827TIP3   OH223425   7.690   6.012   3.200
 7827TIP3    H123426   7.726   6.014   3.289
 7827TIP3    H223427   7.640   6.093   3.192
 7828TIP3   OH223428   3.841   4.250   5.752
 7828TIP3    H123429   3.936   4.247   5.740
 7828TIP3    H223430   3.830   4.256   5.847
 7829TIP3   OH223431   7.648   3.791   3.575
 7829TIP3    H123432   7.653   3.831   3.662
 7829TIP3    H223433   7.693   3.852   3.517
 7830TIP3   OH223434   1.006   7.745   1.360
 7830TIP3    H123435   1.084   7.759   1.414
 7830TIP3    H223436   0.934   7.783   1.412
 7831TIP3   OH223437   2.015   2.250   6.544
 7831TIP3    H123438   2.037   2.328   6.492
 7831TIP3    H223439   1.919   2.248   6.545
 7832TIP3   OH223440   2.234   5.189   5.006
 7832TIP3    H123441   2.236   5.156   4.917
 7832TIP3    H223442   2.159   5.145   5.046
 7833TIP3   OH223443   6.231   2.690   6.049
 7833TIP3    H123444   6.270   2.721   5.968
 7833TIP3    H223445   6.142   2.663   6.025
 7834TIP3   OH223446   1.307   3.405   0.245
 7834TIP3    H123447   1.238   3.341   0.263
 7834TIP3    H223448   1.388   3.355   0.244
 7835TIP3   OH223449   6.575   1.862   2.645
 7835TIP3    H123450   6.504   1.894   2.589
 7835TIP3    H223451   6.653   1.865   2.590
 7836TIP3   OH223452   4.684   5.836   5.203
 7836TIP3    H123453   4.687   5.877   5.289
 7836TIP3    H223454   4.640   5.752   5.218
 7837TIP3   OH223455   1.576   3.823   3.827
 7837TIP3    H123456   1.509   3.828   3.895
 7837TIP3    H223457   1.532   3.785   3.752
 7838TIP3   OH223458   4.016   7.540   5.364
 7838TIP3    H123459   3.934   7.496   5.386
 7838TIP3    H223460   4.066   7.542   5.445
 7839TIP3   OH223461   7.233   6.971   4.606
 7839TIP3    H123462   7.277   6.901   4.654
 7839TIP3    H223463   7.140   6.949   4.614
 7840TIP3   OH223464   1.333   5.276   5.508
 7840TIP3    H123465   1.283   5.294   5.428
 7840TIP3    H223466   1.356   5.362   5.542
 7841TIP3   OH223467   1.574   1.607   3.171
 7841TIP3    H123468   1.525   1.649   3.242
 7841TIP3    H223469   1.579   1.515   3.196
 7842TIP3   OH223470   3.786   7.730   4.997
 7842TIP3    H123471   3.726   7.658   4.977
 7842TIP3    H223472   3.795   7.728   5.092
 7843TIP3   OH223473   7.132   4.257   1.893
 7843TIP3    H123474   7.156   4.350   1.900
 7843TIP3    H223475   7.199   4.219   1.836
 7844TIP3   OH223476   5.709   5.098   4.200
 7844TIP3    H123477   5.733   5.079   4.109
 7844TIP3    H223478   5.618   5.127   4.195
 7845TIP3   OH223479   6.944   0.454   1.425
 7845TIP3    H123480   6.904   0.370   1.403
 7845TIP3    H223481   6.923   0.510   1.350
 7846TIP3   OH223482   2.802   6.882   2.606
 7846TIP3    H123483   2.758   6.893   2.691
 7846TIP3    H223484   2.879   6.939   2.612
 7847TIP3   OH223485   2.920   2.822   5.337
 7847TIP3    H123486   2.956   2.781   5.259
 7847TIP3    H223487   2.985   2.806   5.405
 7848TIP3   OH223488   0.036   6.664   1.329
 7848TIP3    H123489   0.107   6.679   1.391
 7848TIP3    H223490   0.051   6.727   1.259
 7849TIP3   OH223491   1.940   2.033   3.290
 7849TIP3    H123492   1.927   1.939   3.276
 7849TIP3    H223493   1.852   2.068   3.299
 7850TIP3   OH223494   6.462   5.078   1.779
 7850TIP3    H123495   6.405   5.039   1.712
 7850TIP3    H223496   6.431   5.040   1.861
 7851TIP3   OH223497   2.556   2.067   1.420
 7851TIP3    H123498   2.594   2.154   1.411
 7851TIP3    H223499   2.461   2.080   1.413
 7852TIP3   OH223500   1.107   5.447   5.720
 7852TIP3    H123501   1.054   5.455   5.641
 7852TIP3    H223502   1.127   5.354   5.726
 7853TIP3   OH223503   1.570   2.030   1.964
 7853TIP3    H123504   1.605   1.959   1.911
 7853TIP3    H223505   1.574   2.107   1.906
 7854TIP3   OH223506   0.353   1.537   1.609
 7854TIP3    H123507   0.382   1.481   1.537
 7854TIP3    H223508   0.352   1.480   1.685
 7855TIP3   OH223509   0.745   0.470   4.671
 7855TIP3    H123510   0.690   0.452   4.747
 7855TIP3    H223511   0.769   0.562   4.679
 7856TIP3   OH223512   1.726   3.747   4.426
 7856TIP3    H123513   1.693   3.819   4.481
 7856TIP3    H223514   1.713   3.778   4.336
 7857TIP3   OH223515   2.632   1.109   3.866
 7857TIP3    H123516   2.663   1.195   3.896
 7857TIP3    H223517   2.536   1.117   3.868
 7858TIP3   OH223518   2.876   6.307   5.213
 7858TIP3    H123519   2.800   6.353   5.178
 7858TIP3    H223520   2.950   6.365   5.195
 7859TIP3   OH223521   1.648   6.731   6.705
 7859TIP3    H123522   1.690   6.774   6.780
 7859TIP3    H223523   1.618   6.647   6.740
 7860TIP3   OH223524   0.623   0.037   6.471
 7860TIP3    H123525   0.667   0.033   6.386
 7860TIP3    H223526   0.616  -0.054   6.499
 7861TIP3   OH223527   3.064   6.505   5.191
 7861TIP3    H123528   3.086   6.530   5.281
 7861TIP3    H223529   3.119   6.561   5.136
 7862TIP3   OH223530   6.027   3.138   0.367
 7862TIP3    H123531   6.094   3.075   0.341
 7862TIP3    H223532   5.945   3.102   0.331
 7863TIP3   OH223533   4.429   6.162   0.934
 7863TIP3    H123534   4.342   6.183   0.901
 7863TIP3    H223535   4.488   6.190   0.864
 7864TIP3   OH223536   3.330   2.210   3.045
 7864TIP3    H123537   3.292   2.254   2.969
 7864TIP3    H223538   3.284   2.127   3.051
 7865TIP3   OH223539   7.391   2.133   2.787
 7865TIP3    H123540   7.313   2.184   2.809
 7865TIP3    H223541   7.458   2.198   2.768
 7866TIP3   OH223542   8.144   2.133   3.055
 7866TIP3    H123543   8.111   2.199   2.994
 7866TIP3    H223544   8.235   2.119   3.029
 7867TIP3   OH223545   6.208   1.287   5.900
 7867TIP3    H123546   6.140   1.346   5.933
 7867TIP3    H223547   6.209   1.302   5.806
 7868TIP3   OH223548   4.150   4.974   5.362
 7868TIP3    H123549   4.185   4.984   5.451
 7868TIP3    H223550   4.068   4.926   5.373
 7869TIP3   OH223551   7.820   5.204   6.235
 7869TIP3    H123552   7.820   5.235   6.325
 7869TIP3    H223553   7.879   5.263   6.189
 7870TIP3   OH223554   4.022   3.969   0.217
 7870TIP3    H123555   4.017   3.886   0.265
 7870TIP3    H223556   3.935   3.979   0.179
 7871TIP3   OH223557   6.863   5.152   4.637
 7871TIP3    H123558   6.776   5.191   4.635
 7871TIP3    H223559   6.924   5.226   4.643
 7872TIP3   OH223560   3.704   0.253   0.632
 7872TIP3    H123561   3.744   0.331   0.593
 7872TIP3    H223562   3.749   0.180   0.591
 7873TIP3   OH223563   5.167   6.188   4.972
 7873TIP3    H123564   5.110   6.177   4.896
 7873TIP3    H223565   5.215   6.105   4.977
 7874TIP3   OH223566   2.559   0.397   1.229
 7874TIP3    H123567   2.636   0.408   1.285
 7874TIP3    H223568   2.553   0.480   1.181
 7875TIP3   OH223569   2.911   4.333   1.180
 7875TIP3    H123570   2.863   4.264   1.134
 7875TIP3    H223571   2.893   4.412   1.130
 7876TIP3   OH223572   8.160   7.442   5.165
 7876TIP3    H123573   8.091   7.500   5.200
 7876TIP3    H223574   8.240   7.469   5.210
 7877TIP3   OH223575   1.224   1.001   3.564
 7877TIP3    H123576   1.201   1.093   3.567
 7877TIP3    H223577   1.207   0.974   3.474
 7878TIP3   OH223578   7.426   2.985   0.880
 7878TIP3    H123579   7.514   2.956   0.857
 7878TIP3    H223580   7.435   3.019   0.969
 7879TIP3   OH223581   5.487   1.395   1.739
 7879TIP3    H123582   5.458   1.459   1.674
 7879TIP3    H223583   5.459   1.432   1.823
 7880TIP3   OH223584   5.869   5.578   4.230
 7880TIP3    H123585   5.893   5.554   4.319
 7880TIP3    H223586   5.855   5.494   4.185
 7881TIP3   OH223587   5.619   6.647   3.413
 7881TIP3    H123588   5.669   6.707   3.357
 7881TIP3    H223589   5.680   6.577   3.435
 7882TIP3   OH223590   0.540   7.450   6.488
 7882TIP3    H123591   0.619   7.460   6.435
 7882TIP3    H223592   0.479   7.515   6.452
 7883TIP3   OH223593   1.177   2.975   5.877
 7883TIP3    H123594   1.211   3.027   5.804
 7883TIP3    H223595   1.246   2.980   5.943
 7884TIP3   OH223596   2.064   4.015   4.610
 7884TIP3    H123597   1.973   4.031   4.583
 7884TIP3    H223598   2.079   3.923   4.590
 7885TIP3   OH223599   0.443   2.206   3.151
 7885TIP3    H123600   0.496   2.250   3.085
 7885TIP3    H223601   0.370   2.169   3.103
 7886TIP3   OH223602   7.194   1.868   5.142
 7886TIP3    H123603   7.241   1.872   5.059
 7886TIP3    H223604   7.264   1.869   5.208
 7887TIP3   OH223605   5.947   7.534   6.206
 7887TIP3    H123606   5.893   7.455   6.210
 7887TIP3    H223607   5.929   7.579   6.289
 7888TIP3   OH223608   5.585   6.472   5.989
 7888TIP3    H123609   5.640   6.479   5.911
 7888TIP3    H223610   5.502   6.512   5.964
 7889TIP3   OH223611   5.271   5.209   2.633
 7889TIP3    H123612   5.220   5.172   2.705
 7889TIP3    H223613   5.334   5.267   2.676
 7890TIP3   OH223614   3.881   7.070   5.956
 7890TIP3    H123615   3.953   7.007   5.950
 7890TIP3    H223616   3.820   7.045   5.887
 7891TIP3   OH223617   6.813   0.624   6.722
 7891TIP3    H123618   6.885   0.577   6.764
 7891TIP3    H223619   6.766   0.556   6.674
 7892TIP3   OH223620   1.586   7.021   2.670
 7892TIP3    H123621   1.656   6.980   2.720
 7892TIP3    H223622   1.608   7.002   2.578
 7893TIP3   OH223623   3.110   0.028   0.385
 7893TIP3    H123624   3.020   0.029   0.416
 7893TIP3    H223625   3.118   0.106   0.331
 7894TIP3   OH223626   6.532   7.387   5.272
 7894TIP3    H123627   6.455   7.355   5.226
 7894TIP3    H223628   6.544   7.476   5.240
 7895TIP3   OH223629   4.203   1.706   6.571
 7895TIP3    H123630   4.133   1.762   6.538
 7895TIP3    H223631   4.160   1.647   6.631
 7896TIP3   OH223632   8.088   3.799   4.068
 7896TIP3    H123633   7.995   3.813   4.088
 7896TIP3    H223634   8.114   3.878   4.020
 7897TIP3   OH223635   2.080   7.755   0.235
 7897TIP3    H123636   2.085   7.827   0.298
 7897TIP3    H223637   1.988   7.751   0.210
 7898TIP3   OH223638   4.869   2.426   5.094
 7898TIP3    H123639   4.906   2.513   5.107
 7898TIP3    H223640   4.910   2.394   5.014
 7899TIP3   OH223641   2.221   1.731   4.697
 7899TIP3    H123642   2.253   1.674   4.767
 7899TIP3    H223643   2.231   1.680   4.617
 7900TIP3   OH223644   7.672   5.953   0.775
 7900TIP3    H123645   7.668   5.969   0.869
 7900TIP3    H223646   7.653   6.038   0.735
 7901TIP3   OH223647   1.355   0.744   3.003
 7901TIP3    H123648   1.322   0.834   3.012
 7901TIP3    H223649   1.293   0.702   2.944
 7902TIP3   OH223650   3.135   0.699   2.612
 7902TIP3    H123651   3.187   0.636   2.562
 7902TIP3    H223652   3.193   0.774   2.623
 7903TIP3   OH223653   3.672   2.591   4.219
 7903TIP3    H123654   3.611   2.584   4.292
 7903TIP3    H223655   3.758   2.599   4.260
 7904TIP3   OH223656   5.923   7.213   3.768
 7904TIP3    H123657   5.910   7.295   3.722
 7904TIP3    H223658   6.016   7.192   3.755
 7905TIP3   OH223659   5.599   2.122   0.750
 7905TIP3    H123660   5.545   2.146   0.825
 7905TIP3    H223661   5.688   2.117   0.785
 7906TIP3   OH223662   4.818   2.094   0.452
 7906TIP3    H123663   4.805   2.018   0.394
 7906TIP3    H223664   4.771   2.165   0.408
 7907TIP3   OH223665   5.459   7.587   1.531
 7907TIP3    H123666   5.494   7.551   1.612
 7907TIP3    H223667   5.522   7.562   1.464
 7908TIP3   OH223668   2.514   7.511   2.428
 7908TIP3    H123669   2.595   7.529   2.379
 7908TIP3    H223670   2.504   7.586   2.486
 7909TIP3   OH223671   4.501   5.105   4.657
 7909TIP3    H123672   4.556   5.077   4.729
 7909TIP3    H223673   4.483   5.025   4.607
 7910TIP3   OH223674   0.390   2.082   1.024
 7910TIP3    H123675   0.415   1.990   1.026
 7910TIP3    H223676   0.329   2.088   0.950
 7911TIP3   OH223677   1.826   4.279   0.401
 7911TIP3    H123678   1.837   4.353   0.341
 7911TIP3    H223679   1.759   4.224   0.360
 7912TIP3   OH223680   1.883   6.618   5.164
 7912TIP3    H123681   1.953   6.552   5.170
 7912TIP3    H223682   1.921   6.687   5.110
 7913TIP3   OH223683   4.858   4.178   3.514
 7913TIP3    H123684   4.930   4.120   3.538
 7913TIP3    H223685   4.897   4.266   3.515
 7914TIP3   OH223686   8.143   0.180   2.173
 7914TIP3    H123687   8.063   0.144   2.210
 7914TIP3    H223688   8.194   0.209   2.248
 7915TIP3   OH223689   7.854   1.719   6.307
 7915TIP3    H123690   7.827   1.641   6.354
 7915TIP3    H223691   7.773   1.768   6.293
 7916TIP3   OH223692   5.854   2.809   2.499
 7916TIP3    H123693   5.792   2.787   2.570
 7916TIP3    H223694   5.813   2.775   2.420
 7917TIP3   OH223695   4.411   4.806   1.871
 7917TIP3    H123696   4.442   4.716   1.856
 7917TIP3    H223697   4.329   4.812   1.822
 7918TIP3   OH223698   3.120   2.346   1.395
 7918TIP3    H123699   3.138   2.260   1.356
 7918TIP3    H223700   3.072   2.325   1.476
 7919TIP3   OH223701   2.607   4.509   3.911
 7919TIP3    H123702   2.529   4.483   3.961
 7919TIP3    H223703   2.599   4.604   3.903
 7920TIP3   OH223704   8.127   7.257   1.476
 7920TIP3    H123705   8.204   7.246   1.532
 7920TIP3    H223706   8.163   7.259   1.387
 7921TIP3   OH223707   0.426   4.505   0.405
 7921TIP3    H123708   0.472   4.582   0.438
 7921TIP3    H223709   0.496   4.444   0.380
 7922TIP3   OH223710   6.131   0.647   2.609
 7922TIP3    H123711   6.201   0.645   2.675
 7922TIP3    H223712   6.050   0.644   2.660
 7923TIP3   OH223713   8.083   0.280   3.010
 7923TIP3    H123714   8.119   0.364   3.039
 7923TIP3    H223715   8.065   0.293   2.917
 7924TIP3   OH223716   7.917   3.223   0.240
 7924TIP3    H123717   7.945   3.252   0.327
 7924TIP3    H223718   7.871   3.140   0.256
 7925TIP3   OH223719   4.686   7.776   2.405
 7925TIP3    H123720   4.696   7.700   2.462
 7925TIP3    H223721   4.692   7.852   2.463
 7926TIP3   OH223722   7.115   3.732   4.754
 7926TIP3    H123723   7.050   3.759   4.690
 7926TIP3    H223724   7.099   3.638   4.767
 7927TIP3   OH223725   2.581   5.774   4.229
 7927TIP3    H123726   2.628   5.793   4.310
 7927TIP3    H223727   2.625   5.697   4.193
 7928TIP3   OH223728   5.863   4.570   6.527
 7928TIP3    H123729   5.948   4.596   6.492
 7928TIP3    H223730   5.830   4.648   6.571
 7929TIP3   OH223731   0.856   6.646   3.384
 7929TIP3    H123732   0.839   6.730   3.427
 7929TIP3    H223733   0.884   6.671   3.295
 7930TIP3   OH223734   3.479   4.021   0.781
 7930TIP3    H123735   3.572   4.010   0.764
 7930TIP3    H223736   3.445   4.064   0.702
 7931TIP3   OH223737   7.658   7.808   4.713
 7931TIP3    H123738   7.699   7.729   4.747
 7931TIP3    H223739   7.607   7.843   4.786
 7932TIP3   OH223740   2.610   3.400   0.318
 7932TIP3    H123741   2.596   3.340   0.391
 7932TIP3    H223742   2.528   3.449   0.312
 7933TIP3   OH223743   6.299   6.562   3.530
 7933TIP3    H123744   6.210   6.596   3.538
 7933TIP3    H223745   6.289   6.477   3.487
 7934TIP3   OH223746   1.545   6.587   1.561
 7934TIP3    H123747   1.539   6.671   1.515
 7934TIP3    H223748   1.584   6.608   1.645
 7935TIP3   OH223749   1.979   3.200   4.518
 7935TIP3    H123750   2.019   3.139   4.456
 7935TIP3    H223751   2.012   3.173   4.603
 7936TIP3   OH223752   3.553   1.714   0.175
 7936TIP3    H123753   3.585   1.776   0.110
 7936TIP3    H223754   3.612   1.639   0.167
 7937TIP3   OH223755   7.570   5.620   5.382
 7937TIP3    H123756   7.659   5.623   5.417
 7937TIP3    H223757   7.515   5.652   5.454
 7938TIP3   OH223758   4.290   4.268   1.108
 7938TIP3    H123759   4.364   4.328   1.094
 7938TIP3    H223760   4.227   4.319   1.158
 7939TIP3   OH223761   4.660   7.214   3.409
 7939TIP3    H123762   4.598   7.161   3.359
 7939TIP3    H223763   4.624   7.303   3.406
 7940TIP3   OH223764   7.292   5.789   0.081
 7940TIP3    H123765   7.254   5.818  -0.002
 7940TIP3    H223766   7.260   5.852   0.146
 7941TIP3   OH223767   0.252   6.209   3.380
 7941TIP3    H123768   0.265   6.302   3.401
 7941TIP3    H223769   0.266   6.163   3.463
 7942TIP3   OH223770   6.725   7.846   2.751
 7942TIP3    H123771   6.724   7.829   2.657
 7942TIP3    H223772   6.729   7.760   2.792
 7943TIP3   OH223773   6.826   5.057   4.092
 7943TIP3    H123774   6.799   5.033   4.180
 7943TIP3    H223775   6.855   4.974   4.052
 7944TIP3   OH223776   6.207   5.413   3.453
 7944TIP3    H123777   6.258   5.376   3.381
 7944TIP3    H223778   6.237   5.365   3.530
 7945TIP3   OH223779   6.016   5.090   0.959
 7945TIP3    H123780   5.995   5.000   0.934
 7945TIP3    H223781   6.086   5.116   0.899
 7946TIP3   OH223782   5.726   4.680   4.628
 7946TIP3    H123783   5.736   4.763   4.583
 7946TIP3    H223784   5.704   4.618   4.558
 7947TIP3   OH223785   1.149   6.796   3.911
 7947TIP3    H123786   1.141   6.800   4.007
 7947TIP3    H223787   1.075   6.743   3.882
 7948TIP3   OH223788   1.139   5.416   1.174
 7948TIP3    H123789   1.073   5.482   1.196
 7948TIP3    H223790   1.096   5.332   1.193
 7949TIP3   OH223791   4.332   0.221   5.267
 7949TIP3    H123792   4.346   0.311   5.296
 7949TIP3    H223793   4.375   0.167   5.333
 7950TIP3   OH223794   2.785   4.549   4.169
 7950TIP3    H123795   2.771   4.644   4.165
 7950TIP3    H223796   2.818   4.534   4.258
 7951TIP3   OH223797   0.415   2.419   5.443
 7951TIP3    H123798   0.397   2.490   5.504
 7951TIP3    H223799   0.403   2.458   5.356
 7952TIP3   OH223800   8.277   6.413   5.859
 7952TIP3    H123801   8.225   6.333   5.864
 7952TIP3    H223802   8.212   6.484   5.859
 7953TIP3   OH223803   6.434   6.468   0.779
 7953TIP3    H123804   6.371   6.540   0.777
 7953TIP3    H223805   6.519   6.510   0.776
 7954TIP3   OH223806   4.624   1.699   5.449
 7954TIP3    H123807   4.582   1.633   5.395
 7954TIP3    H223808   4.555   1.763   5.467
 7955TIP3   OH223809   5.530   0.364   2.955
 7955TIP3    H123810   5.502   0.406   2.874
 7955TIP3    H223811   5.558   0.277   2.928
 7956TIP3   OH223812   2.277   2.914   2.544
 7956TIP3    H123813   2.244   3.003   2.534
 7956TIP3    H223814   2.261   2.893   2.636
 7957TIP3   OH223815   5.563   7.210   0.557
 7957TIP3    H123816   5.590   7.282   0.613
 7957TIP3    H223817   5.646   7.172   0.526
 7958TIP3   OH223818   7.255   0.872   0.290
 7958TIP3    H123819   7.291   0.813   0.356
 7958TIP3    H223820   7.242   0.955   0.336
 7959TIP3   OH223821   7.975   1.598   4.446
 7959TIP3    H123822   8.023   1.525   4.406
 7959TIP3    H223823   7.918   1.630   4.377
 7960TIP3   OH223824   2.038   6.254   2.206
 7960TIP3    H123825   2.004   6.318   2.268
 7960TIP3    H223826   1.980   6.178   2.217
 7961TIP3   OH223827   0.300   5.292   4.976
 7961TIP3    H123828   0.366   5.242   4.929
 7961TIP3    H223829   0.228   5.303   4.913
 7962TIP3   OH223830   0.236   4.113   0.183
 7962TIP3    H123831   0.261   4.205   0.181
 7962TIP3    H223832   0.145   4.111   0.152
 7963TIP3   OH223833   0.837   4.883   2.153
 7963TIP3    H123834   0.750   4.896   2.115
 7963TIP3    H223835   0.856   4.965   2.198
 7964TIP3   OH223836   0.556   7.261   4.085
 7964TIP3    H123837   0.485   7.305   4.038
 7964TIP3    H223838   0.570   7.314   4.163
 7965TIP3   OH223839   5.383   4.063   3.404
 7965TIP3    H123840   5.376   4.027   3.492
 7965TIP3    H223841   5.388   4.158   3.416
 7966TIP3   OH223842   7.889   5.495   0.387
 7966TIP3    H123843   7.922   5.483   0.298
 7966TIP3    H223844   7.962   5.534   0.435
 7967TIP3   OH223845   1.674   3.956   1.019
 7967TIP3    H123846   1.671   3.987   0.929
 7967TIP3    H223847   1.659   3.862   1.013
 7968TIP3   OH223848   0.711   2.735   4.557
 7968TIP3    H123849   0.695   2.802   4.491
 7968TIP3    H223850   0.777   2.774   4.614
 7969TIP3   OH223851   5.328   6.029   5.647
 7969TIP3    H123852   5.399   5.971   5.619
 7969TIP3    H223853   5.365   6.078   5.721
 7970TIP3   OH223854   3.944   0.278   3.878
 7970TIP3    H123855   4.008   0.325   3.824
 7970TIP3    H223856   3.897   0.223   3.816
 7971TIP3   OH223857   4.046   0.232   0.449
 7971TIP3    H123858   4.064   0.160   0.510
 7971TIP3    H223859   4.043   0.310   0.505
 7972TIP3   OH223860   0.976   6.194   1.151
 7972TIP3    H123861   0.983   6.121   1.212
 7972TIP3    H223862   1.055   6.189   1.098
 7973TIP3   OH223863   3.132   6.250   1.637
 7973TIP3    H123864   3.144   6.221   1.547
 7973TIP3    H223865   3.174   6.183   1.690
 7974TIP3   OH223866   0.221   6.813   5.121
 7974TIP3    H123867   0.213   6.878   5.050
 7974TIP3    H223868   0.201   6.863   5.200
 7975TIP3   OH223869   7.719   0.833   6.206
 7975TIP3    H123870   7.683   0.807   6.122
 7975TIP3    H223871   7.653   0.807   6.270
 7976TIP3   OH223872   4.290   1.372   5.802
 7976TIP3    H123873   4.309   1.411   5.717
 7976TIP3    H223874   4.359   1.307   5.815
 7977TIP3   OH223875   7.116   5.799   4.082
 7977TIP3    H123876   7.154   5.860   4.018
 7977TIP3    H223877   7.049   5.752   4.034
 7978TIP3   OH223878   6.347   1.308   3.791
 7978TIP3    H123879   6.421   1.355   3.752
 7978TIP3    H223880   6.278   1.316   3.725
 7979TIP3   OH223881   6.270   0.325   3.134
 7979TIP3    H123882   6.219   0.403   3.156
 7979TIP3    H223883   6.314   0.301   3.215
 7980TIP3   OH223884   8.170   3.194   0.055
 7980TIP3    H123885   8.105   3.249   0.098
 7980TIP3    H223886   8.170   3.222  -0.036
 7981TIP3   OH223887   6.133   2.075   2.776
 7981TIP3    H123888   6.184   2.016   2.721
 7981TIP3    H223889   6.196   2.114   2.836
 7982TIP3   OH223890   6.974   2.152   3.507
 7982TIP3    H123891   6.967   2.146   3.411
 7982TIP3    H223892   7.006   2.240   3.523
 7983TIP3   OH223893   0.102   5.919   6.556
 7983TIP3    H123894   0.064   5.974   6.487
 7983TIP3    H223895   0.128   5.839   6.511
 7984TIP3   OH223896   6.784   6.991   4.740
 7984TIP3    H123897   6.699   7.017   4.775
 7984TIP3    H223898   6.776   7.006   4.645
 7985TIP3   OH223899   4.307   0.179   2.678
 7985TIP3    H123900   4.269   0.125   2.608
 7985TIP3    H223901   4.393   0.203   2.645
 7986TIP3   OH223902   1.489   4.533   0.982
 7986TIP3    H123903   1.429   4.588   0.932
 7986TIP3    H223904   1.560   4.592   1.008
 7987TIP3   OH223905   5.752   0.916   1.239
 7987TIP3    H123906   5.712   0.964   1.166
 7987TIP3    H223907   5.818   0.975   1.274
 7988TIP3   OH223908   3.908   2.300   4.986
 7988TIP3    H123909   4.003   2.305   4.987
 7988TIP3    H223910   3.884   2.310   4.894
 7989TIP3   OH223911   7.746   3.338   4.260
 7989TIP3    H123912   7.801   3.287   4.318
 7989TIP3    H223913   7.803   3.410   4.230
 7990TIP3   OH223914   3.448   2.835   1.136
 7990TIP3    H123915   3.399   2.912   1.165
 7990TIP3    H223916   3.421   2.822   1.045
 7991TIP3   OH223917   7.231   6.808   5.184
 7991TIP3    H123918   7.265   6.759   5.109
 7991TIP3    H223919   7.203   6.740   5.245
 7992TIP3   OH223920   1.469   5.037   4.977
 7992TIP3    H123921   1.453   5.032   4.883
 7992TIP3    H223922   1.400   5.095   5.010
 7993TIP3   OH223923   3.529   4.039   3.743
 7993TIP3    H123924   3.529   4.019   3.649
 7993TIP3    H223925   3.594   3.979   3.780
 7994TIP3   OH223926   5.594   4.822   6.133
 7994TIP3    H123927   5.613   4.745   6.079
 7994TIP3    H223928   5.678   4.844   6.174
 7995TIP3   OH223929   0.418   5.224   1.138
 7995TIP3    H123930   0.390   5.251   1.226
 7995TIP3    H223931   0.473   5.147   1.153
 7996TIP3   OH223932   5.610   3.275   3.212
 7996TIP3    H123933   5.543   3.343   3.204
 7996TIP3    H223934   5.693   3.323   3.220
 7997TIP3   OH223935   1.617   1.378   3.330
 7997TIP3    H123936   1.605   1.291   3.370
 7997TIP3    H223937   1.673   1.425   3.392
 7998TIP3   OH223938   1.750   2.193   3.554
 7998TIP3    H123939   1.770   2.117   3.608
 7998TIP3    H223940   1.727   2.156   3.468
 7999TIP3   OH223941   4.761   4.158   2.877
 7999TIP3    H123942   4.810   4.091   2.923
 7999TIP3    H223943   4.804   4.166   2.792
 8000TIP3   OH223944   4.110   5.692   3.143
 8000TIP3    H123945   4.022   5.662   3.168
 8000TIP3    H223946   4.119   5.668   3.051
 8001TIP3   OH223947   0.763   2.939   1.765
 8001TIP3    H123948   0.771   3.028   1.732
 8001TIP3    H223949   0.847   2.921   1.806
 8002TIP3   OH223950   4.698   3.692   2.074
 8002TIP3    H123951   4.750   3.613   2.089
 8002TIP3    H223952   4.718   3.718   1.984
 8003TIP3   OH223953   7.266   5.437   6.720
 8003TIP3    H123954   7.269   5.506   6.653
 8003TIP3    H223955   7.297   5.358   6.675
 8004TIP3   OH223956   8.159   4.551   1.352
 8004TIP3    H123957   8.104   4.472   1.352
 8004TIP3    H223958   8.213   4.543   1.273
 8005TIP3   OH223959   5.328   1.334   4.253
 8005TIP3    H123960   5.409   1.291   4.225
 8005TIP3    H223961   5.320   1.311   4.346
 8006TIP3   OH223962   0.056   7.673   3.424
 8006TIP3    H123963  -0.027   7.638   3.389
 8006TIP3    H223964   0.038   7.687   3.517
 8007TIP3   OH223965   7.206   6.729   4.821
 8007TIP3    H123966   7.206   6.640   4.856
 8007TIP3    H223967   7.113   6.753   4.817
 8008TIP3   OH223968   3.432   7.544   1.807
 8008TIP3    H123969   3.368   7.611   1.782
 8008TIP3    H223970   3.516   7.590   1.803
 8009TIP3   OH223971   3.270   7.163   2.678
 8009TIP3    H123972   3.242   7.252   2.656
 8009TIP3    H223973   3.338   7.174   2.744
 8010TIP3   OH223974   4.893   6.411   4.099
 8010TIP3    H123975   4.818   6.374   4.146
 8010TIP3    H223976   4.954   6.437   4.167
 8011TIP3   OH223977   6.436   3.578   6.606
 8011TIP3    H123978   6.394   3.657   6.638
 8011TIP3    H223979   6.413   3.574   6.513
 8012TIP3   OH223980   1.880   6.681   1.768
 8012TIP3    H123981   1.921   6.632   1.697
 8012TIP3    H223982   1.803   6.629   1.792
 8013TIP3   OH223983   1.311   6.409   1.813
 8013TIP3    H123984   1.244   6.377   1.873
 8013TIP3    H223985   1.392   6.406   1.864
 8014TIP3   OH223986   5.824   4.695   3.860
 8014TIP3    H123987   5.779   4.715   3.942
 8014TIP3    H223988   5.899   4.641   3.886
 8015TIP3   OH223989   0.019   2.907   1.023
 8015TIP3    H123990  -0.033   2.866   1.092
 8015TIP3    H223991   0.110   2.891   1.049
 8016TIP3   OH223992   2.424   4.511   0.742
 8016TIP3    H123993   2.514   4.479   0.753
 8016TIP3    H223994   2.387   4.508   0.830
 8017TIP3   OH223995   5.054   5.330   0.244
 8017TIP3    H123996   4.990   5.367   0.183
 8017TIP3    H223997   5.009   5.330   0.329
 8018TIP3   OH223998   6.755   5.039   2.167
 8018TIP3    H123999   6.799   5.117   2.199
 8018TIP3    H224000   6.722   4.995   2.246
 8019TIP3   OH224001   0.138   4.885   5.606
 8019TIP3    H124002   0.196   4.940   5.553
 8019TIP3    H224003   0.198   4.830   5.657
 8020TIP3   OH224004   6.377   7.743   0.267
 8020TIP3    H124005   6.311   7.691   0.221
 8020TIP3    H224006   6.440   7.768   0.199
 8021TIP3   OH224007   1.972   1.893   4.655
 8021TIP3    H124008   1.950   1.800   4.666
 8021TIP3    H224009   1.901   1.927   4.600
 8022TIP3   OH224010   3.807   1.298   4.884
 8022TIP3    H124011   3.858   1.355   4.827
 8022TIP3    H224012   3.716   1.316   4.861
 8023TIP3   OH224013   6.803   5.351   3.349
 8023TIP3    H124014   6.842   5.281   3.402
 8023TIP3    H224015   6.860   5.357   3.272
 8024TIP3   OH224016   0.790   2.564   6.471
 8024TIP3    H124017   0.795   2.646   6.421
 8024TIP3    H224018   0.746   2.588   6.553
 8025TIP3   OH224019   2.039   0.851   6.311
 8025TIP3    H124020   2.013   0.943   6.303
 8025TIP3    H224021   2.014   0.812   6.227
 8026TIP3   OH224022   1.626   3.591   2.354
 8026TIP3    H124023   1.676   3.549   2.284
 8026TIP3    H224024   1.613   3.681   2.324
 8027TIP3   OH224025   8.071   3.744   3.616
 8027TIP3    H124026   8.076   3.839   3.614
 8027TIP3    H224027   8.161   3.714   3.608
 8028TIP3   OH224028   2.892   7.216   5.567
 8028TIP3    H124029   2.963   7.230   5.629
 8028TIP3    H224030   2.813   7.214   5.621
 8029TIP3   OH224031   5.975   6.969   0.436
 8029TIP3    H124032   6.027   6.954   0.515
 8029TIP3    H224033   6.037   6.958   0.364
 8030TIP3   OH224034   5.506   1.135   4.562
 8030TIP3    H124035   5.588   1.166   4.524
 8030TIP3    H224036   5.471   1.073   4.497
 8031TIP3   OH224037   4.275   5.443   0.273
 8031TIP3    H124038   4.180   5.438   0.258
 8031TIP3    H224039   4.310   5.475   0.190
 8032TIP3   OH224040   8.195   1.907   5.223
 8032TIP3    H124041   8.209   1.837   5.286
 8032TIP3    H224042   8.178   1.985   5.277
 8033TIP3   OH224043   2.572   0.445   4.886
 8033TIP3    H124044   2.516   0.456   4.808
 8033TIP3    H224045   2.512   0.459   4.960
 8034TIP3   OH224046   2.153   6.686   5.175
 8034TIP3    H124047   2.192   6.753   5.231
 8034TIP3    H224048   2.149   6.725   5.088
 8035TIP3   OH224049   2.633   6.835   6.795
 8035TIP3    H124050   2.607   6.799   6.711
 8035TIP3    H224051   2.618   6.929   6.787
 8036TIP3   OH224052   5.000   2.356   6.136
 8036TIP3    H124053   5.021   2.399   6.219
 8036TIP3    H224054   4.986   2.264   6.160
 8037TIP3   OH224055   3.189   0.383   4.739
 8037TIP3    H124056   3.254   0.439   4.782
 8037TIP3    H224057   3.120   0.372   4.805
 8038TIP3   OH224058   2.759   3.495   1.354
 8038TIP3    H124059   2.705   3.501   1.275
 8038TIP3    H224060   2.847   3.517   1.324
 8039TIP3   OH224061   7.704   1.019   4.461
 8039TIP3    H124062   7.756   0.949   4.500
 8039TIP3    H224063   7.615   0.985   4.460
 8040TIP3   OH224064   5.141   0.998   2.656
 8040TIP3    H124065   5.140   1.077   2.709
 8040TIP3    H224066   5.053   0.960   2.667
 8041TIP3   OH224067   7.162   3.030   5.370
 8041TIP3    H124068   7.204   3.106   5.330
 8041TIP3    H224069   7.098   3.002   5.305
 8042TIP3   OH224070   2.265   0.848   3.724
 8042TIP3    H124071   2.265   0.857   3.819
 8042TIP3    H224072   2.334   0.784   3.706
 8043TIP3   OH224073   0.741   0.784   5.397
 8043TIP3    H124074   0.812   0.795   5.335
 8043TIP3    H224075   0.664   0.766   5.343
 8044TIP3   OH224076   1.737   2.400   0.158
 8044TIP3    H124077   1.733   2.495   0.165
 8044TIP3    H224078   1.778   2.372   0.240
 8045TIP3   OH224079   0.951   4.640   2.027
 8045TIP3    H124080   0.896   4.705   2.071
 8045TIP3    H224081   0.892   4.566   2.012
 8046TIP3   OH224082   1.495   5.753   4.587
 8046TIP3    H124083   1.519   5.834   4.631
 8046TIP3    H224084   1.523   5.684   4.646
 8047TIP3   OH224085   5.707   3.137   4.264
 8047TIP3    H124086   5.766   3.075   4.221
 8047TIP3    H224087   5.713   3.115   4.357
 8048TIP3   OH224088   0.318   0.544   1.141
 8048TIP3    H124089   0.317   0.500   1.226
 8048TIP3    H224090   0.332   0.472   1.078
 8049TIP3   OH224091   4.093   0.906   1.801
 8049TIP3    H124092   4.184   0.933   1.806
 8049TIP3    H224093   4.067   0.891   1.892
 8050TIP3   OH224094   8.034   4.173   4.532
 8050TIP3    H124095   7.987   4.176   4.449
 8050TIP3    H224096   7.966   4.178   4.599
 8051TIP3   OH224097   5.117   3.985   0.764
 8051TIP3    H124098   5.076   3.911   0.719
 8051TIP3    H224099   5.044   4.037   0.797
 8052TIP3   OH224100   2.185   2.752   1.003
 8052TIP3    H124101   2.163   2.823   1.063
 8052TIP3    H224102   2.274   2.727   1.027
 8053TIP3   OH224103   3.211   7.352   6.463
 8053TIP3    H124104   3.286   7.374   6.519
 8053TIP3    H224105   3.251   7.322   6.381
 8054TIP3   OH224106   5.106   6.190   3.730
 8054TIP3    H124107   5.101   6.118   3.793
 8054TIP3    H224108   5.129   6.148   3.647
 8055TIP3   OH224109   0.751   6.997   3.151
 8055TIP3    H124110   0.737   7.041   3.068
 8055TIP3    H224111   0.701   6.915   3.144
 8056TIP3   OH224112   1.994   7.352   6.138
 8056TIP3    H124113   1.968   7.336   6.229
 8056TIP3    H224114   1.922   7.317   6.086
 8057TIP3   OH224115   8.221   3.749   2.304
 8057TIP3    H124116   8.184   3.833   2.328
 8057TIP3    H224117   8.299   3.740   2.360
 8058TIP3   OH224118   4.003   1.228   1.147
 8058TIP3    H124119   4.034   1.267   1.229
 8058TIP3    H224120   3.969   1.142   1.172
 8059TIP3   OH224121   7.583   6.528   5.144
 8059TIP3    H124122   7.664   6.566   5.110
 8059TIP3    H224123   7.552   6.590   5.209
 8060TIP3   OH224124   4.276   3.570   5.074
 8060TIP3    H124125   4.224   3.615   5.141
 8060TIP3    H224126   4.238   3.600   4.991
 8061TIP3   OH224127   4.863   6.152   2.460
 8061TIP3    H124128   4.862   6.237   2.416
 8061TIP3    H224129   4.926   6.100   2.410
 8062TIP3   OH224130   4.678   3.118   2.498
 8062TIP3    H124131   4.731   3.100   2.420
 8062TIP3    H224132   4.683   3.038   2.549
 8063TIP3   OH224133   4.932   3.923   5.611
 8063TIP3    H124134   4.859   3.930   5.550
 8063TIP3    H224135   4.933   3.832   5.637
 8064TIP3   OH224136   5.572   0.339   1.251
 8064TIP3    H124137   5.594   0.374   1.337
 8064TIP3    H224138   5.575   0.244   1.263
 8065TIP3   OH224139   1.387   7.009   5.670
 8065TIP3    H124140   1.472   7.041   5.702
 8065TIP3    H224141   1.352   6.957   5.742
 8066TIP3   OH224142   7.228   5.865   1.132
 8066TIP3    H124143   7.175   5.786   1.142
 8066TIP3    H224144   7.269   5.877   1.218
 8067TIP3   OH224145   3.247   4.137   3.808
 8067TIP3    H124146   3.218   4.060   3.856
 8067TIP3    H224147   3.330   4.111   3.768
 8068TIP3   OH224148   2.304   6.503   0.076
 8068TIP3    H124149   2.338   6.414   0.077
 8068TIP3    H224150   2.233   6.500   0.012
 8069TIP3   OH224151   3.545   7.482   2.710
 8069TIP3    H124152   3.456   7.507   2.737
 8069TIP3    H224153   3.575   7.556   2.657
 8070TIP3   OH224154   3.074   2.984   3.813
 8070TIP3    H124155   3.034   2.924   3.750
 8070TIP3    H224156   3.140   2.932   3.858
 8071TIP3   OH224157   1.550   5.441   3.765
 8071TIP3    H124158   1.612   5.432   3.693
 8071TIP3    H224159   1.468   5.467   3.723
 8072TIP3   OH224160   1.572   4.117   3.609
 8072TIP3    H124161   1.497   4.058   3.612
 8072TIP3    H224162   1.559   4.177   3.682
 8073TIP3   OH224163   1.949   6.447   3.586
 8073TIP3    H124164   2.015   6.378   3.587
 8073TIP3    H224165   1.994   6.524   3.620
 8074TIP3   OH224166   7.879   2.392   3.642
 8074TIP3    H124167   7.896   2.305   3.679
 8074TIP3    H224168   7.964   2.437   3.645
 8075TIP3   OH224169   5.484   0.899   6.036
 8075TIP3    H124170   5.526   0.985   6.033
 8075TIP3    H224171   5.544   0.842   5.988
 8076TIP3   OH224172   1.797   7.814   2.936
 8076TIP3    H124173   1.810   7.724   2.905
 8076TIP3    H224174   1.878   7.859   2.914
 8077TIP3   OH224175   5.542   5.469   6.082
 8077TIP3    H124176   5.483   5.497   6.011
 8077TIP3    H224177   5.486   5.466   6.159
 8078TIP3   OH224178   5.338   6.315   4.130
 8078TIP3    H124179   5.252   6.276   4.114
 8078TIP3    H224180   5.333   6.348   4.220
 8079TIP3   OH224181   4.114   4.172   5.794
 8079TIP3    H124182   4.098   4.218   5.877
 8079TIP3    H224183   4.197   4.208   5.763
 8080TIP3   OH224184   3.193   5.758   1.258
 8080TIP3    H124185   3.232   5.674   1.282
 8080TIP3    H224186   3.203   5.812   1.336
 8081TIP3   OH224187   1.981   4.889   5.437
 8081TIP3    H124188   1.913   4.825   5.419
 8081TIP3    H224189   2.028   4.854   5.513
 8082TIP3   OH224190   0.953   3.403   0.905
 8082TIP3    H124191   0.912   3.317   0.909
 8082TIP3    H224192   1.046   3.386   0.918
 8083TIP3   OH224193   3.856   1.562   0.834
 8083TIP3    H124194   3.788   1.499   0.809
 8083TIP3    H224195   3.881   1.604   0.752
 8084TIP3   OH224196   1.644   5.090   5.865
 8084TIP3    H124197   1.588   5.014   5.878
 8084TIP3    H224198   1.642   5.106   5.771
 8085TIP3   OH224199   4.813   6.522   4.885
 8085TIP3    H124200   4.800   6.430   4.865
 8085TIP3    H224201   4.767   6.536   4.967
 8086TIP3   OH224202   1.432   1.793   1.346
 8086TIP3    H124203   1.522   1.781   1.317
 8086TIP3    H224204   1.438   1.798   1.441
 8087TIP3   OH224205   3.349   1.379   2.822
 8087TIP3    H124206   3.350   1.285   2.805
 8087TIP3    H224207   3.256   1.401   2.831
 8088TIP3   OH224208   7.072   3.368   2.615
 8088TIP3    H124209   7.044   3.337   2.702
 8088TIP3    H224210   7.039   3.457   2.610
 8089TIP3   OH224211   3.261   0.507   2.064
 8089TIP3    H124212   3.296   0.422   2.038
 8089TIP3    H224213   3.338   0.563   2.074
 8090TIP3   OH224214   4.985   7.129   1.942
 8090TIP3    H124215   5.024   7.073   1.875
 8090TIP3    H224216   4.966   7.212   1.896
 8091TIP3   OH224217   6.556   3.716   0.243
 8091TIP3    H124218   6.491   3.653   0.211
 8091TIP3    H224219   6.505   3.782   0.289
 8092TIP3   OH224220   3.510   3.503   6.556
 8092TIP3    H124221   3.432   3.557   6.544
 8092TIP3    H224222   3.518   3.494   6.651
 8093TIP3   OH224223   2.654   5.632   4.893
 8093TIP3    H124224   2.743   5.601   4.907
 8093TIP3    H224225   2.607   5.605   4.972
 8094TIP3   OH224226   1.335   5.044   4.343
 8094TIP3    H124227   1.307   4.953   4.352
 8094TIP3    H224228   1.274   5.093   4.398
 8095TIP3   OH224229   4.277   3.514   0.696
 8095TIP3    H124230   4.355   3.566   0.674
 8095TIP3    H224231   4.213   3.537   0.629
 8096TIP3   OH224232   3.414   1.938   0.611
 8096TIP3    H124233   3.330   1.916   0.653
 8096TIP3    H224234   3.425   1.871   0.544
 8097TIP3   OH224235   3.627   3.323   1.431
 8097TIP3    H124236   3.697   3.319   1.367
 8097TIP3    H224237   3.605   3.232   1.449
 8098TIP3   OH224238   2.833   1.976   4.969
 8098TIP3    H124239   2.909   2.028   4.994
 8098TIP3    H224240   2.758   2.030   4.992
 8099TIP3   OH224241   5.084   1.152   2.876
 8099TIP3    H124242   5.028   1.133   2.952
 8099TIP3    H224243   5.089   1.247   2.873
 8100TIP3   OH224244   2.378   3.440   6.707
 8100TIP3    H124245   2.457   3.402   6.744
 8100TIP3    H224246   2.407   3.488   6.630
 8101TIP3   OH224247   1.930   7.704   1.078
 8101TIP3    H124248   1.898   7.668   1.161
 8101TIP3    H224249   2.003   7.761   1.103
 8102TIP3   OH224250   2.158   3.755   4.556
 8102TIP3    H124251   2.082   3.707   4.590
 8102TIP3    H224252   2.174   3.717   4.470
 8103TIP3   OH224253   1.223   2.994   0.050
 8103TIP3    H124254   1.189   3.063  -0.007
 8103TIP3    H224255   1.253   3.040   0.129
 8104TIP3   OH224256   5.663   5.150   5.180
 8104TIP3    H124257   5.609   5.079   5.215
 8104TIP3    H224258   5.603   5.224   5.171
 8105TIP3   OH224259   6.936   0.112   1.921
 8105TIP3    H124260   6.902   0.181   1.978
 8105TIP3    H224261   6.992   0.059   1.978
 8106TIP3   OH224262   1.834   5.696   4.070
 8106TIP3    H124263   1.781   5.650   4.005
 8106TIP3    H224264   1.924   5.687   4.039
 8107TIP3   OH224265   2.006   0.300   5.129
 8107TIP3    H124266   1.983   0.388   5.158
 8107TIP3    H224267   2.099   0.304   5.109
 8108TIP3   OH224268   0.076   7.741   4.254
 8108TIP3    H124269   0.085   7.819   4.199
 8108TIP3    H224270  -0.007   7.754   4.301
 8109TIP3   OH224271   7.506   0.357   1.317
 8109TIP3    H124272   7.539   0.447   1.311
 8109TIP3    H224273   7.437   0.353   1.251
 8110TIP3   OH224274   7.857   4.327   2.101
 8110TIP3    H124275   7.929   4.283   2.055
 8110TIP3    H224276   7.861   4.290   2.190
 8111TIP3   OH224277   1.019   0.442   4.583
 8111TIP3    H124278   1.064   0.474   4.661
 8111TIP3    H224279   0.928   0.431   4.610
 8112TIP3   OH224280   7.067   1.215   5.503
 8112TIP3    H124281   7.127   1.216   5.578
 8112TIP3    H224282   7.035   1.125   5.500
 8113TIP3   OH224283   5.286   6.202   2.013
 8113TIP3    H124284   5.207   6.174   2.059
 8113TIP3    H224285   5.266   6.291   1.983
 8114TIP3   OH224286   1.365   1.124   4.429
 8114TIP3    H124287   1.283   1.075   4.437
 8114TIP3    H224288   1.415   1.076   4.362
 8115TIP3   OH224289   3.229   5.481   5.455
 8115TIP3    H124290   3.154   5.422   5.466
 8115TIP3    H224291   3.301   5.423   5.428
 8116TIP3   OH224292   0.621   1.967   5.982
 8116TIP3    H124293   0.533   1.930   5.975
 8116TIP3    H224294   0.679   1.891   5.982
 8117TIP3   OH224295   5.993   0.636   3.572
 8117TIP3    H124296   6.044   0.673   3.500
 8117TIP3    H224297   6.029   0.548   3.583
 8118TIP3   OH224298   5.566   2.303   5.929
 8118TIP3    H124299   5.520   2.220   5.925
 8118TIP3    H224300   5.609   2.311   5.844
 8119TIP3   OH224301   0.323   3.865   4.198
 8119TIP3    H124302   0.397   3.807   4.176
 8119TIP3    H224303   0.258   3.807   4.237
 8120TIP3   OH224304   2.062   5.571   0.259
 8120TIP3    H124305   2.121   5.527   0.320
 8120TIP3    H224306   2.043   5.656   0.300
 8121TIP3   OH224307   3.216   2.029   0.344
 8121TIP3    H124308   3.185   2.063   0.260
 8121TIP3    H224309   3.250   2.106   0.390
 8122TIP3   OH224310   7.704   3.704   2.336
 8122TIP3    H124311   7.779   3.648   2.358
 8122TIP3    H224312   7.633   3.643   2.316
 8123TIP3   OH224313   1.144   4.289   5.397
 8123TIP3    H124314   1.111   4.370   5.435
 8123TIP3    H224315   1.097   4.220   5.443
 8124TIP3   OH224316   6.006   2.637   5.073
 8124TIP3    H124317   6.059   2.640   4.993
 8124TIP3    H224318   5.916   2.649   5.043
 8125TIP3   OH224319   1.186   7.019   0.155
 8125TIP3    H124320   1.096   7.034   0.128
 8125TIP3    H224321   1.239   7.060   0.086
 8126TIP3   OH224322   2.218   6.905   3.855
 8126TIP3    H124323   2.280   6.847   3.899
 8126TIP3    H224324   2.154   6.846   3.816
 8127TIP3   OH224325   3.688   4.559   0.313
 8127TIP3    H124326   3.744   4.482   0.326
 8127TIP3    H224327   3.624   4.554   0.384
 8128TIP3   OH224328   8.096   1.012   2.112
 8128TIP3    H124329   8.072   0.981   2.199
 8128TIP3    H224330   8.035   0.968   2.052
 8129TIP3   OH224331   2.489   2.177   4.603
 8129TIP3    H124332   2.539   2.259   4.605
 8129TIP3    H224333   2.531   2.121   4.668
 8130TIP3   OH224334   4.820   4.465   2.315
 8130TIP3    H124335   4.900   4.490   2.269
 8130TIP3    H224336   4.806   4.534   2.379
 8131TIP3   OH224337   3.726   6.940   4.127
 8131TIP3    H124338   3.725   6.971   4.217
 8131TIP3    H224339   3.647   6.887   4.119
 8132TIP3   OH224340   5.351   1.331   0.899
 8132TIP3    H124341   5.385   1.267   0.836
 8132TIP3    H224342   5.412   1.327   0.972
 8133TIP3   OH224343   7.728   6.797   2.893
 8133TIP3    H124344   7.679   6.739   2.951
 8133TIP3    H224345   7.815   6.758   2.888
 8134TIP3   OH224346   5.053   0.538   3.843
 8134TIP3    H124347   5.053   0.599   3.916
 8134TIP3    H224348   5.017   0.587   3.770
 8135TIP3   OH224349   0.944   7.505   2.833
 8135TIP3    H124350   1.014   7.569   2.840
 8135TIP3    H224351   0.971   7.447   2.761
 8136TIP3   OH224352   4.116   4.230   1.552
 8136TIP3    H124353   4.195   4.268   1.591
 8136TIP3    H224354   4.091   4.160   1.612
 8137TIP3   OH224355   2.832   1.958   5.922
 8137TIP3    H124356   2.876   2.023   5.977
 8137TIP3    H224357   2.773   2.010   5.867
 8138TIP3   OH224358   7.561   0.207   1.534
 8138TIP3    H124359   7.540   0.119   1.502
 8138TIP3    H224360   7.564   0.261   1.455
 8139TIP3   OH224361   5.076   7.315   3.683
 8139TIP3    H124362   5.009   7.318   3.614
 8139TIP3    H224363   5.135   7.245   3.656
 8140TIP3   OH224364   0.432   6.050   0.562
 8140TIP3    H124365   0.479   6.063   0.480
 8140TIP3    H224366   0.471   6.113   0.623
 8141TIP3   OH224367   0.215   4.109   5.484
 8141TIP3    H124368   0.156   4.037   5.507
 8141TIP3    H224369   0.165   4.162   5.422
 8142TIP3   OH224370   0.349   0.527   0.491
 8142TIP3    H124371   0.271   0.565   0.450
 8142TIP3    H224372   0.366   0.582   0.567
 8143TIP3   OH224373   3.278   7.272   0.945
 8143TIP3    H124374   3.288   7.226   0.862
 8143TIP3    H224375   3.261   7.363   0.921
 8144TIP3   OH224376   5.742   7.786   6.621
 8144TIP3    H124377   5.795   7.865   6.607
 8144TIP3    H224378   5.713   7.793   6.712
 8145TIP3   OH224379   1.068   4.038   0.593
 8145TIP3    H124380   1.122   4.066   0.519
 8145TIP3    H224381   1.097   3.948   0.610
 8146TIP3   OH224382   6.746   1.117   4.711
 8146TIP3    H124383   6.827   1.081   4.674
 8146TIP3    H224384   6.736   1.203   4.669
 8147TIP3   OH224385   2.777   6.623   4.512
 8147TIP3    H124386   2.729   6.609   4.431
 8147TIP3    H224387   2.758   6.714   4.536
 8148TIP3   OH224388   0.727   5.251   2.356
 8148TIP3    H124389   0.636   5.221   2.350
 8148TIP3    H224390   0.727   5.337   2.314
 8149TIP3   OH224391   0.905   6.758   5.873
 8149TIP3    H124392   0.838   6.721   5.931
 8149TIP3    H224393   0.911   6.697   5.800
 8150TIP3   OH224394   6.664   3.224   6.217
 8150TIP3    H124395   6.652   3.319   6.215
 8150TIP3    H224396   6.662   3.202   6.310
 8151TIP3   OH224397   0.778   2.013   0.249
 8151TIP3    H124398   0.707   1.961   0.211
 8151TIP3    H224399   0.741   2.050   0.329
 8152TIP3   OH224400   2.099   6.392   5.617
 8152TIP3    H124401   2.086   6.356   5.704
 8152TIP3    H224402   2.014   6.429   5.593
 8153TIP3   OH224403   6.834   7.691   3.532
 8153TIP3    H124404   6.893   7.694   3.456
 8153TIP3    H224405   6.809   7.600   3.539
 8154TIP3   OH224406   5.514   4.075   5.064
 8154TIP3    H124407   5.565   3.995   5.054
 8154TIP3    H224408   5.475   4.069   5.151
 8155TIP3   OH224409   7.363   0.574   5.529
 8155TIP3    H124410   7.455   0.550   5.518
 8155TIP3    H224411   7.317   0.520   5.466
 8156TIP3   OH224412   1.328   0.942   1.906
 8156TIP3    H124413   1.397   0.973   1.965
 8156TIP3    H224414   1.356   0.854   1.880
 8157TIP3   OH224415   2.053   1.718   1.183
 8157TIP3    H124416   2.122   1.675   1.131
 8157TIP3    H224417   2.099   1.785   1.233
 8158TIP3   OH224418   6.735   4.434   2.567
 8158TIP3    H124419   6.699   4.352   2.601
 8158TIP3    H224420   6.677   4.457   2.494
 8159TIP3   OH224421   3.701   0.700   2.827
 8159TIP3    H124422   3.753   0.697   2.908
 8159TIP3    H224423   3.685   0.608   2.805
 8160TIP3   OH224424   0.215   1.458   5.615
 8160TIP3    H124425   0.146   1.520   5.638
 8160TIP3    H224426   0.285   1.512   5.580
 8161TIP3   OH224427   1.115   2.209   2.650
 8161TIP3    H124428   1.091   2.255   2.731
 8161TIP3    H224429   1.128   2.279   2.586
 8162TIP3   OH224430   4.740   4.997   5.310
 8162TIP3    H124431   4.742   4.941   5.232
 8162TIP3    H224432   4.647   5.005   5.331
 8163TIP3   OH224433   0.500   4.220   3.573
 8163TIP3    H124434   0.540   4.304   3.596
 8163TIP3    H224435   0.464   4.233   3.486
 8164TIP3   OH224436   4.413   1.823   6.459
 8164TIP3    H124437   4.416   1.754   6.392
 8164TIP3    H224438   4.340   1.800   6.515
 8165TIP3   OH224439   4.996   7.579   5.651
 8165TIP3    H124440   4.906   7.609   5.663
 8165TIP3    H224441   5.033   7.577   5.739
 8166TIP3   OH224442   7.271   6.155   3.520
 8166TIP3    H124443   7.361   6.138   3.550
 8166TIP3    H224444   7.218   6.090   3.567
 8167TIP3   OH224445   7.899   0.989   1.219
 8167TIP3    H124446   7.852   0.912   1.252
 8167TIP3    H224447   7.945   1.023   1.296
 8168TIP3   OH224448   7.806   5.656   2.859
 8168TIP3    H124449   7.876   5.682   2.919
 8168TIP3    H224450   7.769   5.739   2.829
 8169TIP3   OH224451   6.081   0.537   2.349
 8169TIP3    H124452   6.138   0.460   2.347
 8169TIP3    H224453   6.078   0.563   2.442
 8170TIP3   OH224454   5.286   4.590   6.741
 8170TIP3    H124455   5.203   4.547   6.758
 8170TIP3    H224456   5.326   4.538   6.671
 8171TIP3   OH224457   2.936   2.249   2.618
 8171TIP3    H124458   2.844   2.237   2.641
 8171TIP3    H224459   2.951   2.189   2.545
 8172TIP3   OH224460   5.309   2.936   1.372
 8172TIP3    H124461   5.214   2.938   1.366
 8172TIP3    H224462   5.328   2.956   1.464
 8173TIP3   OH224463   3.269   4.711   0.413
 8173TIP3    H124464   3.267   4.789   0.468
 8173TIP3    H224465   3.333   4.653   0.455
 8174TIP3   OH224466   0.795   3.164   6.116
 8174TIP3    H124467   0.836   3.117   6.044
 8174TIP3    H224468   0.776   3.096   6.181
 8175TIP3   OH224469   2.623   3.107   5.619
 8175TIP3    H124470   2.534   3.077   5.638
 8175TIP3    H224471   2.657   3.042   5.558
 8176TIP3   OH224472   4.068   3.265   5.027
 8176TIP3    H124473   4.023   3.337   5.070
 8176TIP3    H224474   4.136   3.238   5.089
 8177TIP3   OH224475   5.940   6.689   3.327
 8177TIP3    H124476   6.005   6.636   3.283
 8177TIP3    H224477   5.967   6.691   3.419
 8178TIP3   OH224478   5.241   0.331   6.128
 8178TIP3    H124479   5.180   0.259   6.145
 8178TIP3    H224480   5.300   0.330   6.203
 8179TIP3   OH224481   1.910   2.476   0.846
 8179TIP3    H124482   1.820   2.511   0.850
 8179TIP3    H224483   1.899   2.381   0.847
 8180TIP3   OH224484   7.653   6.844   2.641
 8180TIP3    H124485   7.686   6.815   2.726
 8180TIP3    H224486   7.610   6.927   2.658
 8181TIP3   OH224487   1.764   2.406   2.669
 8181TIP3    H124488   1.775   2.322   2.624
 8181TIP3    H224489   1.675   2.403   2.704
 8182TIP3   OH224490   4.391   7.658   5.177
 8182TIP3    H124491   4.337   7.699   5.245
 8182TIP3    H224492   4.480   7.689   5.195
 8183TIP3   OH224493   1.486   1.923   5.504
 8183TIP3    H124494   1.512   1.869   5.430
 8183TIP3    H224495   1.444   1.862   5.565
 8184TIP3   OH224496   4.840   3.715   6.263
 8184TIP3    H124497   4.777   3.645   6.248
 8184TIP3    H224498   4.835   3.769   6.185
 8185TIP3   OH224499   7.149   3.006   5.636
 8185TIP3    H124500   7.162   2.911   5.642
 8185TIP3    H224501   7.152   3.025   5.542
 8186TIP3   OH224502   1.718   4.389   6.116
 8186TIP3    H124503   1.666   4.469   6.104
 8186TIP3    H224504   1.691   4.332   6.044
 8187TIP3   OH224505   2.519   7.678   4.928
 8187TIP3    H124506   2.566   7.627   4.994
 8187TIP3    H224507   2.589   7.712   4.871
 8188TIP3   OH224508   4.334   0.698   0.852
 8188TIP3    H124509   4.300   0.626   0.905
 8188TIP3    H224510   4.318   0.776   0.905
 8189TIP3   OH224511   4.481   2.413   5.518
 8189TIP3    H124512   4.536   2.440   5.591
 8189TIP3    H224513   4.400   2.463   5.530
 8190TIP3   OH224514   3.694   1.776   0.458
 8190TIP3    H124515   3.679   1.869   0.442
 8190TIP3    H224516   3.631   1.731   0.401
 8191TIP3   OH224517   4.602   3.530   4.360
 8191TIP3    H124518   4.507   3.528   4.349
 8191TIP3    H224519   4.627   3.619   4.334
 8192TIP3   OH224520   5.564   3.647   4.623
 8192TIP3    H124521   5.553   3.726   4.570
 8192TIP3    H224522   5.636   3.600   4.581
 8193TIP3   OH224523   3.777   2.182   3.530
 8193TIP3    H124524   3.778   2.258   3.471
 8193TIP3    H224525   3.699   2.133   3.504
 8194TIP3   OH224526   7.205   0.290   5.947
 8194TIP3    H124527   7.258   0.340   5.885
 8194TIP3    H224528   7.144   0.354   5.984
 8195TIP3   OH224529   1.335   0.866   0.612
 8195TIP3    H124530   1.377   0.899   0.532
 8195TIP3    H224531   1.329   0.772   0.599
 8196TIP3   OH224532   0.988   6.465   3.119
 8196TIP3    H124533   1.064   6.444   3.173
 8196TIP3    H224534   0.960   6.381   3.083
 8197TIP3   OH224535   6.022   3.241   0.615
 8197TIP3    H124536   5.991   3.170   0.671
 8197TIP3    H224537   6.052   3.198   0.535
 8198TIP3   OH224538   0.121   0.233   2.101
 8198TIP3    H124539   0.035   0.202   2.129
 8198TIP3    H224540   0.104   0.283   2.021
 8199TIP3   OH224541   2.742   6.450   0.294
 8199TIP3    H124542   2.823   6.491   0.263
 8199TIP3    H224543   2.732   6.371   0.241
 8200TIP3   OH224544   0.423   2.900   5.780
 8200TIP3    H124545   0.440   2.928   5.870
 8200TIP3    H224546   0.499   2.847   5.757
 8201TIP3   OH224547   5.602   4.350   0.938
 8201TIP3    H124548   5.683   4.304   0.956
 8201TIP3    H224549   5.535   4.282   0.936
 8202TIP3   OH224550   2.054   3.878   5.332
 8202TIP3    H124551   2.122   3.943   5.317
 8202TIP3    H224552   2.089   3.820   5.400
 8203TIP3   OH224553   5.511   0.502   2.322
 8203TIP3    H124554   5.588   0.559   2.329
 8203TIP3    H224555   5.546   0.414   2.334
 8204TIP3   OH224556   0.753   1.352   5.913
 8204TIP3    H124557   0.847   1.359   5.929
 8204TIP3    H224558   0.716   1.322   5.996
 8205TIP3   OH224559   6.869   3.224   6.725
 8205TIP3    H124560   6.929   3.202   6.654
 8205TIP3    H224561   6.790   3.256   6.682
 8206TIP3   OH224562   0.895   5.602   3.789
 8206TIP3    H124563   0.892   5.542   3.715
 8206TIP3    H224564   0.828   5.668   3.769
 8207TIP3   OH224565   1.306   7.036   4.127
 8207TIP3    H124566   1.293   7.008   4.217
 8207TIP3    H224567   1.218   7.036   4.089
 8208TIP3   OH224568   0.253   4.280   0.768
 8208TIP3    H124569   0.234   4.273   0.675
 8208TIP3    H224570   0.182   4.232   0.811
 8209TIP3   OH224571   1.344   2.160   4.962
 8209TIP3    H124572   1.354   2.167   4.867
 8209TIP3    H224573   1.433   2.175   4.995
 8210TIP3   OH224574   2.243   7.123   2.117
 8210TIP3    H124575   2.163   7.175   2.125
 8210TIP3    H224576   2.228   7.068   2.041
 8211TIP3   OH224577   3.362   2.881   2.108
 8211TIP3    H124578   3.414   2.802   2.111
 8211TIP3    H224579   3.417   2.945   2.062
 8212TIP3   OH224580   3.663   7.840   5.847
 8212TIP3    H124581   3.733   7.775   5.854
 8212TIP3    H224582   3.637   7.856   5.938
 8213TIP3   OH224583   5.731   5.221   6.106
 8213TIP3    H124584   5.679   5.198   6.183
 8213TIP3    H224585   5.667   5.257   6.044
 8214TIP3   OH224586   0.901   6.185   0.371
 8214TIP3    H124587   0.971   6.249   0.359
 8214TIP3    H224588   0.944   6.100   0.361
 8215TIP3   OH224589   0.269   1.123   3.458
 8215TIP3    H124590   0.314   1.046   3.492
 8215TIP3    H224591   0.257   1.179   3.535
 8216TIP3   OH224592   3.293   1.323   0.711
 8216TIP3    H124593   3.334   1.327   0.798
 8216TIP3    H224594   3.332   1.396   0.663
 8217TIP3   OH224595   4.086   2.319   3.175
 8217TIP3    H124596   4.114   2.250   3.115
 8217TIP3    H224597   4.087   2.399   3.122
 8218TIP3   OH224598   1.891   6.457   1.389
 8218TIP3    H124599   1.821   6.409   1.433
 8218TIP3    H224600   1.949   6.486   1.459
 8219TIP3   OH224601   6.295   1.186   0.040
 8219TIP3    H124602   6.342   1.142   0.111
 8219TIP3    H224603   6.310   1.279   0.056
 8220TIP3   OH224604   7.323   4.035   4.141
 8220TIP3    H124605   7.261   4.034   4.214
 8220TIP3    H224606   7.409   4.025   4.183
 8221TIP3   OH224607   0.485   5.361   6.328
 8221TIP3    H124608   0.442   5.281   6.357
 8221TIP3    H224609   0.414   5.413   6.290
 8222TIP3   OH224610   6.326   5.440   5.623
 8222TIP3    H124611   6.294   5.438   5.714
 8222TIP3    H224612   6.418   5.467   5.631
 8223TIP3   OH224613   4.623   5.713   5.500
 8223TIP3    H124614   4.539   5.718   5.455
 8223TIP3    H224615   4.602   5.681   5.588
 8224TIP3   OH224616   7.928   5.184   3.923
 8224TIP3    H124617   7.922   5.095   3.889
 8224TIP3    H224618   7.912   5.240   3.847
 8225TIP3   OH224619   6.912   4.050   5.107
 8225TIP3    H124620   6.980   3.984   5.094
 8225TIP3    H224621   6.832   4.010   5.072
 8226TIP3   OH224622   6.653   7.497   2.217
 8226TIP3    H124623   6.675   7.503   2.124
 8226TIP3    H224624   6.646   7.404   2.234
 8227TIP3   OH224625   5.857   5.656   5.820
 8227TIP3    H124626   5.853   5.750   5.806
 8227TIP3    H224627   5.925   5.626   5.760
 8228TIP3   OH224628   3.107   2.129   2.098
 8228TIP3    H124629   3.175   2.189   2.066
 8228TIP3    H224630   3.126   2.046   2.055
 8229TIP3   OH224631   7.702   2.660   5.753
 8229TIP3    H124632   7.771   2.658   5.686
 8229TIP3    H224633   7.666   2.748   5.747
 8230TIP3   OH224634   5.808   2.240   6.256
 8230TIP3    H124635   5.832   2.246   6.163
 8230TIP3    H224636   5.881   2.194   6.297
 8231TIP3   OH224637   1.983   2.226   2.614
 8231TIP3    H124638   2.009   2.281   2.540
 8231TIP3    H224639   2.051   2.241   2.680
 8232TIP3   OH224640   3.414   6.394   4.680
 8232TIP3    H124641   3.412   6.487   4.659
 8232TIP3    H224642   3.495   6.361   4.640
 8233TIP3   OH224643   8.097   5.885   3.596
 8233TIP3    H124644   8.062   5.887   3.685
 8233TIP3    H224645   8.036   5.938   3.545
 8234TIP3   OH224646   2.087   0.937   2.631
 8234TIP3    H124647   2.070   0.864   2.572
 8234TIP3    H224648   2.000   0.966   2.659
 8235TIP3   OH224649   0.239   6.294   2.460
 8235TIP3    H124650   0.259   6.369   2.515
 8235TIP3    H224651   0.308   6.231   2.479
 8236TIP3   OH224652   4.185   4.530   6.355
 8236TIP3    H124653   4.109   4.520   6.413
 8236TIP3    H224654   4.201   4.441   6.322
 8237TIP3   OH224655   7.856   6.992   1.443
 8237TIP3    H124656   7.768   6.982   1.407
 8237TIP3    H224657   7.911   7.010   1.367
 8238TIP3   OH224658   6.443   4.461   6.668
 8238TIP3    H124659   6.529   4.423   6.685
 8238TIP3    H224660   6.396   4.452   6.751
 8239TIP3   OH224661   1.681   4.359   0.774
 8239TIP3    H124662   1.745   4.416   0.731
 8239TIP3    H224663   1.720   4.339   0.859
 8240TIP3   OH224664   6.663   1.358   4.571
 8240TIP3    H124665   6.697   1.447   4.565
 8240TIP3    H224666   6.572   1.369   4.597
 8241TIP3   OH224667   3.339   4.304   5.246
 8241TIP3    H124668   3.353   4.391   5.209
 8241TIP3    H224669   3.419   4.255   5.224
 8242TIP3   OH224670   6.382   2.998   6.313
 8242TIP3    H124671   6.434   3.041   6.381
 8242TIP3    H224672   6.308   3.057   6.298
 8243TIP3   OH224673   6.877   1.544   2.785
 8243TIP3    H124674   6.912   1.512   2.702
 8243TIP3    H224675   6.782   1.540   2.774
 8244TIP3   OH224676   5.387   0.057   2.090
 8244TIP3    H124677   5.368   0.035   2.181
 8244TIP3    H224678   5.382   0.153   2.087
 8245TIP3   OH224679   1.386   3.710   1.516
 8245TIP3    H124680   1.320   3.773   1.488
 8245TIP3    H224681   1.465   3.735   1.467
 8246TIP3   OH224682   4.833   5.940   0.797
 8246TIP3    H124683   4.822   6.032   0.819
 8246TIP3    H224684   4.744   5.904   0.798
 8247TIP3   OH224685   7.675   6.131   1.843
 8247TIP3    H124686   7.726   6.208   1.817
 8247TIP3    H224687   7.635   6.156   1.926
 8248TIP3   OH224688   6.545   5.479   3.384
 8248TIP3    H124689   6.625   5.430   3.365
 8248TIP3    H224690   6.572   5.570   3.385
 8249TIP3   OH224691   6.496   0.653   3.243
 8249TIP3    H124692   6.524   0.610   3.324
 8249TIP3    H224693   6.573   0.701   3.214
 8250TIP3   OH224694   2.804   1.451   0.790
 8250TIP3    H124695   2.718   1.437   0.829
 8250TIP3    H224696   2.852   1.370   0.807
 8251TIP3   OH224697   7.093   1.686   5.607
 8251TIP3    H124698   7.056   1.637   5.534
 8251TIP3    H224699   7.024   1.747   5.633
 8252TIP3   OH224700   2.499   0.028   1.690
 8252TIP3    H124701   2.567   0.092   1.669
 8252TIP3    H224702   2.539  -0.057   1.672
 8253TIP3   OH224703   0.776   6.435   0.203
 8253TIP3    H124704   0.703   6.398   0.154
 8253TIP3    H224705   0.853   6.417   0.149
 8254TIP3   OH224706   2.977   2.634   3.866
 8254TIP3    H124707   3.041   2.563   3.873
 8254TIP3    H224708   2.938   2.639   3.954
 8255TIP3   OH224709   4.622   4.796   6.640
 8255TIP3    H124710   4.651   4.853   6.568
 8255TIP3    H224711   4.674   4.826   6.715
 8256TIP3   OH224712   8.265   4.953   0.177
 8256TIP3    H124713   8.217   4.991   0.251
 8256TIP3    H224714   8.345   5.006   0.171
 8257TIP3   OH224715   1.586   7.672   5.284
 8257TIP3    H124716   1.565   7.607   5.352
 8257TIP3    H224717   1.501   7.708   5.258
 8258TIP3   OH224718   7.368   1.331   4.117
 8258TIP3    H124719   7.385   1.288   4.200
 8258TIP3    H224720   7.402   1.270   4.051
 8259TIP3   OH224721   2.289   6.389   1.047
 8259TIP3    H124722   2.290   6.328   0.972
 8259TIP3    H224723   2.203   6.430   1.044
 8260TIP3   OH224724   7.988   0.845   6.231
 8260TIP3    H124725   8.007   0.752   6.215
 8260TIP3    H224726   7.892   0.850   6.228
 8261TIP3   OH224727   2.987   4.323   3.726
 8261TIP3    H124728   2.982   4.318   3.630
 8261TIP3    H224729   3.077   4.349   3.743
 8262TIP3   OH224730   3.516   1.311   4.447
 8262TIP3    H124731   3.494   1.219   4.441
 8262TIP3    H224732   3.604   1.317   4.409
 8263TIP3   OH224733   1.546   3.365   3.488
 8263TIP3    H124734   1.554   3.270   3.494
 8263TIP3    H224735   1.521   3.382   3.398
 8264TIP3   OH224736   5.443   2.044   2.484
 8264TIP3    H124737   5.464   2.047   2.577
 8264TIP3    H224738   5.429   2.136   2.460
 8265TIP3   OH224739   2.453   4.489   0.464
 8265TIP3    H124740   2.461   4.512   0.556
 8265TIP3    H224741   2.496   4.403   0.457
 8266TIP3   OH224742   3.189   4.530   4.928
 8266TIP3    H124743   3.203   4.601   4.865
 8266TIP3    H224744   3.165   4.455   4.875
 8267TIP3   OH224745   3.099   0.077   6.776
 8267TIP3    H124746   3.070  -0.004   6.818
 8267TIP3    H224747   3.125   0.051   6.688
 8268TIP3   OH224748   7.897   6.060   2.642
 8268TIP3    H124749   7.900   6.024   2.553
 8268TIP3    H224750   7.988   6.055   2.672
 8269TIP3   OH224751   2.833   7.391   6.041
 8269TIP3    H124752   2.826   7.474   5.994
 8269TIP3    H224753   2.764   7.396   6.108
 8270TIP3   OH224754   7.724   5.442   3.001
 8270TIP3    H124755   7.746   5.509   2.936
 8270TIP3    H224756   7.724   5.489   3.085
 8271TIP3   OH224757   3.843   3.544   3.331
 8271TIP3    H124758   3.789   3.575   3.404
 8271TIP3    H224759   3.802   3.583   3.253
 8272TIP3   OH224760   0.800   3.606   2.980
 8272TIP3    H124761   0.756   3.546   3.040
 8272TIP3    H224762   0.886   3.619   3.019
 8273TIP3   OH224763   1.566   3.095   3.509
 8273TIP3    H124764   1.639   3.073   3.566
 8273TIP3    H224765   1.545   3.012   3.464
 8274TIP3   OH224766   5.645   5.126   6.663
 8274TIP3    H124767   5.728   5.127   6.615
 8274TIP3    H224768   5.626   5.033   6.676
 8275TIP3   OH224769   0.893   0.233   0.505
 8275TIP3    H124770   0.888   0.256   0.598
 8275TIP3    H224771   0.901   0.318   0.460
 8276TIP3   OH224772   5.291   2.219   5.552
 8276TIP3    H124773   5.272   2.310   5.529
 8276TIP3    H224774   5.235   2.167   5.494
 8277TIP3   OH224775   0.839   2.416   6.158
 8277TIP3    H124776   0.809   2.477   6.091
 8277TIP3    H224777   0.885   2.470   6.222
 8278TIP3   OH224778   2.180   3.583   6.178
 8278TIP3    H124779   2.247   3.651   6.189
 8278TIP3    H224780   2.228   3.501   6.193
 8279TIP3   OH224781   4.737   2.780   5.915
 8279TIP3    H124782   4.674   2.794   5.986
 8279TIP3    H224783   4.819   2.761   5.960
 8280TIP3   OH224784   7.882   3.898   5.453
 8280TIP3    H124785   7.971   3.894   5.417
 8280TIP3    H224786   7.855   3.989   5.438
 8281TIP3   OH224787   7.677   3.366   1.846
 8281TIP3    H124788   7.712   3.418   1.919
 8281TIP3    H224789   7.657   3.429   1.778
 8282TIP3   OH224790   8.125   7.659   2.096
 8282TIP3    H124791   8.035   7.690   2.086
 8282TIP3    H224792   8.178   7.739   2.098
 8283TIP3   OH224793   0.647   0.787   4.925
 8283TIP3    H124794   0.555   0.787   4.953
 8283TIP3    H224795   0.671   0.879   4.919
 8284TIP3   OH224796   4.065   7.057   0.459
 8284TIP3    H124797   4.034   6.975   0.498
 8284TIP3    H224798   4.011   7.125   0.498
 8285TIP3   OH224799   1.035   5.831   0.776
 8285TIP3    H124800   1.060   5.889   0.847
 8285TIP3    H224801   0.952   5.866   0.744
 8286TIP3   OH224802   0.146   2.047   5.340
 8286TIP3    H124803   0.121   2.139   5.338
 8286TIP3    H224804   0.147   2.020   5.248
 8287TIP3   OH224805   5.902   1.284   3.556
 8287TIP3    H124806   5.828   1.230   3.530
 8287TIP3    H224807   5.907   1.353   3.490
 8288TIP3   OH224808   1.173   5.995   5.632
 8288TIP3    H124809   1.149   6.085   5.651
 8288TIP3    H224810   1.179   5.952   5.717
 8289TIP3   OH224811   3.827   2.117   5.689
 8289TIP3    H124812   3.840   2.026   5.660
 8289TIP3    H224813   3.892   2.167   5.639
 8290TIP3   OH224814   7.988   6.424   2.909
 8290TIP3    H124815   7.996   6.411   2.815
 8290TIP3    H224816   7.903   6.386   2.932
 8291TIP3   OH224817   8.174   4.656   2.168
 8291TIP3    H124818   8.082   4.643   2.146
 8291TIP3    H224819   8.177   4.654   2.264
 8292TIP3   OH224820   6.231   0.966   3.521
 8292TIP3    H124821   6.207   0.927   3.436
 8292TIP3    H224822   6.156   0.946   3.578
 8293TIP3   OH224823   3.292   4.685   1.656
 8293TIP3    H124824   3.327   4.727   1.735
 8293TIP3    H224825   3.364   4.631   1.623
 8294TIP3   OH224826   5.887   3.377   1.659
 8294TIP3    H124827   5.943   3.451   1.684
 8294TIP3    H224828   5.846   3.350   1.741
 8295TIP3   OH224829   7.832   1.367   0.133
 8295TIP3    H124830   7.922   1.402   0.133
 8295TIP3    H224831   7.842   1.275   0.109
 8296TIP3   OH224832   6.149   5.275   1.552
 8296TIP3    H124833   6.137   5.228   1.469
 8296TIP3    H224834   6.080   5.341   1.552
 8297TIP3   OH224835   4.791   3.680   5.039
 8297TIP3    H124836   4.825   3.721   5.119
 8297TIP3    H224837   4.869   3.653   4.991
 8298TIP3   OH224838   2.136   6.029   5.948
 8298TIP3    H124839   2.069   5.972   5.909
 8298TIP3    H224840   2.099   6.053   6.033
 8299TIP3   OH224841   1.083   4.062   6.122
 8299TIP3    H124842   1.099   4.067   6.216
 8299TIP3    H224843   0.994   4.094   6.110
 8300TIP3   OH224844   3.756   1.914   6.168
 8300TIP3    H124845   3.689   1.890   6.232
 8300TIP3    H224846   3.710   1.913   6.084
 8301TIP3   OH224847   3.457  -0.002   5.682
 8301TIP3    H124848   3.534  -0.006   5.626
 8301TIP3    H224849   3.417   0.083   5.662
 8302TIP3   OH224850   5.173   1.873   5.840
 8302TIP3    H124851   5.178   1.968   5.837
 8302TIP3    H224852   5.172   1.846   5.748
 8303TIP3   OH224853   7.631   4.744   6.579
 8303TIP3    H124854   7.716   4.788   6.589
 8303TIP3    H224855   7.654   4.656   6.549
 8304TIP3   OH224856   7.011   3.044   0.483
 8304TIP3    H124857   6.986   3.077   0.569
 8304TIP3    H224858   7.049   2.958   0.500
 8305TIP3   OH224859   1.259   7.007   6.131
 8305TIP3    H124860   1.184   7.040   6.082
 8305TIP3    H224861   1.297   6.940   6.073
 8306TIP3   OH224862   4.060   3.252   3.556
 8306TIP3    H124863   4.037   3.160   3.563
 8306TIP3    H224864   4.015   3.294   3.629
 8307TIP3   OH224865   6.137   0.377   4.020
 8307TIP3    H124866   6.196   0.349   4.090
 8307TIP3    H224867   6.055   0.332   4.039
 8308TIP3   OH224868   7.302   5.132   0.776
 8308TIP3    H124869   7.328   5.063   0.715
 8308TIP3    H224870   7.385   5.171   0.805
 8309TIP3   OH224871   0.017   0.484   6.351
 8309TIP3    H124872   0.105   0.447   6.356
 8309TIP3    H224873  -0.039   0.411   6.326
 8310TIP3   OH224874   4.738   7.616   5.088
 8310TIP3    H124875   4.703   7.605   5.176
 8310TIP3    H224876   4.821   7.663   5.101
 8311TIP3   OH224877   7.400   4.987   3.639
 8311TIP3    H124878   7.460   4.958   3.707
 8311TIP3    H224879   7.456   5.002   3.562
 8312TIP3   OH224880   7.541   7.577   3.776
 8312TIP3    H124881   7.551   7.585   3.681
 8312TIP3    H224882   7.466   7.518   3.787
 8313TIP3   OH224883   4.657   4.764   0.604
 8313TIP3    H124884   4.649   4.855   0.633
 8313TIP3    H224885   4.733   4.764   0.546
 8314TIP3   OH224886   5.581   2.209   3.814
 8314TIP3    H124887   5.606   2.241   3.727
 8314TIP3    H224888   5.665   2.195   3.859
 8315TIP3   OH224889   7.021   3.354   5.414
 8315TIP3    H124890   6.927   3.357   5.397
 8315TIP3    H224891   7.052   3.276   5.367
 8316TIP3   OH224892   6.543   7.344   1.138
 8316TIP3    H124893   6.511   7.294   1.063
 8316TIP3    H224894   6.552   7.433   1.105
 8317TIP3   OH224895   3.182   0.084   1.208
 8317TIP3    H124896   3.121   0.042   1.268
 8317TIP3    H224897   3.186   0.025   1.132
 8318TIP3   OH224898   1.891   1.719   5.333
 8318TIP3    H124899   1.907   1.755   5.420
 8318TIP3    H224900   1.936   1.635   5.333
 8319TIP3   OH224901   6.529   4.621   2.329
 8319TIP3    H124902   6.517   4.535   2.371
 8319TIP3    H224903   6.456   4.674   2.363
 8320TIP3   OH224904   5.475   3.978   6.365
 8320TIP3    H124905   5.570   3.986   6.359
 8320TIP3    H224906   5.460   3.887   6.390
 8321TIP3   OH224907   0.341   0.696   3.654
 8321TIP3    H124908   0.316   0.611   3.616
 8321TIP3    H224909   0.267   0.719   3.711
 8322TIP3   OH224910   0.783   4.009   4.247
 8322TIP3    H124911   0.790   4.084   4.188
 8322TIP3    H224912   0.693   4.013   4.281
 8323TIP3   OH224913   3.494   3.569   5.476
 8323TIP3    H124914   3.452   3.566   5.390
 8323TIP3    H224915   3.423   3.594   5.536
 8324TIP3   OH224916   8.120   3.018   6.678
 8324TIP3    H124917   8.103   2.931   6.713
 8324TIP3    H224918   8.121   3.075   6.755
 8325TIP3   OH224919   7.057   7.687   5.832
 8325TIP3    H124920   7.079   7.674   5.924
 8325TIP3    H224921   7.135   7.658   5.784
 8326TIP3   OH224922   1.584   1.232   2.833
 8326TIP3    H124923   1.540   1.152   2.803
 8326TIP3    H224924   1.579   1.228   2.929
 8327TIP3   OH224925   0.947   7.093   0.062
 8327TIP3    H124926   0.872   7.090   0.002
 8327TIP3    H224927   0.950   7.183   0.093
 8328TIP3   OH224928   2.875   7.044   3.590
 8328TIP3    H124929   2.860   6.950   3.603
 8328TIP3    H224930   2.891   7.053   3.496
 8329TIP3   OH224931   7.234   1.175   1.519
 8329TIP3    H124932   7.324   1.150   1.502
 8329TIP3    H224933   7.220   1.254   1.466
 8330TIP3   OH224934   3.631   5.976   4.339
 8330TIP3    H124935   3.650   5.969   4.432
 8330TIP3    H224936   3.568   5.905   4.322
 8331TIP3   OH224937   1.743   0.732   1.412
 8331TIP3    H124938   1.661   0.684   1.411
 8331TIP3    H224939   1.737   0.792   1.337
 8332TIP3   OH224940   1.827   1.421   1.639
 8332TIP3    H124941   1.756   1.452   1.583
 8332TIP3    H224942   1.785   1.361   1.700
 8333TIP3   OH224943   3.561   4.181   5.113
 8333TIP3    H124944   3.589   4.116   5.049
 8333TIP3    H224945   3.616   4.164   5.190
 8334TIP3   OH224946   6.468   7.741   3.603
 8334TIP3    H124947   6.482   7.682   3.677
 8334TIP3    H224948   6.548   7.736   3.551
 8335TIP3   OH224949   7.729   5.729   5.090
 8335TIP3    H124950   7.739   5.713   4.996
 8335TIP3    H224951   7.634   5.734   5.103
 8336TIP3   OH224952   7.426   4.287   0.635
 8336TIP3    H124953   7.469   4.206   0.610
 8336TIP3    H224954   7.376   4.313   0.557
 8337TIP3   OH224955   3.259   3.448   4.679
 8337TIP3    H124956   3.296   3.483   4.598
 8337TIP3    H224957   3.322   3.472   4.746
 8338TIP3   OH224958   4.851   1.574   0.979
 8338TIP3    H124959   4.852   1.661   1.019
 8338TIP3    H224960   4.824   1.589   0.889
 8339TIP3   OH224961   8.047   4.191   6.294
 8339TIP3    H124962   8.097   4.267   6.264
 8339TIP3    H224963   8.002   4.222   6.373
 8340TIP3   OH224964   4.801   4.609   4.989
 8340TIP3    H124965   4.797   4.683   5.050
 8340TIP3    H224966   4.873   4.555   5.020
 8341TIP3   OH224967   7.645   2.783   5.232
 8341TIP3    H124968   7.556   2.811   5.256
 8341TIP3    H224969   7.670   2.842   5.161
 8342TIP3   OH224970   4.502   4.064   2.863
 8342TIP3    H124971   4.598   4.064   2.861
 8342TIP3    H224972   4.477   4.107   2.781
 8343TIP3   OH224973   3.574   5.050   5.040
 8343TIP3    H124974   3.658   5.083   5.008
 8343TIP3    H224975   3.509   5.106   4.997
 8344TIP3   OH224976   7.155   1.871   3.648
 8344TIP3    H124977   7.222   1.835   3.590
 8344TIP3    H224978   7.199   1.882   3.732
 8345TIP3   OH224979   1.683   5.482   0.416
 8345TIP3    H124980   1.744   5.433   0.361
 8345TIP3    H224981   1.605   5.427   0.420
 8346TIP3   OH224982   4.992   7.270   4.200
 8346TIP3    H124983   5.071   7.248   4.152
 8346TIP3    H224984   5.023   7.294   4.287
 8347TIP3   OH224985   1.166   1.280   1.257
 8347TIP3    H124986   1.133   1.191   1.267
 8347TIP3    H224987   1.090   1.336   1.274
 8348TIP3   OH224988   6.606   3.043   2.635
 8348TIP3    H124989   6.548   2.992   2.691
 8348TIP3    H224990   6.666   3.086   2.696
 8349TIP3   OH224991   5.081   4.756   1.396
 8349TIP3    H124992   5.090   4.661   1.394
 8349TIP3    H224993   5.145   4.787   1.332
 8350TIP3   OH224994   7.164   6.180   0.624
 8350TIP3    H124995   7.258   6.192   0.623
 8350TIP3    H224996   7.150   6.101   0.676
 8351TIP3   OH224997   5.496   4.615   3.080
 8351TIP3    H124998   5.573   4.664   3.109
 8351TIP3    H224999   5.423   4.652   3.130
 8352TIP3   OH225000   5.613   5.697   3.551
 8352TIP3    H125001   5.522   5.716   3.576
 8352TIP3    H225002   5.618   5.602   3.551
 8353TIP3   OH225003   4.049   0.205   5.934
 8353TIP3    H125004   3.982   0.222   5.868
 8353TIP3    H225005   4.023   0.258   6.009
 8354TIP3   OH225006   0.234   5.884   1.486
 8354TIP3    H125007   0.215   5.803   1.440
 8354TIP3    H225008   0.254   5.856   1.575
 8355TIP3   OH225009   5.380   0.845   6.299
 8355TIP3    H125010   5.418   0.932   6.288
 8355TIP3    H225011   5.354   0.819   6.210
 8356TIP3   OH225012   3.247   3.206   3.851
 8356TIP3    H125013   3.176   3.171   3.797
 8356TIP3    H225014   3.289   3.272   3.796
 8357TIP3   OH225015   3.830   4.739   0.980
 8357TIP3    H125016   3.783   4.823   0.980
 8357TIP3    H225017   3.909   4.755   1.032
 8358TIP3   OH225018   4.967   6.449   0.514
 8358TIP3    H125019   4.941   6.384   0.448
 8358TIP3    H225020   5.019   6.513   0.465
 8359TIP3   OH225021   0.770   6.448   4.699
 8359TIP3    H125022   0.855   6.470   4.737
 8359TIP3    H225023   0.790   6.384   4.631
 8360TIP3   OH225024   0.453   3.717   1.400
 8360TIP3    H125025   0.410   3.644   1.445
 8360TIP3    H225026   0.518   3.676   1.344
 8361TIP3   OH225027   5.913   5.194   4.429
 8361TIP3    H125028   5.831   5.162   4.392
 8361TIP3    H225029   5.899   5.287   4.444
 8362TIP3   OH225030   1.478   3.186   6.054
 8362TIP3    H125031   1.528   3.113   6.016
 8362TIP3    H225032   1.410   3.144   6.106
 8363TIP3   OH225033   5.722   3.111   3.022
 8363TIP3    H125034   5.717   3.016   3.015
 8363TIP3    H225035   5.685   3.131   3.108
 8364TIP3   OH225036   5.487   3.693   2.395
 8364TIP3    H125037   5.549   3.632   2.435
 8364TIP3    H225038   5.406   3.681   2.445
 8365TIP3   OH225039   4.085   3.219   2.299
 8365TIP3    H125040   4.110   3.312   2.300
 8365TIP3    H225041   4.133   3.180   2.371
 8366TIP3   OH225042   1.987   2.963   1.511
 8366TIP3    H125043   2.055   2.898   1.531
 8366TIP3    H225044   1.963   3.000   1.597
 8367TIP3   OH225045   5.034   1.825   6.371
 8367TIP3    H125046   4.999   1.831   6.282
 8367TIP3    H225047   5.096   1.897   6.377
 8368TIP3   OH225048   5.978   1.249   5.494
 8368TIP3    H125049   6.067   1.248   5.531
 8368TIP3    H225050   5.945   1.160   5.508
 8369TIP3   OH225051   7.768   7.441   2.156
 8369TIP3    H125052   7.765   7.410   2.066
 8369TIP3    H225053   7.696   7.504   2.162
 8370TIP3   OH225054   3.433   1.359   3.764
 8370TIP3    H125055   3.522   1.369   3.732
 8370TIP3    H225056   3.397   1.448   3.762
 8371TIP3   OH225057   1.904   5.376   4.894
 8371TIP3    H125058   1.972   5.441   4.878
 8371TIP3    H225059   1.936   5.296   4.853
 8372TIP3   OH225060   2.673   5.230   5.185
 8372TIP3    H125061   2.632   5.160   5.235
 8372TIP3    H225062   2.665   5.203   5.094
 8373TIP3   OH225063   3.849   0.368   0.301
 8373TIP3    H125064   3.931   0.335   0.338
 8373TIP3    H225065   3.807   0.414   0.374
 8374TIP3   OH225066   2.517   3.002   5.975
 8374TIP3    H125067   2.563   2.924   5.945
 8374TIP3    H225068   2.584   3.070   5.978
 8375TIP3   OH225069   7.247   7.609   5.640
 8375TIP3    H125070   7.322   7.652   5.598
 8375TIP3    H225071   7.251   7.519   5.608
 8376TIP3   OH225072   0.807   3.737   0.609
 8376TIP3    H125073   0.814   3.765   0.700
 8376TIP3    H225074   0.858   3.656   0.605
 8377TIP3   OH225075   3.995   1.420   5.783
 8377TIP3    H125076   4.075   1.396   5.829
 8377TIP3    H225077   3.932   1.352   5.806
 8378TIP3   OH225078   2.486   0.519   3.609
 8378TIP3    H125079   2.566   0.572   3.611
 8378TIP3    H225080   2.438   0.544   3.688
 8379TIP3   OH225081   4.345   2.863   4.554
 8379TIP3    H125082   4.399   2.830   4.627
 8379TIP3    H225083   4.389   2.944   4.527
 8380TIP3   OH225084   3.749   0.560   6.236
 8380TIP3    H125085   3.697   0.608   6.171
 8380TIP3    H225086   3.710   0.585   6.320
 8381TIP3   OH225087   5.204   1.971   4.425
 8381TIP3    H125088   5.198   2.048   4.482
 8381TIP3    H225089   5.296   1.945   4.430
 8382TIP3   OH225090   6.016   5.782   2.997
 8382TIP3    H125091   5.972   5.828   3.069
 8382TIP3    H225092   6.073   5.718   3.039
 8383TIP3   OH225093   5.922   1.255   2.311
 8383TIP3    H125094   6.005   1.225   2.348
 8383TIP3    H225095   5.855   1.211   2.362
 8384TIP3   OH225096   2.694   5.361   1.325
 8384TIP3    H125097   2.739   5.310   1.393
 8384TIP3    H225098   2.762   5.380   1.261
 8385TIP3   OH225099   0.628   2.484   4.471
 8385TIP3    H125100   0.572   2.507   4.397
 8385TIP3    H225101   0.650   2.567   4.511
 8386TIP3   OH225102   0.275   6.029   5.539
 8386TIP3    H125103   0.183   6.044   5.517
 8386TIP3    H225104   0.274   5.949   5.591
 8387TIP3   OH225105   2.750   2.915   0.653
 8387TIP3    H125106   2.728   3.004   0.627
 8387TIP3    H225107   2.756   2.918   0.748
 8388TIP3   OH225108   2.084   3.051   0.799
 8388TIP3    H125109   2.070   2.958   0.784
 8388TIP3    H225110   2.135   3.080   0.724
 8389TIP3   OH225111   7.533   3.400   2.218
 8389TIP3    H125112   7.497   3.467   2.277
 8389TIP3    H225113   7.494   3.318   2.247
 8390TIP3   OH225114   1.692   5.888   5.868
 8390TIP3    H125115   1.786   5.869   5.865
 8390TIP3    H225116   1.667   5.870   5.959
 8391TIP3   OH225117   1.280   3.030   6.221
 8391TIP3    H125118   1.193   3.055   6.252
 8391TIP3    H225119   1.331   3.014   6.301
 8392TIP3   OH225120   1.235   3.213   6.572
 8392TIP3    H125121   1.318   3.211   6.619
 8392TIP3    H225122   1.259   3.220   6.480
 8393TIP3   OH225123   2.515   1.833   2.264
 8393TIP3    H125124   2.545   1.880   2.186
 8393TIP3    H225125   2.426   1.865   2.278
 8394TIP3   OH225126   1.445   6.886   5.292
 8394TIP3    H125127   1.422   6.864   5.382
 8394TIP3    H225128   1.362   6.889   5.246
 8395TIP3   OH225129   5.044   6.661   4.531
 8395TIP3    H125130   5.078   6.717   4.600
 8395TIP3    H225131   5.026   6.720   4.458
 8396TIP3   OH225132   7.041   0.767   2.977
 8396TIP3    H125133   6.992   0.707   3.034
 8396TIP3    H225134   7.133   0.749   2.996
 8397TIP3   OH225135   4.776   0.137   1.854
 8397TIP3    H125136   4.804   0.226   1.833
 8397TIP3    H225137   4.821   0.115   1.935
 8398TIP3   OH225138   4.647   0.977   2.053
 8398TIP3    H125139   4.686   1.003   1.970
 8398TIP3    H225140   4.720   0.978   2.115
 8399TIP3   OH225141   2.383   3.664   2.940
 8399TIP3    H125142   2.400   3.582   2.894
 8399TIP3    H225143   2.379   3.730   2.871
 8400TIP3   OH225144   6.101   4.034   3.125
 8400TIP3    H125145   6.006   4.042   3.113
 8400TIP3    H225146   6.122   4.097   3.193
 8401TIP3   OH225147   3.858   4.894   5.635
 8401TIP3    H125148   3.934   4.948   5.656
 8401TIP3    H225149   3.843   4.842   5.714
 8402TIP3   OH225150   1.796   5.157   6.362
 8402TIP3    H125151   1.875   5.208   6.377
 8402TIP3    H225152   1.731   5.222   6.334
 8403TIP3   OH225153   3.851   3.541   5.358
 8403TIP3    H125154   3.782   3.572   5.418
 8403TIP3    H225155   3.931   3.546   5.409
 8404TIP3   OH225156   2.673   0.600   1.672
 8404TIP3    H125157   2.646   0.527   1.727
 8404TIP3    H225158   2.719   0.659   1.733
 8405TIP3   OH225159   1.781   3.393   3.633
 8405TIP3    H125160   1.845   3.340   3.585
 8405TIP3    H225161   1.705   3.397   3.575
 8406TIP3   OH225162   7.847   2.193   4.762
 8406TIP3    H125163   7.775   2.199   4.825
 8406TIP3    H225164   7.921   2.159   4.811
 8407TIP3   OH225165   4.469   4.649   2.715
 8407TIP3    H125166   4.375   4.647   2.700
 8407TIP3    H225167   4.484   4.587   2.787
 8408TIP3   OH225168   2.028   5.627   5.856
 8408TIP3    H125169   1.962   5.560   5.871
 8408TIP3    H225170   2.104   5.580   5.822
 8409TIP3   OH225171   0.513   0.250   0.547
 8409TIP3    H125172   0.518   0.210   0.634
 8409TIP3    H225173   0.470   0.334   0.562
 8410TIP3   OH225174   6.119   2.644   2.963
 8410TIP3    H125175   6.041   2.699   2.960
 8410TIP3    H225176   6.102   2.583   3.035
 8411TIP3   OH225177   5.756   6.891   0.098
 8411TIP3    H125178   5.702   6.827   0.052
 8411TIP3    H225179   5.759   6.860   0.188
 8412TIP3   OH225180   6.139   5.553   3.159
 8412TIP3    H125181   6.171   5.467   3.184
 8412TIP3    H225182   6.195   5.614   3.208
 8413TIP3   OH225183   0.565   5.908   1.862
 8413TIP3    H125184   0.558   5.998   1.829
 8413TIP3    H225185   0.579   5.918   1.956
 8414TIP3   OH225186   5.107   3.600   3.376
 8414TIP3    H125187   5.087   3.579   3.285
 8414TIP3    H225188   5.183   3.658   3.371
 8415TIP3   OH225189   4.681   4.241   4.074
 8415TIP3    H125190   4.729   4.209   3.997
 8415TIP3    H225191   4.749   4.254   4.140
 8416TIP3   OH225192   7.011   5.264   3.722
 8416TIP3    H125193   7.080   5.198   3.732
 8416TIP3    H225194   6.946   5.223   3.665
 8417TIP3   OH225195   2.248   4.407   6.042
 8417TIP3    H125196   2.167   4.411   6.094
 8417TIP3    H225197   2.281   4.319   6.056
 8418TIP3   OH225198   2.065   6.679   3.765
 8418TIP3    H125199   1.986   6.731   3.752
 8418TIP3    H225200   2.043   6.619   3.837
 8419TIP3   OH225201   2.583   0.699   3.415
 8419TIP3    H125202   2.621   0.697   3.503
 8419TIP3    H225203   2.659   0.694   3.356
 8420TIP3   OH225204   1.610   1.780   5.292
 8420TIP3    H125205   1.691   1.758   5.337
 8420TIP3    H225206   1.584   1.699   5.249
 8421TIP3   OH225207   5.133   5.359   4.623
 8421TIP3    H125208   5.112   5.325   4.536
 8421TIP3    H225209   5.050   5.394   4.655
 8422TIP3   OH225210   5.862   6.170   2.873
 8422TIP3    H125211   5.888   6.228   2.801
 8422TIP3    H225212   5.944   6.131   2.903
 8423TIP3   OH225213   5.623   0.119   0.887
 8423TIP3    H125214   5.683   0.113   0.961
 8423TIP3    H225215   5.587   0.208   0.893
 8424TIP3   OH225216   7.284   6.356   1.770
 8424TIP3    H125217   7.271   6.363   1.865
 8424TIP3    H225218   7.203   6.317   1.738
 8425TIP3   OH225219   7.381   0.680   5.900
 8425TIP3    H125220   7.430   0.644   5.826
 8425TIP3    H225221   7.298   0.633   5.899
 8426TIP3   OH225222   7.044   1.393   6.110
 8426TIP3    H125223   6.981   1.323   6.099
 8426TIP3    H225224   7.129   1.350   6.108
 8427TIP3   OH225225   0.517   5.299   3.630
 8427TIP3    H125226   0.532   5.309   3.536
 8427TIP3    H225227   0.429   5.262   3.637
 8428TIP3   OH225228   0.878   3.207   2.546
 8428TIP3    H125229   0.809   3.204   2.479
 8428TIP3    H225230   0.839   3.162   2.621
 8429TIP3   OH225231   7.182   5.572   4.680
 8429TIP3    H125232   7.246   5.635   4.647
 8429TIP3    H225233   7.227   5.528   4.752
 8430TIP3   OH225234   3.853   1.370   1.905
 8430TIP3    H125235   3.779   1.310   1.912
 8430TIP3    H225236   3.912   1.330   1.841
 8431TIP3   OH225237   5.727   3.511   1.995
 8431TIP3    H125238   5.689   3.516   1.907
 8431TIP3    H225239   5.727   3.601   2.027
 8432TIP3   OH225240   3.009   7.773   4.592
 8432TIP3    H125241   3.034   7.685   4.620
 8432TIP3    H225242   2.925   7.760   4.548
 8433TIP3   OH225243   3.793   0.779   1.611
 8433TIP3    H125244   3.861   0.770   1.678
 8433TIP3    H225245   3.833   0.748   1.530
 8434TIP3   OH225246   4.294   6.518   4.689
 8434TIP3    H125247   4.244   6.566   4.755
 8434TIP3    H225248   4.227   6.472   4.638
 8435TIP3   OH225249   4.032   2.610   5.276
 8435TIP3    H125250   4.111   2.588   5.226
 8435TIP3    H225251   3.960   2.577   5.222
 8436TIP3   OH225252   3.674   2.381   3.712
 8436TIP3    H125253   3.685   2.286   3.711
 8436TIP3    H225254   3.635   2.402   3.627
 8437TIP3   OH225255   7.693   3.268   6.242
 8437TIP3    H125256   7.612   3.298   6.284
 8437TIP3    H225257   7.732   3.208   6.306
 8438TIP3   OH225258   7.199   3.644   2.131
 8438TIP3    H125259   7.126   3.601   2.175
 8438TIP3    H225260   7.213   3.726   2.180
 8439TIP3   OH225261   4.499   2.189   4.753
 8439TIP3    H125262   4.570   2.125   4.746
 8439TIP3    H225263   4.534   2.268   4.713
 8440TIP3   OH225264   7.469   0.145   4.626
 8440TIP3    H125265   7.502   0.072   4.678
 8440TIP3    H225266   7.546   0.201   4.611
 8441TIP3   OH225267   4.820   0.814   5.922
 8441TIP3    H125268   4.855   0.792   5.836
 8441TIP3    H225269   4.835   0.908   5.930
 8442TIP3   OH225270   1.639   0.608   5.544
 8442TIP3    H125271   1.715   0.576   5.593
 8442TIP3    H225272   1.650   0.703   5.541
 8443TIP3   OH225273   7.502   0.675   0.274
 8443TIP3    H125274   7.527   0.715   0.357
 8443TIP3    H225275   7.418   0.634   0.292
 8444TIP3   OH225276   1.882   5.754   3.475
 8444TIP3    H125277   1.794   5.757   3.438
 8444TIP3    H225278   1.928   5.827   3.433
 8445TIP3   OH225279   5.221   2.570   3.783
 8445TIP3    H125280   5.240   2.653   3.826
 8445TIP3    H225281   5.284   2.508   3.821
 8446TIP3   OH225282   3.925   5.560   6.170
 8446TIP3    H125283   3.845   5.535   6.216
 8446TIP3    H225284   3.898   5.578   6.080
 8447TIP3   OH225285   3.048   1.839   3.125
 8447TIP3    H125286   3.078   1.759   3.082
 8447TIP3    H225287   3.121   1.865   3.182
 8448TIP3   OH225288   4.844   4.586   5.417
 8448TIP3    H125289   4.929   4.628   5.422
 8448TIP3    H225290   4.840   4.530   5.494
 8449TIP3   OH225291   1.489   0.186   2.717
 8449TIP3    H125292   1.523   0.244   2.649
 8449TIP3    H225293   1.529   0.102   2.700
 8450TIP3   OH225294   0.910   2.159   1.074
 8450TIP3    H125295   0.833   2.141   1.128
 8450TIP3    H225296   0.974   2.093   1.101
 8451TIP3   OH225297   5.831   5.686   3.388
 8451TIP3    H125298   5.826   5.764   3.333
 8451TIP3    H225299   5.775   5.705   3.463
 8452TIP3   OH225300   3.304   4.297   2.705
 8452TIP3    H125301   3.355   4.369   2.668
 8452TIP3    H225302   3.319   4.223   2.646
 8453TIP3   OH225303   6.725   3.040   3.251
 8453TIP3    H125304   6.726   3.114   3.191
 8453TIP3    H225305   6.768   3.073   3.330
 8454TIP3   OH225306   3.660   2.929   3.198
 8454TIP3    H125307   3.675   2.853   3.254
 8454TIP3    H225308   3.572   2.917   3.163
 8455TIP3   OH225309   3.301   6.197   6.098
 8455TIP3    H125310   3.364   6.252   6.051
 8455TIP3    H225311   3.355   6.139   6.151
 8456TIP3   OH225312   5.201   6.230   0.651
 8456TIP3    H125313   5.226   6.318   0.621
 8456TIP3    H225314   5.166   6.244   0.740
 8457TIP3   OH225315   0.690   6.802   3.573
 8457TIP3    H125316   0.613   6.859   3.573
 8457TIP3    H225317   0.668   6.733   3.637
 8458TIP3   OH225318   4.303   5.382   5.661
 8458TIP3    H125319   4.217   5.374   5.701
 8458TIP3    H225320   4.365   5.356   5.729
 8459TIP3   OH225321   2.931   7.101   4.100
 8459TIP3    H125322   2.909   7.010   4.119
 8459TIP3    H225323   2.903   7.114   4.009
 8460TIP3   OH225324   0.758   2.479   5.058
 8460TIP3    H125325   0.768   2.496   4.965
 8460TIP3    H225326   0.670   2.509   5.079
 8461TIP3   OH225327   7.917   3.563   4.509
 8461TIP3    H125328   7.978   3.620   4.462
 8461TIP3    H225329   7.854   3.622   4.549
 8462TIP3   OH225330   7.757   2.553   5.355
 8462TIP3    H125331   7.770   2.511   5.270
 8462TIP3    H225332   7.735   2.644   5.333
 8463TIP3   OH225333   2.179   2.770   1.507
 8463TIP3    H125334   2.176   2.685   1.551
 8463TIP3    H225335   2.169   2.748   1.414
 8464TIP3   OH225336   4.767   2.017   0.860
 8464TIP3    H125337   4.818   1.947   0.819
 8464TIP3    H225338   4.776   2.091   0.801
 8465TIP3   OH225339   2.402   0.967   4.789
 8465TIP3    H125340   2.437   0.961   4.700
 8465TIP3    H225341   2.406   0.877   4.822
 8466TIP3   OH225342   3.240   2.452   5.259
 8466TIP3    H125343   3.158   2.431   5.304
 8466TIP3    H225344   3.217   2.451   5.166
 8467TIP3   OH225345   3.962   2.596   1.722
 8467TIP3    H125346   4.004   2.682   1.721
 8467TIP3    H225347   3.926   2.588   1.810
 8468TIP3   OH225348   0.106   2.759   5.207
 8468TIP3    H125349   0.064   2.837   5.244
 8468TIP3    H225350   0.070   2.751   5.119
 8469TIP3   OH225351   0.233   4.396   0.184
 8469TIP3    H125352   0.188   4.411   0.267
 8469TIP3    H225353   0.199   4.463   0.125
 8470TIP3   OH225354   6.929   6.948   3.279
 8470TIP3    H125355   6.915   6.951   3.184
 8470TIP3    H225356   6.972   6.864   3.294
 8471TIP3   OH225357   5.019   3.243   3.901
 8471TIP3    H125358   4.940   3.201   3.869
 8471TIP3    H225359   4.995   3.276   3.988
 8472TIP3   OH225360   5.640   1.145   4.826
 8472TIP3    H125361   5.719   1.097   4.801
 8472TIP3    H225362   5.588   1.150   4.746
 8473TIP3   OH225363   0.155   3.670   1.687
 8473TIP3    H125364   0.119   3.586   1.716
 8473TIP3    H225365   0.081   3.715   1.647
 8474TIP3   OH225366   7.413   4.872   0.026
 8474TIP3    H125367   7.475   4.902   0.093
 8474TIP3    H225368   7.468   4.834  -0.043
 8475TIP3   OH225369   4.596   3.109   3.189
 8475TIP3    H125370   4.684   3.143   3.175
 8475TIP3    H225371   4.593   3.087   3.282
 8476TIP3   OH225372   3.898   5.037   1.720
 8476TIP3    H125373   3.986   5.003   1.736
 8476TIP3    H225374   3.912   5.126   1.686
 8477TIP3   OH225375   7.522   0.468   0.585
 8477TIP3    H125376   7.611   0.495   0.610
 8477TIP3    H225377   7.535   0.387   0.537
 8478TIP3   OH225378   3.975   1.300   4.173
 8478TIP3    H125379   3.948   1.339   4.090
 8478TIP3    H225380   3.958   1.368   4.238
 8479TIP3   OH225381   4.248   1.629   3.058
 8479TIP3    H125382   4.326   1.661   3.013
 8479TIP3    H225383   4.191   1.597   2.987
 8480TIP3   OH225384   5.707   0.157   4.327
 8480TIP3    H125385   5.715   0.085   4.265
 8480TIP3    H225386   5.774   0.221   4.299
 8481TIP3   OH225387   6.222   0.527   5.253
 8481TIP3    H125388   6.314   0.503   5.265
 8481TIP3    H225389   6.199   0.487   5.169
 8482TIP3   OH225390   5.236   7.109   3.608
 8482TIP3    H125391   5.197   7.069   3.686
 8482TIP3    H225392   5.259   7.035   3.552
 8483TIP3   OH225393   6.478   2.383   5.197
 8483TIP3    H125394   6.446   2.294   5.212
 8483TIP3    H225395   6.398   2.436   5.190
 8484TIP3   OH225396   4.428   1.271   3.031
 8484TIP3    H125397   4.492   1.303   3.095
 8484TIP3    H225398   4.382   1.200   3.077
 8485TIP3   OH225399   4.340   3.965   3.478
 8485TIP3    H125400   4.371   4.055   3.488
 8485TIP3    H225401   4.261   3.961   3.532
 8486TIP3   OH225402   3.405   2.921   5.748
 8486TIP3    H125403   3.487   2.878   5.725
 8486TIP3    H225404   3.405   3.002   5.696
 8487TIP3   OH225405   5.569   3.012   6.491
 8487TIP3    H125406   5.482   2.979   6.515
 8487TIP3    H225407   5.589   3.078   6.557
 8488TIP3   OH225408   1.331   2.437   0.373
 8488TIP3    H125409   1.365   2.391   0.450
 8488TIP3    H225410   1.300   2.368   0.315
 8489TIP3   OH225411   3.674   6.135   0.479
 8489TIP3    H125412   3.735   6.061   0.475
 8489TIP3    H225413   3.729   6.212   0.472
 8490TIP3   OH225414   0.774   4.487   6.339
 8490TIP3    H125415   0.801   4.572   6.374
 8490TIP3    H225416   0.852   4.453   6.295
 8491TIP3   OH225417   6.624   5.675   3.151
 8491TIP3    H125418   6.596   5.590   3.119
 8491TIP3    H225419   6.720   5.674   3.145
 8492TIP3   OH225420   3.397   7.347   1.206
 8492TIP3    H125421   3.465   7.408   1.178
 8492TIP3    H225422   3.405   7.344   1.302
 8493TIP3   OH225423   2.230   5.998   2.010
 8493TIP3    H125424   2.165   6.014   1.942
 8493TIP3    H225425   2.182   6.008   2.092
 8494TIP3   OH225426   0.764   7.463   6.318
 8494TIP3    H125427   0.810   7.379   6.318
 8494TIP3    H225428   0.723   7.468   6.232
 8495TIP3   OH225429   5.339   1.632   1.593
 8495TIP3    H125430   5.356   1.686   1.670
 8495TIP3    H225431   5.245   1.642   1.577
 8496TIP3   OH225432   7.273   3.766   1.699
 8496TIP3    H125433   7.291   3.678   1.732
 8496TIP3    H225434   7.212   3.804   1.762
 8497TIP3   OH225435   5.343   1.370   6.307
 8497TIP3    H125436   5.275   1.415   6.255
 8497TIP3    H225437   5.401   1.440   6.336
 8498TIP3   OH225438   4.269   4.494   1.956
 8498TIP3    H125439   4.242   4.463   2.043
 8498TIP3    H225440   4.301   4.415   1.912
 8499TIP3   OH225441   0.959   1.992   0.593
 8499TIP3    H125442   1.044   2.015   0.555
 8499TIP3    H225443   0.945   2.056   0.663
 8500TIP3   OH225444   4.314   3.517   1.215
 8500TIP3    H125445   4.356   3.568   1.146
 8500TIP3    H225446   4.283   3.581   1.278
 8501TIP3   OH225447   3.107   4.615   4.356
 8501TIP3    H125448   3.041   4.548   4.373
 8501TIP3    H225449   3.078   4.691   4.406
 8502TIP3   OH225450   4.712   4.438   6.475
 8502TIP3    H125451   4.724   4.393   6.558
 8502TIP3    H225452   4.705   4.368   6.410
 8503TIP3   OH225453   6.476   5.799   1.196
 8503TIP3    H125454   6.474   5.824   1.104
 8503TIP3    H225455   6.425   5.718   1.200
 8504TIP3   OH225456   1.003   3.697   5.481
 8504TIP3    H125457   0.934   3.710   5.547
 8504TIP3    H225458   1.060   3.631   5.520
 8505TIP3   OH225459   1.615   0.585   0.183
 8505TIP3    H125460   1.636   0.491   0.185
 8505TIP3    H225461   1.581   0.604   0.270
 8506TIP3   OH225462   2.901   5.338   1.145
 8506TIP3    H125463   2.995   5.349   1.162
 8506TIP3    H225464   2.897   5.265   1.083
 8507TIP3   OH225465   6.264   1.303   2.694
 8507TIP3    H125466   6.294   1.272   2.779
 8507TIP3    H225467   6.292   1.395   2.691
 8508TIP3   OH225468   2.558   5.822   4.539
 8508TIP3    H125469   2.636   5.857   4.498
 8508TIP3    H225470   2.577   5.729   4.552
 8509TIP3   OH225471   2.118   5.643   4.250
 8509TIP3    H125472   2.183   5.692   4.199
 8509TIP3    H225473   2.135   5.666   4.341
 8510TIP3   OH225474   0.576   1.762   2.591
 8510TIP3    H125475   0.614   1.682   2.554
 8510TIP3    H225476   0.492   1.735   2.628
 8511TIP3   OH225477   7.655   6.712   3.814
 8511TIP3    H125478   7.617   6.703   3.901
 8511TIP3    H225479   7.686   6.802   3.811
 8512TIP3   OH225480   3.216   5.644   2.489
 8512TIP3    H125481   3.186   5.571   2.434
 8512TIP3    H225482   3.156   5.646   2.563
 8513TIP3   OH225483   7.475   3.363   6.664
 8513TIP3    H125484   7.399   3.360   6.722
 8513TIP3    H225485   7.478   3.453   6.633
 8514TIP3   OH225486   2.040   3.270   2.636
 8514TIP3    H125487   1.984   3.343   2.662
 8514TIP3    H225488   2.082   3.242   2.717
 8515TIP3   OH225489   0.646   4.587   1.977
 8515TIP3    H125490   0.687   4.507   2.010
 8515TIP3    H225491   0.561   4.558   1.944
 8516TIP3   OH225492   4.623   7.251   2.202
 8516TIP3    H125493   4.588   7.252   2.113
 8516TIP3    H225494   4.675   7.331   2.208
 8517TIP3   OH225495   6.952   3.337   4.356
 8517TIP3    H125496   6.975   3.429   4.350
 8517TIP3    H225497   6.858   3.337   4.372
 8518TIP3   OH225498   5.272   2.276   6.423
 8518TIP3    H125499   5.177   2.276   6.414
 8518TIP3    H225500   5.298   2.366   6.403
 8519TIP3   OH225501   7.029   0.889   6.448
 8519TIP3    H125502   7.090   0.836   6.501
 8519TIP3    H225503   6.944   0.878   6.492
 8520TIP3   OH225504   0.840   2.467   1.052
 8520TIP3    H125505   0.753   2.431   1.068
 8520TIP3    H225506   0.829   2.562   1.056
 8521TIP3   OH225507   7.870   6.458   2.229
 8521TIP3    H125508   7.879   6.454   2.134
 8521TIP3    H225509   7.910   6.541   2.254
 8522TIP3   OH225510   2.331   5.737   5.627
 8522TIP3    H125511   2.311   5.645   5.645
 8522TIP3    H225512   2.267   5.763   5.562
 8523TIP3   OH225513   5.361   7.389   6.537
 8523TIP3    H125514   5.384   7.433   6.619
 8523TIP3    H225515   5.271   7.361   6.550
 8524TIP3   OH225516   1.773   6.729   0.060
 8524TIP3    H125517   1.755   6.658  -0.002
 8524TIP3    H225518   1.739   6.807   0.017
 8525TIP3   OH225519   3.630   2.442   3.177
 8525TIP3    H125520   3.609   2.353   3.206
 8525TIP3    H225521   3.675   2.430   3.094
 8526TIP3   OH225522   2.352   2.885   1.811
 8526TIP3    H125523   2.363   2.797   1.774
 8526TIP3    H225524   2.346   2.871   1.905
 8527TIP3   OH225525   0.098   0.778   4.708
 8527TIP3    H125526   0.046   0.699   4.722
 8527TIP3    H225527   0.033   0.847   4.696
 8528TIP3   OH225528   8.075   3.131   3.586
 8528TIP3    H125529   8.016   3.059   3.566
 8528TIP3    H225530   8.023   3.210   3.571
 8529TIP3   OH225531   0.262   5.216   3.630
 8529TIP3    H125532   0.178   5.229   3.587
 8529TIP3    H225533   0.243   5.227   3.724
 8530TIP3   OH225534   2.765   2.672   3.282
 8530TIP3    H125535   2.844   2.664   3.228
 8530TIP3    H225536   2.716   2.592   3.266
 8531TIP3   OH225537   4.926   6.465   2.523
 8531TIP3    H125538   4.979   6.506   2.592
 8531TIP3    H225539   4.845   6.439   2.567
 8532TIP3   OH225540   6.328   3.651   6.036
 8532TIP3    H125541   6.354   3.560   6.052
 8532TIP3    H225542   6.400   3.703   6.072
 8533TIP3   OH225543   2.136   0.221   0.989
 8533TIP3    H125544   2.147   0.239   1.082
 8533TIP3    H225545   2.224   0.232   0.952
 8534TIP3   OH225546   4.867   5.352   3.467
 8534TIP3    H125547   4.788   5.354   3.520
 8534TIP3    H225548   4.842   5.394   3.385
 8535TIP3   OH225549   4.280   3.600   2.732
 8535TIP3    H125550   4.321   3.560   2.808
 8535TIP3    H225551   4.293   3.694   2.745
 8536TIP3   OH225552   7.976   3.882   2.113
 8536TIP3    H125553   8.037   3.901   2.042
 8536TIP3    H225554   7.893   3.861   2.069
 8537TIP3   OH225555   7.422   1.936   5.004
 8537TIP3    H125556   7.505   1.916   5.047
 8537TIP3    H225557   7.430   1.897   4.917
 8538TIP3   OH225558   4.024   3.602   4.218
 8538TIP3    H125559   3.993   3.513   4.235
 8538TIP3    H225560   3.997   3.620   4.128
 8539TIP3   OH225561   1.254   1.431   4.350
 8539TIP3    H125562   1.214   1.356   4.305
 8539TIP3    H225563   1.241   1.412   4.443
 8540TIP3   OH225564   7.715   4.159   4.955
 8540TIP3    H125565   7.774   4.108   5.010
 8540TIP3    H225566   7.680   4.227   5.013
 8541TIP3   OH225567   0.464   2.481   4.250
 8541TIP3    H125568   0.462   2.464   4.156
 8541TIP3    H225569   0.387   2.437   4.285
 8542TIP3   OH225570   2.791   2.887   0.380
 8542TIP3    H125571   2.793   2.909   0.473
 8542TIP3    H225572   2.872   2.838   0.365
 8543TIP3   OH225573   2.840   5.642   4.369
 8543TIP3    H125574   2.792   5.646   4.451
 8543TIP3    H225575   2.785   5.588   4.312
 8544TIP3   OH225576   0.385   6.864   6.372
 8544TIP3    H125577   0.452   6.932   6.374
 8544TIP3    H225578   0.395   6.823   6.286
 8545TIP3   OH225579   7.793   5.689   3.489
 8545TIP3    H125580   7.867   5.672   3.548
 8545TIP3    H225581   7.772   5.781   3.503
 8546TIP3   OH225582   2.745   7.332   2.303
 8546TIP3    H125583   2.815   7.357   2.243
 8546TIP3    H225584   2.787   7.325   2.388
 8547TIP3   OH225585   5.913   1.841   2.442
 8547TIP3    H125586   5.894   1.836   2.348
 8547TIP3    H225587   5.980   1.774   2.457
 8548TIP3   OH225588   6.565   1.956   3.789
 8548TIP3    H125589   6.609   1.926   3.709
 8548TIP3    H225590   6.615   1.916   3.860
 8549TIP3   OH225591   5.010   4.001   3.638
 8549TIP3    H125592   4.994   3.973   3.729
 8549TIP3    H225593   5.055   3.926   3.598
 8550TIP3   OH225594   7.184   1.074   6.736
 8550TIP3    H125595   7.263   1.035   6.699
 8550TIP3    H225596   7.170   1.026   6.818
 8551TIP3   OH225597   2.242   0.089   1.516
 8551TIP3    H125598   2.264   0.006   1.475
 8551TIP3    H225599   2.319   0.144   1.501
 8552TIP3   OH225600   6.833   7.744   0.408
 8552TIP3    H125601   6.883   7.722   0.487
 8552TIP3    H225602   6.775   7.815   0.436
 8553TIP3   OH225603   3.959   1.285   0.327
 8553TIP3    H125604   3.887   1.224   0.345
 8553TIP3    H225605   3.959   1.345   0.402
 8554TIP3   OH225606   3.964   2.484   3.607
 8554TIP3    H125607   3.885   2.429   3.603
 8554TIP3    H225608   3.978   2.512   3.517
 8555TIP3   OH225609   6.824   7.088   2.374
 8555TIP3    H125610   6.903   7.137   2.353
 8555TIP3    H225611   6.754   7.133   2.327
 8556TIP3   OH225612   5.249   3.885   5.083
 8556TIP3    H125613   5.302   3.938   5.143
 8556TIP3    H225614   5.189   3.948   5.044
 8557TIP3   OH225615   4.192   7.498   2.314
 8557TIP3    H125616   4.191   7.444   2.236
 8557TIP3    H225617   4.285   7.510   2.334
 8558TIP3   OH225618   2.396   4.563   5.547
 8558TIP3    H125619   2.423   4.581   5.637
 8558TIP3    H225620   2.334   4.634   5.527
 8559TIP3   OH225621   6.493   4.026   0.044
 8559TIP3    H125622   6.441   4.025  -0.036
 8559TIP3    H225623   6.504   4.118   0.065
 8560TIP3   OH225624   0.765   4.620   4.407
 8560TIP3    H125625   0.760   4.536   4.453
 8560TIP3    H225626   0.675   4.637   4.378
 8561TIP3   OH225627   8.269   6.090   1.346
 8561TIP3    H125628   8.350   6.072   1.298
 8561TIP3    H225629   8.276   6.039   1.427
 8562TIP3   OH225630   5.108   3.122   2.329
 8562TIP3    H125631   5.119   3.178   2.406
 8562TIP3    H225632   5.170   3.157   2.266
 8563TIP3   OH225633   1.235   3.040   3.559
 8563TIP3    H125634   1.237   3.033   3.463
 8563TIP3    H225635   1.141   3.046   3.580
 8564TIP3   OH225636   7.435   4.965   5.564
 8564TIP3    H125637   7.405   4.882   5.601
 8564TIP3    H225638   7.362   4.994   5.509
 8565TIP3   OH225639   6.759   7.731   1.116
 8565TIP3    H125640   6.682   7.695   1.159
 8565TIP3    H225641   6.821   7.658   1.112
 8566TIP3   OH225642   6.104   5.878   3.646
 8566TIP3    H125643   6.080   5.870   3.738
 8566TIP3    H225644   6.075   5.796   3.606
 8567TIP3   OH225645   4.949   3.896   5.196
 8567TIP3    H125646   4.960   3.986   5.228
 8567TIP3    H225647   4.909   3.906   5.110
 8568TIP3   OH225648   1.894   3.857   5.030
 8568TIP3    H125649   1.909   3.889   5.119
 8568TIP3    H225650   1.971   3.806   5.009
 8569TIP3   OH225651   3.317   4.113   2.955
 8569TIP3    H125652   3.293   4.029   2.916
 8569TIP3    H225653   3.333   4.170   2.881
 8570TIP3   OH225654   7.420   5.880   0.924
 8570TIP3    H125655   7.453   5.798   0.888
 8570TIP3    H225656   7.377   5.855   1.006
 8571TIP3   OH225657   3.129   5.776   0.692
 8571TIP3    H125658   3.158   5.706   0.750
 8571TIP3    H225659   3.113   5.732   0.608
 8572TIP3   OH225660   1.405   7.708   1.031
 8572TIP3    H125661   1.447   7.631   1.070
 8572TIP3    H225662   1.378   7.680   0.944
 8573TIP3   OH225663   0.712   1.515   1.057
 8573TIP3    H125664   0.661   1.563   1.122
 8573TIP3    H225665   0.733   1.580   0.989
 8574TIP3   OH225666   4.497   1.218   5.099
 8574TIP3    H125667   4.426   1.232   5.162
 8574TIP3    H225668   4.571   1.266   5.135
 8575TIP3   OH225669   7.240   4.741   1.182
 8575TIP3    H125670   7.228   4.792   1.262
 8575TIP3    H225671   7.308   4.789   1.134
 8576TIP3   OH225672   7.413   2.305   1.023
 8576TIP3    H125673   7.446   2.383   0.978
 8576TIP3    H225674   7.385   2.246   0.952
 8577TIP3   OH225675   0.624   4.748   4.720
 8577TIP3    H125676   0.544   4.696   4.731
 8577TIP3    H225677   0.599   4.818   4.660
 8578TIP3   OH225678   6.719   6.469   5.158
 8578TIP3    H125679   6.803   6.482   5.115
 8578TIP3    H225680   6.681   6.393   5.113
 8579TIP3   OH225681   3.708   0.267   4.337
 8579TIP3    H125682   3.799   0.248   4.314
 8579TIP3    H225683   3.688   0.205   4.407
 8580TIP3   OH225684   8.260   5.664   6.588
 8580TIP3    H125685   8.242   5.656   6.495
 8580TIP3    H225686   8.247   5.757   6.607
 8581TIP3   OH225687   4.368   1.775   2.046
 8581TIP3    H125688   4.304   1.708   2.069
 8581TIP3    H225689   4.427   1.731   1.984
 8582TIP3   OH225690   1.046   4.080   2.042
 8582TIP3    H125691   1.017   4.135   2.114
 8582TIP3    H225692   1.142   4.090   2.041
 8583TIP3   OH225693   2.596   3.973   5.911
 8583TIP3    H125694   2.582   4.041   5.844
 8583TIP3    H225695   2.676   3.929   5.883
 8584TIP3   OH225696   7.482   1.811   1.540
 8584TIP3    H125697   7.401   1.760   1.542
 8584TIP3    H225698   7.484   1.854   1.626
 8585TIP3   OH225699   4.451   3.784   3.292
 8585TIP3    H125700   4.401   3.705   3.315
 8585TIP3    H225701   4.436   3.843   3.365
 8586TIP3   OH225702   8.049   3.232   2.392
 8586TIP3    H125703   8.089   3.309   2.351
 8586TIP3    H225704   8.064   3.245   2.485
 8587TIP3   OH225705   3.381   6.920   2.186
 8587TIP3    H125706   3.401   6.985   2.118
 8587TIP3    H225707   3.299   6.951   2.225
 8588TIP3   OH225708   1.330   2.713   4.938
 8588TIP3    H125709   1.358   2.626   4.911
 8588TIP3    H225710   1.372   2.772   4.875
 8589TIP3   OH225711   4.152   4.077   4.554
 8589TIP3    H125712   4.142   4.023   4.475
 8589TIP3    H225713   4.233   4.126   4.539
 8590TIP3   OH225714   5.736   2.128   6.567
 8590TIP3    H125715   5.739   2.221   6.592
 8590TIP3    H225716   5.691   2.128   6.482
 8591TIP3   OH225717   6.537   4.902   4.410
 8591TIP3    H125718   6.463   4.925   4.466
 8591TIP3    H225719   6.505   4.914   4.321
 8592TIP3   OH225720   1.596   7.566   6.119
 8592TIP3    H125721   1.674   7.603   6.077
 8592TIP3    H225722   1.602   7.472   6.102
 8593TIP3   OH225723   2.234   4.566   2.877
 8593TIP3    H125724   2.151   4.615   2.877
 8593TIP3    H225725   2.291   4.615   2.817
 8594TIP3   OH225726   3.152   5.011   4.248
 8594TIP3    H125727   3.152   4.939   4.185
 8594TIP3    H225728   3.207   4.980   4.320
 8595TIP3   OH225729   1.302   1.891   5.750
 8595TIP3    H125730   1.245   1.966   5.763
 8595TIP3    H225731   1.320   1.859   5.839
 8596TIP3   OH225732   1.661   1.731   1.217
 8596TIP3    H125733   1.658   1.645   1.175
 8596TIP3    H225734   1.709   1.786   1.155
 8597TIP3   OH225735   5.813   6.986   6.346
 8597TIP3    H125736   5.836   7.072   6.380
 8597TIP3    H225737   5.752   7.005   6.274
 8598TIP3   OH225738   3.019   4.971   2.396
 8598TIP3    H125739   3.012   4.900   2.459
 8598TIP3    H225740   3.091   5.025   2.429
 8599TIP3   OH225741   0.357   0.516   4.593
 8599TIP3    H125742   0.354   0.525   4.689
 8599TIP3    H225743   0.361   0.421   4.578
 8600TIP3   OH225744   6.577   1.162   0.747
 8600TIP3    H125745   6.617   1.075   0.747
 8600TIP3    H225746   6.495   1.151   0.795
 8601TIP3   OH225747   0.133   4.239   1.078
 8601TIP3    H125748   0.108   4.221   0.987
 8601TIP3    H225749   0.099   4.165   1.127
 8602TIP3   OH225750   3.639   4.197   1.335
 8602TIP3    H125751   3.635   4.246   1.417
 8602TIP3    H225752   3.717   4.142   1.343
 8603TIP3   OH225753   2.214   7.151   3.160
 8603TIP3    H125754   2.258   7.127   3.241
 8603TIP3    H225755   2.286   7.165   3.097
 8604TIP3   OH225756   4.331   4.025   1.490
 8604TIP3    H125757   4.409   4.052   1.538
 8604TIP3    H225758   4.328   4.083   1.414
 8605TIP3   OH225759   2.630   1.076   5.513
 8605TIP3    H125760   2.692   1.133   5.559
 8605TIP3    H225761   2.680   1.041   5.439
 8606TIP3   OH225762   1.309   1.191   4.720
 8606TIP3    H125763   1.340   1.236   4.642
 8606TIP3    H225764   1.215   1.182   4.709
 8607TIP3   OH225765   2.097   1.229   6.593
 8607TIP3    H125766   2.018   1.254   6.545
 8607TIP3    H225767   2.072   1.230   6.685
 8608TIP3   OH225768   0.451   2.107   1.306
 8608TIP3    H125769   0.437   2.168   1.378
 8608TIP3    H225770   0.385   2.132   1.241
 8609TIP3   OH225771   2.140   1.536   0.490
 8609TIP3    H125772   2.229   1.500   0.490
 8609TIP3    H225773   2.085   1.462   0.516
 8610TIP3   OH225774   3.645   1.214   1.856
 8610TIP3    H125775   3.549   1.210   1.851
 8610TIP3    H225776   3.673   1.123   1.846
 8611TIP3   OH225777   0.424   1.724   0.861
 8611TIP3    H125778   0.450   1.664   0.791
 8611TIP3    H225779   0.422   1.669   0.940
 8612TIP3   OH225780   4.932   0.648   0.097
 8612TIP3    H125781   4.981   0.729   0.084
 8612TIP3    H225782   4.934   0.634   0.192
 8613TIP3   OH225783   5.902   5.663   0.593
 8613TIP3    H125784   5.831   5.647   0.655
 8613TIP3    H225785   5.950   5.580   0.589
 8614TIP3   OH225786   6.245   1.301   2.007
 8614TIP3    H125787   6.213   1.216   2.036
 8614TIP3    H225788   6.316   1.280   1.946
 8615TIP3   OH225789   1.792   4.333   5.644
 8615TIP3    H125790   1.805   4.344   5.738
 8615TIP3    H225791   1.854   4.265   5.619
 8616TIP3   OH225792   2.557   3.603   4.580
 8616TIP3    H125793   2.509   3.622   4.661
 8616TIP3    H225794   2.514   3.524   4.546
 8617TIP3   OH225795   3.565   5.023   0.149
 8617TIP3    H125796   3.483   5.006   0.194
 8617TIP3    H225797   3.565   4.963   0.074
 8618TIP3   OH225798   1.953   6.888   1.943
 8618TIP3    H125799   1.943   6.814   1.884
 8618TIP3    H225800   2.037   6.928   1.919
 8619TIP3   OH225801   2.288   1.216   2.811
 8619TIP3    H125802   2.202   1.249   2.786
 8619TIP3    H225803   2.277   1.121   2.815
 8620TIP3   OH225804   4.963   6.806   1.775
 8620TIP3    H125805   4.899   6.767   1.835
 8620TIP3    H225806   4.910   6.858   1.714
 8621TIP3   OH225807   0.786   0.778   5.673
 8621TIP3    H125808   0.779   0.737   5.587
 8621TIP3    H225809   0.743   0.863   5.663
 8622TIP3   OH225810   2.699   0.026   2.383
 8622TIP3    H125811   2.625  -0.001   2.438
 8622TIP3    H225812   2.768   0.049   2.445
 8623TIP3   OH225813   7.203   5.192   5.939
 8623TIP3    H125814   7.295   5.182   5.916
 8623TIP3    H225815   7.203   5.242   6.020
 8624TIP3   OH225816   0.749   6.595   1.148
 8624TIP3    H125817   0.798   6.513   1.143
 8624TIP3    H225818   0.698   6.598   1.067
 8625TIP3   OH225819   3.451   1.975   4.465
 8625TIP3    H125820   3.362   2.002   4.484
 8625TIP3    H225821   3.444   1.881   4.445
 8626TIP3   OH225822   3.260   2.969   5.046
 8626TIP3    H125823   3.249   2.875   5.030
 8626TIP3    H225824   3.182   3.009   5.007
 8627TIP3   OH225825   4.605   1.193   4.209
 8627TIP3    H125826   4.511   1.193   4.191
 8627TIP3    H225827   4.636   1.276   4.172
 8628TIP3   OH225828   3.626   3.889   4.613
 8628TIP3    H125829   3.719   3.867   4.620
 8628TIP3    H225830   3.620   3.941   4.533
 8629TIP3   OH225831   1.240   0.256   4.277
 8629TIP3    H125832   1.225   0.310   4.355
 8629TIP3    H225833   1.335   0.252   4.268
 8630TIP3   OH225834   7.392   5.551   4.046
 8630TIP3    H125835   7.300   5.533   4.023
 8630TIP3    H225836   7.388   5.630   4.100
 8631TIP3   OH225837   1.916   5.471   0.890
 8631TIP3    H125838   1.910   5.497   0.982
 8631TIP3    H225839   2.005   5.439   0.880
 8632TIP3   OH225840   5.880   5.273   1.115
 8632TIP3    H125841   5.786   5.276   1.130
 8632TIP3    H225842   5.890   5.224   1.033
 8633TIP3   OH225843   3.681   5.632   4.285
 8633TIP3    H125844   3.667   5.618   4.191
 8633TIP3    H225845   3.757   5.690   4.290
 8634TIP3   OH225846   5.722   2.007   1.711
 8634TIP3    H125847   5.815   2.004   1.689
 8634TIP3    H225848   5.716   1.965   1.797
 8635TIP3   OH225849   7.040   4.854   5.254
 8635TIP3    H125850   7.052   4.944   5.224
 8635TIP3    H225851   7.048   4.859   5.349
 8636TIP3   OH225852   7.494   4.594   1.062
 8636TIP3    H125853   7.517   4.605   1.154
 8636TIP3    H225854   7.475   4.683   1.031
 8637TIP3   OH225855   6.092   7.025   1.858
 8637TIP3    H125856   6.162   7.079   1.895
 8637TIP3    H225857   6.135   6.975   1.788
 8638TIP3   OH225858   4.880   2.007   6.538
 8638TIP3    H125859   4.841   2.016   6.625
 8638TIP3    H225860   4.955   1.949   6.551
 8639TIP3   OH225861   3.901   2.652   2.499
 8639TIP3    H125862   3.916   2.558   2.489
 8639TIP3    H225863   3.810   2.665   2.471
 8640TIP3   OH225864   1.998   6.341   5.279
 8640TIP3    H125865   2.036   6.361   5.193
 8640TIP3    H225866   2.065   6.289   5.323
 8641TIP3   OH225867   7.957   4.438   0.669
 8641TIP3    H125868   8.018   4.507   0.695
 8641TIP3    H225869   8.014   4.363   0.648
 8642TIP3   OH225870   1.587   3.708   5.526
 8642TIP3    H125871   1.672   3.747   5.546
 8642TIP3    H225872   1.605   3.644   5.458
 8643TIP3   OH225873   0.322   6.827   2.258
 8643TIP3    H125874   0.379   6.807   2.333
 8643TIP3    H225875   0.246   6.771   2.270
 8644TIP3   OH225876   3.866   3.294   5.950
 8644TIP3    H125877   3.942   3.341   5.917
 8644TIP3    H225878   3.824   3.256   5.873
 8645TIP3   OH225879   3.866   4.628   2.415
 8645TIP3    H125880   3.831   4.614   2.503
 8645TIP3    H225881   3.824   4.708   2.385
 8646TIP3   OH225882   4.925   4.048   5.886
 8646TIP3    H125883   4.926   4.021   5.794
 8646TIP3    H225884   4.888   4.137   5.884
 8647TIP3   OH225885   8.311   0.317   3.550
 8647TIP3    H125886   8.264   0.277   3.623
 8647TIP3    H225887   8.244   0.332   3.484
 8648TIP3   OH225888   7.811   7.312   3.795
 8648TIP3    H125889   7.788   7.249   3.727
 8648TIP3    H225890   7.853   7.384   3.747
 8649TIP3   OH225891   0.321   2.400   6.463
 8649TIP3    H125892   0.402   2.394   6.414
 8649TIP3    H225893   0.294   2.492   6.456
 8650TIP3   OH225894   5.907   6.550   3.961
 8650TIP3    H125895   5.982   6.568   4.018
 8650TIP3    H225896   5.914   6.456   3.942
 8651TIP3   OH225897   7.730   2.090   0.199
 8651TIP3    H125898   7.818   2.126   0.210
 8651TIP3    H225899   7.743   2.000   0.172
 8652TIP3   OH225900   1.745   5.643   1.199
 8652TIP3    H125901   1.821   5.683   1.241
 8652TIP3    H225902   1.700   5.715   1.156
 8653TIP3   OH225903   4.287   5.188   6.331
 8653TIP3    H125904   4.314   5.109   6.377
 8653TIP3    H225905   4.216   5.224   6.383
 8654TIP3   OH225906   7.182   7.583   1.110
 8654TIP3    H125907   7.270   7.549   1.098
 8654TIP3    H225908   7.183   7.623   1.197
 8655TIP3   OH225909   4.173   7.398   6.156
 8655TIP3    H125910   4.265   7.384   6.133
 8655TIP3    H225911   4.124   7.348   6.090
 8656TIP3   OH225912   6.778   3.213   3.845
 8656TIP3    H125913   6.721   3.285   3.815
 8656TIP3    H225914   6.847   3.257   3.894
 8657TIP3   OH225915   2.031   6.459   0.997
 8657TIP3    H125916   2.009   6.450   0.905
 8657TIP3    H225917   2.029   6.553   1.014
 8658TIP3   OH225918   7.784   3.832   2.969
 8658TIP3    H125919   7.813   3.814   2.880
 8658TIP3    H225920   7.860   3.812   3.023
 8659TIP3   OH225921   5.061   6.695   3.081
 8659TIP3    H125922   4.993   6.726   3.021
 8659TIP3    H225923   5.128   6.763   3.079
 8660TIP3   OH225924   4.078   1.978   2.793
 8660TIP3    H125925   4.011   1.910   2.794
 8660TIP3    H225926   4.154   1.936   2.752
 8661TIP3   OH225927   2.487   5.018   2.682
 8661TIP3    H125928   2.503   5.083   2.750
 8661TIP3    H225929   2.532   5.053   2.605
 8662TIP3   OH225930   3.082   4.041   2.724
 8662TIP3    H125931   3.157   3.993   2.688
 8662TIP3    H225932   3.007   3.984   2.711
 8663TIP3   OH225933   4.625   6.977   1.182
 8663TIP3    H125934   4.538   6.997   1.217
 8663TIP3    H225935   4.625   7.016   1.094
 8664TIP3   OH225936   6.420   4.375   5.762
 8664TIP3    H125937   6.450   4.344   5.677
 8664TIP3    H225938   6.479   4.334   5.826
 8665TIP3   OH225939   0.431   5.821   0.682
 8665TIP3    H125940   0.428   5.759   0.609
 8665TIP3    H225941   0.421   5.907   0.641
 8666TIP3   OH225942   6.066   6.638   2.798
 8666TIP3    H125943   6.151   6.663   2.762
 8666TIP3    H225944   6.038   6.565   2.743
 8667TIP3   OH225945   3.207   6.810   1.303
 8667TIP3    H125946   3.118   6.801   1.337
 8667TIP3    H225947   3.220   6.732   1.249
 8668TIP3   OH225948   6.716   1.139   3.056
 8668TIP3    H125949   6.667   1.067   3.017
 8668TIP3    H225950   6.739   1.196   2.983
 8669TIP3   OH225951   7.374   2.440   4.671
 8669TIP3    H125952   7.437   2.368   4.663
 8669TIP3    H225953   7.290   2.402   4.646
 8670TIP3   OH225954   3.556   1.644   1.656
 8670TIP3    H125955   3.532   1.595   1.735
 8670TIP3    H225956   3.651   1.639   1.652
 8671TIP3   OH225957   1.237   5.758   4.381
 8671TIP3    H125958   1.287   5.735   4.302
 8671TIP3    H225959   1.304   5.778   4.446
 8672TIP3   OH225960   2.570   0.904   3.092
 8672TIP3    H125961   2.504   0.929   3.157
 8672TIP3    H225962   2.640   0.968   3.104
 8673TIP3   OH225963   2.881   1.231   5.982
 8673TIP3    H125964   2.904   1.138   5.972
 8673TIP3    H225965   2.965   1.277   5.982
 8674TIP3   OH225966   3.084   5.289   3.967
 8674TIP3    H125967   3.048   5.213   3.921
 8674TIP3    H225968   3.045   5.284   4.055
 8675TIP3   OH225969   2.079   5.667   2.681
 8675TIP3    H125970   2.103   5.587   2.635
 8675TIP3    H225971   2.037   5.721   2.614
 8676TIP3   OH225972   1.921   7.038   5.762
 8676TIP3    H125973   1.832   7.008   5.742
 8676TIP3    H225974   1.977   6.962   5.745
 8677TIP3   OH225975   1.114   4.021   6.741
 8677TIP3    H125976   1.139   4.086   6.807
 8677TIP3    H225977   1.040   4.060   6.695
 8678TIP3   OH225978   4.728   6.275   4.801
 8678TIP3    H125979   4.638   6.299   4.823
 8678TIP3    H225980   4.760   6.227   4.877
 8679TIP3   OH225981   3.840   3.750   1.703
 8679TIP3    H125982   3.880   3.710   1.626
 8679TIP3    H225983   3.871   3.696   1.776
 8680TIP3   OH225984   1.585   5.994   0.681
 8680TIP3    H125985   1.616   5.957   0.764
 8680TIP3    H225986   1.493   5.970   0.676
 8681TIP3   OH225987   7.054   3.075   2.966
 8681TIP3    H125988   7.092   3.056   3.051
 8681TIP3    H225989   7.108   3.028   2.903
 8682TIP3   OH225990   0.908   1.595   0.070
 8682TIP3    H125991   0.963   1.671   0.092
 8682TIP3    H225992   0.865   1.572   0.152
 8683TIP3   OH225993   3.751   3.770   3.570
 8683TIP3    H125994   3.752   3.852   3.520
 8683TIP3    H225995   3.724   3.796   3.658
 8684TIP3   OH225996   2.517   1.354   5.088
 8684TIP3    H125997   2.552   1.387   5.171
 8684TIP3    H225998   2.520   1.429   5.029
 8685TIP3   OH225999   8.231   6.409   5.014
 8685TIP3    H126000   8.261   6.334   4.962
 8685TIP3    H226001   8.276   6.484   4.975
 8686TIP3   OH226002   3.600   1.795   0.943
 8686TIP3    H126003   3.664   1.838   0.885
 8686TIP3    H226004   3.533   1.762   0.884
 8687TIP3   OH226005   4.886   7.683   1.903
 8687TIP3    H126006   4.977   7.657   1.918
 8687TIP3    H226007   4.848   7.689   1.990
 8688TIP3   OH226008   7.955   0.481   5.668
 8688TIP3    H126009   8.042   0.460   5.700
 8688TIP3    H226010   7.961   0.472   5.573
 8689TIP3   OH226011   7.477   6.544   5.843
 8689TIP3    H126012   7.401   6.544   5.784
 8689TIP3    H226013   7.552   6.532   5.785
 8690TIP3   OH226014   1.429   2.356   2.180
 8690TIP3    H126015   1.446   2.349   2.086
 8690TIP3    H226016   1.350   2.409   2.186
 8691TIP3   OH226017   6.490   7.685   6.083
 8691TIP3    H126018   6.520   7.619   6.144
 8691TIP3    H226019   6.464   7.636   6.005
 8692TIP3   OH226020   4.819   2.805   0.797
 8692TIP3    H126021   4.825   2.832   0.705
 8692TIP3    H226022   4.887   2.856   0.841
 8693TIP3   OH226023   3.434   3.739   2.595
 8693TIP3    H126024   3.444   3.666   2.657
 8693TIP3    H226025   3.457   3.703   2.510
 8694TIP3   OH226026   6.589   5.147   5.407
 8694TIP3    H126027   6.589   5.100   5.491
 8694TIP3    H226028   6.632   5.086   5.346
 8695TIP3   OH226029   5.001   6.925   4.389
 8695TIP3    H126030   5.069   6.905   4.325
 8695TIP3    H226031   4.927   6.956   4.337
 8696TIP3   OH226032   5.158   5.959   6.076
 8696TIP3    H126033   5.080   5.919   6.116
 8696TIP3    H226034   5.224   5.890   6.079
 8697TIP3   OH226035   2.998   5.079   6.544
 8697TIP3    H126036   2.912   5.072   6.586
 8697TIP3    H226037   3.059   5.046   6.610
 8698TIP3   OH226038   2.998   0.839   4.756
 8698TIP3    H126039   2.933   0.909   4.756
 8698TIP3    H226040   2.951   0.762   4.725
 8699TIP3   OH226041   7.471   7.276   0.834
 8699TIP3    H126042   7.380   7.252   0.818
 8699TIP3    H226043   7.486   7.352   0.779
 8700TIP3   OH226044   2.508   1.441   2.031
 8700TIP3    H126045   2.438   1.387   2.069
 8700TIP3    H226046   2.533   1.395   1.951
 8701TIP3   OH226047   2.341   3.674   4.765
 8701TIP3    H126048   2.335   3.739   4.835
 8701TIP3    H226049   2.252   3.668   4.730
 8702TIP3   OH226050   2.161   7.214   2.499
 8702TIP3    H126051   2.219   7.257   2.437
 8702TIP3    H226052   2.209   7.136   2.527
 8703TIP3   OH226053   7.223   4.172   4.397
 8703TIP3    H126054   7.229   4.172   4.493
 8703TIP3    H226055   7.151   4.113   4.378
 8704TIP3   OH226056   4.558   3.775   4.257
 8704TIP3    H126057   4.481   3.793   4.203
 8704TIP3    H226058   4.626   3.750   4.194
 8705TIP3   OH226059   7.189   2.739   1.568
 8705TIP3    H126060   7.227   2.719   1.653
 8705TIP3    H226061   7.248   2.698   1.505
 8706TIP3   OH226062   4.561   5.600   1.600
 8706TIP3    H126063   4.481   5.560   1.566
 8706TIP3    H226064   4.572   5.679   1.547
 8707TIP3   OH226065   6.736   3.646   3.975
 8707TIP3    H126066   6.748   3.565   3.925
 8707TIP3    H226067   6.818   3.694   3.963
 8708TIP3   OH226068   3.157   1.072   6.600
 8708TIP3    H126069   3.131   0.996   6.548
 8708TIP3    H226070   3.084   1.086   6.660
 8709TIP3   OH226071   1.128   0.443   0.346
 8709TIP3    H126072   1.050   0.424   0.295
 8709TIP3    H226073   1.189   0.372   0.326
 8710TIP3   OH226074   5.897   1.437   0.507
 8710TIP3    H126075   5.903   1.498   0.433
 8710TIP3    H226076   5.817   1.464   0.553
 8711TIP3   OH226077   6.487   4.881   0.750
 8711TIP3    H126078   6.532   4.895   0.833
 8711TIP3    H226079   6.556   4.877   0.684
 8712TIP3   OH226080   4.409   2.868   0.843
 8712TIP3    H126081   4.320   2.878   0.878
 8712TIP3    H226082   4.410   2.779   0.808
 8713TIP3   OH226083   5.492   7.199   5.076
 8713TIP3    H126084   5.441   7.145   5.017
 8713TIP3    H226085   5.504   7.146   5.154
 8714TIP3   OH226086   8.113   0.916   4.310
 8714TIP3    H126087   8.036   0.884   4.357
 8714TIP3    H226088   8.082   0.932   4.221
 8715TIP3   OH226089   3.093   2.739   6.690
 8715TIP3    H126090   3.171   2.688   6.711
 8715TIP3    H226091   3.051   2.691   6.620
 8716TIP3   OH226092   3.663   2.422   2.650
 8716TIP3    H126093   3.595   2.489   2.640
 8716TIP3    H226094   3.634   2.370   2.725
 8717TIP3   OH226095   5.166   4.015   0.386
 8717TIP3    H126096   5.119   3.957   0.447
 8717TIP3    H226097   5.158   3.971   0.301
 8718TIP3   OH226098   2.602   4.206   6.096
 8718TIP3    H126099   2.609   4.204   6.001
 8718TIP3    H226100   2.607   4.299   6.119
 8719TIP3   OH226101   5.435   5.482   0.386
 8719TIP3    H126102   5.523   5.514   0.367
 8719TIP3    H226103   5.390   5.483   0.301
 8720TIP3   OH226104   0.767   1.717   5.945
 8720TIP3    H126105   0.711   1.651   5.986
 8720TIP3    H226106   0.799   1.676   5.865
 8721TIP3   OH226107   0.804   4.020   5.213
 8721TIP3    H126108   0.872   3.977   5.162
 8721TIP3    H226109   0.838   4.107   5.231
 8722TIP3   OH226110   3.857   5.222   2.745
 8722TIP3    H126111   3.766   5.200   2.724
 8722TIP3    H226112   3.908   5.179   2.676
 8723TIP3   OH226113   6.352   2.330   6.581
 8723TIP3    H126114   6.266   2.296   6.605
 8723TIP3    H226115   6.412   2.257   6.598
 8724TIP3   OH226116   3.560   0.668   6.054
 8724TIP3    H126117   3.579   0.761   6.043
 8724TIP3    H226118   3.547   0.635   5.964
 8725TIP3   OH226119   3.340   2.161   2.318
 8725TIP3    H126120   3.412   2.222   2.335
 8725TIP3    H226121   3.310   2.183   2.230
 8726TIP3   OH226122   2.252   6.816   5.446
 8726TIP3    H126123   2.159   6.795   5.447
 8726TIP3    H226124   2.263   6.881   5.515
 8727TIP3   OH226125   4.214   0.399   6.239
 8727TIP3    H126126   4.125   0.399   6.203
 8727TIP3    H226127   4.202   0.411   6.333
 8728TIP3   OH226128   5.544   2.563   0.567
 8728TIP3    H126129   5.527   2.510   0.489
 8728TIP3    H226130   5.484   2.529   0.633
 8729TIP3   OH226131   1.769   1.342   2.672
 8729TIP3    H126132   1.771   1.438   2.672
 8729TIP3    H226133   1.701   1.320   2.736
 8730TIP3   OH226134   4.380   0.155   5.854
 8730TIP3    H126135   4.352   0.148   5.945
 8730TIP3    H226136   4.303   0.127   5.804
 8731TIP3   OH226137   6.896   1.118   6.755
 8731TIP3    H126138   6.988   1.136   6.773
 8731TIP3    H226139   6.898   1.047   6.690
 8732TIP3   OH226140   5.961   3.819   5.031
 8732TIP3    H126141   5.956   3.854   5.120
 8732TIP3    H226142   5.870   3.805   5.005
 8733TIP3   OH226143   1.748   4.025   6.070
 8733TIP3    H126144   1.713   3.955   6.125
 8733TIP3    H226145   1.840   4.033   6.097
 8734TIP3   OH226146   3.617   6.859   4.800
 8734TIP3    H126147   3.667   6.778   4.803
 8734TIP3    H226148   3.669   6.921   4.851
 8735TIP3   OH226149   0.690   6.319   2.929
 8735TIP3    H126150   0.728   6.355   2.849
 8735TIP3    H226151   0.596   6.331   2.919
 8736TIP3   OH226152   5.861   0.816   0.360
 8736TIP3    H126153   5.907   0.735   0.383
 8736TIP3    H226154   5.930   0.883   0.359
 8737TIP3   OH226155   7.722   0.184   4.337
 8737TIP3    H126156   7.726   0.264   4.286
 8737TIP3    H226157   7.753   0.209   4.424
 8738TIP3   OH226158   2.712   7.674   6.337
 8738TIP3    H126159   2.710   7.582   6.363
 8738TIP3    H226160   2.624   7.692   6.304
 8739TIP3   OH226161   0.053   1.456   4.596
 8739TIP3    H126162   0.124   1.395   4.578
 8739TIP3    H226163  -0.006   1.446   4.521
 8740TIP3   OH226164   5.061   5.073   2.113
 8740TIP3    H126165   5.135   5.094   2.057
 8740TIP3    H226166   4.988   5.124   2.077
 8741TIP3   OH226167   0.835   4.352   0.000
 8741TIP3    H126168   0.875   4.319   0.080
 8741TIP3    H226169   0.816   4.273  -0.052
 8742TIP3   OH226170   6.689   1.807   4.898
 8742TIP3    H126171   6.595   1.793   4.903
 8742TIP3    H226172   6.699   1.896   4.865
 8743TIP3   OH226173   4.079   6.454   3.446
 8743TIP3    H126174   4.101   6.380   3.389
 8743TIP3    H226175   4.046   6.414   3.526
 8744TIP3   OH226176   5.415   4.059   4.258
 8744TIP3    H126177   5.488   4.116   4.282
 8744TIP3    H226178   5.361   4.112   4.200
 8745TIP3   OH226179   4.091   3.942   3.304
 8745TIP3    H126180   4.153   4.010   3.331
 8745TIP3    H226181   4.107   3.870   3.364
 8746TIP3   OH226182   4.896   0.052   5.632
 8746TIP3    H126183   4.809   0.088   5.623
 8746TIP3    H226184   4.883  -0.029   5.683
 8747TIP3   OH226185   5.969   4.851   0.897
 8747TIP3    H126186   5.898   4.873   0.837
 8747TIP3    H226187   6.000   4.766   0.867
 8748TIP3   OH226188   3.285   1.930  -0.019
 8748TIP3    H126189   3.237   2.007   0.011
 8748TIP3    H226190   3.259   1.860   0.041
 8749TIP3   OH226191   0.029   0.117   4.981
 8749TIP3    H126192   0.045   0.168   4.902
 8749TIP3    H226193   0.038   0.026   4.953
 8750TIP3   OH226194   2.988   5.254   5.196
 8750TIP3    H126195   2.969   5.342   5.227
 8750TIP3    H226196   2.902   5.215   5.179
 8751TIP3   OH226197   6.050   6.388   1.518
 8751TIP3    H126198   6.066   6.295   1.538
 8751TIP3    H226199   6.090   6.401   1.432
 8752TIP3   OH226200   6.732   4.199   0.471
 8752TIP3    H126201   6.740   4.223   0.379
 8752TIP3    H226202   6.778   4.268   0.518
 8753TIP3   OH226203   2.945   5.999   6.484
 8753TIP3    H126204   3.022   6.037   6.443
 8753TIP3    H226205   2.971   5.984   6.575
 8754TIP3   OH226206   1.531   2.438   1.143
 8754TIP3    H126207   1.544   2.529   1.171
 8754TIP3    H226208   1.437   2.431   1.126
 8755TIP3   OH226209   0.461   2.877   3.928
 8755TIP3    H126210   0.388   2.823   3.956
 8755TIP3    H226211   0.472   2.940   3.999
 8756TIP3   OH226212   8.104   4.353   5.999
 8756TIP3    H126213   8.196   4.349   5.972
 8756TIP3    H226214   8.107   4.391   6.087
 8757TIP3   OH226215   1.334   0.740   3.667
 8757TIP3    H126216   1.271   0.685   3.712
 8757TIP3    H226217   1.285   0.819   3.644
 8758TIP3   OH226218   7.257   2.240   4.293
 8758TIP3    H126219   7.279   2.333   4.281
 8758TIP3    H226220   7.162   2.238   4.299
 8759TIP3   OH226221   2.202   4.068   4.836
 8759TIP3    H126222   2.146   4.046   4.762
 8759TIP3    H226223   2.182   4.160   4.855
 8760TIP3   OH226224   0.602   0.541   5.173
 8760TIP3    H126225   0.652   0.545   5.092
 8760TIP3    H226226   0.598   0.632   5.203
 8761TIP3   OH226227   5.417   3.087   2.321
 8761TIP3    H126228   5.387   3.175   2.295
 8761TIP3    H226229   5.420   3.091   2.416
 8762TIP3   OH226230   1.126   0.104   0.507
 8762TIP3    H126231   1.145   0.154   0.587
 8762TIP3    H226232   1.036   0.127   0.484
 8763TIP3   OH226233   6.659   2.538   5.342
 8763TIP3    H126234   6.610   2.571   5.417
 8763TIP3    H226235   6.604   2.470   5.304
 8764TIP3   OH226236   5.995   7.698   0.020
 8764TIP3    H126237   5.939   7.640   0.071
 8764TIP3    H226238   5.970   7.786   0.048
 8765TIP3   OH226239   5.051   0.970   5.311
 8765TIP3    H126240   5.113   1.043   5.317
 8765TIP3    H226241   5.105   0.892   5.321
 8766TIP3   OH226242   1.543   2.057   5.998
 8766TIP3    H126243   1.458   2.042   6.038
 8766TIP3    H226244   1.573   1.969   5.973
 8767TIP3   OH226245   6.952   2.231   2.582
 8767TIP3    H126246   6.930   2.227   2.490
 8767TIP3    H226247   7.048   2.239   2.584
 8768TIP3   OH226248   1.329   4.812   4.139
 8768TIP3    H126249   1.328   4.907   4.127
 8768TIP3    H226250   1.398   4.796   4.202
 8769TIP3   OH226251   5.742   2.678   2.285
 8769TIP3    H126252   5.675   2.745   2.271
 8769TIP3    H226253   5.751   2.635   2.200
 8770TIP3   OH226254   0.164   6.866   0.224
 8770TIP3    H126255   0.129   6.805   0.288
 8770TIP3    H226256   0.133   6.833   0.139
 8771TIP3   OH226257   2.062   2.013   3.819
 8771TIP3    H126258   1.993   2.038   3.758
 8771TIP3    H226259   2.016   1.988   3.899
 8772TIP3   OH226260   5.093   0.184   6.345
 8772TIP3    H126261   5.072   0.278   6.342
 8772TIP3    H226262   5.136   0.172   6.430
 8773TIP3   OH226263   6.893   7.584   2.648
 8773TIP3    H126264   6.927   7.532   2.576
 8773TIP3    H226265   6.828   7.641   2.607
 8774TIP3   OH226266   3.943   0.941   3.124
 8774TIP3    H126267   3.991   1.020   3.101
 8774TIP3    H226268   3.858   0.973   3.155
 8775TIP3   OH226269   5.694   5.065   0.543
 8775TIP3    H126270   5.613   5.107   0.513
 8775TIP3    H226271   5.744   5.135   0.585
 8776TIP3   OH226272   5.912   1.469   3.362
 8776TIP3    H126273   5.887   1.471   3.269
 8776TIP3    H226274   5.909   1.560   3.389
 8777TIP3   OH226275   7.035   5.346   0.423
 8777TIP3    H126276   6.974   5.414   0.394
 8777TIP3    H226277   7.050   5.366   0.516
 8778TIP3   OH226278   7.286   3.550   5.656
 8778TIP3    H126279   7.196   3.580   5.662
 8778TIP3    H226280   7.280   3.455   5.655
 8779TIP3   OH226281   1.919   6.683   6.215
 8779TIP3    H126282   1.870   6.654   6.138
 8779TIP3    H226283   1.854   6.689   6.284
 8780TIP3   OH226284   2.248   6.337   3.205
 8780TIP3    H126285   2.321   6.282   3.178
 8780TIP3    H226286   2.261   6.420   3.159
 8781TIP3   OH226287   7.517   0.616   4.853
 8781TIP3    H126288   7.433   0.663   4.851
 8781TIP3    H226289   7.567   0.660   4.922
 8782TIP3   OH226290   1.235   2.841   0.395
 8782TIP3    H126291   1.169   2.784   0.355
 8782TIP3    H226292   1.188   2.887   0.465
 8783TIP3   OH226293   0.910   4.382   1.827
 8783TIP3    H126294   0.837   4.332   1.792
 8783TIP3    H226295   0.906   4.369   1.922
 8784TIP3   OH226296   6.923   7.815   6.541
 8784TIP3    H126297   6.914   7.720   6.554
 8784TIP3    H226298   6.842   7.841   6.497
 8785TIP3   OH226299   5.504   7.089   2.760
 8785TIP3    H126300   5.520   7.014   2.818
 8785TIP3    H226301   5.504   7.052   2.672
 8786TIP3   OH226302   2.278   6.943   2.926
 8786TIP3    H126303   2.255   6.962   3.017
 8786TIP3    H226304   2.226   6.866   2.903
 8787TIP3   OH226305   7.508   2.222   6.506
 8787TIP3    H126306   7.571   2.150   6.505
 8787TIP3    H226307   7.514   2.259   6.418
 8788TIP3   OH226308   2.668   0.969   5.243
 8788TIP3    H126309   2.652   1.019   5.163
 8788TIP3    H226310   2.761   0.978   5.259
 8789TIP3   OH226311   1.416   6.807   6.280
 8789TIP3    H126312   1.473   6.883   6.284
 8789TIP3    H226313   1.473   6.733   6.297
 8790TIP3   OH226314   7.196   4.597   2.481
 8790TIP3    H126315   7.110   4.613   2.520
 8790TIP3    H226316   7.253   4.665   2.518
 8791TIP3   OH226317   8.102   5.922   6.063
 8791TIP3    H126318   8.093   5.939   5.969
 8791TIP3    H226319   8.114   6.008   6.103
 8792TIP3   OH226320   2.373   2.604   0.138
 8792TIP3    H126321   2.310   2.660   0.183
 8792TIP3    H226322   2.399   2.539   0.203
 8793TIP3   OH226323   4.155   7.681   6.124
 8793TIP3    H126324   4.171   7.590   6.147
 8793TIP3    H226325   4.126   7.722   6.205
 8794TIP3   OH226326   7.475   6.010   6.414
 8794TIP3    H126327   7.493   6.032   6.323
 8794TIP3    H226328   7.381   6.023   6.424
 8795TIP3   OH226329   2.933   4.545   6.308
 8795TIP3    H126330   2.923   4.566   6.215
 8795TIP3    H226331   3.021   4.507   6.314
 8796TIP3   OH226332   7.709   2.238   5.601
 8796TIP3    H126333   7.638   2.186   5.562
 8796TIP3    H226334   7.677   2.259   5.689
 8797TIP3   OH226335   5.689   1.565   2.543
 8797TIP3    H126336   5.654   1.479   2.519
 8797TIP3    H226337   5.684   1.616   2.462
 8798TIP3   OH226338   8.031   4.523   3.739
 8798TIP3    H126339   8.042   4.559   3.827
 8798TIP3    H226340   8.118   4.526   3.700
 8799TIP3   OH226341   5.491   1.107   2.251
 8799TIP3    H126342   5.430   1.163   2.298
 8799TIP3    H226343   5.472   1.122   2.159
 8800TIP3   OH226344   7.906   3.199   6.764
 8800TIP3    H126345   7.922   3.226   6.673
 8800TIP3    H226346   7.829   3.248   6.791
 8801TIP3   OH226347   6.341   7.049   2.360
 8801TIP3    H126348   6.260   7.054   2.410
 8801TIP3    H226349   6.409   7.078   2.420
 8802TIP3   OH226350   4.374   3.252   4.758
 8802TIP3    H126351   4.393   3.242   4.851
 8802TIP3    H226352   4.278   3.254   4.754
 8803TIP3   OH226353   1.166   2.504   6.734
 8803TIP3    H126354   1.225   2.428   6.739
 8803TIP3    H226355   1.102   2.480   6.667
 8804TIP3   OH226356   6.882   1.306   1.549
 8804TIP3    H126357   6.895   1.399   1.568
 8804TIP3    H226358   6.929   1.292   1.466
 8805TIP3   OH226359   4.027   1.432   2.567
 8805TIP3    H126360   3.933   1.445   2.560
 8805TIP3    H226361   4.064   1.489   2.499
 8806TIP3   OH226362   0.938   3.860   2.559
 8806TIP3    H126363   0.903   3.798   2.495
 8806TIP3    H226364   1.009   3.813   2.602
 8807TIP3   OH226365   4.501   3.943   2.023
 8807TIP3    H126366   4.573   3.944   1.960
 8807TIP3    H226367   4.423   3.966   1.973
 8808TIP3   OH226368   5.099   7.738   4.611
 8808TIP3    H126369   5.064   7.696   4.690
 8808TIP3    H226370   5.045   7.703   4.540
 8809TIP3   OH226371   7.087   7.539   3.867
 8809TIP3    H126372   7.013   7.490   3.831
 8809TIP3    H226373   7.124   7.585   3.792
 8810TIP3   OH226374   7.781   5.635   5.555
 8810TIP3    H126375   7.751   5.668   5.640
 8810TIP3    H226376   7.833   5.706   5.519
 8811TIP3   OH226377   3.752   2.806   6.752
 8811TIP3    H126378   3.723   2.870   6.688
 8811TIP3    H226379   3.761   2.724   6.703
 8812TIP3   OH226380   7.444   0.075   1.147
 8812TIP3    H126381   7.372   0.032   1.102
 8812TIP3    H226382   7.434   0.050   1.239
 8813TIP3   OH226383   6.392   7.318   0.858
 8813TIP3    H126384   6.460   7.348   0.797
 8813TIP3    H226385   6.353   7.398   0.893
 8814TIP3   OH226386   6.348   2.749   4.669
 8814TIP3    H126387   6.406   2.823   4.647
 8814TIP3    H226388   6.401   2.672   4.650
 8815TIP3   OH226389   7.355   5.021   4.055
 8815TIP3    H126390   7.442   5.042   4.088
 8815TIP3    H226391   7.357   4.927   4.039
 8816TIP3   OH226392   4.138   3.825   4.049
 8816TIP3    H126393   4.126   3.804   4.142
 8816TIP3    H226394   4.232   3.817   4.034
 8817TIP3   OH226395   6.139   6.089   5.736
 8817TIP3    H126396   6.215   6.108   5.791
 8817TIP3    H226397   6.151   6.144   5.659
 8818TIP3   OH226398   1.083   7.299   4.538
 8818TIP3    H126399   1.144   7.335   4.603
 8818TIP3    H226400   1.052   7.376   4.490
 8819TIP3   OH226401   1.566   0.416   1.088
 8819TIP3    H126402   1.545   0.336   1.137
 8819TIP3    H226403   1.494   0.475   1.108
 8820TIP3   OH226404   7.138   2.616   5.036
 8820TIP3    H126405   7.118   2.699   5.080
 8820TIP3    H226406   7.231   2.621   5.015
 8821TIP3   OH226407   0.215   1.634   4.995
 8821TIP3    H126408   0.294   1.680   5.024
 8821TIP3    H226409   0.163   1.701   4.950
 8822TIP3   OH226410   1.769   0.889   5.618
 8822TIP3    H126411   1.847   0.835   5.599
 8822TIP3    H226412   1.804   0.972   5.648
 8823TIP3   OH226413   4.844   3.111   2.283
 8823TIP3    H126414   4.861   3.133   2.192
 8823TIP3    H226415   4.931   3.108   2.324
 8824TIP3   OH226416   5.792   4.870   6.332
 8824TIP3    H126417   5.768   4.841   6.420
 8824TIP3    H226418   5.844   4.949   6.345
 8825TIP3   OH226419   1.373   6.303   6.580
 8825TIP3    H126420   1.319   6.229   6.606
 8825TIP3    H226421   1.359   6.311   6.485
 8826TIP3   OH226422   6.060   1.123   4.026
 8826TIP3    H126423   6.154   1.134   4.010
 8826TIP3    H226424   6.051   1.034   4.060
 8827TIP3   OH226425   6.940   5.534   6.715
 8827TIP3    H126426   6.944   5.477   6.793
 8827TIP3    H226427   7.022   5.583   6.717
 8828TIP3   OH226428   1.997   0.966   1.810
 8828TIP3    H126429   1.957   0.974   1.896
 8828TIP3    H226430   1.985   1.052   1.770
 8829TIP3   OH226431   3.974   4.067   3.063
 8829TIP3    H126432   4.049   4.117   3.029
 8829TIP3    H226433   4.007   4.027   3.144
 8830TIP3   OH226434   0.312   0.927   1.911
 8830TIP3    H126435   0.267   0.996   1.959
 8830TIP3    H226436   0.276   0.932   1.823
 8831TIP3   OH226437   7.125   2.583   6.429
 8831TIP3    H126438   7.097   2.511   6.372
 8831TIP3    H226439   7.147   2.654   6.368
 8832TIP3   OH226440   2.353   6.618   1.608
 8832TIP3    H126441   2.404   6.579   1.678
 8832TIP3    H226442   2.416   6.673   1.560
 8833TIP3   OH226443   4.938   4.047   1.566
 8833TIP3    H126444   4.999   3.974   1.565
 8833TIP3    H226445   4.914   4.059   1.474
 8834TIP3   OH226446   4.015   7.770   3.461
 8834TIP3    H126447   4.020   7.680   3.428
 8834TIP3    H226448   3.922   7.787   3.471
 8835TIP3   OH226449   0.703   2.229   2.557
 8835TIP3    H126450   0.738   2.151   2.516
 8835TIP3    H226451   0.686   2.203   2.648
 8836TIP3   OH226452   7.551   0.583   2.646
 8836TIP3    H126453   7.613   0.656   2.649
 8836TIP3    H226454   7.550   0.557   2.555
 8837TIP3   OH226455   7.130   0.480   3.931
 8837TIP3    H126456   7.041   0.446   3.939
 8837TIP3    H226457   7.147   0.524   4.014
 8838TIP3   OH226458   4.722   6.880   4.591
 8838TIP3    H126459   4.764   6.947   4.537
 8838TIP3    H226460   4.793   6.843   4.643
 8839TIP3   OH226461   5.064   5.977   2.382
 8839TIP3    H126462   5.134   5.988   2.446
 8839TIP3    H226463   5.105   5.996   2.298
 8840TIP3   OH226464   6.651   0.799   5.975
 8840TIP3    H126465   6.705   0.873   5.947
 8840TIP3    H226466   6.682   0.725   5.923
 8841TIP3   OH226467   7.643   0.817   5.938
 8841TIP3    H126468   7.673   0.863   5.859
 8841TIP3    H226469   7.557   0.783   5.913
 8842TIP3   OH226470   3.245   7.821   3.547
 8842TIP3    H126471   3.328   7.814   3.593
 8842TIP3    H226472   3.189   7.754   3.587
 8843TIP3   OH226473   1.843   1.169   4.275
 8843TIP3    H126474   1.909   1.120   4.323
 8843TIP3    H226475   1.890   1.204   4.198
 8844TIP3   OH226476   8.038   7.705   3.144
 8844TIP3    H126477   8.055   7.611   3.153
 8844TIP3    H226478   7.953   7.718   3.187
 8845TIP3   OH226479   7.128   2.865   5.107
 8845TIP3    H126480   7.210   2.872   5.058
 8845TIP3    H226481   7.078   2.943   5.083
 8846TIP3   OH226482   5.535   5.055   0.232
 8846TIP3    H126483   5.584   5.137   0.239
 8846TIP3    H226484   5.461   5.077   0.176
 8847TIP3   OH226485   7.230   6.144   5.001
 8847TIP3    H126486   7.278   6.095   5.068
 8847TIP3    H226487   7.244   6.236   5.024
 8848TIP3   OH226488   2.099   5.842   1.622
 8848TIP3    H126489   2.144   5.801   1.696
 8848TIP3    H226490   2.167   5.850   1.555
 8849TIP3   OH226491   4.620   3.757   2.662
 8849TIP3    H126492   4.698   3.810   2.648
 8849TIP3    H226493   4.550   3.820   2.676
 8850TIP3   OH226494   2.345   0.640   1.853
 8850TIP3    H126495   2.328   0.653   1.760
 8850TIP3    H226496   2.300   0.712   1.897
 8851TIP3   OH226497   6.446   6.629   3.232
 8851TIP3    H126498   6.541   6.618   3.219
 8851TIP3    H226499   6.429   6.595   3.319
 8852TIP3   OH226500   3.235   1.159   3.708
 8852TIP3    H126501   3.318   1.207   3.705
 8852TIP3    H226502   3.227   1.131   3.799
 8853TIP3   OH226503   7.378   4.867   3.331
 8853TIP3    H126504   7.354   4.896   3.243
 8853TIP3    H226505   7.392   4.948   3.380
 8854TIP3   OH226506   2.152   6.184   4.387
 8854TIP3    H126507   2.237   6.149   4.413
 8854TIP3    H226508   2.091   6.155   4.454
 8855TIP3   OH226509   1.272   4.054   4.950
 8855TIP3    H126510   1.356   4.090   4.981
 8855TIP3    H226511   1.214   4.062   5.026
 8856TIP3   OH226512   6.757   2.711   3.534
 8856TIP3    H126513   6.739   2.624   3.499
 8856TIP3    H226514   6.844   2.732   3.501
 8857TIP3   OH226515   1.490   4.693   4.487
 8857TIP3    H126516   1.508   4.672   4.578
 8857TIP3    H226517   1.396   4.710   4.484
 8858TIP3   OH226518   1.603   0.988   4.279
 8858TIP3    H126519   1.579   0.897   4.262
 8858TIP3    H226520   1.684   1.001   4.229
 8859TIP3   OH226521   4.567   5.693   6.174
 8859TIP3    H126522   4.610   5.656   6.251
 8859TIP3    H226523   4.639   5.718   6.116
 8860TIP3   OH226524   1.146   3.654   4.141
 8860TIP3    H126525   1.067   3.708   4.133
 8860TIP3    H226526   1.190   3.688   4.220
 8861TIP3   OH226527   0.777   4.199   1.055
 8861TIP3    H126528   0.702   4.256   1.064
 8861TIP3    H226529   0.850   4.257   1.031
 8862TIP3   OH226530   5.773   3.587   0.962
 8862TIP3    H126531   5.831   3.656   0.929
 8862TIP3    H226532   5.793   3.511   0.908
 8863TIP3   OH226533   8.250   6.840   1.752
 8863TIP3    H126534   8.164   6.815   1.719
 8863TIP3    H226535   8.286   6.897   1.684
 8864TIP3   OH226536   3.863   7.562   2.904
 8864TIP3    H126537   3.844   7.632   2.841
 8864TIP3    H226538   3.884   7.486   2.849
 8865TIP3   OH226539   0.955   6.801   0.072
 8865TIP3    H126540   0.949   6.896   0.059
 8865TIP3    H226541   0.979   6.791   0.164
 8866TIP3   OH226542   3.816   3.050   6.290
 8866TIP3    H126543   3.831   2.970   6.340
 8866TIP3    H226544   3.894   3.058   6.235
 8867TIP3   OH226545   2.277   5.340   2.351
 8867TIP3    H126546   2.246   5.268   2.296
 8867TIP3    H226547   2.353   5.304   2.396
 8868TIP3   OH226548   2.421   7.334   1.726
 8868TIP3    H126549   2.416   7.247   1.687
 8868TIP3    H226550   2.463   7.388   1.659
 8869TIP3   OH226551   1.379   3.680   3.153
 8869TIP3    H126552   1.475   3.684   3.145
 8869TIP3    H226553   1.358   3.745   3.220
 8870TIP3   OH226554   3.184   6.926   0.471
 8870TIP3    H126555   3.202   7.007   0.519
 8870TIP3    H226556   3.131   6.953   0.397
 8871TIP3   OH226557   6.585   5.896   5.380
 8871TIP3    H126558   6.490   5.908   5.371
 8871TIP3    H226559   6.613   5.863   5.295
 8872TIP3   OH226560   0.589   1.418   3.070
 8872TIP3    H126561   0.530   1.385   3.138
 8872TIP3    H226562   0.626   1.498   3.108
 8873TIP3   OH226563   2.641   1.678   1.884
 8873TIP3    H126564   2.599   1.609   1.935
 8873TIP3    H226565   2.732   1.648   1.873
 8874TIP3   OH226566   6.250   3.779   1.560
 8874TIP3    H126567   6.197   3.851   1.593
 8874TIP3    H226568   6.300   3.749   1.636
 8875TIP3   OH226569   4.836   4.975   4.077
 8875TIP3    H126570   4.780   4.907   4.041
 8875TIP3    H226571   4.834   4.960   4.172
 8876TIP3   OH226572   0.277   0.890   0.838
 8876TIP3    H126573   0.193   0.902   0.884
 8876TIP3    H226574   0.303   0.979   0.813
 8877TIP3   OH226575   4.919   1.027   4.099
 8877TIP3    H126576   4.952   1.110   4.065
 8877TIP3    H226577   4.913   1.040   4.194
 8878TIP3   OH226578   1.195   7.402   5.584
 8878TIP3    H126579   1.107   7.433   5.607
 8878TIP3    H226580   1.183   7.308   5.567
 8879TIP3   OH226581   4.126   1.162   3.036
 8879TIP3    H126582   4.090   1.247   3.014
 8879TIP3    H226583   4.168   1.132   2.956
 8880TIP3   OH226584   7.067   6.358   3.772
 8880TIP3    H126585   6.980   6.391   3.796
 8880TIP3    H226586   7.095   6.308   3.848
 8881TIP3   OH226587   6.331   0.294   1.451
 8881TIP3    H126588   6.260   0.326   1.507
 8881TIP3    H226589   6.393   0.253   1.512
 8882TIP3   OH226590   0.831   1.461   2.665
 8882TIP3    H126591   0.780   1.479   2.586
 8882TIP3    H226592   0.820   1.540   2.719
 8883TIP3   OH226593   5.341   4.565   1.117
 8883TIP3    H126594   5.298   4.561   1.202
 8883TIP3    H226595   5.310   4.488   1.070
 8884TIP3   OH226596   6.236   2.256   1.915
 8884TIP3    H126597   6.190   2.327   1.961
 8884TIP3    H226598   6.290   2.215   1.983
 8885TIP3   OH226599   0.597   7.528   1.048
 8885TIP3    H126600   0.524   7.487   1.094
 8885TIP3    H226601   0.664   7.540   1.115
 8886TIP3   OH226602   2.910   4.714   2.160
 8886TIP3    H126603   2.901   4.755   2.074
 8886TIP3    H226604   2.918   4.788   2.220
 8887TIP3   OH226605   4.109   6.907   5.864
 8887TIP3    H126606   4.184   6.847   5.866
 8887TIP3    H226607   4.075   6.899   5.775
 8888TIP3   OH226608   6.124   2.979   0.164
 8888TIP3    H126609   6.193   3.045   0.154
 8888TIP3    H226610   6.169   2.895   0.156
 8889TIP3   OH226611   7.313   2.309   5.709
 8889TIP3    H126612   7.251   2.349   5.648
 8889TIP3    H226613   7.262   2.295   5.789
 8890TIP3   OH226614   5.738   7.025   3.599
 8890TIP3    H126615   5.778   7.093   3.653
 8890TIP3    H226616   5.706   6.960   3.662
 8891TIP3   OH226617   2.992   0.202   5.439
 8891TIP3    H126618   2.934   0.278   5.449
 8891TIP3    H226619   3.033   0.215   5.354
 8892TIP3   OH226620   7.875   4.640   6.330
 8892TIP3    H126621   7.819   4.717   6.321
 8892TIP3    H226622   7.957   4.666   6.287
 8893TIP3   OH226623   5.176   4.606   5.154
 8893TIP3    H126624   5.255   4.588   5.102
 8893TIP3    H226625   5.128   4.671   5.102
 8894TIP3   OH226626   4.065   3.825   3.707
 8894TIP3    H126627   4.110   3.843   3.789
 8894TIP3    H226628   3.993   3.888   3.705
 8895TIP3   OH226629   2.891   3.615   6.265
 8895TIP3    H126630   2.892   3.688   6.326
 8895TIP3    H226631   2.975   3.619   6.220
 8896TIP3   OH226632   0.034   3.481   5.964
 8896TIP3    H126633   0.049   3.567   6.003
 8896TIP3    H226634   0.120   3.439   5.965
 8897TIP3   OH226635   3.004   2.388   6.347
 8897TIP3    H126636   3.094   2.366   6.324
 8897TIP3    H226637   2.982   2.330   6.420
 8898TIP3   OH226638   3.139   5.375   1.285
 8898TIP3    H126639   3.128   5.299   1.342
 8898TIP3    H226640   3.191   5.436   1.337
 8899TIP3   OH226641   7.361   0.958   6.333
 8899TIP3    H126642   7.399   0.871   6.342
 8899TIP3    H226643   7.341   0.966   6.239
 8900TIP3   OH226644   5.323   1.528   3.282
 8900TIP3    H126645   5.243   1.477   3.284
 8900TIP3    H226646   5.301   1.609   3.328
 8901TIP3   OH226647   4.965   0.250   5.134
 8901TIP3    H126648   4.968   0.181   5.201
 8901TIP3    H226649   4.953   0.204   5.052
 8902TIP3   OH226650   0.874   7.703   4.739
 8902TIP3    H126651   0.923   7.784   4.757
 8902TIP3    H226652   0.931   7.633   4.770
 8903TIP3   OH226653   0.534   4.643   3.654
 8903TIP3    H126654   0.594   4.626   3.726
 8903TIP3    H226655   0.500   4.731   3.671
 8904TIP3   OH226656   2.543   0.220   2.285
 8904TIP3    H126657   2.616   0.252   2.232
 8904TIP3    H226658   2.581   0.146   2.335
 8905TIP3   OH226659   3.659   5.574   2.451
 8905TIP3    H126660   3.584   5.608   2.401
 8905TIP3    H226661   3.735   5.611   2.406
 8906TIP3   OH226662   2.608   6.795   6.361
 8906TIP3    H126663   2.651   6.875   6.390
 8906TIP3    H226664   2.517   6.821   6.343
 8907TIP3   OH226665   4.868   1.682   6.548
 8907TIP3    H126666   4.944   1.725   6.587
 8907TIP3    H226667   4.860   1.720   6.460
 8908TIP3   OH226668   7.043   6.889   0.990
 8908TIP3    H126669   7.083   6.975   1.003
 8908TIP3    H226670   7.087   6.855   0.912
 8909TIP3   OH226671   2.057   4.037   1.670
 8909TIP3    H126672   2.080   4.050   1.578
 8909TIP3    H226673   1.985   4.098   1.686
 8910TIP3   OH226674   0.152   2.933   6.771
 8910TIP3    H126675   0.130   3.018   6.735
 8910TIP3    H226676   0.098   2.871   6.723
 8911TIP3   OH226677   2.495   3.351   3.660
 8911TIP3    H126678   2.516   3.362   3.568
 8911TIP3    H226679   2.559   3.406   3.706
 8912TIP3   OH226680   2.819   0.538   5.573
 8912TIP3    H126681   2.906   0.551   5.535
 8912TIP3    H226682   2.770   0.616   5.547
 8913TIP3   OH226683   3.794   1.405   3.418
 8913TIP3    H126684   3.820   1.371   3.332
 8913TIP3    H226685   3.876   1.418   3.464
 8914TIP3   OH226686   5.573   2.147   6.362
 8914TIP3    H126687   5.500   2.208   6.372
 8914TIP3    H226688   5.631   2.190   6.298
 8915TIP3   OH226689   8.097   2.125   5.479
 8915TIP3    H126690   8.184   2.160   5.494
 8915TIP3    H226691   8.042   2.166   5.546
 8916TIP3   OH226692   3.810   2.526   4.472
 8916TIP3    H126693   3.725   2.484   4.459
 8916TIP3    H226694   3.792   2.600   4.530
 8917TIP3   OH226695   1.695   2.727   1.386
 8917TIP3    H126696   1.674   2.658   1.448
 8917TIP3    H226697   1.622   2.727   1.324
 8918TIP3   OH226698   5.392   1.648   0.870
 8918TIP3    H126699   5.401   1.553   0.878
 8918TIP3    H226700   5.478   1.682   0.893
 8919TIP3   OH226701   4.700   3.524   6.569
 8919TIP3    H126702   4.741   3.454   6.518
 8919TIP3    H226703   4.633   3.480   6.622
 8920TIP3   OH226704   0.129   5.658   5.843
 8920TIP3    H126705   0.099   5.658   5.934
 8920TIP3    H226706   0.061   5.609   5.796
 8921TIP3   OH226707   6.069   4.771   5.145
 8921TIP3    H126708   6.153   4.780   5.099
 8921TIP3    H226709   6.010   4.831   5.099
 8922TIP3   OH226710   5.120   1.457   2.976
 8922TIP3    H126711   5.118   1.443   3.071
 8922TIP3    H226712   5.052   1.522   2.960
 8923TIP3   OH226713   2.774   0.576   6.567
 8923TIP3    H126714   2.807   0.605   6.652
 8923TIP3    H226715   2.853   0.564   6.514
 8924TIP3   OH226716   5.248   5.333   1.450
 8924TIP3    H126717   5.187   5.264   1.475
 8924TIP3    H226718   5.324   5.320   1.506
 8925TIP3   OH226719   5.776   2.556   3.997
 8925TIP3    H126720   5.727   2.555   4.079
 8925TIP3    H226721   5.796   2.649   3.983
 8926TIP3   OH226722   0.260   3.697   4.978
 8926TIP3    H126723   0.245   3.611   4.939
 8926TIP3    H226724   0.291   3.679   5.067
 8927TIP3   OH226725   6.490   2.402   6.254
 8927TIP3    H126726   6.518   2.494   6.254
 8927TIP3    H226727   6.537   2.363   6.328
 8928TIP3   OH226728   3.082   3.562   2.485
 8928TIP3    H126729   3.145   3.499   2.453
 8928TIP3    H226730   2.997   3.529   2.455
 8929TIP3   OH226731   3.311   5.138   1.299
 8929TIP3    H126732   3.332   5.206   1.236
 8929TIP3    H226733   3.358   5.163   1.379
 8930TIP3   OH226734   8.239   6.822   6.060
 8930TIP3    H126735   8.297   6.894   6.035
 8930TIP3    H226736   8.160   6.835   6.008
 8931TIP3   OH226737   3.362   6.117   1.135
 8931TIP3    H126738   3.435   6.073   1.176
 8931TIP3    H226739   3.315   6.048   1.088
 8932TIP3   OH226740   4.367   1.236   5.339
 8932TIP3    H126741   4.325   1.160   5.378
 8932TIP3    H226742   4.300   1.304   5.342
 8933TIP3   OH226743   4.224   5.281   2.515
 8933TIP3    H126744   4.157   5.252   2.576
 8933TIP3    H226745   4.259   5.361   2.554
 8934TIP3   OH226746   6.225   5.835   1.543
 8934TIP3    H126747   6.182   5.776   1.605
 8934TIP3    H226748   6.246   5.781   1.468
 8935TIP3   OH226749   4.761   3.171   4.650
 8935TIP3    H126750   4.765   3.260   4.615
 8935TIP3    H226751   4.668   3.148   4.646
 8936TIP3   OH226752   6.046   1.509   0.987
 8936TIP3    H126753   6.098   1.460   0.923
 8936TIP3    H226754   6.025   1.445   1.055
 8937TIP3   OH226755   4.499   6.300   3.759
 8937TIP3    H126756   4.588   6.279   3.732
 8937TIP3    H226757   4.493   6.395   3.750
 8938TIP3   OH226758   7.883   7.230   5.459
 8938TIP3    H126759   7.801   7.262   5.497
 8938TIP3    H226760   7.949   7.292   5.488
 8939TIP3   OH226761   3.144   4.180   5.486
 8939TIP3    H126762   3.235   4.150   5.485
 8939TIP3    H226763   3.093   4.100   5.498
 8940TIP3   OH226764   3.089   5.711   5.078
 8940TIP3    H126765   3.165   5.750   5.121
 8940TIP3    H226766   3.111   5.711   4.985
 8941TIP3   OH226767   3.553   0.477   1.483
 8941TIP3    H126768   3.563   0.440   1.570
 8941TIP3    H226769   3.476   0.433   1.447
 8942TIP3   OH226770   6.565   2.299   1.370
 8942TIP3    H126771   6.500   2.252   1.424
 8942TIP3    H226772   6.627   2.334   1.434
 8943TIP3   OH226773   5.793   5.710   0.960
 8943TIP3    H126774   5.876   5.690   0.918
 8943TIP3    H226775   5.808   5.792   1.006
 8944TIP3   OH226776   5.931   1.733   3.397
 8944TIP3    H126777   6.005   1.774   3.351
 8944TIP3    H226778   5.969   1.698   3.477
 8945TIP3   OH226779   1.803   3.777   4.127
 8945TIP3    H126780   1.855   3.793   4.048
 8945TIP3    H226781   1.780   3.684   4.122
 8946TIP3   OH226782   3.780   3.594   6.513
 8946TIP3    H126783   3.770   3.616   6.420
 8946TIP3    H226784   3.692   3.572   6.542
 8947TIP3   OH226785   2.418   4.026   4.586
 8947TIP3    H126786   2.438   3.945   4.539
 8947TIP3    H226787   2.342   4.005   4.640
 8948TIP3   OH226788   7.014   5.833   2.607
 8948TIP3    H126789   7.051   5.834   2.695
 8948TIP3    H226790   6.947   5.764   2.611
 8949TIP3   OH226791   2.400   5.158   3.122
 8949TIP3    H126792   2.347   5.228   3.159
 8949TIP3    H226793   2.387   5.165   3.027
 8950TIP3   OH226794   6.478   5.437   6.027
 8950TIP3    H126795   6.526   5.359   5.998
 8950TIP3    H226796   6.547   5.502   6.046
 8951TIP3   OH226797   0.017   5.559   1.474
 8951TIP3    H126798   0.039   5.536   1.383
 8951TIP3    H226799  -0.049   5.628   1.465
 8952TIP3   OH226800   3.299   2.789   0.459
 8952TIP3    H126801   3.369   2.728   0.484
 8952TIP3    H226802   3.306   2.796   0.364
 8953TIP3   OH226803   3.048   1.670   2.210
 8953TIP3    H126804   2.958   1.700   2.225
 8953TIP3    H226805   3.045   1.577   2.229
 8954TIP3   OH226806   7.750   3.145   2.671
 8954TIP3    H126807   7.767   3.235   2.645
 8954TIP3    H226808   7.747   3.095   2.589
 8955TIP3   OH226809   1.390   6.151   3.332
 8955TIP3    H126810   1.315   6.130   3.276
 8955TIP3    H226811   1.351   6.199   3.406
 8956TIP3   OH226812   6.983   0.810   3.423
 8956TIP3    H126813   7.026   0.859   3.353
 8956TIP3    H226814   7.028   0.838   3.503
 8957TIP3   OH226815   3.794   6.481   0.185
 8957TIP3    H126816   3.746   6.399   0.191
 8957TIP3    H226817   3.856   6.468   0.114
 8958TIP3   OH226818   6.177   1.613   2.603
 8958TIP3    H126819   6.093   1.568   2.593
 8958TIP3    H226820   6.199   1.602   2.696
 8959TIP3   OH226821   0.649   0.141   1.521
 8959TIP3    H126822   0.649   0.237   1.532
 8959TIP3    H226823   0.589   0.126   1.447
 8960TIP3   OH226824   4.928   2.517   4.646
 8960TIP3    H126825   5.013   2.508   4.689
 8960TIP3    H226826   4.893   2.428   4.642
 8961TIP3   OH226827   1.423   2.633   5.388
 8961TIP3    H126828   1.414   2.630   5.293
 8961TIP3    H226829   1.457   2.546   5.411
 8962TIP3   OH226830   1.363   1.635   2.548
 8962TIP3    H126831   1.419   1.653   2.473
 8962TIP3    H226832   1.421   1.592   2.611
 8963TIP3   OH226833   6.645   6.628   4.849
 8963TIP3    H126834   6.654   6.693   4.918
 8963TIP3    H226835   6.574   6.571   4.878
 8964TIP3   OH226836   5.753   3.398   0.183
 8964TIP3    H126837   5.781   3.481   0.146
 8964TIP3    H226838   5.800   3.332   0.132
 8965TIP3   OH226839   4.944   6.426   3.484
 8965TIP3    H126840   4.984   6.496   3.432
 8965TIP3    H226841   4.993   6.347   3.459
 8966TIP3   OH226842   1.893   5.210   2.517
 8966TIP3    H126843   1.806   5.173   2.528
 8966TIP3    H226844   1.896   5.238   2.426
 8967TIP3   OH226845   5.647   1.766   5.597
 8967TIP3    H126846   5.686   1.805   5.519
 8967TIP3    H226847   5.673   1.825   5.668
 8968TIP3   OH226848   1.391   3.439   5.952
 8968TIP3    H126849   1.296   3.442   5.942
 8968TIP3    H226850   1.409   3.348   5.976
 8969TIP3   OH226851   3.723   4.431   5.121
 8969TIP3    H126852   3.684   4.354   5.081
 8969TIP3    H226853   3.665   4.451   5.195
 8970TIP3   OH226854   2.829   3.093   3.430
 8970TIP3    H126855   2.919   3.109   3.405
 8970TIP3    H226856   2.813   3.153   3.503
 8971TIP3   OH226857   6.383   4.440   4.859
 8971TIP3    H126858   6.351   4.492   4.932
 8971TIP3    H226859   6.456   4.389   4.895
 8972TIP3   OH226860   2.055   6.792   4.155
 8972TIP3    H126861   2.137   6.757   4.122
 8972TIP3    H226862   2.012   6.716   4.197
 8973TIP3   OH226863   7.306   2.248   5.401
 8973TIP3    H126864   7.237   2.184   5.417
 8973TIP3    H226865   7.320   2.245   5.307
 8974TIP3   OH226866   5.105   6.600   0.327
 8974TIP3    H126867   5.150   6.683   0.345
 8974TIP3    H226868   5.060   6.615   0.244
 8975TIP3   OH226869   6.676   5.687   4.095
 8975TIP3    H126870   6.657   5.597   4.120
 8975TIP3    H226871   6.611   5.708   4.028
 8976TIP3   OH226872   4.524   5.930   4.972
 8976TIP3    H126873   4.580   5.931   5.050
 8976TIP3    H226874   4.441   5.893   5.002
 8977TIP3   OH226875   2.123   0.378   2.534
 8977TIP3    H126876   2.198   0.356   2.590
 8977TIP3    H226877   2.149   0.350   2.447
 8978TIP3   OH226878   5.534   3.795   3.834
 8978TIP3    H126879   5.459   3.816   3.890
 8978TIP3    H226880   5.590   3.872   3.840
 8979TIP3   OH226881   8.062   0.730   0.026
 8979TIP3    H126882   7.994   0.693   0.081
 8979TIP3    H226883   8.019   0.802  -0.021
 8980TIP3   OH226884   3.578   4.844   6.786
 8980TIP3    H126885   3.494   4.817   6.825
 8980TIP3    H226886   3.553   4.896   6.710
 8981TIP3   OH226887   7.642   2.527   4.458
 8981TIP3    H126888   7.577   2.585   4.497
 8981TIP3    H226889   7.638   2.447   4.511
 8982TIP3   OH226890   7.096   0.461   5.603
 8982TIP3    H126891   7.011   0.503   5.594
 8982TIP3    H226892   7.156   0.532   5.626
 8983TIP3   OH226893   0.800   5.747   1.381
 8983TIP3    H126894   0.838   5.720   1.465
 8983TIP3    H226895   0.827   5.679   1.320
 8984TIP3   OH226896   2.599   2.377   0.609
 8984TIP3    H126897   2.548   2.458   0.605
 8984TIP3    H226898   2.541   2.310   0.575
 8985TIP3   OH226899   4.255   6.969   4.182
 8985TIP3    H126900   4.341   7.004   4.207
 8985TIP3    H226901   4.244   6.995   4.091
 8986TIP3   OH226902   2.779   6.061   6.275
 8986TIP3    H126903   2.783   6.146   6.230
 8986TIP3    H226904   2.854   6.062   6.334
 8987TIP3   OH226905   6.069   3.563   1.789
 8987TIP3    H126906   6.100   3.479   1.824
 8987TIP3    H226907   6.146   3.601   1.747
 8988TIP3   OH226908   6.952   4.479   0.774
 8988TIP3    H126909   7.046   4.457   0.774
 8988TIP3    H226910   6.949   4.570   0.744
 8989TIP3   OH226911   6.650   1.248   3.985
 8989TIP3    H126912   6.640   1.331   3.937
 8989TIP3    H226913   6.687   1.274   4.069
 8990TIP3   OH226914   6.595   0.990   0.421
 8990TIP3    H126915   6.680   0.966   0.384
 8990TIP3    H226916   6.589   1.085   0.409
 8991TIP3   OH226917   8.244   5.840   6.291
 8991TIP3    H126918   8.151   5.862   6.299
 8991TIP3    H226919   8.244   5.754   6.248
 8992TIP3   OH226920   0.045   2.935   0.462
 8992TIP3    H126921   0.000   2.976   0.536
 8992TIP3    H226922   0.138   2.948   0.481
 8993TIP3   OH226923   6.334   2.815   3.457
 8993TIP3    H126924   6.415   2.793   3.410
 8993TIP3    H226925   6.293   2.883   3.404
 8994TIP3   OH226926   0.714   4.937   4.338
 8994TIP3    H126927   0.803   4.941   4.373
 8994TIP3    H226928   0.659   4.924   4.416
 8995TIP3   OH226929   1.664   6.337   1.508
 8995TIP3    H126930   1.625   6.424   1.517
 8995TIP3    H226931   1.597   6.278   1.542
 8996TIP3   OH226932   6.211   2.978   2.396
 8996TIP3    H126933   6.189   2.896   2.440
 8996TIP3    H226934   6.131   3.029   2.400
 8997TIP3   OH226935   6.463   3.542   3.391
 8997TIP3    H126936   6.415   3.624   3.395
 8997TIP3    H226937   6.396   3.474   3.384
 8998TIP3   OH226938   2.874   4.887   3.953
 8998TIP3    H126939   2.793   4.936   3.946
 8998TIP3    H226940   2.941   4.946   3.919
 8999TIP3   OH226941   1.361   3.242   3.997
 8999TIP3    H126942   1.269   3.249   3.970
 8999TIP3    H226943   1.404   3.200   3.922
 9000TIP3   OH226944   3.817   1.795   1.425
 9000TIP3    H126945   3.807   1.812   1.518
 9000TIP3    H226946   3.731   1.812   1.387
 9001TIP3   OH226947   0.599   3.979   4.699
 9001TIP3    H126948   0.664   3.998   4.766
 9001TIP3    H226949   0.547   3.907   4.735
 9002TIP3   OH226950   4.678   5.241   3.783
 9002TIP3    H126951   4.754   5.231   3.840
 9002TIP3    H226952   4.694   5.182   3.709
 9003TIP3   OH226953   1.759   7.549   3.402
 9003TIP3    H126954   1.746   7.473   3.345
 9003TIP3    H226955   1.781   7.512   3.487
 9004TIP3   OH226956   4.339   3.863   2.813
 9004TIP3    H126957   4.287   3.869   2.892
 9004TIP3    H226958   4.409   3.927   2.825
 9005TIP3   OH226959   6.869   6.009   1.677
 9005TIP3    H126960   6.859   5.974   1.589
 9005TIP3    H226961   6.780   6.011   1.713
 9006TIP3   OH226962   5.293   3.769   1.242
 9006TIP3    H126963   5.290   3.791   1.149
 9006TIP3    H226964   5.369   3.711   1.251
 9007TIP3   OH226965   7.570   6.199   2.083
 9007TIP3    H126966   7.602   6.288   2.099
 9007TIP3    H226967   7.484   6.197   2.124
 9008TIP3   OH226968   2.238   5.126   5.916
 9008TIP3    H126969   2.332   5.137   5.926
 9008TIP3    H226970   2.225   5.116   5.821
 9009TIP3   OH226971   6.409   5.338   0.651
 9009TIP3    H126972   6.456   5.421   0.647
 9009TIP3    H226973   6.477   5.273   0.669
 9010TIP3   OH226974   5.865   1.954   0.580
 9010TIP3    H126975   5.833   1.974   0.668
 9010TIP3    H226976   5.785   1.940   0.528
 9011TIP3   OH226977   2.599   1.096   5.014
 9011TIP3    H126978   2.546   1.171   5.041
 9011TIP3    H226979   2.557   1.064   4.935
 9012TIP3   OH226980   4.867   3.882   2.698
 9012TIP3    H126981   4.900   3.859   2.786
 9012TIP3    H226982   4.934   3.940   2.662
 9013TIP3   OH226983   4.347   6.228   3.486
 9013TIP3    H126984   4.413   6.175   3.442
 9013TIP3    H226985   4.393   6.269   3.558
 9014TIP3   OH226986   0.457   1.749   1.878
 9014TIP3    H126987   0.487   1.696   1.953
 9014TIP3    H226988   0.371   1.714   1.857
 9015TIP3   OH226989   1.936   2.595   2.137
 9015TIP3    H126990   1.967   2.647   2.063
 9015TIP3    H226991   1.891   2.520   2.096
 9016TIP3   OH226992   1.081   7.178   0.621
 9016TIP3    H126993   1.040   7.236   0.686
 9016TIP3    H226994   1.129   7.114   0.673
 9017TIP3   OH226995   6.406   1.845   4.573
 9017TIP3    H126996   6.362   1.808   4.496
 9017TIP3    H226997   6.421   1.937   4.549
 9018TIP3   OH226998   7.941   2.926   2.886
 9018TIP3    H126999   7.977   2.858   2.943
 9018TIP3    H227000   7.934   3.004   2.941
 9019TIP3   OH227001   5.036   1.173   3.721
 9019TIP3    H127002   5.066   1.082   3.722
 9019TIP3    H227003   5.117   1.225   3.720
 9020TIP3   OH227004   5.139   0.657   2.941
 9020TIP3    H127005   5.148   0.570   2.979
 9020TIP3    H227006   5.079   0.703   3.000
 9021TIP3   OH227007   4.292   4.917   2.087
 9021TIP3    H127008   4.271   5.008   2.067
 9021TIP3    H227009   4.330   4.882   2.006
 9022TIP3   OH227010   5.311   3.510   0.208
 9022TIP3    H127011   5.248   3.512   0.135
 9022TIP3    H227012   5.256   3.502   0.286
 9023TIP3   OH227013   8.020   5.337   6.108
 9023TIP3    H127014   7.968   5.414   6.082
 9023TIP3    H227015   8.110   5.362   6.089
 9024TIP3   OH227016   3.394   1.150   3.050
 9024TIP3    H127017   3.400   1.135   2.956
 9024TIP3    H227018   3.309   1.192   3.062
 9025TIP3   OH227019   3.329   6.318   3.809
 9025TIP3    H127020   3.304   6.406   3.780
 9025TIP3    H227021   3.328   6.266   3.729
 9026TIP3   OH227022   3.580   5.748   0.182
 9026TIP3    H127023   3.665   5.788   0.165
 9026TIP3    H227024   3.525   5.775   0.108
 9027TIP3   OH227025   5.085   4.777   4.949
 9027TIP3    H127026   5.070   4.735   4.865
 9027TIP3    H227027   5.154   4.841   4.932
 9028TIP3   OH227028   1.683   2.735   1.972
 9028TIP3    H127029   1.682   2.774   2.060
 9028TIP3    H227030   1.676   2.810   1.913
 9029TIP3   OH227031   5.972   2.584   6.028
 9029TIP3    H127032   5.919   2.624   5.960
 9029TIP3    H227033   5.911   2.528   6.076
 9030TIP3   OH227034   2.619   2.639   2.791
 9030TIP3    H127035   2.631   2.634   2.697
 9030TIP3    H227036   2.660   2.559   2.825
 9031TIP3   OH227037   6.223   6.464   2.028
 9031TIP3    H127038   6.226   6.559   2.020
 9031TIP3    H227039   6.307   6.433   1.996
 9032TIP3   OH227040   4.841   1.402   1.182
 9032TIP3    H127041   4.841   1.449   1.099
 9032TIP3    H227042   4.932   1.376   1.196
 9033TIP3   OH227043   1.560   6.370   3.911
 9033TIP3    H127044   1.588   6.430   3.980
 9033TIP3    H227045   1.485   6.324   3.949
 9034TIP3   OH227046   0.874   0.541   1.127
 9034TIP3    H127047   0.854   0.633   1.145
 9034TIP3    H227048   0.789   0.502   1.104
 9035TIP3   OH227049   0.444   4.703   4.069
 9035TIP3    H127050   0.439   4.715   4.164
 9035TIP3    H227051   0.432   4.791   4.034
 9036TIP3   OH227052   0.189   3.705   6.080
 9036TIP3    H127053   0.194   3.616   6.115
 9036TIP3    H227054   0.237   3.759   6.142
 9037TIP3   OH227055   1.773   3.098   6.169
 9037TIP3    H127056   1.686   3.063   6.151
 9037TIP3    H227057   1.824   3.079   6.089
 9038TIP3   OH227058   2.074   0.285   2.203
 9038TIP3    H127059   2.057   0.376   2.180
 9038TIP3    H227060   2.150   0.287   2.261
 9039TIP3   OH227061   0.993   5.690   4.043
 9039TIP3    H127062   1.082   5.657   4.053
 9039TIP3    H227063   0.963   5.651   3.960
 9040TIP3   OH227064   8.229   2.831   0.765
 9040TIP3    H127065   8.183   2.915   0.760
 9040TIP3    H227066   8.278   2.836   0.847
 9041TIP3   OH227067   2.838   6.178   0.576
 9041TIP3    H127068   2.866   6.269   0.568
 9041TIP3    H227069   2.875   6.135   0.498
 9042TIP3   OH227070   5.325   7.236   3.320
 9042TIP3    H127071   5.365   7.241   3.234
 9042TIP3    H227072   5.388   7.191   3.375
 9043TIP3   OH227073   1.328   3.894   0.684
 9043TIP3    H127074   1.385   3.936   0.619
 9043TIP3    H227075   1.266   3.842   0.632
 9044TIP3   OH227076   6.929   3.463   5.078
 9044TIP3    H127077   6.930   3.459   5.173
 9044TIP3    H227078   6.861   3.400   5.051
 9045TIP3   OH227079   3.539   6.732   2.308
 9045TIP3    H127080   3.486   6.807   2.281
 9045TIP3    H227081   3.475   6.662   2.322
 9046TIP3   OH227082   0.635   5.261   1.505
 9046TIP3    H127083   0.594   5.180   1.536
 9046TIP3    H227084   0.614   5.325   1.573
 9047TIP3   OH227085   0.879   6.640   5.502
 9047TIP3    H127086   0.794   6.676   5.474
 9047TIP3    H227087   0.913   6.596   5.424
 9048TIP3   OH227088   0.333   6.174   1.726
 9048TIP3    H127089   0.311   6.265   1.743
 9048TIP3    H227090   0.257   6.124   1.756
 9049TIP3   OH227091   2.043   3.646   0.564
 9049TIP3    H127092   2.015   3.708   0.497
 9049TIP3    H227093   2.006   3.679   0.646
 9050TIP3   OH227094   1.970   3.300   6.083
 9050TIP3    H127095   1.875   3.305   6.082
 9050TIP3    H227096   1.990   3.225   6.138
 9051TIP3   OH227097   5.772   1.683   2.811
 9051TIP3    H127098   5.731   1.718   2.732
 9051TIP3    H227099   5.863   1.711   2.806
 9052TIP3   OH227100   4.785   6.867   2.519
 9052TIP3    H127101   4.752   6.803   2.456
 9052TIP3    H227102   4.860   6.824   2.561
 9053TIP3   OH227103   3.101   5.971   4.011
 9053TIP3    H127104   3.124   5.889   4.055
 9053TIP3    H227105   3.141   5.963   3.924
 9054TIP3   OH227106   7.441   3.475   6.059
 9054TIP3    H127107   7.421   3.423   6.137
 9054TIP3    H227108   7.368   3.537   6.053
 9055TIP3   OH227109   2.183   1.683   5.410
 9055TIP3    H127110   2.150   1.637   5.333
 9055TIP3    H227111   2.209   1.613   5.470
 9056TIP3   OH227112   2.794   3.294   3.621
 9056TIP3    H127113   2.731   3.264   3.686
 9056TIP3    H227114   2.826   3.377   3.654
 9057TIP3   OH227115   2.855   1.334   0.135
 9057TIP3    H127116   2.902   1.300   0.211
 9057TIP3    H227117   2.886   1.281   0.062
 9058TIP3   OH227118   3.818   6.542   6.649
 9058TIP3    H127119   3.732   6.584   6.650
 9058TIP3    H227120   3.865   6.581   6.723
 9059TIP3   OH227121   7.954   6.221   1.610
 9059TIP3    H127122   7.987   6.131   1.614
 9059TIP3    H227123   7.862   6.213   1.586
 9060TIP3   OH227124   2.979   1.527   5.633
 9060TIP3    H127125   2.935   1.522   5.548
 9060TIP3    H227126   2.910   1.554   5.694
 9061TIP3   OH227127   4.198   0.245   1.136
 9061TIP3    H127128   4.159   0.329   1.161
 9061TIP3    H227129   4.143   0.179   1.179
 9062TIP3   OH227130   4.697   5.175   0.147
 9062TIP3    H127131   4.633   5.121   0.102
 9062TIP3    H227132   4.763   5.113   0.179
 9063TIP3   OH227133   7.485   1.974   3.619
 9063TIP3    H127134   7.557   2.037   3.611
 9063TIP3    H227135   7.406   2.028   3.617
 9064TIP3   OH227136   4.199   5.145   4.899
 9064TIP3    H127137   4.144   5.222   4.885
 9064TIP3    H227138   4.227   5.119   4.811
 9065TIP3   OH227139   0.336   3.890   1.701
 9065TIP3    H127140   0.424   3.854   1.714
 9065TIP3    H227141   0.277   3.816   1.717
 9066TIP3   OH227142   5.067   1.082   0.522
 9066TIP3    H127143   5.130   1.015   0.548
 9066TIP3    H227144   5.099   1.113   0.437
 9067TIP3   OH227145   7.391   0.151   5.416
 9067TIP3    H127146   7.373   0.245   5.418
 9067TIP3    H227147   7.396   0.130   5.323
 9068TIP3   OH227148   4.270   6.427   4.316
 9068TIP3    H127149   4.294   6.517   4.296
 9068TIP3    H227150   4.232   6.430   4.404
 9069TIP3   OH227151   5.797   0.713   6.094
 9069TIP3    H127152   5.872   0.658   6.070
 9069TIP3    H227153   5.769   0.753   6.012
 9070TIP3   OH227154   7.840   5.244   3.135
 9070TIP3    H127155   7.932   5.249   3.110
 9070TIP3    H227156   7.798   5.313   3.084
 9071TIP3   OH227157   6.199   1.613   4.523
 9071TIP3    H127158   6.165   1.686   4.576
 9071TIP3    H227159   6.218   1.652   4.438
 9072TIP3   OH227160   6.622   0.694   5.343
 9072TIP3    H127161   6.541   0.687   5.293
 9072TIP3    H227162   6.675   0.758   5.295
 9073TIP3   OH227163   3.003   6.327   0.977
 9073TIP3    H127164   3.047   6.261   0.924
 9073TIP3    H227165   3.055   6.333   1.057
 9074TIP3   OH227166   3.652   0.345   6.474
 9074TIP3    H127167   3.691   0.314   6.393
 9074TIP3    H227168   3.561   0.366   6.450
 9075TIP3   OH227169   0.062   0.108   0.852
 9075TIP3    H127170   0.073   0.134   0.943
 9075TIP3    H227171  -0.032   0.114   0.836
 9076TIP3   OH227172   0.019   5.300   4.147
 9076TIP3    H127173  -0.031   5.227   4.184
 9076TIP3    H227174   0.067   5.337   4.222
 9077TIP3   OH227175   5.087   3.881   0.128
 9077TIP3    H127176   5.099   3.793   0.092
 9077TIP3    H227177   5.030   3.925   0.065
 9078TIP3   OH227178   5.348   1.087   5.066
 9078TIP3    H127179   5.381   1.177   5.065
 9078TIP3    H227180   5.339   1.063   4.974
 9079TIP3   OH227181   6.478   6.910   3.664
 9079TIP3    H127182   6.539   6.983   3.651
 9079TIP3    H227183   6.419   6.915   3.590
 9080TIP3   OH227184   6.673   6.261   0.987
 9080TIP3    H127185   6.580   6.246   1.006
 9080TIP3    H227186   6.706   6.308   1.063
 9081TIP3   OH227187   6.547   4.525   0.906
 9081TIP3    H127188   6.509   4.509   0.992
 9081TIP3    H227189   6.482   4.580   0.862
 9082TIP3   OH227190   4.769   2.823   5.178
 9082TIP3    H127191   4.833   2.753   5.190
 9082TIP3    H227192   4.729   2.834   5.265
 9083TIP3   OH227193   6.353   2.104   4.994
 9083TIP3    H127194   6.340   2.011   5.013
 9083TIP3    H227195   6.419   2.105   4.925
 9084TIP3   OH227196   4.937   2.040   1.738
 9084TIP3    H127197   5.015   2.012   1.690
 9084TIP3    H227198   4.953   2.133   1.757
 9085TIP3   OH227199   8.092   2.786   3.080
 9085TIP3    H127200   8.142   2.844   3.137
 9085TIP3    H227201   8.120   2.698   3.105
 9086TIP3   OH227202   3.804   5.768   4.992
 9086TIP3    H127203   3.746   5.750   5.066
 9086TIP3    H227204   3.752   5.825   4.935
 9087TIP3   OH227205   3.117   0.810   5.477
 9087TIP3    H127206   3.162   0.842   5.399
 9087TIP3    H227207   3.114   0.715   5.467
 9088TIP3   OH227208   2.392   6.988   2.672
 9088TIP3    H127209   2.333   6.956   2.605
 9088TIP3    H227210   2.350   6.965   2.755
 9089TIP3   OH227211   6.575   5.829   6.746
 9089TIP3    H127212   6.589   5.853   6.838
 9089TIP3    H227213   6.481   5.812   6.740
 9090TIP3   OH227214   3.850   5.626   2.784
 9090TIP3    H127215   3.792   5.699   2.766
 9090TIP3    H227216   3.870   5.634   2.877
 9091TIP3   OH227217   7.563   3.286   0.143
 9091TIP3    H127218   7.538   3.215   0.202
 9091TIP3    H227219   7.620   3.244   0.078
 9092TIP3   OH227220   4.977   1.432   6.627
 9092TIP3    H127221   4.927   1.501   6.583
 9092TIP3    H227222   5.066   1.443   6.595
 9093TIP3   OH227223   4.799   5.506   2.861
 9093TIP3    H127224   4.726   5.563   2.836
 9093TIP3    H227225   4.831   5.471   2.777
 9094TIP3   OH227226   6.629   5.990   2.515
 9094TIP3    H127227   6.542   5.978   2.554
 9094TIP3    H227228   6.656   5.902   2.488
 9095TIP3   OH227229   1.274   4.220   0.150
 9095TIP3    H127230   1.342   4.256   0.093
 9095TIP3    H227231   1.218   4.169   0.092
 9096TIP3   OH227232   0.835   7.777   3.631
 9096TIP3    H127233   0.887   7.734   3.563
 9096TIP3    H227234   0.849   7.724   3.709
 9097TIP3   OH227235   6.912   4.794   4.854
 9097TIP3    H127236   6.968   4.867   4.882
 9097TIP3    H227237   6.876   4.759   4.936
 9098TIP3   OH227238   4.690   0.693   4.272
 9098TIP3    H127239   4.721   0.778   4.303
 9098TIP3    H227240   4.617   0.672   4.331
 9099TIP3   OH227241   6.635   2.489   0.198
 9099TIP3    H127242   6.675   2.449   0.275
 9099TIP3    H227243   6.553   2.527   0.230
 9100TIP3   OH227244   4.699   3.717   4.037
 9100TIP3    H127245   4.719   3.634   3.994
 9100TIP3    H227246   4.749   3.782   3.987
 9101TIP3   OH227247   2.045   5.189   4.747
 9101TIP3    H127248   2.114   5.130   4.717
 9101TIP3    H227249   2.041   5.257   4.679
 9102TIP3   OH227250   1.293   6.435   2.588
 9102TIP3    H127251   1.217   6.478   2.628
 9102TIP3    H227252   1.258   6.357   2.546
 9103TIP3   OH227253   7.026   1.061   4.905
 9103TIP3    H127254   7.115   1.082   4.935
 9103TIP3    H227255   7.040   1.007   4.827
 9104TIP3   OH227256   4.285   7.334   3.365
 9104TIP3    H127257   4.362   7.372   3.323
 9104TIP3    H227258   4.320   7.258   3.413
 9105TIP3   OH227259   4.357   1.590   2.366
 9105TIP3    H127260   4.280   1.590   2.308
 9105TIP3    H227261   4.432   1.580   2.308
 9106TIP3   OH227262   0.155   2.672   4.308
 9106TIP3    H127263   0.064   2.642   4.316
 9106TIP3    H227264   0.207   2.600   4.345
 9107TIP3   OH227265   7.716   1.319   0.386
 9107TIP3    H127266   7.730   1.370   0.306
 9107TIP3    H227267   7.629   1.345   0.416
 9108TIP3   OH227268   6.759   4.656   2.866
 9108TIP3    H127269   6.843   4.648   2.911
 9108TIP3    H227270   6.782   4.657   2.773
 9109TIP3   OH227271   8.215   5.389   1.676
 9109TIP3    H127272   8.301   5.347   1.664
 9109TIP3    H227273   8.209   5.450   1.603
 9110TIP3   OH227274   1.565   1.834   2.506
 9110TIP3    H127275   1.618   1.895   2.454
 9110TIP3    H227276   1.592   1.850   2.596
 9111TIP3   OH227277   5.802   6.796   1.640
 9111TIP3    H127278   5.892   6.767   1.650
 9111TIP3    H227279   5.755   6.719   1.610
 9112TIP3   OH227280   6.618   2.243   2.132
 9112TIP3    H127281   6.632   2.264   2.040
 9112TIP3    H227282   6.526   2.265   2.148
 9113TIP3   OH227283   0.501   1.045   5.787
 9113TIP3    H127284   0.576   1.039   5.727
 9113TIP3    H227285   0.425   1.037   5.729
 9114TIP3   OH227286   5.488   3.605   5.721
 9114TIP3    H127287   5.406   3.655   5.725
 9114TIP3    H227288   5.499   3.570   5.810
 9115TIP3   OH227289   3.987   5.403   3.097
 9115TIP3    H127290   3.911   5.356   3.062
 9115TIP3    H227291   4.062   5.351   3.071
 9116TIP3   OH227292   6.631   5.729   2.549
 9116TIP3    H127293   6.621   5.796   2.617
 9116TIP3    H227294   6.670   5.655   2.595
 9117TIP3   OH227295   3.825   1.164   5.129
 9117TIP3    H127296   3.824   1.242   5.185
 9117TIP3    H227297   3.823   1.199   5.040
 9118TIP3   OH227298   6.490   3.899   4.725
 9118TIP3    H127299   6.551   3.832   4.756
 9118TIP3    H227300   6.489   3.964   4.794
 9119TIP3   OH227301   0.470   5.898   6.394
 9119TIP3    H127302   0.555   5.857   6.379
 9119TIP3    H227303   0.429   5.845   6.462
 9120TIP3   OH227304   2.815   3.845   5.876
 9120TIP3    H127305   2.785   3.778   5.938
 9120TIP3    H227306   2.904   3.817   5.853
 9121TIP3   OH227307   5.084   0.766   1.132
 9121TIP3    H127308   5.007   0.752   1.077
 9121TIP3    H227309   5.151   0.710   1.094
 9122TIP3   OH227310   7.185   3.903   0.665
 9122TIP3    H127311   7.227   3.948   0.739
 9122TIP3    H227312   7.163   3.974   0.604
 9123TIP3   OH227313   3.772   0.080   2.766
 9123TIP3    H127314   3.721   0.075   2.686
 9123TIP3    H227315   3.713   0.121   2.830
 9124TIP3   OH227316   3.596   0.573   4.718
 9124TIP3    H127317   3.532   0.502   4.712
 9124TIP3    H227318   3.666   0.538   4.774
 9125TIP3   OH227319   3.086   5.060   4.744
 9125TIP3    H127320   3.107   5.090   4.833
 9125TIP3    H227321   3.089   5.140   4.691
 9126TIP3   OH227322   7.706   5.233   3.384
 9126TIP3    H127323   7.738   5.225   3.294
 9126TIP3    H227324   7.783   5.218   3.439
 9127TIP3   OH227325   0.316   1.103   4.856
 9127TIP3    H127326   0.267   1.169   4.906
 9127TIP3    H227327   0.278   1.106   4.769
 9128TIP3   OH227328   0.220   3.117   5.320
 9128TIP3    H127329   0.229   3.056   5.393
 9128TIP3    H227330   0.137   3.092   5.279
 9129TIP3   OH227331   5.300   5.469   0.160
 9129TIP3    H127332   5.262   5.536   0.104
 9129TIP3    H227333   5.233   5.400   0.163
 9130TIP3   OH227334   1.272   0.165   6.086
 9130TIP3    H127335   1.302   0.077   6.111
 9130TIP3    H227336   1.219   0.150   6.008
 9131TIP3   OH227337   5.201   7.660   0.878
 9131TIP3    H127338   5.149   7.722   0.929
 9131TIP3    H227339   5.156   7.653   0.794
 9132TIP3   OH227340   6.140   2.884   3.183
 9132TIP3    H127341   6.078   2.911   3.250
 9132TIP3    H227342   6.119   2.939   3.107
 9133TIP3   OH227343   0.095   4.183   5.202
 9133TIP3    H127344   0.174   4.193   5.149
 9133TIP3    H227345   0.055   4.102   5.170
 9134TIP3   OH227346   4.923   0.032   4.577
 9134TIP3    H127347   4.985  -0.018   4.630
 9134TIP3    H227348   4.979   0.084   4.519
 9135TIP3   OH227349   4.535   2.645   2.069
 9135TIP3    H127350   4.553   2.699   2.146
 9135TIP3    H227351   4.621   2.613   2.042
 9136TIP3   OH227352   0.997   5.335   2.869
 9136TIP3    H127353   0.929   5.340   2.937
 9136TIP3    H227354   1.064   5.278   2.906
 9137TIP3   OH227355   7.034   2.298   0.963
 9137TIP3    H127356   7.029   2.366   0.895
 9137TIP3    H227357   7.098   2.236   0.929
 9138TIP3   OH227358   0.357   2.510   3.989
 9138TIP3    H127359   0.270   2.473   3.996
 9138TIP3    H227360   0.342   2.603   3.971
 9139TIP3   OH227361   8.293   3.426   6.613
 9139TIP3    H127362   8.216   3.393   6.566
 9139TIP3    H227363   8.298   3.518   6.590
 9140TIP3   OH227364   1.893   1.521   3.812
 9140TIP3    H127365   1.864   1.513   3.903
 9140TIP3    H227366   1.870   1.611   3.787
 9141TIP3   OH227367   6.728   6.130   0.612
 9141TIP3    H127368   6.660   6.197   0.606
 9141TIP3    H227369   6.806   6.176   0.642
 9142TIP3   OH227370   6.769   2.001   3.035
 9142TIP3    H127371   6.676   1.981   3.028
 9142TIP3    H227372   6.798   2.017   2.945
 9143TIP3   OH227373   5.865   2.065   1.147
 9143TIP3    H127374   5.902   2.082   1.233
 9143TIP3    H227375   5.902   1.980   1.121
 9144TIP3   OH227376   5.047   3.884   3.233
 9144TIP3    H127377   5.104   3.942   3.283
 9144TIP3    H227378   4.981   3.854   3.296
 9145TIP3   OH227379   5.285   7.398   4.814
 9145TIP3    H127380   5.222   7.330   4.837
 9145TIP3    H227381   5.354   7.352   4.766
 9146TIP3   OH227382   4.232   6.853   2.236
 9146TIP3    H127383   4.207   6.824   2.324
 9146TIP3    H227384   4.306   6.797   2.213
 9147TIP3   OH227385   2.557   6.977   5.718
 9147TIP3    H127386   2.599   6.977   5.632
 9147TIP3    H227387   2.537   6.885   5.735
 9148TIP3   OH227388   4.128   1.555   0.910
 9148TIP3    H127389   4.163   1.638   0.877
 9148TIP3    H227390   4.034   1.568   0.914
 9149TIP3   OH227391   7.547   3.607   3.372
 9149TIP3    H127392   7.473   3.665   3.352
 9149TIP3    H227393   7.610   3.663   3.416
 9150TIP3   OH227394   5.373   4.339   3.478
 9150TIP3    H127395   5.382   4.343   3.573
 9150TIP3    H227396   5.337   4.425   3.454
 9151TIP3   OH227397   0.272   5.311   1.368
 9151TIP3    H127398   0.200   5.360   1.329
 9151TIP3    H227399   0.345   5.372   1.369
 9152TIP3   OH227400   7.954   6.269   6.399
 9152TIP3    H127401   7.892   6.341   6.411
 9152TIP3    H227402   8.033   6.298   6.444
 9153TIP3   OH227403   2.924   7.726   3.492
 9153TIP3    H127404   2.840   7.761   3.461
 9153TIP3    H227405   2.981   7.803   3.497
 9154TIP3   OH227406   4.832   7.628   2.786
 9154TIP3    H127407   4.828   7.550   2.730
 9154TIP3    H227408   4.755   7.679   2.761
 9155TIP3   OH227409   4.338   7.210   3.015
 9155TIP3    H127410   4.413   7.215   2.956
 9155TIP3    H227411   4.273   7.268   2.976
 9156TIP3   OH227412   0.023   2.484   1.805
 9156TIP3    H127413   0.116   2.501   1.816
 9156TIP3    H227414  -0.020   2.544   1.866
 9157TIP3   OH227415   7.940   7.165   1.633
 9157TIP3    H127416   8.020   7.201   1.593
 9157TIP3    H227417   7.904   7.107   1.566
 9158TIP3   OH227418   5.074   1.288   2.130
 9158TIP3    H127419   5.002   1.284   2.193
 9158TIP3    H227420   5.071   1.203   2.085
 9159TIP3   OH227421   1.753   1.497   1.378
 9159TIP3    H127422   1.685   1.439   1.345
 9159TIP3    H227423   1.732   1.583   1.342
 9160TIP3   OH227424   2.322   7.024   3.385
 9160TIP3    H127425   2.350   6.965   3.315
 9160TIP3    H227426   2.282   6.967   3.450
 9161TIP3   OH227427   7.829   7.249   4.070
 9161TIP3    H127428   7.826   7.270   3.976
 9161TIP3    H227429   7.738   7.258   4.099
 9162TIP3   OH227430   4.021   2.887   1.275
 9162TIP3    H127431   4.049   2.796   1.264
 9162TIP3    H227432   4.073   2.920   1.348
 9163TIP3   OH227433   6.355   3.362   5.405
 9163TIP3    H127434   6.275   3.395   5.445
 9163TIP3    H227435   6.328   3.331   5.319
 9164TIP3   OH227436   3.929   3.022   5.140
 9164TIP3    H127437   3.981   3.055   5.214
 9164TIP3    H227438   3.971   3.059   5.063
 9165TIP3   OH227439   6.970   4.815   6.756
 9165TIP3    H127440   7.011   4.812   6.669
 9165TIP3    H227441   6.887   4.768   6.745
 9166TIP3   OH227442   3.992   6.490   4.778
 9166TIP3    H127443   4.061   6.497   4.844
 9166TIP3    H227444   3.913   6.470   4.828
 9167TIP3   OH227445   2.510   3.254   5.023
 9167TIP3    H127446   2.439   3.308   4.988
 9167TIP3    H227447   2.474   3.216   5.103
 9168TIP3   OH227448   0.602   4.312   0.254
 9168TIP3    H127449   0.689   4.271   0.256
 9168TIP3    H227450   0.611   4.383   0.191
 9169TIP3   OH227451   8.231   4.356   4.451
 9169TIP3    H127452   8.242   4.394   4.539
 9169TIP3    H227453   8.166   4.288   4.463
 9170TIP3   OH227454   2.558   5.381   2.418
 9170TIP3    H127455   2.597   5.304   2.460
 9170TIP3    H227456   2.620   5.406   2.350
 9171TIP3   OH227457   3.389   1.722   4.779
 9171TIP3    H127458   3.376   1.673   4.698
 9171TIP3    H227459   3.320   1.692   4.837
 9172TIP3   OH227460   7.936   3.162   5.248
 9172TIP3    H127461   7.841   3.152   5.257
 9172TIP3    H227462   7.959   3.228   5.314
 9173TIP3   OH227463   5.597   7.121   2.047
 9173TIP3    H127464   5.657   7.115   1.973
 9173TIP3    H227465   5.627   7.054   2.109
 9174TIP3   OH227466   7.354   2.537   3.531
 9174TIP3    H127467   7.401   2.611   3.570
 9174TIP3    H227468   7.422   2.485   3.488
 9175TIP3   OH227469   7.716   0.551   2.237
 9175TIP3    H127470   7.622   0.550   2.220
 9175TIP3    H227471   7.751   0.481   2.181
 9176TIP3   OH227472   7.622   2.806   0.920
 9176TIP3    H127473   7.704   2.856   0.920
 9176TIP3    H227474   7.577   2.833   1.000
 9177TIP3   OH227475   5.856   0.458   1.249
 9177TIP3    H127476   5.816   0.377   1.219
 9177TIP3    H227477   5.797   0.489   1.318
 9178TIP3   OH227478   3.043   2.249   3.268
 9178TIP3    H127479   2.960   2.268   3.313
 9178TIP3    H227480   3.016   2.208   3.186
 9179TIP3   OH227481   7.076   6.542   1.602
 9179TIP3    H127482   7.165   6.550   1.569
 9179TIP3    H227483   7.033   6.481   1.542
 9180TIP3   OH227484   2.452   2.815   0.814
 9180TIP3    H127485   2.422   2.778   0.731
 9180TIP3    H227486   2.543   2.788   0.821
 9181TIP3   OH227487   4.510   1.826   0.750
 9181TIP3    H127488   4.474   1.903   0.706
 9181TIP3    H227489   4.604   1.829   0.730
 9182TIP3   OH227490   1.693   1.049   0.069
 9182TIP3    H127491   1.703   1.029   0.162
 9182TIP3    H227492   1.777   1.086   0.043
 9183TIP3   OH227493   1.959   4.013   3.896
 9183TIP3    H127494   1.969   3.922   3.867
 9183TIP3    H227495   1.871   4.016   3.934
 9184TIP3   OH227496   3.761   3.985   0.123
 9184TIP3    H127497   3.703   3.998   0.048
 9184TIP3    H227498   3.702   3.972   0.197
 9185TIP3   OH227499   4.073   5.320   3.637
 9185TIP3    H127500   4.105   5.404   3.671
 9185TIP3    H227501   4.042   5.274   3.715
 9186TIP3   OH227502   5.217   2.994   4.818
 9186TIP3    H127503   5.159   2.922   4.842
 9186TIP3    H227504   5.212   2.999   4.722
 9187TIP3   OH227505   7.447   7.773   5.565
 9187TIP3    H127506   7.523   7.720   5.589
 9187TIP3    H227507   7.477   7.824   5.490
 9188TIP3   OH227508   2.455   2.087   5.962
 9188TIP3    H127509   2.496   2.146   6.025
 9188TIP3    H227510   2.462   2.000   6.002
 9189TIP3   OH227511   1.706   4.006   3.972
 9189TIP3    H127512   1.673   3.931   3.924
 9189TIP3    H227513   1.629   4.043   4.015
 9190TIP3   OH227514   1.718   4.064   2.858
 9190TIP3    H127515   1.740   4.149   2.820
 9190TIP3    H227516   1.699   4.083   2.950
 9191TIP3   OH227517   6.385   1.093   2.436
 9191TIP3    H127518   6.434   1.089   2.518
 9191TIP3    H227519   6.452   1.105   2.369
 9192TIP3   OH227520   3.707   7.761   5.594
 9192TIP3    H127521   3.662   7.835   5.554
 9192TIP3    H227522   3.681   7.764   5.686
 9193TIP3   OH227523   6.619   5.435   5.140
 9193TIP3    H127524   6.597   5.405   5.228
 9193TIP3    H227525   6.572   5.517   5.130
 9194TIP3   OH227526   8.222   2.557   2.994
 9194TIP3    H127527   8.191   2.615   2.924
 9194TIP3    H227528   8.227   2.471   2.953
 9195TIP3   OH227529   7.496   2.951   5.491
 9195TIP3    H127530   7.427   3.017   5.491
 9195TIP3    H227531   7.468   2.888   5.425
 9196TIP3   OH227532   7.411   5.438   0.407
 9196TIP3    H127533   7.477   5.474   0.348
 9196TIP3    H227534   7.328   5.450   0.361
 9197TIP3   OH227535   3.935   2.611   6.624
 9197TIP3    H127536   4.016   2.578   6.585
 9197TIP3    H227537   3.902   2.537   6.675
 9198TIP3   OH227538   0.944   0.592   3.476
 9198TIP3    H127539   0.970   0.633   3.558
 9198TIP3    H227540   0.963   0.657   3.409
 9199TIP3   OH227541   6.268   3.828   1.157
 9199TIP3    H127542   6.195   3.789   1.109
 9199TIP3    H227543   6.231   3.908   1.196
 9200TIP3   OH227544   5.351   2.483   5.865
 9200TIP3    H127545   5.262   2.479   5.899
 9200TIP3    H227546   5.392   2.401   5.895
 9201TIP3   OH227547   4.148   2.121   2.519
 9201TIP3    H127548   4.163   2.117   2.613
 9201TIP3    H227549   4.214   2.063   2.481
 9202TIP3   OH227550   6.345   1.653   3.576
 9202TIP3    H127551   6.372   1.716   3.642
 9202TIP3    H227552   6.381   1.570   3.606
 9203TIP3   OH227553   2.849   5.400   5.809
 9203TIP3    H127554   2.757   5.403   5.836
 9203TIP3    H227555   2.848   5.420   5.716
 9204TIP3   OH227556   4.612   0.660   6.283
 9204TIP3    H127557   4.537   0.618   6.239
 9204TIP3    H227558   4.620   0.745   6.241
 9205TIP3   OH227559   0.217   1.055   4.582
 9205TIP3    H127560   0.162   0.985   4.617
 9205TIP3    H227561   0.173   1.083   4.502
 9206TIP3   OH227562   5.366   2.818   0.874
 9206TIP3    H127563   5.332   2.889   0.928
 9206TIP3    H227564   5.365   2.742   0.931
 9207TIP3   OH227565   0.505   0.508   6.616
 9207TIP3    H127566   0.551   0.558   6.683
 9207TIP3    H227567   0.574   0.465   6.565
 9208TIP3   OH227568   8.154   1.245   1.977
 9208TIP3    H127569   8.098   1.235   1.900
 9208TIP3    H227570   8.142   1.164   2.026
 9209TIP3   OH227571   8.072   3.140   1.383
 9209TIP3    H127572   8.012   3.084   1.334
 9209TIP3    H227573   8.150   3.086   1.396
 9210TIP3   OH227574   7.422   2.787   3.923
 9210TIP3    H127575   7.393   2.697   3.908
 9210TIP3    H227576   7.516   2.779   3.941
 9211TIP3   OH227577   3.428   3.035   2.977
 9211TIP3    H127578   3.515   3.053   2.942
 9211TIP3    H227579   3.373   3.024   2.899
 9212TIP3   OH227580   3.006   2.262   1.630
 9212TIP3    H127581   2.914   2.284   1.647
 9212TIP3    H227582   3.056   2.327   1.680
 9213TIP3   OH227583   0.680   7.171   6.676
 9213TIP3    H127584   0.713   7.251   6.636
 9213TIP3    H227585   0.735   7.158   6.753
 9214TIP3   OH227586   7.877   1.180   3.029
 9214TIP3    H127587   7.969   1.156   3.033
 9214TIP3    H227588   7.865   1.216   2.941
 9215TIP3   OH227589   7.686   1.513   0.758
 9215TIP3    H127590   7.596   1.520   0.726
 9215TIP3    H227591   7.679   1.462   0.838
 9216TIP3   OH227592   3.859   2.083   2.438
 9216TIP3    H127593   3.852   2.165   2.389
 9216TIP3    H227594   3.944   2.088   2.481
 9217TIP3   OH227595   7.247   0.495   4.961
 9217TIP3    H127596   7.273   0.413   4.919
 9217TIP3    H227597   7.151   0.492   4.962
 9218TIP3   OH227598   2.696   4.592   2.242
 9218TIP3    H127599   2.788   4.617   2.251
 9218TIP3    H227600   2.691   4.505   2.280
 9219TIP3   OH227601   0.531   4.773   0.522
 9219TIP3    H127602   0.507   4.861   0.493
 9219TIP3    H227603   0.534   4.779   0.617
 9220TIP3   OH227604   3.311   7.663   2.425
 9220TIP3    H127605   3.361   7.739   2.396
 9220TIP3    H227606   3.355   7.588   2.385
 9221TIP3   OH227607   7.448   1.183   3.878
 9221TIP3    H127608   7.372   1.135   3.912
 9221TIP3    H227609   7.446   1.168   3.784
 9222TIP3   OH227610   4.158   7.000   6.126
 9222TIP3    H127611   4.123   6.983   6.038
 9222TIP3    H227612   4.232   6.941   6.135
 9223TIP3   OH227613   3.462   3.053   0.347
 9223TIP3    H127614   3.385   3.107   0.366
 9223TIP3    H227615   3.478   3.004   0.427
 9224TIP3   OH227616   7.128   0.858   1.869
 9224TIP3    H127617   7.120   0.786   1.932
 9224TIP3    H227618   7.211   0.900   1.893
 9225TIP3   OH227619   3.088   4.998   1.214
 9225TIP3    H127620   3.175   5.036   1.223
 9225TIP3    H227621   3.102   4.915   1.168
 9226TIP3   OH227622   2.946   6.629   1.204
 9226TIP3    H127623   2.974   6.553   1.153
 9226TIP3    H227624   2.930   6.697   1.139
 9227TIP3   OH227625   8.151   3.761   5.727
 9227TIP3    H127626   8.156   3.668   5.705
 9227TIP3    H227627   8.057   3.778   5.739
 9228TIP3   OH227628   3.008   2.101   1.032
 9228TIP3    H127629   3.093   2.101   0.988
 9228TIP3    H227630   2.957   2.168   0.987
 9229TIP3   OH227631   4.491   0.375   1.693
 9229TIP3    H127632   4.403   0.340   1.687
 9229TIP3    H227633   4.541   0.327   1.626
 9230TIP3   OH227634   0.746   3.626   0.910
 9230TIP3    H127635   0.696   3.573   0.972
 9230TIP3    H227636   0.826   3.575   0.896
 9231TIP3   OH227637   7.465   6.043   4.120
 9231TIP3    H127638   7.408   6.100   4.172
 9231TIP3    H227639   7.553   6.080   4.132
 9232TIP3   OH227640   2.988   3.360   4.636
 9232TIP3    H127641   2.940   3.397   4.710
 9232TIP3    H227642   3.076   3.397   4.644
 9233TIP3   OH227643   3.355   5.974   3.442
 9233TIP3    H127644   3.386   6.017   3.362
 9233TIP3    H227645   3.424   5.912   3.464
 9234TIP3   OH227646   6.477   7.651   4.252
 9234TIP3    H127647   6.395   7.695   4.231
 9234TIP3    H227648   6.533   7.720   4.287
 9235TIP3   OH227649   1.683   0.467   2.172
 9235TIP3    H127650   1.649   0.445   2.085
 9235TIP3    H227651   1.773   0.495   2.156
 9236TIP3   OH227652   6.112   4.439   4.216
 9236TIP3    H127653   6.179   4.372   4.208
 9236TIP3    H227654   6.033   4.398   4.181
 9237TIP3   OH227655   5.825   2.392   3.641
 9237TIP3    H127656   5.823   2.330   3.568
 9237TIP3    H227657   5.816   2.478   3.599
 9238TIP3   OH227658   2.177   7.612   0.471
 9238TIP3    H127659   2.162   7.631   0.378
 9238TIP3    H227660   2.235   7.682   0.500
 9239TIP3   OH227661   3.966   4.178   4.090
 9239TIP3    H127662   3.895   4.115   4.075
 9239TIP3    H227663   3.951   4.246   4.023
 9240TIP3   OH227664   6.050   3.333   4.077
 9240TIP3    H127665   6.079   3.415   4.035
 9240TIP3    H227666   6.067   3.266   4.011
 9241TIP3   OH227667   1.852   3.390   6.498
 9241TIP3    H127668   1.923   3.409   6.560
 9241TIP3    H227669   1.895   3.341   6.428
 9242TIP3   OH227670   6.735   0.904   0.788
 9242TIP3    H127671   6.784   0.823   0.798
 9242TIP3    H227672   6.735   0.943   0.875
 9243TIP3   OH227673   5.214   3.030   4.521
 9243TIP3    H127674   5.123   3.009   4.502
 9243TIP3    H227675   5.256   3.035   4.435
 9244TIP3   OH227676   3.825   0.810   2.601
 9244TIP3    H127677   3.768   0.771   2.666
 9244TIP3    H227678   3.772   0.816   2.522
 9245TIP3   OH227679   5.841   7.437   5.325
 9245TIP3    H127680   5.893   7.416   5.403
 9245TIP3    H227681   5.759   7.472   5.360
 9246TIP3   OH227682   0.953   4.900   0.694
 9246TIP3    H127683   1.022   4.833   0.700
 9246TIP3    H227684   0.992   4.969   0.640
 9247TIP3   OH227685   0.281   5.814   0.294
 9247TIP3    H127686   0.230   5.831   0.214
 9247TIP3    H227687   0.257   5.885   0.353
 9248TIP3   OH227688   6.665   0.382   1.259
 9248TIP3    H127689   6.633   0.315   1.318
 9248TIP3    H227690   6.687   0.456   1.316
 9249TIP3   OH227691   2.927   4.958   0.675
 9249TIP3    H127692   2.998   4.946   0.739
 9249TIP3    H227693   2.912   5.053   0.675
 9250TIP3   OH227694   6.467   1.069   0.208
 9250TIP3    H127695   6.544   1.111   0.171
 9250TIP3    H227696   6.499   1.017   0.282
 9251TIP3   OH227697   0.580   0.597   4.459
 9251TIP3    H127698   0.554   0.510   4.487
 9251TIP3    H227699   0.508   0.654   4.487
 9252TIP3   OH227700   1.617   0.813   2.759
 9252TIP3    H127701   1.663   0.830   2.842
 9252TIP3    H227702   1.595   0.900   2.726
 9253TIP3   OH227703   2.062   5.314   3.048
 9253TIP3    H127704   2.034   5.395   3.005
 9253TIP3    H227705   2.131   5.342   3.109
 9254TIP3   OH227706   3.519   2.261   2.816
 9254TIP3    H127707   3.538   2.170   2.796
 9254TIP3    H227708   3.475   2.259   2.901
 9255TIP3   OH227709   6.436   4.379   5.243
 9255TIP3    H127710   6.473   4.292   5.229
 9255TIP3    H227711   6.343   4.369   5.223
 9256TIP3   OH227712   1.284   7.053   0.761
 9256TIP3    H127713   1.213   6.994   0.785
 9256TIP3    H227714   1.342   7.001   0.705
 9257TIP3   OH227715   5.809   3.747   2.936
 9257TIP3    H127716   5.897   3.739   2.899
 9257TIP3    H227717   5.752   3.762   2.861
 9258TIP3   OH227718   2.488   4.576   3.633
 9258TIP3    H127719   2.443   4.492   3.642
 9258TIP3    H227720   2.470   4.604   3.543
 9259TIP3   OH227721   0.192   5.137   0.090
 9259TIP3    H127722   0.162   5.177   0.008
 9259TIP3    H227723   0.225   5.210   0.142
 9260TIP3   OH227724   2.337   0.332   2.688
 9260TIP3    H127725   2.326   0.301   2.778
 9260TIP3    H227726   2.430   0.353   2.681
 9261TIP3   OH227727   1.383   5.501   0.786
 9261TIP3    H127728   1.314   5.566   0.799
 9261TIP3    H227729   1.389   5.456   0.870
 9262TIP3   OH227730   3.137   3.091   4.611
 9262TIP3    H127731   3.060   3.039   4.637
 9262TIP3    H227732   3.110   3.182   4.625
 9263TIP3   OH227733   3.809   6.222   3.464
 9263TIP3    H127734   3.862   6.283   3.515
 9263TIP3    H227735   3.730   6.209   3.517
 9264TIP3   OH227736   5.606   6.731   0.486
 9264TIP3    H127737   5.585   6.794   0.555
 9264TIP3    H227738   5.576   6.773   0.406
 9265TIP3   OH227739   2.959   5.341   1.984
 9265TIP3    H127740   3.016   5.418   1.980
 9265TIP3    H227741   3.010   5.276   2.033
 9266TIP3   OH227742   5.423   5.729   4.370
 9266TIP3    H127743   5.409   5.635   4.370
 9266TIP3    H227744   5.480   5.744   4.446
 9267TIP3   OH227745   7.171   1.125   5.121
 9267TIP3    H127746   7.085   1.167   5.113
 9267TIP3    H227747   7.178   1.103   5.214
 9268TIP3   OH227748   6.986   1.434   3.386
 9268TIP3    H127749   7.069   1.386   3.389
 9268TIP3    H227750   6.969   1.448   3.293
 9269TIP3   OH227751   5.621   4.060   3.846
 9269TIP3    H127752   5.679   4.125   3.804
 9269TIP3    H227753   5.596   4.101   3.929
 9270TIP3   OH227754   7.514   5.375   3.850
 9270TIP3    H127755   7.541   5.414   3.767
 9270TIP3    H227756   7.473   5.448   3.898
 9271TIP3   OH227757   6.355   6.224   5.578
 9271TIP3    H127758   6.429   6.239   5.519
 9271TIP3    H227759   6.277   6.241   5.525
 9272TIP3   OH227760   3.509   1.380   6.781
 9272TIP3    H127761   3.473   1.400   6.694
 9272TIP3    H227762   3.452   1.427   6.842
 9273TIP3   OH227763   2.306   4.101   0.561
 9273TIP3    H127764   2.294   4.008   0.544
 9273TIP3    H227765   2.366   4.104   0.636
 9274TIP3   OH227766   0.051   5.213   6.613
 9274TIP3    H127767   0.120   5.168   6.663
 9274TIP3    H227768   0.064   5.306   6.633
 9275TIP3   OH227769   4.991   4.596   3.352
 9275TIP3    H127770   4.926   4.655   3.315
 9275TIP3    H227771   5.026   4.549   3.277
 9276TIP3   OH227772   7.726   1.756   0.666
 9276TIP3    H127773   7.701   1.675   0.712
 9276TIP3    H227774   7.777   1.805   0.730
 9277TIP3   OH227775   8.015   4.015   3.698
 9277TIP3    H127776   7.996   4.086   3.636
 9277TIP3    H227777   7.931   3.973   3.712
 9278TIP3   OH227778   5.219   2.331   3.452
 9278TIP3    H127779   5.169   2.265   3.501
 9278TIP3    H227780   5.270   2.281   3.389
 9279TIP3   OH227781   4.915   1.866   6.103
 9279TIP3    H127782   4.905   1.888   6.010
 9279TIP3    H227783   4.836   1.817   6.124
 9280TIP3   OH227784   1.603   2.906   3.280
 9280TIP3    H127785   1.661   2.973   3.245
 9280TIP3    H227786   1.662   2.836   3.309
 9281TIP3   OH227787   0.472   7.287   0.080
 9281TIP3    H127788   0.567   7.303   0.076
 9281TIP3    H227789   0.436   7.342   0.010
 9282TIP3   OH227790   0.943   6.757   4.219
 9282TIP3    H127791   0.869   6.699   4.239
 9282TIP3    H227792   0.915   6.805   4.141
 9283TIP3   OH227793   0.879   0.305   2.587
 9283TIP3    H127794   0.937   0.255   2.644
 9283TIP3    H227795   0.932   0.325   2.510
 9284TIP3   OH227796   0.702   4.313   2.695
 9284TIP3    H127797   0.614   4.279   2.711
 9284TIP3    H227798   0.760   4.246   2.729
 9285TIP3   OH227799   1.996   6.279   3.259
 9285TIP3    H127800   2.091   6.290   3.263
 9285TIP3    H227801   1.973   6.238   3.342
 9286TIP3   OH227802   2.570   5.194   0.645
 9286TIP3    H127803   2.490   5.240   0.673
 9286TIP3    H227804   2.539   5.109   0.614
 9287TIP3   OH227805   4.456   6.269   1.692
 9287TIP3    H127806   4.513   6.312   1.628
 9287TIP3    H227807   4.475   6.175   1.682
 9288TIP3   OH227808   7.575   2.677   3.608
 9288TIP3    H127809   7.634   2.604   3.627
 9288TIP3    H227810   7.609   2.750   3.660
 9289TIP3   OH227811   2.570   4.323   2.858
 9289TIP3    H127812   2.552   4.413   2.830
 9289TIP3    H227813   2.639   4.332   2.924
 9290TIP3   OH227814   5.888   4.255   2.742
 9290TIP3    H127815   5.894   4.160   2.739
 9290TIP3    H227816   5.818   4.273   2.804
 9291TIP3   OH227817   4.166   3.933   0.490
 9291TIP3    H127818   4.105   3.937   0.417
 9291TIP3    H227819   4.130   3.865   0.548
 9292TIP3   OH227820   6.327   2.065   3.857
 9292TIP3    H127821   6.415   2.037   3.834
 9292TIP3    H227822   6.271   2.030   3.788
 9293TIP3   OH227823   6.785   7.782   2.235
 9293TIP3    H127824   6.709   7.816   2.188
 9293TIP3    H227825   6.810   7.703   2.187
 9294TIP3   OH227826   1.103   6.237   2.815
 9294TIP3    H127827   1.108   6.147   2.846
 9294TIP3    H227828   1.192   6.271   2.826
 9295TIP3   OH227829   4.914   2.981   4.506
 9295TIP3    H127830   4.843   2.918   4.498
 9295TIP3    H227831   4.875   3.056   4.551
 9296TIP3   OH227832   0.229   4.589   5.095
 9296TIP3    H127833   0.201   4.637   5.173
 9296TIP3    H227834   0.322   4.571   5.111
 9297TIP3   OH227835   1.772   2.315   2.964
 9297TIP3    H127836   1.752   2.322   2.871
 9297TIP3    H227837   1.692   2.346   3.007
 9298TIP3   OH227838   3.289   5.042   2.520
 9298TIP3    H127839   3.236   5.045   2.600
 9298TIP3    H227840   3.299   5.133   2.494
 9299TIP3   OH227841   5.789   7.664   1.911
 9299TIP3    H127842   5.844   7.630   1.841
 9299TIP3    H227843   5.703   7.674   1.871
 9300TIP3   OH227844   8.107   5.739   1.383
 9300TIP3    H127845   8.099   5.788   1.301
 9300TIP3    H227846   8.055   5.788   1.446
 9301TIP3   OH227847   5.369   2.023   1.234
 9301TIP3    H127848   5.412   2.105   1.254
 9301TIP3    H227849   5.323   1.999   1.315
 9302TIP3   OH227850   7.412   2.140   1.652
 9302TIP3    H127851   7.427   2.079   1.725
 9302TIP3    H227852   7.500   2.172   1.630
 9303TIP3   OH227853   6.444   2.477   2.903
 9303TIP3    H127854   6.416   2.498   2.814
 9303TIP3    H227855   6.420   2.555   2.954
 9304TIP3   OH227856   2.841   1.242   6.639
 9304TIP3    H127857   2.831   1.219   6.547
 9304TIP3    H227858   2.768   1.302   6.657
 9305TIP3   OH227859   1.425   7.720   1.833
 9305TIP3    H127860   1.445   7.626   1.836
 9305TIP3    H227861   1.482   7.755   1.766
 9306TIP3   OH227862   8.259   7.600   4.897
 9306TIP3    H127863   8.308   7.608   4.979
 9306TIP3    H227864   8.282   7.679   4.848
 9307TIP3   OH227865   5.192   3.838   4.661
 9307TIP3    H127866   5.169   3.745   4.665
 9307TIP3    H227867   5.268   3.846   4.719
 9308TIP3   OH227868   6.142   6.911   0.221
 9308TIP3    H127869   6.137   6.928   0.127
 9308TIP3    H227870   6.154   6.817   0.228
 9309TIP3   OH227871   6.145   5.402   0.557
 9309TIP3    H127872   6.133   5.426   0.649
 9309TIP3    H227873   6.236   5.374   0.551
 9310TIP3   OH227874   0.536   6.066   3.023
 9310TIP3    H127875   0.487   6.036   2.947
 9310TIP3    H227876   0.485   6.139   3.058
 9311TIP3   OH227877   1.406   2.883   3.084
 9311TIP3    H127878   1.477   2.867   3.147
 9311TIP3    H227879   1.337   2.823   3.112
 9312TIP3   OH227880   2.401   6.131   3.456
 9312TIP3    H127881   2.336   6.061   3.458
 9312TIP3    H227882   2.484   6.088   3.474
 9313TIP3   OH227883   5.840   4.155   3.719
 9313TIP3    H127884   5.838   4.065   3.754
 9313TIP3    H227885   5.833   4.144   3.624
 9314TIP3   OH227886   7.504   6.545   4.357
 9314TIP3    H127887   7.421   6.498   4.365
 9314TIP3    H227888   7.548   6.531   4.441
 9315TIP3   OH227889   4.531   2.475   4.792
 9315TIP3    H127890   4.437   2.485   4.807
 9315TIP3    H227891   4.572   2.539   4.850
 9316TIP3   OH227892   7.166   4.524   3.595
 9316TIP3    H127893   7.199   4.590   3.534
 9316TIP3    H227894   7.156   4.571   3.678
 9317TIP3   OH227895   1.822   1.219   0.417
 9317TIP3    H127896   1.810   1.128   0.390
 9317TIP3    H227897   1.789   1.270   0.343
 9318TIP3   OH227898   5.122   4.120   3.345
 9318TIP3    H127899   5.212   4.111   3.377
 9318TIP3    H227900   5.084   4.191   3.397
 9319TIP3   OH227901   2.944   0.470   5.299
 9319TIP3    H127902   3.028   0.478   5.344
 9319TIP3    H227903   2.964   0.422   5.218
 9320TIP3   OH227904   7.338   7.453   3.945
 9320TIP3    H127905   7.362   7.507   4.020
 9320TIP3    H227906   7.245   7.472   3.930
 9321TIP3   OH227907   5.958   2.042   0.061
 9321TIP3    H127908   5.954   2.123   0.113
 9321TIP3    H227909   5.867   2.020   0.044
 9322TIP3   OH227910   7.825   6.354   1.796
 9322TIP3    H127911   7.884   6.357   1.721
 9322TIP3    H227912   7.763   6.426   1.781
 9323TIP3   OH227913   0.634   2.196   0.897
 9323TIP3    H127914   0.583   2.130   0.944
 9323TIP3    H227915   0.618   2.278   0.944
 9324TIP3   OH227916   6.974   4.977   2.975
 9324TIP3    H127917   6.943   4.999   2.887
 9324TIP3    H227918   7.069   4.981   2.968
 9325TIP3   OH227919   7.739   1.993   4.099
 9325TIP3    H127920   7.764   2.069   4.150
 9325TIP3    H227921   7.651   1.970   4.130
 9326TIP3   OH227922   6.088   0.106   3.042
 9326TIP3    H127923   6.134   0.186   3.068
 9326TIP3    H227924   6.008   0.137   3.000
 9327TIP3   OH227925   5.964   4.641   3.163
 9327TIP3    H127926   5.990   4.615   3.252
 9327TIP3    H227927   6.003   4.728   3.151
 9328TIP3   OH227928   7.810   5.332   4.678
 9328TIP3    H127929   7.843   5.329   4.768
 9328TIP3    H227930   7.801   5.425   4.658
 9329TIP3   OH227931   0.181  -0.017   1.265
 9329TIP3    H127932   0.134   0.015   1.188
 9329TIP3    H227933   0.163   0.049   1.332
 9330TIP3   OH227934   3.470   0.915   1.570
 9330TIP3    H127935   3.471   0.980   1.640
 9330TIP3    H227936   3.391   0.863   1.587
 9331TIP3   OH227937   3.296   5.692   3.218
 9331TIP3    H127938   3.253   5.610   3.240
 9331TIP3    H227939   3.242   5.729   3.148
 9332TIP3   OH227940   2.378   7.280   2.353
 9332TIP3    H127941   2.445   7.338   2.389
 9332TIP3    H227942   2.400   7.273   2.260
 9333TIP3   OH227943   8.084   2.352   1.898
 9333TIP3    H127944   8.164   2.367   1.848
 9333TIP3    H227945   8.025   2.310   1.836
 9334TIP3   OH227946   6.692   1.058   1.623
 9334TIP3    H127947   6.676   0.993   1.691
 9334TIP3    H227948   6.782   1.041   1.594
 9335TIP3   OH227949   2.441   0.968   0.566
 9335TIP3    H127950   2.418   1.021   0.490
 9335TIP3    H227951   2.405   0.881   0.547
 9336TIP3   OH227952   6.322   5.396   6.406
 9336TIP3    H127953   6.348   5.375   6.316
 9336TIP3    H227954   6.229   5.417   6.400
 9337TIP3   OH227955   7.402   1.550   1.954
 9337TIP3    H127956   7.371   1.589   2.036
 9337TIP3    H227957   7.404   1.623   1.892
 9338TIP3   OH227958   7.835   0.470   1.006
 9338TIP3    H127959   7.905   0.533   1.024
 9338TIP3    H227960   7.858   0.393   1.056
 9339TIP3   OH227961   6.740   1.814   6.577
 9339TIP3    H127962   6.827   1.773   6.576
 9339TIP3    H227963   6.751   1.894   6.525
 9340TIP3   OH227964   1.071   1.009   1.755
 9340TIP3    H127965   1.152   0.982   1.796
 9340TIP3    H227966   1.021   0.928   1.744
 9341TIP3   OH227967   5.165   4.488   3.146
 9341TIP3    H127968   5.228   4.551   3.182
 9341TIP3    H227969   5.207   4.454   3.067
 9342TIP3   OH227970   7.191   3.297   5.645
 9342TIP3    H127971   7.132   3.341   5.585
 9342TIP3    H227972   7.137   3.276   5.721
 9343TIP3   OH227973   3.487   3.853   6.630
 9343TIP3    H127974   3.453   3.811   6.551
 9343TIP3    H227975   3.421   3.834   6.697
 9344TIP3   OH227976   7.358   7.793   6.457
 9344TIP3    H127977   7.413   7.846   6.515
 9344TIP3    H227978   7.412   7.719   6.433
 9345TIP3   OH227979   2.759   3.199   0.916
 9345TIP3    H127980   2.733   3.106   0.913
 9345TIP3    H227981   2.854   3.197   0.925
 9346TIP3   OH227982   0.612   7.417   5.179
 9346TIP3    H127983   0.588   7.349   5.117
 9346TIP3    H227984   0.674   7.374   5.239
 9347TIP3   OH227985   7.293   1.392   6.364
 9347TIP3    H127986   7.233   1.343   6.419
 9347TIP3    H227987   7.307   1.336   6.288
 9348TIP3   OH227988   2.170   3.581   2.018
 9348TIP3    H127989   2.198   3.652   2.075
 9348TIP3    H227990   2.156   3.622   1.933
 9349TIP3   OH227991   5.361   5.850   2.347
 9349TIP3    H127992   5.276   5.839   2.305
 9349TIP3    H227993   5.363   5.942   2.372
 9350TIP3   OH227994   7.668   0.200   3.993
 9350TIP3    H127995   7.661   0.150   3.911
 9350TIP3    H227996   7.686   0.133   4.059
 9351TIP3   OH227997   5.390   4.768   5.894
 9351TIP3    H127998   5.395   4.857   5.861
 9351TIP3    H227999   5.481   4.739   5.900
 9352TIP3   OH228000   5.175   1.838   5.545
 9352TIP3    H128001   5.151   1.924   5.510
 9352TIP3    H228002   5.113   1.778   5.504
 9353TIP3   OH228003   3.191   3.638   6.219
 9353TIP3    H128004   3.187   3.673   6.130
 9353TIP3    H228005   3.168   3.546   6.209
 9354TIP3   OH228006   3.934   4.369   4.915
 9354TIP3    H128007   3.971   4.400   4.833
 9354TIP3    H228008   3.901   4.448   4.958
 9355TIP3   OH228009   1.002   2.587   5.605
 9355TIP3    H128010   1.043   2.500   5.606
 9355TIP3    H228011   1.043   2.633   5.678
 9356TIP3   OH228012   2.173   7.094   6.173
 9356TIP3    H128013   2.106   7.027   6.187
 9356TIP3    H228014   2.123   7.171   6.146
 9357TIP3   OH228015   4.228   1.040   6.056
 9357TIP3    H128016   4.184   1.045   6.141
 9357TIP3    H228017   4.235   1.131   6.027
 9358TIP3   OH228018   1.920   7.000   2.218
 9358TIP3    H128019   1.951   7.032   2.134
 9358TIP3    H228020   1.916   6.904   2.207
 9359TIP3   OH228021   7.850   7.705   2.825
 9359TIP3    H128022   7.785   7.744   2.767
 9359TIP3    H228023   7.863   7.771   2.893
 9360TIP3   OH228024   3.389   1.845   1.591
 9360TIP3    H128025   3.366   1.922   1.643
 9360TIP3    H228026   3.454   1.798   1.643
 9361TIP3   OH228027   4.623   5.310   1.576
 9361TIP3    H128028   4.597   5.402   1.581
 9361TIP3    H228029   4.715   5.309   1.603
 9362TIP3   OH228030   4.169   2.413   3.765
 9362TIP3    H128031   4.091   2.420   3.711
 9362TIP3    H228032   4.139   2.431   3.854
 9363TIP3   OH228033   4.410   6.428   5.132
 9363TIP3    H128034   4.437   6.372   5.058
 9363TIP3    H228035   4.428   6.517   5.102
 9364TIP3   OH228036   8.126   7.694   0.597
 9364TIP3    H128037   8.108   7.788   0.605
 9364TIP3    H228038   8.128   7.678   0.503
 9365TIP3   OH228039   5.173   4.244   0.590
 9365TIP3    H128040   5.160   4.169   0.647
 9365TIP3    H228041   5.184   4.207   0.503
 9366TIP3   OH228042   5.678   7.534   1.352
 9366TIP3    H128043   5.750   7.480   1.319
 9366TIP3    H228044   5.700   7.622   1.321
 9367TIP3   OH228045   5.518   5.320   3.219
 9367TIP3    H128046   5.528   5.363   3.134
 9367TIP3    H228047   5.424   5.302   3.226
 9368TIP3   OH228048   3.789   3.456   0.531
 9368TIP3    H128049   3.781   3.500   0.447
 9368TIP3    H228050   3.724   3.386   0.527
 9369TIP3   OH228051   4.970   7.165   2.911
 9369TIP3    H128052   4.959   7.178   3.005
 9369TIP3    H228053   5.009   7.246   2.879
 9370TIP3   OH228054   7.154   3.075   1.367
 9370TIP3    H128055   7.173   3.141   1.301
 9370TIP3    H228056   7.059   3.074   1.373
 9371TIP3   OH228057   1.150   1.907   5.455
 9371TIP3    H128058   1.088   1.838   5.477
 9371TIP3    H228059   1.158   1.958   5.537
 9372TIP3   OH228060   2.107   7.643   2.369
 9372TIP3    H128061   2.110   7.605   2.281
 9372TIP3    H228062   2.017   7.628   2.398
 9373TIP3   OH228063   1.590   6.633   4.981
 9373TIP3    H128064   1.495   6.640   4.968
 9373TIP3    H228065   1.614   6.712   5.029
 9374TIP3   OH228066   0.389   0.913   2.325
 9374TIP3    H128067   0.407   0.857   2.401
 9374TIP3    H228068   0.296   0.899   2.308
 9375TIP3   OH228069   5.659   3.244   0.412
 9375TIP3    H128070   5.718   3.317   0.434
 9375TIP3    H228071   5.713   3.184   0.360
 9376TIP3   OH228072   6.525   1.593   5.408
 9376TIP3    H128073   6.482   1.644   5.339
 9376TIP3    H228074   6.458   1.583   5.476
 9377TIP3   OH228075   0.693   1.418   2.192
 9377TIP3    H128076   0.774   1.462   2.218
 9377TIP3    H228077   0.707   1.394   2.101
 9378TIP3   OH228078   7.928   5.095   0.646
 9378TIP3    H128079   7.871   5.044   0.589
 9378TIP3    H228080   7.900   5.073   0.734
 9379TIP3   OH228081   2.872   7.382   1.119
 9379TIP3    H128082   2.940   7.428   1.168
 9379TIP3    H228083   2.835   7.448   1.061
 9380TIP3   OH228084   6.451   7.757   1.704
 9380TIP3    H128085   6.435   7.850   1.718
 9380TIP3    H228086   6.496   7.753   1.620
 9381TIP3   OH228087   7.434   0.887   3.671
 9381TIP3    H128088   7.395   0.801   3.688
 9381TIP3    H228089   7.519   0.867   3.631
 9382TIP3   OH228090   3.921   3.498   5.097
 9382TIP3    H128091   3.884   3.502   5.185
 9382TIP3    H228092   3.905   3.584   5.059
 9383TIP3   OH228093   3.718   7.290   0.657
 9383TIP3    H128094   3.718   7.272   0.750
 9383TIP3    H228095   3.706   7.385   0.650
 9384TIP3   OH228096   4.334   6.832   3.761
 9384TIP3    H128097   4.310   6.747   3.725
 9384TIP3    H228098   4.393   6.811   3.833
 9385TIP3   OH228099   1.368   3.856   4.277
 9385TIP3    H128100   1.346   3.766   4.300
 9385TIP3    H228101   1.292   3.907   4.304
 9386TIP3   OH228102   3.164   3.777   4.731
 9386TIP3    H128103   3.161   3.739   4.643
 9386TIP3    H228104   3.256   3.771   4.757
 9387TIP3   OH228105   4.235   1.752   4.023
 9387TIP3    H128106   4.326   1.740   3.995
 9387TIP3    H228107   4.235   1.835   4.070
 9388TIP3   OH228108   4.902   0.763   5.600
 9388TIP3    H128109   4.821   0.719   5.625
 9388TIP3    H228110   4.950   0.698   5.549
 9389TIP3   OH228111   4.736   1.304   4.697
 9389TIP3    H128112   4.818   1.291   4.649
 9389TIP3    H228113   4.753   1.380   4.753
 9390TIP3   OH228114   6.350   0.701   2.388
 9390TIP3    H128115   6.335   0.743   2.303
 9390TIP3    H228116   6.311   0.615   2.379
 9391TIP3   OH228117   2.104   3.057   3.673
 9391TIP3    H128118   2.096   2.964   3.695
 9391TIP3    H228119   2.190   3.065   3.633
 9392TIP3   OH228120   1.530   3.745   6.432
 9392TIP3    H128121   1.522   3.650   6.431
 9392TIP3    H228122   1.452   3.775   6.478
 9393TIP3   OH228123   4.476   7.601   2.261
 9393TIP3    H128124   4.503   7.544   2.332
 9393TIP3    H228125   4.529   7.680   2.273
 9394TIP3   OH228126   3.870   2.376   4.715
 9394TIP3    H128127   3.775   2.385   4.726
 9394TIP3    H228128   3.891   2.432   4.641
 9395TIP3   OH228129   2.605   0.142   0.472
 9395TIP3    H128130   2.595   0.182   0.386
 9395TIP3    H228131   2.598   0.216   0.533
 9396TIP3   OH228132   1.661   1.842   5.868
 9396TIP3    H128133   1.677   1.910   5.803
 9396TIP3    H228134   1.615   1.773   5.820
 9397TIP3   OH228135   2.233   3.571   3.511
 9397TIP3    H128136   2.308   3.557   3.453
 9397TIP3    H228137   2.263   3.638   3.573
 9398TIP3   OH228138   0.328   1.482   0.233
 9398TIP3    H128139   0.280   1.556   0.270
 9398TIP3    H228140   0.400   1.467   0.294
 9399TIP3   OH228141   4.552   4.601   2.133
 9399TIP3    H128142   4.646   4.622   2.129
 9399TIP3    H228143   4.530   4.572   2.045
 9400TIP3   OH228144   0.722   2.571   1.920
 9400TIP3    H128145   0.753   2.651   1.962
 9400TIP3    H228146   0.635   2.556   1.958
 9401TIP3   OH228147   5.194   4.954   3.404
 9401TIP3    H128148   5.131   4.933   3.473
 9401TIP3    H228149   5.156   5.029   3.359
 9402TIP3   OH228150   1.336   3.957   3.313
 9402TIP3    H128151   1.331   4.021   3.384
 9402TIP3    H228152   1.425   3.924   3.317
 9403TIP3   OH228153   2.352   2.074   1.057
 9403TIP3    H128154   2.443   2.104   1.058
 9403TIP3    H228155   2.300   2.153   1.069
 9404TIP3   OH228156   1.217   7.334   6.098
 9404TIP3    H128157   1.219   7.301   6.188
 9404TIP3    H228158   1.207   7.428   6.107
 9405TIP3   OH228159   0.610   4.428   5.401
 9405TIP3    H128160   0.699   4.409   5.372
 9405TIP3    H228161   0.561   4.348   5.384
 9406TIP3   OH228162   0.478   5.678   3.460
 9406TIP3    H128163   0.386   5.651   3.448
 9406TIP3    H228164   0.502   5.717   3.376
 9407TIP3   OH228165   5.346   0.824   2.566
 9407TIP3    H128166   5.283   0.893   2.587
 9407TIP3    H228167   5.325   0.752   2.626
 9408TIP3   OH228168   4.240   7.652   0.008
 9408TIP3    H128169   4.218   7.577   0.063
 9408TIP3    H228170   4.168   7.659  -0.054
 9409TIP3   OH228171   6.863   0.868   5.293
 9409TIP3    H128172   6.927   0.808   5.253
 9409TIP3    H228173   6.830   0.919   5.220
 9410TIP3   OH228174   7.674   6.191   4.229
 9410TIP3    H128175   7.710   6.198   4.318
 9410TIP3    H228176   7.673   6.281   4.197
 9411TIP3   OH228177   2.440   1.119   0.097
 9411TIP3    H128178   2.397   1.047   0.050
 9411TIP3    H228179   2.409   1.198   0.053
 9412TIP3   OH228180   6.606   3.114   0.041
 9412TIP3    H128181   6.580   3.082  -0.046
 9412TIP3    H228182   6.689   3.070   0.059
 9413TIP3   OH228183   3.841   6.702   3.512
 9413TIP3    H128184   3.870   6.788   3.542
 9413TIP3    H228185   3.777   6.674   3.577
 9414TIP3   OH228186   4.940   5.788   5.074
 9414TIP3    H128187   4.875   5.845   5.115
 9414TIP3    H228188   4.896   5.754   4.996
 9415TIP3   OH228189   5.423   3.547   3.754
 9415TIP3    H128190   5.352   3.533   3.817
 9415TIP3    H228191   5.449   3.638   3.767
 9416TIP3   OH228192   5.921   4.319   1.725
 9416TIP3    H128193   6.010   4.354   1.737
 9416TIP3    H228194   5.876   4.386   1.674
 9417TIP3   OH228195   5.190   4.041   1.267
 9417TIP3    H128196   5.098   4.034   1.292
 9417TIP3    H228197   5.222   3.951   1.271
 9418TIP3   OH228198   0.895   5.707   0.515
 9418TIP3    H128199   0.930   5.744   0.434
 9418TIP3    H228200   0.972   5.687   0.568
 9419TIP3   OH228201   7.368   0.581   0.790
 9419TIP3    H128202   7.407   0.663   0.761
 9419TIP3    H228203   7.406   0.515   0.732
 9420TIP3   OH228204   7.400   7.566   4.225
 9420TIP3    H128205   7.424   7.489   4.277
 9420TIP3    H228206   7.311   7.587   4.254
 9421TIP3   OH228207   2.678   6.518   2.281
 9421TIP3    H128208   2.677   6.613   2.276
 9421TIP3    H228209   2.659   6.488   2.192
 9422TIP3   OH228210   6.008   1.591   3.631
 9422TIP3    H128211   5.931   1.555   3.674
 9422TIP3    H228212   6.060   1.514   3.608
 9423TIP3   OH228213   0.058   7.340   2.092
 9423TIP3    H128214   0.080   7.270   2.153
 9423TIP3    H228215  -0.035   7.326   2.072
 9424TIP3   OH228216   0.668   2.707   1.102
 9424TIP3    H128217   0.574   2.686   1.098
 9424TIP3    H228218   0.698   2.667   1.183
 9425TIP3   OH228219   1.435   3.970   5.803
 9425TIP3    H128220   1.413   3.909   5.873
 9425TIP3    H228221   1.384   4.049   5.823
 9426TIP3   OH228222   5.870   4.206   5.013
 9426TIP3    H128223   5.884   4.134   4.951
 9426TIP3    H228224   5.871   4.285   4.960
 9427TIP3   OH228225   7.121   5.475   4.358
 9427TIP3    H128226   7.167   5.539   4.413
 9427TIP3    H228227   7.191   5.432   4.309
 9428TIP3   OH228228   6.107   6.103   5.254
 9428TIP3    H128229   6.123   6.168   5.186
 9428TIP3    H228230   6.014   6.081   5.245
 9429TIP3   OH228231   2.349   2.001   3.931
 9429TIP3    H128232   2.262   2.027   3.902
 9429TIP3    H228233   2.408   2.062   3.886
 9430TIP3   OH228234   5.899   4.021   1.031
 9430TIP3    H128235   5.946   3.990   0.954
 9430TIP3    H228236   5.967   4.052   1.090
 9431TIP3   OH228237   7.294   0.394   5.342
 9431TIP3    H128238   7.203   0.400   5.369
 9431TIP3    H228239   7.292   0.344   5.260
 9432TIP3   OH228240   6.913   7.175   5.358
 9432TIP3    H128241   7.000   7.144   5.334
 9432TIP3    H228242   6.893   7.127   5.439
 9433TIP3   OH228243   6.331   0.562   6.344
 9433TIP3    H128244   6.360   0.571   6.253
 9433TIP3    H228245   6.369   0.637   6.389
 9434TIP3   OH228246   2.121   2.012   6.645
 9434TIP3    H128247   2.214   2.017   6.668
 9434TIP3    H228248   2.091   2.103   6.649
 9435TIP3   OH228249   2.237   5.901   6.471
 9435TIP3    H128250   2.281   5.932   6.550
 9435TIP3    H228251   2.151   5.872   6.502
 9436TIP3   OH228252   0.987   3.563   6.768
 9436TIP3    H128253   0.963   3.573   6.676
 9436TIP3    H228254   1.023   3.648   6.793
 9437TIP3   OH228255   0.458   7.384   2.709
 9437TIP3    H128256   0.508   7.362   2.630
 9437TIP3    H228257   0.506   7.343   2.781
 9438TIP3   OH228258   3.095   6.900   4.627
 9438TIP3    H128259   3.091   6.843   4.550
 9438TIP3    H228260   3.188   6.911   4.645
 9439TIP3   OH228261   0.347   5.018   5.494
 9439TIP3    H128262   0.437   5.017   5.527
 9439TIP3    H228263   0.355   5.052   5.405
 9440TIP3   OH228264   7.018   3.076   1.731
 9440TIP3    H128265   7.109   3.066   1.705
 9440TIP3    H228266   6.968   3.048   1.654
 9441TIP3   OH228267   0.436   2.302   1.505
 9441TIP3    H128268   0.402   2.226   1.552
 9441TIP3    H228269   0.499   2.341   1.566
 9442TIP3   OH228270   6.255   4.671   4.184
 9442TIP3    H128271   6.207   4.598   4.223
 9442TIP3    H228272   6.345   4.639   4.176
 9443TIP3   OH228273   3.831   7.050   4.828
 9443TIP3    H128274   3.833   7.116   4.759
 9443TIP3    H228275   3.919   7.014   4.830
 9444TIP3   OH228276   6.348   6.548   6.252
 9444TIP3    H128277   6.383   6.571   6.338
 9444TIP3    H228278   6.412   6.584   6.190
 9445TIP3   OH228279   0.881   2.201   4.230
 9445TIP3    H128280   0.802   2.226   4.277
 9445TIP3    H228281   0.906   2.116   4.268
 9446TIP3   OH228282   4.428   4.805   1.283
 9446TIP3    H128283   4.522   4.814   1.300
 9446TIP3    H228284   4.423   4.756   1.201
 9447TIP3   OH228285   0.848   1.997   2.802
 9447TIP3    H128286   0.758   1.996   2.836
 9447TIP3    H228287   0.837   2.000   2.707
 9448TIP3   OH228288   8.218   4.019   4.301
 9448TIP3    H128289   8.285   3.951   4.312
 9448TIP3    H228290   8.182   4.031   4.389
 9449TIP3   OH228291   0.696   6.568   2.032
 9449TIP3    H128292   0.721   6.660   2.020
 9449TIP3    H228293   0.603   6.571   2.057
 9450TIP3   OH228294   7.186   6.060   6.443
 9450TIP3    H128295   7.177   5.971   6.408
 9450TIP3    H228296   7.146   6.055   6.530
 9451TIP3   OH228297   1.681   3.240   1.484
 9451TIP3    H128298   1.685   3.197   1.570
 9451TIP3    H228299   1.679   3.168   1.421
 9452TIP3   OH228300   0.977   4.392   0.747
 9452TIP3    H128301   0.993   4.394   0.841
 9452TIP3    H228302   0.944   4.480   0.727
 9453TIP3   OH228303   1.740   0.377   1.539
 9453TIP3    H128304   1.813   0.402   1.484
 9453TIP3    H228305   1.779   0.327   1.611
 9454TIP3   OH228306   2.173   1.937   1.278
 9454TIP3    H128307   2.210   1.969   1.196
 9454TIP3    H228308   2.226   1.980   1.346
 9455TIP3   OH228309   0.112   1.213   1.822
 9455TIP3    H128310   0.115   1.293   1.769
 9455TIP3    H228311   0.037   1.226   1.880
 9456TIP3   OH228312   8.004   5.363   6.597
 9456TIP3    H128313   7.947   5.331   6.528
 9456TIP3    H228314   7.983   5.457   6.604
 9457TIP3   OH228315   2.767   1.434   3.305
 9457TIP3    H128316   2.816   1.505   3.347
 9457TIP3    H228317   2.676   1.463   3.307
 9458TIP3   OH228318   7.368   4.277   1.728
 9458TIP3    H128319   7.362   4.266   1.633
 9458TIP3    H228320   7.427   4.351   1.741
 9459TIP3   OH228321   1.315   2.425   3.027
 9459TIP3    H128322   1.239   2.368   3.036
 9459TIP3    H228323   1.286   2.494   2.967
 9460TIP3   OH228324   4.856   3.440   2.122
 9460TIP3    H128325   4.907   3.391   2.058
 9460TIP3    H228326   4.787   3.380   2.149
 9461TIP3   OH228327   6.923   2.013   6.093
 9461TIP3    H128328   6.848   1.965   6.129
 9461TIP3    H228329   6.891   2.102   6.081
 9462TIP3   OH228330   4.706   2.676   4.950
 9462TIP3    H128331   4.775   2.680   4.884
 9462TIP3    H228332   4.735   2.737   5.018
 9463TIP3   OH228333   8.076   5.913   1.171
 9463TIP3    H128334   8.128   5.978   1.218
 9463TIP3    H228335   8.048   5.958   1.091
 9464TIP3   OH228336   7.315   4.374   1.028
 9464TIP3    H128337   7.391   4.317   1.040
 9464TIP3    H228338   7.349   4.462   1.036
 9465TIP3   OH228339   4.113   6.383   4.536
 9465TIP3    H128340   4.050   6.391   4.608
 9465TIP3    H228341   4.064   6.341   4.466
 9466TIP3   OH228342   1.915   4.052   6.443
 9466TIP3    H128343   1.869   4.114   6.387
 9466TIP3    H228344   1.930   4.101   6.524
 9467TIP3   OH228345   6.107   7.211   0.694
 9467TIP3    H128346   6.090   7.168   0.778
 9467TIP3    H228347   6.134   7.299   0.717
 9468TIP3   OH228348   2.363   0.555   3.331
 9468TIP3    H128349   2.358   0.486   3.398
 9468TIP3    H228350   2.429   0.616   3.365
 9469TIP3   OH228351   2.403   3.325   2.612
 9469TIP3    H128352   2.339   3.292   2.675
 9469TIP3    H228353   2.383   3.278   2.531
 9470TIP3   OH228354   7.706   6.155   6.550
 9470TIP3    H128355   7.648   6.110   6.489
 9470TIP3    H228356   7.708   6.246   6.520
 9471TIP3   OH228357   7.516   7.618   5.222
 9471TIP3    H128358   7.445   7.677   5.197
 9471TIP3    H228359   7.475   7.555   5.281
 9472TIP3   OH228360   3.455   5.500   6.615
 9472TIP3    H128361   3.464   5.561   6.542
 9472TIP3    H228362   3.543   5.463   6.628
 9473TIP3   OH228363   3.096   2.751   2.217
 9473TIP3    H128364   3.076   2.791   2.302
 9473TIP3    H228365   3.177   2.794   2.189
 9474TIP3   OH228366   3.993   2.319   1.832
 9474TIP3    H128367   3.985   2.234   1.876
 9474TIP3    H228368   4.080   2.317   1.792
 9475TIP3   OH228369   7.383   4.339   3.455
 9475TIP3    H128370   7.449   4.338   3.525
 9475TIP3    H228371   7.319   4.403   3.484
 9476TIP3   OH228372   6.718   6.633   0.176
 9476TIP3    H128373   6.804   6.640   0.135
 9476TIP3    H228374   6.721   6.550   0.224
 9477TIP3   OH228375   3.099   7.775   2.269
 9477TIP3    H128376   3.100   7.868   2.249
 9477TIP3    H228377   3.180   7.760   2.318
 9478TIP3   OH228378   2.470   0.575   6.604
 9478TIP3    H128379   2.456   0.516   6.678
 9478TIP3    H228380   2.565   0.582   6.596
 9479TIP3   OH228381   4.273   2.037   4.143
 9479TIP3    H128382   4.224   2.079   4.072
 9479TIP3    H228383   4.364   2.038   4.114
 9480TIP3   OH228384   3.073   4.536   1.273
 9480TIP3    H128385   3.141   4.477   1.239
 9480TIP3    H228386   2.993   4.484   1.270
 9481TIP3   OH228387   4.445   4.911   3.994
 9481TIP3    H128388   4.383   4.880   3.927
 9481TIP3    H228389   4.390   4.951   4.061
 9482TIP3   OH228390   3.287   0.766   4.834
 9482TIP3    H128391   3.197   0.741   4.855
 9482TIP3    H228392   3.280   0.810   4.749
 9483TIP3   OH228393   8.215   5.725   2.483
 9483TIP3    H128394   8.165   5.776   2.420
 9483TIP3    H228395   8.272   5.670   2.429
 9484TIP3   OH228396   6.619   0.522   4.144
 9484TIP3    H128397   6.557   0.569   4.201
 9484TIP3    H228398   6.615   0.569   4.061
 9485TIP3   OH228399   7.053   1.529   0.728
 9485TIP3    H128400   6.968   1.488   0.742
 9485TIP3    H228401   7.113   1.456   0.714
 9486TIP3   OH228402   5.489   6.919   0.255
 9486TIP3    H128403   5.555   6.970   0.302
 9486TIP3    H228404   5.488   6.957   0.167
 9487TIP3   OH228405   2.344   3.294   3.889
 9487TIP3    H128406   2.274   3.274   3.827
 9487TIP3    H228407   2.418   3.321   3.834
 9488TIP3   OH228408   6.971   0.100   0.139
 9488TIP3    H128409   6.900   0.064   0.086
 9488TIP3    H228410   7.049   0.056   0.105
 9489TIP3   OH228411   1.575   5.915   5.625
 9489TIP3    H128412   1.604   5.837   5.578
 9489TIP3    H228413   1.610   5.903   5.714
 9490TIP3   OH228414   1.233   1.728   4.459
 9490TIP3    H128415   1.147   1.763   4.483
 9490TIP3    H228416   1.219   1.633   4.454
 9491TIP3   OH228417   8.102   0.806   0.736
 9491TIP3    H128418   8.026   0.859   0.762
 9491TIP3    H228419   8.158   0.867   0.688
 9492TIP3   OH228420   2.148   0.751   3.335
 9492TIP3    H128421   2.239   0.728   3.356
 9492TIP3    H228422   2.107   0.667   3.311
 9493TIP3   OH228423   1.567   2.549   3.463
 9493TIP3    H128424   1.626   2.624   3.452
 9493TIP3    H228425   1.536   2.557   3.553
 9494TIP3   OH228426   7.303   3.175   0.320
 9494TIP3    H128427   7.335   3.261   0.293
 9494TIP3    H228428   7.214   3.171   0.283
 9495TIP3   OH228429   5.321   4.692   3.291
 9495TIP3    H128430   5.339   4.644   3.371
 9495TIP3    H228431   5.275   4.771   3.320
 9496TIP3   OH228432   3.356   4.911   1.467
 9496TIP3    H128433   3.321   4.985   1.417
 9496TIP3    H228434   3.337   4.934   1.558
 9497TIP3   OH228435   4.796   7.053   4.151
 9497TIP3    H128436   4.787   7.005   4.069
 9497TIP3    H228437   4.881   7.098   4.143
 9498TIP3   OH228438   2.085   0.368   6.618
 9498TIP3    H128439   2.176   0.347   6.638
 9498TIP3    H228440   2.090   0.424   6.540
 9499TIP3   OH228441   0.988   1.255   2.171
 9499TIP3    H128442   1.079   1.254   2.142
 9499TIP3    H228443   0.993   1.279   2.264
 9500TIP3   OH228444   6.951   5.293   6.031
 9500TIP3    H128445   6.979   5.294   6.123
 9500TIP3    H228446   7.016   5.239   5.987
 9501TIP3   OH228447   0.253   5.790   1.738
 9501TIP3    H128448   0.322   5.745   1.786
 9501TIP3    H228449   0.230   5.865   1.793
 9502TIP3   OH228450   5.690   6.960   1.107
 9502TIP3    H128451   5.692   6.865   1.100
 9502TIP3    H228452   5.782   6.985   1.116
 9503TIP3   OH228453   4.471   2.800   4.814
 9503TIP3    H128454   4.551   2.749   4.803
 9503TIP3    H228455   4.454   2.801   4.908
 9504TIP3   OH228456   4.167   7.681   3.942
 9504TIP3    H128457   4.116   7.752   3.981
 9504TIP3    H228458   4.143   7.682   3.849
 9505TIP3   OH228459   2.653   2.801   5.822
 9505TIP3    H128460   2.613   2.758   5.747
 9505TIP3    H228461   2.697   2.729   5.869
 9506TIP3   OH228462   5.395   0.139   3.170
 9506TIP3    H128463   5.337   0.152   3.245
 9506TIP3    H228464   5.415   0.228   3.140
 9507TIP3   OH228465   5.293   6.323   5.179
 9507TIP3    H128466   5.260   6.280   5.100
 9507TIP3    H228467   5.216   6.333   5.235
 9508TIP3   OH228468   0.939   4.086   6.393
 9508TIP3    H128469   0.895   4.132   6.465
 9508TIP3    H228470   0.871   4.029   6.357
 9509TIP3   OH228471   6.131   0.413   6.421
 9509TIP3    H128472   6.091   0.373   6.343
 9509TIP3    H228473   6.197   0.472   6.386
 9510TIP3   OH228474   3.112   4.116   4.210
 9510TIP3    H128475   3.141   4.191   4.263
 9510TIP3    H228476   3.192   4.065   4.197
 9511TIP3   OH228477   4.562   6.569   0.578
 9511TIP3    H128478   4.546   6.658   0.607
 9511TIP3    H228479   4.490   6.548   0.519
 9512TIP3   OH228480   3.174   1.292   1.620
 9512TIP3    H128481   3.116   1.367   1.609
 9512TIP3    H228482   3.261   1.325   1.598
 9513TIP3   OH228483   6.151   3.286   5.974
 9513TIP3    H128484   6.123   3.195   5.977
 9513TIP3    H228485   6.184   3.298   5.885
 9514TIP3   OH228486   8.112   1.715   1.831
 9514TIP3    H128487   8.067   1.791   1.795
 9514TIP3    H228488   8.177   1.751   1.891
 9515TIP3   OH228489   1.501   1.485   2.736
 9515TIP3    H128490   1.525   1.549   2.803
 9515TIP3    H228491   1.530   1.401   2.771
 9516TIP3   OH228492   0.352   4.624   6.440
 9516TIP3    H128493   0.405   4.562   6.491
 9516TIP3    H228494   0.402   4.638   6.360
 9517TIP3   OH228495   6.863   5.299   6.366
 9517TIP3    H128496   6.774   5.329   6.346
 9517TIP3    H228497   6.861   5.283   6.460
 9518TIP3   OH228498   1.448   1.259   4.148
 9518TIP3    H128499   1.509   1.194   4.184
 9518TIP3    H228500   1.362   1.231   4.180
 9519TIP3   OH228501   1.511   4.676   3.891
 9519TIP3    H128502   1.479   4.689   3.980
 9519TIP3    H228503   1.533   4.583   3.886
 9520TIP3   OH228504   2.006   4.087   0.108
 9520TIP3    H128505   2.069   4.027   0.068
 9520TIP3    H228506   2.044   4.109   0.193
 9521TIP3   OH228507   6.120   2.691   0.903
 9521TIP3    H128508   6.138   2.598   0.918
 9521TIP3    H228509   6.159   2.710   0.818
 9522TIP3   OH228510   3.305   6.926   0.931
 9522TIP3    H128511   3.235   6.941   0.868
 9522TIP3    H228512   3.386   6.936   0.880
 9523TIP3   OH228513   0.167   3.185   6.364
 9523TIP3    H128514   0.243   3.231   6.330
 9523TIP3    H228515   0.103   3.188   6.293
 9524TIP3   OH228516   0.405   6.037   3.817
 9524TIP3    H128517   0.339   6.095   3.855
 9524TIP3    H228518   0.421   5.971   3.884
 9525TIP3   OH228519   6.580   7.572   4.011
 9525TIP3    H128520   6.526   7.603   4.084
 9525TIP3    H228521   6.658   7.535   4.053
 9526TIP3   OH228522   7.442   5.540   3.043
 9526TIP3    H128523   7.509   5.483   3.006
 9526TIP3    H228524   7.430   5.609   2.977
 9527TIP3   OH228525   3.118   4.537   2.089
 9527TIP3    H128526   3.179   4.520   2.161
 9527TIP3    H228527   3.051   4.594   2.128
 9528TIP3   OH228528   3.540   5.692   5.578
 9528TIP3    H128529   3.455   5.652   5.561
 9528TIP3    H228530   3.597   5.618   5.601
 9529TIP3   OH228531   3.369   5.163   6.088
 9529TIP3    H128532   3.326   5.084   6.121
 9529TIP3    H228533   3.316   5.235   6.121
 9530TIP3   OH228534   4.471   1.555   6.665
 9530TIP3    H128535   4.399   1.595   6.714
 9530TIP3    H228536   4.435   1.538   6.578
 9531TIP3   OH228537   6.885   4.826   3.490
 9531TIP3    H128538   6.857   4.741   3.522
 9531TIP3    H228539   6.969   4.842   3.534
 9532TIP3   OH228540   2.007   3.178   0.123
 9532TIP3    H128541   2.099   3.203   0.110
 9532TIP3    H228542   2.008   3.121   0.200
 9533TIP3   OH228543   6.373   3.200   2.568
 9533TIP3    H128544   6.331   3.120   2.538
 9533TIP3    H228545   6.445   3.170   2.624
 9534TIP3   OH228546   4.098   7.178   3.583
 9534TIP3    H128547   4.186   7.164   3.548
 9534TIP3    H228548   4.113   7.218   3.669
 9535TIP3   OH228549   1.202   6.915   2.193
 9535TIP3    H128550   1.193   6.820   2.188
 9535TIP3    H228551   1.251   6.930   2.274
 9536TIP3   OH228552   6.450  -0.009   3.339
 9536TIP3    H128553   6.447  -0.061   3.258
 9536TIP3    H228554   6.496   0.071   3.315
 9537TIP3   OH228555   6.441   2.936   3.948
 9537TIP3    H128556   6.367   2.891   3.989
 9537TIP3    H228557   6.497   2.960   4.022
 9538TIP3   OH228558   1.868   1.533   6.522
 9538TIP3    H128559   1.796   1.586   6.488
 9538TIP3    H228560   1.946   1.567   6.480
 9539TIP3   OH228561   0.256   6.179   0.125
 9539TIP3    H128562   0.291   6.264   0.100
 9539TIP3    H228563   0.324   6.116   0.101
 9540TIP3   OH228564   7.749   1.798   5.426
 9540TIP3    H128565   7.766   1.715   5.382
 9540TIP3    H228566   7.835   1.837   5.438
 9541TIP3   OH228567   1.245   6.954   4.377
 9541TIP3    H128568   1.178   6.895   4.409
 9541TIP3    H228569   1.318   6.944   4.439
 9542TIP3   OH228570   5.804   1.640   5.203
 9542TIP3    H128571   5.770   1.563   5.249
 9542TIP3    H228572   5.864   1.604   5.137
 9543TIP3   OH228573   7.375   0.222   3.836
 9543TIP3    H128574   7.284   0.231   3.866
 9543TIP3    H228575   7.389   0.128   3.831
 9544TIP3   OH228576   8.123   2.973   2.300
 9544TIP3    H128577   8.069   2.916   2.356
 9544TIP3    H228578   8.091   3.062   2.320
 9545TIP3   OH228579   4.954   2.082   2.081
 9545TIP3    H128580   5.027   2.045   2.131
 9545TIP3    H228581   4.969   2.052   1.991
 9546TIP3   OH228582   2.114   2.947   6.139
 9546TIP3    H128583   2.187   2.885   6.138
 9546TIP3    H228584   2.105   2.973   6.231
 9547TIP3   OH228585   0.009   4.623   5.591
 9547TIP3    H128586  -0.014   4.711   5.621
 9547TIP3    H228587   0.057   4.585   5.664
 9548TIP3   OH228588   5.333   7.467   3.462
 9548TIP3    H128589   5.383   7.447   3.541
 9548TIP3    H228590   5.328   7.385   3.414
 9549TIP3   OH228591   8.314   7.492   4.625
 9549TIP3    H128592   8.264   7.435   4.567
 9549TIP3    H228593   8.290   7.464   4.713
 9550TIP3   OH228594   1.435   5.349   5.865
 9550TIP3    H128595   1.481   5.320   5.786
 9550TIP3    H228596   1.474   5.297   5.935
 9551TIP3   OH228597   1.221   1.786   0.674
 9551TIP3    H128598   1.142   1.801   0.726
 9551TIP3    H228599   1.292   1.784   0.738
 9552TIP3   OH228600   7.416   3.937   1.941
 9552TIP3    H128601   7.471   3.863   1.969
 9552TIP3    H228602   7.327   3.909   1.962
 9553TIP3   OH228603   1.796   1.030   0.738
 9553TIP3    H128604   1.864   1.096   0.754
 9553TIP3    H228605   1.845   0.955   0.703
 9554TIP3   OH228606   0.907   4.875   0.056
 9554TIP3    H128607   0.857   4.797   0.030
 9554TIP3    H228608   0.948   4.905  -0.025
 9555TIP3   OH228609   1.669   1.862   0.104
 9555TIP3    H128610   1.628   1.860   0.191
 9555TIP3    H228611   1.759   1.891   0.121
 9556TIP3   OH228612   2.083   4.501   5.361
 9556TIP3    H128613   2.048   4.557   5.292
 9556TIP3    H228614   2.178   4.511   5.354
 9557TIP3   OH228615   7.658   1.440   1.970
 9557TIP3    H128616   7.566   1.465   1.974
 9557TIP3    H228617   7.665   1.385   1.892
 9558TIP3   OH228618   8.002   6.719   2.282
 9558TIP3    H128619   7.954   6.749   2.359
 9558TIP3    H228620   8.073   6.783   2.272
 9559TIP3   OH228621   2.285   1.264   2.479
 9559TIP3    H128622   2.316   1.349   2.513
 9559TIP3    H228623   2.331   1.199   2.532
 9560TIP3   OH228624   5.159   2.930   2.897
 9560TIP3    H128625   5.132   2.884   2.976
 9560TIP3    H228626   5.093   2.998   2.885
 9561TIP3   OH228627   5.341   7.771   4.083
 9561TIP3    H128628   5.305   7.858   4.070
 9561TIP3    H228629   5.268   7.718   4.115
 9562TIP3   OH228630   3.076   1.996   3.718
 9562TIP3    H128631   3.040   2.072   3.764
 9562TIP3    H228632   3.000   1.940   3.701
 9563TIP3   OH228633   6.585   3.081   1.609
 9563TIP3    H128634   6.679   3.081   1.593
 9563TIP3    H228635   6.555   3.167   1.581
 9564TIP3   OH228636   0.266   1.774   5.377
 9564TIP3    H128637   0.304   1.842   5.433
 9564TIP3    H228638   0.188   1.815   5.340
 9565TIP3   OH228639   2.258   1.595   0.781
 9565TIP3    H128640   2.167   1.623   0.781
 9565TIP3    H228641   2.291   1.619   0.694
 9566TIP3   OH228642   0.387   0.222   3.395
 9566TIP3    H128643   0.399   0.158   3.325
 9566TIP3    H228644   0.395   0.172   3.475
 9567TIP3   OH228645   5.472   6.123   5.345
 9567TIP3    H128646   5.379   6.137   5.324
 9567TIP3    H228647   5.482   6.155   5.434
 9568TIP3   OH228648   1.428   4.238   0.829
 9568TIP3    H128649   1.504   4.290   0.804
 9568TIP3    H228650   1.368   4.302   0.869
 9569TIP3   OH228651   7.941   2.832   1.523
 9569TIP3    H128652   8.021   2.881   1.503
 9569TIP3    H228653   7.957   2.793   1.609
 9570TIP3   OH228654   7.190   4.080   2.720
 9570TIP3    H128655   7.136   4.002   2.711
 9570TIP3    H228656   7.229   4.072   2.807
 9571TIP3   OH228657   7.962   6.488   0.982
 9571TIP3    H128658   7.902   6.534   0.924
 9571TIP3    H228659   8.025   6.554   1.010
 9572TIP3   OH228660   4.441   2.621   0.687
 9572TIP3    H128661   4.534   2.612   0.669
 9572TIP3    H228662   4.406   2.532   0.681
 9573TIP3   OH228663   3.053   0.020   4.440
 9573TIP3    H128664   2.977   0.051   4.489
 9573TIP3    H228665   3.017  -0.030   4.368
 9574TIP3   OH228666   3.876   7.380   1.357
 9574TIP3    H128667   3.951   7.404   1.303
 9574TIP3    H228668   3.900   7.297   1.396
 9575TIP3   OH228669   6.976   7.845   4.271
 9575TIP3    H128670   7.044   7.777   4.264
 9575TIP3    H228671   6.897   7.804   4.237
 9576TIP3   OH228672   5.197   6.659   3.767
 9576TIP3    H128673   5.239   6.620   3.843
 9576TIP3    H228674   5.266   6.666   3.701
 9577TIP3   OH228675   6.332   5.383   1.947
 9577TIP3    H128676   6.420   5.358   1.975
 9577TIP3    H228677   6.283   5.301   1.946
 9578TIP3   OH228678   2.446   4.629   4.234
 9578TIP3    H128679   2.469   4.572   4.307
 9578TIP3    H228680   2.526   4.677   4.214
 9579TIP3   OH228681   5.869   7.399   4.411
 9579TIP3    H128682   5.850   7.462   4.342
 9579TIP3    H228683   5.802   7.416   4.477
 9580TIP3   OH228684   4.551   7.717   6.336
 9580TIP3    H128685   4.545   7.623   6.324
 9580TIP3    H228686   4.598   7.728   6.419
 9581TIP3   OH228687   6.289   3.172   3.642
 9581TIP3    H128688   6.300   3.213   3.556
 9581TIP3    H228689   6.376   3.141   3.665
 9582TIP3   OH228690   5.836   0.933   4.762
 9582TIP3    H128691   5.908   0.977   4.718
 9582TIP3    H228692   5.876   0.896   4.841
 9583TIP3   OH228693   7.651   7.392   1.509
 9583TIP3    H128694   7.631   7.309   1.552
 9583TIP3    H228695   7.670   7.452   1.581
 9584TIP3   OH228696   8.265   0.881   6.633
 9584TIP3    H128697   8.292   0.973   6.625
 9584TIP3    H228698   8.308   0.850   6.713
 9585TIP3   OH228699   1.166   2.709   3.621
 9585TIP3    H128700   1.136   2.623   3.591
 9585TIP3    H228701   1.169   2.762   3.542
 9586TIP3   OH228702   1.269   3.097   0.932
 9586TIP3    H128703   1.306   3.030   0.875
 9586TIP3    H228704   1.308   3.179   0.901
 9587TIP3   OH228705   4.108   7.657   1.039
 9587TIP3    H128706   4.187   7.656   0.985
 9587TIP3    H228707   4.053   7.587   1.004
 9588TIP3   OH228708   6.994   0.791   5.008
 9588TIP3    H128709   6.972   0.884   5.014
 9588TIP3    H228710   7.089   0.788   5.014
 9589TIP3   OH228711   3.137   3.377   2.155
 9589TIP3    H128712   3.197   3.303   2.153
 9589TIP3    H228713   3.164   3.428   2.231
 9590TIP3   OH228714   7.373   2.884   4.969
 9590TIP3    H128715   7.422   2.817   4.921
 9590TIP3    H228716   7.427   2.963   4.963
 9591TIP3   OH228717   4.969   1.984   1.198
 9591TIP3    H128718   4.880   2.007   1.173
 9591TIP3    H228719   5.012   1.963   1.115
 9592TIP3   OH228720   0.423   2.197   3.863
 9592TIP3    H128721   0.423   2.271   3.923
 9592TIP3    H228722   0.460   2.125   3.913
 9593TIP3   OH228723   2.808   3.255   5.434
 9593TIP3    H128724   2.808   3.214   5.348
 9593TIP3    H228725   2.716   3.253   5.462
 9594TIP3   OH228726   0.620   4.983   5.027
 9594TIP3    H128727   0.583   5.062   4.989
 9594TIP3    H228728   0.705   5.010   5.061
 9595TIP3   OH228729   3.711   6.137   5.250
 9595TIP3    H128730   3.698   6.116   5.343
 9595TIP3    H228731   3.782   6.080   5.222
 9596TIP3   OH228732   2.154   3.516   6.479
 9596TIP3    H128733   2.220   3.580   6.452
 9596TIP3    H228734   2.173   3.439   6.425
 9597TIP3   OH228735   3.079   0.952   2.830
 9597TIP3    H128736   3.041   0.964   2.743
 9597TIP3    H228737   3.006   0.921   2.884
 9598TIP3   OH228738   7.912   6.997   4.022
 9598TIP3    H128739   8.005   7.018   4.029
 9598TIP3    H228740   7.868   7.079   4.044
 9599TIP3   OH228741   1.280   0.674   2.409
 9599TIP3    H128742   1.222   0.605   2.443
 9599TIP3    H228743   1.248   0.689   2.320
 9600TIP3   OH228744   3.235   5.096   0.074
 9600TIP3    H128745   3.272   5.149   0.004
 9600TIP3    H228746   3.141   5.092   0.055
 9601TIP3   OH228747   3.746   5.164   4.648
 9601TIP3    H128748   3.739   5.171   4.744
 9601TIP3    H228749   3.826   5.113   4.634
 9602TIP3   OH228750   4.434   6.541   0.091
 9602TIP3    H128751   4.382   6.560   0.169
 9602TIP3    H228752   4.441   6.626   0.047
 9603TIP3   OH228753   2.296   6.109   0.670
 9603TIP3    H128754   2.292   6.034   0.611
 9603TIP3    H228755   2.243   6.177   0.627
 9604TIP3   OH228756   1.735   2.417   0.439
 9604TIP3    H128757   1.674   2.491   0.430
 9604TIP3    H228758   1.726   2.390   0.530
 9605TIP3   OH228759   1.337   6.672   1.291
 9605TIP3    H128760   1.376   6.703   1.372
 9605TIP3    H228761   1.253   6.718   1.286
 9606TIP3   OH228762   5.888   4.947   0.396
 9606TIP3    H128763   5.800   4.979   0.416
 9606TIP3    H228764   5.897   4.960   0.301
 9607TIP3   OH228765   3.020   3.113   5.059
 9607TIP3    H128766   3.068   3.188   5.025
 9607TIP3    H228767   2.939   3.151   5.095
 9608TIP3   OH228768   0.772   3.412   2.169
 9608TIP3    H128769   0.804   3.414   2.079
 9608TIP3    H228770   0.835   3.358   2.216
 9609TIP3   OH228771   2.201   3.373   0.984
 9609TIP3    H128772   2.199   3.278   0.974
 9609TIP3    H228773   2.207   3.388   1.078
 9610TIP3   OH228774   6.244   1.039   2.148
 9610TIP3    H128775   6.238   1.062   2.241
 9610TIP3    H228776   6.300   0.962   2.146
 9611TIP3   OH228777   2.837   3.909   1.096
 9611TIP3    H128778   2.774   3.980   1.105
 9611TIP3    H228779   2.808   3.861   1.018
 9612TIP3   OH228780   7.953   2.560   1.040
 9612TIP3    H128781   7.941   2.626   0.972
 9612TIP3    H228782   7.864   2.528   1.057
 9613TIP3   OH228783   6.145   5.109   1.811
 9613TIP3    H128784   6.167   5.113   1.717
 9613TIP3    H228785   6.119   5.018   1.825
 9614TIP3   OH228786   4.120   1.244   3.846
 9614TIP3    H128787   4.124   1.151   3.825
 9614TIP3    H228788   4.029   1.268   3.829
 9615TIP3   OH228789   3.625   5.125   5.348
 9615TIP3    H128790   3.585   5.081   5.273
 9615TIP3    H228791   3.622   5.060   5.418
 9616TIP3   OH228792   4.946   2.255   0.634
 9616TIP3    H128793   5.020   2.207   0.672
 9616TIP3    H228794   4.912   2.196   0.567
 9617TIP3   OH228795   3.244   4.397   2.348
 9617TIP3    H128796   3.175   4.342   2.311
 9617TIP3    H228797   3.198   4.471   2.387
 9618TIP3   OH228798   6.495   3.045   0.290
 9618TIP3    H128799   6.539   3.054   0.205
 9618TIP3    H228800   6.561   3.071   0.354
 9619TIP3   OH228801   5.851   0.741   5.331
 9619TIP3    H128802   5.866   0.656   5.290
 9619TIP3    H228803   5.789   0.786   5.272
 9620TIP3   OH228804   0.982   6.733   4.626
 9620TIP3    H128805   0.891   6.738   4.598
 9620TIP3    H228806   1.031   6.711   4.547
 9621TIP3   OH228807   7.535   0.068   0.136
 9621TIP3    H128808   7.475   0.089   0.208
 9621TIP3    H228809   7.511  -0.022   0.112
 9622TIP3   OH228810   2.175   1.449   2.115
 9622TIP3    H128811   2.154   1.488   2.030
 9622TIP3    H228812   2.089   1.425   2.152
 9623TIP3   OH228813   7.021   1.888   1.159
 9623TIP3    H128814   7.113   1.896   1.186
 9623TIP3    H228815   7.019   1.921   1.070
 9624TIP3   OH228816   2.014   0.679   1.458
 9624TIP3    H128817   1.922   0.700   1.441
 9624TIP3    H228818   2.021   0.680   1.554
 9625TIP3   OH228819   2.827   1.215   1.969
 9625TIP3    H128820   2.875   1.258   1.899
 9625TIP3    H228821   2.735   1.231   1.948
 9626TIP3   OH228822   1.671   2.595   0.842
 9626TIP3    H128823   1.637   2.667   0.895
 9626TIP3    H228824   1.611   2.589   0.768
 9627TIP3   OH228825   5.430   7.112   6.568
 9627TIP3    H128826   5.399   7.087   6.655
 9627TIP3    H228827   5.374   7.186   6.544
 9628TIP3   OH228828   4.678   3.460   6.261
 9628TIP3    H128829   4.657   3.418   6.177
 9628TIP3    H228830   4.732   3.395   6.306
 9629TIP3   OH228831   2.365   4.083   3.901
 9629TIP3    H128832   2.280   4.106   3.939
 9629TIP3    H228833   2.416   4.052   3.976
 9630TIP3   OH228834   1.816   3.779   0.135
 9630TIP3    H128835   1.864   3.800   0.055
 9630TIP3    H228836   1.734   3.827   0.127
 9631TIP3   OH228837   2.306   3.977   5.244
 9631TIP3    H128838   2.331   3.975   5.152
 9631TIP3    H228839   2.316   4.069   5.269
 9632TIP3   OH228840   3.884   6.933   6.499
 9632TIP3    H128841   3.931   7.011   6.470
 9632TIP3    H228842   3.931   6.861   6.457
 9633TIP3   OH228843   6.987   3.240   6.052
 9633TIP3    H128844   6.968   3.215   5.961
 9633TIP3    H228845   6.907   3.284   6.082
 9634TIP3   OH228846   2.208   4.886   6.318
 9634TIP3    H128847   2.207   4.851   6.229
 9634TIP3    H228848   2.231   4.811   6.373
 9635TIP3   OH228849   6.717   1.275   4.294
 9635TIP3    H128850   6.787   1.218   4.324
 9635TIP3    H228851   6.714   1.346   4.358
 9636TIP3   OH228852   0.153   1.586   1.402
 9636TIP3    H128853   0.166   1.515   1.339
 9636TIP3    H228854   0.178   1.548   1.486
 9637TIP3   OH228855   5.529   1.965   4.762
 9637TIP3    H128856   5.547   1.985   4.853
 9637TIP3    H228857   5.433   1.967   4.755
 9638TIP3   OH228858   7.477   6.763   2.019
 9638TIP3    H128859   7.390   6.739   1.986
 9638TIP3    H228860   7.491   6.852   1.986
 9639TIP3   OH228861   1.401   1.677   0.885
 9639TIP3    H128862   1.403   1.624   0.805
 9639TIP3    H228863   1.489   1.669   0.921
 9640TIP3   OH228864   0.199   0.169   1.589
 9640TIP3    H128865   0.245   0.217   1.520
 9640TIP3    H228866   0.118   0.139   1.548
 9641TIP3   OH228867   2.380   4.852   0.724
 9641TIP3    H128868   2.469   4.875   0.699
 9641TIP3    H228869   2.388   4.817   0.813
 9642TIP3   OH228870   7.571   1.741   2.332
 9642TIP3    H128871   7.556   1.831   2.362
 9642TIP3    H228872   7.484   1.701   2.332
 9643TIP3   OH228873   0.491   0.624   2.400
 9643TIP3    H128874   0.569   0.573   2.421
 9643TIP3    H228875   0.496   0.638   2.305
 9644TIP3   OH228876   1.573   2.188   0.184
 9644TIP3    H128877   1.487   2.209   0.220
 9644TIP3    H228878   1.611   2.274   0.163
 9645TIP3   OH228879   3.333   6.941   2.496
 9645TIP3    H128880   3.394   6.993   2.444
 9645TIP3    H228881   3.324   6.988   2.578
 9646TIP3   OH228882   2.817   4.028   4.808
 9646TIP3    H128883   2.751   4.006   4.874
 9646TIP3    H228884   2.849   3.944   4.776
 9647TIP3   OH228885   5.290   6.113   3.288
 9647TIP3    H128886   5.265   6.196   3.330
 9647TIP3    H228887   5.370   6.087   3.333
 9648TIP3   OH228888   6.167   3.466   0.717
 9648TIP3    H128889   6.260   3.444   0.708
 9648TIP3    H228890   6.121   3.386   0.692
 9649TIP3   OH228891   2.295   0.720   0.508
 9649TIP3    H128892   2.229   0.692   0.573
 9649TIP3    H228893   2.350   0.643   0.496
 9650TIP3   OH228894   0.970   0.789   3.240
 9650TIP3    H128895   0.879   0.805   3.215
 9650TIP3    H228896   1.002   0.726   3.174
 9651TIP3   OH228897   2.205   6.542   4.604
 9651TIP3    H128898   2.233   6.581   4.687
 9651TIP3    H228899   2.234   6.603   4.537
 9652TIP3   OH228900   3.569   5.036   2.074
 9652TIP3    H128901   3.540   5.004   2.159
 9652TIP3    H228902   3.511   5.110   2.055
 9653TIP3   OH228903   5.816   5.860   4.465
 9653TIP3    H128904   5.749   5.805   4.505
 9653TIP3    H228905   5.898   5.832   4.505
 9654TIP3   OH228906   6.142   5.122   0.373
 9654TIP3    H128907   6.165   5.110   0.465
 9654TIP3    H228908   6.062   5.069   0.362
 9655TIP3   OH228909   7.296   0.934   6.057
 9655TIP3    H128910   7.209   0.906   6.084
 9655TIP3    H228911   7.331   0.862   6.005
 9656TIP3   OH228912   5.297   3.742   0.468
 9656TIP3    H128913   5.323   3.672   0.528
 9656TIP3    H228914   5.255   3.696   0.395
 9657TIP3   OH228915   3.281   0.131   5.368
 9657TIP3    H128916   3.317   0.044   5.351
 9657TIP3    H228917   3.353   0.192   5.351
 9658TIP3   OH228918   4.624   2.268   5.013
 9658TIP3    H128919   4.688   2.270   4.942
 9658TIP3    H228920   4.555   2.210   4.982
 9659TIP3   OH228921   8.173   4.858   1.381
 9659TIP3    H128922   8.086   4.853   1.341
 9659TIP3    H228923   8.180   4.778   1.433
 9660TIP3   OH228924   6.300   7.819   5.871
 9660TIP3    H128925   6.276   7.895   5.925
 9660TIP3    H228926   6.284   7.744   5.928
 9661TIP3   OH228927   8.268   1.072   0.693
 9661TIP3    H128928   8.272   1.085   0.599
 9661TIP3    H228929   8.211   1.142   0.725
 9662TIP3   OH228930   7.146   7.677   4.552
 9662TIP3    H128931   7.225   7.668   4.606
 9662TIP3    H228932   7.133   7.590   4.514
 9663TIP3   OH228933   0.005   6.448   2.345
 9663TIP3    H128934  -0.031   6.489   2.424
 9663TIP3    H228935   0.071   6.387   2.378
 9664TIP3   OH228936   8.091   6.143   5.118
 9664TIP3    H128937   8.054   6.146   5.030
 9664TIP3    H228938   8.133   6.229   5.129
 9665TIP3   OH228939   6.011   6.775   3.842
 9665TIP3    H128940   6.010   6.828   3.921
 9665TIP3    H228941   5.968   6.693   3.868
 9666TIP3   OH228942   1.154   0.956   4.337
 9666TIP3    H128943   1.101   0.904   4.277
 9666TIP3    H228944   1.161   0.902   4.416
 9667TIP3   OH228945   0.658   5.048   5.430
 9667TIP3    H128946   0.637   5.111   5.499
 9667TIP3    H228947   0.737   5.083   5.389
 9668TIP3   OH228948   0.577   6.682   6.591
 9668TIP3    H128949   0.539   6.664   6.505
 9668TIP3    H228950   0.587   6.596   6.631
 9669TIP3   OH228951   0.397   7.797   3.992
 9669TIP3    H128952   0.368   7.782   3.902
 9669TIP3    H228953   0.413   7.892   3.996
 9670TIP3   OH228954   6.503   2.499   4.191
 9670TIP3    H128955   6.414   2.488   4.157
 9670TIP3    H228956   6.559   2.452   4.130
 9671TIP3   OH228957   6.748   6.958   6.631
 9671TIP3    H128958   6.765   6.880   6.684
 9671TIP3    H228959   6.806   6.949   6.555
 9672TIP3   OH228960   7.583   6.472   2.073
 9672TIP3    H128961   7.580   6.477   1.977
 9672TIP3    H228962   7.578   6.563   2.102
 9673TIP3   OH228963   5.391   2.599   4.858
 9673TIP3    H128964   5.422   2.670   4.914
 9673TIP3    H228965   5.464   2.538   4.854
 9674TIP3   OH228966   0.430   0.095   5.055
 9674TIP3    H128967   0.394   0.047   5.130
 9674TIP3    H228968   0.409   0.186   5.073
 9675TIP3   OH228969   3.544   0.513   0.112
 9675TIP3    H128970   3.541   0.467   0.196
 9675TIP3    H228971   3.484   0.587   0.123
 9676TIP3   OH228972   3.362   5.660   0.350
 9676TIP3    H128973   3.438   5.690   0.301
 9676TIP3    H228974   3.304   5.736   0.352
 9677TIP3   OH228975   2.484   5.005   1.758
 9677TIP3    H128976   2.468   5.070   1.690
 9677TIP3    H228977   2.520   4.929   1.712
 9678TIP3   OH228978   1.482   2.120   0.800
 9678TIP3    H128979   1.423   2.093   0.871
 9678TIP3    H228980   1.522   2.038   0.770
 9679TIP3   OH228981   4.040   4.860   3.713
 9679TIP3    H128982   4.055   4.929   3.778
 9679TIP3    H228983   3.956   4.821   3.739
 9680TIP3   OH228984   2.283   6.419   1.790
 9680TIP3    H128985   2.373   6.421   1.757
 9680TIP3    H228986   2.284   6.352   1.858
 9681TIP3   OH228987   7.060   7.036   6.124
 9681TIP3    H128988   7.137   6.979   6.128
 9681TIP3    H228989   6.999   6.998   6.187
 9682TIP3   OH228990   3.106   5.171   1.551
 9682TIP3    H128991   3.045   5.115   1.503
 9682TIP3    H228992   3.175   5.112   1.581
 9683TIP3   OH228993   8.246   5.267   6.365
 9683TIP3    H128994   8.195   5.192   6.337
 9683TIP3    H228995   8.246   5.262   6.461
 9684TIP3   OH228996   3.826   2.518   1.962
 9684TIP3    H128997   3.881   2.543   2.036
 9684TIP3    H228998   3.873   2.447   1.919
 9685TIP3   OH228999   4.319   2.507   4.545
 9685TIP3    H129000   4.410   2.529   4.526
 9685TIP3    H229001   4.303   2.547   4.631
 9686TIP3   OH229002   0.986   4.582   1.651
 9686TIP3    H129003   1.079   4.601   1.642
 9686TIP3    H229004   0.980   4.529   1.731
 9687TIP3   OH229005   6.136   4.659   3.903
 9687TIP3    H129006   6.191   4.736   3.917
 9687TIP3    H229007   6.128   4.619   3.990
 9688TIP3   OH229008   1.341   5.335   4.228
 9688TIP3    H129009   1.328   5.241   4.240
 9688TIP3    H229010   1.393   5.341   4.148
 9689TIP3   OH229011   5.355   5.607   6.690
 9689TIP3    H129012   5.407   5.566   6.758
 9689TIP3    H229013   5.385   5.566   6.609
 9690TIP3   OH229014   6.270   0.621   4.603
 9690TIP3    H129015   6.352   0.579   4.628
 9690TIP3    H229016   6.201   0.566   4.640
 9691TIP3   OH229017   7.248   0.561   2.830
 9691TIP3    H129018   7.252   0.655   2.811
 9691TIP3    H229019   7.340   0.533   2.832
 9692TIP3   OH229020   1.112   4.383   4.268
 9692TIP3    H129021   1.046   4.317   4.289
 9692TIP3    H229022   1.105   4.395   4.173
 9693TIP3   OH229023   1.542   4.531   3.038
 9693TIP3    H129024   1.588   4.447   3.038
 9693TIP3    H229025   1.579   4.579   2.963
 9694TIP3   OH229026   2.320   3.348   1.954
 9694TIP3    H129027   2.260   3.415   1.986
 9694TIP3    H229028   2.384   3.397   1.901
 9695TIP3   OH229029   7.449   2.897   2.184
 9695TIP3    H129030   7.503   2.927   2.111
 9695TIP3    H229031   7.483   2.809   2.204
 9696TIP3   OH229032   2.760   2.655   6.038
 9696TIP3    H129033   2.677   2.628   6.079
 9696TIP3    H229034   2.820   2.667   6.111
 9697TIP3   OH229035   4.375   1.929   4.433
 9697TIP3    H129036   4.428   1.853   4.408
 9697TIP3    H229037   4.339   1.962   4.351
 9698TIP3   OH229038   5.377   5.739   3.652
 9698TIP3    H129039   5.282   5.728   3.663
 9698TIP3    H229040   5.414   5.718   3.738
 9699TIP3   OH229041   1.414   4.620   0.701
 9699TIP3    H129042   1.424   4.528   0.675
 9699TIP3    H229043   1.500   4.659   0.687
 9700TIP3   OH229044   1.298   4.766   3.722
 9700TIP3    H129045   1.325   4.803   3.638
 9700TIP3    H229046   1.381   4.743   3.765
 9701TIP3   OH229047   1.906   6.480   0.127
 9701TIP3    H129048   1.827   6.529   0.152
 9701TIP3    H229049   1.959   6.544   0.079
 9702TIP3   OH229050   5.173   6.194   4.393
 9702TIP3    H129051   5.253   6.147   4.370
 9702TIP3    H229052   5.103   6.145   4.351
 9703TIP3   OH229053   2.634   7.117   2.658
 9703TIP3    H129054   2.682   7.083   2.582
 9703TIP3    H229055   2.555   7.063   2.662
 9704TIP3   OH229056   7.373   4.305   4.785
 9704TIP3    H129057   7.443   4.329   4.725
 9704TIP3    H229058   7.388   4.359   4.863
 9705TIP3   OH229059   3.250   5.282   6.526
 9705TIP3    H129060   3.175   5.224   6.540
 9705TIP3    H229061   3.273   5.313   6.613
 9706TIP3   OH229062   5.467   1.809   1.750
 9706TIP3    H129063   5.559   1.798   1.772
 9706TIP3    H229064   5.467   1.869   1.676
 9707TIP3   OH229065   2.980   5.421   1.554
 9707TIP3    H129066   2.911   5.365   1.519
 9707TIP3    H229067   3.052   5.361   1.575
 9708TIP3   OH229068   6.731   3.415   2.945
 9708TIP3    H129069   6.683   3.446   2.869
 9708TIP3    H229070   6.683   3.451   3.020
 9709TIP3   OH229071   0.589   2.901   0.338
 9709TIP3    H129072   0.634   2.818   0.319
 9709TIP3    H229073   0.577   2.942   0.253
 9710TIP3   OH229074   7.717   1.764   1.374
 9710TIP3    H129075   7.758   1.851   1.372
 9710TIP3    H229076   7.640   1.775   1.430
 9711TIP3   OH229077   2.599   3.033   3.102
 9711TIP3    H129078   2.618   3.048   3.009
 9711TIP3    H229079   2.656   2.960   3.127
 9712TIP3   OH229080   3.076   5.686   1.587
 9712TIP3    H129081   3.146   5.668   1.650
 9712TIP3    H229082   3.029   5.603   1.579
 9713TIP3   OH229083   3.538   2.150   5.937
 9713TIP3    H129084   3.630   2.172   5.950
 9713TIP3    H229085   3.489   2.222   5.977
 9714TIP3   OH229086   3.543   4.600   0.547
 9714TIP3    H129087   3.618   4.624   0.602
 9714TIP3    H229088   3.479   4.565   0.609
 9715TIP3   OH229089   0.101   3.609   5.511
 9715TIP3    H129090   0.146   3.547   5.453
 9715TIP3    H229091   0.165   3.631   5.578
 9716TIP3   OH229092   1.904   7.502   3.679
 9716TIP3    H129093   1.966   7.498   3.751
 9716TIP3    H229094   1.820   7.520   3.722
 9717TIP3   OH229095   6.463   6.308   5.123
 9717TIP3    H129096   6.488   6.220   5.095
 9717TIP3    H229097   6.368   6.312   5.111
 9718TIP3   OH229098   0.548   4.345   1.544
 9718TIP3    H129099   0.485   4.329   1.473
 9718TIP3    H229100   0.524   4.432   1.578
 9719TIP3   OH229101   7.476   1.451   0.443
 9719TIP3    H129102   7.446   1.542   0.449
 9719TIP3    H229103   7.446   1.421   0.357
 9720TIP3   OH229104   1.728   2.310   6.534
 9720TIP3    H129105   1.713   2.276   6.622
 9720TIP3    H229106   1.701   2.401   6.538
 9721TIP3   OH229107   3.582   5.715   5.133
 9721TIP3    H129108   3.518   5.701   5.064
 9721TIP3    H229109   3.579   5.635   5.185
 9722TIP3   OH229110   7.593   0.199   2.066
 9722TIP3    H129111   7.535   0.267   2.100
 9722TIP3    H229112   7.581   0.202   1.971
 9723TIP3   OH229113   2.840   2.595   0.523
 9723TIP3    H129114   2.862   2.669   0.468
 9723TIP3    H229115   2.825   2.523   0.462
 9724TIP3   OH229116   2.586   3.603   1.540
 9724TIP3    H129117   2.524   3.569   1.475
 9724TIP3    H229118   2.672   3.581   1.505
 9725TIP3   OH229119   4.414   3.723   3.818
 9725TIP3    H129120   4.398   3.815   3.796
 9725TIP3    H229121   4.501   3.705   3.783
 9726TIP3   OH229122   6.765   5.019   3.347
 9726TIP3    H129123   6.721   5.086   3.398
 9726TIP3    H229124   6.787   4.951   3.410
 9727TIP3   OH229125   5.275   4.222   4.475
 9727TIP3    H129126   5.303   4.174   4.397
 9727TIP3    H229127   5.326   4.184   4.546
 9728TIP3   OH229128   3.638   6.207   4.209
 9728TIP3    H129129   3.577   6.255   4.265
 9728TIP3    H229130   3.658   6.128   4.258
 9729TIP3   OH229131   3.480   0.320   4.631
 9729TIP3    H129132   3.544   0.261   4.591
 9729TIP3    H229133   3.431   0.264   4.692
 9730TIP3   OH229134   4.712   3.177   3.896
 9730TIP3    H129135   4.649   3.152   3.963
 9730TIP3    H229136   4.660   3.225   3.831
 9731TIP3   OH229137   7.671   0.369   4.876
 9731TIP3    H129138   7.615   0.446   4.873
 9731TIP3    H229139   7.651   0.328   4.961
 9732TIP3   OH229140   3.347   4.735   1.044
 9732TIP3    H129141   3.383   4.647   1.032
 9732TIP3    H229142   3.253   4.724   1.033
 9733TIP3   OH229143   7.411   1.446   5.925
 9733TIP3    H129144   7.392   1.391   6.001
 9733TIP3    H229145   7.492   1.409   5.889
 9734TIP3   OH229146   3.032   7.028   2.600
 9734TIP3    H129147   3.047   7.050   2.508
 9734TIP3    H229148   3.112   7.056   2.644
 9735TIP3   OH229149   5.937   7.240   0.474
 9735TIP3    H129150   5.974   7.236   0.562
 9735TIP3    H229151   5.955   7.154   0.436
 9736TIP3   OH229152   7.949   1.925   4.345
 9736TIP3    H129153   8.035   1.910   4.306
 9736TIP3    H229154   7.899   1.846   4.322
 9737TIP3   OH229155   1.149   6.454   4.322
 9737TIP3    H129156   1.215   6.406   4.371
 9737TIP3    H229157   1.068   6.404   4.336
 9738TIP3   OH229158   7.683   7.734   1.921
 9738TIP3    H129159   7.637   7.666   1.873
 9738TIP3    H229160   7.705   7.800   1.854
 9739TIP3   OH229161   6.263   4.178   0.923
 9739TIP3    H129162   6.245   4.177   0.828
 9739TIP3    H229163   6.346   4.132   0.932
 9740TIP3   OH229164   8.192   5.515   3.580
 9740TIP3    H129165   8.235   5.453   3.521
 9740TIP3    H229166   8.198   5.475   3.666
 9741TIP3   OH229167   2.161   3.888   2.550
 9741TIP3    H129168   2.122   3.975   2.551
 9741TIP3    H229169   2.133   3.847   2.631
 9742TIP3   OH229170   5.567   2.604   1.029
 9742TIP3    H129171   5.565   2.673   1.095
 9742TIP3    H229172   5.475   2.582   1.015
 9743TIP3   OH229173   6.761   3.151   2.954
 9743TIP3    H129174   6.761   3.246   2.951
 9743TIP3    H229175   6.852   3.127   2.972
 9744TIP3   OH229176   2.010   5.258   3.398
 9744TIP3    H129177   1.987   5.201   3.472
 9744TIP3    H229178   2.104   5.271   3.405
 9745TIP3   OH229179   0.883   1.352   5.532
 9745TIP3    H129180   0.854   1.264   5.554
 9745TIP3    H229181   0.892   1.351   5.437
 9746TIP3   OH229182   4.980   7.458   0.600
 9746TIP3    H129183   5.008   7.423   0.685
 9746TIP3    H229184   5.040   7.419   0.537
 9747TIP3   OH229185   2.207   5.493   3.700
 9747TIP3    H129186   2.252   5.533   3.774
 9747TIP3    H229187   2.178   5.566   3.646
 9748TIP3   OH229188   1.172   1.204   4.203
 9748TIP3    H129189   1.169   1.131   4.264
 9748TIP3    H229190   1.085   1.244   4.209
 9749TIP3   OH229191   6.688   7.586   5.448
 9749TIP3    H129192   6.667   7.630   5.530
 9749TIP3    H229193   6.652   7.498   5.458
 9750TIP3   OH229194   2.581   7.397   2.967
 9750TIP3    H129195   2.504   7.341   2.961
 9750TIP3    H229196   2.614   7.402   2.877
 9751TIP3   OH229197   4.408   1.628   0.187
 9751TIP3    H129198   4.390   1.552   0.243
 9751TIP3    H229199   4.437   1.589   0.104
 9752TIP3   OH229200   7.007   2.574   3.838
 9752TIP3    H129201   7.102   2.565   3.827
 9752TIP3    H229202   6.991   2.668   3.829
 9753TIP3   OH229203   0.732   1.077   5.595
 9753TIP3    H129204   0.680   1.158   5.598
 9753TIP3    H229205   0.763   1.072   5.505
 9754TIP3   OH229206   8.277   3.463   1.742
 9754TIP3    H129207   8.284   3.429   1.831
 9754TIP3    H229208   8.189   3.501   1.737
 9755TIP3   OH229209   3.126   6.359   5.863
 9755TIP3    H129210   3.054   6.329   5.808
 9755TIP3    H229211   3.204   6.322   5.822
 9756TIP3   OH229212   7.926   2.836   5.292
 9756TIP3    H129213   7.913   2.923   5.254
 9756TIP3    H229214   7.868   2.835   5.368
 9757TIP3   OH229215   7.811   4.238   0.497
 9757TIP3    H129216   7.830   4.188   0.418
 9757TIP3    H229217   7.848   4.325   0.481
 9758TIP3   OH229218   1.093   7.577   4.413
 9758TIP3    H129219   1.183   7.545   4.411
 9758TIP3    H229220   1.091   7.647   4.347
 9759TIP3   OH229221   7.065   0.109   1.332
 9759TIP3    H129222   7.106   0.097   1.247
 9759TIP3    H229223   7.086   0.029   1.381
 9760TIP3   OH229224   2.283   5.617   1.812
 9760TIP3    H129225   2.334   5.537   1.815
 9760TIP3    H229226   2.347   5.687   1.826
 9761TIP3   OH229227   2.595   1.314   1.810
 9761TIP3    H129228   2.581   1.239   1.752
 9761TIP3    H229229   2.680   1.350   1.783
 9762TIP3   OH229230   3.477   0.743   5.031
 9762TIP3    H129231   3.442   0.763   4.945
 9762TIP3    H229232   3.404   0.704   5.079
 9763TIP3   OH229233   6.178   1.448   3.342
 9763TIP3    H129234   6.086   1.428   3.358
 9763TIP3    H229235   6.219   1.444   3.429
 9764TIP3   OH229236   4.908   1.239   0.822
 9764TIP3    H129237   4.963   1.318   0.822
 9764TIP3    H229238   4.819   1.271   0.829
 9765TIP3   OH229239   6.857   2.626   6.010
 9765TIP3    H129240   6.869   2.575   5.930
 9765TIP3    H229241   6.820   2.709   5.981
 9766TIP3   OH229242   1.062   3.316   4.120
 9766TIP3    H129243   1.050   3.403   4.157
 9766TIP3    H229244   1.071   3.258   4.196
 9767TIP3   OH229245   1.941   7.327   2.644
 9767TIP3    H129246   1.899   7.253   2.687
 9767TIP3    H229247   2.012   7.287   2.593
 9768TIP3   OH229248   7.757   3.803   2.001
 9768TIP3    H129249   7.744   3.800   1.906
 9768TIP3    H229250   7.726   3.717   2.032
 9769TIP3   OH229251   5.114   1.730   6.660
 9769TIP3    H129252   5.146   1.816   6.688
 9769TIP3    H229253   5.191   1.687   6.622
 9770TIP3   OH229254   5.787   0.489   1.741
 9770TIP3    H129255   5.735   0.526   1.812
 9770TIP3    H229256   5.833   0.564   1.703
 9771TIP3   OH229257   7.771   2.908   5.027
 9771TIP3    H129258   7.721   2.984   4.996
 9771TIP3    H229259   7.861   2.939   5.034
 9772TIP3   OH229260   5.559   3.587   4.317
 9772TIP3    H129261   5.479   3.637   4.301
 9772TIP3    H229262   5.548   3.508   4.264
 9773TIP3   OH229263   1.135   4.911   0.201
 9773TIP3    H129264   1.049   4.903   0.159
 9773TIP3    H229265   1.183   4.834   0.170
 9774TIP3   OH229266   3.622   1.810   3.838
 9774TIP3    H129267   3.623   1.756   3.917
 9774TIP3    H229268   3.631   1.900   3.871
 9775TIP3   OH229269   4.742   2.997   1.660
 9775TIP3    H129270   4.692   2.972   1.738
 9775TIP3    H229271   4.825   2.950   1.668
 9776TIP3   OH229272   3.657   7.038   2.188
 9776TIP3    H129273   3.672   6.960   2.136
 9776TIP3    H229274   3.635   7.005   2.275
 9777TIP3   OH229275   7.997   2.854   5.713
 9777TIP3    H129276   7.946   2.860   5.633
 9777TIP3    H229277   8.081   2.894   5.692
 9778TIP3   OH229278   6.558   6.589   5.632
 9778TIP3    H129279   6.585   6.614   5.543
 9778TIP3    H229280   6.595   6.657   5.688
 9779TIP3   OH229281   4.955   0.013   0.735
 9779TIP3    H129282   4.994  -0.006   0.650
 9779TIP3    H229283   5.015   0.077   0.775
 9780TIP3   OH229284   6.489   4.563   6.089
 9780TIP3    H129285   6.404   4.581   6.050
 9780TIP3    H229286   6.516   4.646   6.128
 9781TIP3   OH229287   1.532   1.560   0.248
 9781TIP3    H129288   1.522   1.536   0.155
 9781TIP3    H229289   1.472   1.500   0.294
 9782TIP3   OH229290   8.006   5.535   0.913
 9782TIP3    H129291   8.061   5.611   0.933
 9782TIP3    H229292   8.066   5.460   0.917
 9783TIP3   OH229293   6.378   0.336   3.846
 9783TIP3    H129294   6.395   0.293   3.930
 9783TIP3    H229295   6.313   0.281   3.803
 9784TIP3   OH229296   1.064   7.621   2.529
 9784TIP3    H129297   1.139   7.658   2.484
 9784TIP3    H229298   1.085   7.629   2.622
 9785TIP3   OH229299   1.150   3.210   0.511
 9785TIP3    H129300   1.203   3.261   0.573
 9785TIP3    H229301   1.066   3.199   0.555
 9786TIP3   OH229302   7.664   6.655   3.348
 9786TIP3    H129303   7.618   6.611   3.419
 9786TIP3    H229304   7.754   6.622   3.353
 9787TIP3   OH229305   6.869   0.868   4.398
 9787TIP3    H129306   6.798   0.856   4.462
 9787TIP3    H229307   6.878   0.782   4.357
 9788TIP3   OH229308   8.041   2.688   4.711
 9788TIP3    H129309   8.013   2.702   4.802
 9788TIP3    H229310   7.975   2.629   4.675
 9789TIP3   OH229311   3.309   5.660   5.252
 9789TIP3    H129312   3.295   5.588   5.314
 9789TIP3    H229313   3.324   5.617   5.168
 9790TIP3   OH229314   6.866   0.435   2.324
 9790TIP3    H129315   6.911   0.366   2.372
 9790TIP3    H229316   6.921   0.512   2.336
 9791TIP3   OH229317   1.514   3.912   0.075
 9791TIP3    H129318   1.456   3.855   0.025
 9791TIP3    H229319   1.554   3.969   0.009
 9792TIP3   OH229320   7.629   0.224   0.980
 9792TIP3    H129321   7.615   0.318   0.995
 9792TIP3    H229322   7.567   0.181   1.039
 9793TIP3   OH229323   7.580   4.127   1.826
 9793TIP3    H129324   7.512   4.185   1.793
 9793TIP3    H229325   7.533   4.052   1.861
 9794TIP3   OH229326   3.553   0.956   5.939
 9794TIP3    H129327   3.459   0.938   5.946
 9794TIP3    H229328   3.565   1.037   5.988
 9795TIP3   OH229329   3.252   0.717   1.538
 9795TIP3    H129330   3.232   0.784   1.473
 9795TIP3    H229331   3.180   0.654   1.530
 9796TIP3   OH229332   6.926   7.339   0.079
 9796TIP3    H129333   6.857   7.372   0.137
 9796TIP3    H229334   6.892   7.352  -0.009
 9797TIP3   OH229335   6.197   5.552   4.017
 9797TIP3    H129336   6.236   5.509   3.941
 9797TIP3    H229337   6.150   5.482   4.063
 9798TIP3   OH229338   3.226   3.053   2.781
 9798TIP3    H129339   3.181   2.970   2.799
 9798TIP3    H229340   3.157   3.119   2.781
 9799TIP3   OH229341   1.904   7.055   2.474
 9799TIP3    H129342   1.968   7.030   2.540
 9799TIP3    H229343   1.948   7.041   2.390
 9800TIP3   OH229344   2.565   4.543   2.677
 9800TIP3    H129345   2.589   4.632   2.650
 9800TIP3    H229346   2.621   4.486   2.623
 9801TIP3   OH229347   7.225   5.203   2.462
 9801TIP3    H129348   7.314   5.231   2.443
 9801TIP3    H229349   7.236   5.129   2.523
 9802TIP3   OH229350   7.521   6.310   5.994
 9802TIP3    H129351   7.522   6.344   6.084
 9802TIP3    H229352   7.495   6.386   5.940
 9803TIP3   OH229353   2.283   2.067   1.506
 9803TIP3    H129354   2.260   2.027   1.589
 9803TIP3    H229355   2.230   2.147   1.502
 9804TIP3   OH229356   3.885   4.380   3.912
 9804TIP3    H129357   3.905   4.467   3.879
 9804TIP3    H229358   3.798   4.360   3.877
 9805TIP3   OH229359   6.080   1.903   5.812
 9805TIP3    H129360   6.131   1.823   5.825
 9805TIP3    H229361   6.023   1.882   5.737
 9806TIP3   OH229362   2.865   7.291   4.472
 9806TIP3    H129363   2.879   7.201   4.444
 9806TIP3    H229364   2.953   7.326   4.488
 9807TIP3   OH229365   4.190   4.359   4.003
 9807TIP3    H129366   4.108   4.372   4.050
 9807TIP3    H229367   4.188   4.424   3.932
 9808TIP3   OH229368   5.546   2.259   4.099
 9808TIP3    H129369   5.593   2.233   4.178
 9808TIP3    H229370   5.612   2.259   4.030
 9809TIP3   OH229371   1.465   5.105   0.406
 9809TIP3    H129372   1.555   5.083   0.383
 9809TIP3    H229373   1.424   5.022   0.428
 9810TIP3   OH229374   2.614   1.345   6.074
 9810TIP3    H129375   2.694   1.301   6.048
 9810TIP3    H229376   2.548   1.313   6.012
 9811TIP3   OH229377   2.107   5.188   6.269
 9811TIP3    H129378   2.198   5.161   6.276
 9811TIP3    H229379   2.080   5.162   6.181
 9812TIP3   OH229380   7.367   3.159   1.134
 9812TIP3    H129381   7.389   3.085   1.192
 9812TIP3    H229382   7.278   3.183   1.159
 9813TIP3   OH229383   5.144   7.736   0.346
 9813TIP3    H129384   5.227   7.704   0.310
 9813TIP3    H229385   5.114   7.801   0.282
 9814TIP3   OH229386   3.633   2.800   5.658
 9814TIP3    H129387   3.690   2.791   5.582
 9814TIP3    H229388   3.683   2.854   5.720
 9815TIP3   OH229389   5.261   5.700   5.599
 9815TIP3    H129390   5.266   5.712   5.504
 9815TIP3    H229391   5.187   5.753   5.626
 9816TIP3   OH229392   3.775   2.684   5.419
 9816TIP3    H129393   3.841   2.650   5.359
 9816TIP3    H229394   3.732   2.755   5.371
 9817TIP3   OH229395   4.178   5.549   3.388
 9817TIP3    H129396   4.160   5.628   3.439
 9817TIP3    H229397   4.174   5.578   3.297
 9818TIP3   OH229398   5.494   1.448   4.748
 9818TIP3    H129399   5.535   1.526   4.711
 9818TIP3    H229400   5.564   1.382   4.746
 9819TIP3   OH229401   7.939   4.920   2.999
 9819TIP3    H129402   7.867   4.914   2.936
 9819TIP3    H229403   7.900   4.895   3.082
 9820TIP3   OH229404   5.205   2.341   0.916
 9820TIP3    H129405   5.176   2.297   0.996
 9820TIP3    H229406   5.258   2.275   0.871
 9821TIP3   OH229407   7.981   4.152   3.465
 9821TIP3    H129408   8.068   4.116   3.486
 9821TIP3    H229409   7.996   4.216   3.396
 9822TIP3   OH229410   2.049   2.693   5.429
 9822TIP3    H129411   2.144   2.699   5.419
 9822TIP3    H229412   2.017   2.673   5.341
 9823TIP3   OH229413   1.120   7.647   0.896
 9823TIP3    H129414   1.055   7.604   0.952
 9823TIP3    H229415   1.135   7.732   0.937
 9824TIP3   OH229416   1.200   4.022   1.172
 9824TIP3    H129417   1.284   4.049   1.135
 9824TIP3    H229418   1.152   4.104   1.185
 9825TIP3   OH229419   1.023   1.621   3.633
 9825TIP3    H129420   1.111   1.606   3.600
 9825TIP3    H229421   0.965   1.582   3.568
 9826TIP3   OH229422   2.438   0.263   1.015
 9826TIP3    H129423   2.436   0.182   1.066
 9826TIP3    H229424   2.479   0.327   1.074
 9827TIP3   OH229425   2.429   5.444   5.519
 9827TIP3    H129426   2.471   5.359   5.509
 9827TIP3    H229427   2.502   5.506   5.519
 9828TIP3   OH229428   0.587   2.389   6.367
 9828TIP3    H129429   0.653   2.444   6.410
 9828TIP3    H229430   0.593   2.305   6.413
 9829TIP3   OH229431   0.461   7.153   0.864
 9829TIP3    H129432   0.489   7.063   0.845
 9829TIP3    H229433   0.369   7.155   0.838
 9830TIP3   OH229434   6.601   3.571   1.740
 9830TIP3    H129435   6.640   3.640   1.686
 9830TIP3    H229436   6.666   3.553   1.807
 9831TIP3   OH229437   5.794   6.148   1.428
 9831TIP3    H129438   5.866   6.145   1.365
 9831TIP3    H229439   5.771   6.056   1.443
 9832TIP3   OH229440   6.769   6.411   1.797
 9832TIP3    H129441   6.713   6.486   1.777
 9832TIP3    H229442   6.810   6.388   1.714
 9833TIP3   OH229443   1.229   6.245   1.568
 9833TIP3    H129444   1.227   6.288   1.482
 9833TIP3    H229445   1.228   6.316   1.631
 9834TIP3   OH229446   6.731   0.203   3.025
 9834TIP3    H129447   6.819   0.172   3.004
 9834TIP3    H229448   6.743   0.295   3.048
 9835TIP3   OH229449   5.315   0.789   0.783
 9835TIP3    H129450   5.363   0.819   0.706
 9835TIP3    H229451   5.225   0.815   0.766
 9836TIP3   OH229452   1.749   5.801   0.484
 9836TIP3    H129453   1.698   5.879   0.459
 9836TIP3    H229454   1.791   5.825   0.566
 9837TIP3   OH229455   3.228   6.200   4.721
 9837TIP3    H129456   3.218   6.222   4.814
 9837TIP3    H229457   3.275   6.274   4.683
 9838TIP3   OH229458   3.931   4.132   6.584
 9838TIP3    H129459   3.978   4.216   6.587
 9838TIP3    H229460   3.925   4.111   6.490
 9839TIP3   OH229461   1.107   6.638   2.262
 9839TIP3    H129462   1.021   6.599   2.249
 9839TIP3    H229463   1.122   6.633   2.356
 9840TIP3   OH229464   4.662   2.613   5.667
 9840TIP3    H129465   4.739   2.621   5.610
 9840TIP3    H229466   4.694   2.639   5.753
 9841TIP3   OH229467   5.815   7.567   6.449
 9841TIP3    H129468   5.822   7.653   6.409
 9841TIP3    H229469   5.855   7.578   6.536
 9842TIP3   OH229470   3.105   1.890   6.222
 9842TIP3    H129471   3.061   1.856   6.299
 9842TIP3    H229472   3.089   1.824   6.154
 9843TIP3   OH229473   0.906   4.255   1.480
 9843TIP3    H129474   0.872   4.344   1.468
 9843TIP3    H229475   0.853   4.218   1.550
 9844TIP3   OH229476   1.225   1.278   0.625
 9844TIP3    H129477   1.148   1.336   0.628
 9844TIP3    H229478   1.242   1.256   0.716
 9845TIP3   OH229479   6.782   7.012   5.993
 9845TIP3    H129480   6.877   7.003   6.004
 9845TIP3    H229481   6.765   6.983   5.903
 9846TIP3   OH229482   1.775   2.371   5.508
 9846TIP3    H129483   1.848   2.431   5.524
 9846TIP3    H229484   1.802   2.289   5.549
 9847TIP3   OH229485   3.441   3.098   4.893
 9847TIP3    H129486   3.375   3.049   4.943
 9847TIP3    H229487   3.437   3.060   4.805
 9848TIP3   OH229488   1.544   6.205   4.826
 9848TIP3    H129489   1.602   6.130   4.811
 9848TIP3    H229490   1.601   6.272   4.865
 9849TIP3   OH229491   5.590   6.526   4.047
 9849TIP3    H129492   5.654   6.541   4.117
 9849TIP3    H229493   5.614   6.440   4.012
 9850TIP3   OH229494   4.428   7.417   6.029
 9850TIP3    H129495   4.461   7.486   5.972
 9850TIP3    H229496   4.415   7.342   5.970
 9851TIP3   OH229497   6.166   2.424   5.847
 9851TIP3    H129498   6.191   2.335   5.873
 9851TIP3    H229499   6.102   2.451   5.912
 9852TIP3   OH229500   1.696   1.741   6.472
 9852TIP3    H129501   1.697   1.772   6.381
 9852TIP3    H229502   1.729   1.815   6.523
 9853TIP3   OH229503   5.943   6.164   6.138
 9853TIP3    H129504   6.012   6.098   6.135
 9853TIP3    H229505   5.878   6.129   6.198
 9854TIP3   OH229506   4.418   4.047   0.404
 9854TIP3    H129507   4.343   3.997   0.436
 9854TIP3    H229508   4.428   4.019   0.313
 9855TIP3   OH229509   5.055   1.472   4.701
 9855TIP3    H129510   5.133   1.492   4.649
 9855TIP3    H229511   5.089   1.446   4.787
 9856TIP3   OH229512   3.464   4.184   4.711
 9856TIP3    H129513   3.549   4.193   4.754
 9856TIP3    H229514   3.484   4.181   4.618
 9857TIP3   OH229515   7.789   4.643   2.700
 9857TIP3    H129516   7.767   4.683   2.784
 9857TIP3    H229517   7.883   4.655   2.691
 9858TIP3   OH229518   0.563   3.152   1.093
 9858TIP3    H129519   0.502   3.179   1.162
 9858TIP3    H229520   0.532   3.066   1.067
 9859TIP3   OH229521   1.562   5.409   2.478
 9859TIP3    H129522   1.487   5.393   2.420
 9859TIP3    H229523   1.600   5.322   2.491
 9860TIP3   OH229524   3.746   6.522   3.267
 9860TIP3    H129525   3.718   6.610   3.292
 9860TIP3    H229526   3.720   6.513   3.176
 9861TIP3   OH229527   5.325   5.046   0.841
 9861TIP3    H129528   5.316   4.964   0.889
 9861TIP3    H229529   5.311   5.023   0.749
 9862TIP3   OH229530   4.644   0.429   0.122
 9862TIP3    H129531   4.621   0.521   0.114
 9862TIP3    H229532   4.580   0.392   0.182
 9863TIP3   OH229533   1.556   0.560   1.638
 9863TIP3    H129534   1.627   0.513   1.594
 9863TIP3    H229535   1.536   0.634   1.579
 9864TIP3   OH229536   3.761   4.130   0.817
 9864TIP3    H129537   3.836   4.148   0.760
 9864TIP3    H229538   3.786   4.167   0.901
 9865TIP3   OH229539   2.207   6.720   4.856
 9865TIP3    H129540   2.179   6.811   4.844
 9865TIP3    H229541   2.293   6.715   4.814
 9866TIP3   OH229542   4.773   5.251   3.196
 9866TIP3    H129543   4.704   5.220   3.137
 9866TIP3    H229544   4.786   5.342   3.171
 9867TIP3   OH229545   4.996   3.799   0.538
 9867TIP3    H129546   5.064   3.732   0.545
 9867TIP3    H229547   4.926   3.769   0.597
 9868TIP3   OH229548   0.334   0.212   1.821
 9868TIP3    H129549   0.299   0.188   1.735
 9868TIP3    H229550   0.264   0.189   1.882
 9869TIP3   OH229551   1.308   2.974   2.310
 9869TIP3    H129552   1.218   2.977   2.280
 9869TIP3    H229553   1.347   3.056   2.281
 9870TIP3   OH229554   2.656   0.268   1.633
 9870TIP3    H129555   2.727   0.214   1.665
 9870TIP3    H229556   2.615   0.304   1.712
 9871TIP3   OH229557   3.369   2.486   5.847
 9871TIP3    H129558   3.345   2.552   5.913
 9871TIP3    H229559   3.291   2.476   5.793
 9872TIP3   OH229560   7.896   2.541   0.635
 9872TIP3    H129561   7.814   2.571   0.595
 9872TIP3    H229562   7.935   2.483   0.570
 9873TIP3   OH229563   4.045   7.131   2.650
 9873TIP3    H129564   3.988   7.059   2.677
 9873TIP3    H229565   4.131   7.108   2.684
 9874TIP3   OH229566   2.523   0.423   1.814
 9874TIP3    H129567   2.515   0.384   1.901
 9874TIP3    H229568   2.466   0.500   1.816
 9875TIP3   OH229569   3.781   4.804   0.358
 9875TIP3    H129570   3.873   4.785   0.377
 9875TIP3    H229571   3.746   4.722   0.323
 9876TIP3   OH229572   2.587   4.745   2.036
 9876TIP3    H129573   2.619   4.694   2.111
 9876TIP3    H229574   2.641   4.717   1.963
 9877TIP3   OH229575   8.056   4.363   4.081
 9877TIP3    H129576   7.988   4.376   4.014
 9877TIP3    H229577   8.139   4.374   4.034
 9878TIP3   OH229578   1.177   4.348   5.702
 9878TIP3    H129579   1.263   4.310   5.724
 9878TIP3    H229580   1.165   4.418   5.766
 9879TIP3   OH229581   2.616   1.710   4.991
 9879TIP3    H129582   2.597   1.801   5.015
 9879TIP3    H229583   2.661   1.674   5.068
 9880TIP3   OH229584   1.998   2.621   5.831
 9880TIP3    H129585   2.076   2.666   5.798
 9880TIP3    H229586   1.984   2.550   5.768
 9881TIP3   OH229587   4.453   4.809   5.127
 9881TIP3    H129588   4.531   4.793   5.180
 9881TIP3    H229589   4.384   4.758   5.170
 9882TIP3   OH229590   8.087   3.304   4.645
 9882TIP3    H129591   8.141   3.329   4.720
 9882TIP3    H229592   8.084   3.382   4.590
 9883TIP3   OH229593   7.862   6.006   0.413
 9883TIP3    H129594   7.895   5.928   0.368
 9883TIP3    H229595   7.934   6.069   0.409
 9884TIP3   OH229596   0.080   1.897   0.847
 9884TIP3    H129597  -0.008   1.860   0.852
 9884TIP3    H229598   0.081   1.965   0.915
 9885TIP3   OH229599   1.085   4.245   1.275
 9885TIP3    H129600   1.167   4.234   1.322
 9885TIP3    H229601   1.019   4.201   1.329
 9886TIP3   OH229602   3.423   4.880   4.073
 9886TIP3    H129603   3.424   4.962   4.024
 9886TIP3    H229604   3.331   4.853   4.073
 9887TIP3   OH229605   0.037   1.108   5.765
 9887TIP3    H129606   0.027   1.022   5.805
 9887TIP3    H229607   0.113   1.098   5.706
 9888TIP3   OH229608   2.111   2.582   6.620
 9888TIP3    H129609   2.124   2.635   6.541
 9888TIP3    H229610   2.161   2.502   6.604
 9889TIP3   OH229611   8.211   4.932   2.992
 9889TIP3    H129612   8.264   4.915   2.914
 9889TIP3    H229613   8.124   4.952   2.958
 9890TIP3   OH229614   4.678   6.835   1.404
 9890TIP3    H129615   4.643   6.891   1.334
 9890TIP3    H229616   4.611   6.837   1.472
 9891TIP3   OH229617   7.584   3.341   1.483
 9891TIP3    H129618   7.642   3.417   1.484
 9891TIP3    H229619   7.586   3.310   1.392
 9892TIP3   OH229620   4.372   1.628   5.318
 9892TIP3    H129621   4.376   1.611   5.224
 9892TIP3    H229622   4.290   1.676   5.330
 9893TIP3   OH229623   6.182   4.693   1.186
 9893TIP3    H129624   6.143   4.618   1.142
 9893TIP3    H229625   6.225   4.742   1.116
 9894TIP3   OH229626   0.542   3.221   6.026
 9894TIP3    H129627   0.554   3.215   5.931
 9894TIP3    H229628   0.623   3.184   6.062
 9895TIP3   OH229629   3.133   1.297   3.050
 9895TIP3    H129630   3.107   1.389   3.049
 9895TIP3    H229631   3.110   1.266   3.138
 9896TIP3   OH229632   4.562   7.486   3.464
 9896TIP3    H129633   4.626   7.552   3.491
 9896TIP3    H229634   4.531   7.516   3.378
 9897TIP3   OH229635   8.099   4.865   4.372
 9897TIP3    H129636   8.069   4.795   4.314
 9897TIP3    H229637   8.019   4.897   4.415
 9898TIP3   OH229638   7.321   1.599   6.562
 9898TIP3    H129639   7.307   1.504   6.565
 9898TIP3    H229640   7.362   1.615   6.476
 9899TIP3   OH229641   0.388   7.442   6.782
 9899TIP3    H129642   0.298   7.470   6.762
 9899TIP3    H229643   0.427   7.421   6.697
 9900TIP3   OH229644   1.591   4.892   5.557
 9900TIP3    H129645   1.665   4.831   5.555
 9900TIP3    H229646   1.625   4.972   5.516
 9901TIP3   OH229647   6.659   6.214   3.492
 9901TIP3    H129648   6.694   6.161   3.564
 9901TIP3    H229649   6.636   6.298   3.532
 9902TIP3   OH229650   6.623   5.863   2.802
 9902TIP3    H129651   6.561   5.839   2.871
 9902TIP3    H229652   6.634   5.958   2.811
 9903TIP3   OH229653   4.733   7.408   5.310
 9903TIP3    H129654   4.678   7.485   5.324
 9903TIP3    H229655   4.671   7.336   5.298
 9904TIP3   OH229656   1.482   2.068   2.233
 9904TIP3    H129657   1.451   2.158   2.242
 9904TIP3    H229658   1.486   2.053   2.139
 9905TIP3   OH229659   7.108   5.109   5.158
 9905TIP3    H129660   7.109   5.177   5.225
 9905TIP3    H229661   7.166   5.142   5.089
 9906TIP3   OH229662   2.875   0.181   4.103
 9906TIP3    H129663   2.860   0.237   4.179
 9906TIP3    H229664   2.969   0.190   4.085
 9907TIP3   OH229665   7.698   5.786   2.606
 9907TIP3    H129666   7.655   5.723   2.547
 9907TIP3    H229667   7.629   5.849   2.627
 9908TIP3   OH229668   6.050   5.510   6.348
 9908TIP3    H129669   5.976   5.469   6.304
 9908TIP3    H229670   6.011   5.578   6.403
 9909TIP3   OH229671   2.900   4.586   6.572
 9909TIP3    H129672   2.930   4.603   6.482
 9909TIP3    H229673   2.906   4.491   6.582
 9910TIP3   OH229674   3.357   7.095   1.991
 9910TIP3    H129675   3.399   7.179   1.969
 9910TIP3    H229676   3.350   7.049   1.907
 9911TIP3   OH229677   2.653   5.577   0.370
 9911TIP3    H129678   2.660   5.671   0.387
 9911TIP3    H229679   2.689   5.536   0.449
 9912TIP3   OH229680   4.098   4.164   3.589
 9912TIP3    H129681   4.097   4.158   3.684
 9912TIP3    H229682   4.174   4.218   3.568
 9913TIP3   OH229683   6.526   2.906   1.183
 9913TIP3    H129684   6.455   2.970   1.180
 9913TIP3    H229685   6.509   2.848   1.109
 9914TIP3   OH229686   0.830   0.675   5.939
 9914TIP3    H129687   0.895   0.606   5.928
 9914TIP3    H229688   0.807   0.701   5.850
 9915TIP3   OH229689   5.551   0.788   1.407
 9915TIP3    H129690   5.468   0.777   1.361
 9915TIP3    H229691   5.603   0.843   1.349
 9916TIP3   OH229692   3.952   1.606   2.028
 9916TIP3    H129693   3.935   1.518   1.994
 9916TIP3    H229694   3.871   1.632   2.071
 9917TIP3   OH229695   5.662   1.857   2.592
 9917TIP3    H129696   5.746   1.882   2.553
 9917TIP3    H229697   5.608   1.828   2.519
 9918TIP3   OH229698   7.863   4.533   0.971
 9918TIP3    H129699   7.857   4.442   0.998
 9918TIP3    H229700   7.893   4.579   1.049
 9919TIP3   OH229701   4.670   5.684   0.152
 9919TIP3    H129702   4.719   5.658   0.074
 9919TIP3    H229703   4.663   5.780   0.145
 9920TIP3   OH229704   0.348   0.826   4.820
 9920TIP3    H129705   0.329   0.914   4.853
 9920TIP3    H229706   0.266   0.799   4.778
 9921TIP3   OH229707   6.542   0.258   0.550
 9921TIP3    H129708   6.614   0.241   0.489
 9921TIP3    H229709   6.551   0.350   0.574
 9922TIP3   OH229710   0.735   4.005   2.125
 9922TIP3    H129711   0.787   3.934   2.088
 9922TIP3    H229712   0.793   4.047   2.188
 9923TIP3   OH229713   6.304   7.106   5.870
 9923TIP3    H129714   6.268   7.125   5.783
 9923TIP3    H229715   6.278   7.180   5.924
 9924TIP3   OH229716   6.710   6.846   1.159
 9924TIP3    H129717   6.618   6.841   1.134
 9924TIP3    H229718   6.752   6.893   1.087
 9925TIP3   OH229719   1.216   0.920   5.427
 9925TIP3    H129720   1.164   0.846   5.396
 9925TIP3    H229721   1.232   0.901   5.519
 9926TIP3   OH229722   2.713   0.074   5.163
 9926TIP3    H129723   2.809   0.075   5.164
 9926TIP3    H229724   2.690   0.084   5.070
 9927TIP3   OH229725   7.826   0.938   0.694
 9927TIP3    H129726   7.839   0.990   0.614
 9927TIP3    H229727   7.795   0.854   0.662
 9928TIP3   OH229728   5.140   3.706   4.297
 9928TIP3    H129729   5.182   3.637   4.348
 9928TIP3    H229730   5.051   3.673   4.283
 9929TIP3   OH229731   4.552   3.266   3.717
 9929TIP3    H129732   4.576   3.311   3.636
 9929TIP3    H229733   4.510   3.185   3.688
 9930TIP3   OH229734   7.817   4.091   4.002
 9930TIP3    H129735   7.896   4.073   4.052
 9930TIP3    H229736   7.837   4.171   3.953
 9931TIP3   OH229737   7.443   5.723   5.156
 9931TIP3    H129738   7.497   5.686   5.226
 9931TIP3    H229739   7.377   5.656   5.138
 9932TIP3   OH229740   4.121   6.875   2.797
 9932TIP3    H129741   4.096   6.859   2.887
 9932TIP3    H229742   4.212   6.843   2.791
 9933TIP3   OH229743   0.448   6.100   6.227
 9933TIP3    H129744   0.535   6.139   6.222
 9933TIP3    H229745   0.456   6.031   6.293
 9934TIP3   OH229746   6.045   4.779   0.064
 9934TIP3    H129747   6.074   4.690   0.084
 9934TIP3    H229748   5.950   4.772   0.054
 9935TIP3   OH229749   5.511   1.576   6.365
 9935TIP3    H129750   5.593   1.545   6.403
 9935TIP3    H229751   5.492   1.657   6.412
 9936TIP3   OH229752   2.560   0.952   4.546
 9936TIP3    H129753   2.643   0.924   4.508
 9936TIP3    H229754   2.561   1.047   4.539
 9937TIP3   OH229755   1.187   7.076   4.844
 9937TIP3    H129756   1.206   7.095   4.936
 9937TIP3    H229757   1.272   7.085   4.800
 9938TIP3   OH229758   1.987   2.346   1.208
 9938TIP3    H129759   1.940   2.429   1.198
 9938TIP3    H229760   1.919   2.279   1.204
 9939TIP3   OH229761   7.251   6.851   3.104
 9939TIP3    H129762   7.235   6.943   3.124
 9939TIP3    H229763   7.169   6.807   3.124
 9940TIP3   OH229764   3.248   7.379   3.822
 9940TIP3    H129765   3.291   7.313   3.876
 9940TIP3    H229766   3.240   7.339   3.736
 9941TIP3   OH229767   0.549   5.457   0.314
 9941TIP3    H129768   0.537   5.406   0.233
 9941TIP3    H229769   0.625   5.417   0.356
 9942TIP3   OH229770   1.467   0.608   2.616
 9942TIP3    H129771   1.497   0.683   2.668
 9942TIP3    H229772   1.408   0.646   2.551
 9943TIP3   OH229773   7.591   6.627   3.033
 9943TIP3    H129774   7.618   6.647   3.122
 9943TIP3    H229775   7.530   6.553   3.042
 9944TIP3   OH229776   1.121   1.210   6.319
 9944TIP3    H129777   1.087   1.149   6.254
 9944TIP3    H229778   1.198   1.167   6.355
 9945TIP3   OH229779   2.849   1.819   3.297
 9945TIP3    H129780   2.863   1.741   3.351
 9945TIP3    H229781   2.906   1.806   3.220
 9946TIP3   OH229782   5.003   1.741   1.386
 9946TIP3    H129783   4.951   1.812   1.346
 9946TIP3    H229784   4.955   1.661   1.365
 9947TIP3   OH229785   6.256   3.101   0.975
 9947TIP3    H129786   6.162   3.099   0.961
 9947TIP3    H229787   6.294   3.098   0.887
 9948TIP3   OH229788   3.105   7.500   6.209
 9948TIP3    H129789   3.095   7.445   6.287
 9948TIP3    H229790   3.188   7.472   6.171
 9949TIP3   OH229791   0.034   5.085   4.801
 9949TIP3    H129792   0.017   5.016   4.864
 9949TIP3    H229793  -0.049   5.096   4.754
 9950TIP3   OH229794   0.241   5.560   3.162
 9950TIP3    H129795   0.215   5.594   3.248
 9950TIP3    H229796   0.165   5.512   3.131
 9951TIP3   OH229797   3.018   7.781   0.087
 9951TIP3    H129798   3.025   7.748  -0.003
 9951TIP3    H229799   3.058   7.714   0.141
 9952TIP3   OH229800   3.026   3.457   5.108
 9952TIP3    H129801   3.102   3.405   5.082
 9952TIP3    H229802   2.976   3.468   5.028
 9953TIP3   OH229803   0.980   4.856   2.837
 9953TIP3    H129804   0.910   4.921   2.826
 9953TIP3    H229805   0.941   4.774   2.808
 9954TIP3   OH229806   0.700   6.451   6.684
 9954TIP3    H129807   0.644   6.377   6.705
 9954TIP3    H229808   0.763   6.416   6.620
 9955TIP3   OH229809   7.446   6.940   0.914
 9955TIP3    H129810   7.404   7.014   0.871
 9955TIP3    H229811   7.509   6.907   0.850
 9956TIP3   OH229812   7.826   3.632   4.236
 9956TIP3    H129813   7.823   3.649   4.330
 9956TIP3    H229814   7.734   3.632   4.208
 9957TIP3   OH229815   0.494   6.769   5.146
 9957TIP3    H129816   0.522   6.836   5.084
 9957TIP3    H229817   0.400   6.759   5.131
 9958TIP3   OH229818   1.510   7.007   0.194
 9958TIP3    H129819   1.445   7.077   0.198
 9958TIP3    H229820   1.469   6.939   0.142
 9959TIP3   OH229821   1.043   0.728   5.331
 9959TIP3    H129822   1.037   0.666   5.405
 9959TIP3    H229823   1.040   0.672   5.254
 9960TIP3   OH229824   4.521   3.705   5.147
 9960TIP3    H129825   4.575   3.732   5.073
 9960TIP3    H229826   4.444   3.665   5.107
 9961TIP3   OH229827   6.206   7.553   6.096
 9961TIP3    H129828   6.219   7.514   6.009
 9961TIP3    H229829   6.113   7.542   6.114
 9962TIP3   OH229830   6.535   2.063   1.819
 9962TIP3    H129831   6.569   2.152   1.830
 9962TIP3    H229832   6.597   2.008   1.867
 9963TIP3   OH229833   2.288   3.332   6.251
 9963TIP3    H129834   2.253   3.289   6.173
 9963TIP3    H229835   2.371   3.287   6.267
 9964TIP3   OH229836   5.983   1.350   1.215
 9964TIP3    H129837   5.997   1.255   1.212
 9964TIP3    H229838   5.977   1.371   1.308
 9965TIP3   OH229839   7.292   1.874   3.395
 9965TIP3    H129840   7.258   1.873   3.305
 9965TIP3    H229841   7.387   1.882   3.385
 9966TIP3   OH229842   7.020   5.341   2.057
 9966TIP3    H129843   7.059   5.300   2.135
 9966TIP3    H229844   6.971   5.270   2.015
 9967TIP3   OH229845   2.738   1.242   1.212
 9967TIP3    H129846   2.830   1.270   1.215
 9967TIP3    H229847   2.694   1.310   1.162
 9968TIP3   OH229848   3.076   0.138   2.342
 9968TIP3    H129849   3.007   0.137   2.408
 9968TIP3    H229850   3.056   0.214   2.287
 9969TIP3   OH229851   6.338   0.776   5.221
 9969TIP3    H129852   6.317   0.861   5.258
 9969TIP3    H229853   6.308   0.713   5.286
 9970TIP3   OH229854   7.778   7.734   3.576
 9970TIP3    H129855   7.723   7.722   3.653
 9970TIP3    H229856   7.768   7.827   3.554
 9971TIP3   OH229857   4.582   1.470   3.178
 9971TIP3    H129858   4.612   1.488   3.267
 9971TIP3    H229859   4.641   1.520   3.122
 9972TIP3   OH229860   0.593   3.434   1.010
 9972TIP3    H129861   0.611   3.342   1.029
 9972TIP3    H229862   0.503   3.434   0.976
 9973TIP3   OH229863   0.615   2.346   1.131
 9973TIP3    H129864   0.630   2.269   1.186
 9973TIP3    H229865   0.580   2.411   1.191
 9974TIP3   OH229866   6.069   6.891   4.722
 9974TIP3    H129867   6.144   6.859   4.772
 9974TIP3    H229868   6.007   6.921   4.789
 9975TIP3   OH229869   6.658   7.546   5.062
 9975TIP3    H129870   6.726   7.513   5.120
 9975TIP3    H229871   6.680   7.511   4.976
 9976TIP3   OH229872   1.306   5.998   2.829
 9976TIP3    H129873   1.316   6.005   2.734
 9976TIP3    H229874   1.274   5.909   2.843
 9977TIP3   OH229875   2.599   2.880   3.431
 9977TIP3    H129876   2.650   2.806   3.398
 9977TIP3    H229877   2.665   2.947   3.449
 9978TIP3   OH229878   3.784   7.433   6.079
 9978TIP3    H129879   3.789   7.349   6.125
 9978TIP3    H229880   3.790   7.410   5.986
 9979TIP3   OH229881   1.995   5.545   2.955
 9979TIP3    H129882   2.049   5.602   2.901
 9979TIP3    H229883   1.953   5.603   3.018
 9980TIP3   OH229884   0.553   6.836   4.228
 9980TIP3    H129885   0.561   6.772   4.298
 9980TIP3    H229886   0.580   6.919   4.268
 9981TIP3   OH229887   2.735   1.550   5.766
 9981TIP3    H129888   2.692   1.624   5.724
 9981TIP3    H229889   2.745   1.577   5.857
 9982TIP3   OH229890   2.776   4.071   1.620
 9982TIP3    H129891   2.846   4.057   1.684
 9982TIP3    H229892   2.720   3.994   1.627
 9983TIP3   OH229893   0.370   2.962   4.955
 9983TIP3    H129894   0.406   2.927   5.036
 9983TIP3    H229895   0.299   2.902   4.932
 9984TIP3   OH229896   0.749   5.395   3.263
 9984TIP3    H129897   0.660   5.374   3.292
 9984TIP3    H229898   0.797   5.414   3.344
 9985TIP3   OH229899   2.116   6.581   0.652
 9985TIP3    H129900   2.052   6.635   0.699
 9985TIP3    H229901   2.166   6.644   0.600
 9986TIP3   OH229902   6.854   6.308   0.792
 9986TIP3    H129903   6.773   6.315   0.844
 9986TIP3    H229904   6.924   6.312   0.856
 9987TIP3   OH229905   2.494   2.973   1.529
 9987TIP3    H129906   2.493   3.067   1.546
 9987TIP3    H229907   2.426   2.937   1.586
 9988TIP3   OH229908   4.319   7.250   6.644
 9988TIP3    H129909   4.402   7.299   6.643
 9988TIP3    H229910   4.305   7.230   6.736
 9989TIP3   OH229911   6.580   1.095   2.232
 9989TIP3    H129912   6.669   1.108   2.265
 9989TIP3    H229913   6.586   1.018   2.176
 9990TIP3   OH229914   5.167   0.336   1.902
 9990TIP3    H129915   5.118   0.378   1.831
 9990TIP3    H229916   5.209   0.260   1.862
 9991TIP3   OH229917   7.701   7.147   0.651
 9991TIP3    H129918   7.621   7.171   0.605
 9991TIP3    H229919   7.747   7.230   0.664
 9992TIP3   OH229920   4.194   6.800   5.335
 9992TIP3    H129921   4.147   6.733   5.383
 9992TIP3    H229922   4.286   6.774   5.341
 9993TIP3   OH229923   2.352   7.039   0.796
 9993TIP3    H129924   2.344   7.134   0.792
 9993TIP3    H229925   2.262   7.007   0.796
 9994TIP3   OH229926   6.449   3.676   2.589
 9994TIP3    H129927   6.409   3.763   2.591
 9994TIP3    H229928   6.396   3.627   2.527
 9995TIP3   OH229929   7.510   6.159   0.661
 9995TIP3    H129930   7.535   6.094   0.595
 9995TIP3    H229931   7.473   6.232   0.610
 9996TIP3   OH229932   1.790   4.503   5.205
 9996TIP3    H129933   1.837   4.428   5.242
 9996TIP3    H229934   1.698   4.485   5.224
 9997TIP3   OH229935   5.305   4.024   2.797
 9997TIP3    H129936   5.359   4.102   2.807
 9997TIP3    H229937   5.312   3.978   2.881
 9998TIP3   OH229938   0.133   1.639   2.957
 9998TIP3    H129939   0.211   1.587   2.976
 9998TIP3    H229940   0.069   1.576   2.924
 9999TIP3   OH229941   5.042   6.060   5.851
 9999TIP3    H129942   4.988   6.136   5.873
 9999TIP3    H229943   5.090   6.041   5.932
10000TIP3   OH229944   4.853   2.844   1.196
10000TIP3    H129945   4.800   2.910   1.150
10000TIP3    H229946   4.867   2.776   1.130
10001TIP3   OH229947   1.362   6.529   2.334
10001TIP3    H129948   1.270   6.538   2.312
10001TIP3    H229949   1.362   6.508   2.428
10002TIP3   OH229950   2.642   2.771   6.297
10002TIP3    H129951   2.593   2.693   6.270
10002TIP3    H229952   2.575   2.834   6.323
10003TIP3   OH229953   4.755   1.452   4.195
10003TIP3    H129954   4.732   1.518   4.261
10003TIP3    H229955   4.796   1.382   4.246
10004TIP3   OH229956   8.176   6.514   4.196
10004TIP3    H129957   8.257   6.470   4.222
10004TIP3    H229958   8.201   6.606   4.185
10005TIP3   OH229959   1.109   5.842   6.365
10005TIP3    H129960   1.158   5.768   6.329
10005TIP3    H229961   1.162   5.918   6.342
10006TIP3   OH229962   1.797   4.722   5.351
10006TIP3    H129963   1.798   4.630   5.323
10006TIP3    H229964   1.767   4.770   5.275
10007TIP3   OH229965   3.475   0.011   0.995
10007TIP3    H129966   3.394  -0.022   0.957
10007TIP3    H229967   3.459   0.104   1.011
10008TIP3   OH229968   5.910   5.330   2.809
10008TIP3    H129969   5.883   5.421   2.793
10008TIP3    H229970   5.868   5.307   2.892
10009TIP3   OH229971   4.136   3.404   5.848
10009TIP3    H129972   4.167   3.395   5.758
10009TIP3    H229973   4.215   3.423   5.898
10010TIP3   OH229974   6.765   5.129   0.005
10010TIP3    H129975   6.689   5.125   0.063
10010TIP3    H229976   6.836   5.088   0.055
10011TIP3   OH229977   1.363   5.056   6.646
10011TIP3    H129978   1.338   5.101   6.566
10011TIP3    H229979   1.294   5.078   6.709
10012TIP3   OH229980   3.839   4.329   0.118
10012TIP3    H129981   3.855   4.235   0.115
10012TIP3    H229982   3.744   4.338   0.117
10013TIP3   OH229983   1.023   7.321   1.204
10013TIP3    H129984   1.079   7.310   1.281
10013TIP3    H229985   0.971   7.241   1.201
10014TIP3   OH229986   1.957   7.378   4.889
10014TIP3    H129987   1.962   7.401   4.981
10014TIP3    H229988   1.923   7.457   4.846
10015TIP3   OH229989   1.949   4.802   2.017
10015TIP3    H129990   1.933   4.723   1.965
10015TIP3    H229991   1.969   4.769   2.105
10016TIP3   OH229992   7.529   5.596   3.284
10016TIP3    H129993   7.499   5.610   3.194
10016TIP3    H229994   7.622   5.576   3.276
10017TIP3   OH229995   6.745   5.145   1.687
10017TIP3    H129996   6.650   5.142   1.702
10017TIP3    H229997   6.754   5.173   1.596
10018TIP3   OH229998   5.412   3.544   4.823
10018TIP3    H129999   5.441   3.585   4.741
10018TIP3    H230000   5.383   3.456   4.796
10019TIP3   OH230001   8.206   6.463   3.271
10019TIP3    H130002   8.180   6.380   3.231
10019TIP3    H230003   8.251   6.438   3.352
10020TIP3   OH230004   7.395   3.752   3.658
10020TIP3    H130005   7.484   3.746   3.625
10020TIP3    H230006   7.397   3.826   3.719
10021TIP3   OH230007   5.857   7.137   0.101
10021TIP3    H130008   5.925   7.144   0.033
10021TIP3    H230009   5.838   7.044   0.106
10022TIP3   OH230010   4.474   4.325   0.500
10022TIP3    H130011   4.424   4.365   0.571
10022TIP3    H230012   4.441   4.235   0.496
10023TIP3   OH230013   0.537   5.494   4.180
10023TIP3    H130014   0.583   5.431   4.124
10023TIP3    H230015   0.554   5.464   4.269
10024TIP3   OH230016   2.365   5.404   0.110
10024TIP3    H130017   2.452   5.444   0.108
10024TIP3    H230018   2.337   5.413   0.202
10025TIP3   OH230019   3.781   1.234   2.985
10025TIP3    H130020   3.853   1.296   2.975
10025TIP3    H230021   3.815   1.152   2.949
10026TIP3   OH230022   1.141   5.302   2.003
10026TIP3    H130023   1.233   5.300   2.031
10026TIP3    H230024   1.140   5.251   1.922
10027TIP3   OH230025   6.620   4.756   1.468
10027TIP3    H130026   6.691   4.706   1.508
10027TIP3    H230027   6.540   4.711   1.497
10028TIP3   OH230028   7.373   6.981   4.953
10028TIP3    H130029   7.327   6.899   4.936
10028TIP3    H230030   7.303   7.046   4.962
10029TIP3   OH230031   3.227   1.777   6.584
10029TIP3    H130032   3.267   1.694   6.560
10029TIP3    H230033   3.158   1.753   6.647
10030TIP3   OH230034   1.876   1.608   1.823
10030TIP3    H130035   1.858   1.530   1.770
10030TIP3    H230036   1.813   1.602   1.895
10031TIP3   OH230037   7.783   3.750   0.623
10031TIP3    H130038   7.717   3.742   0.692
10031TIP3    H230039   7.797   3.845   0.615
10032TIP3   OH230040   0.733   3.328   0.089
10032TIP3    H130041   0.805   3.275   0.122
10032TIP3    H230042   0.655   3.288   0.127
10033TIP3   OH230043   2.037   0.439   3.604
10033TIP3    H130044   2.041   0.455   3.699
10033TIP3    H230045   1.987   0.358   3.596
10034TIP3   OH230046   0.348   2.340   6.724
10034TIP3    H130047   0.365   2.354   6.631
10034TIP3    H230048   0.284   2.270   6.727
10035TIP3   OH230049   4.812   0.022   4.190
10035TIP3    H130050   4.746   0.062   4.246
10035TIP3    H230051   4.769   0.011   4.105
10036TIP3   OH230052   4.692   3.883   1.824
10036TIP3    H130053   4.705   3.791   1.798
10036TIP3    H230054   4.781   3.919   1.828
10037TIP3   OH230055   1.120   1.579   0.987
10037TIP3    H130056   1.082   1.532   0.912
10037TIP3    H230057   1.126   1.670   0.958
10038TIP3   OH230058   8.174   5.261   5.562
10038TIP3    H130059   8.258   5.291   5.596
10038TIP3    H230060   8.142   5.334   5.508
10039TIP3   OH230061   0.474   6.947   3.866
10039TIP3    H130062   0.563   6.980   3.881
10039TIP3    H230063   0.437   7.007   3.801
10040TIP3   OH230064   5.495   1.096   6.275
10040TIP3    H130065   5.490   1.188   6.301
10040TIP3    H230066   5.521   1.100   6.183
10041TIP3   OH230067   2.052   6.634   2.128
10041TIP3    H130068   1.992   6.570   2.088
10041TIP3    H230069   2.085   6.686   2.054
10042TIP3   OH230070   1.123   7.759   3.540
10042TIP3    H130071   1.164   7.824   3.483
10042TIP3    H230072   1.196   7.711   3.579
10043TIP3   OH230073   8.062   5.565   3.119
10043TIP3    H130074   7.986   5.531   3.165
10043TIP3    H230075   8.108   5.618   3.185
10044TIP3   OH230076   5.734   6.117   2.188
10044TIP3    H130077   5.669   6.082   2.127
10044TIP3    H230078   5.715   6.073   2.271
10045TIP3   OH230079   6.787   6.389   3.806
10045TIP3    H130080   6.743   6.354   3.883
10045TIP3    H230081   6.717   6.426   3.752
10046TIP3   OH230082   3.343   5.393   5.148
10046TIP3    H130083   3.341   5.299   5.128
10046TIP3    H230084   3.399   5.400   5.225
10047TIP3   OH230085   3.490   0.210   2.635
10047TIP3    H130086   3.538   0.164   2.567
10047TIP3    H230087   3.398   0.194   2.615
10048TIP3   OH230088   5.729   0.453   3.173
10048TIP3    H130089   5.686   0.404   3.103
10048TIP3    H230090   5.664   0.458   3.243
10049TIP3   OH230091   6.029   5.560   4.902
10049TIP3    H130092   6.060   5.516   4.823
10049TIP3    H230093   6.040   5.495   4.972
10050TIP3   OH230094   6.556   6.880   5.505
10050TIP3    H130095   6.604   6.854   5.583
10050TIP3    H230096   6.575   6.974   5.495
10051TIP3   OH230097   7.109   2.389   3.494
10051TIP3    H130098   7.077   2.442   3.421
10051TIP3    H230099   7.197   2.424   3.512
10052TIP3   OH230100   2.399   7.804   2.752
10052TIP3    H130101   2.321   7.749   2.751
10052TIP3    H230102   2.472   7.742   2.740
10053TIP3   OH230103   5.474   6.151   4.532
10053TIP3    H130104   5.569   6.161   4.543
10053TIP3    H230105   5.464   6.116   4.444
10054TIP3   OH230106   4.763   6.600   0.982
10054TIP3    H130107   4.777   6.583   0.889
10054TIP3    H230108   4.801   6.687   0.996
10055TIP3   OH230109   6.632   6.916   1.531
10055TIP3    H130110   6.643   7.001   1.574
10055TIP3    H230111   6.701   6.914   1.465
10056TIP3   OH230112   7.188   6.892   3.795
10056TIP3    H130113   7.225   6.804   3.805
10056TIP3    H230114   7.250   6.938   3.740
10057TIP3   OH230115   2.647   6.200   5.339
10057TIP3    H130116   2.726   6.215   5.287
10057TIP3    H230117   2.575   6.217   5.278
10058TIP3   OH230118   6.238   5.200   2.461
10058TIP3    H130119   6.202   5.287   2.478
10058TIP3    H230120   6.223   5.151   2.542
10059TIP3   OH230121   1.231   0.191   3.555
10059TIP3    H130122   1.200   0.233   3.635
10059TIP3    H230123   1.233   0.097   3.576
10060TIP3   OH230124   0.652   3.326   1.445
10060TIP3    H130125   0.569   3.371   1.429
10060TIP3    H230126   0.704   3.342   1.367
10061TIP3   OH230127   8.007   1.616   2.942
10061TIP3    H130128   7.935   1.566   2.979
10061TIP3    H230129   7.999   1.703   2.983
10062TIP3   OH230130   4.059   1.339   5.500
10062TIP3    H130131   4.145   1.297   5.504
10062TIP3    H230132   4.038   1.357   5.592
10063TIP3   OH230133   7.898   5.059   4.496
10063TIP3    H130134   7.831   5.119   4.463
10063TIP3    H230135   7.976   5.113   4.506
10064TIP3   OH230136   7.434   7.564   1.020
10064TIP3    H130137   7.524   7.531   1.021
10064TIP3    H230138   7.424   7.606   0.934
10065TIP3   OH230139   3.450   4.940   3.706
10065TIP3    H130140   3.472   4.855   3.668
10065TIP3    H230141   3.521   4.958   3.767
10066TIP3   OH230142   3.656   1.910   2.585
10066TIP3    H130143   3.629   1.823   2.555
10066TIP3    H230144   3.690   1.952   2.506
10067TIP3   OH230145   1.818   5.638   0.053
10067TIP3    H130146   1.780   5.636  -0.035
10067TIP3    H230147   1.745   5.662   0.110
10068TIP3   OH230148   6.874   4.555   3.204
10068TIP3    H130149   6.835   4.502   3.135
10068TIP3    H230150   6.951   4.595   3.163
10069TIP3   OH230151   5.537   6.799   4.883
10069TIP3    H130152   5.602   6.804   4.952
10069TIP3    H230153   5.462   6.754   4.923
10070TIP3   OH230154   7.960   6.700   3.612
10070TIP3    H130155   7.893   6.758   3.648
10070TIP3    H230156   7.919   6.663   3.534
10071TIP3   OH230157   0.261   3.455   3.633
10071TIP3    H130158   0.203   3.472   3.559
10071TIP3    H230159   0.230   3.372   3.670
10072TIP3   OH230160   5.688   3.886   4.791
10072TIP3    H130161   5.630   3.895   4.715
10072TIP3    H230162   5.631   3.900   4.867
10073TIP3   OH230163   1.530   1.382   1.255
10073TIP3    H130164   1.536   1.345   1.167
10073TIP3    H230165   1.457   1.444   1.251
10074TIP3   OH230166   1.265   3.826   6.254
10074TIP3    H130167   1.262   3.917   6.283
10074TIP3    H230168   1.244   3.775   6.332
10075TIP3   OH230169   7.135   4.882   3.566
10075TIP3    H130170   7.126   4.962   3.515
10075TIP3    H230171   7.225   4.884   3.598
10076TIP3   OH230172   0.422   0.644   0.019
10076TIP3    H130173   0.360   0.579  -0.013
10076TIP3    H230174   0.488   0.593   0.066
10077TIP3   OH230175   7.941   1.703   2.512
10077TIP3    H130176   7.917   1.746   2.594
10077TIP3    H230177   7.896   1.618   2.515
10078TIP3   OH230178   3.943   0.666   1.411
10078TIP3    H130179   3.972   0.723   1.339
10078TIP3    H230180   3.897   0.594   1.367
10079TIP3   OH230181   6.402   1.272   4.245
10079TIP3    H130182   6.496   1.259   4.254
10079TIP3    H230183   6.380   1.231   4.161
10080TIP3   OH230184   1.375   6.466   5.877
10080TIP3    H130185   1.469   6.464   5.859
10080TIP3    H230186   1.347   6.554   5.854
10081TIP3   OH230187   4.190   3.024   3.796
10081TIP3    H130188   4.130   3.098   3.806
10081TIP3    H230189   4.248   3.049   3.725
10082TIP3   OH230190   6.608   0.958   1.950
10082TIP3    H130191   6.661   1.038   1.947
10082TIP3    H230192   6.613   0.922   1.862
10083TIP3   OH230193   5.654   5.758   6.157
10083TIP3    H130194   5.731   5.800   6.195
10083TIP3    H230195   5.679   5.666   6.148
10084TIP3   OH230196   2.873   3.715   1.602
10084TIP3    H130197   2.804   3.768   1.641
10084TIP3    H230198   2.889   3.755   1.516
10085TIP3   OH230199   7.521   6.173   0.954
10085TIP3    H130200   7.468   6.093   0.958
10085TIP3    H230201   7.523   6.196   0.861
10086TIP3   OH230202   4.066   1.630   5.378
10086TIP3    H130203   3.988   1.632   5.323
10086TIP3    H230204   4.074   1.538   5.405
10087TIP3   OH230205   3.865   2.477   5.600
10087TIP3    H130206   3.943   2.474   5.545
10087TIP3    H230207   3.818   2.555   5.571
10088TIP3   OH230208   2.010   5.813   0.359
10088TIP3    H130209   1.976   5.786   0.445
10088TIP3    H230210   1.936   5.857   0.317
10089TIP3   OH230211   0.532   0.914   4.609
10089TIP3    H130212   0.497   0.929   4.697
10089TIP3    H230213   0.455   0.895   4.555
10090TIP3   OH230214   1.711   1.314   3.848
10090TIP3    H130215   1.752   1.398   3.828
10090TIP3    H230216   1.624   1.337   3.880
10091TIP3   OH230217   7.995   0.564   2.158
10091TIP3    H130218   8.088   0.555   2.135
10091TIP3    H230219   7.948   0.550   2.075
10092TIP3   OH230220   4.635   3.637   3.706
10092TIP3    H130221   4.680   3.585   3.772
10092TIP3    H230222   4.618   3.575   3.634
10093TIP3   OH230223   2.143   3.637   4.297
10093TIP3    H130224   2.181   3.640   4.209
10093TIP3    H230225   2.131   3.544   4.315
10094TIP3   OH230226   6.391   7.101   1.805
10094TIP3    H130227   6.409   7.167   1.738
10094TIP3    H230228   6.363   7.023   1.755
10095TIP3   OH230229   2.469   4.534   1.596
10095TIP3    H130230   2.554   4.506   1.563
10095TIP3    H230231   2.467   4.504   1.687
10096TIP3   OH230232   0.417   5.593   6.694
10096TIP3    H130233   0.362   5.546   6.756
10096TIP3    H230234   0.481   5.638   6.748
10097TIP3   OH230235   6.697   0.263   4.137
10097TIP3    H130236   6.664   0.352   4.132
10097TIP3    H230237   6.792   0.271   4.123
10098TIP3   OH230238   1.092   0.233   5.304
10098TIP3    H130239   1.135   0.162   5.353
10098TIP3    H230240   1.161   0.298   5.291
10099TIP3   OH230241   7.832   1.248   2.741
10099TIP3    H130242   7.758   1.188   2.738
10099TIP3    H230243   7.900   1.205   2.689
10100TIP3   OH230244   0.468   5.560   5.554
10100TIP3    H130245   0.557   5.592   5.546
10100TIP3    H230246   0.413   5.638   5.544
10101TIP3   OH230247   3.598   3.886   1.608
10101TIP3    H130248   3.598   3.849   1.520
10101TIP3    H230249   3.666   3.837   1.654
10102TIP3   OH230250   4.011   1.399   3.017
10102TIP3    H130251   4.056   1.454   2.954
10102TIP3    H230252   3.952   1.459   3.064
10103TIP3   OH230253   7.013   3.840   3.014
10103TIP3    H130254   7.023   3.820   3.106
10103TIP3    H230255   7.059   3.769   2.968
10104TIP3   OH230256   4.113   5.731   4.105
10104TIP3    H130257   4.126   5.798   4.038
10104TIP3    H230258   4.132   5.649   4.059
10105TIP3   OH230259   3.209   7.719   1.718
10105TIP3    H130260   3.240   7.774   1.791
10105TIP3    H230261   3.209   7.778   1.642
10106TIP3   OH230262   8.172   4.582   0.442
10106TIP3    H130263   8.102   4.558   0.381
10106TIP3    H230264   8.138   4.660   0.487
10107TIP3   OH230265   6.817   2.199   5.758
10107TIP3    H130266   6.827   2.111   5.795
10107TIP3    H230267   6.750   2.240   5.812
10108TIP3   OH230268   3.708   6.405   5.590
10108TIP3    H130269   3.756   6.363   5.662
10108TIP3    H230270   3.663   6.478   5.631
10109TIP3   OH230271   0.649   5.241   4.077
10109TIP3    H130272   0.617   5.299   4.008
10109TIP3    H230273   0.604   5.158   4.062
10110TIP3   OH230274   8.132   3.237   6.489
10110TIP3    H130275   8.058   3.249   6.430
10110TIP3    H230276   8.151   3.143   6.484
10111TIP3   OH230277   6.412   7.283   1.621
10111TIP3    H130278   6.401   7.371   1.658
10111TIP3    H230279   6.382   7.292   1.530
10112TIP3   OH230280   7.689   4.457   6.266
10112TIP3    H130281   7.762   4.514   6.288
10112TIP3    H230282   7.712   4.421   6.180
10113TIP3   OH230283   0.927   0.214   5.769
10113TIP3    H130284   0.845   0.246   5.806
10113TIP3    H230285   0.930   0.253   5.681
10114TIP3   OH230286   6.700   4.963   5.230
10114TIP3    H130287   6.611   4.928   5.222
10114TIP3    H230288   6.723   4.990   5.141
10115TIP3   OH230289   6.434   3.310   4.986
10115TIP3    H130290   6.354   3.307   5.038
10115TIP3    H230291   6.415   3.370   4.914
10116TIP3   OH230292   4.145   5.420   1.979
10116TIP3    H130293   4.229   5.459   1.954
10116TIP3    H230294   4.079   5.472   1.933
10117TIP3   OH230295   0.750   0.096   3.569
10117TIP3    H130296   0.809   0.022   3.552
10117TIP3    H230297   0.802   0.174   3.550
10118TIP3   OH230298   2.518   6.829   4.145
10118TIP3    H130299   2.512   6.824   4.240
10118TIP3    H230300   2.610   6.852   4.127
10119TIP3   OH230301   3.567   3.805   2.172
10119TIP3    H130302   3.623   3.805   2.095
10119TIP3    H230303   3.578   3.893   2.209
10120TIP3   OH230304   5.371   3.527   1.586
10120TIP3    H130305   5.444   3.485   1.541
10120TIP3    H230306   5.322   3.570   1.516
10121TIP3   OH230307   4.775   5.571   3.261
10121TIP3    H130308   4.692   5.558   3.215
10121TIP3    H230309   4.795   5.664   3.249
10122TIP3   OH230310   3.417   4.160   5.941
10122TIP3    H130311   3.468   4.214   5.882
10122TIP3    H230312   3.445   4.070   5.922
10123TIP3   OH230313   0.783   0.943   4.484
10123TIP3    H130314   0.704   0.897   4.512
10123TIP3    H230315   0.828   0.880   4.427
10124TIP3   OH230316   5.071   1.015   2.037
10124TIP3    H130317   5.025   1.022   1.953
10124TIP3    H230318   5.018   0.956   2.090
10125TIP3   OH230319   0.736   2.543   1.393
10125TIP3    H130320   0.807   2.483   1.413
10125TIP3    H230321   0.709   2.579   1.477
10126TIP3   OH230322   6.576   0.251   1.543
10126TIP3    H130323   6.613   0.192   1.478
10126TIP3    H230324   6.577   0.201   1.625
10127TIP3   OH230325   1.519   6.901   4.805
10127TIP3    H130326   1.505   6.948   4.887
10127TIP3    H230327   1.463   6.824   4.811
10128TIP3   OH230328   4.860   1.370   3.615
10128TIP3    H130329   4.820   1.375   3.702
10128TIP3    H230330   4.935   1.312   3.626
10129TIP3   OH230331   6.045   5.469   1.227
10129TIP3    H130332   5.982   5.407   1.189
10129TIP3    H230333   6.124   5.417   1.240
10130TIP3   OH230334   4.759   5.175   6.249
10130TIP3    H130335   4.791   5.227   6.323
10130TIP3    H230336   4.670   5.205   6.235
10131TIP3   OH230337   8.081   7.050   3.144
10131TIP3    H130338   8.052   6.976   3.197
10131TIP3    H230339   8.004   7.074   3.093
10132TIP3   OH230340   2.725   3.437   0.757
10132TIP3    H130341   2.813   3.456   0.724
10132TIP3    H230342   2.738   3.368   0.822
10133TIP3   OH230343   1.221   4.590   5.422
10133TIP3    H130344   1.297   4.613   5.476
10133TIP3    H230345   1.257   4.573   5.335
10134TIP3   OH230346   3.447   2.646   2.576
10134TIP3    H130347   3.524   2.650   2.520
10134TIP3    H230348   3.422   2.737   2.590
10135TIP3   OH230349   3.611   3.598   1.504
10135TIP3    H130350   3.567   3.599   1.589
10135TIP3    H230351   3.631   3.506   1.488
10136TIP3   OH230352   7.342   0.025   0.772
10136TIP3    H130353   7.256  -0.014   0.791
10136TIP3    H230354   7.321   0.104   0.722
10137TIP3   OH230355   1.413   1.480   1.936
10137TIP3    H130356   1.446   1.499   1.848
10137TIP3    H230357   1.331   1.434   1.922
10138TIP3   OH230358   2.631   0.731   2.576
10138TIP3    H130359   2.715   0.702   2.540
10138TIP3    H230360   2.654   0.776   2.657
10139TIP3   OH230361   0.511   6.587   6.358
10139TIP3    H130362   0.428   6.561   6.318
10139TIP3    H230363   0.555   6.505   6.380
10140TIP3   OH230364   6.439   5.069   5.866
10140TIP3    H130365   6.471   5.001   5.806
10140TIP3    H230366   6.515   5.124   5.884
10141TIP3   OH230367   0.939   6.991   2.180
10141TIP3    H130368   1.030   6.967   2.165
10141TIP3    H230369   0.937   7.086   2.169
10142TIP3   OH230370   6.290   0.233   0.419
10142TIP3    H130371   6.278   0.212   0.326
10142TIP3    H230372   6.385   0.241   0.430
10143TIP3   OH230373   0.657   3.434   0.543
10143TIP3    H130374   0.625   3.504   0.601
10143TIP3    H230375   0.700   3.480   0.471
10144TIP3   OH230376   2.387   5.240   1.049
10144TIP3    H130377   2.444   5.166   1.028
10144TIP3    H230378   2.419   5.310   0.991
10145TIP3   OH230379   3.062   0.349   5.735
10145TIP3    H130380   2.976   0.369   5.771
10145TIP3    H230381   3.072   0.255   5.746
10146TIP3   OH230382   5.698   5.825   4.807
10146TIP3    H130383   5.765   5.885   4.838
10146TIP3    H230384   5.618   5.877   4.804
10147TIP3   OH230385   1.314   1.994   6.126
10147TIP3    H130386   1.304   1.901   6.107
10147TIP3    H230387   1.295   2.001   6.220
10148TIP3   OH230388   6.776   0.301   5.795
10148TIP3    H130389   6.682   0.315   5.789
10148TIP3    H230390   6.795   0.231   5.733
10149TIP3   OH230391   1.520   6.835   3.747
10149TIP3    H130392   1.448   6.896   3.737
10149TIP3    H230393   1.478   6.750   3.760
10150TIP3   OH230394   0.589   3.679   2.514
10150TIP3    H130395   0.593   3.665   2.608
10150TIP3    H230396   0.668   3.638   2.480
10151TIP3   OH230397   8.131   4.705   6.256
10151TIP3    H130398   8.218   4.710   6.215
10151TIP3    H230399   8.106   4.796   6.269
10152TIP3   OH230400   5.980   2.479   4.237
10152TIP3    H130401   5.902   2.442   4.195
10152TIP3    H230402   5.980   2.441   4.325
10153TIP3   OH230403   0.324   5.404   5.742
10153TIP3    H130404   0.388   5.385   5.810
10153TIP3    H230405   0.370   5.462   5.681
10154TIP3   OH230406   5.468   5.227   0.494
10154TIP3    H130407   5.460   5.273   0.577
10154TIP3    H230408   5.456   5.295   0.428
10155TIP3   OH230409   5.504   2.916   5.972
10155TIP3    H130410   5.520   2.907   5.879
10155TIP3    H230411   5.471   3.005   5.983
10156TIP3   OH230412   4.663   4.231   3.269
10156TIP3    H130413   4.598   4.182   3.217
10156TIP3    H230414   4.747   4.204   3.233
10157TIP3   OH230415   2.475   6.808   3.874
10157TIP3    H130416   2.491   6.811   3.968
10157TIP3    H230417   2.555   6.845   3.835
10158TIP3   OH230418   0.302   3.797   6.542
10158TIP3    H130419   0.335   3.718   6.586
10158TIP3    H230420   0.370   3.818   6.478
10159TIP3   OH230421   1.577   2.827   0.977
10159TIP3    H130422   1.507   2.879   0.937
10159TIP3    H230423   1.539   2.794   1.058
10160TIP3   OH230424   5.305   1.189   6.022
10160TIP3    H130425   5.239   1.227   6.081
10160TIP3    H230426   5.323   1.258   5.958
10161TIP3   OH230427   3.446   6.371   1.748
10161TIP3    H130428   3.474   6.451   1.793
10161TIP3    H230429   3.386   6.328   1.810
10162TIP3   OH230430   4.761   6.308   0.293
10162TIP3    H130431   4.842   6.261   0.272
10162TIP3    H230432   4.733   6.346   0.210
10163TIP3   OH230433   4.467   7.469   3.189
10163TIP3    H130434   4.466   7.390   3.136
10163TIP3    H230435   4.387   7.516   3.166
10164TIP3   OH230436   8.163   4.460   1.884
10164TIP3    H130437   8.117   4.495   1.961
10164TIP3    H230438   8.195   4.374   1.912
10165TIP3   OH230439   7.321   5.211   4.573
10165TIP3    H130440   7.406   5.202   4.615
10165TIP3    H230441   7.341   5.238   4.483
10166TIP3   OH230442   8.051   6.420   4.639
10166TIP3    H130443   8.011   6.482   4.699
10166TIP3    H230444   8.031   6.454   4.552
10167TIP3   OH230445   3.061   3.513   1.486
10167TIP3    H130446   3.142   3.561   1.471
10167TIP3    H230447   3.007   3.573   1.537
10168TIP3   OH230448   2.136   1.528   1.854
10168TIP3    H130449   2.163   1.490   1.771
10168TIP3    H230450   2.045   1.557   1.839
10169TIP3   OH230451   4.105   4.958   0.135
10169TIP3    H130452   4.011   4.967   0.151
10169TIP3    H230453   4.114   4.973   0.041
10170TIP3   OH230454   4.058   4.618   0.133
10170TIP3    H130455   3.988   4.629   0.069
10170TIP3    H230456   4.036   4.680   0.203
10171TIP3   OH230457   5.479   6.870   6.305
10171TIP3    H130458   5.465   6.776   6.296
10171TIP3    H230459   5.486   6.884   6.400
10172TIP3   OH230460   3.726   6.856   3.231
10172TIP3    H130461   3.689   6.876   3.317
10172TIP3    H230462   3.654   6.873   3.170
10173TIP3   OH230463   7.494   4.433   1.383
10173TIP3    H130464   7.433   4.359   1.386
10173TIP3    H230465   7.467   4.490   1.455
10174TIP3   OH230466   7.990   5.951   4.309
10174TIP3    H130467   7.925   5.894   4.350
10174TIP3    H230468   7.966   6.039   4.337
10175TIP3   OH230469   5.894   7.713   1.628
10175TIP3    H130470   5.831   7.779   1.600
10175TIP3    H230471   5.956   7.760   1.684
10176TIP3   OH230472   0.172   2.186   1.754
10176TIP3    H130473   0.236   2.124   1.789
10176TIP3    H230474   0.194   2.269   1.797
10177TIP3   OH230475   0.562   1.364   4.086
10177TIP3    H130476   0.642   1.408   4.115
10177TIP3    H230477   0.495   1.392   4.149
10178TIP3   OH230478   6.167   2.143   5.913
10178TIP3    H130479   6.160   2.052   5.885
10178TIP3    H230480   6.256   2.152   5.945
10179TIP3   OH230481   1.888   0.685   0.209
10179TIP3    H130482   1.803   0.679   0.166
10179TIP3    H230483   1.950   0.698   0.137
10180TIP3   OH230484   2.577   6.307   2.429
10180TIP3    H130485   2.620   6.378   2.381
10180TIP3    H230486   2.623   6.304   2.513
10181TIP3   OH230487   5.623   0.736   2.074
10181TIP3    H130488   5.537   0.755   2.035
10181TIP3    H230489   5.606   0.730   2.168
10182TIP3   OH230490   3.179   5.807   6.414
10182TIP3    H130491   3.159   5.718   6.443
10182TIP3    H230492   3.248   5.836   6.474
10183TIP3   OH230493   4.272   6.680   5.943
10183TIP3    H130494   4.247   6.610   6.004
10183TIP3    H230495   4.359   6.656   5.913
10184TIP3   OH230496   5.199   1.961   0.455
10184TIP3    H130497   5.115   1.921   0.430
10184TIP3    H230498   5.241   1.894   0.509
10185TIP3   OH230499   6.828   0.658   1.262
10185TIP3    H130500   6.910   0.707   1.270
10185TIP3    H230501   6.760   0.726   1.256
10186TIP3   OH230502   5.182   3.339   0.588
10186TIP3    H130503   5.251   3.305   0.645
10186TIP3    H230504   5.103   3.335   0.642
10187TIP3   OH230505   8.038   0.278   2.733
10187TIP3    H130506   7.966   0.224   2.701
10187TIP3    H230507   8.021   0.365   2.697
10188TIP3   OH230508   6.293   4.251   1.544
10188TIP3    H130509   6.383   4.225   1.525
10188TIP3    H230510   6.263   4.294   1.464
10189TIP3   OH230511   1.099   7.357   1.892
10189TIP3    H130512   1.081   7.285   1.833
10189TIP3    H230513   1.013   7.386   1.923
10190TIP3   OH230514   3.638   2.092   6.675
10190TIP3    H130515   3.616   2.132   6.591
10190TIP3    H230516   3.567   2.030   6.691
10191TIP3   OH230517   2.521   4.306   4.804
10191TIP3    H130518   2.574   4.282   4.729
10191TIP3    H230519   2.449   4.357   4.767
10192TIP3   OH230520   1.298   7.658   5.534
10192TIP3    H130521   1.284   7.564   5.548
10192TIP3    H230522   1.337   7.663   5.447
10193TIP3   OH230523   5.112   4.506   5.889
10193TIP3    H130524   5.191   4.479   5.937
10193TIP3    H230525   5.094   4.594   5.921
10194TIP3   OH230526   4.256   6.090   2.224
10194TIP3    H130527   4.280   5.998   2.214
10194TIP3    H230528   4.338   6.137   2.209
10195TIP3   OH230529   6.975   0.312   1.683
10195TIP3    H130530   6.965   0.342   1.593
10195TIP3    H230531   7.025   0.231   1.675
10196TIP3   OH230532   1.878   5.743   3.119
10196TIP3    H130533   1.817   5.713   3.187
10196TIP3    H230534   1.834   5.817   3.078
10197TIP3   OH230535   1.010   4.342   1.040
10197TIP3    H130536   1.069   4.289   0.987
10197TIP3    H230537   1.010   4.300   1.126
10198TIP3   OH230538   1.792   5.874   5.369
10198TIP3    H130539   1.850   5.845   5.299
10198TIP3    H230540   1.755   5.955   5.336
10199TIP3   OH230541   0.138   3.607   0.803
10199TIP3    H130542   0.180   3.610   0.717
10199TIP3    H230543   0.067   3.544   0.793
10200TIP3   OH230544   0.867   2.146   6.211
10200TIP3    H130545   0.875   2.133   6.305
10200TIP3    H230546   0.858   2.241   6.201
10201TIP3   OH230547   6.786   1.445   4.940
10201TIP3    H130548   6.803   1.478   5.028
10201TIP3    H230549   6.709   1.493   4.910
10202TIP3   OH230550   3.854   6.321   0.673
10202TIP3    H130551   3.887   6.290   0.589
10202TIP3    H230552   3.884   6.256   0.736
10203TIP3   OH230553   4.702   1.324   5.564
10203TIP3    H130554   4.694   1.334   5.469
10203TIP3    H230555   4.796   1.311   5.579
10204TIP3   OH230556   6.756   4.240   0.188
10204TIP3    H130557   6.697   4.258   0.115
10204TIP3    H230558   6.814   4.171   0.156
10205TIP3   OH230559   3.006   7.181   0.089
10205TIP3    H130560   2.996   7.165  -0.005
10205TIP3    H230561   2.931   7.234   0.112
10206TIP3   OH230562   6.580   3.852   4.385
10206TIP3    H130563   6.590   3.758   4.403
10206TIP3    H230564   6.549   3.888   4.468
10207TIP3   OH230565   0.569   3.406   3.996
10207TIP3    H130566   0.627   3.329   4.000
10207TIP3    H230567   0.494   3.376   3.944
10208TIP3   OH230568   2.194   6.963   1.883
10208TIP3    H130569   2.238   6.884   1.914
10208TIP3    H230570   2.255   7.001   1.819
10209TIP3   OH230571   5.987   1.611   0.329
10209TIP3    H130572   6.059   1.675   0.329
10209TIP3    H230573   5.912   1.660   0.293
10210TIP3   OH230574   6.616   2.262   0.844
10210TIP3    H130575   6.622   2.213   0.926
10210TIP3    H230576   6.523   2.258   0.821
10211TIP3   OH230577   6.084   0.886   1.962
10211TIP3    H130578   6.047   0.971   1.940
10211TIP3    H230579   6.088   0.886   2.058
10212TIP3   OH230580   2.140   5.911   5.519
10212TIP3    H130581   2.219   5.957   5.492
10212TIP3    H230582   2.105   5.874   5.438
10213TIP3   OH230583   3.064   1.433   6.747
10213TIP3    H130584   3.113   1.467   6.672
10213TIP3    H230585   3.003   1.370   6.708
10214TIP3   OH230586   7.263   6.279   3.062
10214TIP3    H130587   7.347   6.311   3.094
10214TIP3    H230588   7.224   6.233   3.136
10215TIP3   OH230589   2.921   7.246   6.332
10215TIP3    H130590   2.988   7.188   6.368
10215TIP3    H230591   2.944   7.255   6.240
10216TIP3   OH230592   0.680   2.770   5.788
10216TIP3    H130593   0.682   2.678   5.764
10216TIP3    H230594   0.754   2.809   5.742
10217TIP3   OH230595   1.802   6.652   1.178
10217TIP3    H130596   1.838   6.574   1.222
10217TIP3    H230597   1.880   6.699   1.146
10218TIP3   OH230598   0.626   3.020   0.790
10218TIP3    H130599   0.558   2.954   0.774
10218TIP3    H230600   0.687   2.977   0.851
10219TIP3   OH230601   0.936   2.377   5.220
10219TIP3    H130602   1.014   2.367   5.165
10219TIP3    H230603   0.867   2.405   5.159
10220TIP3   OH230604   5.447   6.724   3.621
10220TIP3    H130605   5.496   6.683   3.692
10220TIP3    H230606   5.491   6.694   3.541
10221TIP3   OH230607   1.886   7.600   0.607
10221TIP3    H130608   1.937   7.584   0.687
10221TIP3    H230609   1.951   7.604   0.538
10222TIP3   OH230610   3.837   5.178   6.324
10222TIP3    H130611   3.856   5.086   6.344
10222TIP3    H230612   3.750   5.175   6.283
10223TIP3   OH230613   3.036   3.943   3.590
10223TIP3    H130614   2.959   3.918   3.539
10223TIP3    H230615   3.097   3.870   3.579
10224TIP3   OH230616   7.518   5.034   6.488
10224TIP3    H130617   7.448   5.002   6.432
10224TIP3    H230618   7.563   4.955   6.517
10225TIP3   OH230619   8.037   5.880   3.868
10225TIP3    H130620   8.053   5.813   3.935
10225TIP3    H230621   8.064   5.962   3.909
10226TIP3   OH230622   3.375   0.917   0.274
10226TIP3    H130623   3.331   0.964   0.344
10226TIP3    H230624   3.398   0.984   0.209
10227TIP3   OH230625   7.130   0.541   1.168
10227TIP3    H130626   7.208   0.487   1.178
10227TIP3    H230627   7.121   0.586   1.252
10228TIP3   OH230628   7.854   1.675   4.209
10228TIP3    H130629   7.889   1.676   4.120
10228TIP3    H230630   7.798   1.597   4.212
10229TIP3   OH230631   5.740   1.194   2.006
10229TIP3    H130632   5.793   1.122   2.040
10229TIP3    H230633   5.662   1.194   2.061
10230TIP3   OH230634   2.620   1.216   4.257
10230TIP3    H130635   2.543   1.268   4.231
10230TIP3    H230636   2.694   1.270   4.230
10231TIP3   OH230637   2.783   4.448   5.824
10231TIP3    H130638   2.708   4.389   5.818
10231TIP3    H230639   2.842   4.419   5.754
10232TIP3   OH230640   7.251   3.652   5.107
10232TIP3    H130641   7.202   3.672   5.187
10232TIP3    H230642   7.304   3.730   5.091
10233TIP3   OH230643   5.512   0.643   0.180
10233TIP3    H130644   5.501   0.686   0.265
10233TIP3    H230645   5.427   0.604   0.162
10234TIP3   OH230646   6.961   6.057   5.947
10234TIP3    H130647   6.960   6.151   5.965
10234TIP3    H230648   6.906   6.018   6.015
10235TIP3   OH230649   7.441   3.013   0.546
10235TIP3    H130650   7.384   3.079   0.507
10235TIP3    H230651   7.409   3.004   0.636
10236TIP3   OH230652   6.260   5.651   1.328
10236TIP3    H130653   6.337   5.605   1.360
10236TIP3    H230654   6.195   5.581   1.316
10237TIP3   OH230655   4.911   1.650   2.904
10237TIP3    H130656   4.890   1.735   2.943
10237TIP3    H230657   4.827   1.606   2.894
10238TIP3   OH230658   7.373   4.728   3.811
10238TIP3    H130659   7.423   4.770   3.881
10238TIP3    H230660   7.387   4.634   3.824
10239TIP3   OH230661   6.733   2.182   6.705
10239TIP3    H130662   6.664   2.175   6.639
10239TIP3    H230663   6.812   2.202   6.655
10240TIP3   OH230664   5.205   6.271   5.625
10240TIP3    H130665   5.212   6.177   5.643
10240TIP3    H230666   5.160   6.276   5.540
10241TIP3   OH230667   0.825   3.529   4.049
10241TIP3    H130668   0.825   3.580   4.130
10241TIP3    H230669   0.736   3.492   4.044
10242TIP3   OH230670   4.032   7.489   3.461
10242TIP3    H130671   4.083   7.408   3.454
10242TIP3    H230672   3.961   7.477   3.398
10243TIP3   OH230673   8.272   1.877   6.273
10243TIP3    H130674   8.222   1.953   6.244
10243TIP3    H230675   8.212   1.803   6.262
10244TIP3   OH230676   4.534   3.308   6.612
10244TIP3    H130677   4.572   3.255   6.682
10244TIP3    H230678   4.530   3.249   6.537
10245TIP3   OH230679   7.373   0.273   4.855
10245TIP3    H130680   7.445   0.242   4.909
10245TIP3    H230681   7.390   0.236   4.768
10246TIP3   OH230682   0.464   2.477   1.300
10246TIP3    H130683   0.484   2.551   1.357
10246TIP3    H230684   0.441   2.406   1.359
10247TIP3   OH230685   3.259   1.933   2.966
10247TIP3    H130686   3.294   1.966   2.883
10247TIP3    H230687   3.333   1.890   3.008
10248TIP3   OH230688   0.312   6.543   2.632
10248TIP3    H130689   0.329   6.590   2.714
10248TIP3    H230690   0.347   6.600   2.564
10249TIP3   OH230691   3.997   2.627   4.226
10249TIP3    H130692   4.073   2.672   4.263
10249TIP3    H230693   3.986   2.551   4.283
10250TIP3   OH230694   1.758   0.283   4.196
10250TIP3    H130695   1.700   0.322   4.262
10250TIP3    H230696   1.796   0.207   4.239
10251TIP3   OH230697   3.105   3.209   3.347
10251TIP3    H130698   3.155   3.277   3.391
10251TIP3    H230699   3.167   3.167   3.288
10252TIP3   OH230700   4.663   0.980   4.356
10252TIP3    H130701   4.577   0.940   4.349
10252TIP3    H230702   4.661   1.054   4.296
10253TIP3   OH230703   4.433   4.164   2.605
10253TIP3    H130704   4.372   4.189   2.536
10253TIP3    H230705   4.517   4.153   2.560
10254TIP3   OH230706   1.917   0.188   1.279
10254TIP3    H130707   1.863   0.261   1.247
10254TIP3    H230708   1.908   0.191   1.374
10255TIP3   OH230709   4.123   2.251   4.584
10255TIP3    H130710   4.052   2.255   4.519
10255TIP3    H230711   4.153   2.341   4.594
10256TIP3   OH230712   8.024   3.345   6.225
10256TIP3    H130713   7.990   3.383   6.144
10256TIP3    H230714   8.090   3.407   6.256
10257TIP3   OH230715   3.410   4.431   6.530
10257TIP3    H130716   3.387   4.404   6.441
10257TIP3    H230717   3.335   4.404   6.583
10258TIP3   OH230718   7.517   3.392   4.386
10258TIP3    H130719   7.605   3.367   4.358
10258TIP3    H230720   7.488   3.319   4.441
10259TIP3   OH230721   1.676   7.151   0.691
10259TIP3    H130722   1.644   7.128   0.778
10259TIP3    H230723   1.695   7.244   0.696
10260TIP3   OH230724   7.890   7.654   1.435
10260TIP3    H130725   7.973   7.646   1.482
10260TIP3    H230726   7.882   7.573   1.385
10261TIP3   OH230727   1.654   6.926   5.897
10261TIP3    H130728   1.613   7.010   5.919
10261TIP3    H230729   1.580   6.865   5.889
10262TIP3   OH230730   5.499   4.974   2.680
10262TIP3    H130731   5.535   5.062   2.666
10262TIP3    H230732   5.407   4.982   2.654
10263TIP3   OH230733   6.984   3.394   3.946
10263TIP3    H130734   7.062   3.347   3.917
10263TIP3    H230735   7.009   3.486   3.941
10264TIP3   OH230736   1.555   3.458   6.408
10264TIP3    H130737   1.640   3.423   6.435
10264TIP3    H230738   1.491   3.394   6.440
10265TIP3   OH230739   1.941   5.792   6.078
10265TIP3    H130740   1.849   5.765   6.072
10265TIP3    H230741   1.990   5.719   6.040
10266TIP3   OH230742   6.256   5.161   3.620
10266TIP3    H130743   6.333   5.110   3.595
10266TIP3    H230744   6.183   5.100   3.612
10267TIP3   OH230745   1.511   0.218   0.715
10267TIP3    H130746   1.586   0.214   0.775
10267TIP3    H230747   1.467   0.300   0.737
10268TIP3   OH230748   0.804   4.067   6.088
10268TIP3    H130749   0.797   4.021   6.172
10268TIP3    H230750   0.790   3.999   6.022
10269TIP3   OH230751   5.477   3.052   2.585
10269TIP3    H130752   5.481   2.960   2.612
10269TIP3    H230753   5.507   3.100   2.662
10270TIP3   OH230754   4.925   0.410   6.694
10270TIP3    H130755   4.865   0.453   6.756
10270TIP3    H230756   5.003   0.465   6.695
10271TIP3   OH230757   0.295   5.172   0.882
10271TIP3    H130758   0.317   5.252   0.834
10271TIP3    H230759   0.337   5.183   0.967
10272TIP3   OH230760   0.310   2.554   4.578
10272TIP3    H130761   0.300   2.498   4.655
10272TIP3    H230762   0.323   2.492   4.505
10273TIP3   OH230763   0.130   2.167   3.261
10273TIP3    H130764   0.152   2.087   3.308
10273TIP3    H230765   0.141   2.144   3.168
10274TIP3   OH230766   5.170   0.748   5.361
10274TIP3    H130767   5.266   0.756   5.359
10274TIP3    H230768   5.152   0.669   5.310
10275TIP3   OH230769   1.720   7.019   1.841
10275TIP3    H130770   1.754   7.100   1.803
10275TIP3    H230771   1.792   6.986   1.895
10276TIP3   OH230772   3.830   5.660   3.074
10276TIP3    H130773   3.836   5.564   3.073
10276TIP3    H230774   3.740   5.678   3.101
10277TIP3   OH230775   5.380   6.096   2.482
10277TIP3    H130776   5.398   6.189   2.468
10277TIP3    H230777   5.355   6.090   2.575
10278TIP3   OH230778   5.570   0.748   5.848
10278TIP3    H130779   5.638   0.753   5.781
10278TIP3    H230780   5.488   0.765   5.801
10279TIP3   OH230781   0.319   7.027   5.758
10279TIP3    H130782   0.344   6.935   5.766
10279TIP3    H230783   0.303   7.055   5.848
10280TIP3   OH230784   2.942   3.056   1.891
10280TIP3    H130785   2.962   3.130   1.948
10280TIP3    H230786   2.913   3.096   1.809
10281TIP3   OH230787   8.145   5.171   3.341
10281TIP3    H130788   8.064   5.148   3.387
10281TIP3    H230789   8.119   5.178   3.249
10282TIP3   OH230790   0.276   1.105   0.488
10282TIP3    H130791   0.262   1.069   0.576
10282TIP3    H230792   0.273   1.200   0.500
10283TIP3   OH230793   6.150   6.111   3.508
10283TIP3    H130794   6.107   6.056   3.573
10283TIP3    H230795   6.243   6.100   3.525
10284TIP3   OH230796   4.056   2.859   3.499
10284TIP3    H130797   4.045   2.890   3.589
10284TIP3    H230798   3.981   2.895   3.452
10285TIP3   OH230799   0.253   1.300   3.674
10285TIP3    H130800   0.206   1.383   3.672
10285TIP3    H230801   0.334   1.319   3.720
10286TIP3   OH230802   1.043   1.896   1.671
10286TIP3    H130803   0.973   1.950   1.634
10286TIP3    H230804   1.002   1.852   1.746
10287TIP3   OH230805   5.747   7.264   2.474
10287TIP3    H130806   5.752   7.280   2.380
10287TIP3    H230807   5.702   7.340   2.509
10288TIP3   OH230808   0.118   4.764   3.827
10288TIP3    H130809   0.188   4.830   3.820
10288TIP3    H230810   0.052   4.793   3.765
10289TIP3   OH230811   1.753   2.236   4.555
10289TIP3    H130812   1.838   2.277   4.545
10289TIP3    H230813   1.714   2.240   4.467
10290TIP3   OH230814   0.117   5.484   0.670
10290TIP3    H130815   0.098   5.456   0.760
10290TIP3    H230816   0.163   5.410   0.631
10291TIP3   OH230817   1.696   1.859   4.160
10291TIP3    H130818   1.661   1.771   4.166
10291TIP3    H230819   1.620   1.915   4.147
10292TIP3   OH230820   4.312   4.885   4.900
10292TIP3    H130821   4.371   4.868   4.974
10292TIP3    H230822   4.284   4.976   4.912
10293TIP3   OH230823   2.879   5.955   3.210
10293TIP3    H130824   2.939   6.010   3.158
10293TIP3    H230825   2.859   6.009   3.287
10294TIP3   OH230826   1.327   7.603   6.179
10294TIP3    H130827   1.422   7.601   6.167
10294TIP3    H230828   1.314   7.593   6.273
10295TIP3   OH230829   4.370   2.049   6.267
10295TIP3    H130830   4.307   2.052   6.339
10295TIP3    H230831   4.418   1.968   6.281
10296TIP3   OH230832   2.893   4.807   0.291
10296TIP3    H130833   2.946   4.745   0.341
10296TIP3    H230834   2.805   4.796   0.325
10297TIP3   OH230835   6.303   2.157   5.287
10297TIP3    H130836   6.224   2.117   5.323
10297TIP3    H230837   6.300   2.136   5.194
10298TIP3   OH230838   0.188   1.698   1.928
10298TIP3    H130839   0.142   1.749   1.994
10298TIP3    H230840   0.188   1.609   1.963
10299TIP3   OH230841   6.656   1.356   1.742
10299TIP3    H130842   6.638   1.338   1.650
10299TIP3    H230843   6.719   1.288   1.769
10300TIP3   OH230844   8.287   1.014   1.278
10300TIP3    H130845   8.290   0.919   1.273
10300TIP3    H230846   8.302   1.044   1.188
10301TIP3   OH230847   4.195   4.405   5.118
10301TIP3    H130848   4.189   4.312   5.142
10301TIP3    H230849   4.111   4.442   5.144
10302TIP3   OH230850   3.791   4.714   4.390
10302TIP3    H130851   3.824   4.634   4.431
10302TIP3    H230852   3.696   4.711   4.405
10303TIP3   OH230853   8.023   2.334   2.845
10303TIP3    H130854   8.062   2.404   2.793
10303TIP3    H230855   7.982   2.276   2.781
10304TIP3   OH230856   3.603   5.448   1.618
10304TIP3    H130857   3.661   5.449   1.694
10304TIP3    H230858   3.525   5.495   1.648
10305TIP3   OH230859   6.193   7.184   4.070
10305TIP3    H130860   6.217   7.275   4.052
10305TIP3    H230861   6.106   7.190   4.110
10306TIP3   OH230862   2.934   6.540   5.600
10306TIP3    H130863   2.868   6.489   5.553
10306TIP3    H230864   2.890   6.622   5.622
10307TIP3   OH230865   6.952   1.917   3.228
10307TIP3    H130866   6.994   2.003   3.236
10307TIP3    H230867   6.899   1.924   3.148
10308TIP3   OH230868   8.058   4.092   4.111
10308TIP3    H130869   8.106   4.053   4.184
10308TIP3    H230870   8.086   4.184   4.110
10309TIP3   OH230871   6.977   2.380   0.506
10309TIP3    H130872   6.964   2.426   0.588
10309TIP3    H230873   6.957   2.444   0.438
10310TIP3   OH230874   4.578   4.056   1.632
10310TIP3    H130875   4.615   3.981   1.679
10310TIP3    H230876   4.620   4.052   1.546
10311TIP3   OH230877   2.256   0.946   2.844
10311TIP3    H130878   2.195   0.957   2.771
10311TIP3    H230879   2.201   0.949   2.922
10312TIP3   OH230880   3.384   1.637   3.753
10312TIP3    H130881   3.452   1.704   3.760
10312TIP3    H230882   3.318   1.675   3.696
10313TIP3   OH230883   8.252   3.004   5.285
10313TIP3    H130884   8.196   3.070   5.326
10313TIP3    H230885   8.194   2.955   5.227
10314TIP3   OH230886   1.146   2.899   2.917
10314TIP3    H130887   1.165   2.963   2.848
10314TIP3    H230888   1.149   2.951   2.998
10315TIP3   OH230889   3.270   2.530   6.499
10315TIP3    H130890   3.332   2.543   6.570
10315TIP3    H230891   3.256   2.436   6.496
10316TIP3   OH230892   7.429   7.502   2.853
10316TIP3    H130893   7.409   7.437   2.921
10316TIP3    H230894   7.476   7.452   2.786
10317TIP3   OH230895   3.169   6.321   1.212
10317TIP3    H130896   3.257   6.287   1.194
10317TIP3    H230897   3.120   6.244   1.242
10318TIP3   OH230898   4.327   5.909   1.857
10318TIP3    H130899   4.361   5.948   1.777
10318TIP3    H230900   4.278   5.979   1.899
10319TIP3   OH230901   5.204   1.147   1.570
10319TIP3    H130902   5.258   1.213   1.526
10319TIP3    H230903   5.122   1.147   1.522
10320TIP3   OH230904   5.673   4.804   0.220
10320TIP3    H130905   5.726   4.779   0.144
10320TIP3    H230906   5.664   4.899   0.212
10321TIP3   OH230907   7.936   1.854   1.637
10321TIP3    H130908   7.896   1.770   1.614
10321TIP3    H230909   7.879   1.919   1.597
10322TIP3   OH230910   5.164   4.479   2.846
10322TIP3    H130911   5.105   4.551   2.867
10322TIP3    H230912   5.106   4.409   2.816
10323TIP3   OH230913   1.560   5.610   3.987
10323TIP3    H130914   1.562   5.564   3.904
10323TIP3    H230915   1.572   5.542   4.053
10324TIP3   OH230916   4.777   3.731   0.011
10324TIP3    H130917   4.771   3.812   0.062
10324TIP3    H230918   4.688   3.719  -0.024
10325TIP3   OH230919   5.674   5.772   4.210
10325TIP3    H130920   5.594   5.755   4.259
10325TIP3    H230921   5.735   5.705   4.239
10326TIP3   OH230922   2.673   3.144   2.538
10326TIP3    H130923   2.636   3.056   2.535
10326TIP3    H230924   2.619   3.195   2.478
10327TIP3   OH230925   0.425   2.724   2.737
10327TIP3    H130926   0.473   2.739   2.818
10327TIP3    H230927   0.476   2.771   2.670
10328TIP3   OH230928   6.803   0.699   4.817
10328TIP3    H130929   6.854   0.630   4.774
10328TIP3    H230930   6.843   0.708   4.904
10329TIP3   OH230931   1.231   1.305   3.139
10329TIP3    H130932   1.311   1.339   3.180
10329TIP3    H230933   1.235   1.337   3.049
10330TIP3   OH230934   1.894   2.855   6.717
10330TIP3    H130935   1.939   2.894   6.642
10330TIP3    H230936   1.953   2.869   6.791
10331TIP3   OH230937   3.210   7.691   4.945
10331TIP3    H130938   3.227   7.715   4.854
10331TIP3    H230939   3.139   7.627   4.940
10332TIP3   OH230940   7.117   2.703   4.511
10332TIP3    H130941   7.188   2.719   4.574
10332TIP3    H230942   7.151   2.638   4.451
10333TIP3   OH230943   3.654   6.083   5.555
10333TIP3    H130944   3.673   6.177   5.550
10333TIP3    H230945   3.561   6.078   5.575
10334TIP3   OH230946   0.646   6.426   5.422
10334TIP3    H130947   0.618   6.397   5.335
10334TIP3    H230948   0.600   6.508   5.436
10335TIP3   OH230949   0.483   2.459   3.725
10335TIP3    H130950   0.449   2.378   3.687
10335TIP3    H230951   0.429   2.472   3.804
10336TIP3   OH230952   8.084   7.317   4.216
10336TIP3    H130953   8.063   7.399   4.171
10336TIP3    H230954   8.000   7.271   4.221
10337TIP3   OH230955   0.685   5.366   5.430
10337TIP3    H130956   0.605   5.362   5.482
10337TIP3    H230957   0.662   5.323   5.348
10338TIP3   OH230958   2.271   2.878   2.084
10338TIP3    H130959   2.185   2.841   2.106
10338TIP3    H230960   2.333   2.829   2.138
10339TIP3   OH230961   7.178   2.270   2.886
10339TIP3    H130962   7.193   2.276   2.980
10339TIP3    H230963   7.104   2.327   2.870
10340TIP3   OH230964   0.386   4.430   4.029
10340TIP3    H130965   0.397   4.525   4.032
10340TIP3    H230966   0.295   4.416   4.056
10341TIP3   OH230967   5.059   7.267   3.244
10341TIP3    H130968   5.144   7.228   3.265
10341TIP3    H230969   5.005   7.193   3.216
10342TIP3   OH230970   5.737   4.417   3.201
10342TIP3    H130971   5.828   4.394   3.180
10342TIP3    H230972   5.738   4.513   3.205
10343TIP3   OH230973   1.498   6.595   6.450
10343TIP3    H130974   1.434   6.623   6.515
10343TIP3    H230975   1.468   6.508   6.422
10344TIP3   OH230976   7.760   6.259   3.009
10344TIP3    H130977   7.706   6.231   2.935
10344TIP3    H230978   7.831   6.196   3.013
10345TIP3   OH230979   7.155   1.491   2.116
10345TIP3    H130980   7.151   1.498   2.020
10345TIP3    H230981   7.065   1.504   2.144
10346TIP3   OH230982   1.118   6.702   4.407
10346TIP3    H130983   1.046   6.735   4.353
10346TIP3    H230984   1.146   6.622   4.364
10347TIP3   OH230985   5.519   1.106   0.780
10347TIP3    H130986   5.467   1.109   0.700
10347TIP3    H230987   5.574   1.027   0.770
10348TIP3   OH230988   3.139   1.554   2.489
10348TIP3    H130989   3.101   1.633   2.526
10348TIP3    H230990   3.084   1.482   2.522
10349TIP3   OH230991   5.349   5.731   1.552
10349TIP3    H130992   5.358   5.826   1.555
10349TIP3    H230993   5.387   5.705   1.469
10350TIP3   OH230994   3.556   5.616   3.431
10350TIP3    H130995   3.588   5.608   3.341
10350TIP3    H230996   3.591   5.700   3.461
10351TIP3   OH230997   6.810   0.856   6.619
10351TIP3    H130998   6.720   0.876   6.595
10351TIP3    H230999   6.806   0.770   6.659
10352TIP3   OH231000   7.645   6.705   1.098
10352TIP3    H131001   7.611   6.616   1.086
10352TIP3    H231002   7.730   6.692   1.139
10353TIP3   OH231003   1.912   6.484   3.101
10353TIP3    H131004   1.923   6.412   3.163
10353TIP3    H231005   1.887   6.558   3.156
10354TIP3   OH231006   6.612   5.889   0.320
10354TIP3    H131007   6.698   5.850   0.332
10354TIP3    H231008   6.570   5.881   0.406
10355TIP3   OH231009   8.234   1.580   3.206
10355TIP3    H131010   8.297   1.625   3.149
10355TIP3    H231011   8.259   1.488   3.202
10356TIP3   OH231012   2.407   0.021   4.825
10356TIP3    H131013   2.344   0.062   4.766
10356TIP3    H231014   2.380  -0.071   4.830
10357TIP3   OH231015   2.763   3.467   5.247
10357TIP3    H131016   2.753   3.506   5.333
10357TIP3    H231017   2.744   3.538   5.186
10358TIP3   OH231018   3.263   2.236   6.465
10358TIP3    H131019   3.275   2.233   6.370
10358TIP3    H231020   3.198   2.168   6.483
10359TIP3   OH231021   2.987   2.927   2.416
10359TIP3    H131022   2.985   2.956   2.507
10359TIP3    H231023   2.962   3.005   2.366
10360TIP3   OH231024   5.780   1.864   5.369
10360TIP3    H131025   5.847   1.931   5.380
10360TIP3    H231026   5.817   1.802   5.306
10361TIP3   OH231027   2.963   0.521   0.852
10361TIP3    H131028   3.028   0.503   0.921
10361TIP3    H231029   2.952   0.616   0.855
10362TIP3   OH231030   0.837   2.438   0.097
10362TIP3    H131031   0.818   2.495   0.022
10362TIP3    H231032   0.816   2.350   0.066
10363TIP3   OH231033   3.630   4.123   4.459
10363TIP3    H131034   3.720   4.156   4.454
10363TIP3    H231035   3.578   4.189   4.413
10364TIP3   OH231036   1.043   2.744   6.082
10364TIP3    H131037   1.095   2.738   6.002
10364TIP3    H231038   0.964   2.692   6.064
10365TIP3   OH231039   2.277   4.212   5.372
10365TIP3    H131040   2.186   4.206   5.402
10365TIP3    H231041   2.283   4.299   5.332
10366TIP3   OH231042   8.115   7.251   0.615
10366TIP3    H131043   8.064   7.173   0.636
10366TIP3    H231044   8.104   7.309   0.690
10367TIP3   OH231045   7.584   4.338   5.428
10367TIP3    H131046   7.582   4.243   5.435
10367TIP3    H231047   7.499   4.362   5.392
10368TIP3   OH231048   4.140   1.016   3.583
10368TIP3    H131049   4.101   0.952   3.642
10368TIP3    H231050   4.128   0.979   3.495
10369TIP3   OH231051   0.214   4.250   4.484
10369TIP3    H131052   0.232   4.200   4.564
10369TIP3    H231053   0.121   4.239   4.469
10370TIP3   OH231054   8.153   6.930   3.618
10370TIP3    H131055   8.190   6.931   3.529
10370TIP3    H231056   8.087   6.862   3.615
10371TIP3   OH231057   2.429   5.470   0.902
10371TIP3    H131058   2.392   5.555   0.926
10371TIP3    H231059   2.518   5.472   0.937
10372TIP3   OH231060   2.953   6.613   0.178
10372TIP3    H131061   2.903   6.650   0.105
10372TIP3    H231062   2.912   6.650   0.256
10373TIP3   OH231063   0.353   4.588   1.896
10373TIP3    H131064   0.350   4.579   1.801
10373TIP3    H231065   0.309   4.671   1.913
10374TIP3   OH231066   5.013   7.714   1.577
10374TIP3    H131067   4.938   7.711   1.636
10374TIP3    H231068   5.078   7.767   1.624
10375TIP3   OH231069   4.523   2.012   4.108
10375TIP3    H131070   4.585   2.000   4.036
10375TIP3    H231071   4.534   1.935   4.163
10376TIP3   OH231072   0.540   4.911   0.039
10376TIP3    H131073   0.608   4.977   0.054
10376TIP3    H231074   0.494   4.905   0.122
10377TIP3   OH231075   0.241   1.994   3.711
10377TIP3    H131076   0.298   2.066   3.739
10377TIP3    H231077   0.162   2.003   3.764
10378TIP3   OH231078   8.025   3.289   0.491
10378TIP3    H131079   7.958   3.357   0.504
10378TIP3    H231080   8.108   3.336   0.495
10379TIP3   OH231081   6.624   4.651   4.511
10379TIP3    H131082   6.680   4.711   4.560
10379TIP3    H231083   6.590   4.704   4.439
10380TIP3   OH231084   1.063   2.008   3.851
10380TIP3    H131085   0.999   1.968   3.909
10380TIP3    H231086   1.048   2.102   3.860
10381TIP3   OH231087   8.073   1.488   0.044
10381TIP3    H131088   8.138   1.424   0.013
10381TIP3    H231089   8.047   1.537  -0.034
10382TIP3   OH231090   0.264   3.326   2.159
10382TIP3    H131091   0.237   3.418   2.160
10382TIP3    H231092   0.308   3.313   2.243
10383TIP3   OH231093   4.625   2.886   2.701
10383TIP3    H131094   4.668   2.930   2.774
10383TIP3    H231095   4.680   2.809   2.684
10384TIP3   OH231096   5.568   0.548   4.866
10384TIP3    H131097   5.523   0.540   4.782
10384TIP3    H231098   5.541   0.472   4.916
10385TIP3   OH231099   0.877   5.351   0.146
10385TIP3    H131100   0.850   5.380   0.059
10385TIP3    H231101   0.836   5.265   0.156
10386TIP3   OH231102   3.616   0.980   4.810
10386TIP3    H131103   3.688   0.945   4.863
10386TIP3    H231104   3.646   0.971   4.720
10387TIP3   OH231105   0.896   2.439   2.550
10387TIP3    H131106   0.832   2.371   2.526
10387TIP3    H231107   0.925   2.475   2.466
10388TIP3   OH231108   1.706   0.759   1.888
10388TIP3    H131109   1.633   0.698   1.899
10388TIP3    H231110   1.683   0.809   1.809
10389TIP3   OH231111   7.475   0.524   1.049
10389TIP3    H131112   7.559   0.569   1.059
10389TIP3    H231113   7.457   0.527   0.955
10390TIP3   OH231114   8.064   0.623   4.010
10390TIP3    H131115   7.979   0.592   3.977
10390TIP3    H231116   8.069   0.713   3.980
10391TIP3   OH231117   0.788   7.780   2.358
10391TIP3    H131118   0.858   7.815   2.413
10391TIP3    H231119   0.785   7.687   2.379
10392TIP3   OH231120   1.951   0.384   5.455
10392TIP3    H131121   1.882   0.325   5.485
10392TIP3    H231122   1.934   0.466   5.501
10393TIP3   OH231123   3.184   6.347   4.960
10393TIP3    H131124   3.217   6.429   4.996
10393TIP3    H231125   3.247   6.281   4.989
10394TIP3   OH231126   4.573   4.752   5.555
10394TIP3    H131127   4.650   4.786   5.601
10394TIP3    H231128   4.591   4.767   5.462
10395TIP3   OH231129   0.948   7.119   1.464
10395TIP3    H131130   0.865   7.133   1.509
10395TIP3    H231131   0.924   7.102   1.373
10396TIP3   OH231132   5.670   3.235   6.709
10396TIP3    H131133   5.662   3.259   6.801
10396TIP3    H231134   5.758   3.200   6.700
10397TIP3   OH231135   0.365   7.376   1.136
10397TIP3    H131136   0.316   7.367   1.055
10397TIP3    H231137   0.299   7.404   1.200
10398TIP3   OH231138   7.802   4.256   6.475
10398TIP3    H131139   7.791   4.282   6.567
10398TIP3    H231140   7.757   4.324   6.426
10399TIP3   OH231141   0.186   4.643   5.365
10399TIP3    H131142   0.274   4.632   5.401
10399TIP3    H231143   0.128   4.618   5.437
10400TIP3   OH231144   5.935   5.348   0.393
10400TIP3    H131145   6.028   5.355   0.417
10400TIP3    H231146   5.895   5.297   0.463
10401TIP3   OH231147   0.347   2.726   3.694
10401TIP3    H131148   0.421   2.747   3.752
10401TIP3    H231149   0.300   2.809   3.685
10402TIP3   OH231150   6.804   3.959   1.371
10402TIP3    H131151   6.747   3.884   1.355
10402TIP3    H231152   6.890   3.930   1.339
10403TIP3   OH231153   7.976   3.463   4.077
10403TIP3    H131154   7.906   3.452   4.012
10403TIP3    H231155   7.968   3.554   4.106
10404TIP3   OH231156   2.595   0.236   3.749
10404TIP3    H131157   2.552   0.320   3.735
10404TIP3    H231158   2.523   0.174   3.760
10405TIP3   OH231159   4.291   2.788   2.580
10405TIP3    H131160   4.300   2.834   2.664
10405TIP3    H231161   4.238   2.711   2.601
10406TIP3   OH231162   5.285  -0.013   2.413
10406TIP3    H131163   5.369  -0.003   2.458
10406TIP3    H231164   5.237   0.067   2.432
10407TIP3   OH231165   2.156   4.622   1.702
10407TIP3    H131166   2.225   4.646   1.764
10407TIP3    H231167   2.075   4.628   1.753
10408TIP3   OH231168   4.875   0.988   2.683
10408TIP3    H131169   4.830   0.953   2.760
10408TIP3    H231170   4.821   0.960   2.609
10409TIP3   OH231171   3.310   6.094   3.199
10409TIP3    H131172   3.233   6.102   3.142
10409TIP3    H231173   3.320   6.180   3.240
10410TIP3   OH231174   6.751   6.683   4.600
10410TIP3    H131175   6.691   6.698   4.528
10410TIP3    H231176   6.709   6.616   4.654
10411TIP3   OH231177   3.013   1.560   0.376
10411TIP3    H131178   3.061   1.638   0.403
10411TIP3    H231179   3.081   1.494   0.360
10412TIP3   OH231180   3.074   1.414   1.042
10412TIP3    H131181   3.150   1.471   1.047
10412TIP3    H231182   3.091   1.359   0.965
10413TIP3   OH231183   5.910   7.264   6.395
10413TIP3    H131184   5.866   7.265   6.310
10413TIP3    H231185   5.888   7.348   6.434
10414TIP3   OH231186   6.420   5.322   1.595
10414TIP3    H131187   6.330   5.322   1.564
10414TIP3    H231188   6.422   5.257   1.664
10415TIP3   OH231189   4.864   3.812   6.017
10415TIP3    H131190   4.897   3.896   5.985
10415TIP3    H231191   4.858   3.757   5.938
10416TIP3   OH231192   5.744   1.358   1.790
10416TIP3    H131193   5.743   1.324   1.879
10416TIP3    H231194   5.652   1.363   1.764
10417TIP3   OH231195   2.912   2.943   4.625
10417TIP3    H131196   2.890   2.975   4.538
10417TIP3    H231197   2.865   2.860   4.633
10418TIP3   OH231198   0.157   6.881   2.644
10418TIP3    H131199   0.122   6.967   2.621
10418TIP3    H231200   0.088   6.819   2.620
10419TIP3   OH231201   7.465   5.768   1.360
10419TIP3    H131202   7.377   5.802   1.378
10419TIP3    H231203   7.478   5.700   1.425
10420TIP3   OH231204   0.104   2.597   6.485
10420TIP3    H131205   0.088   2.533   6.555
10420TIP3    H231206   0.018   2.635   6.467
10421TIP3   OH231207   2.190   2.475   2.177
10421TIP3    H131208   2.108   2.525   2.182
10421TIP3    H231209   2.188   2.435   2.090
10422TIP3   OH231210   2.002   3.522   1.741
10422TIP3    H131211   2.067   3.566   1.797
10422TIP3    H231212   1.918   3.553   1.773
10423TIP3   OH231213   2.056   3.221   3.172
10423TIP3    H131214   1.970   3.255   3.195
10423TIP3    H231215   2.038   3.145   3.115
10424TIP3   OH231216   6.596   6.476   1.485
10424TIP3    H131217   6.529   6.420   1.524
10424TIP3    H231218   6.585   6.560   1.528
10425TIP3   OH231219   3.697   0.948   5.283
10425TIP3    H131220   3.713   1.024   5.228
10425TIP3    H231221   3.731   0.972   5.369
10426TIP3   OH231222   0.881   6.461   6.023
10426TIP3    H131223   0.853   6.370   6.017
10426TIP3    H231224   0.899   6.474   6.116
10427TIP3   OH231225   0.863   6.773   0.703
10427TIP3    H131226   0.812   6.740   0.629
10427TIP3    H231227   0.860   6.868   0.693
10428TIP3   OH231228   4.984   2.530   0.067
10428TIP3    H131229   5.074   2.560   0.084
10428TIP3    H231230   4.953   2.497   0.151
10429TIP3   OH231231   0.895   7.041   2.710
10429TIP3    H131232   0.953   7.093   2.765
10429TIP3    H231233   0.946   7.022   2.632
10430TIP3   OH231234   2.170   2.379   1.924
10430TIP3    H131235   2.092   2.426   1.896
10430TIP3    H231236   2.216   2.357   1.843
10431TIP3   OH231237   5.513   1.929   6.115
10431TIP3    H131238   5.606   1.911   6.131
10431TIP3    H231239   5.472   1.920   6.201
10432TIP3   OH231240   6.141   1.333   4.560
10432TIP3    H131241   6.206   1.268   4.530
10432TIP3    H231242   6.165   1.414   4.515
10433TIP3   OH231243   4.019   0.461   2.031
10433TIP3    H131244   4.049   0.547   2.000
10433TIP3    H231245   4.096   0.405   2.022
10434TIP3   OH231246   6.603   2.693   1.539
10434TIP3    H131247   6.641   2.610   1.568
10434TIP3    H231248   6.583   2.679   1.447
10435TIP3   OH231249   0.154   0.608   4.420
10435TIP3    H131250   0.214   0.612   4.495
10435TIP3    H231251   0.067   0.618   4.459
10436TIP3   OH231252   5.985   4.931   6.714
10436TIP3    H131253   6.055   4.977   6.761
10436TIP3    H231254   6.031   4.878   6.649
10437TIP3   OH231255   6.013   7.365   1.986
10437TIP3    H131256   6.028   7.348   2.079
10437TIP3    H231257   6.043   7.455   1.973
10438TIP3   OH231258   1.444   4.495   0.389
10438TIP3    H131259   1.393   4.465   0.464
10438TIP3    H231260   1.526   4.527   0.427
10439TIP3   OH231261   2.839   0.911   2.942
10439TIP3    H131262   2.765   0.921   2.882
10439TIP3    H231263   2.822   0.973   3.012
10440TIP3   OH231264   1.122   5.461   1.636
10440TIP3    H131265   1.118   5.415   1.720
10440TIP3    H231266   1.043   5.515   1.634
10441TIP3   OH231267   7.123   2.812   0.585
10441TIP3    H131268   7.170   2.858   0.655
10441TIP3    H231269   7.041   2.784   0.626
10442TIP3   OH231270   0.901   4.371   5.764
10442TIP3    H131271   0.987   4.344   5.732
10442TIP3    H231272   0.890   4.459   5.730
10443TIP3   OH231273   7.522   4.039   6.715
10443TIP3    H131274   7.515   3.987   6.635
10443TIP3    H231275   7.434   4.037   6.752
10444TIP3   OH231276   7.965   3.881   2.670
10444TIP3    H131277   7.994   3.916   2.754
10444TIP3    H231278   7.956   3.787   2.685
10445TIP3   OH231279   4.105   6.528   0.922
10445TIP3    H131280   4.032   6.489   0.971
10445TIP3    H231281   4.071   6.611   0.889
10446TIP3   OH231282   7.145   4.448   4.058
10446TIP3    H131283   7.182   4.363   4.035
10446TIP3    H231284   7.137   4.446   4.154
10447TIP3   OH231285   6.203   3.323   6.527
10447TIP3    H131286   6.111   3.317   6.499
10447TIP3    H231287   6.205   3.281   6.612
10448TIP3   OH231288   3.701   7.700   6.439
10448TIP3    H131289   3.652   7.623   6.469
10448TIP3    H231290   3.636   7.755   6.395
10449TIP3   OH231291   4.898   4.640   5.725
10449TIP3    H131292   4.816   4.611   5.766
10449TIP3    H231293   4.965   4.585   5.765
10450TIP3   OH231294   8.101   0.493   1.451
10450TIP3    H131295   8.015   0.475   1.413
10450TIP3    H231296   8.156   0.421   1.421
10451TIP3   OH231297   5.614   6.845   6.038
10451TIP3    H131298   5.686   6.785   6.058
10451TIP3    H231299   5.535   6.796   6.061
10452TIP3   OH231300   3.639   4.304   5.475
10452TIP3    H131301   3.717   4.262   5.511
10452TIP3    H231302   3.568   4.244   5.496
10453TIP3   OH231303   6.174   4.149   0.211
10453TIP3    H131304   6.178   4.070   0.159
10453TIP3    H231305   6.262   4.185   0.207
10454TIP3   OH231306   5.273   3.040   1.038
10454TIP3    H131307   5.347   3.000   1.083
10454TIP3    H231308   5.309   3.119   0.999
10455TIP3   OH231309   1.641   3.265   5.052
10455TIP3    H131310   1.651   3.348   5.005
10455TIP3    H231311   1.558   3.230   5.020
10456TIP3   OH231312   3.220   6.354   2.893
10456TIP3    H131313   3.169   6.289   2.941
10456TIP3    H231314   3.303   6.359   2.939
10457TIP3   OH231315   3.734   5.537   6.392
10457TIP3    H131316   3.759   5.483   6.466
10457TIP3    H231317   3.755   5.627   6.419
10458TIP3   OH231318   4.679   6.613   4.418
10458TIP3    H131319   4.671   6.654   4.504
10458TIP3    H231320   4.706   6.523   4.436
10459TIP3   OH231321   3.805   2.410   2.981
10459TIP3    H131322   3.883   2.461   3.004
10459TIP3    H231323   3.829   2.365   2.901
10460TIP3   OH231324   5.045   2.080   2.984
10460TIP3    H131325   5.128   2.119   2.955
10460TIP3    H231326   5.061   1.986   2.981
10461TIP3   OH231327   4.949   7.015   1.289
10461TIP3    H131328   4.869   7.063   1.268
10461TIP3    H231329   4.936   6.929   1.249
10462TIP3   OH231330   0.056   5.904   5.760
10462TIP3    H131331   0.084   5.813   5.768
10462TIP3    H231332   0.104   5.951   5.828
10463TIP3   OH231333   5.390   4.901   4.798
10463TIP3    H131334   5.344   4.965   4.743
10463TIP3    H231335   5.359   4.920   4.887
10464TIP3   OH231336   0.696   7.106   1.567
10464TIP3    H131337   0.727   7.029   1.613
10464TIP3    H231338   0.621   7.075   1.516
10465TIP3   OH231339   1.221   5.523   4.050
10465TIP3    H131340   1.304   5.567   4.063
10465TIP3    H231341   1.227   5.444   4.104
10466TIP3   OH231342   3.811   2.980   2.080
10466TIP3    H131343   3.792   3.069   2.051
10466TIP3    H231344   3.903   2.982   2.106
10467TIP3   OH231345   0.432   7.427   0.323
10467TIP3    H131346   0.401   7.517   0.313
10467TIP3    H231347   0.415   7.386   0.239
10468TIP3   OH231348   1.321   1.910   4.233
10468TIP3    H131349   1.315   1.839   4.168
10468TIP3    H231350   1.321   1.865   4.317
10469TIP3   OH231351   7.538   5.303   4.848
10469TIP3    H131352   7.616   5.290   4.795
10469TIP3    H231353   7.562   5.272   4.935
10470TIP3   OH231354   1.832   6.035   6.102
10470TIP3    H131355   1.855   6.067   6.015
10470TIP3    H231356   1.877   5.951   6.110
10471TIP3   OH231357   0.001   2.315   4.579
10471TIP3    H131358  -0.030   2.325   4.669
10471TIP3    H231359   0.076   2.256   4.585
10472TIP3   OH231360   4.049   4.315   5.474
10472TIP3    H131361   3.988   4.270   5.415
10472TIP3    H231362   4.136   4.289   5.443
10473TIP3   OH231363   6.982   3.878   1.661
10473TIP3    H131364   6.936   3.923   1.732
10473TIP3    H231365   6.994   3.789   1.693
10474TIP3   OH231366   7.473   4.419   2.866
10474TIP3    H131367   7.548   4.411   2.807
10474TIP3    H231368   7.455   4.329   2.893
10475TIP3   OH231369   4.188   0.251   2.276
10475TIP3    H131370   4.247   0.309   2.227
10475TIP3    H231371   4.106   0.254   2.226
10476TIP3   OH231372   1.419   0.689   1.866
10476TIP3    H131373   1.464   0.622   1.814
10476TIP3    H231374   1.327   0.661   1.867
10477TIP3   OH231375   7.192   1.069   3.910
10477TIP3    H131376   7.190   1.059   3.815
10477TIP3    H231377   7.101   1.053   3.937
10478TIP3   OH231378   0.626   6.029   1.026
10478TIP3    H131379   0.653   6.027   1.118
10478TIP3    H231380   0.574   6.109   1.019
10479TIP3   OH231381   3.781   6.797   5.066
10479TIP3    H131382   3.815   6.720   5.111
10479TIP3    H231383   3.855   6.858   5.063
10480TIP3   OH231384   7.947   3.561   5.158
10480TIP3    H131385   7.950   3.548   5.253
10480TIP3    H231386   7.903   3.645   5.147
10481TIP3   OH231387   1.750   1.602   2.736
10481TIP3    H131388   1.803   1.674   2.702
10481TIP3    H231389   1.677   1.645   2.780
10482TIP3   OH231390   5.910   6.101   3.283
10482TIP3    H131391   5.975   6.090   3.214
10482TIP3    H231392   5.961   6.108   3.363
10483TIP3   OH231393   6.565   5.951   3.270
10483TIP3    H131394   6.539   5.861   3.251
10483TIP3    H231395   6.537   5.966   3.360
10484TIP3   OH231396   3.429   1.378   1.615
10484TIP3    H131397   3.505   1.321   1.605
10484TIP3    H231398   3.466   1.464   1.635
10485TIP3   OH231399   7.204   1.940   6.121
10485TIP3    H131400   7.136   2.001   6.094
10485TIP3    H231401   7.173   1.854   6.091
10486TIP3   OH231402   0.090   0.378   1.878
10486TIP3    H131403   0.029   0.443   1.913
10486TIP3    H231404   0.094   0.397   1.784
10487TIP3   OH231405   1.505   1.729   4.478
10487TIP3    H131406   1.413   1.748   4.496
10487TIP3    H231407   1.534   1.676   4.552
10488TIP3   OH231408   4.767   6.719   0.322
10488TIP3    H131409   4.749   6.629   0.296
10488TIP3    H231410   4.791   6.764   0.241
10489TIP3   OH231411   6.282   6.730   1.998
10489TIP3    H131412   6.342   6.714   1.926
10489TIP3    H231413   6.301   6.819   2.027
10490TIP3   OH231414   5.174   4.233   5.238
10490TIP3    H131415   5.118   4.183   5.298
10490TIP3    H231416   5.257   4.244   5.286
10491TIP3   OH231417   3.198   4.330   1.131
10491TIP3    H131418   3.238   4.244   1.123
10491TIP3    H231419   3.104   4.312   1.139
10492TIP3   OH231420   5.737   6.320   1.634
10492TIP3    H131421   5.824   6.330   1.672
10492TIP3    H231422   5.748   6.254   1.566
10493TIP3   OH231423   1.747   4.767   1.499
10493TIP3    H131424   1.817   4.813   1.545
10493TIP3    H231425   1.784   4.682   1.478
10494TIP3   OH231426   0.406   2.089   4.376
10494TIP3    H131427   0.428   2.051   4.461
10494TIP3    H231428   0.487   2.131   4.347
10495TIP3   OH231429   0.159   0.283   3.098
10495TIP3    H131430   0.235   0.251   3.147
10495TIP3    H231431   0.194   0.350   3.040
10496TIP3   OH231432   6.057   2.605   1.544
10496TIP3    H131433   6.147   2.625   1.519
10496TIP3    H231434   6.005   2.675   1.505
10497TIP3   OH231435   3.296   5.519   1.054
10497TIP3    H131436   3.390   5.534   1.069
10497TIP3    H231437   3.265   5.477   1.134
10498TIP3   OH231438   3.896   1.659   5.682
10498TIP3    H131439   3.944   1.576   5.681
10498TIP3    H231440   3.927   1.703   5.761
10499TIP3   OH231441   4.272   4.489   0.028
10499TIP3    H131442   4.306   4.542  -0.043
10499TIP3    H231443   4.192   4.535   0.056
10500TIP3   OH231444   5.683   2.817   4.079
10500TIP3    H131445   5.656   2.782   4.164
10500TIP3    H231446   5.760   2.870   4.098
10501TIP3   OH231447   0.472   3.560   2.913
10501TIP3    H131448   0.541   3.626   2.916
10501TIP3    H231449   0.518   3.476   2.919
10502TIP3   OH231450   2.284   6.730   1.932
10502TIP3    H131451   2.374   6.752   1.908
10502TIP3    H231452   2.283   6.634   1.933
10503TIP3   OH231453   7.700   2.789   1.235
10503TIP3    H131454   7.714   2.706   1.280
10503TIP3    H231455   7.788   2.826   1.226
10504TIP3   OH231456   4.845   2.892   0.536
10504TIP3    H131457   4.823   2.838   0.461
10504TIP3    H231458   4.941   2.895   0.536
10505TIP3   OH231459   7.000   7.406   5.644
10505TIP3    H131460   7.043   7.404   5.730
10505TIP3    H231461   7.007   7.497   5.616
10506TIP3   OH231462   4.729   3.520   1.007
10506TIP3    H131463   4.795   3.512   1.076
10506TIP3    H231464   4.693   3.432   0.997
10507TIP3   OH231465   6.269   2.554   5.195
10507TIP3    H131466   6.283   2.601   5.113
10507TIP3    H231467   6.189   2.593   5.232
10508TIP3   OH231468   1.146   5.891   0.423
10508TIP3    H131469   1.156   5.795   0.428
10508TIP3    H231470   1.149   5.911   0.330
10509TIP3   OH231471   7.564   7.095   2.066
10509TIP3    H131472   7.618   7.037   2.119
10509TIP3    H231473   7.586   7.183   2.097
10510TIP3   OH231474   4.619   1.236   1.164
10510TIP3    H131475   4.551   1.259   1.228
10510TIP3    H231476   4.688   1.300   1.178
10511TIP3   OH231477   7.660   1.378   3.857
10511TIP3    H131478   7.623   1.423   3.782
10511TIP3    H231479   7.594   1.314   3.883
10512TIP3   OH231480   7.449   3.598   6.433
10512TIP3    H131481   7.374   3.604   6.374
10512TIP3    H231482   7.525   3.599   6.376
10513TIP3   OH231483   0.817   4.074   2.412
10513TIP3    H131484   0.847   3.999   2.464
10513TIP3    H231485   0.723   4.060   2.402
10514TIP3   OH231486   1.976   2.279   4.126
10514TIP3    H131487   1.891   2.288   4.084
10514TIP3    H231488   1.971   2.195   4.172
10515TIP3   OH231489   7.775   1.637   2.198
10515TIP3    H131490   7.856   1.685   2.216
10515TIP3    H231491   7.708   1.682   2.250
10516TIP3   OH231492   4.110   5.710   3.594
10516TIP3    H131493   4.203   5.727   3.608
10516TIP3    H231494   4.065   5.778   3.643
10517TIP3   OH231495   3.849   7.510   1.629
10517TIP3    H131496   3.840   7.466   1.545
10517TIP3    H231497   3.930   7.475   1.666
10518TIP3   OH231498   3.545   6.623   6.700
10518TIP3    H131499   3.534   6.717   6.715
10518TIP3    H231500   3.461   6.594   6.665
10519TIP3   OH231501   3.120   2.200   2.812
10519TIP3    H131502   3.181   2.162   2.749
10519TIP3    H231503   3.056   2.246   2.758
10520TIP3   OH231504   2.781   5.189   0.265
10520TIP3    H131505   2.817   5.229   0.344
10520TIP3    H231506   2.691   5.167   0.289
10521TIP3   OH231507   1.200   7.626   3.166
10521TIP3    H131508   1.107   7.640   3.187
10521TIP3    H231509   1.222   7.697   3.106
10522TIP3   OH231510   2.027   1.268   2.424
10522TIP3    H131511   2.119   1.260   2.451
10522TIP3    H231512   2.019   1.209   2.350
10523TIP3   OH231513   8.254   2.582   0.005
10523TIP3    H131514   8.329   2.638  -0.017
10523TIP3    H231515   8.274   2.550   0.093
10524TIP3   OH231516   1.406   2.470   4.849
10524TIP3    H131517   1.354   2.411   4.904
10524TIP3    H231518   1.438   2.415   4.778
10525TIP3   OH231519   7.509   3.349   3.784
10525TIP3    H131520   7.454   3.290   3.834
10525TIP3    H231521   7.451   3.422   3.760
10526TIP3   OH231522   2.934   4.594   3.439
10526TIP3    H131523   2.945   4.678   3.396
10526TIP3    H231524   2.869   4.610   3.508
10527TIP3   OH231525   1.393   0.315   5.012
10527TIP3    H131526   1.305   0.316   4.974
10527TIP3    H231527   1.452   0.312   4.937
10528TIP3   OH231528   2.874   6.520   3.795
10528TIP3    H131529   2.846   6.437   3.833
10528TIP3    H231530   2.850   6.586   3.860
10529TIP3   OH231531   6.120   5.298   4.570
10529TIP3    H131532   6.187   5.260   4.513
10529TIP3    H231533   6.044   5.241   4.560
10530TIP3   OH231534   5.313   2.573   1.000
10530TIP3    H131535   5.268   2.489   0.995
10530TIP3    H231536   5.245   2.635   1.028
10531TIP3   OH231537   3.823   3.224   5.689
10531TIP3    H131538   3.896   3.244   5.631
10531TIP3    H231539   3.747   3.267   5.648
10532TIP3   OH231540   6.213   6.661   5.922
10532TIP3    H131541   6.298   6.700   5.902
10532TIP3    H231542   6.162   6.731   5.962
10533TIP3   OH231543   4.712   1.355   5.260
10533TIP3    H131544   4.733   1.424   5.197
10533TIP3    H231545   4.763   1.280   5.230
10534TIP3   OH231546   6.322   7.417   4.268
10534TIP3    H131547   6.347   7.509   4.267
10534TIP3    H231548   6.227   7.418   4.256
10535TIP3   OH231549   7.767   1.986   0.866
10535TIP3    H131550   7.749   1.958   0.956
10535TIP3    H231551   7.796   2.077   0.875
10536TIP3   OH231552   6.096   2.918   6.520
10536TIP3    H131553   6.099   2.859   6.445
10536TIP3    H231554   6.137   2.868   6.591
10537TIP3   OH231555   2.629   1.423   6.674
10537TIP3    H131556   2.566   1.493   6.689
10537TIP3    H231557   2.602   1.352   6.733
10538TIP3   OH231558   7.097   7.048   5.827
10538TIP3    H131559   7.153   7.103   5.773
10538TIP3    H231560   7.119   7.072   5.917
10539TIP3   OH231561   5.887   2.408   5.505
10539TIP3    H131562   5.859   2.496   5.528
10539TIP3    H231563   5.909   2.413   5.412
10540TIP3   OH231564   6.063   4.517   0.099
10540TIP3    H131565   6.016   4.489   0.177
10540TIP3    H231566   6.092   4.436   0.058
10541TIP3   OH231567   1.807   3.131   2.141
10541TIP3    H131568   1.721   3.100   2.112
10541TIP3    H231569   1.821   3.087   2.225
10542TIP3   OH231570   8.332   3.907   0.261
10542TIP3    H131571   8.302   3.855   0.186
10542TIP3    H231572   8.255   3.958   0.287
10543TIP3   OH231573   5.564   4.350   1.641
10543TIP3    H131574   5.570   4.439   1.607
10543TIP3    H231575   5.648   4.309   1.616
10544TIP3   OH231576   4.681   5.953   1.767
10544TIP3    H131577   4.719   5.942   1.680
10544TIP3    H231578   4.587   5.941   1.754
10545TIP3   OH231579   3.635   4.363   3.173
10545TIP3    H131580   3.689   4.411   3.111
10545TIP3    H231581   3.655   4.271   3.157
10546TIP3   OH231582   0.575   6.022   4.356
10546TIP3    H131583   0.648   6.081   4.339
10546TIP3    H231584   0.544   6.046   4.443
10547TIP3   OH231585   3.984   3.427   6.611
10547TIP3    H131586   3.927   3.350   6.605
10547TIP3    H231587   3.924   3.500   6.630
10548TIP3   OH231588   1.379   3.405   0.697
10548TIP3    H131589   1.432   3.347   0.752
10548TIP3    H231590   1.442   3.457   0.648
10549TIP3   OH231591   0.347   3.847   3.539
10549TIP3    H131592   0.338   3.780   3.607
10549TIP3    H231593   0.304   3.924   3.576
10550TIP3   OH231594   6.599   1.512   2.420
10550TIP3    H131595   6.526   1.548   2.370
10550TIP3    H231596   6.638   1.447   2.361
10551TIP3   OH231597   5.297   1.283   2.336
10551TIP3    H131598   5.241   1.264   2.411
10551TIP3    H231599   5.239   1.327   2.274
10552TIP3   OH231600   2.064   5.013   0.579
10552TIP3    H131601   2.021   4.968   0.651
10552TIP3    H231602   2.054   4.954   0.504
10553TIP3   OH231603   0.714   6.370   6.398
10553TIP3    H131604   0.689   6.281   6.422
10553TIP3    H231605   0.793   6.358   6.344
10554TIP3   OH231606   7.621   3.424   2.568
10554TIP3    H131607   7.659   3.376   2.494
10554TIP3    H231608   7.541   3.376   2.589
10555TIP3   OH231609   6.000   0.071   3.956
10555TIP3    H131610   6.082   0.052   3.909
10555TIP3    H231611   5.947  -0.008   3.945
10556TIP3   OH231612   8.253   1.709   0.340
10556TIP3    H131613   8.292   1.701   0.253
10556TIP3    H231614   8.225   1.800   0.346
10557TIP3   OH231615   5.407   4.285   2.821
10557TIP3    H131616   5.334   4.346   2.813
10557TIP3    H231617   5.443   4.301   2.908
10558TIP3   OH231618   6.232   5.422   5.873
10558TIP3    H131619   6.293   5.406   5.945
10558TIP3    H231620   6.186   5.503   5.898
10559TIP3   OH231621   4.419   1.492   5.562
10559TIP3    H131622   4.475   1.428   5.520
10559TIP3    H231623   4.418   1.567   5.502
10560TIP3   OH231624   0.468   4.170   2.732
10560TIP3    H131625   0.432   4.176   2.820
10560TIP3    H231626   0.448   4.081   2.703
10561TIP3   OH231627   7.099   7.355   4.403
10561TIP3    H131628   7.032   7.288   4.396
10561TIP3    H231629   7.165   7.317   4.461
10562TIP3   OH231630   3.405   5.570   4.525
10562TIP3    H131631   3.442   5.488   4.559
10562TIP3    H231632   3.332   5.589   4.584
10563TIP3   OH231633   3.308   0.559   1.754
10563TIP3    H131634   3.398   0.569   1.785
10563TIP3    H231635   3.291   0.637   1.701
10564TIP3   OH231636   5.695   3.952   0.506
10564TIP3    H131637   5.718   4.017   0.573
10564TIP3    H231638   5.599   3.956   0.502
10565TIP3   OH231639   1.689   1.589   5.686
10565TIP3    H131640   1.768   1.577   5.633
10565TIP3    H231641   1.617   1.579   5.623
10566TIP3   OH231642   6.904   3.289   1.871
10566TIP3    H131643   6.956   3.216   1.837
10566TIP3    H231644   6.963   3.334   1.931
10567TIP3   OH231645   4.546   6.759   4.222
10567TIP3    H131646   4.551   6.854   4.235
10567TIP3    H231647   4.581   6.723   4.303
10568TIP3   OH231648   0.419   6.045   4.103
10568TIP3    H131649   0.446   6.020   4.192
10568TIP3    H231650   0.468   6.125   4.085
10569TIP3   OH231651   3.464   5.343   2.390
10569TIP3    H131652   3.545   5.335   2.441
10569TIP3    H231653   3.395   5.313   2.449
10570TIP3   OH231654   5.955   6.876   2.033
10570TIP3    H131655   6.008   6.901   1.957
10570TIP3    H231656   6.013   6.890   2.108
10571TIP3   OH231657   7.759   2.114   2.295
10571TIP3    H131658   7.680   2.084   2.341
10571TIP3    H231659   7.768   2.054   2.221
10572TIP3   OH231660   6.856   5.904   6.470
10572TIP3    H131661   6.869   5.880   6.562
10572TIP3    H231662   6.821   5.992   6.474
10573TIP3   OH231663   7.958   0.814   2.307
10573TIP3    H131664   7.949   0.727   2.270
10573TIP3    H231665   8.038   0.810   2.360
10574TIP3   OH231666   3.611   1.396   2.141
10574TIP3    H131667   3.526   1.425   2.176
10574TIP3    H231668   3.607   1.300   2.146
10575TIP3   OH231669   7.149   0.703   5.288
10575TIP3    H131670   7.131   0.667   5.375
10575TIP3    H231671   7.243   0.687   5.275
10576TIP3   OH231672   2.893   0.235   3.724
10576TIP3    H131673   2.873   0.143   3.743
10576TIP3    H231674   2.856   0.250   3.638
10577TIP3   OH231675   2.261   3.755   0.361
10577TIP3    H131676   2.285   3.789   0.447
10577TIP3    H231677   2.321   3.682   0.347
10578TIP3   OH231678   6.704   0.787   2.259
10578TIP3    H131679   6.689   0.783   2.353
10578TIP3    H231680   6.621   0.760   2.220
10579TIP3   OH231681   5.288   1.292   4.803
10579TIP3    H131682   5.220   1.334   4.857
10579TIP3    H231683   5.359   1.356   4.800
10580TIP3   OH231684   6.828   2.671   1.765
10580TIP3    H131685   6.825   2.763   1.791
10580TIP3    H231686   6.851   2.673   1.672
10581TIP3   OH231687   1.150   5.121   0.644
10581TIP3    H131688   1.206   5.071   0.586
10581TIP3    H231689   1.166   5.085   0.731
10582TIP3   OH231690   0.609   7.001   0.451
10582TIP3    H131691   0.699   7.031   0.446
10582TIP3    H231692   0.598   6.943   0.375
10583TIP3   OH231693   8.175   5.046   0.873
10583TIP3    H131694   8.222   4.964   0.890
10583TIP3    H231695   8.167   5.050   0.777
10584TIP3   OH231696   1.048   2.730   0.779
10584TIP3    H131697   1.097   2.671   0.721
10584TIP3    H231698   1.102   2.735   0.858
10585TIP3   OH231699   6.854   4.703   5.103
10585TIP3    H131700   6.886   4.765   5.169
10585TIP3    H231701   6.768   4.676   5.136
10586TIP3   OH231702   1.275   5.356   2.367
10586TIP3    H131703   1.286   5.397   2.281
10586TIP3    H231704   1.189   5.386   2.396
10587TIP3   OH231705   1.517   6.874   4.165
10587TIP3    H131706   1.591   6.928   4.137
10587TIP3    H231707   1.441   6.930   4.152
10588TIP3   OH231708   0.494   1.187   2.112
10588TIP3    H131709   0.579   1.231   2.118
10588TIP3    H231710   0.501   1.114   2.174
10589TIP3   OH231711   0.258   4.486   6.074
10589TIP3    H131712   0.301   4.402   6.089
10589TIP3    H231713   0.329   4.546   6.053
10590TIP3   OH231714   5.897   5.843   1.236
10590TIP3    H131715   5.970   5.887   1.192
10590TIP3    H231716   5.819   5.887   1.203
10591TIP3   OH231717   2.818   4.101   3.120
10591TIP3    H131718   2.903   4.086   3.080
10591TIP3    H231719   2.760   4.039   3.075
10592TIP3   OH231720   2.145   7.536   5.468
10592TIP3    H131721   2.058   7.573   5.455
10592TIP3    H231722   2.152   7.467   5.402
10593TIP3   OH231723   7.870   4.802   1.323
10593TIP3    H131724   7.835   4.713   1.316
10593TIP3    H231725   7.905   4.821   1.235
10594TIP3   OH231726   0.405   0.052   3.179
10594TIP3    H131727   0.441  -0.036   3.166
10594TIP3    H231728   0.436   0.102   3.103
10595TIP3   OH231729   5.299   4.772   1.742
10595TIP3    H131730   5.228   4.708   1.748
10595TIP3    H231731   5.371   4.734   1.793
10596TIP3   OH231732   3.304   5.237   4.188
10596TIP3    H131733   3.214   5.229   4.221
10596TIP3    H231734   3.300   5.203   4.098
10597TIP3   OH231735   0.138   6.209   0.366
10597TIP3    H131736   0.194   6.214   0.288
10597TIP3    H231737   0.084   6.288   0.361
10598TIP3   OH231738   2.280   4.800   1.496
10598TIP3    H131739   2.339   4.871   1.517
10598TIP3    H231740   2.274   4.748   1.576
10599TIP3   OH231741   1.721   4.113   3.377
10599TIP3    H131742   1.810   4.140   3.399
10599TIP3    H231743   1.668   4.142   3.451
10600TIP3   OH231744   2.346   6.906   1.376
10600TIP3    H131745   2.324   6.985   1.427
10600TIP3    H231746   2.421   6.932   1.323
10601TIP3   OH231747   7.710   3.526   2.069
10601TIP3    H131748   7.667   3.467   2.130
10601TIP3    H231749   7.801   3.532   2.100
10602TIP3   OH231750   1.475   3.862   4.832
10602TIP3    H131751   1.415   3.927   4.869
10602TIP3    H231752   1.423   3.782   4.826
10603TIP3   OH231753   2.018   3.675   2.443
10603TIP3    H131754   1.941   3.671   2.499
10603TIP3    H231755   2.078   3.733   2.489
10604TIP3   OH231756   0.348   0.153   6.091
10604TIP3    H131757   0.324   0.227   6.147
10604TIP3    H231758   0.431   0.178   6.051
10605TIP3   OH231759   7.421   2.194   5.975
10605TIP3    H131760   7.430   2.173   5.882
10605TIP3    H231761   7.466   2.123   6.020
10606TIP3   OH231762   8.231   6.624   1.956
10606TIP3    H131763   8.138   6.602   1.952
10606TIP3    H231764   8.248   6.672   1.876
10607TIP3   OH231765   4.921   4.702   4.413
10607TIP3    H131766   4.880   4.783   4.383
10607TIP3    H231767   4.877   4.682   4.495
10608TIP3   OH231768   7.161   4.738   4.102
10608TIP3    H131769   7.174   4.643   4.097
10608TIP3    H231770   7.166   4.758   4.195
10609TIP3   OH231771   4.465   1.386   2.529
10609TIP3    H131772   4.438   1.462   2.477
10609TIP3    H231773   4.445   1.411   2.619
10610TIP3   OH231774   7.176   4.557   6.573
10610TIP3    H131775   7.266   4.589   6.584
10610TIP3    H231776   7.138   4.565   6.661
10611TIP3   OH231777   4.291   3.693   1.451
10611TIP3    H131778   4.356   3.757   1.423
10611TIP3    H231779   4.304   3.685   1.545
10612TIP3   OH231780   7.468   5.281   6.038
10612TIP3    H131781   7.479   5.190   6.011
10612TIP3    H231782   7.452   5.277   6.132
10613TIP3   OH231783   4.444   3.126   6.408
10613TIP3    H131784   4.527   3.088   6.379
10613TIP3    H231785   4.401   3.153   6.327
10614TIP3   OH231786   6.952   5.615   1.459
10614TIP3    H131787   6.969   5.555   1.531
10614TIP3    H231788   7.037   5.655   1.439
10615TIP3   OH231789   4.892   4.726   0.371
10615TIP3    H131790   4.964   4.731   0.308
10615TIP3    H231791   4.830   4.665   0.331
10616TIP3   OH231792   6.869   3.097   1.501
10616TIP3    H131793   6.814   3.036   1.451
10616TIP3    H231794   6.849   3.183   1.464
10617TIP3   OH231795   1.036   3.796   5.974
10617TIP3    H131796   1.084   3.857   6.029
10617TIP3    H231797   0.962   3.767   6.028
10618TIP3   OH231798   7.591   4.763   0.429
10618TIP3    H131799   7.532   4.689   0.441
10618TIP3    H231800   7.673   4.736   0.472
10619TIP3   OH231801   5.013   6.301   0.079
10619TIP3    H131802   5.078   6.333   0.142
10619TIP3    H231803   5.049   6.324  -0.006
10620TIP3   OH231804   7.845   5.756   0.319
10620TIP3    H131805   7.861   5.748   0.225
10620TIP3    H231806   7.828   5.667   0.349
10621TIP3   OH231807   4.421   4.766   0.159
10621TIP3    H131808   4.424   4.799   0.249
10621TIP3    H231809   4.327   4.762   0.139
10622TIP3   OH231810   4.927   1.072   1.794
10622TIP3    H131811   4.879   1.141   1.840
10622TIP3    H231812   4.871   1.049   1.720
10623TIP3   OH231813   1.698   5.452   4.496
10623TIP3    H131814   1.792   5.435   4.487
10623TIP3    H231815   1.679   5.515   4.427
10624TIP3   OH231816   7.108   3.473   6.533
10624TIP3    H131817   7.145   3.387   6.512
10624TIP3    H231818   7.128   3.485   6.626
10625TIP3   OH231819   8.249   2.054   4.450
10625TIP3    H131820   8.250   1.996   4.373
10625TIP3    H231821   8.297   2.132   4.422
10626TIP3   OH231822   3.874   2.191   1.429
10626TIP3    H131823   3.792   2.147   1.452
10626TIP3    H231824   3.934   2.167   1.500
10627TIP3   OH231825   6.430   6.219   1.122
10627TIP3    H131826   6.373   6.295   1.135
10627TIP3    H231827   6.447   6.187   1.211
10628TIP3   OH231828   6.218   4.132   5.500
10628TIP3    H131829   6.177   4.050   5.471
10628TIP3    H231830   6.146   4.194   5.506
10629TIP3   OH231831   5.930   6.761   5.722
10629TIP3    H131832   5.954   6.669   5.717
10629TIP3    H231833   5.839   6.764   5.691
10630TIP3   OH231834   7.068   2.817   6.278
10630TIP3    H131835   7.007   2.890   6.274
10630TIP3    H231836   7.152   2.853   6.250
10631TIP3   OH231837   5.047   0.381   1.454
10631TIP3    H131838   5.102   0.422   1.387
10631TIP3    H231839   4.957   0.401   1.426
10632TIP3   OH231840   1.632   3.335   5.395
10632TIP3    H131841   1.690   3.279   5.344
10632TIP3    H231842   1.639   3.421   5.354
10633TIP3   OH231843   1.639   5.304   4.914
10633TIP3    H131844   1.653   5.213   4.886
10633TIP3    H231845   1.727   5.338   4.929
10634TIP3   OH231846   0.949   6.905   3.531
10634TIP3    H131847   0.932   6.962   3.456
10634TIP3    H231848   0.864   6.865   3.550
10635TIP3   OH231849   1.249   4.928   0.470
10635TIP3    H131850   1.244   4.846   0.519
10635TIP3    H231851   1.217   4.906   0.383
10636TIP3   OH231852   4.041   0.504   0.182
10636TIP3    H131853   4.010   0.587   0.219
10636TIP3    H231854   3.964   0.447   0.183
10637TIP3   OH231855   5.564   0.376   0.970
10637TIP3    H131856   5.511   0.456   0.974
10637TIP3    H231857   5.576   0.351   1.062
10638TIP3   OH231858   6.156   7.533   5.590
10638TIP3    H131859   6.192   7.530   5.501
10638TIP3    H231860   6.084   7.471   5.589
10639TIP3   OH231861   1.561   3.513   2.850
10639TIP3    H131862   1.604   3.562   2.780
10639TIP3    H231863   1.571   3.568   2.927
10640TIP3   OH231864   4.553   1.773   3.401
10640TIP3    H131865   4.544   1.840   3.333
10640TIP3    H231866   4.464   1.742   3.416
10641TIP3   OH231867   7.784   3.128   1.670
10641TIP3    H131868   7.865   3.177   1.656
10641TIP3    H231869   7.767   3.084   1.586
10642TIP3   OH231870   4.397   0.585   6.126
10642TIP3    H131871   4.323   0.530   6.151
10642TIP3    H231872   4.369   0.674   6.148
10643TIP3   OH231873   7.024   1.140   2.057
10643TIP3    H131874   7.065   1.172   1.977
10643TIP3    H231875   7.096   1.130   2.119
10644TIP3   OH231876   7.046   1.334   1.040
10644TIP3    H131877   7.024   1.419   1.079
10644TIP3    H231878   6.982   1.323   0.969
10645TIP3   OH231879   1.359   4.223   1.406
10645TIP3    H131880   1.434   4.259   1.359
10645TIP3    H231881   1.396   4.155   1.462
10646TIP3   OH231882   4.816   7.446   2.577
10646TIP3    H131883   4.890   7.387   2.586
10646TIP3    H231884   4.746   7.392   2.541
10647TIP3   OH231885   7.067   4.432   1.170
10647TIP3    H131886   7.146   4.408   1.122
10647TIP3    H231887   7.016   4.484   1.108
10648TIP3   OH231888   5.485   1.381   3.428
10648TIP3    H131889   5.437   1.435   3.367
10648TIP3    H231890   5.485   1.431   3.510
10649TIP3   OH231891   2.273   1.138   1.229
10649TIP3    H131892   2.362   1.103   1.225
10649TIP3    H231893   2.238   1.107   1.312
10650TIP3   OH231894   0.930   7.630   0.495
10650TIP3    H131895   0.958   7.670   0.412
10650TIP3    H231896   0.978   7.678   0.562
10651TIP3   OH231897   6.845   2.833   3.147
10651TIP3    H131898   6.927   2.816   3.194
10651TIP3    H231899   6.823   2.923   3.170
10652TIP3   OH231900   2.649   5.603   5.515
10652TIP3    H131901   2.649   5.631   5.423
10652TIP3    H231902   2.648   5.685   5.564
10653TIP3   OH231903   7.705   4.354   0.736
10653TIP3    H131904   7.792   4.382   0.707
10653TIP3    H231905   7.675   4.296   0.666
10654TIP3   OH231906   7.735   7.807   0.565
10654TIP3    H131907   7.800   7.867   0.599
10654TIP3    H231908   7.784   7.746   0.510
10655TIP3   OH231909   0.556   4.817   6.474
10655TIP3    H131910   0.579   4.797   6.384
10655TIP3    H231911   0.523   4.907   6.472
10656TIP3   OH231912   5.188   7.015   2.567
10656TIP3    H131913   5.114   7.040   2.512
10656TIP3    H231914   5.189   7.081   2.637
10657TIP3   OH231915   1.122   0.218   1.576
10657TIP3    H131916   1.141   0.125   1.571
10657TIP3    H231917   1.047   0.224   1.635
10658TIP3   OH231918   0.365   5.533   4.656
10658TIP3    H131919   0.420   5.611   4.666
10658TIP3    H231920   0.380   5.504   4.566
10659TIP3   OH231921   0.225   4.684   4.327
10659TIP3    H131922   0.200   4.599   4.290
10659TIP3    H231923   0.143   4.725   4.352
10660TIP3   OH231924   5.093   6.411   1.292
10660TIP3    H131925   5.067   6.488   1.243
10660TIP3    H231926   5.046   6.419   1.375
10661TIP3   OH231927   5.894   3.814   0.376
10661TIP3    H131928   5.841   3.876   0.425
10661TIP3    H231929   5.838   3.786   0.303
10662TIP3   OH231930   4.722   2.065   1.132
10662TIP3    H131931   4.662   1.995   1.159
10662TIP3    H231932   4.723   2.059   1.036
10663TIP3   OH231933   1.763   0.218   2.367
10663TIP3    H131934   1.836   0.156   2.369
10663TIP3    H231935   1.723   0.204   2.281
10664TIP3   OH231936   2.193   5.031   4.347
10664TIP3    H131937   2.134   5.047   4.273
10664TIP3    H231938   2.248   4.958   4.318
10665TIP3   OH231939   5.819   7.293   3.217
10665TIP3    H131940   5.784   7.365   3.165
10665TIP3    H231941   5.767   7.294   3.298
10666TIP3   OH231942   6.937   2.292   1.245
10666TIP3    H131943   6.965   2.303   1.154
10666TIP3    H231944   7.014   2.313   1.297
10667TIP3   OH231945   4.062   1.625   2.321
10667TIP3    H131946   4.041   1.715   2.298
10667TIP3    H231947   4.005   1.572   2.266
10668TIP3   OH231948   5.188   3.284   2.543
10668TIP3    H131949   5.173   3.368   2.500
10668TIP3    H231950   5.227   3.307   2.628
10669TIP3   OH231951   5.077   6.960   6.086
10669TIP3    H131952   5.081   6.981   5.993
10669TIP3    H231953   5.159   6.992   6.122
10670TIP3   OH231954   3.639   6.282   3.262
10670TIP3    H131955   3.706   6.225   3.299
10670TIP3    H231956   3.677   6.370   3.268
10671TIP3   OH231957   7.546   7.764   0.043
10671TIP3    H131958   7.534   7.859   0.050
10671TIP3    H231959   7.492   7.739  -0.032
10672TIP3   OH231960   3.508   7.709   0.861
10672TIP3    H131961   3.501   7.796   0.822
10672TIP3    H231962   3.598   7.682   0.846
10673TIP3   OH231963   7.921   5.016   3.477
10673TIP3    H131964   7.932   4.929   3.517
10673TIP3    H231965   7.879   4.998   3.392
10674TIP3   OH231966   6.322   0.832   2.966
10674TIP3    H131967   6.332   0.892   2.892
10674TIP3    H231968   6.352   0.882   3.042
10675TIP3   OH231969   0.776   7.258   5.995
10675TIP3    H131970   0.738   7.250   5.907
10675TIP3    H231971   0.700   7.270   6.053
10676TIP3   OH231972   5.875   2.515   3.173
10676TIP3    H131973   5.947   2.550   3.225
10676TIP3    H231974   5.857   2.429   3.211
10677TIP3   OH231975   4.498   4.132   6.749
10677TIP3    H131976   4.464   4.051   6.787
10677TIP3    H231977   4.462   4.135   6.661
10678TIP3   OH231978   6.312   0.799   1.793
10678TIP3    H131979   6.225   0.815   1.830
10678TIP3    H231980   6.351   0.734   1.851
10679TIP3   OH231981   2.241   0.235   5.426
10679TIP3    H131982   2.146   0.235   5.415
10679TIP3    H231983   2.263   0.325   5.447
10680TIP3   OH231984   2.004   4.224   5.404
10680TIP3    H131985   1.952   4.181   5.335
10680TIP3    H231986   2.001   4.317   5.381
10681TIP3   OH231987   7.844   7.135   6.193
10681TIP3    H131988   7.931   7.105   6.221
10681TIP3    H231989   7.841   7.115   6.099
10682TIP3   OH231990   5.892   0.771   3.847
10682TIP3    H131991   5.939   0.794   3.927
10682TIP3    H231992   5.859   0.683   3.863
10683TIP3   OH231993   3.933   5.937   3.130
10683TIP3    H131994   4.025   5.958   3.116
10683TIP3    H231995   3.928   5.842   3.118
10684TIP3   OH231996   4.973   1.376   5.867
10684TIP3    H131997   4.954   1.333   5.783
10684TIP3    H231998   4.971   1.469   5.848
10685TIP3   OH231999   1.558   0.400   1.849
10685TIP3    H132000   1.478   0.350   1.867
10685TIP3    H232001   1.536   0.450   1.770
10686TIP3   OH232002   5.638   2.556   1.606
10686TIP3    H132003   5.696   2.499   1.555
10686TIP3    H232004   5.690   2.636   1.619
10687TIP3   OH232005   8.212   3.471   0.949
10687TIP3    H132006   8.200   3.490   1.043
10687TIP3    H232007   8.123   3.452   0.918
10688TIP3   OH232008   7.313   0.671   3.759
10688TIP3    H132009   7.271   0.641   3.840
10688TIP3    H232010   7.375   0.601   3.737
10689TIP3   OH232011   3.247   3.608   6.499
10689TIP3    H132012   3.242   3.643   6.410
10689TIP3    H232013   3.163   3.633   6.538
10690TIP3   OH232014   1.989   0.068   4.938
10690TIP3    H132015   1.932   0.013   4.992
10690TIP3    H232016   1.973   0.157   4.968
10691TIP3   OH232017   5.739   3.684   0.684
10691TIP3    H132018   5.835   3.679   0.685
10691TIP3    H232019   5.716   3.674   0.592
10692TIP3   OH232020   4.463   5.575   2.230
10692TIP3    H132021   4.533   5.522   2.192
10692TIP3    H232022   4.386   5.517   2.230
10693TIP3   OH232023   4.381   2.076   1.322
10693TIP3    H132024   4.290   2.086   1.351
10693TIP3    H232025   4.433   2.104   1.398
10694TIP3   OH232026   2.771   4.334   1.729
10694TIP3    H132027   2.843   4.337   1.792
10694TIP3    H232028   2.787   4.254   1.679
10695TIP3   OH232029   2.600   7.731   3.352
10695TIP3    H132030   2.591   7.810   3.405
10695TIP3    H232031   2.639   7.667   3.411
10696TIP3   OH232032   4.876   4.357   1.249
10696TIP3    H132033   4.872   4.411   1.170
10696TIP3    H232034   4.795   4.377   1.296
10697TIP3   OH232035   8.075   7.495   1.876
10697TIP3    H132036   8.095   7.554   1.949
10697TIP3    H232037   8.063   7.409   1.916
10698TIP3   OH232038   1.647   7.303   2.020
10698TIP3    H132039   1.635   7.389   2.062
10698TIP3    H232040   1.650   7.241   2.093
10699TIP3   OH232041   7.930   6.996   4.588
10699TIP3    H132042   7.875   6.936   4.639
10699TIP3    H232043   7.899   6.986   4.498
10700TIP3   OH232044   4.721   1.306   0.282
10700TIP3    H132045   4.764   1.288   0.365
10700TIP3    H232046   4.728   1.225   0.233
10701TIP3   OH232047   2.722   2.276   5.318
10701TIP3    H132048   2.744   2.361   5.279
10701TIP3    H232049   2.638   2.290   5.361
10702TIP3   OH232050   6.096   2.249   6.634
10702TIP3    H132051   6.048   2.228   6.554
10702TIP3    H232052   6.051   2.200   6.703
10703TIP3   OH232053   4.159   6.782   1.214
10703TIP3    H132054   4.215   6.752   1.142
10703TIP3    H232055   4.072   6.750   1.191
10704TIP3   OH232056   6.485   4.571   0.495
10704TIP3    H132057   6.513   4.630   0.566
10704TIP3    H232058   6.445   4.630   0.431
10705TIP3   OH232059   3.941   4.446   1.583
10705TIP3    H132060   4.010   4.384   1.560
10705TIP3    H232061   3.973   4.530   1.552
10706TIP3   OH232062   6.240   3.029   1.995
10706TIP3    H132063   6.212   2.942   2.025
10706TIP3    H232064   6.321   3.045   2.045
10707TIP3   OH232065   2.810   3.600   4.497
10707TIP3    H132066   2.836   3.508   4.509
10707TIP3    H232067   2.720   3.603   4.530
10708TIP3   OH232068   7.508   7.198   6.493
10708TIP3    H132069   7.522   7.121   6.548
10708TIP3    H232070   7.584   7.201   6.436
10709TIP3   OH232071   0.603   5.314   2.653
10709TIP3    H132072   0.598   5.243   2.588
10709TIP3    H232073   0.560   5.277   2.731
10710TIP3   OH232074   7.691   4.321   6.000
10710TIP3    H132075   7.667   4.324   5.907
10710TIP3    H232076   7.693   4.228   6.022
10711TIP3   OH232077   2.517   4.025   1.077
10711TIP3    H132078   2.530   4.030   1.172
10711TIP3    H232079   2.426   3.997   1.067
10712TIP3   OH232080   4.709   7.134   2.667
10712TIP3    H132081   4.804   7.125   2.667
10712TIP3    H232082   4.680   7.085   2.591
10713TIP3   OH232083   0.302   4.032   0.438
10713TIP3    H132084   0.397   4.039   0.438
10713TIP3    H232085   0.277   4.038   0.345
10714TIP3   OH232086   7.419   4.450   3.840
10714TIP3    H132087   7.366   4.370   3.836
10714TIP3    H232088   7.430   4.467   3.933
10715TIP3   OH232089   1.304   3.577   2.927
10715TIP3    H132090   1.372   3.531   2.879
10715TIP3    H232091   1.349   3.613   3.004
10716TIP3   OH232092   1.991   0.123   6.600
10716TIP3    H132093   2.002   0.096   6.691
10716TIP3    H232094   2.032   0.209   6.595
10717TIP3   OH232095   6.255   1.895   6.207
10717TIP3    H132096   6.291   1.815   6.245
10717TIP3    H232097   6.319   1.963   6.230
10718TIP3   OH232098   2.391   2.401   0.314
10718TIP3    H132099   2.365   2.382   0.404
10718TIP3    H232100   2.411   2.315   0.277
10719TIP3   OH232101   6.814   4.914   0.751
10719TIP3    H132102   6.811   4.911   0.847
10719TIP3    H232103   6.893   4.964   0.731
10720TIP3   OH232104   1.887   5.201   2.249
10720TIP3    H132105   1.836   5.164   2.177
10720TIP3    H232106   1.959   5.139   2.261
10721TIP3   OH232107   2.213   3.898   0.077
10721TIP3    H132108   2.153   3.839   0.030
10721TIP3    H232109   2.272   3.839   0.124
10722TIP3   OH232110   8.275   6.275   4.747
10722TIP3    H132111   8.197   6.302   4.698
10722TIP3    H232112   8.338   6.346   4.733
10723TIP3   OH232113   0.924   5.812   2.035
10723TIP3    H132114   0.950   5.861   2.113
10723TIP3    H232115   0.961   5.725   2.046
10724TIP3   OH232116   6.153   2.651   4.825
10724TIP3    H132117   6.230   2.706   4.843
10724TIP3    H232118   6.160   2.629   4.733
10725TIP3   OH232119   5.317   0.592   6.096
10725TIP3    H132120   5.236   0.638   6.116
10725TIP3    H232121   5.293   0.499   6.094
10726TIP3   OH232122   7.671   0.734   1.098
10726TIP3    H132123   7.684   0.815   1.048
10726TIP3    H232124   7.729   0.744   1.174
10727TIP3   OH232125   1.179   0.744   5.738
10727TIP3    H132126   1.109   0.781   5.792
10727TIP3    H232127   1.255   0.798   5.758
10728TIP3   OH232128   3.546   5.924   4.885
10728TIP3    H132129   3.596   6.004   4.905
10728TIP3    H232130   3.475   5.924   4.949
10729TIP3   OH232131   3.979   0.046   1.522
10729TIP3    H132132   4.050  -0.008   1.556
10729TIP3    H232133   3.915   0.050   1.593
10730TIP3   OH232134   5.110   4.628   3.638
10730TIP3    H132135   5.073   4.665   3.558
10730TIP3    H232136   5.050   4.656   3.707
10731TIP3   OH232137   1.116   6.165   4.716
10731TIP3    H132138   1.142   6.115   4.793
10731TIP3    H232139   1.190   6.155   4.655
10732TIP3   OH232140   1.144   4.261   4.741
10732TIP3    H132141   1.081   4.234   4.807
10732TIP3    H232142   1.225   4.215   4.764
10733TIP3   OH232143   1.962   5.906   2.479
10733TIP3    H132144   1.928   5.963   2.548
10733TIP3    H232145   1.886   5.857   2.448
10734TIP3   OH232146   5.802   4.406   5.693
10734TIP3    H132147   5.854   4.398   5.773
10734TIP3    H232148   5.863   4.387   5.622
10735TIP3   OH232149   4.274   6.617   3.980
10735TIP3    H132150   4.221   6.660   4.047
10735TIP3    H232151   4.350   6.675   3.968
10736TIP3   OH232152   0.802   7.192   4.590
10736TIP3    H132153   0.733   7.126   4.589
10736TIP3    H232154   0.759   7.270   4.626
10737TIP3   OH232155   0.397   3.795   4.771
10737TIP3    H132156   0.332   3.763   4.835
10737TIP3    H232157   0.471   3.736   4.781
10738TIP3   OH232158   4.482   6.887   3.543
10738TIP3    H132159   4.424   6.856   3.612
10738TIP3    H232160   4.570   6.867   3.574
10739TIP3   OH232161   5.836   2.978   1.311
10739TIP3    H132162   5.861   2.939   1.228
10739TIP3    H232163   5.916   2.975   1.364
10740TIP3   OH232164   6.292   5.711   0.441
10740TIP3    H132165   6.361   5.661   0.396
10740TIP3    H232166   6.339   5.764   0.505
10741TIP3   OH232167   2.724   1.911   4.271
10741TIP3    H132168   2.741   2.002   4.293
10741TIP3    H232169   2.631   1.907   4.253
10742TIP3   OH232170   1.480   5.251   3.379
10742TIP3    H132171   1.510   5.161   3.364
10742TIP3    H232172   1.532   5.281   3.453
10743TIP3   OH232173   2.312   3.612   0.931
10743TIP3    H132174   2.337   3.656   1.012
10743TIP3    H232175   2.256   3.539   0.960
10744TIP3   OH232176   3.205   5.614   5.733
10744TIP3    H132177   3.137   5.674   5.702
10744TIP3    H232178   3.232   5.567   5.654
10745TIP3   OH232179   0.038   2.331   0.231
10745TIP3    H132180   0.010   2.420   0.253
10745TIP3    H232181   0.101   2.342   0.160
10746TIP3   OH232182   7.481   0.890   4.423
10746TIP3    H132183   7.448   0.928   4.504
10746TIP3    H232184   7.487   0.796   4.441
10747TIP3   OH232185   4.244   0.603   5.758
10747TIP3    H132186   4.168   0.593   5.816
10747TIP3    H232187   4.206   0.629   5.673
10748TIP3   OH232188   7.152   5.623   2.103
10748TIP3    H132189   7.065   5.582   2.096
10748TIP3    H232190   7.141   5.692   2.167
10749TIP3   OH232191   3.519   1.859   3.118
10749TIP3    H132192   3.591   1.912   3.153
10749TIP3    H232193   3.560   1.799   3.056
10750TIP3   OH232194   8.059   6.545   2.490
10750TIP3    H132195   7.968   6.541   2.517
10750TIP3    H232196   8.057   6.576   2.400
10751TIP3   OH232197   1.751   3.503   0.829
10751TIP3    H132198   1.695   3.512   0.752
10751TIP3    H232199   1.824   3.450   0.800
10752TIP3   OH232200   5.632   6.089   1.806
10752TIP3    H132201   5.700   6.074   1.739
10752TIP3    H232202   5.634   6.183   1.822
10753TIP3   OH232203   7.707   3.739   4.551
10753TIP3    H132204   7.618   3.705   4.542
10753TIP3    H232205   7.697   3.821   4.598
10754TIP3   OH232206   2.451   6.660   4.752
10754TIP3    H132207   2.506   6.703   4.818
10754TIP3    H232208   2.501   6.582   4.728
10755TIP3   OH232209   6.533   5.571   0.353
10755TIP3    H132210   6.550   5.477   0.357
10755TIP3    H232211   6.612   5.611   0.390
10756TIP3   OH232212   6.925   3.887   3.641
10756TIP3    H132213   7.009   3.912   3.602
10756TIP3    H232214   6.863   3.951   3.608
10757TIP3   OH232215   5.275   1.456   5.897
10757TIP3    H132216   5.369   1.449   5.876
10757TIP3    H232217   5.260   1.550   5.908
10758TIP3   OH232218   0.072   0.651   6.096
10758TIP3    H132219   0.024   0.630   6.176
10758TIP3    H232220   0.009   0.633   6.025
10759TIP3   OH232221   2.372   6.226   0.125
10759TIP3    H132222   2.433   6.187   0.187
10759TIP3    H232223   2.285   6.204   0.160
10760TIP3   OH232224   3.504   6.617   1.861
10760TIP3    H132225   3.466   6.666   1.934
10760TIP3    H232226   3.543   6.684   1.805
10761TIP3   OH232227   1.266   1.075   2.394
10761TIP3    H132228   1.235   1.027   2.317
10761TIP3    H232229   1.361   1.072   2.387
10762TIP3   OH232230   7.330   4.715   1.810
10762TIP3    H132231   7.323   4.655   1.884
10762TIP3    H232232   7.274   4.789   1.834
10763TIP3   OH232233   0.385   3.486   0.826
10763TIP3    H132234   0.290   3.487   0.835
10763TIP3    H232235   0.404   3.404   0.781
10764TIP3   OH232236   2.329   6.450   4.342
10764TIP3    H132237   2.346   6.543   4.359
10764TIP3    H232238   2.274   6.422   4.416
10765TIP3   OH232239   0.374   7.461   4.044
10765TIP3    H132240   0.285   7.439   4.015
10765TIP3    H232241   0.361   7.522   4.117
10766TIP3   OH232242   6.948   0.971   0.104
10766TIP3    H132243   6.954   0.876   0.098
10766TIP3    H232244   6.928   0.999   0.014
10767TIP3   OH232245   4.161   3.011   4.292
10767TIP3    H132246   4.196   2.923   4.278
10767TIP3    H232247   4.187   3.032   4.381
10768TIP3   OH232248   6.982   1.413   3.023
10768TIP3    H132249   6.954   1.445   2.938
10768TIP3    H232250   6.929   1.461   3.086
10769TIP3   OH232251   6.473   5.065   3.497
10769TIP3    H132252   6.506   4.978   3.519
10769TIP3    H232253   6.434   5.055   3.410
10770TIP3   OH232254   6.959   6.147   4.855
10770TIP3    H132255   6.918   6.100   4.928
10770TIP3    H232256   7.053   6.147   4.877
10771TIP3   OH232257   6.999   4.261   6.377
10771TIP3    H132258   7.043   4.238   6.459
10771TIP3    H232259   7.067   4.301   6.324
10772TIP3   OH232260   5.269   4.994   4.207
10772TIP3    H132261   5.227   5.069   4.165
10772TIP3    H232262   5.236   4.918   4.159
10773TIP3   OH232263   5.557   1.344   2.474
10773TIP3    H132264   5.580   1.251   2.464
10773TIP3    H232265   5.509   1.366   2.394
10774TIP3   OH232266   0.168   7.386   4.854
10774TIP3    H132267   0.209   7.388   4.940
10774TIP3    H232268   0.160   7.478   4.829
10775TIP3   OH232269   7.818   0.167   0.745
10775TIP3    H132270   7.795   0.078   0.717
10775TIP3    H232271   7.744   0.196   0.797
10776TIP3   OH232272   7.863   2.948   0.937
10776TIP3    H132273   7.904   3.024   0.896
10776TIP3    H232274   7.904   2.873   0.895
10777TIP3   OH232275   5.267   6.459   0.518
10777TIP3    H132276   5.223   6.482   0.437
10777TIP3    H232277   5.354   6.428   0.490
10778TIP3   OH232278   3.546   4.591   1.567
10778TIP3    H132279   3.522   4.613   1.477
10778TIP3    H232280   3.624   4.644   1.585
10779TIP3   OH232281   3.580   7.218   1.392
10779TIP3    H132282   3.549   7.269   1.467
10779TIP3    H232283   3.620   7.282   1.334
10780TIP3   OH232284   1.419   7.402   5.007
10780TIP3    H132285   1.334   7.394   5.050
10780TIP3    H232286   1.433   7.497   5.000
10781TIP3   OH232287   8.168   0.625   6.564
10781TIP3    H132288   8.205   0.713   6.570
10781TIP3    H232289   8.234   0.574   6.519
10782TIP3   OH232290   7.621   0.311   6.106
10782TIP3    H132291   7.698   0.336   6.054
10782TIP3    H232292   7.657   0.281   6.189
10783TIP3   OH232293   7.579   2.574   1.457
10783TIP3    H132294   7.582   2.670   1.460
10783TIP3    H232295   7.669   2.547   1.441
10784TIP3   OH232296   1.820   1.239   4.905
10784TIP3    H132297   1.855   1.216   4.819
10784TIP3    H232298   1.793   1.155   4.943
10785TIP3   OH232299   4.740   6.451   3.177
10785TIP3    H132300   4.727   6.521   3.241
10785TIP3    H232301   4.821   6.408   3.203
10786TIP3   OH232302   3.431   3.106   3.392
10786TIP3    H132303   3.439   3.104   3.488
10786TIP3    H232304   3.441   3.014   3.366
10787TIP3   OH232305   7.001   0.599   3.223
10787TIP3    H132306   6.965   0.628   3.307
10787TIP3    H232307   7.083   0.649   3.214
10788TIP3   OH232308   0.061   1.664   3.900
10788TIP3    H132309   0.067   1.668   3.996
10788TIP3    H232310  -0.010   1.604   3.882
10789TIP3   OH232311   4.637   0.533   0.505
10789TIP3    H132312   4.668   0.492   0.586
10789TIP3    H232313   4.590   0.611   0.535
10790TIP3   OH232314   1.033   1.549   1.525
10790TIP3    H132315   1.063   1.569   1.437
10790TIP3    H232316   1.109   1.566   1.581
10791TIP3   OH232317   3.845   5.857   2.085
10791TIP3    H132318   3.884   5.878   2.170
10791TIP3    H232319   3.752   5.874   2.096
10792TIP3   OH232320   1.892   2.817   0.473
10792TIP3    H132321   1.863   2.849   0.559
10792TIP3    H232322   1.947   2.742   0.494
10793TIP3   OH232323   0.074   5.796   4.660
10793TIP3    H132324   0.106   5.713   4.695
10793TIP3    H232325   0.111   5.863   4.717
10794TIP3   OH232326   6.342   5.567   0.990
10794TIP3    H132327   6.246   5.576   0.987
10794TIP3    H232328   6.357   5.475   0.972
10795TIP3   OH232329   4.468   6.340   6.582
10795TIP3    H132330   4.391   6.303   6.627
10795TIP3    H232331   4.530   6.358   6.652
10796TIP3   OH232332   5.587   3.846   0.878
10796TIP3    H132333   5.626   3.808   0.798
10796TIP3    H232334   5.656   3.838   0.944
10797TIP3   OH232335   7.222   3.242   4.738
10797TIP3    H132336   7.243   3.149   4.725
10797TIP3    H232337   7.220   3.279   4.650
10798TIP3   OH232338   2.254   3.314   5.346
10798TIP3    H132339   2.342   3.345   5.364
10798TIP3    H232340   2.259   3.219   5.359
10799TIP3   OH232341   5.563   7.272   1.562
10799TIP3    H132342   5.582   7.268   1.468
10799TIP3    H232343   5.516   7.191   1.580
10800TIP3   OH232344   5.911   2.793   1.130
10800TIP3    H132345   5.895   2.723   1.194
10800TIP3    H232346   5.988   2.763   1.082
10801TIP3   OH232347   5.542   5.045   4.472
10801TIP3    H132348   5.502   5.122   4.432
10801TIP3    H232349   5.468   4.997   4.510
10802TIP3   OH232350   6.270   1.213   0.419
10802TIP3    H132351   6.365   1.224   0.427
10802TIP3    H232352   6.244   1.280   0.355
10803TIP3   OH232353   6.933   1.145   3.247
10803TIP3    H132354   6.877   1.163   3.171
10803TIP3    H232355   6.877   1.159   3.323
10804TIP3   OH232356   6.202   6.981   1.244
10804TIP3    H132357   6.231   7.072   1.239
10804TIP3    H232358   6.278   6.930   1.214
10805TIP3   OH232359   1.353   4.617   6.277
10805TIP3    H132360   1.265   4.629   6.242
10805TIP3    H232361   1.368   4.694   6.332
10806TIP3   OH232362   1.409   5.775   1.759
10806TIP3    H132363   1.476   5.759   1.825
10806TIP3    H232364   1.388   5.688   1.725
10807TIP3   OH232365   7.985   6.922   5.355
10807TIP3    H132366   7.952   7.011   5.372
10807TIP3    H232367   8.019   6.893   5.439
10808TIP3   OH232368   7.054   0.785   1.308
10808TIP3    H132369   7.044   0.860   1.367
10808TIP3    H232370   7.111   0.817   1.238
10809TIP3   OH232371   4.190   0.424   2.498
10809TIP3    H132372   4.278   0.428   2.535
10809TIP3    H232373   4.199   0.373   2.418
10810TIP3   OH232374   6.222   0.813   0.611
10810TIP3    H132375   6.244   0.795   0.520
10810TIP3    H232376   6.305   0.844   0.650
10811TIP3   OH232377   6.194   7.269   1.154
10811TIP3    H132378   6.179   7.236   1.065
10811TIP3    H232379   6.108   7.301   1.182
10812TIP3   OH232380   7.340   5.320   1.964
10812TIP3    H132381   7.299   5.271   2.035
10812TIP3    H232382   7.357   5.407   2.000
10813TIP3   OH232383   1.202   5.241   5.259
10813TIP3    H132384   1.241   5.261   5.174
10813TIP3    H232385   1.132   5.306   5.269
10814TIP3   OH232386   1.696   1.053   2.272
10814TIP3    H132387   1.786   1.064   2.302
10814TIP3    H232388   1.644   1.052   2.352
10815TIP3   OH232389   7.699   5.609   5.842
10815TIP3    H132390   7.745   5.560   5.911
10815TIP3    H232391   7.613   5.568   5.837
10816TIP3   OH232392   4.889   1.260   2.390
10816TIP3    H132393   4.847   1.264   2.475
10816TIP3    H232394   4.944   1.181   2.393
10817TIP3   OH232395   3.308   2.888   5.988
10817TIP3    H132396   3.393   2.886   6.032
10817TIP3    H232397   3.328   2.919   5.900
10818TIP3   OH232398   4.053   7.740   5.139
10818TIP3    H132399   4.040   7.679   5.211
10818TIP3    H232400   4.040   7.687   5.060
10819TIP3   OH232401   8.201   2.442   5.553
10819TIP3    H132402   8.107   2.429   5.562
10819TIP3    H232403   8.218   2.426   5.460
10820TIP3   OH232404   0.960   6.736   6.690
10820TIP3    H132405   0.887   6.753   6.631
10820TIP3    H232406   0.918   6.715   6.774
10821TIP3   OH232407   4.112   4.358   0.237
10821TIP3    H132408   4.050   4.358   0.164
10821TIP3    H232409   4.152   4.445   0.234
10822TIP3   OH232410   2.016   5.005   6.482
10822TIP3    H132411   2.001   5.055   6.402
10822TIP3    H232412   2.083   4.941   6.458
10823TIP3   OH232413   5.837   2.265   2.069
10823TIP3    H132414   5.793   2.325   2.129
10823TIP3    H232415   5.871   2.196   2.126
10824TIP3   OH232416   8.140   2.505   2.646
10824TIP3    H132417   8.163   2.592   2.677
10824TIP3    H232418   8.154   2.508   2.551
10825TIP3   OH232419   5.330   4.884   0.626
10825TIP3    H132420   5.268   4.812   0.634
10825TIP3    H232421   5.313   4.921   0.540
10826TIP3   OH232422   2.324   4.192   0.094
10826TIP3    H132423   2.383   4.117   0.090
10826TIP3    H232424   2.280   4.184   0.179
10827TIP3   OH232425   3.410   5.040   6.565
10827TIP3    H132426   3.354   5.112   6.537
10827TIP3    H232427   3.498   5.078   6.569
10828TIP3   OH232428   1.395   2.576   0.034
10828TIP3    H132429   1.455   2.541   0.099
10828TIP3    H232430   1.335   2.504   0.015
10829TIP3   OH232431   5.036   4.148   2.908
10829TIP3    H132432   5.039   4.163   2.814
10829TIP3    H232433   5.065   4.058   2.919
10830TIP3   OH232434   2.874   7.426   0.079
10830TIP3    H132435   2.813   7.474   0.136
10830TIP3    H232436   2.828   7.417  -0.004
10831TIP3   OH232437   6.735   6.360   3.260
10831TIP3    H132438   6.723   6.321   3.346
10831TIP3    H232439   6.671   6.314   3.204
10832TIP3   OH232440   0.063   3.144   5.600
10832TIP3    H132441   0.119   3.080   5.556
10832TIP3    H232442   0.117   3.222   5.608
10833TIP3   OH232443   7.002   3.051   6.543
10833TIP3    H132444   7.000   3.078   6.452
10833TIP3    H232445   6.923   2.997   6.554
10834TIP3   OH232446   7.760   0.404   2.774
10834TIP3    H132447   7.755   0.378   2.682
10834TIP3    H232448   7.807   0.488   2.773
10835TIP3   OH232449   1.581   7.229   2.923
10835TIP3    H132450   1.570   7.319   2.891
10835TIP3    H232451   1.676   7.217   2.927
10836TIP3   OH232452   1.014   5.288   3.180
10836TIP3    H132453   0.958   5.351   3.226
10836TIP3    H232454   1.083   5.267   3.244
10837TIP3   OH232455   0.088   0.507   0.925
10837TIP3    H132456   0.176   0.485   0.958
10837TIP3    H232457   0.097   0.506   0.830
10838TIP3   OH232458   3.329   6.680   2.052
10838TIP3    H132459   3.278   6.692   1.972
10838TIP3    H232460   3.304   6.754   2.108
10839TIP3   OH232461   2.964   7.121   5.117
10839TIP3    H132462   2.899   7.178   5.159
10839TIP3    H232463   2.985   7.165   5.035
10840TIP3   OH232464   2.530   0.619   4.258
10840TIP3    H132465   2.510   0.544   4.315
10840TIP3    H232466   2.527   0.583   4.169
10841TIP3   OH232467   3.203   6.467   0.104
10841TIP3    H132468   3.177   6.395   0.046
10841TIP3    H232469   3.121   6.513   0.124
10842TIP3   OH232470   1.589   4.116   0.274
10842TIP3    H132471   1.501   4.148   0.252
10842TIP3    H232472   1.620   4.074   0.194
10843TIP3   OH232473   4.595   2.971   2.243
10843TIP3    H132474   4.686   3.001   2.238
10843TIP3    H232475   4.600   2.889   2.293
10844TIP3   OH232476   1.730   7.285   3.371
10844TIP3    H132477   1.736   7.227   3.447
10844TIP3    H232478   1.644   7.266   3.333
10845TIP3   OH232479   0.761   3.983   0.859
10845TIP3    H132480   0.811   4.024   0.789
10845TIP3    H232481   0.675   3.968   0.821
10846TIP3   OH232482   2.147   6.694   1.369
10846TIP3    H132483   2.131   6.638   1.445
10846TIP3    H232484   2.208   6.761   1.402
10847TIP3   OH232485   5.309   1.960   3.810
10847TIP3    H132486   5.299   1.869   3.836
10847TIP3    H232487   5.344   2.004   3.888
10848TIP3   OH232488   2.333   1.675   6.755
10848TIP3    H132489   2.253   1.622   6.759
10848TIP3    H232490   2.361   1.670   6.664
10849TIP3   OH232491   1.197   5.126   3.631
10849TIP3    H132492   1.146   5.181   3.691
10849TIP3    H232493   1.159   5.039   3.639
10850TIP3   OH232494   7.650   0.830   0.088
10850TIP3    H132495   7.614   0.862   0.005
10850TIP3    H232496   7.588   0.763   0.116
10851TIP3   OH232497   5.581   5.587   5.300
10851TIP3    H132498   5.575   5.674   5.261
10851TIP3    H232499   5.623   5.601   5.385
10852TIP3   OH232500   0.500   0.333   6.302
10852TIP3    H132501   0.551   0.300   6.228
10852TIP3    H232502   0.564   0.348   6.371
10853TIP3   OH232503   3.373   5.590   4.982
10853TIP3    H132504   3.354   5.501   5.015
10853TIP3    H232505   3.327   5.595   4.899
10854TIP3   OH232506   1.146   5.202   5.797
10854TIP3    H132507   1.208   5.139   5.761
10854TIP3    H232508   1.185   5.230   5.880
10855TIP3   OH232509   0.904   3.299   6.399
10855TIP3    H132510   0.830   3.287   6.340
10855TIP3    H232511   0.951   3.216   6.395
10856TIP3   OH232512   3.804   7.455   4.247
10856TIP3    H132513   3.736   7.522   4.258
10856TIP3    H232514   3.845   7.476   4.163
10857TIP3   OH232515   7.640   3.200   5.340
10857TIP3    H132516   7.585   3.171   5.412
10857TIP3    H232517   7.656   3.293   5.359
10858TIP3   OH232518   0.960   4.519   5.394
10858TIP3    H132519   1.053   4.542   5.399
10858TIP3    H232520   0.926   4.569   5.320
10859TIP3   OH232521   0.766   2.835   3.129
10859TIP3    H132522   0.810   2.776   3.190
10859TIP3    H232523   0.779   2.796   3.043
10860TIP3   OH232524   2.515   4.221   3.553
10860TIP3    H132525   2.471   4.262   3.627
10860TIP3    H232526   2.589   4.279   3.534
10861TIP3   OH232527   5.742   6.117   4.516
10861TIP3    H132528   5.771   6.143   4.603
10861TIP3    H232529   5.786   6.033   4.500
10862TIP3   OH232530   5.703   2.847   3.000
10862TIP3    H132531   5.681   2.772   3.054
10862TIP3    H232532   5.716   2.811   2.912
10863TIP3   OH232533   0.620   6.998   5.896
10863TIP3    H132534   0.694   7.000   5.956
10863TIP3    H232535   0.551   6.953   5.944
10864TIP3   OH232536   6.563   5.308   3.783
10864TIP3    H132537   6.536   5.217   3.793
10864TIP3    H232538   6.647   5.313   3.829
10865TIP3   OH232539   6.550   7.143   5.499
10865TIP3    H132540   6.470   7.154   5.551
10865TIP3    H232541   6.534   7.195   5.420
10866TIP3   OH232542   6.285   0.809   6.578
10866TIP3    H132543   6.260   0.872   6.511
10866TIP3    H232544   6.204   0.763   6.600
10867TIP3   OH232545   1.028   2.319   3.917
10867TIP3    H132546   1.111   2.348   3.956
10867TIP3    H232547   1.038   2.338   3.824
10868TIP3   OH232548   8.090   4.123   2.628
10868TIP3    H132549   8.035   4.047   2.610
10868TIP3    H232550   8.056   4.158   2.710
10869TIP3   OH232551   3.345   0.599   6.197
10869TIP3    H132552   3.424   0.624   6.148
10869TIP3    H232553   3.293   0.548   6.135
10870TIP3   OH232554   3.136   7.216   5.719
10870TIP3    H132555   3.104   7.218   5.809
10870TIP3    H232556   3.219   7.169   5.725
10871TIP3   OH232557   2.858   5.638   1.986
10871TIP3    H132558   2.845   5.713   2.044
10871TIP3    H232559   2.949   5.613   1.999
10872TIP3   OH232560   7.560   5.945   1.691
10872TIP3    H132561   7.617   5.925   1.616
10872TIP3    H232562   7.615   5.998   1.749
10873TIP3   OH232563   7.140   4.829   4.375
10873TIP3    H132564   7.069   4.808   4.436
10873TIP3    H232565   7.212   4.857   4.431
10874TIP3   OH232566   5.753   0.244   4.748
10874TIP3    H132567   5.677   0.201   4.709
10874TIP3    H232568   5.776   0.189   4.823
10875TIP3   OH232569   2.174   4.567   0.643
10875TIP3    H132570   2.187   4.649   0.689
10875TIP3    H232571   2.258   4.521   0.651
10876TIP3   OH232572   5.276   2.153   1.703
10876TIP3    H132573   5.183   2.176   1.698
10876TIP3    H232574   5.322   2.236   1.690
10877TIP3   OH232575   5.032   7.001   0.454
10877TIP3    H132576   5.102   6.944   0.423
10877TIP3    H232577   5.026   7.069   0.387
10878TIP3   OH232578   5.655   3.142   1.151
10878TIP3    H132579   5.666   3.082   1.077
10878TIP3    H232580   5.688   3.095   1.227
10879TIP3   OH232581   1.570   2.467   3.075
10879TIP3    H132582   1.585   2.425   3.159
10879TIP3    H232583   1.475   2.462   3.061
10880TIP3   OH232584   5.194   1.981  -0.001
10880TIP3    H132585   5.269   2.040   0.010
10880TIP3    H232586   5.128   2.014   0.059
10881TIP3   OH232587   1.929   2.648   3.945
10881TIP3    H132588   1.835   2.666   3.939
10881TIP3    H232589   1.939   2.561   3.907
10882TIP3   OH232590   4.020   4.907   0.750
10882TIP3    H132591   4.013   4.979   0.687
10882TIP3    H232592   3.947   4.849   0.728
10883TIP3   OH232593   3.919   6.415   6.081
10883TIP3    H132594   4.004   6.372   6.087
10883TIP3    H232595   3.878   6.399   6.166
10884TIP3   OH232596   4.493   2.893   6.007
10884TIP3    H132597   4.466   2.896   5.915
10884TIP3    H232598   4.460   2.975   6.044
10885TIP3   OH232599   5.160   7.277   0.810
10885TIP3    H132600   5.227   7.304   0.872
10885TIP3    H232601   5.091   7.240   0.864
10886TIP3   OH232602   4.956   3.891   1.903
10886TIP3    H132603   5.012   3.825   1.863
10886TIP3    H232604   5.001   3.915   1.984
10887TIP3   OH232605   1.219   0.363   2.075
10887TIP3    H132606   1.274   0.407   2.139
10887TIP3    H232607   1.145   0.330   2.126
10888TIP3   OH232608   3.779   3.226   2.394
10888TIP3    H132609   3.747   3.137   2.379
10888TIP3    H232610   3.869   3.215   2.424
10889TIP3   OH232611   5.659   3.104   0.679
10889TIP3    H132612   5.723   3.036   0.701
10889TIP3    H232613   5.668   3.116   0.585
10890TIP3   OH232614   1.469   3.723   5.091
10890TIP3    H132615   1.467   3.818   5.085
10890TIP3    H232616   1.385   3.695   5.054
10891TIP3   OH232617   7.160   2.573   0.068
10891TIP3    H132618   7.245   2.578   0.111
10891TIP3    H232619   7.172   2.508  -0.002
10892TIP3   OH232620   2.892   0.282   6.636
10892TIP3    H132621   2.925   0.301   6.724
10892TIP3    H232622   2.813   0.336   6.629
10893TIP3   OH232623   1.958   3.766   6.357
10893TIP3    H132624   2.002   3.725   6.432
10893TIP3    H232625   1.980   3.859   6.364
10894TIP3   OH232626   7.580   5.019   3.460
10894TIP3    H132627   7.605   5.093   3.405
10894TIP3    H232628   7.620   4.943   3.419
10895TIP3   OH232629   1.625   1.246   4.503
10895TIP3    H132630   1.662   1.220   4.419
10895TIP3    H232631   1.540   1.203   4.507
10896TIP3   OH232632   3.868   3.302   3.843
10896TIP3    H132633   3.869   3.208   3.821
10896TIP3    H232634   3.954   3.318   3.881
10897TIP3   OH232635   7.336   1.585   2.305
10897TIP3    H132636   7.320   1.542   2.389
10897TIP3    H232637   7.269   1.549   2.247
10898TIP3   OH232638   0.729   0.776   4.055
10898TIP3    H132639   0.722   0.766   3.960
10898TIP3    H232640   0.708   0.690   4.090
10899TIP3   OH232641   3.903   0.613   4.364
10899TIP3    H132642   3.946   0.543   4.413
10899TIP3    H232643   3.810   0.591   4.369
10900TIP3   OH232644   7.741   7.417   0.232
10900TIP3    H132645   7.734   7.357   0.306
10900TIP3    H232646   7.656   7.413   0.190
10901TIP3   OH232647   1.439   0.023   3.316
10901TIP3    H132648   1.462   0.092   3.378
10901TIP3    H232649   1.522  -0.003   3.277
10902TIP3   OH232650   1.221   4.409   6.515
10902TIP3    H132651   1.248   4.364   6.595
10902TIP3    H232652   1.127   4.389   6.508
10903TIP3   OH232653   0.699   0.358   6.495
10903TIP3    H132654   0.706   0.311   6.578
10903TIP3    H232655   0.789   0.362   6.463
10904TIP3   OH232656   3.632   5.071   3.921
10904TIP3    H132657   3.596   5.143   3.973
10904TIP3    H232658   3.692   5.026   3.981
10905TIP3   OH232659   1.164   1.904   5.042
10905TIP3    H132660   1.195   1.986   5.081
10905TIP3    H232661   1.102   1.870   5.106
10906TIP3   OH232662   0.863   2.889   4.241
10906TIP3    H132663   0.786   2.943   4.261
10906TIP3    H232664   0.827   2.803   4.220
10907TIP3   OH232665   1.989   3.779   2.723
10907TIP3    H132666   1.904   3.822   2.712
10907TIP3    H232667   2.026   3.818   2.802
10908TIP3   OH232668   2.564   5.978   5.449
10908TIP3    H132669   2.477   5.947   5.422
10908TIP3    H232670   2.567   6.069   5.421
10909TIP3   OH232671   5.870   5.552   3.163
10909TIP3    H132672   5.964   5.560   3.146
10909TIP3    H232673   5.858   5.588   3.251
10910TIP3   OH232674   4.585   4.573   1.547
10910TIP3    H132675   4.610   4.559   1.638
10910TIP3    H232676   4.638   4.648   1.519
10911TIP3   OH232677   1.218   4.117   6.377
10911TIP3    H132678   1.131   4.129   6.415
10911TIP3    H232679   1.265   4.198   6.399
10912TIP3   OH232680   6.890   7.532   6.649
10912TIP3    H132681   6.830   7.587   6.699
10912TIP3    H232682   6.852   7.444   6.653
10913TIP3   OH232683   5.911   6.376   5.308
10913TIP3    H132684   5.904   6.393   5.214
10913TIP3    H232685   5.946   6.458   5.344
10914TIP3   OH232686   1.567   1.753   2.884
10914TIP3    H132687   1.588   1.741   2.977
10914TIP3    H232688   1.569   1.848   2.872
10915TIP3   OH232689   6.268   6.787   4.194
10915TIP3    H132690   6.325   6.833   4.132
10915TIP3    H232691   6.300   6.815   4.280
10916TIP3   OH232692   0.737   1.818   0.554
10916TIP3    H132693   0.674   1.885   0.582
10916TIP3    H232694   0.822   1.855   0.577
10917TIP3   OH232695   0.764   6.537   4.276
10917TIP3    H132696   0.836   6.506   4.331
10917TIP3    H232697   0.690   6.481   4.299
10918TIP3   OH232698   6.248   2.248   1.082
10918TIP3    H132699   6.239   2.305   1.159
10918TIP3    H232700   6.185   2.284   1.020
10919TIP3   OH232701   1.047   3.088   3.340
10919TIP3    H132702   0.963   3.118   3.374
10919TIP3    H232703   1.050   3.122   3.251
10920TIP3   OH232704   7.113   6.617   6.039
10920TIP3    H132705   7.038   6.645   5.987
10920TIP3    H232706   7.118   6.522   6.025
10921TIP3   OH232707   7.481   2.176   0.314
10921TIP3    H132708   7.564   2.168   0.266
10921TIP3    H232709   7.478   2.097   0.368
10922TIP3   OH232710   2.638   4.439   1.353
10922TIP3    H132711   2.650   4.472   1.263
10922TIP3    H232712   2.671   4.349   1.350
10923TIP3   OH232713   5.404   2.008   0.291
10923TIP3    H132714   5.320   2.009   0.337
10923TIP3    H232715   5.389   2.064   0.214
10924TIP3   OH232716   3.958   1.828   6.458
10924TIP3    H132717   3.961   1.922   6.440
10924TIP3    H232718   3.871   1.814   6.496
10925TIP3   OH232719   2.193   4.941   2.928
10925TIP3    H132720   2.104   4.910   2.942
10925TIP3    H232721   2.183   5.019   2.873
10926TIP3   OH232722   6.773   0.279   0.407
10926TIP3    H132723   6.862   0.308   0.423
10926TIP3    H232724   6.766   0.275   0.312
10927TIP3   OH232725   7.915   0.432   4.971
10927TIP3    H132726   7.974   0.360   4.992
10927TIP3    H232727   7.832   0.390   4.948
10928TIP3   OH232728   0.834   6.925   6.120
10928TIP3    H132729   0.866   6.852   6.173
10928TIP3    H232730   0.913   6.976   6.100
10929TIP3   OH232731   5.196   1.173   0.299
10929TIP3    H132732   5.219   1.110   0.230
10929TIP3    H232733   5.189   1.257   0.253
10930TIP3   OH232734   8.273   2.587   0.311
10930TIP3    H132735   8.286   2.675   0.275
10930TIP3    H232736   8.261   2.601   0.405
10931TIP3   OH232737   2.160   2.196   4.447
10931TIP3    H132738   2.105   2.259   4.494
10931TIP3    H232739   2.174   2.235   4.361
10932TIP3   OH232740   6.071   5.771   4.567
10932TIP3    H132741   6.121   5.706   4.615
10932TIP3    H232742   6.111   5.773   4.480
10933TIP3   OH232743   7.680   5.436   2.100
10933TIP3    H132744   7.611   5.372   2.086
10933TIP3    H232745   7.721   5.446   2.014
10934TIP3   OH232746   1.605   1.720   0.567
10934TIP3    H132747   1.659   1.674   0.503
10934TIP3    H232748   1.553   1.651   0.608
10935TIP3   OH232749   2.788   1.767   2.213
10935TIP3    H132750   2.770   1.831   2.282
10935TIP3    H232751   2.738   1.798   2.137
10936TIP3   OH232752   3.124   0.269   0.243
10936TIP3    H132753   3.111   0.340   0.305
10936TIP3    H232754   3.040   0.260   0.198
10937TIP3   OH232755   6.403   2.891   2.207
10937TIP3    H132756   6.348   2.839   2.149
10937TIP3    H232757   6.344   2.922   2.276
10938TIP3   OH232758   5.393   1.026   1.016
10938TIP3    H132759   5.429   0.941   0.992
10938TIP3    H232760   5.382   1.072   0.933
10939TIP3   OH232761   4.336   3.971   1.823
10939TIP3    H132762   4.249   3.974   1.783
10939TIP3    H232763   4.395   4.008   1.756
10940TIP3   OH232764   3.871   4.233   1.035
10940TIP3    H132765   3.955   4.205   0.999
10940TIP3    H232766   3.886   4.239   1.130
10941TIP3   OH232767   1.065   3.278   6.015
10941TIP3    H132768   1.068   3.264   5.920
10941TIP3    H232769   0.977   3.252   6.040
10942TIP3   OH232770   0.804   3.743   0.109
10942TIP3    H132771   0.722   3.711   0.146
10942TIP3    H232772   0.848   3.788   0.181
10943TIP3   OH232773   6.079   7.659   2.292
10943TIP3    H132774   6.141   7.588   2.307
10943TIP3    H232775   6.131   7.739   2.299
10944TIP3   OH232776   1.328   1.890   3.296
10944TIP3    H132777   1.251   1.855   3.252
10944TIP3    H232778   1.379   1.813   3.321
10945TIP3   OH232779   4.792   5.509   5.379
10945TIP3    H132780   4.830   5.526   5.466
10945TIP3    H232781   4.708   5.553   5.381
10946TIP3   OH232782   3.979   6.757   4.744
10946TIP3    H132783   4.016   6.671   4.763
10946TIP3    H232784   3.885   6.744   4.745
10947TIP3   OH232785   5.550   5.410   2.241
10947TIP3    H132786   5.476   5.358   2.208
10947TIP3    H232787   5.542   5.494   2.196
10948TIP3   OH232788   8.258   2.742   6.758
10948TIP3    H132789   8.265   2.654   6.722
10948TIP3    H232790   8.164   2.754   6.773
10949TIP3   OH232791   5.894   4.435   1.312
10949TIP3    H132792   5.875   4.480   1.230
10949TIP3    H232793   5.821   4.375   1.325
10950TIP3   OH232794   1.220   3.751   0.046
10950TIP3    H132795   1.211   3.775  -0.047
10950TIP3    H232796   1.263   3.666   0.044
10951TIP3   OH232797   0.662   7.238   4.918
10951TIP3    H132798   0.709   7.157   4.900
10951TIP3    H232799   0.658   7.283   4.833
10952TIP3   OH232800   5.152   5.069   3.771
10952TIP3    H132801   5.171   5.138   3.708
10952TIP3    H232802   5.220   5.004   3.756
10953TIP3   OH232803   1.799   6.823   3.751
10953TIP3    H132804   1.704   6.833   3.755
10953TIP3    H232805   1.832   6.872   3.826
10954TIP3   OH232806   5.864   4.451   4.829
10954TIP3    H132807   5.859   4.506   4.907
10954TIP3    H232808   5.776   4.455   4.791
10955TIP3   OH232809   4.387   2.001   5.133
10955TIP3    H132810   4.393   2.093   5.159
10955TIP3    H232811   4.299   1.974   5.160
10956TIP3   OH232812   6.998   6.412   0.550
10956TIP3    H132813   6.949   6.437   0.629
10956TIP3    H232814   7.040   6.329   0.574
10957TIP3   OH232815   1.364   4.357   0.604
10957TIP3    H132816   1.369   4.300   0.681
10957TIP3    H232817   1.302   4.312   0.546
10958TIP3   OH232818   1.954   1.972   2.686
10958TIP3    H132819   1.949   1.982   2.781
10958TIP3    H232820   1.916   2.052   2.651
10959TIP3   OH232821   5.898   1.025   6.123
10959TIP3    H132822   5.943   0.950   6.162
10959TIP3    H232823   5.935   1.031   6.034
10960TIP3   OH232824   3.384   3.820   5.395
10960TIP3    H132825   3.308   3.803   5.339
10960TIP3    H232826   3.459   3.813   5.335
10961TIP3   OH232827   4.207   6.385   2.242
10961TIP3    H132828   4.213   6.289   2.243
10961TIP3    H232829   4.228   6.409   2.151
10962TIP3   OH232830   0.610   6.743   5.382
10962TIP3    H132831   0.544   6.740   5.313
10962TIP3    H232832   0.560   6.729   5.463
10963TIP3   OH232833   8.122   1.864   0.095
10963TIP3    H132834   8.126   1.857   0.000
10963TIP3    H232835   8.178   1.938   0.117
10964TIP3   OH232836   1.890   4.518   0.669
10964TIP3    H132837   1.910   4.553   0.756
10964TIP3    H232838   1.973   4.521   0.622
10965TIP3   OH232839   0.965   1.528   6.081
10965TIP3    H132840   0.941   1.614   6.117
10965TIP3    H232841   0.904   1.467   6.122
10966TIP3   OH232842   2.392   7.632   2.005
10966TIP3    H132843   2.377   7.673   2.090
10966TIP3    H232844   2.366   7.541   2.017
10967TIP3   OH232845   2.350   5.562   2.891
10967TIP3    H132846   2.443   5.585   2.891
10967TIP3    H232847   2.330   5.543   2.800
10968TIP3   OH232848   3.404   4.472   0.997
10968TIP3    H132849   3.466   4.412   1.040
10968TIP3    H232850   3.319   4.430   1.009
10969TIP3   OH232851   5.741   5.574   1.763
10969TIP3    H132852   5.716   5.518   1.837
10969TIP3    H232853   5.726   5.663   1.794
10970TIP3   OH232854   1.461   3.028   4.483
10970TIP3    H132855   1.547   2.995   4.510
10970TIP3    H232856   1.476   3.120   4.461
10971TIP3   OH232857   6.852   1.167   2.260
10971TIP3    H132858   6.914   1.177   2.188
10971TIP3    H232859   6.904   1.179   2.339
10972TIP3   OH232860   6.554   1.009   3.857
10972TIP3    H132861   6.591   1.085   3.903
10972TIP3    H232862   6.540   1.040   3.767
10973TIP3   OH232863   4.470   4.962   3.641
10973TIP3    H132864   4.405   4.902   3.604
10973TIP3    H232865   4.429   5.048   3.635
10974TIP3   OH232866   3.799   5.253   3.016
10974TIP3    H132867   3.795   5.163   3.050
10974TIP3    H232868   3.818   5.243   2.923
10975TIP3   OH232869   7.785   1.608   1.601
10975TIP3    H132870   7.753   1.636   1.515
10975TIP3    H232871   7.745   1.522   1.615
10976TIP3   OH232872   6.983   4.981   1.653
10976TIP3    H132873   7.021   4.943   1.732
10976TIP3    H232874   6.889   4.961   1.659
10977TIP3   OH232875   7.635   6.250   5.150
10977TIP3    H132876   7.613   6.341   5.171
10977TIP3    H232877   7.602   6.200   5.225
10978TIP3   OH232878   7.651   0.833   3.518
10978TIP3    H132879   7.662   0.775   3.442
10978TIP3    H232880   7.716   0.901   3.505
10979TIP3   OH232881   1.257   3.556   3.920
10979TIP3    H132882   1.220   3.577   4.006
10979TIP3    H232883   1.351   3.553   3.935
10980TIP3   OH232884   2.912   5.523   5.200
10980TIP3    H132885   2.848   5.588   5.229
10980TIP3    H232886   2.989   5.575   5.176
10981TIP3   OH232887   3.950   3.560   2.152
10981TIP3    H132888   4.040   3.532   2.137
10981TIP3    H232889   3.955   3.616   2.230
10982TIP3   OH232890   4.784   4.917   1.625
10982TIP3    H132891   4.877   4.898   1.637
10982TIP3    H232892   4.752   4.844   1.571
10983TIP3   OH232893   2.390   7.652   1.599
10983TIP3    H132894   2.423   7.688   1.517
10983TIP3    H232895   2.334   7.720   1.635
10984TIP3   OH232896   1.884   1.184   4.620
10984TIP3    H132897   1.921   1.121   4.559
10984TIP3    H232898   1.790   1.183   4.602
10985TIP3   OH232899   3.734   3.113   4.615
10985TIP3    H132900   3.675   3.187   4.601
10985TIP3    H232901   3.680   3.036   4.600
10986TIP3   OH232902   0.669   5.108   6.555
10986TIP3    H132903   0.627   5.038   6.605
10986TIP3    H232904   0.734   5.145   6.615
10987TIP3   OH232905   4.142   3.255   4.141
10987TIP3    H132906   4.169   3.170   4.176
10987TIP3    H232907   4.087   3.293   4.210
10988TIP3   OH232908   4.506   1.649   1.730
10988TIP3    H132909   4.575   1.593   1.765
10988TIP3    H232910   4.544   1.689   1.652
10989TIP3   OH232911   1.561   6.970   3.130
10989TIP3    H132912   1.562   6.880   3.160
10989TIP3    H232913   1.630   7.013   3.180
10990TIP3   OH232914   3.512   1.667   2.497
10990TIP3    H132915   3.428   1.704   2.469
10990TIP3    H232916   3.492   1.576   2.519
10991TIP3   OH232917   6.188   2.841   0.664
10991TIP3    H132918   6.235   2.924   0.673
10991TIP3    H232919   6.222   2.804   0.582
10992TIP3   OH232920   3.696   6.722   4.387
10992TIP3    H132921   3.626   6.778   4.422
10992TIP3    H232922   3.776   6.768   4.409
10993TIP3   OH232923   0.953   0.914   0.983
10993TIP3    H132924   0.940   0.974   0.909
10993TIP3    H232925   0.870   0.866   0.989
10994TIP3   OH232926   2.235   1.888   2.198
10994TIP3    H132927   2.162   1.828   2.183
10994TIP3    H232928   2.221   1.959   2.135
10995TIP3   OH232929   7.536   4.815   4.023
10995TIP3    H132930   7.577   4.803   4.108
10995TIP3    H232931   7.573   4.897   3.990
10996TIP3   OH232932   7.221   7.527   0.360
10996TIP3    H132933   7.240   7.505   0.269
10996TIP3    H232934   7.160   7.600   0.355
10997TIP3   OH232935   5.836   1.226   0.770
10997TIP3    H132936   5.931   1.219   0.761
10997TIP3    H232937   5.802   1.167   0.702
10998TIP3   OH232938   6.274   5.490   5.127
10998TIP3    H132939   6.336   5.420   5.105
10998TIP3    H232940   6.188   5.454   5.106
10999TIP3   OH232941   4.662   0.917   6.240
10999TIP3    H132942   4.723   0.971   6.189
10999TIP3    H232943   4.586   0.905   6.183
11000TIP3   OH232944   6.270   0.412   0.053
11000TIP3    H132945   6.309   0.474   0.114
11000TIP3    H232946   6.272   0.328   0.099
11001TIP3   OH232947   6.231   3.519   4.567
11001TIP3    H132948   6.204   3.607   4.595
11001TIP3    H232949   6.225   3.522   4.472
11002TIP3   OH232950   4.111   7.399   5.162
11002TIP3    H132951   4.075   7.464   5.223
11002TIP3    H232952   4.039   7.337   5.149
11003TIP3   OH232953   0.367   5.773   5.393
11003TIP3    H132954   0.363   5.866   5.412
11003TIP3    H232955   0.277   5.749   5.369
11004TIP3   OH232956   7.016   7.092   2.857
11004TIP3    H132957   7.055   7.177   2.835
11004TIP3    H232958   6.987   7.057   2.773
11005TIP3   OH232959   3.917   7.329   1.933
11005TIP3    H132960   3.856   7.373   1.992
11005TIP3    H232961   3.994   7.311   1.987
11006TIP3   OH232962   7.149   7.067   5.265
11006TIP3    H132963   7.183   6.985   5.227
11006TIP3    H232964   7.220   7.097   5.322
11007TIP3   OH232965   6.019   3.968   0.804
11007TIP3    H132966   6.013   3.873   0.798
11007TIP3    H232967   6.093   3.991   0.747
11008TIP3   OH232968   8.033   3.095   5.954
11008TIP3    H132969   7.985   3.178   5.952
11008TIP3    H232970   8.121   3.118   5.923
11009TIP3   OH232971   5.280   3.071   3.827
11009TIP3    H132972   5.233   2.990   3.845
11009TIP3    H232973   5.218   3.124   3.776
11010TIP3   OH232974   7.634   3.467   5.421
11010TIP3    H132975   7.606   3.498   5.506
11010TIP3    H232976   7.663   3.546   5.375
11011TIP3   OH232977   8.083   5.236   0.007
11011TIP3    H132978   8.066   5.142   0.000
11011TIP3    H232979   8.156   5.244   0.069
11012TIP3   OH232980   5.474   1.602   3.593
11012TIP3    H132981   5.418   1.679   3.591
11012TIP3    H232982   5.428   1.540   3.649
11013TIP3   OH232983   2.634   3.632   3.466
11013TIP3    H132984   2.679   3.715   3.451
11013TIP3    H232985   2.635   3.621   3.561
11014TIP3   OH232986   7.852   6.633   0.763
11014TIP3    H132987   7.802   6.714   0.770
11014TIP3    H232988   7.791   6.570   0.726
11015TIP3   OH232989   2.545   7.220   6.197
11015TIP3    H132990   2.574   7.154   6.134
11015TIP3    H232991   2.559   7.304   6.152
11016TIP3   OH232992   6.199   2.746   2.041
11016TIP3    H132993   6.204   2.673   2.102
11016TIP3    H232994   6.143   2.714   1.970
11017TIP3   OH232995   0.521   7.297   1.801
11017TIP3    H132996   0.428   7.283   1.820
11017TIP3    H232997   0.522   7.325   1.709
11018TIP3   OH232998   3.540   7.727   1.428
11018TIP3    H132999   3.634   7.714   1.412
11018TIP3    H233000   3.500   7.727   1.341
11019TIP3   OH233001   1.149   6.812   6.372
11019TIP3    H133002   1.110   6.755   6.306
11019TIP3    H233003   1.244   6.803   6.358
11020TIP3   OH233004   0.086   7.824   1.137
11020TIP3    H133005   0.114   7.829   1.229
11020TIP3    H233006   0.161   7.786   1.092
11021TIP3   OH233007   6.023   0.047   1.923
11021TIP3    H133008   6.048   0.077   2.010
11021TIP3    H233009   5.997   0.127   1.877
11022TIP3   OH233010   1.519   4.068   1.603
11022TIP3    H133011   1.502   4.077   1.697
11022TIP3    H233012   1.567   3.986   1.595
11023TIP3   OH233013   4.915  -0.026   1.682
11023TIP3    H133014   4.875   0.026   1.752
11023TIP3    H233015   4.908   0.030   1.604
11024TIP3   OH233016   5.726   1.857   0.285
11024TIP3    H133017   5.689   1.907   0.213
11024TIP3    H233018   5.691   1.899   0.364
11025TIP3   OH233019   6.546   2.794   4.476
11025TIP3    H133020   6.599   2.725   4.516
11025TIP3    H233021   6.609   2.861   4.451
11026TIP3   OH233022   7.823   3.570   5.689
11026TIP3    H133023   7.806   3.663   5.674
11026TIP3    H233024   7.760   3.545   5.758
11027TIP3   OH233025   7.055   4.269   1.405
11027TIP3    H133026   7.037   4.294   1.315
11027TIP3    H233027   7.029   4.177   1.410
11028TIP3   OH233028   1.554   0.007   5.243
11028TIP3    H133029   1.549   0.009   5.339
11028TIP3    H233030   1.463  -0.002   5.214
11029TIP3   OH233031   4.956   6.386   1.543
11029TIP3    H133032   4.887   6.324   1.569
11029TIP3    H233033   4.912   6.471   1.545
11030TIP3   OH233034   1.051   2.682   4.262
11030TIP3    H133035   1.072   2.628   4.185
11030TIP3    H233036   1.032   2.768   4.226
11031TIP3   OH233037   1.653   2.412   5.178
11031TIP3    H133038   1.586   2.356   5.218
11031TIP3    H233039   1.668   2.374   5.092
11032TIP3   OH233040   0.259   7.017   6.034
11032TIP3    H133041   0.256   7.085   6.102
11032TIP3    H233042   0.330   6.959   6.062
11033TIP3   OH233043   2.668   6.432   0.915
11033TIP3    H133044   2.666   6.381   0.834
11033TIP3    H233045   2.667   6.524   0.886
11034TIP3   OH233046   2.263   0.119   1.806
11034TIP3    H133047   2.338   0.074   1.768
11034TIP3    H233048   2.249   0.194   1.747
11035TIP3   OH233049   4.679   7.779   3.082
11035TIP3    H133050   4.596   7.762   3.038
11035TIP3    H233051   4.690   7.874   3.078
11036TIP3   OH233052   4.501   0.749   2.484
11036TIP3    H133053   4.491   0.719   2.394
11036TIP3    H233054   4.486   0.671   2.537
11037TIP3   OH233055   1.795   2.826   5.922
11037TIP3    H133056   1.848   2.903   5.941
11037TIP3    H233057   1.857   2.762   5.887
11038TIP3   OH233058   1.059   6.429   4.809
11038TIP3    H133059   1.044   6.340   4.777
11038TIP3    H233060   1.154   6.438   4.810
11039TIP3   OH233061   4.702   2.762   4.052
11039TIP3    H133062   4.744   2.678   4.067
11039TIP3    H233063   4.610   2.747   4.072
11040TIP3   OH233064   7.399   5.814   3.671
11040TIP3    H133065   7.483   5.827   3.714
11040TIP3    H233066   7.420   5.806   3.578
11041TIP3   OH233067   6.903   2.635   1.519
11041TIP3    H133068   6.893   2.688   1.440
11041TIP3    H233069   6.990   2.656   1.552
11042TIP3   OH233070   2.330   7.080   1.659
11042TIP3    H133071   2.407   7.036   1.623
11042TIP3    H233072   2.298   7.135   1.588
11043TIP3   OH233073   0.257   1.756   3.206
11043TIP3    H133074   0.302   1.771   3.122
11043TIP3    H233075   0.173   1.800   3.196
11044TIP3   OH233076   4.128   6.298   1.375
11044TIP3    H133077   4.133   6.327   1.466
11044TIP3    H233078   4.207   6.334   1.334
11045TIP3   OH233079   7.113   0.606   4.163
11045TIP3    H133080   7.021   0.606   4.188
11045TIP3    H233081   7.140   0.698   4.172
11046TIP3   OH233082   7.176   4.889   5.974
11046TIP3    H133083   7.228   4.811   5.994
11046TIP3    H233084   7.239   4.961   5.973
11047TIP3   OH233085   2.229   6.258   4.717
11047TIP3    H133086   2.158   6.195   4.725
11047TIP3    H233087   2.185   6.341   4.697
11048TIP3   OH233088   1.131   6.710   3.547
11048TIP3    H133089   1.072   6.785   3.540
11048TIP3    H233090   1.076   6.634   3.531
11049TIP3   OH233091   1.881   3.878   3.320
11049TIP3    H133092   1.901   3.948   3.382
11049TIP3    H233093   1.885   3.798   3.372
11050TIP3   OH233094   2.002   3.585   0.261
11050TIP3    H133095   1.946   3.648   0.215
11050TIP3    H233096   2.087   3.592   0.216
11051TIP3   OH233097   2.015   7.536   3.933
11051TIP3    H133098   2.076   7.606   3.958
11051TIP3    H233099   1.949   7.537   4.002
11052TIP3   OH233100   0.839   2.328   3.005
11052TIP3    H133101   0.753   2.294   3.032
11052TIP3    H233102   0.818   2.397   2.942
11053TIP3   OH233103   0.744   2.259   5.786
11053TIP3    H133104   0.832   2.286   5.813
11053TIP3    H233105   0.699   2.236   5.867
11054TIP3   OH233106   2.898   1.866   1.130
11054TIP3    H133107   2.986   1.833   1.148
11054TIP3    H233108   2.907   1.961   1.126
11055TIP3   OH233109   3.244   1.151   1.343
11055TIP3    H133110   3.268   1.154   1.435
11055TIP3    H233111   3.327   1.156   1.296
11056TIP3   OH233112   0.058   2.836   3.513
11056TIP3    H133113   0.099   2.750   3.525
11056TIP3    H233114   0.107   2.894   3.572
11057TIP3   OH233115   7.774   0.768   1.365
11057TIP3    H133116   7.762   0.681   1.404
11057TIP3    H233117   7.734   0.828   1.428
11058TIP3   OH233118   0.228   2.274   1.144
11058TIP3    H133119   0.169   2.349   1.136
11058TIP3    H233120   0.297   2.291   1.080
11059TIP3   OH233121   1.764   5.742   3.733
11059TIP3    H133122   1.811   5.666   3.768
11059TIP3    H233123   1.794   5.749   3.643
11060TIP3   OH233124   4.285   0.231   4.323
11060TIP3    H133125   4.271   0.178   4.401
11060TIP3    H233126   4.249   0.317   4.345
11061TIP3   OH233127   1.380   6.790   0.043
11061TIP3    H133128   1.293   6.770   0.076
11061TIP3    H233129   1.399   6.721  -0.020
11062TIP3   OH233130   5.763   1.422   2.866
11062TIP3    H133131   5.764   1.517   2.853
11062TIP3    H233132   5.750   1.411   2.960
11063TIP3   OH233133   2.998   1.285   1.268
11063TIP3    H133134   3.048   1.333   1.202
11063TIP3    H233135   3.057   1.216   1.298
11064TIP3   OH233136   3.691   3.452   2.253
11064TIP3    H133137   3.720   3.389   2.318
11064TIP3    H233138   3.770   3.476   2.204
11065TIP3   OH233139   6.578   5.255   1.997
11065TIP3    H133140   6.543   5.188   1.939
11065TIP3    H233141   6.632   5.207   2.060
11066TIP3   OH233142   1.861   6.346   1.778
11066TIP3    H133143   1.778   6.380   1.745
11066TIP3    H233144   1.867   6.382   1.867
11067TIP3   OH233145   8.120   5.750   4.124
11067TIP3    H133146   8.125   5.667   4.171
11067TIP3    H233147   8.095   5.814   4.191
11068TIP3   OH233148   0.912   5.818   0.238
11068TIP3    H133149   0.990   5.823   0.182
11068TIP3    H233150   0.841   5.851   0.183
11069TIP3   OH233151   4.541   5.446   3.124
11069TIP3    H133152   4.489   5.409   3.195
11069TIP3    H233153   4.477   5.491   3.069
11070TIP3   OH233154   7.123   7.205   3.407
11070TIP3    H133155   7.128   7.295   3.440
11070TIP3    H233156   7.212   7.172   3.416
11071TIP3   OH233157   1.344   3.787   1.905
11071TIP3    H133158   1.277   3.738   1.858
11071TIP3    H233159   1.427   3.755   1.869
11072TIP3   OH233160   8.176   1.868   3.659
11072TIP3    H133161   8.118   1.816   3.714
11072TIP3    H233162   8.215   1.806   3.598
11073TIP3   OH233163   3.945   2.734   3.751
11073TIP3    H133164   3.911   2.666   3.809
11073TIP3    H233165   3.953   2.691   3.665
11074TIP3   OH233166   7.234   4.823   4.889
11074TIP3    H133167   7.294   4.836   4.962
11074TIP3    H233168   7.191   4.907   4.878
11075TIP3   OH233169   0.053   7.343   0.530
11075TIP3    H133170   0.121   7.371   0.592
11075TIP3    H233171  -0.017   7.310   0.586
11076TIP3   OH233172   2.722   7.390   6.425
11076TIP3    H133173   2.791   7.345   6.377
11076TIP3    H233174   2.721   7.347   6.511
11077TIP3   OH233175   7.126   7.830   0.986
11077TIP3    H133176   7.171   7.799   0.907
11077TIP3    H233177   7.143   7.763   1.052
11078TIP3   OH233178   7.041   2.939   4.114
11078TIP3    H133179   7.004   3.028   4.110
11078TIP3    H233180   7.024   2.911   4.204
11079TIP3   OH233181   1.185   2.786   2.130
11079TIP3    H133182   1.225   2.865   2.167
11079TIP3    H233183   1.258   2.739   2.089
11080TIP3   OH233184   2.313   5.962   4.500
11080TIP3    H133185   2.399   5.920   4.500
11080TIP3    H233186   2.256   5.900   4.546
11081TIP3   OH233187   7.112   0.646   5.833
11081TIP3    H133188   7.053   0.713   5.797
11081TIP3    H233189   7.053   0.582   5.874
11082TIP3   OH233190   0.538   5.736   6.103
11082TIP3    H133191   0.617   5.700   6.142
11082TIP3    H233192   0.467   5.686   6.142
11083TIP3   OH233193   5.629   1.731   3.380
11083TIP3    H133194   5.588   1.678   3.449
11083TIP3    H233195   5.704   1.771   3.422
11084TIP3   OH233196   1.885   7.663   6.131
11084TIP3    H133197   1.923   7.719   6.064
11084TIP3    H233198   1.954   7.599   6.151
11085TIP3   OH233199   2.226   1.628   5.090
11085TIP3    H133200   2.144   1.599   5.052
11085TIP3    H233201   2.294   1.590   5.033
11086TIP3   OH233202   6.300   2.171   0.550
11086TIP3    H133203   6.382   2.184   0.504
11086TIP3    H233204   6.233   2.179   0.482
11087TIP3   OH233205   4.974   5.771   4.111
11087TIP3    H133206   5.064   5.737   4.104
11087TIP3    H233207   4.925   5.699   4.151
11088TIP3   OH233208   1.063   3.664   3.043
11088TIP3    H133209   1.092   3.756   3.048
11088TIP3    H233210   1.141   3.616   3.016
11089TIP3   OH233211   7.286   3.558   1.856
11089TIP3    H133212   7.314   3.565   1.947
11089TIP3    H233213   7.265   3.465   1.844
11090TIP3   OH233214   7.527   6.395   1.388
11090TIP3    H133215   7.612   6.411   1.347
11090TIP3    H233216   7.547   6.346   1.467
11091TIP3   OH233217   1.973   2.131   2.190
11091TIP3    H133218   1.923   2.072   2.247
11091TIP3    H233219   1.908   2.194   2.159
11092TIP3   OH233220   1.588   5.243   0.625
11092TIP3    H133221   1.555   5.333   0.629
11092TIP3    H233222   1.528   5.198   0.565
11093TIP3   OH233223   3.039   6.240   2.545
11093TIP3    H133224   3.071   6.328   2.563
11093TIP3    H233225   2.975   6.223   2.614
11094TIP3   OH233226   6.299   5.307   4.186
11094TIP3    H133227   6.204   5.305   4.189
11094TIP3    H233228   6.321   5.275   4.099
11095TIP3   OH233229   4.721   2.993   6.627
11095TIP3    H133230   4.698   2.997   6.534
11095TIP3    H233231   4.766   2.909   6.636
11096TIP3   OH233232   1.414   2.325   4.453
11096TIP3    H133233   1.467   2.338   4.374
11096TIP3    H233234   1.478   2.324   4.525
11097TIP3   OH233235   4.989   1.114   4.852
11097TIP3    H133236   4.977   1.135   4.759
11097TIP3    H233237   5.078   1.077   4.857
11098TIP3   OH233238   7.861   3.595   3.662
11098TIP3    H133239   7.945   3.638   3.677
11098TIP3    H233240   7.803   3.666   3.636
11099TIP3   OH233241   0.735   7.073   3.853
11099TIP3    H133242   0.731   7.137   3.782
11099TIP3    H233243   0.752   7.126   3.931
11100TIP3   OH233244   5.810   3.334   0.857
11100TIP3    H133245   5.863   3.260   0.830
11100TIP3    H233246   5.739   3.296   0.908
11101TIP3   OH233247   7.713   0.967   0.937
11101TIP3    H133248   7.713   1.047   0.988
11101TIP3    H233249   7.755   0.990   0.854
11102TIP3   OH233250   4.320   6.189   5.537
11102TIP3    H133251   4.402   6.171   5.491
11102TIP3    H233252   4.275   6.254   5.482
11103TIP3   OH233253   6.818   2.653   0.957
11103TIP3    H133254   6.763   2.732   0.964
11103TIP3    H233255   6.781   2.592   1.021
11104TIP3   OH233256   0.422   7.275   2.149
11104TIP3    H133257   0.395   7.319   2.230
11104TIP3    H233258   0.462   7.345   2.096
11105TIP3   OH233259   7.531   1.078   0.573
11105TIP3    H133260   7.578   1.000   0.603
11105TIP3    H233261   7.542   1.078   0.478
11106TIP3   OH233262   3.926   5.085   4.128
11106TIP3    H133263   3.896   5.058   4.215
11106TIP3    H233264   3.907   5.179   4.124
11107TIP3   OH233265   3.579   5.615   1.151
11107TIP3    H133266   3.623   5.535   1.179
11107TIP3    H233267   3.566   5.665   1.232
11108TIP3   OH233268   1.983   3.405   5.457
11108TIP3    H133269   1.943   3.434   5.375
11108TIP3    H233270   2.067   3.368   5.431
11109TIP3   OH233271   7.578   1.107   6.366
11109TIP3    H133272   7.591   1.016   6.394
11109TIP3    H233273   7.484   1.122   6.374
11110TIP3   OH233274   7.449   1.290   1.162
11110TIP3    H133275   7.436   1.257   1.251
11110TIP3    H233276   7.406   1.225   1.106
11111TIP3   OH233277   6.200   6.141   1.872
11111TIP3    H133278   6.289   6.127   1.902
11111TIP3    H233279   6.162   6.053   1.866
11112TIP3   OH233280   3.209   4.516   3.069
11112TIP3    H133281   3.227   4.433   3.112
11112TIP3    H233282   3.160   4.492   2.990
11113TIP3   OH233283   4.974   5.967   6.360
11113TIP3    H133284   5.056   6.008   6.389
11113TIP3    H233285   4.982   5.876   6.389
11114TIP3   OH233286   5.615   7.467   6.620
11114TIP3    H133287   5.615   7.389   6.564
11114TIP3    H233288   5.670   7.530   6.572
11115TIP3   OH233289   0.905   3.869   0.345
11115TIP3    H133290   0.845   3.812   0.394
11115TIP3    H233291   0.984   3.872   0.399
11116TIP3   OH233292   3.886   0.795   6.137
11116TIP3    H133293   3.833   0.732   6.186
11116TIP3    H233294   3.900   0.868   6.199
11117TIP3   OH233295  -0.023   1.021   5.394
11117TIP3    H133296   0.053   0.979   5.354
11117TIP3    H233297   0.010   1.106   5.424
11118TIP3   OH233298   7.338   0.987   0.768
11118TIP3    H133299   7.338   1.041   0.690
11118TIP3    H233300   7.431   0.972   0.786
11119TIP3   OH233301   5.028   5.179   3.332
11119TIP3    H133302   4.980   5.224   3.401
11119TIP3    H233303   4.965   5.171   3.260
11120TIP3   OH233304   6.731   4.690   6.683
11120TIP3    H133305   6.708   4.754   6.616
11120TIP3    H233306   6.671   4.617   6.668
11121TIP3   OH233307   8.013   7.353   0.850
11121TIP3    H133308   8.066   7.422   0.889
11121TIP3    H233309   8.033   7.275   0.903
11122TIP3   OH233310   7.952   4.707   1.597
11122TIP3    H133311   7.936   4.725   1.504
11122TIP3    H233312   8.047   4.709   1.606
11123TIP3   OH233313   4.014   2.631   1.321
11123TIP3    H133314   3.962   2.589   1.390
11123TIP3    H233315   4.073   2.562   1.291
11124TIP3   OH233316   2.399   6.602   5.536
11124TIP3    H133317   2.376   6.666   5.468
11124TIP3    H233318   2.421   6.656   5.613
11125TIP3   OH233319   8.088   4.198   2.049
11125TIP3    H133320   8.123   4.245   2.124
11125TIP3    H233321   8.153   4.130   2.031
11126TIP3   OH233322   3.823   7.711   1.446
11126TIP3    H133323   3.895   7.679   1.392
11126TIP3    H233324   3.810   7.643   1.512
11127TIP3   OH233325   0.569   0.018   1.737
11127TIP3    H133326   0.585   0.054   1.825
11127TIP3    H233327   0.616   0.077   1.678
11128TIP3   OH233328   0.461   3.183   5.735
11128TIP3    H133329   0.474   3.221   5.648
11128TIP3    H233330   0.432   3.093   5.717
11129TIP3   OH233331   3.235   6.210   5.404
11129TIP3    H133332   3.260   6.132   5.454
11129TIP3    H233333   3.172   6.178   5.339
11130TIP3   OH233334   5.118   0.362   3.620
11130TIP3    H133335   5.030   0.329   3.600
11130TIP3    H233336   5.102   0.440   3.674
11131TIP3   OH233337   7.577   4.086   5.522
11131TIP3    H133338   7.562   3.995   5.496
11131TIP3    H233339   7.551   4.089   5.614
11132TIP3   OH233340   3.290   6.768   5.624
11132TIP3    H133341   3.303   6.861   5.644
11132TIP3    H233342   3.357   6.749   5.558
11133TIP3   OH233343   6.788   7.729   3.159
11133TIP3    H133344   6.831   7.736   3.244
11133TIP3    H233345   6.848   7.773   3.098
11134TIP3   OH233346   4.695   5.690   6.446
11134TIP3    H133347   4.790   5.676   6.444
11134TIP3    H233348   4.685   5.785   6.451
11135TIP3   OH233349   2.101   6.810   5.768
11135TIP3    H133350   2.182   6.764   5.791
11135TIP3    H233351   2.047   6.743   5.726
11136TIP3   OH233352   2.485   5.789   1.204
11136TIP3    H133353   2.514   5.741   1.282
11136TIP3    H233354   2.556   5.851   1.186
11137TIP3   OH233355   2.598   5.924   2.637
11137TIP3    H133356   2.614   5.927   2.731
11137TIP3    H233357   2.507   5.896   2.629
11138TIP3   OH233358   0.468   3.737   0.934
11138TIP3    H133359   0.490   3.669   0.870
11138TIP3    H233360   0.539   3.801   0.926
11139TIP3   OH233361   5.592   0.522   6.663
11139TIP3    H133362   5.653   0.531   6.590
11139TIP3    H233363   5.606   0.600   6.716
11140TIP3   OH233364   1.931   0.005   1.705
11140TIP3    H133365   1.868   0.077   1.697
11140TIP3    H233366   2.015   0.044   1.680
11141TIP3   OH233367   2.141   5.592   1.237
11141TIP3    H133368   2.164   5.636   1.155
11141TIP3    H233369   2.177   5.504   1.227
11142TIP3   OH233370   2.398   4.229   1.574
11142TIP3    H133371   2.452   4.281   1.634
11142TIP3    H233372   2.344   4.292   1.528
11143TIP3   OH233373   1.094   2.258   2.958
11143TIP3    H133374   1.011   2.299   2.984
11143TIP3    H233375   1.077   2.164   2.962
11144TIP3   OH233376   3.987   0.295   2.734
11144TIP3    H133377   4.018   0.272   2.646
11144TIP3    H233378   3.907   0.243   2.745
11145TIP3   OH233379   4.414   2.715   4.088
11145TIP3    H133380   4.414   2.619   4.096
11145TIP3    H233381   4.333   2.735   4.041
11146TIP3   OH233382   6.265   4.942   0.188
11146TIP3    H133383   6.227   5.024   0.220
11146TIP3    H233384   6.190   4.886   0.169
11147TIP3   OH233385   3.035   6.281   3.905
11147TIP3    H133386   3.120   6.237   3.898
11147TIP3    H233387   2.981   6.221   3.956
11148TIP3   OH233388   0.624   1.177   1.453
11148TIP3    H133389   0.700   1.235   1.446
11148TIP3    H233390   0.654   1.105   1.509
11149TIP3   OH233391   0.098   1.788   1.664
11149TIP3    H133392   0.173   1.830   1.622
11149TIP3    H233393   0.137   1.719   1.719
11150TIP3   OH233394   5.172   1.583   2.379
11150TIP3    H133395   5.241   1.650   2.379
11150TIP3    H233396   5.170   1.551   2.469
11151TIP3   OH233397   5.941   6.299   2.298
11151TIP3    H133398   6.001   6.274   2.228
11151TIP3    H233399   5.859   6.254   2.276
11152TIP3   OH233400   0.825   4.515   1.446
11152TIP3    H133401   0.882   4.548   1.516
11152TIP3    H233402   0.762   4.585   1.432
11153TIP3   OH233403   2.626   2.037   0.338
11153TIP3    H133404   2.574   2.051   0.418
11153TIP3    H233405   2.618   1.943   0.321
11154TIP3   OH233406   6.051   3.138   4.754
11154TIP3    H133407   5.990   3.212   4.760
11154TIP3    H233408   6.129   3.175   4.712
11155TIP3   OH233409   2.958   7.466   1.366
11155TIP3    H133410   2.953   7.381   1.409
11155TIP3    H233411   3.009   7.521   1.425
11156TIP3   OH233412   7.349   2.187   2.266
11156TIP3    H133413   7.412   2.253   2.235
11156TIP3    H233414   7.267   2.210   2.221
11157TIP3   OH233415   7.929   1.767   6.691
11157TIP3    H133416   8.002   1.788   6.749
11157TIP3    H233417   7.915   1.673   6.703
11158TIP3   OH233418   2.765   2.516   0.115
11158TIP3    H133419   2.758   2.459   0.192
11158TIP3    H233420   2.858   2.519   0.096
11159TIP3   OH233421   0.796   0.392   1.947
11159TIP3    H133422   0.717   0.399   1.894
11159TIP3    H233423   0.848   0.468   1.923
11160TIP3   OH233424   3.172   7.557   5.852
11160TIP3    H133425   3.135   7.633   5.897
11160TIP3    H233426   3.120   7.483   5.882
11161TIP3   OH233427   0.532   2.795   5.463
11161TIP3    H133428   0.490   2.733   5.522
11161TIP3    H233429   0.598   2.743   5.417
11162TIP3   OH233430   4.907   0.650   2.200
11162TIP3    H133431   4.842   0.650   2.130
11162TIP3    H233432   4.984   0.608   2.163
11163TIP3   OH233433   5.507   0.203   5.880
11163TIP3    H133434   5.432   0.231   5.828
11163TIP3    H233435   5.583   0.245   5.839
11164TIP3   OH233436   5.363   6.051   1.513
11164TIP3    H133437   5.352   6.139   1.476
11164TIP3    H233438   5.329   6.058   1.602
11165TIP3   OH233439   3.784   5.152   0.785
11165TIP3    H133440   3.758   5.244   0.783
11165TIP3    H233441   3.874   5.151   0.754
11166TIP3   OH233442   1.193   5.096   2.786
11166TIP3    H133443   1.175   5.025   2.848
11166TIP3    H233444   1.154   5.067   2.704
11167TIP3   OH233445   2.943   6.427   0.721
11167TIP3    H133446   2.950   6.410   0.815
11167TIP3    H233447   3.031   6.451   0.694
11168TIP3   OH233448   3.973   6.755   0.829
11168TIP3    H133449   3.999   6.847   0.839
11168TIP3    H233450   3.968   6.741   0.734
11169TIP3   OH233451   8.007   3.335   5.681
11169TIP3    H133452   7.948   3.400   5.720
11169TIP3    H233453   8.090   3.381   5.673
11170TIP3   OH233454   3.517   7.532   6.116
11170TIP3    H133455   3.512   7.519   6.211
11170TIP3    H233456   3.600   7.491   6.091
11171TIP3   OH233457   6.364   0.089   1.652
11171TIP3    H133458   6.411   0.015   1.692
11171TIP3    H233459   6.328   0.053   1.570
11172TIP3   OH233460   6.791   2.907   6.516
11172TIP3    H133461   6.829   2.858   6.589
11172TIP3    H233462   6.696   2.900   6.530
11173TIP3   OH233463   6.611   2.177   4.566
11173TIP3    H133464   6.609   2.190   4.471
11173TIP3    H233465   6.697   2.140   4.583
11174TIP3   OH233466   1.466   6.691   4.355
11174TIP3    H133467   1.377   6.678   4.388
11174TIP3    H233468   1.461   6.772   4.304
11175TIP3   OH233469   3.750   0.766   0.645
11175TIP3    H133470   3.671   0.771   0.592
11175TIP3    H233471   3.766   0.856   0.674
11176TIP3   OH233472   3.832   4.496   0.828
11176TIP3    H133473   3.854   4.454   0.911
11176TIP3    H233474   3.830   4.590   0.848
11177TIP3   OH233475   7.071   1.343   4.071
11177TIP3    H133476   7.156   1.326   4.110
11177TIP3    H233477   7.067   1.284   3.996
11178TIP3   OH233478   1.982   4.023   2.271
11178TIP3    H133479   2.010   4.059   2.355
11178TIP3    H233480   2.007   4.089   2.206
11179TIP3   OH233481   8.286   7.136   3.287
11179TIP3    H133482   8.354   7.132   3.220
11179TIP3    H233483   8.204   7.121   3.240
11180TIP3   OH233484   3.766   7.752   0.135
11180TIP3    H133485   3.807   7.804   0.065
11180TIP3    H233486   3.832   7.749   0.204
11181TIP3   OH233487   4.752   3.226   6.766
11181TIP3    H133488   4.727   3.141   6.730
11181TIP3    H233489   4.825   3.207   6.825
11182TIP3   OH233490   1.617   7.561   3.692
11182TIP3    H133491   1.531   7.530   3.664
11182TIP3    H233492   1.602   7.653   3.715
11183TIP3   OH233493   4.948   2.680   3.685
11183TIP3    H133494   5.030   2.651   3.724
11183TIP3    H233495   4.884   2.615   3.712
11184TIP3   OH233496   6.448   5.526   2.961
11184TIP3    H133497   6.532   5.483   2.940
11184TIP3    H233498   6.388   5.493   2.895
11185TIP3   OH233499   7.402   6.347   2.649
11185TIP3    H133500   7.436   6.313   2.566
11185TIP3    H233501   7.452   6.428   2.663
11186TIP3   OH233502   0.610   6.625   3.779
11186TIP3    H133503   0.625   6.638   3.873
11186TIP3    H233504   0.555   6.547   3.775
11187TIP3   OH233505   2.552   4.633   4.841
11187TIP3    H133506   2.639   4.595   4.854
11187TIP3    H233507   2.515   4.584   4.768
11188TIP3   OH233508   6.889   7.727   6.129
11188TIP3    H133509   6.870   7.635   6.114
11188TIP3    H233510   6.943   7.728   6.208
11189TIP3   OH233511   0.364   0.355   0.940
11189TIP3    H133512   0.418   0.277   0.933
11189TIP3    H233513   0.320   0.361   0.855
11190TIP3   OH233514   2.952   2.188   0.435
11190TIP3    H133515   2.961   2.120   0.502
11190TIP3    H233516   3.036   2.233   0.436
11191TIP3   OH233517   3.775   2.936   1.629
11191TIP3    H133518   3.698   2.987   1.653
11191TIP3    H233519   3.741   2.861   1.580
11192TIP3   OH233520   0.666   7.632   2.757
11192TIP3    H133521   0.745   7.577   2.753
11192TIP3    H233522   0.657   7.653   2.849
11193TIP3   OH233523   7.407   2.708   4.373
11193TIP3    H133524   7.378   2.621   4.346
11193TIP3    H233525   7.393   2.763   4.297
11194TIP3   OH233526   2.600   6.836   2.857
11194TIP3    H133527   2.567   6.893   2.788
11194TIP3    H233528   2.569   6.748   2.832
11195TIP3   OH233529   7.106   2.385   4.037
11195TIP3    H133530   7.024   2.352   4.001
11195TIP3    H233531   7.174   2.350   3.979
11196TIP3   OH233532   5.102   5.171   4.398
11196TIP3    H133533   5.153   5.095   4.426
11196TIP3    H233534   5.141   5.198   4.315
11197TIP3   OH233535   3.236   6.040   0.628
11197TIP3    H133536   3.201   5.954   0.653
11197TIP3    H233537   3.330   6.027   0.625
11198TIP3   OH233538   4.047   4.682   1.894
11198TIP3    H133539   4.057   4.682   1.989
11198TIP3    H233540   4.086   4.599   1.866
11199TIP3   OH233541   8.305   0.696   3.519
11199TIP3    H133542   8.362   0.639   3.468
11199TIP3    H233543   8.223   0.647   3.527
11200TIP3   OH233544   5.355   2.272   2.367
11200TIP3    H133545   5.287   2.338   2.385
11200TIP3    H233546   5.338   2.244   2.278
11201TIP3   OH233547   4.573   5.905   5.851
11201TIP3    H133548   4.487   5.865   5.858
11201TIP3    H233549   4.567   5.987   5.900
11202TIP3   OH233550   1.928   7.333   2.324
11202TIP3    H133551   1.949   7.267   2.391
11202TIP3    H233552   1.896   7.408   2.374
11203TIP3   OH233553   2.484   5.825   0.561
11203TIP3    H133554   2.531   5.906   0.580
11203TIP3    H233555   2.506   5.767   0.633
11204TIP3   OH233556   5.463   1.853   6.418
11204TIP3    H133557   5.394   1.914   6.443
11204TIP3    H233558   5.539   1.881   6.469
11205TIP3   OH233559   4.466   5.194   1.805
11205TIP3    H133560   4.474   5.213   1.712
11205TIP3    H233561   4.518   5.115   1.818
11206TIP3   OH233562   5.077   4.623   2.341
11206TIP3    H133563   5.067   4.718   2.348
11206TIP3    H233564   5.162   4.611   2.300
11207TIP3   OH233565   3.887   7.778   0.921
11207TIP3    H133566   3.957   7.755   0.981
11207TIP3    H233567   3.843   7.695   0.902
11208TIP3   OH233568   7.008   3.666   1.864
11208TIP3    H133569   7.091   3.633   1.901
11208TIP3    H233570   6.940   3.613   1.906
11209TIP3   OH233571   0.061   2.823   0.190
11209TIP3    H133572   0.013   2.877   0.127
11209TIP3    H233573   0.074   2.880   0.266
11210TIP3   OH233574   4.691   2.161   2.119
11210TIP3    H133575   4.673   2.250   2.149
11210TIP3    H233576   4.786   2.153   2.120
11211TIP3   OH233577   4.035   5.345   5.734
11211TIP3    H133578   4.031   5.429   5.688
11211TIP3    H233579   3.946   5.311   5.731
11212TIP3   OH233580   6.342   0.440   2.703
11212TIP3    H133581   6.372   0.373   2.765
11212TIP3    H233582   6.285   0.496   2.755
11213TIP3   OH233583   4.889   6.299   2.199
11213TIP3    H133584   4.918   6.237   2.132
11213TIP3    H233585   4.825   6.354   2.155
11214TIP3   OH233586   1.045   3.085   2.184
11214TIP3    H133587   1.050   3.176   2.156
11214TIP3    H233588   0.951   3.066   2.185
11215TIP3   OH233589   1.632   5.590   0.683
11215TIP3    H133590   1.675   5.599   0.769
11215TIP3    H233591   1.541   5.568   0.704
11216TIP3   OH233592   2.991   1.639   2.710
11216TIP3    H133593   2.897   1.624   2.702
11216TIP3    H233594   3.017   1.585   2.785
11217TIP3   OH233595   0.728   5.016   0.453
11217TIP3    H133596   0.769   5.095   0.488
11217TIP3    H233597   0.732   4.953   0.525
11218TIP3   OH233598   4.701   4.366   4.587
11218TIP3    H133599   4.662   4.306   4.524
11218TIP3    H233600   4.790   4.333   4.600
11219TIP3   OH233601   6.298   6.945   3.296
11219TIP3    H133602   6.288   6.949   3.391
11219TIP3    H233603   6.344   6.862   3.280
11220TIP3   OH233604   5.620   7.818   5.938
11220TIP3    H133605   5.706   7.815   5.982
11220TIP3    H233606   5.583   7.731   5.952
11221TIP3   OH233607   4.084   7.660   4.301
11221TIP3    H133608   4.142   7.585   4.292
11221TIP3    H233609   4.002   7.622   4.334
11222TIP3   OH233610   6.383   1.029   3.169
11222TIP3    H133611   6.299   0.994   3.199
11222TIP3    H233612   6.441   1.022   3.245
11223TIP3   OH233613   0.288   6.593   3.816
11223TIP3    H133614   0.241   6.610   3.898
11223TIP3    H233615   0.379   6.617   3.835
11224TIP3   OH233616   4.167   3.176   4.534
11224TIP3    H133617   4.146   3.220   4.616
11224TIP3    H233618   4.170   3.247   4.469
11225TIP3   OH233619   2.888   0.669   2.516
11225TIP3    H133620   2.974   0.674   2.558
11225TIP3    H233621   2.907   0.677   2.422
11226TIP3   OH233622   5.632   2.614   3.170
11226TIP3    H133623   5.621   2.690   3.226
11226TIP3    H233624   5.726   2.598   3.170
11227TIP3   OH233625   1.578   4.795   3.162
11227TIP3    H133626   1.589   4.840   3.078
11227TIP3    H233627   1.515   4.726   3.143
11228TIP3   OH233628   6.356   3.537   0.106
11228TIP3    H133629   6.369   3.516   0.014
11228TIP3    H233630   6.264   3.561   0.113
11229TIP3   OH233631   7.103   6.751   0.527
11229TIP3    H133632   7.093   6.743   0.622
11229TIP3    H233633   7.191   6.787   0.515
11230TIP3   OH233634   3.448   5.222   5.768
11230TIP3    H133635   3.364   5.177   5.777
11230TIP3    H233636   3.512   5.165   5.810
11231TIP3   OH233637   3.848   5.948   3.387
11231TIP3    H133638   3.861   6.020   3.449
11231TIP3    H233639   3.881   5.983   3.304
11232TIP3   OH233640   2.048   1.140   6.273
11232TIP3    H133641   2.044   1.219   6.219
11232TIP3    H233642   1.988   1.157   6.345
11233TIP3   OH233643   7.941   5.747   1.809
11233TIP3    H133644   7.853   5.725   1.840
11233TIP3    H233645   7.999   5.686   1.855
11234TIP3   OH233646   2.372   1.399   1.339
11234TIP3    H133647   2.280   1.390   1.315
11234TIP3    H233648   2.420   1.374   1.260
11235TIP3   OH233649   2.388   0.146   3.329
11235TIP3    H133650   2.448   0.101   3.389
11235TIP3    H233651   2.316   0.176   3.385
11236TIP3   OH233652   3.440   4.681   4.268
11236TIP3    H133653   3.463   4.608   4.210
11236TIP3    H233654   3.431   4.756   4.210
11237TIP3   OH233655   7.561   7.079   6.159
11237TIP3    H133656   7.647   7.109   6.188
11237TIP3    H233657   7.558   6.987   6.184
11238TIP3   OH233658   3.093   3.760   0.119
11238TIP3    H133659   3.026   3.701   0.085
11238TIP3    H233660   3.175   3.728   0.081
11239TIP3   OH233661   3.091   6.782   4.362
11239TIP3    H133662   2.998   6.791   4.340
11239TIP3    H233663   3.132   6.861   4.327
11240TIP3   OH233664   3.345   6.300   5.710
11240TIP3    H133665   3.367   6.353   5.633
11240TIP3    H233666   3.343   6.210   5.676
11241TIP3   OH233667   4.419   6.324   5.860
11241TIP3    H133668   4.391   6.265   5.790
11241TIP3    H233669   4.476   6.271   5.915
11242TIP3   OH233670   8.186   2.296   3.298
11242TIP3    H133671   8.163   2.264   3.210
11242TIP3    H233672   8.268   2.252   3.318
11243TIP3   OH233673   4.145   4.037   2.660
11243TIP3    H133674   4.083   3.969   2.636
11243TIP3    H233675   4.228   3.991   2.671
11244TIP3   OH233676   3.349   3.759   1.675
11244TIP3    H133677   3.405   3.836   1.663
11244TIP3    H233678   3.333   3.755   1.769
11245TIP3   OH233679   4.420   3.230   0.432
11245TIP3    H133680   4.395   3.321   0.414
11245TIP3    H233681   4.337   3.185   0.448
11246TIP3   OH233682   7.941   7.575   5.602
11246TIP3    H133683   8.016   7.519   5.624
11246TIP3    H233684   7.979   7.663   5.593
11247TIP3   OH233685   8.260   0.300   1.365
11247TIP3    H133686   8.355   0.315   1.372
11247TIP3    H233687   8.249   0.208   1.389
11248TIP3   OH233688   7.584   0.963   3.986
11248TIP3    H133689   7.555   1.046   3.946
11248TIP3    H233690   7.666   0.985   4.030
11249TIP3   OH233691   3.434   7.606   0.296
11249TIP3    H133692   3.445   7.654   0.214
11249TIP3    H233693   3.502   7.539   0.294
11250TIP3   OH233694   6.074   7.297   1.497
11250TIP3    H133695   6.121   7.351   1.560
11250TIP3    H233696   6.009   7.250   1.549
11251TIP3   OH233697   6.146   3.649   5.243
11251TIP3    H133698   6.241   3.662   5.245
11251TIP3    H233699   6.131   3.581   5.309
11252TIP3   OH233700   1.360   3.472   6.651
11252TIP3    H133701   1.403   3.390   6.627
11252TIP3    H233702   1.378   3.483   6.744
11253TIP3   OH233703   3.508   1.354   0.216
11253TIP3    H133704   3.523   1.386   0.305
11253TIP3    H233705   3.591   1.370   0.171
11254TIP3   OH233706   2.625   1.350   0.339
11254TIP3    H133707   2.635   1.338   0.244
11254TIP3    H233708   2.639   1.443   0.353
11255TIP3   OH233709   6.007   0.758   6.370
11255TIP3    H133710   6.065   0.718   6.305
11255TIP3    H233711   5.919   0.747   6.333
11256TIP3   OH233712   2.932   0.314   4.891
11256TIP3    H133713   2.852   0.272   4.922
11256TIP3    H233714   2.915   0.408   4.897
11257TIP3   OH233715   0.518   1.939   2.371
11257TIP3    H133716   0.431   1.968   2.399
11257TIP3    H233717   0.549   1.885   2.444
11258TIP3   OH233718   5.772   5.544   2.755
11258TIP3    H133719   5.713   5.563   2.681
11258TIP3    H233720   5.755   5.614   2.818
11259TIP3   OH233721   3.071   6.262   4.466
11259TIP3    H133722   3.110   6.341   4.429
11259TIP3    H233723   3.012   6.294   4.534
11260TIP3   OH233724   1.734   5.595   2.139
11260TIP3    H133725   1.786   5.525   2.101
11260TIP3    H233726   1.729   5.573   2.232
11261TIP3   OH233727   4.343   3.565   0.113
11261TIP3    H133728   4.317   3.554   0.204
11261TIP3    H233729   4.263   3.596   0.069
11262TIP3   OH233730   8.031   5.663   6.053
11262TIP3    H133731   7.987   5.662   6.138
11262TIP3    H233732   8.068   5.751   6.046
11263TIP3   OH233733   3.936   1.587   1.307
11263TIP3    H133734   3.911   1.647   1.376
11263TIP3    H233735   3.896   1.623   1.228
11264TIP3   OH233736   4.867   0.949   2.205
11264TIP3    H133737   4.876   0.855   2.218
11264TIP3    H233738   4.914   0.989   2.279
11265TIP3   OH233739   7.051   7.761   4.774
11265TIP3    H133740   6.957   7.747   4.766
11265TIP3    H233741   7.088   7.725   4.694
11266TIP3   OH233742   6.262   4.899   4.959
11266TIP3    H133743   6.182   4.952   4.959
11266TIP3    H233744   6.322   4.946   4.901
11267TIP3   OH233745   5.476   3.914   2.599
11267TIP3    H133746   5.432   3.956   2.525
11267TIP3    H233747   5.426   3.943   2.676
11268TIP3   OH233748   7.396   7.806   2.635
11268TIP3    H133749   7.334   7.734   2.623
11268TIP3    H233750   7.353   7.882   2.597
11269TIP3   OH233751   3.704   1.025   1.438
11269TIP3    H133752   3.653   0.958   1.482
11269TIP3    H233753   3.718   1.092   1.505
11270TIP3   OH233754   3.548   2.153   3.243
11270TIP3    H133755   3.621   2.100   3.211
11270TIP3    H233756   3.499   2.176   3.163
11271TIP3   OH233757   5.255   3.268   2.134
11271TIP3    H133758   5.287   3.264   2.044
11271TIP3    H233759   5.285   3.353   2.166
11272TIP3   OH233760   1.877   5.347   0.278
11272TIP3    H133761   1.919   5.433   0.289
11272TIP3    H233762   1.947   5.291   0.243
11273TIP3   OH233763   2.843   1.371   1.724
11273TIP3    H133764   2.886   1.451   1.756
11273TIP3    H233765   2.871   1.365   1.632
11274TIP3   OH233766   1.285   5.063   4.000
11274TIP3    H133767   1.272   5.139   3.943
11274TIP3    H233768   1.203   5.054   4.049
11275TIP3   OH233769   3.774   0.247   1.149
11275TIP3    H133770   3.714   0.255   1.075
11275TIP3    H233771   3.841   0.185   1.120
11276TIP3   OH233772   5.952   3.821   1.347
11276TIP3    H133773   5.896   3.748   1.322
11276TIP3    H233774   6.029   3.779   1.386
11277TIP3   OH233775   7.875   7.242   4.436
11277TIP3    H133776   7.942   7.302   4.468
11277TIP3    H233777   7.816   7.229   4.510
11278TIP3   OH233778   2.818   1.086   6.269
11278TIP3    H133779   2.748   1.063   6.331
11278TIP3    H233780   2.823   1.181   6.272
11279TIP3   OH233781   0.768   3.029   1.274
11279TIP3    H133782   0.831   3.094   1.241
11279TIP3    H233783   0.731   2.989   1.195
11280TIP3   OH233784   0.496   4.529   5.162
11280TIP3    H133785   0.538   4.599   5.111
11280TIP3    H233786   0.549   4.522   5.241
11281TIP3   OH233787   6.946   2.663   6.652
11281TIP3    H133788   6.968   2.597   6.718
11281TIP3    H233789   7.017   2.657   6.588
11282TIP3   OH233790   6.282   6.223   4.061
11282TIP3    H133791   6.316   6.248   4.147
11282TIP3    H233792   6.200   6.177   4.079
11283TIP3   OH233793   4.262   0.781   2.832
11283TIP3    H133794   4.198   0.835   2.879
11283TIP3    H233795   4.228   0.775   2.743
11284TIP3   OH233796   3.296   0.718   6.437
11284TIP3    H133797   3.207   0.715   6.471
11284TIP3    H233798   3.291   0.669   6.355
11285TIP3   OH233799   4.000   1.256   6.135
11285TIP3    H133800   3.950   1.332   6.164
11285TIP3    H233801   3.995   1.195   6.209
11286TIP3   OH233802   5.194   7.230   5.231
11286TIP3    H133803   5.267   7.287   5.257
11286TIP3    H233804   5.206   7.150   5.283
11287TIP3   OH233805   6.069   6.111   1.267
11287TIP3    H133806   6.076   6.099   1.361
11287TIP3    H233807   6.068   6.206   1.255
11288TIP3   OH233808   7.777   2.790   2.141
11288TIP3    H133809   7.739   2.861   2.090
11288TIP3    H233810   7.756   2.811   2.232
11289TIP3   OH233811   7.813   0.525   3.934
11289TIP3    H133812   7.799   0.458   3.867
11289TIP3    H233813   7.771   0.603   3.897
11290TIP3   OH233814   1.637   3.822   6.198
11290TIP3    H133815   1.650   3.737   6.156
11290TIP3    H233816   1.621   3.802   6.290
11291TIP3   OH233817   4.206   0.441   3.703
11291TIP3    H133818   4.233   0.531   3.686
11291TIP3    H233819   4.227   0.426   3.795
11292TIP3   OH233820   2.380   2.141   3.362
11292TIP3    H133821   2.386   2.202   3.289
11292TIP3    H233822   2.290   2.149   3.392
11293TIP3   OH233823   7.341   3.784   1.071
11293TIP3    H133824   7.343   3.737   0.988
11293TIP3    H233825   7.309   3.720   1.134
11294TIP3   OH233826   4.552   1.484   4.430
11294TIP3    H133827   4.631   1.507   4.479
11294TIP3    H233828   4.535   1.393   4.452
11295TIP3   OH233829   6.973   7.129   0.440
11295TIP3    H133830   7.035   7.112   0.370
11295TIP3    H233831   6.909   7.058   0.433
11296TIP3   OH233832   7.608   5.466   3.578
11296TIP3    H133833   7.629   5.402   3.509
11296TIP3    H233834   7.672   5.536   3.567
11297TIP3   OH233835   5.012   2.951   1.409
11297TIP3    H133836   4.968   2.909   1.335
11297TIP3    H233837   4.996   2.891   1.482
11298TIP3   OH233838   0.456   6.747   2.503
11298TIP3    H133839   0.459   6.808   2.577
11298TIP3    H233840   0.548   6.729   2.484
11299TIP3   OH233841   0.247   4.281   3.803
11299TIP3    H133842   0.262   4.359   3.750
11299TIP3    H233843   0.320   4.281   3.866
11300TIP3   OH233844   5.861   7.185   1.615
11300TIP3    H133845   5.871   7.170   1.709
11300TIP3    H233846   5.789   7.247   1.608
11301TIP3   OH233847   0.279   6.319   4.749
11301TIP3    H133848   0.369   6.324   4.783
11301TIP3    H233849   0.224   6.343   4.823
11302TIP3   OH233850   7.892   4.940   2.707
11302TIP3    H133851   7.898   5.023   2.754
11302TIP3    H233852   7.836   4.959   2.632
11303TIP3   OH233853   6.105   4.907   4.157
11303TIP3    H133854   6.155   4.826   4.162
11303TIP3    H233855   6.075   4.923   4.247
11304TIP3   OH233856   0.931   1.800   2.381
11304TIP3    H133857   0.993   1.849   2.327
11304TIP3    H233858   0.982   1.775   2.458
11305TIP3   OH233859   6.108   1.825   4.657
11305TIP3    H133860   6.093   1.870   4.740
11305TIP3    H233861   6.074   1.884   4.590
11306TIP3   OH233862   1.789   4.642   6.347
11306TIP3    H133863   1.811   4.625   6.439
11306TIP3    H233864   1.786   4.737   6.341
11307TIP3   OH233865   7.320   6.229   1.316
11307TIP3    H133866   7.379   6.302   1.334
11307TIP3    H233867   7.375   6.151   1.325
11308TIP3   OH233868   3.793   1.878   4.779
11308TIP3    H133869   3.839   1.910   4.857
11308TIP3    H233870   3.832   1.927   4.707
11309TIP3   OH233871   7.883   4.006   1.793
11309TIP3    H133872   7.809   4.065   1.778
11309TIP3    H233873   7.947   4.059   1.841
11310TIP3   OH233874   1.110   4.915   5.102
11310TIP3    H133875   1.160   4.902   5.183
11310TIP3    H233876   1.080   4.828   5.078
11311TIP3   OH233877   2.331   5.183   4.671
11311TIP3    H133878   2.360   5.195   4.581
11311TIP3    H233879   2.393   5.234   4.723
11312TIP3   OH233880   3.014   3.140   0.841
11312TIP3    H133881   3.053   3.131   0.754
11312TIP3    H233882   3.018   3.052   0.878
11313TIP3   OH233883   1.538   6.388   1.957
11313TIP3    H133884   1.529   6.419   2.047
11313TIP3    H233885   1.558   6.295   1.966
11314TIP3   OH233886   6.379   7.509   1.737
11314TIP3    H133887   6.285   7.516   1.721
11314TIP3    H233888   6.414   7.595   1.713
11315TIP3   OH233889   0.763   7.747   6.626
11315TIP3    H133890   0.833   7.760   6.562
11315TIP3    H233891   0.796   7.680   6.686
11316TIP3   OH233892   4.681   0.147   3.960
11316TIP3    H133893   4.738   0.215   3.924
11316TIP3    H233894   4.645   0.103   3.884
11317TIP3   OH233895   1.046   3.320   1.535
11317TIP3    H133896   1.055   3.328   1.441
11317TIP3    H233897   0.980   3.384   1.560
11318TIP3   OH233898   2.021   7.405   2.973
11318TIP3    H133899   2.054   7.402   3.063
11318TIP3    H233900   1.987   7.317   2.957
11319TIP3   OH233901   2.672   2.598   6.558
11319TIP3    H133902   2.666   2.684   6.517
11319TIP3    H233903   2.668   2.536   6.485
11320TIP3   OH233904   3.400   0.429   6.405
11320TIP3    H133905   3.338   0.371   6.448
11320TIP3    H233906   3.349   0.473   6.337
11321TIP3   OH233907   1.486   7.665   0.118
11321TIP3    H133908   1.501   7.703   0.031
11321TIP3    H233909   1.493   7.571   0.104
11322TIP3   OH233910   4.385   2.577   2.357
11322TIP3    H133911   4.307   2.575   2.302
11322TIP3    H233912   4.358   2.539   2.440
11323TIP3   OH233913   5.167   0.181   0.830
11323TIP3    H133914   5.189   0.254   0.888
11323TIP3    H233915   5.239   0.179   0.767
11324TIP3   OH233916   1.358   2.378   0.861
11324TIP3    H133917   1.415   2.304   0.880
11324TIP3    H233918   1.269   2.342   0.868
11325TIP3   OH233919   3.992   4.235   2.779
11325TIP3    H133920   3.898   4.220   2.790
11325TIP3    H233921   4.023   4.159   2.728
11326TIP3   OH233922   6.879   2.482   1.959
11326TIP3    H133923   6.851   2.501   2.049
11326TIP3    H233924   6.862   2.563   1.911
11327TIP3   OH233925   6.139   1.821   3.770
11327TIP3    H133926   6.182   1.761   3.831
11327TIP3    H233927   6.070   1.768   3.730
11328TIP3   OH233928   2.514   4.335   1.805
11328TIP3    H133929   2.503   4.249   1.845
11328TIP3    H233930   2.606   4.337   1.777
11329TIP3   OH233931   8.179   4.839   6.572
11329TIP3    H133932   8.271   4.825   6.548
11329TIP3    H233933   8.140   4.880   6.494
11330TIP3   OH233934   5.613   0.869   2.649
11330TIP3    H133935   5.607   0.871   2.553
11330TIP3    H233936   5.622   0.776   2.670
11331TIP3   OH233937   0.382   7.647   4.223
11331TIP3    H133938   0.373   7.696   4.142
11331TIP3    H233939   0.475   7.656   4.246
11332TIP3   OH233940   5.243   1.667   5.137
11332TIP3    H133941   5.161   1.704   5.171
11332TIP3    H233942   5.300   1.660   5.214
11333TIP3   OH233943   0.338   7.642   0.174
11333TIP3    H133944   0.252   7.659   0.135
11333TIP3    H233945   0.346   7.708   0.243
11334TIP3   OH233946   7.110   6.567   2.176
11334TIP3    H133947   7.039   6.519   2.135
11334TIP3    H233948   7.133   6.515   2.253
11335TIP3   OH233949   0.311   4.374   2.528
11335TIP3    H133950   0.307   4.357   2.622
11335TIP3    H233951   0.405   4.372   2.508
11336TIP3   OH233952   2.790   7.633   5.876
11336TIP3    H133953   2.751   7.618   5.789
11336TIP3    H233954   2.726   7.687   5.922
11337TIP3   OH233955   5.994   0.415   3.065
11337TIP3    H133956   5.916   0.470   3.062
11337TIP3    H233957   5.983   0.362   3.144
11338TIP3   OH233958   5.119   3.524   0.404
11338TIP3    H133959   5.154   3.452   0.457
11338TIP3    H233960   5.026   3.504   0.395
11339TIP3   OH233961   1.046   2.894   3.940
11339TIP3    H133962   1.014   2.908   3.851
11339TIP3    H233963   1.013   2.969   3.989
11340TIP3   OH233964   7.424   1.543   2.894
11340TIP3    H133965   7.343   1.554   2.844
11340TIP3    H233966   7.490   1.590   2.843
11341TIP3   OH233967   1.975   5.994   3.346
11341TIP3    H133968   1.983   6.051   3.270
11341TIP3    H233969   1.889   6.014   3.382
11342TIP3   OH233970   3.441   6.440   1.094
11342TIP3    H133971   3.357   6.454   1.137
11342TIP3    H233972   3.467   6.527   1.062
11343TIP3   OH233973   5.735   4.983   4.684
11343TIP3    H133974   5.773   5.068   4.707
11343TIP3    H233975   5.660   5.006   4.628
11344TIP3   OH233976   4.421   7.144   6.407
11344TIP3    H133977   4.402   7.051   6.396
11344TIP3    H233978   4.383   7.166   6.491
11345TIP3   OH233979   0.193   1.963   3.444
11345TIP3    H133980   0.217   1.976   3.535
11345TIP3    H233981   0.175   1.870   3.436
11346TIP3   OH233982   6.793   5.494   5.900
11346TIP3    H133983   6.867   5.442   5.932
11346TIP3    H233984   6.825   5.535   5.820
11347TIP3   OH233985   1.050   4.136   2.985
11347TIP3    H133986   1.074   4.057   3.033
11347TIP3    H233987   1.119   4.200   3.006
11348TIP3   OH233988   8.092   3.215   1.900
11348TIP3    H133989   8.082   3.239   1.808
11348TIP3    H233990   8.171   3.260   1.928
11349TIP3   OH233991   0.532   0.640   1.337
11349TIP3    H133992   0.552   0.658   1.429
11349TIP3    H233993   0.463   0.702   1.314
11350TIP3   OH233994   4.455   0.677   6.708
11350TIP3    H133995   4.429   0.585   6.713
11350TIP3    H233996   4.505   0.684   6.627
11351TIP3   OH233997   1.731   1.983   2.961
11351TIP3    H133998   1.702   1.992   2.870
11351TIP3    H233999   1.663   2.027   3.012
11352TIP3   OH234000   2.779   3.065   4.827
11352TIP3    H134001   2.735   2.991   4.868
11352TIP3    H234002   2.850   3.026   4.776
11353TIP3   OH234003   2.133   1.362   3.115
11353TIP3    H134004   2.054   1.401   3.153
11353TIP3    H234005   2.156   1.291   3.175
11354TIP3   OH234006   2.975   2.492   2.499
11354TIP3    H134007   2.937   2.404   2.509
11354TIP3    H234008   3.053   2.478   2.445
11355TIP3   OH234009   3.113   0.730   4.136
11355TIP3    H134010   3.118   0.811   4.085
11355TIP3    H234011   3.112   0.661   4.070
11356TIP3   OH234012   2.705   4.656   5.487
11356TIP3    H134013   2.708   4.660   5.391
11356TIP3    H234014   2.690   4.563   5.507
11357TIP3   OH234015   6.512   0.821   0.632
11357TIP3    H134016   6.592   0.814   0.685
11357TIP3    H234017   6.531   0.891   0.569
11358TIP3   OH234018   6.823   6.246   4.650
11358TIP3    H134019   6.816   6.161   4.606
11358TIP3    H234020   6.873   6.226   4.730
11359TIP3   OH234021   5.149   3.697   1.814
11359TIP3    H134022   5.217   3.684   1.881
11359TIP3    H234023   5.181   3.648   1.738
11360TIP3   OH234024   6.336   7.711   0.542
11360TIP3    H134025   6.361   7.745   0.457
11360TIP3    H234026   6.399   7.749   0.603
11361TIP3   OH234027   1.661   5.370   5.686
11361TIP3    H134028   1.748   5.330   5.688
11361TIP3    H234029   1.672   5.449   5.633
11362TIP3   OH234030   3.875   4.361   0.421
11362TIP3    H134031   3.824   4.280   0.424
11362TIP3    H234032   3.944   4.344   0.357
11363TIP3   OH234033   6.592   5.403   6.399
11363TIP3    H134034   6.498   5.417   6.405
11363TIP3    H234035   6.627   5.440   6.480
11364TIP3   OH234036   1.317   6.537   6.166
11364TIP3    H134037   1.295   6.630   6.164
11364TIP3    H234038   1.333   6.514   6.074
11365TIP3   OH234039   6.324   1.583   0.056
11365TIP3    H134040   6.255   1.648   0.069
11365TIP3    H234041   6.402   1.623   0.093
11366TIP3   OH234042   4.372   1.984   0.472
11366TIP3    H134043   4.443   1.965   0.410
11366TIP3    H234044   4.415   2.031   0.544
11367TIP3   OH234045   4.460   0.369   4.709
11367TIP3    H134046   4.525   0.429   4.671
11367TIP3    H234047   4.398   0.425   4.755
11368TIP3   OH234048   1.764   0.461   2.766
11368TIP3    H134049   1.784   0.462   2.672
11368TIP3    H234050   1.780   0.550   2.795
11369TIP3   OH234051   3.743   5.429   3.299
11369TIP3    H134052   3.821   5.383   3.268
11369TIP3    H234053   3.776   5.486   3.370
11370TIP3   OH234054   7.638   3.462   5.875
11370TIP3    H134055   7.605   3.398   5.812
11370TIP3    H234056   7.570   3.468   5.942
11371TIP3   OH234057   1.445   2.910   5.106
11371TIP3    H134058   1.446   2.823   5.066
11371TIP3    H234059   1.515   2.907   5.171
11372TIP3   OH234060   1.422   3.215   1.255
11372TIP3    H134061   1.498   3.213   1.197
11372TIP3    H234062   1.452   3.267   1.331
11373TIP3   OH234063   3.715   7.226   4.625
11373TIP3    H134064   3.679   7.230   4.536
11373TIP3    H234065   3.727   7.318   4.650
11374TIP3   OH234066   6.652   5.146   2.558
11374TIP3    H134067   6.718   5.086   2.593
11374TIP3    H234068   6.571   5.123   2.604
11375TIP3   OH234069   4.202   1.586   1.525
11375TIP3    H134070   4.218   1.596   1.619
11375TIP3    H234071   4.170   1.497   1.515
11376TIP3   OH234072   1.261   2.736   1.692
11376TIP3    H134073   1.250   2.803   1.759
11376TIP3    H234074   1.199   2.667   1.717
11377TIP3   OH234075   2.489   1.575   4.530
11377TIP3    H134076   2.561   1.572   4.466
11377TIP3    H234077   2.505   1.656   4.579
11378TIP3   OH234078   2.234   0.038   3.063
11378TIP3    H134079   2.238  -0.008   3.147
11378TIP3    H234080   2.147   0.018   3.029
11379TIP3   OH234081   0.477   2.226   1.865
11379TIP3    H134082   0.417   2.157   1.893
11379TIP3    H234083   0.513   2.194   1.783
11380TIP3   OH234084   6.959   2.755   2.352
11380TIP3    H134085   6.919   2.815   2.415
11380TIP3    H234086   7.003   2.812   2.289
11381TIP3   OH234087   7.843   4.573   3.407
11381TIP3    H134088   7.813   4.642   3.347
11381TIP3    H234089   7.774   4.569   3.474
11382TIP3   OH234090   2.549   0.929   1.889
11382TIP3    H134091   2.501   0.954   1.968
11382TIP3    H234092   2.512   0.984   1.820
11383TIP3   OH234093   3.667   4.216   6.168
11383TIP3    H134094   3.576   4.209   6.196
11383TIP3    H234095   3.673   4.160   6.090
11384TIP3   OH234096   1.474   5.987   4.005
11384TIP3    H134097   1.567   5.981   4.027
11384TIP3    H234098   1.472   5.982   3.909
11385TIP3   OH234099   6.900   7.047   3.541
11385TIP3    H134100   6.872   6.981   3.477
11385TIP3    H234101   6.983   7.079   3.506
11386TIP3   OH234102   3.018   5.614   0.451
11386TIP3    H134103   3.033   5.668   0.373
11386TIP3    H234104   2.939   5.651   0.491
11387TIP3   OH234105   7.000   5.886   0.890
11387TIP3    H134106   7.089   5.901   0.857
11387TIP3    H234107   7.010   5.882   0.985
11388TIP3   OH234108   2.249   7.718   3.396
11388TIP3    H134109   2.161   7.691   3.368
11388TIP3    H234110   2.281   7.773   3.324
11389TIP3   OH234111   5.485   6.136   3.939
11389TIP3    H134112   5.486   6.041   3.940
11389TIP3    H234113   5.445   6.161   4.023
11390TIP3   OH234114   0.303   2.845   4.521
11390TIP3    H134115   0.243   2.856   4.447
11390TIP3    H234116   0.284   2.757   4.555
11391TIP3   OH234117   4.886   7.757   5.886
11391TIP3    H134118   4.982   7.761   5.890
11391TIP3    H234119   4.863   7.683   5.943
11392TIP3   OH234120   6.549   5.152   1.198
11392TIP3    H134121   6.573   5.239   1.228
11392TIP3    H234122   6.586   5.093   1.264
11393TIP3   OH234123   5.860   3.387   3.099
11393TIP3    H134124   5.796   3.361   3.034
11393TIP3    H234125   5.945   3.376   3.055
11394TIP3   OH234126   0.323   3.235   3.142
11394TIP3    H134127   0.352   3.175   3.073
11394TIP3    H234128   0.313   3.179   3.219
11395TIP3   OH234129   1.635   6.263   3.224
11395TIP3    H134130   1.665   6.329   3.286
11395TIP3    H234131   1.567   6.215   3.271
11396TIP3   OH234132   3.541   4.116   6.578
11396TIP3    H134133   3.610   4.169   6.620
11396TIP3    H234134   3.565   4.026   6.599
11397TIP3   OH234135   5.389   2.949   0.622
11397TIP3    H134136   5.382   2.906   0.707
11397TIP3    H234137   5.449   3.022   0.637
11398TIP3   OH234138   7.752   7.075   0.124
11398TIP3    H134139   7.810   7.098   0.196
11398TIP3    H234140   7.774   7.136   0.054
11399TIP3   OH234141   3.784   6.786   6.063
11399TIP3    H134142   3.873   6.778   6.094
11399TIP3    H234143   3.738   6.836   6.131
11400TIP3   OH234144   1.763   6.056   3.522
11400TIP3    H134145   1.721   6.134   3.557
11400TIP3    H234146   1.691   5.995   3.506
11401TIP3   OH234147   0.481   3.776   3.824
11401TIP3    H134148   0.498   3.745   3.913
11401TIP3    H234149   0.511   3.866   3.823
11402TIP3   OH234150   6.494   7.168   4.292
11402TIP3    H134151   6.431   7.240   4.293
11402TIP3    H234152   6.507   7.149   4.199
11403TIP3   OH234153   4.528   5.165   4.018
11403TIP3    H134154   4.524   5.196   3.928
11403TIP3    H234155   4.525   5.070   4.010
11404TIP3   OH234156   7.067   1.126   6.285
11404TIP3    H134157   7.057   1.046   6.336
11404TIP3    H234158   7.085   1.194   6.350
11405TIP3   OH234159   7.336   5.340   4.236
11405TIP3    H134160   7.364   5.391   4.160
11405TIP3    H234161   7.328   5.250   4.204
11406TIP3   OH234162   0.245   1.264   2.096
11406TIP3    H134163   0.331   1.224   2.086
11406TIP3    H234164   0.254   1.323   2.171
11407TIP3   OH234165   6.607   7.542   2.846
11407TIP3    H134166   6.643   7.453   2.840
11407TIP3    H234167   6.565   7.545   2.932
11408TIP3   OH234168   6.169   6.664   2.359
11408TIP3    H134169   6.089   6.617   2.378
11408TIP3    H234170   6.141   6.754   2.340
11409TIP3   OH234171   8.130   6.922   1.388
11409TIP3    H134172   8.196   6.863   1.351
11409TIP3    H234173   8.179   6.978   1.448
11410TIP3   OH234174   2.374   4.183   4.376
11410TIP3    H134175   2.290   4.229   4.378
11410TIP3    H234176   2.381   4.141   4.461
11411TIP3   OH234177   8.114   1.155   2.924
11411TIP3    H134178   8.142   1.237   2.885
11411TIP3    H234179   8.177   1.090   2.893
11412TIP3   OH234180   3.476   5.705   2.294
11412TIP3    H134181   3.520   5.718   2.210
11412TIP3    H234182   3.442   5.791   2.316
11413TIP3   OH234183   2.687   0.056   1.415
11413TIP3    H134184   2.735   0.071   1.496
11413TIP3    H234185   2.612   0.115   1.420
11414TIP3   OH234186   4.846   6.887   0.098
11414TIP3    H134187   4.903   6.863   0.025
11414TIP3    H234188   4.883   6.970   0.130
11415TIP3   OH234189   3.703   0.206   1.428
11415TIP3    H134190   3.634   0.217   1.363
11415TIP3    H234191   3.784   0.204   1.377
11416TIP3   OH234192   6.367   3.588   0.936
11416TIP3    H134193   6.344   3.626   0.851
11416TIP3    H234194   6.450   3.630   0.960
11417TIP3   OH234195   6.717   3.256   4.986
11417TIP3    H134196   6.626   3.263   4.956
11417TIP3    H234197   6.720   3.172   5.033
11418TIP3   OH234198   5.318   6.930   3.995
11418TIP3    H134199   5.405   6.892   3.980
11418TIP3    H234200   5.270   6.913   3.914
11419TIP3   OH234201   7.049   6.771   5.811
11419TIP3    H134202   7.075   6.863   5.817
11419TIP3    H234203   6.953   6.773   5.809
11420TIP3   OH234204   1.214   6.172   0.216
11420TIP3    H134205   1.290   6.145   0.165
11420TIP3    H234206   1.158   6.218   0.153
11421TIP3   OH234207   4.208   3.689   4.847
11421TIP3    H134208   4.236   3.767   4.895
11421TIP3    H234209   4.161   3.722   4.771
11422TIP3   OH234210   5.163   1.031   0.786
11422TIP3    H134211   5.096   1.008   0.851
11422TIP3    H234212   5.115   1.080   0.720
11423TIP3   OH234213   5.955   6.439   6.197
11423TIP3    H134214   5.905   6.357   6.194
11423TIP3    H234215   5.888   6.507   6.199
11424TIP3   OH234216   5.289   4.452   0.668
11424TIP3    H134217   5.257   4.372   0.626
11424TIP3    H234218   5.232   4.521   0.635
11425TIP3   OH234219   5.749   2.268   5.733
11425TIP3    H134220   5.696   2.215   5.673
11425TIP3    H234221   5.774   2.344   5.681
11426TIP3   OH234222   4.753   1.878   1.844
11426TIP3    H134223   4.675   1.932   1.836
11426TIP3    H234224   4.823   1.930   1.804
11427TIP3   OH234225   1.616   4.810   5.901
11427TIP3    H134226   1.624   4.721   5.936
11427TIP3    H234227   1.705   4.844   5.901
11428TIP3   OH234228   1.164   0.439   1.312
11428TIP3    H134229   1.164   0.344   1.323
11428TIP3    H234230   1.228   0.454   1.242
11429TIP3   OH234231   0.703   0.889   0.795
11429TIP3    H134232   0.757   0.942   0.737
11429TIP3    H234233   0.741   0.801   0.789
11430TIP3   OH234234   6.293   4.627   1.457
11430TIP3    H134235   6.250   4.541   1.453
11430TIP3    H234236   6.247   4.680   1.393
11431TIP3   OH234237   0.230   6.768   6.578
11431TIP3    H134238   0.213   6.681   6.542
11431TIP3    H234239   0.282   6.813   6.512
11432TIP3   OH234240   1.981   0.334   3.082
11432TIP3    H134241   2.029   0.416   3.074
11432TIP3    H234242   1.994   0.308   3.173
11433TIP3   OH234243   7.971   6.123   1.894
11433TIP3    H134244   7.908   6.194   1.884
11433TIP3    H234245   7.924   6.044   1.866
11434TIP3   OH234246   6.440   4.038   3.415
11434TIP3    H134247   6.503   4.002   3.478
11434TIP3    H234248   6.355   4.012   3.449
11435TIP3   OH234249   3.729   0.206   6.238
11435TIP3    H134250   3.705   0.121   6.199
11435TIP3    H234251   3.701   0.270   6.173
11436TIP3   OH234252   7.074   2.698   0.959
11436TIP3    H134253   6.984   2.671   0.940
11436TIP3    H234254   7.079   2.788   0.928
11437TIP3   OH234255   1.378   5.296   1.633
11437TIP3    H134256   1.298   5.278   1.583
11437TIP3    H234257   1.438   5.226   1.606
11438TIP3   OH234258   4.053   5.314   6.444
11438TIP3    H134259   4.031   5.380   6.510
11438TIP3    H234260   3.969   5.288   6.406
11439TIP3   OH234261   1.242   1.749   6.232
11439TIP3    H134262   1.258   1.692   6.307
11439TIP3    H234263   1.179   1.814   6.263
11440TIP3   OH234264   5.764   4.179   5.456
11440TIP3    H134265   5.681   4.223   5.435
11440TIP3    H234266   5.738   4.106   5.512
11441TIP3   OH234267   1.279   1.758   6.796
11441TIP3    H134268   1.212   1.696   6.766
11441TIP3    H234269   1.298   1.810   6.718
11442TIP3   OH234270   6.766   3.077   4.621
11442TIP3    H134271   6.860   3.060   4.635
11442TIP3    H234272   6.748   3.041   4.534
11443TIP3   OH234273   7.459   5.353   5.618
11443TIP3    H134274   7.472   5.428   5.677
11443TIP3    H234275   7.529   5.292   5.641
11444TIP3   OH234276   1.778   7.560   4.110
11444TIP3    H134277   1.735   7.496   4.053
11444TIP3    H234278   1.810   7.508   4.185
11445TIP3   OH234279   3.442   7.577   5.804
11445TIP3    H134280   3.488   7.647   5.851
11445TIP3    H234281   3.354   7.576   5.843
11446TIP3   OH234282   6.815   1.406   0.197
11446TIP3    H134283   6.825   1.501   0.196
11446TIP3    H234284   6.902   1.374   0.221
11447TIP3   OH234285   0.188   3.993   4.938
11447TIP3    H134286   0.119   3.961   4.996
11447TIP3    H234287   0.255   3.925   4.942
11448TIP3   OH234288   0.542   5.203   5.672
11448TIP3    H134289   0.450   5.204   5.647
11448TIP3    H234290   0.552   5.280   5.728
11449TIP3   OH234291   2.239   0.207   3.599
11449TIP3    H134292   2.266   0.177   3.686
11449TIP3    H234293   2.201   0.293   3.614
11450TIP3   OH234294   1.488   4.432   0.119
11450TIP3    H134295   1.463   4.460   0.207
11450TIP3    H234296   1.576   4.468   0.107
11451TIP3   OH234297   1.502   3.350   4.720
11451TIP3    H134298   1.598   3.357   4.714
11451TIP3    H234299   1.487   3.282   4.786
11452TIP3   OH234300   4.880   6.363   3.810
11452TIP3    H134301   4.959   6.321   3.777
11452TIP3    H234302   4.896   6.371   3.905
11453TIP3   OH234303   1.159   0.612   4.270
11453TIP3    H134304   1.245   0.600   4.232
11453TIP3    H234305   1.101   0.557   4.217
11454TIP3   OH234306   7.932   0.162   3.211
11454TIP3    H134307   7.855   0.159   3.154
11454TIP3    H234308   7.997   0.210   3.159
11455TIP3   OH234309   7.521   1.790   3.949
11455TIP3    H134310   7.610   1.805   3.982
11455TIP3    H234311   7.492   1.710   3.994
11456TIP3   OH234312   6.504   7.698   1.224
11456TIP3    H134313   6.438   7.717   1.291
11456TIP3    H234314   6.467   7.625   1.175
11457TIP3   OH234315   3.738   6.661   0.919
11457TIP3    H134316   3.815   6.691   0.871
11457TIP3    H234317   3.709   6.583   0.872
11458TIP3   OH234318   6.798   5.509   4.523
11458TIP3    H134319   6.869   5.446   4.509
11458TIP3    H234320   6.842   5.594   4.526
11459TIP3   OH234321   3.471   3.816   0.120
11459TIP3    H134322   3.485   3.752   0.190
11459TIP3    H234323   3.504   3.773   0.041
11460TIP3   OH234324   3.763   4.804   0.635
11460TIP3    H134325   3.684   4.848   0.669
11460TIP3    H234326   3.765   4.827   0.542
11461TIP3   OH234327   5.175   7.753   5.520
11461TIP3    H134328   5.099   7.810   5.506
11461TIP3    H234329   5.141   7.683   5.576
11462TIP3   OH234330   8.087   1.703   6.184
11462TIP3    H134331   8.008   1.735   6.227
11462TIP3    H234332   8.081   1.737   6.095
11463TIP3   OH234333   1.640   6.393   5.820
11463TIP3    H134334   1.647   6.318   5.761
11463TIP3    H234335   1.622   6.467   5.763
11464TIP3   OH234336   7.549   2.713   6.676
11464TIP3    H134337   7.618   2.730   6.611
11464TIP3    H234338   7.489   2.653   6.632
11465TIP3   OH234339   5.785   2.998   0.328
11465TIP3    H134340   5.706   2.959   0.367
11465TIP3    H234341   5.844   2.924   0.315
11466TIP3   OH234342   7.683   3.005   6.058
11466TIP3    H134343   7.619   3.020   5.989
11466TIP3    H234344   7.676   3.083   6.114
11467TIP3   OH234345   5.588   7.583   2.129
11467TIP3    H134346   5.660   7.646   2.134
11467TIP3    H234347   5.581   7.564   2.035
11468TIP3   OH234348   1.991   6.123   3.899
11468TIP3    H134349   2.045   6.060   3.851
11468TIP3    H234350   1.951   6.177   3.831
11469TIP3   OH234351   1.853   1.058   3.415
11469TIP3    H134352   1.922   0.998   3.441
11469TIP3    H234353   1.819   1.023   3.333
11470TIP3   OH234354   5.480   6.010   4.838
11470TIP3    H134355   5.401   6.021   4.785
11470TIP3    H234356   5.524   6.095   4.831
11471TIP3   OH234357   0.803   2.011   5.201
11471TIP3    H134358   0.768   1.986   5.116
11471TIP3    H234359   0.727   2.047   5.248
11472TIP3   OH234360   3.830   3.627   1.256
11472TIP3    H134361   3.864   3.638   1.345
11472TIP3    H234362   3.876   3.551   1.222
11473TIP3   OH234363   7.378   6.816   1.405
11473TIP3    H134364   7.403   6.853   1.490
11473TIP3    H234365   7.395   6.886   1.342
11474TIP3   OH234366   8.069   4.029   5.011
11474TIP3    H134367   8.091   4.015   4.918
11474TIP3    H234368   8.138   3.983   5.059
11475TIP3   OH234369   2.063   1.340   2.716
11475TIP3    H134370   1.978   1.321   2.756
11475TIP3    H234371   2.042   1.362   2.625
11476TIP3   OH234372   0.774   5.726   1.816
11476TIP3    H134373   0.811   5.777   1.888
11476TIP3    H234374   0.693   5.772   1.793
11477TIP3   OH234375   3.994   6.651   3.006
11477TIP3    H134376   4.047   6.672   3.083
11477TIP3    H234377   3.904   6.662   3.036
11478TIP3   OH234378   1.593   5.140   2.494
11478TIP3    H134379   1.577   5.096   2.411
11478TIP3    H234380   1.551   5.083   2.559
11479TIP3   OH234381   1.554   1.278   2.477
11479TIP3    H134382   1.538   1.352   2.419
11479TIP3    H234383   1.632   1.303   2.527
11480TIP3   OH234384   7.505   6.602   2.601
11480TIP3    H134385   7.558   6.678   2.624
11480TIP3    H234386   7.457   6.630   2.523
11481TIP3   OH234387   3.507   6.419   2.895
11481TIP3    H134388   3.523   6.326   2.877
11481TIP3    H234389   3.512   6.461   2.809
11482TIP3   OH234390   3.418   0.167   6.694
11482TIP3    H134391   3.342   0.181   6.637
11482TIP3    H234392   3.451   0.081   6.668
11483TIP3   OH234393   4.462   1.771   2.954
11483TIP3    H134394   4.462   1.838   2.885
11483TIP3    H234395   4.422   1.815   3.029
11484TIP3   OH234396   2.929   4.028   3.836
11484TIP3    H134397   2.907   3.942   3.873
11484TIP3    H234398   2.969   4.007   3.751
11485TIP3   OH234399   0.057   7.546   2.601
11485TIP3    H134400   0.072   7.572   2.510
11485TIP3    H234401   0.089   7.620   2.653
11486TIP3   OH234402   1.141   7.363   4.010
11486TIP3    H134403   1.175   7.301   3.945
11486TIP3    H234404   1.207   7.362   4.080
11487TIP3   OH234405   7.609   0.881   4.736
11487TIP3    H134406   7.576   0.800   4.774
11487TIP3    H234407   7.698   0.890   4.772
11488TIP3   OH234408   4.180   0.856   5.012
11488TIP3    H134409   4.179   0.946   5.045
11488TIP3    H234410   4.273   0.837   4.998
11489TIP3   OH234411   1.865   2.465   3.293
11489TIP3    H134412   1.921   2.402   3.248
11489TIP3    H234413   1.781   2.422   3.301
11490TIP3   OH234414   5.219   6.317   3.444
11490TIP3    H134415   5.226   6.331   3.538
11490TIP3    H234416   5.254   6.397   3.405
11491TIP3   OH234417   4.275   2.843   2.306
11491TIP3    H134418   4.297   2.833   2.399
11491TIP3    H234419   4.319   2.770   2.263
11492TIP3   OH234420   5.934   2.349   3.921
11492TIP3    H134421   5.892   2.326   3.838
11492TIP3    H234422   5.884   2.424   3.953
11493TIP3   OH234423   0.187   2.034   1.473
11493TIP3    H134424   0.110   2.033   1.530
11493TIP3    H234425   0.168   1.969   1.406
11494TIP3   OH234426   3.416   6.466   0.288
11494TIP3    H134427   3.338   6.483   0.236
11494TIP3    H234428   3.431   6.547   0.337
11495TIP3   OH234429   0.873   0.445   5.580
11495TIP3    H134430   0.948   0.502   5.561
11495TIP3    H234431   0.806   0.471   5.517
11496TIP3   OH234432   2.000   3.246   1.689
11496TIP3    H134433   2.023   3.338   1.704
11496TIP3    H234434   2.074   3.197   1.725
11497TIP3   OH234435   2.973   2.502   5.966
11497TIP3    H134436   3.048   2.557   5.987
11497TIP3    H234437   2.899   2.562   5.964
11498TIP3   OH234438   1.786   4.138   4.963
11498TIP3    H134439   1.772   4.107   4.873
11498TIP3    H234440   1.804   4.058   5.013
11499TIP3   OH234441   3.523   1.505   1.877
11499TIP3    H134442   3.605   1.458   1.882
11499TIP3    H234443   3.496   1.519   1.968
11500TIP3   OH234444   2.067   7.037   1.608
11500TIP3    H134445   2.020   7.085   1.676
11500TIP3    H234446   2.145   7.004   1.652
11501TIP3   OH234447   4.318   4.002   1.098
11501TIP3    H134448   4.324   3.963   1.011
11501TIP3    H234449   4.296   4.094   1.082
11502TIP3   OH234450   8.116   7.847   3.488
11502TIP3    H134451   8.183   7.846   3.556
11502TIP3    H234452   8.108   7.756   3.461
11503TIP3   OH234453   0.347   1.971   5.554
11503TIP3    H134454   0.411   1.946   5.620
11503TIP3    H234455   0.286   2.030   5.600
11504TIP3   OH234456   3.142   5.547   6.494
11504TIP3    H134457   3.084   5.487   6.540
11504TIP3    H234458   3.222   5.497   6.479
11505TIP3   OH234459   0.478   7.008   2.092
11505TIP3    H134460   0.461   7.101   2.103
11505TIP3    H234461   0.417   6.965   2.151
11506TIP3   OH234462   6.131   2.582   3.245
11506TIP3    H134463   6.119   2.676   3.260
11506TIP3    H234464   6.197   2.556   3.310
11507TIP3   OH234465   4.762   6.210   1.599
11507TIP3    H134466   4.741   6.228   1.508
11507TIP3    H234467   4.792   6.119   1.600
11508TIP3   OH234468   2.845   7.508   0.423
11508TIP3    H134469   2.791   7.518   0.502
11508TIP3    H234470   2.788   7.538   0.352
11509TIP3   OH234471   7.678   5.134   5.634
11509TIP3    H134472   7.741   5.169   5.572
11509TIP3    H234473   7.688   5.039   5.628
11510TIP3   OH234474   5.539   1.850   1.063
11510TIP3    H134475   5.617   1.803   1.092
11510TIP3    H234476   5.520   1.912   1.134
11511TIP3   OH234477   3.038   6.265   2.211
11511TIP3    H134478   3.091   6.304   2.281
11511TIP3    H234479   2.991   6.338   2.172
11512TIP3   OH234480   7.116   0.113   3.879
11512TIP3    H134481   7.042   0.097   3.820
11512TIP3    H234482   7.076   0.136   3.962
11513TIP3   OH234483   4.966   2.514   0.761
11513TIP3    H134484   5.028   2.529   0.832
11513TIP3    H234485   4.985   2.424   0.731
11514TIP3   OH234486   3.785   0.587   6.696
11514TIP3    H134487   3.848   0.516   6.711
11514TIP3    H234488   3.728   0.554   6.626
11515TIP3   OH234489   2.085   7.123   1.210
11515TIP3    H134490   2.007   7.069   1.200
11515TIP3    H234491   2.087   7.177   1.131
11516TIP3   OH234492   1.740   6.611   2.503
11516TIP3    H134493   1.732   6.706   2.494
11516TIP3    H234494   1.727   6.594   2.596
11517TIP3   OH234495   1.323   0.413   4.492
11517TIP3    H134496   1.236   0.447   4.510
11517TIP3    H234497   1.335   0.341   4.555
11518TIP3   OH234498   2.759   3.209   5.140
11518TIP3    H134499   2.676   3.201   5.092
11518TIP3    H234500   2.777   3.303   5.140
11519TIP3   OH234501   5.623   2.840   3.351
11519TIP3    H134502   5.557   2.909   3.346
11519TIP3    H234503   5.643   2.833   3.445
11520TIP3   OH234504   5.484   5.361   5.171
11520TIP3    H134505   5.462   5.403   5.088
11520TIP3    H234506   5.499   5.434   5.231
11521TIP3   OH234507   7.698   7.059   2.983
11521TIP3    H134508   7.618   7.064   2.930
11521TIP3    H234509   7.740   6.978   2.956
11522TIP3   OH234510   6.465   6.411   4.873
11522TIP3    H134511   6.436   6.409   4.965
11522TIP3    H234512   6.546   6.359   4.873
11523TIP3   OH234513   4.731   0.727   1.147
11523TIP3    H134514   4.733   0.671   1.069
11523TIP3    H234515   4.639   0.753   1.155
11524TIP3   OH234516   5.652   0.307   2.011
11524TIP3    H134517   5.584   0.274   2.070
11524TIP3    H234518   5.629   0.270   1.926
11525TIP3   OH234519   6.770   0.656   6.315
11525TIP3    H134520   6.777   0.745   6.279
11525TIP3    H234521   6.704   0.663   6.384
11526TIP3   OH234522   0.627   3.657   2.039
11526TIP3    H134523   0.684   3.581   2.051
11526TIP3    H234524   0.571   3.658   2.117
11527TIP3   OH234525   3.125   4.378   0.496
11527TIP3    H134526   3.114   4.297   0.445
11527TIP3    H234527   3.140   4.348   0.585
11528TIP3   OH234528   2.393   4.798   0.997
11528TIP3    H134529   2.425   4.888   1.002
11528TIP3    H234530   2.298   4.806   0.988
11529TIP3   OH234531   6.443   1.204   1.825
11529TIP3    H134532   6.497   1.146   1.878
11529TIP3    H234533   6.501   1.276   1.801
11530TIP3   OH234534   6.621   4.051   5.678
11530TIP3    H134535   6.596   4.127   5.627
11530TIP3    H234536   6.712   4.067   5.703
11531TIP3   OH234537   7.214   4.325   0.340
11531TIP3    H134538   7.144   4.366   0.391
11531TIP3    H234539   7.210   4.369   0.255
11532TIP3   OH234540   7.415   3.949   1.559
11532TIP3    H134541   7.497   3.954   1.608
11532TIP3    H234542   7.360   3.890   1.610
11533TIP3   OH234543   1.831   7.700   2.074
11533TIP3    H134544   1.770   7.634   2.107
11533TIP3    H234545   1.908   7.650   2.047
11534TIP3   OH234546   2.550   2.899   2.495
11534TIP3    H134547   2.455   2.898   2.482
11534TIP3    H234548   2.581   2.822   2.447
11535TIP3   OH234549   4.941   6.286   5.968
11535TIP3    H134550   4.894   6.241   6.038
11535TIP3    H234551   5.012   6.332   6.013
11536TIP3   OH234552   8.025   1.127   5.395
11536TIP3    H134553   7.969   1.058   5.429
11536TIP3    H234554   8.106   1.082   5.370
11537TIP3   OH234555   6.489   3.675   2.206
11537TIP3    H134556   6.580   3.692   2.230
11537TIP3    H234557   6.441   3.752   2.236
11538TIP3   OH234558   0.804   1.079   2.086
11538TIP3    H134559   0.774   1.069   2.176
11538TIP3    H234560   0.879   1.138   2.092
11539TIP3   OH234561   2.208   4.673   6.524
11539TIP3    H134562   2.121   4.678   6.563
11539TIP3    H234563   2.234   4.582   6.534
11540TIP3   OH234564   4.263   4.279   4.871
11540TIP3    H134565   4.252   4.333   4.793
11540TIP3    H234566   4.217   4.327   4.940
11541TIP3   OH234567   2.866   6.323   4.266
11541TIP3    H134568   2.776   6.320   4.298
11541TIP3    H234569   2.920   6.308   4.344
11542TIP3   OH234570   0.316   0.009   0.989
11542TIP3    H134571   0.275  -0.074   1.013
11542TIP3    H234572   0.249   0.075   1.008
11543TIP3   OH234573   6.356   0.458   1.235
11543TIP3    H134574   6.356   0.406   1.315
11543TIP3    H234575   6.272   0.504   1.236
11544TIP3   OH234576   4.007   5.344   0.227
11544TIP3    H134577   3.987   5.418   0.285
11544TIP3    H234578   3.954   5.272   0.261
11545TIP3   OH234579   3.779   6.322   6.376
11545TIP3    H134580   3.801   6.244   6.325
11545TIP3    H234581   3.711   6.365   6.324
11546TIP3   OH234582   4.927   6.736   0.551
11546TIP3    H134583   4.876   6.749   0.471
11546TIP3    H234584   4.923   6.642   0.566
11547TIP3   OH234585   7.617   4.339   1.005
11547TIP3    H134586   7.650   4.351   0.916
11547TIP3    H234587   7.573   4.421   1.026
11548TIP3   OH234588   2.569   1.899   0.668
11548TIP3    H134589   2.495   1.897   0.729
11548TIP3    H234590   2.645   1.917   0.723
11549TIP3   OH234591   3.445   4.918   2.330
11549TIP3    H134592   3.383   4.952   2.394
11549TIP3    H234593   3.526   4.966   2.348
11550TIP3   OH234594   0.807   3.705   5.674
11550TIP3    H134595   0.796   3.798   5.654
11550TIP3    H234596   0.717   3.673   5.687
11551TIP3   OH234597   0.532   3.957   2.400
11551TIP3    H134598   0.487   4.007   2.468
11551TIP3    H234599   0.541   3.869   2.436
11552TIP3   OH234600   1.768   1.074   1.980
11552TIP3    H134601   1.743   0.990   1.941
11552TIP3    H234602   1.784   1.053   2.073
11553TIP3   OH234603   2.001   6.035   1.424
11553TIP3    H134604   1.994   6.096   1.350
11553TIP3    H234605   2.084   5.990   1.410
11554TIP3   OH234606   0.461   1.384   1.393
11554TIP3    H134607   0.519   1.310   1.405
11554TIP3    H234608   0.439   1.383   1.300
11555TIP3   OH234609   6.089   4.906   3.136
11555TIP3    H134610   6.050   4.972   3.193
11555TIP3    H234611   6.040   4.913   3.054
11556TIP3   OH234612   8.173   0.092   5.549
11556TIP3    H134613   8.105   0.024   5.550
11556TIP3    H234614   8.161   0.139   5.631
11557TIP3   OH234615   3.945   0.143   2.180
11557TIP3    H134616   3.978   0.151   2.091
11557TIP3    H234617   3.883   0.070   2.176
11558TIP3   OH234618   0.974   6.576   3.811
11558TIP3    H134619   1.030   6.499   3.824
11558TIP3    H234620   0.913   6.549   3.743
11559TIP3   OH234621   3.152   4.743   0.748
11559TIP3    H134622   3.200   4.822   0.721
11559TIP3    H234623   3.214   4.671   0.734
11560TIP3   OH234624   1.919   1.939   0.197
11560TIP3    H134625   1.950   1.869   0.255
11560TIP3    H234626   1.995   1.961   0.143
11561TIP3   OH234627   2.248   1.768   2.496
11561TIP3    H134628   2.275   1.830   2.563
11561TIP3    H234629   2.201   1.821   2.432
11562TIP3   OH234630   1.870   3.869   5.640
11562TIP3    H134631   1.859   3.810   5.714
11562TIP3    H234632   1.818   3.946   5.662
11563TIP3   OH234633   0.823   6.827   2.890
11563TIP3    H134634   0.887   6.865   2.829
11563TIP3    H234635   0.874   6.804   2.968
11564TIP3   OH234636   4.099   6.733   0.176
11564TIP3    H134637   4.073   6.701   0.090
11564TIP3    H234638   4.157   6.665   0.211
11565TIP3   OH234639   3.542   6.066   5.886
11565TIP3    H134640   3.621   6.013   5.881
11565TIP3    H234641   3.471   6.004   5.869
11566TIP3   OH234642   0.599   3.537   5.655
11566TIP3    H134643   0.638   3.531   5.568
11566TIP3    H234644   0.640   3.465   5.704
11567TIP3   OH234645   5.346   5.743   5.350
11567TIP3    H134646   5.393   5.662   5.329
11567TIP3    H234647   5.257   5.727   5.318
11568TIP3   OH234648   7.904   6.189   5.533
11568TIP3    H134649   7.998   6.208   5.533
11568TIP3    H234650   7.889   6.140   5.452
11569TIP3   OH234651   1.162   6.044   1.957
11569TIP3    H134652   1.106   5.994   2.017
11569TIP3    H234653   1.112   6.048   1.875
11570TIP3   OH234654   6.676   2.339   3.597
11570TIP3    H134655   6.653   2.369   3.509
11570TIP3    H234656   6.608   2.375   3.654
11571TIP3   OH234657   2.834   0.568   4.902
11571TIP3    H134658   2.752   0.527   4.930
11571TIP3    H234659   2.808   0.632   4.836
11572TIP3   OH234660   6.747   1.546   1.467
11572TIP3    H134661   6.675   1.484   1.456
11572TIP3    H234662   6.714   1.628   1.432
11573TIP3   OH234663   7.214   0.425   2.512
11573TIP3    H134664   7.156   0.425   2.589
11573TIP3    H234665   7.206   0.513   2.476
11574TIP3   OH234666   6.356   1.039   1.616
11574TIP3    H134667   6.387   1.116   1.663
11574TIP3    H234668   6.326   0.979   1.684
11575TIP3   OH234669   4.878   1.255   2.665
11575TIP3    H134670   4.840   1.285   2.748
11575TIP3    H234671   4.900   1.164   2.681
11576TIP3   OH234672   2.278   0.353   1.663
11576TIP3    H134673   2.369   0.326   1.669
11576TIP3    H234674   2.280   0.435   1.614
11577TIP3   OH234675   7.698   0.781   5.537
11577TIP3    H134676   7.641   0.833   5.480
11577TIP3    H234677   7.688   0.821   5.623
11578TIP3   OH234678   1.573   6.512   1.109
11578TIP3    H134679   1.640   6.580   1.102
11578TIP3    H234680   1.498   6.557   1.148
11579TIP3   OH234681   1.655   0.549   5.106
11579TIP3    H134682   1.565   0.574   5.090
11579TIP3    H234683   1.707   0.611   5.056
11580TIP3   OH234684   0.153   2.751   2.899
11580TIP3    H134685   0.125   2.662   2.922
11580TIP3    H234686   0.221   2.738   2.833
11581TIP3   OH234687   4.312   1.133   2.797
11581TIP3    H134688   4.400   1.158   2.826
11581TIP3    H234689   4.325   1.098   2.709
11582TIP3   OH234690   1.087   0.748   6.726
11582TIP3    H134691   0.998   0.718   6.745
11582TIP3    H234692   1.078   0.800   6.646
11583TIP3   OH234693   6.972   4.092   3.885
11583TIP3    H134694   7.005   4.025   3.826
11583TIP3    H234695   7.047   4.151   3.899
11584TIP3   OH234696   3.373   1.121   2.766
11584TIP3    H134697   3.438   1.051   2.767
11584TIP3    H234698   3.332   1.113   2.679
11585TIP3   OH234699   1.137   4.653   5.696
11585TIP3    H134700   1.192   4.608   5.631
11585TIP3    H234701   1.199   4.703   5.749
11586TIP3   OH234702   6.013   7.187   2.947
11586TIP3    H134703   5.918   7.198   2.957
11586TIP3    H234704   6.049   7.201   3.034
11587TIP3   OH234705   5.031  -0.005   3.657
11587TIP3    H134706   5.038  -0.048   3.572
11587TIP3    H234707   4.976   0.072   3.641
11588TIP3   OH234708   2.514   7.036   4.946
11588TIP3    H134709   2.593   7.051   4.893
11588TIP3    H234710   2.509   7.112   5.003
11589TIP3   OH234711   6.815   1.687   0.260
11589TIP3    H134712   6.824   1.699   0.354
11589TIP3    H234713   6.866   1.758   0.221
11590TIP3   OH234714   3.155   7.285   0.322
11590TIP3    H134715   3.112   7.281   0.237
11590TIP3    H234716   3.195   7.199   0.333
11591TIP3   OH234717   7.044   3.479   4.806
11591TIP3    H134718   7.031   3.476   4.901
11591TIP3    H234719   7.051   3.387   4.780
11592TIP3   OH234720   2.651   5.882   0.335
11592TIP3    H134721   2.608   5.860   0.418
11592TIP3    H234722   2.722   5.942   0.360
11593TIP3   OH234723   1.522   7.550   1.604
11593TIP3    H134724   1.575   7.624   1.574
11593TIP3    H234725   1.459   7.535   1.533
11594TIP3   OH234726   1.826   0.719   2.645
11594TIP3    H134727   1.867   0.741   2.729
11594TIP3    H234728   1.735   0.745   2.654
11595TIP3   OH234729   7.131   7.560   4.228
11595TIP3    H134730   7.107   7.517   4.146
11595TIP3    H234731   7.111   7.495   4.296
11596TIP3   OH234732   6.115   3.130   4.277
11596TIP3    H134733   6.110   3.203   4.339
11596TIP3    H234734   6.123   3.052   4.331
11597TIP3   OH234735   7.991   2.613   4.996
11597TIP3    H134736   7.961   2.686   5.050
11597TIP3    H234737   7.912   2.562   4.979
11598TIP3   OH234738   6.268   6.135   6.498
11598TIP3    H134739   6.267   6.195   6.424
11598TIP3    H234740   6.360   6.116   6.513
11599TIP3   OH234741   7.801   4.509   0.379
11599TIP3    H134742   7.875   4.451   0.360
11599TIP3    H234743   7.836   4.571   0.444
11600TIP3   OH234744   2.001   7.223   2.051
11600TIP3    H134745   1.955   7.267   2.123
11600TIP3    H234746   1.936   7.220   1.980
11601TIP3   OH234747   0.472   3.092   2.175
11601TIP3    H134748   0.392   3.138   2.201
11601TIP3    H234749   0.492   3.125   2.088
11602TIP3   OH234750   6.409   3.365   6.083
11602TIP3    H134751   6.319   3.333   6.093
11602TIP3    H234752   6.461   3.286   6.069
11603TIP3   OH234753   5.637   4.729   4.139
11603TIP3    H134754   5.729   4.713   4.158
11603TIP3    H234755   5.598   4.752   4.223
11604TIP3   OH234756   3.153   5.908   4.747
11604TIP3    H134757   3.158   5.973   4.818
11604TIP3    H234758   3.196   5.951   4.673
11605TIP3   OH234759   6.773   1.100   5.171
11605TIP3    H134760   6.731   1.117   5.086
11605TIP3    H234761   6.850   1.156   5.170
11606TIP3   OH234762   5.809   2.827   4.345
11606TIP3    H134763   5.892   2.841   4.298
11606TIP3    H234764   5.809   2.893   4.414
11607TIP3   OH234765   1.201   6.382   1.329
11607TIP3    H134766   1.109   6.360   1.344
11607TIP3    H234767   1.198   6.466   1.284
11608TIP3   OH234768   2.778   0.762   4.241
11608TIP3    H134769   2.798   0.783   4.149
11608TIP3    H234770   2.703   0.703   4.236
11609TIP3   OH234771   3.948   1.853   2.255
11609TIP3    H134772   3.893   1.929   2.274
11609TIP3    H234773   3.888   1.790   2.213
11610TIP3   OH234774   2.257   2.479   5.036
11610TIP3    H134775   2.313   2.492   4.959
11610TIP3    H234776   2.277   2.390   5.065
11611TIP3   OH234777   2.600   6.693   1.520
11611TIP3    H134778   2.651   6.618   1.549
11611TIP3    H234779   2.602   6.689   1.424
11612TIP3   OH234780   5.914   3.027   4.122
11612TIP3    H134781   5.906   3.056   4.031
11612TIP3    H234782   5.984   3.081   4.158
11613TIP3   OH234783   7.647   2.877   4.372
11613TIP3    H134784   7.587   2.808   4.401
11613TIP3    H234785   7.695   2.901   4.451
11614TIP3   OH234786   6.735   0.040   3.974
11614TIP3    H134787   6.682   0.095   4.032
11614TIP3    H234788   6.741   0.089   3.892
11615TIP3   OH234789   7.460   6.953   2.936
11615TIP3    H134790   7.382   6.952   2.992
11615TIP3    H234791   7.525   6.902   2.983
11616TIP3   OH234792   1.074   0.917   6.522
11616TIP3    H134793   1.038   0.894   6.436
11616TIP3    H234794   1.029   0.999   6.545
11617TIP3   OH234795   3.864   0.686   3.055
11617TIP3    H134796   3.876   0.780   3.073
11617TIP3    H234797   3.945   0.646   3.087
11618TIP3   OH234798   6.802   7.761   5.242
11618TIP3    H134799   6.745   7.790   5.314
11618TIP3    H234800   6.809   7.666   5.253
11619TIP3   OH234801   0.629   7.187   3.311
11619TIP3    H134802   0.713   7.232   3.304
11619TIP3    H234803   0.647   7.099   3.277
11620TIP3   OH234804   5.367   0.507   0.751
11620TIP3    H134805   5.403   0.499   0.662
11620TIP3    H234806   5.318   0.589   0.749
11621TIP3   OH234807   0.500   6.227   6.693
11621TIP3    H134808   0.550   6.198   6.617
11621TIP3    H234809   0.554   6.201   6.768
11622TIP3   OH234810   7.658   0.509   5.554
11622TIP3    H134811   7.683   0.601   5.547
11622TIP3    H234812   7.654   0.492   5.648
11623TIP3   OH234813   5.611   5.066   5.545
11623TIP3    H134814   5.705   5.063   5.562
11623TIP3    H234815   5.594   5.157   5.517
11624TIP3   OH234816   3.864   0.015   1.758
11624TIP3    H134817   3.874   0.081   1.827
11624TIP3    H234818   3.876  -0.068   1.803
11625TIP3   OH234819   7.826   7.632   5.855
11625TIP3    H134820   7.804   7.719   5.823
11625TIP3    H234821   7.856   7.584   5.778
11626TIP3   OH234822   3.891   7.513   2.277
11626TIP3    H134823   3.975   7.545   2.311
11626TIP3    H234824   3.877   7.429   2.321
11627TIP3   OH234825   2.518   4.980   2.194
11627TIP3    H134826   2.423   4.980   2.181
11627TIP3    H234827   2.548   4.904   2.144
11628TIP3   OH234828   1.485   3.408   4.186
11628TIP3    H134829   1.442   3.381   4.266
11628TIP3    H234830   1.439   3.361   4.116
11629TIP3   OH234831   0.192   1.360   4.955
11629TIP3    H134832   0.109   1.363   5.002
11629TIP3    H234833   0.228   1.448   4.963
11630TIP3   OH234834   7.883   2.195   1.802
11630TIP3    H134835   7.794   2.212   1.834
11630TIP3    H234836   7.871   2.166   1.712
11631TIP3   OH234837   4.720   3.317   2.682
11631TIP3    H134838   4.726   3.398   2.632
11631TIP3    H234839   4.728   3.248   2.617
11632TIP3   OH234840   5.475   3.294   1.312
11632TIP3    H134841   5.549   3.299   1.372
11632TIP3    H234842   5.504   3.232   1.245
11633TIP3   OH234843   6.122   5.371   5.437
11633TIP3    H134844   6.164   5.385   5.521
11633TIP3    H234845   6.160   5.437   5.379
11634TIP3   OH234846   3.410   1.952   6.718
11634TIP3    H134847   3.383   1.882   6.658
11634TIP3    H234848   3.397   1.915   6.805
11635TIP3   OH234849   3.758   1.229   0.123
11635TIP3    H134850   3.848   1.198   0.130
11635TIP3    H234851   3.705   1.149   0.119
11636TIP3   OH234852   6.027   6.184   0.364
11636TIP3    H134853   6.069   6.105   0.331
11636TIP3    H234854   6.034   6.178   0.459
11637TIP3   OH234855   1.297   1.225   5.208
11637TIP3    H134856   1.341   1.240   5.291
11637TIP3    H234857   1.358   1.171   5.157
11638TIP3   OH234858   3.011   0.729   5.046
11638TIP3    H134859   2.952   0.665   5.008
11638TIP3    H234860   2.980   0.814   5.014
11639TIP3   OH234861   4.997   2.145   4.342
11639TIP3    H134862   4.930   2.082   4.314
11639TIP3    H234863   5.080   2.099   4.328
11640TIP3   OH234864   1.803   2.126   1.212
11640TIP3    H134865   1.816   2.126   1.307
11640TIP3    H234866   1.823   2.037   1.185
11641TIP3   OH234867   2.780   3.993   6.174
11641TIP3    H134868   2.736   4.078   6.169
11641TIP3    H234869   2.719   3.933   6.131
11642TIP3   OH234870   5.782   5.297   3.048
11642TIP3    H134871   5.735   5.259   3.122
11642TIP3    H234872   5.816   5.380   3.081
11643TIP3   OH234873   0.826   1.043   6.640
11643TIP3    H134874   0.743   1.082   6.612
11643TIP3    H234875   0.816   0.950   6.619
11644TIP3   OH234876   3.437   7.011   6.574
11644TIP3    H134877   3.365   6.962   6.534
11644TIP3    H234878   3.436   6.985   6.666
11645TIP3   OH234879   2.335   1.111   3.944
11645TIP3    H134880   2.347   1.140   4.035
11645TIP3    H234881   2.264   1.165   3.910
11646TIP3   OH234882   4.136   0.517   4.202
11646TIP3    H134883   4.055   0.567   4.206
11646TIP3    H234884   4.172   0.521   4.291
11647TIP3   OH234885   2.763   1.566   0.479
11647TIP3    H134886   2.846   1.533   0.444
11647TIP3    H234887   2.774   1.559   0.574
11648TIP3   OH234888   3.374   3.175   5.585
11648TIP3    H134889   3.305   3.241   5.589
11648TIP3    H234890   3.333   3.101   5.540
11649TIP3   OH234891   0.760   3.435   3.690
11649TIP3    H134892   0.671   3.469   3.690
11649TIP3    H234893   0.803   3.481   3.762
11650TIP3   OH234894   3.875   4.057   3.737
11650TIP3    H134895   3.916   4.120   3.796
11650TIP3    H234896   3.898   4.089   3.649
11651TIP3   OH234897   6.483   0.352   6.471
11651TIP3    H134898   6.421   0.306   6.529
11651TIP3    H234899   6.435   0.429   6.442
11652TIP3   OH234900   4.299   1.881   2.624
11652TIP3    H134901   4.384   1.889   2.667
11652TIP3    H234902   4.316   1.821   2.551
11653TIP3   OH234903   0.288   5.468   1.062
11653TIP3    H134904   0.214   5.455   1.004
11653TIP3    H234905   0.315   5.379   1.086
11654TIP3   OH234906   5.626   6.740   4.374
11654TIP3    H134907   5.617   6.755   4.468
11654TIP3    H234908   5.692   6.670   4.368
11655TIP3   OH234909   0.715   5.706   5.548
11655TIP3    H134910   0.715   5.800   5.530
11655TIP3    H234911   0.759   5.667   5.473
11656TIP3   OH234912   0.721   0.761   1.087
11656TIP3    H134913   0.723   0.817   1.164
11656TIP3    H234914   0.630   0.762   1.058
11657TIP3   OH234915   4.773   4.878   5.680
11657TIP3    H134916   4.840   4.810   5.688
11657TIP3    H234917   4.793   4.939   5.751
11658TIP3   OH234918   3.321   0.953   4.192
11658TIP3    H134919   3.354   0.869   4.158
11658TIP3    H234920   3.271   0.989   4.119
11659TIP3   OH234921   3.062   1.004   3.352
11659TIP3    H134922   2.993   1.065   3.378
11659TIP3    H234923   3.017   0.933   3.307
11660TIP3   OH234924   1.345   7.080   1.170
11660TIP3    H134925   1.264   7.127   1.150
11660TIP3    H234926   1.366   7.104   1.260
11661TIP3   OH234927   1.332   5.508   2.906
11661TIP3    H134928   1.301   5.493   2.817
11661TIP3    H234929   1.312   5.426   2.952
11662TIP3   OH234930   6.228   3.683   3.728
11662TIP3    H134931   6.233   3.778   3.735
11662TIP3    H234932   6.134   3.664   3.728
11663TIP3   OH234933   2.659   7.201   1.157
11663TIP3    H134934   2.584   7.260   1.157
11663TIP3    H234935   2.733   7.257   1.133
11664TIP3   OH234936   1.547   0.177   4.043
11664TIP3    H134937   1.613   0.228   4.088
11664TIP3    H234938   1.498   0.133   4.113
11665TIP3   OH234939   1.400   0.096   2.970
11665TIP3    H134940   1.376   0.093   2.877
11665TIP3    H234941   1.391   0.188   2.995
11666TIP3   OH234942   7.755   1.520   2.908
11666TIP3    H134943   7.725   1.606   2.938
11666TIP3    H234944   7.704   1.504   2.828
11667TIP3   OH234945   6.084   6.093   1.522
11667TIP3    H134946   6.149   6.023   1.524
11667TIP3    H234947   6.019   6.067   1.586
11668TIP3   OH234948   1.330   5.592   5.796
11668TIP3    H134949   1.242   5.575   5.763
11668TIP3    H234950   1.355   5.512   5.842
11669TIP3   OH234951   2.163   7.394   2.209
11669TIP3    H134952   2.238   7.368   2.263
11669TIP3    H234953   2.087   7.360   2.255
11670TIP3   OH234954   0.693   0.082   4.978
11670TIP3    H134955   0.607   0.087   5.019
11670TIP3    H234956   0.754   0.065   5.050
11671TIP3   OH234957   2.177   5.331   3.972
11671TIP3    H134958   2.087   5.354   3.998
11671TIP3    H234959   2.174   5.328   3.877
11672TIP3   OH234960   3.466   0.675   2.603
11672TIP3    H134961   3.493   0.601   2.658
11672TIP3    H234962   3.511   0.751   2.641
11673TIP3   OH234963   4.913   4.770   4.700
11673TIP3    H134964   4.924   4.849   4.648
11673TIP3    H234965   4.819   4.765   4.717
11674TIP3   OH234966   3.218   3.857   0.764
11674TIP3    H134967   3.278   3.929   0.744
11674TIP3    H234968   3.193   3.870   0.855
11675TIP3   OH234969   5.940   2.405   2.825
11675TIP3    H134970   5.977   2.363   2.903
11675TIP3    H234971   5.851   2.429   2.851
11676TIP3   OH234972   5.490   4.675   1.922
11676TIP3    H134973   5.512   4.597   1.973
11676TIP3    H234974   5.574   4.721   1.912
11677TIP3   OH234975   0.388   0.703   0.677
11677TIP3    H134976   0.328   0.759   0.727
11677TIP3    H234977   0.473   0.747   0.684
11678TIP3   OH234978   2.769   1.121   3.105
11678TIP3    H134979   2.813   1.154   3.183
11678TIP3    H234980   2.737   1.199   3.060
11679TIP3   OH234981   4.716   6.777   6.249
11679TIP3    H134982   4.711   6.873   6.254
11679TIP3    H234983   4.681   6.747   6.333
11680TIP3   OH234984   6.602   6.724   0.746
11680TIP3    H134985   6.604   6.786   0.673
11680TIP3    H234986   6.633   6.774   0.821
11681TIP3   OH234987   0.357   6.928   1.084
11681TIP3    H134988   0.371   6.836   1.104
11681TIP3    H234989   0.445   6.965   1.075
11682TIP3   OH234990   7.124   6.166   3.266
11682TIP3    H134991   7.036   6.147   3.298
11682TIP3    H234992   7.178   6.172   3.345
11683TIP3   OH234993   7.640   7.363   5.522
11683TIP3    H134994   7.554   7.360   5.481
11683TIP3    H234995   7.658   7.456   5.534
11684TIP3   OH234996   5.717   3.625   6.555
11684TIP3    H134997   5.780   3.664   6.495
11684TIP3    H234998   5.701   3.693   6.620
11685TIP3   OH234999   3.856   6.913   0.571
11685TIP3    H135000   3.793   6.968   0.525
11685TIP3    H235001   3.841   6.825   0.536
11686TIP3   OH235002   0.779   0.645   1.441
11686TIP3    H135003   0.728   0.695   1.377
11686TIP3    H235004   0.869   0.651   1.409
11687TIP3   OH235005   7.439   4.128   2.418
11687TIP3    H135006   7.497   4.073   2.366
11687TIP3    H235007   7.458   4.104   2.509
11688TIP3   OH235008   7.658   6.996   4.913
11688TIP3    H135009   7.563   6.999   4.924
11688TIP3    H235010   7.674   6.926   4.850
11689TIP3   OH235011   7.702   6.286   4.512
11689TIP3    H135012   7.718   6.375   4.543
11689TIP3    H235013   7.641   6.249   4.575
11690TIP3   OH235014   1.068   5.058   4.869
11690TIP3    H135015   0.979   5.051   4.835
11690TIP3    H235016   1.080   4.980   4.922
11691TIP3   OH235017   8.250   6.730   3.235
11691TIP3    H135018   8.173   6.779   3.205
11691TIP3    H235019   8.232   6.640   3.209
11692TIP3   OH235020   8.051   2.167   2.305
11692TIP3    H135021   8.058   2.261   2.289
11692TIP3    H235022   7.957   2.149   2.306
11693TIP3   OH235023   6.417   3.474   6.361
11693TIP3    H135024   6.371   3.408   6.413
11693TIP3    H235025   6.422   3.436   6.273
11694TIP3   OH235026   0.724   5.065   2.837
11694TIP3    H135027   0.779   5.144   2.836
11694TIP3    H235028   0.634   5.098   2.833
11695TIP3   OH235029   2.854   4.941   3.430
11695TIP3    H135030   2.884   5.020   3.384
11695TIP3    H235031   2.934   4.895   3.455
11696TIP3   OH235032   5.280   2.752   1.887
11696TIP3    H135033   5.313   2.825   1.939
11696TIP3    H235034   5.347   2.684   1.897
11697TIP3   OH235035   5.572   4.621   1.582
11697TIP3    H135036   5.656   4.663   1.560
11697TIP3    H235037   5.518   4.692   1.616
11698TIP3   OH235038   4.391   5.353   4.573
11698TIP3    H135039   4.389   5.398   4.657
11698TIP3    H235040   4.406   5.261   4.595
11699TIP3   OH235041   5.159   7.559   5.894
11699TIP3    H135042   5.160   7.652   5.918
11699TIP3    H235043   5.236   7.547   5.839
11700TIP3   OH235044   1.706   4.324   4.241
11700TIP3    H135045   1.710   4.230   4.259
11700TIP3    H235046   1.619   4.350   4.270
11701TIP3   OH235047   2.567   6.963   1.630
11701TIP3    H135048   2.633   7.025   1.597
11701TIP3    H235049   2.577   6.886   1.576
11702TIP3   OH235050   2.664   5.065   3.939
11702TIP3    H135051   2.583   5.016   3.927
11702TIP3    H235052   2.635   5.151   3.971
11703TIP3   OH235053   1.683   2.078   3.281
11703TIP3    H135054   1.617   2.083   3.212
11703TIP3    H235055   1.704   1.985   3.288
11704TIP3   OH235056   6.758   4.021   5.973
11704TIP3    H135057   6.692   4.071   5.925
11704TIP3    H235058   6.766   4.066   6.057
11705TIP3   OH235059   6.180   5.897   3.297
11705TIP3    H135060   6.223   5.812   3.307
11705TIP3    H235061   6.212   5.949   3.371
11706TIP3   OH235062   2.667   5.997   3.542
11706TIP3    H135063   2.725   5.946   3.598
11706TIP3    H235064   2.721   6.021   3.467
11707TIP3   OH235065   3.903   4.665   4.107
11707TIP3    H135066   3.910   4.688   4.199
11707TIP3    H235067   3.980   4.704   4.066
11708TIP3   OH235068   4.749   1.502   0.054
11708TIP3    H135069   4.767   1.422   0.105
11708TIP3    H235070   4.653   1.508   0.054
11709TIP3   OH235071   2.765   6.811   3.625
11709TIP3    H135072   2.767   6.752   3.701
11709TIP3    H235073   2.719   6.761   3.557
11710TIP3   OH235074   3.419   6.304   2.570
11710TIP3    H135075   3.497   6.355   2.591
11710TIP3    H235076   3.441   6.214   2.595
11711TIP3   OH235077   6.723   3.767   0.008
11711TIP3    H135078   6.667   3.727   0.075
11711TIP3    H235079   6.675   3.845  -0.019
11712TIP3   OH235080   1.567   6.886   3.486
11712TIP3    H135081   1.555   6.869   3.580
11712TIP3    H235082   1.511   6.821   3.443
11713TIP3   OH235083   3.670   6.214   1.699
11713TIP3    H135084   3.705   6.286   1.752
11713TIP3    H235085   3.584   6.245   1.672
11714TIP3   OH235086   2.987   4.366   4.411
11714TIP3    H135087   3.067   4.322   4.440
11714TIP3    H235088   2.931   4.294   4.381
11715TIP3   OH235089   0.394   4.228   4.250
11715TIP3    H135090   0.338   4.242   4.326
11715TIP3    H235091   0.416   4.316   4.219
11716TIP3   OH235092   5.746   0.741   4.600
11716TIP3    H135093   5.747   0.802   4.526
11716TIP3    H235094   5.791   0.789   4.670
11717TIP3   OH235095   6.297   1.059   6.435
11717TIP3    H135096   6.315   1.021   6.349
11717TIP3    H235097   6.292   1.153   6.420
11718TIP3   OH235098   7.328   6.145   2.805
11718TIP3    H135099   7.301   6.207   2.873
11718TIP3    H235100   7.373   6.198   2.740
11719TIP3   OH235101   2.042   1.628   3.378
11719TIP3    H135102   2.110   1.680   3.421
11719TIP3    H235103   2.053   1.540   3.414
11720TIP3   OH235104   6.211   6.419   1.742
11720TIP3    H135105   6.196   6.452   1.831
11720TIP3    H235106   6.130   6.372   1.721
11721TIP3   OH235107   4.168   7.652   4.669
11721TIP3    H135108   4.165   7.556   4.672
11721TIP3    H235109   4.211   7.677   4.751
11722TIP3   OH235110   2.199   4.726   4.315
11722TIP3    H135111   2.136   4.661   4.283
11722TIP3    H235112   2.284   4.694   4.285
11723TIP3   OH235113   7.892   7.212   6.581
11723TIP3    H135114   7.984   7.209   6.556
11723TIP3    H235115   7.857   7.127   6.552
11724TIP3   OH235116   8.095   5.107   6.709
11724TIP3    H135117   8.186   5.101   6.682
11724TIP3    H235118   8.061   5.184   6.665
11725TIP3   OH235119   1.616   1.534   5.185
11725TIP3    H135120   1.640   1.528   5.093
11725TIP3    H235121   1.676   1.475   5.230
11726TIP3   OH235122   6.134   0.456   3.733
11726TIP3    H135123   6.197   0.431   3.666
11726TIP3    H235124   6.161   0.409   3.811
11727TIP3   OH235125   6.534   5.330   2.333
11727TIP3    H135126   6.570   5.419   2.339
11727TIP3    H235127   6.539   5.297   2.423
11728TIP3   OH235128   0.972   2.366   1.391
11728TIP3    H135129   0.921   2.320   1.458
11728TIP3    H235130   1.053   2.316   1.382
11729TIP3   OH235131   0.273   3.670   2.719
11729TIP3    H135132   0.357   3.651   2.761
11729TIP3    H235133   0.226   3.725   2.783
11730TIP3   OH235134   2.440   1.310   3.009
11730TIP3    H135135   2.392   1.240   2.965
11730TIP3    H235136   2.396   1.322   3.093
11731TIP3   OH235137   3.514   1.063   5.048
11731TIP3    H135138   3.554   1.023   4.971
11731TIP3    H235139   3.430   1.019   5.057
11732TIP3   OH235140   1.667   5.173   1.256
11732TIP3    H135141   1.650   5.079   1.258
11732TIP3    H235142   1.591   5.211   1.301
11733TIP3   OH235143   0.046   7.603   5.765
11733TIP3    H135144   0.076   7.656   5.838
11733TIP3    H235145   0.032   7.666   5.694
11734TIP3   OH235146   2.385   6.576   3.791
11734TIP3    H135147   2.424   6.660   3.813
11734TIP3    H235148   2.390   6.526   3.873
11735TIP3   OH235149   0.404   7.677   0.585
11735TIP3    H135150   0.469   7.634   0.529
11735TIP3    H235151   0.371   7.750   0.532
11736TIP3   OH235152   3.268   3.228   4.391
11736TIP3    H135153   3.207   3.165   4.429
11736TIP3    H235154   3.272   3.205   4.299
11737TIP3   OH235155   5.970   3.023   1.768
11737TIP3    H135156   5.894   3.080   1.787
11737TIP3    H235157   5.968   2.957   1.838
11738TIP3   OH235158   7.064   7.150   0.740
11738TIP3    H135159   7.015   7.128   0.661
11738TIP3    H235160   7.124   7.219   0.713
11739TIP3   OH235161   6.923   4.005   0.973
11739TIP3    H135162   6.997   4.018   1.031
11739TIP3    H235163   6.938   4.064   0.900
11740TIP3   OH235164   6.200   1.636   4.824
11740TIP3    H135165   6.167   1.670   4.741
11740TIP3    H235166   6.165   1.547   4.829
11741TIP3   OH235167   3.428   4.019   2.660
11741TIP3    H135168   3.380   3.996   2.739
11741TIP3    H235169   3.439   3.936   2.613
11742TIP3   OH235170   3.685   3.844   3.818
11742TIP3    H135171   3.668   3.783   3.890
11742TIP3    H235172   3.780   3.853   3.816
11743TIP3   OH235173   7.094   3.264   0.007
11743TIP3    H135174   7.008   3.301  -0.015
11743TIP3    H235175   7.086   3.238   0.098
11744TIP3   OH235176   6.771   7.760   4.689
11744TIP3    H135177   6.732   7.834   4.643
11744TIP3    H235178   6.730   7.761   4.776
11745TIP3   OH235179   5.055   0.047   0.033
11745TIP3    H135180   5.001   0.001   0.097
11745TIP3    H235181   5.062  -0.013  -0.041
11746TIP3   OH235182   0.164   1.356   1.263
11746TIP3    H135183   0.069   1.351   1.258
11746TIP3    H235184   0.195   1.276   1.220
11747TIP3   OH235185   0.986   5.125   5.366
11747TIP3    H135186   0.982   5.047   5.421
11747TIP3    H235187   1.080   5.139   5.351
11748TIP3   OH235188   2.836   0.076   1.704
11748TIP3    H135189   2.803  -0.010   1.727
11748TIP3    H235190   2.898   0.097   1.774
11749TIP3   OH235191   5.896   6.411   2.553
11749TIP3    H135192   5.862   6.476   2.492
11749TIP3    H235193   5.932   6.342   2.497
11750TIP3   OH235194   0.607   0.154   3.796
11750TIP3    H135195   0.665   0.113   3.732
11750TIP3    H235196   0.589   0.241   3.760
11751TIP3   OH235197   3.177   4.488   5.862
11751TIP3    H135198   3.264   4.486   5.821
11751TIP3    H235199   3.120   4.444   5.799
11752TIP3   OH235200   2.398   6.732   5.816
11752TIP3    H135201   2.405   6.786   5.895
11752TIP3    H235202   2.434   6.647   5.842
11753TIP3   OH235203   3.583   2.397   4.728
11753TIP3    H135204   3.624   2.477   4.759
11753TIP3    H235205   3.562   2.415   4.636
11754TIP3   OH235206   5.203   5.633   4.991
11754TIP3    H135207   5.142   5.559   4.999
11754TIP3    H235208   5.158   5.706   5.032
11755TIP3   OH235209   0.171   3.776   2.126
11755TIP3    H135210   0.080   3.753   2.113
11755TIP3    H235211   0.169   3.868   2.153
11756TIP3   OH235212   8.317   1.057   0.140
11756TIP3    H135213   8.311   0.989   0.073
11756TIP3    H235214   8.228   1.065   0.174
11757TIP3   OH235215   6.780   5.095   6.205
11757TIP3    H135216   6.814   5.136   6.284
11757TIP3    H235217   6.837   5.019   6.191
11758TIP3   OH235218   1.511   6.506   3.611
11758TIP3    H135219   1.572   6.473   3.677
11758TIP3    H235220   1.443   6.552   3.661
11759TIP3   OH235221   2.863   1.062   4.655
11759TIP3    H135222   2.887   1.027   4.569
11759TIP3    H235223   2.802   1.133   4.636
11760TIP3   OH235224   4.570   6.578   3.755
11760TIP3    H135225   4.556   6.620   3.840
11760TIP3    H235226   4.665   6.565   3.750
11761TIP3   OH235227   4.877   7.842   3.335
11761TIP3    H135228   4.844   7.810   3.251
11761TIP3    H235229   4.871   7.766   3.393
11762TIP3   OH235230   6.396   4.956   6.115
11762TIP3    H135231   6.399   5.005   6.033
11762TIP3    H235232   6.333   4.886   6.099
11763TIP3   OH235233   3.109   7.427   2.340
11763TIP3    H135234   3.179   7.416   2.276
11763TIP3    H235235   3.036   7.463   2.289
11764TIP3   OH235236   5.641   5.962   3.627
11764TIP3    H135237   5.684   5.968   3.712
11764TIP3    H235238   5.650   5.870   3.602
11765TIP3   OH235239   4.454   4.233   2.009
11765TIP3    H135240   4.392   4.160   2.017
11765TIP3    H235241   4.512   4.223   2.084
11766TIP3   OH235242   1.852   5.937   0.165
11766TIP3    H135243   1.895   5.897   0.089
11766TIP3    H235244   1.843   6.029   0.141
11767TIP3   OH235245   2.082   0.744   4.976
11767TIP3    H135246   2.043   0.660   4.952
11767TIP3    H235247   2.026   0.809   4.934
11768TIP3   OH235248   3.912   4.383   1.848
11768TIP3    H135249   3.917   4.389   1.753
11768TIP3    H235250   3.833   4.433   1.871
11769TIP3   OH235251   2.656   6.685   3.390
11769TIP3    H135252   2.597   6.630   3.442
11769TIP3    H235253   2.624   6.676   3.300
11770TIP3   OH235254   4.964   7.645   3.551
11770TIP3    H135255   4.942   7.618   3.640
11770TIP3    H235256   4.949   7.567   3.498
11771TIP3   OH235257   7.538   1.401   6.501
11771TIP3    H135258   7.561   1.311   6.480
11771TIP3    H235259   7.466   1.423   6.443
11772TIP3   OH235260   1.058   7.002   2.498
11772TIP3    H135261   1.017   7.022   2.414
11772TIP3    H235262   1.140   7.052   2.498
11773TIP3   OH235263   7.669   6.922   5.725
11773TIP3    H135264   7.578   6.902   5.744
11773TIP3    H235265   7.673   7.018   5.722
11774TIP3   OH235266   6.579   6.169   3.104
11774TIP3    H135267   6.548   6.122   3.182
11774TIP3    H235268   6.499   6.207   3.067
11775TIP3   OH235269   0.071   1.189   3.863
11775TIP3    H135270   0.109   1.164   3.779
11775TIP3    H235271   0.146   1.214   3.917
11776TIP3   OH235272   0.448   6.803   6.077
11776TIP3    H135273   0.375   6.744   6.061
11776TIP3    H235274   0.523   6.745   6.092
11777TIP3   OH235275   2.469   6.591   6.740
11777TIP3    H135276   2.413   6.520   6.773
11777TIP3    H235277   2.558   6.556   6.746
11778TIP3   OH235278   0.134   1.679   0.141
11778TIP3    H135279   0.187   1.600   0.127
11778TIP3    H235280   0.184   1.749   0.099
11779TIP3   OH235281   5.692   1.602   3.991
11779TIP3    H135282   5.635   1.525   3.988
11779TIP3    H235283   5.780   1.568   3.978
11780TIP3   OH235284   3.144   0.918   0.710
11780TIP3    H135285   3.068   0.862   0.726
11780TIP3    H235286   3.180   0.935   0.797
11781TIP3   OH235287   1.983   0.122   5.360
11781TIP3    H135288   1.967   0.215   5.342
11781TIP3    H235289   1.962   0.078   5.277
11782TIP3   OH235290   1.163   5.068   1.172
11782TIP3    H135291   1.089   5.011   1.195
11782TIP3    H235292   1.191   5.105   1.255
11783TIP3   OH235293   2.409   0.519   2.115
11783TIP3    H135294   2.414   0.429   2.083
11783TIP3    H235295   2.369   0.568   2.043
11784TIP3   OH235296   8.160   6.915   4.743
11784TIP3    H135297   8.147   7.007   4.767
11784TIP3    H235298   8.095   6.899   4.675
11785TIP3   OH235299   5.517   0.092   2.532
11785TIP3    H135300   5.584   0.159   2.520
11785TIP3    H235301   5.469   0.121   2.610
11786TIP3   OH235302   0.814   2.790   6.309
11786TIP3    H135303   0.821   2.741   6.228
11786TIP3    H235304   0.739   2.848   6.295
11787TIP3   OH235305   1.116   5.563   6.397
11787TIP3    H135306   1.040   5.581   6.453
11787TIP3    H235307   1.082   5.505   6.329
11788TIP3   OH235308   1.578   4.838   0.945
11788TIP3    H135309   1.547   4.894   0.873
11788TIP3    H235310   1.667   4.869   0.962
11789TIP3   OH235311   0.346   1.136   0.774
11789TIP3    H135312   0.437   1.164   0.780
11789TIP3    H235313   0.295   1.215   0.787
11790TIP3   OH235314   0.149   6.499   2.092
11790TIP3    H135315   0.117   6.454   2.170
11790TIP3    H235316   0.070   6.528   2.047
11791TIP3   OH235317   7.589   1.468   6.784
11791TIP3    H135318   7.553   1.441   6.699
11791TIP3    H235319   7.673   1.421   6.790
11792TIP3   OH235320   2.419   2.192   6.308
11792TIP3    H135321   2.482   2.246   6.261
11792TIP3    H235322   2.462   2.171   6.391
11793TIP3   OH235323   4.731   5.564   0.384
11793TIP3    H135324   4.814   5.610   0.372
11793TIP3    H235325   4.688   5.568   0.298
11794TIP3   OH235326   3.831   3.864   1.066
11794TIP3    H135327   3.747   3.900   1.096
11794TIP3    H235328   3.848   3.790   1.124
11795TIP3   OH235329   1.515   4.349   5.692
11795TIP3    H135330   1.522   4.366   5.786
11795TIP3    H235331   1.605   4.357   5.660
11796TIP3   OH235332   6.370   1.587   5.140
11796TIP3    H135333   6.314   1.510   5.156
11796TIP3    H235334   6.435   1.556   5.077
11797TIP3   OH235335   1.108   1.699   2.580
11797TIP3    H135336   1.183   1.645   2.558
11797TIP3    H235337   1.145   1.786   2.597
11798TIP3   OH235338   6.244   6.986   3.559
11798TIP3    H135339   6.227   7.075   3.528
11798TIP3    H235340   6.228   6.991   3.653
11799TIP3   OH235341   3.817   5.411   6.626
11799TIP3    H135342   3.892   5.368   6.668
11799TIP3    H235343   3.795   5.482   6.684
11800TIP3   OH235344   3.960   7.537   3.721
11800TIP3    H135345   3.995   7.489   3.646
11800TIP3    H235346   3.873   7.565   3.693
11801TIP3   OH235347   0.734   1.730   3.631
11801TIP3    H135348   0.725   1.823   3.653
11801TIP3    H235349   0.682   1.720   3.551
11802TIP3   OH235350   4.038   5.406   2.264
11802TIP3    H135351   4.091   5.389   2.186
11802TIP3    H235352   4.101   5.409   2.335
11803TIP3   OH235353   7.195   7.071   2.522
11803TIP3    H135354   7.290   7.078   2.513
11803TIP3    H235355   7.181   6.984   2.560
11804TIP3   OH235356   7.751   3.361   4.665
11804TIP3    H135357   7.806   3.355   4.743
11804TIP3    H235358   7.803   3.412   4.603
11805TIP3   OH235359   5.127   4.179   1.994
11805TIP3    H135360   5.168   4.266   1.994
11805TIP3    H235361   5.136   4.149   1.904
11806TIP3   OH235362   2.182   2.723   2.367
11806TIP3    H135363   2.214   2.804   2.404
11806TIP3    H235364   2.235   2.655   2.408
11807TIP3   OH235365   3.243   2.733   6.328
11807TIP3    H135366   3.332   2.768   6.315
11807TIP3    H235367   3.254   2.667   6.398
11808TIP3   OH235368   4.997   3.343   1.890
11808TIP3    H135369   4.950   3.315   1.812
11808TIP3    H235370   5.079   3.379   1.856
11809TIP3   OH235371   3.738   7.731   5.246
11809TIP3    H135372   3.744   7.825   5.262
11809TIP3    H235373   3.644   7.712   5.254
11810TIP3   OH235374   1.600   1.026   5.475
11810TIP3    H135375   1.649   1.050   5.396
11810TIP3    H235376   1.657   0.965   5.522
11811TIP3   OH235377   0.300   3.327   1.802
11811TIP3    H135378   0.316   3.393   1.870
11811TIP3    H235379   0.216   3.353   1.763
11812TIP3   OH235380   4.621   2.478   5.273
11812TIP3    H135381   4.578   2.453   5.354
11812TIP3    H235382   4.622   2.574   5.274
11813TIP3   OH235383   7.147   4.134   4.678
11813TIP3    H135384   7.160   4.225   4.703
11813TIP3    H235385   7.059   4.113   4.708
11814TIP3   OH235386   2.737   0.149   5.799
11814TIP3    H135387   2.755   0.197   5.719
11814TIP3    H235388   2.813   0.091   5.810
11815TIP3   OH235389   7.225   6.709   1.948
11815TIP3    H135390   7.176   6.661   2.015
11815TIP3    H235391   7.158   6.752   1.895
11816TIP3   OH235392   2.422   7.131   4.297
11816TIP3    H135393   2.431   7.041   4.327
11816TIP3    H235394   2.496   7.177   4.338
11817TIP3   OH235395   1.644   7.235   6.148
11817TIP3    H135396   1.582   7.196   6.087
11817TIP3    H235397   1.729   7.223   6.107
11818TIP3   OH235398   2.078   0.553   3.852
11818TIP3    H135399   2.162   0.587   3.883
11818TIP3    H235400   2.024   0.546   3.931
11819TIP3   OH235401   0.225   0.266   5.403
11819TIP3    H135402   0.221   0.213   5.482
11819TIP3    H235403   0.262   0.350   5.432
11820TIP3   OH235404   4.964   4.520   6.212
11820TIP3    H135405   4.934   4.590   6.270
11820TIP3    H235406   5.052   4.546   6.187
11821TIP3   OH235407   1.204   0.521   1.870
11821TIP3    H135408   1.237   0.456   1.931
11821TIP3    H235409   1.227   0.488   1.783
11822TIP3   OH235410   4.907   1.969   3.662
11822TIP3    H135411   4.830   2.026   3.671
11822TIP3    H235412   4.887   1.894   3.718
11823TIP3   OH235413   3.387   3.179   5.193
11823TIP3    H135414   3.479   3.179   5.166
11823TIP3    H235415   3.345   3.116   5.133
11824TIP3   OH235416   3.283   0.196   3.600
11824TIP3    H135417   3.365   0.147   3.595
11824TIP3    H235418   3.245   0.188   3.513
11825TIP3   OH235419   4.312   5.405   1.003
11825TIP3    H135420   4.316   5.434   0.912
11825TIP3    H235421   4.218   5.392   1.020
11826TIP3   OH235422   0.627   5.398   5.855
11826TIP3    H135423   0.674   5.392   5.938
11826TIP3    H235424   0.656   5.480   5.816
11827TIP3   OH235425   3.604   2.963   3.666
11827TIP3    H135426   3.518   2.931   3.639
11827TIP3    H235427   3.600   2.967   3.761
11828TIP3   OH235428   5.296   4.984   6.581
11828TIP3    H135429   5.272   5.072   6.551
11828TIP3    H235430   5.229   4.927   6.543
11829TIP3   OH235431   6.677   6.814   2.748
11829TIP3    H135432   6.654   6.765   2.827
11829TIP3    H235433   6.601   6.869   2.731
11830TIP3   OH235434   5.350   7.220   3.047
11830TIP3    H135435   5.289   7.148   3.059
11830TIP3    H235436   5.437   7.180   3.055
11831TIP3   OH235437   5.086   4.002   4.885
11831TIP3    H135438   4.991   3.992   4.882
11831TIP3    H235439   5.118   3.954   4.809
11832TIP3   OH235440   4.938   4.447   5.166
11832TIP3    H135441   4.919   4.483   5.252
11832TIP3    H235442   5.034   4.452   5.159
11833TIP3   OH235443   6.622   3.825   6.626
11833TIP3    H135444   6.565   3.896   6.655
11833TIP3    H235445   6.563   3.760   6.589
11834TIP3   OH235446   7.315   6.395   2.039
11834TIP3    H135447   7.272   6.453   2.101
11834TIP3    H235448   7.407   6.420   2.043
11835TIP3   OH235449   7.130   4.596   5.172
11835TIP3    H135450   7.089   4.666   5.223
11835TIP3    H235451   7.070   4.580   5.099
11836TIP3   OH235452   7.201   4.238   5.110
11836TIP3    H135453   7.124   4.285   5.079
11836TIP3    H235454   7.168   4.182   5.181
11837TIP3   OH235455   7.586   6.401   5.444
11837TIP3    H135456   7.500   6.434   5.417
11837TIP3    H235457   7.569   6.310   5.470
11838TIP3   OH235458   7.694   4.681   0.815
11838TIP3    H135459   7.742   4.616   0.866
11838TIP3    H235460   7.618   4.634   0.781
11839TIP3   OH235461   2.248   0.594   6.000
11839TIP3    H135462   2.204   0.579   5.916
11839TIP3    H235463   2.220   0.522   6.056
11840TIP3   OH235464   4.773   0.143   2.827
11840TIP3    H135465   4.779   0.238   2.825
11840TIP3    H235466   4.785   0.116   2.736
11841TIP3   OH235467   0.021   7.084   1.862
11841TIP3    H135468  -0.006   6.992   1.870
11841TIP3    H235469   0.108   7.087   1.902
11842TIP3   OH235470   7.079   5.065   0.379
11842TIP3    H135471   7.078   5.039   0.471
11842TIP3    H235472   7.070   5.161   0.381
11843TIP3   OH235473   6.167   0.619   3.365
11843TIP3    H135474   6.218   0.545   3.398
11843TIP3    H235475   6.232   0.682   3.334
11844TIP3   OH235476   2.497   5.158   6.014
11844TIP3    H135477   2.523   5.125   6.101
11844TIP3    H235478   2.553   5.110   5.953
11845TIP3   OH235479   2.559   6.526   3.581
11845TIP3    H135480   2.572   6.432   3.593
11845TIP3    H235481   2.501   6.552   3.652
11846TIP3   OH235482   2.296   3.918   3.343
11846TIP3    H135483   2.375   3.879   3.307
11846TIP3    H235484   2.328   3.987   3.401
11847TIP3   OH235485   2.305   2.105   2.386
11847TIP3    H135486   2.253   2.037   2.343
11847TIP3    H235487   2.240   2.162   2.428
11848TIP3   OH235488   8.217   6.734   2.614
11848TIP3    H135489   8.277   6.662   2.631
11848TIP3    H235490   8.142   6.693   2.570
11849TIP3   OH235491   1.279   0.428   5.259
11849TIP3    H135492   1.330   0.399   5.183
11849TIP3    H235493   1.334   0.408   5.334
11850TIP3   OH235494   4.603   5.491   1.088
11850TIP3    H135495   4.546   5.418   1.113
11850TIP3    H235496   4.557   5.535   1.016
11851TIP3   OH235497   0.738   1.194   4.685
11851TIP3    H135498   0.753   1.243   4.604
11851TIP3    H235499   0.686   1.119   4.658
11852TIP3   OH235500   5.913   3.597   3.264
11852TIP3    H135501   5.861   3.572   3.341
11852TIP3    H235502   5.873   3.547   3.192
11853TIP3   OH235503   8.153   7.549   3.996
11853TIP3    H135504   8.075   7.586   4.038
11853TIP3    H235505   8.126   7.534   3.906
11854TIP3   OH235506   2.638   3.271   4.261
11854TIP3    H135507   2.670   3.259   4.351
11854TIP3    H235508   2.705   3.323   4.218
11855TIP3   OH235509   0.289   3.929   4.574
11855TIP3    H135510   0.337   3.865   4.626
11855TIP3    H235511   0.270   4.000   4.635
11856TIP3   OH235512   4.351   6.380   6.333
11856TIP3    H135513   4.302   6.460   6.352
11856TIP3    H235514   4.379   6.348   6.419
11857TIP3   OH235515   6.811   7.321   4.379
11857TIP3    H135516   6.762   7.343   4.299
11857TIP3    H235517   6.831   7.405   4.419
11858TIP3   OH235518   2.416   2.967   3.623
11858TIP3    H135519   2.463   2.942   3.543
11858TIP3    H235520   2.485   2.978   3.689
11859TIP3   OH235521   1.859   4.518   0.244
11859TIP3    H135522   1.946   4.487   0.221
11859TIP3    H235523   1.826   4.559   0.163
11860TIP3   OH235524   7.088   3.895   4.977
11860TIP3    H135525   7.090   3.828   4.908
11860TIP3    H235526   7.179   3.907   5.001
11861TIP3   OH235527   7.035   5.847   5.522
11861TIP3    H135528   7.014   5.807   5.607
11861TIP3    H235529   6.951   5.853   5.477
11862TIP3   OH235530   3.259   7.551   2.858
11862TIP3    H135531   3.188   7.490   2.877
11862TIP3    H235532   3.274   7.597   2.940
11863TIP3   OH235533   2.225   0.540   4.129
11863TIP3    H135534   2.197   0.450   4.113
11863TIP3    H235535   2.247   0.543   4.222
11864TIP3   OH235536   7.966   5.430   4.055
11864TIP3    H135537   7.957   5.344   4.014
11864TIP3    H235538   7.908   5.427   4.131
11865TIP3   OH235539   0.849   5.411   4.938
11865TIP3    H135540   0.907   5.440   5.009
11865TIP3    H235541   0.780   5.478   4.935
11866TIP3   OH235542   7.592   6.123   5.801
11866TIP3    H135543   7.542   6.188   5.850
11866TIP3    H235544   7.562   6.039   5.836
11867TIP3   OH235545   7.218   5.622   6.532
11867TIP3    H135546   7.206   5.717   6.539
11867TIP3    H235547   7.150   5.594   6.471
11868TIP3   OH235548   6.982   1.006   0.705
11868TIP3    H135549   7.007   0.984   0.795
11868TIP3    H235550   6.887   1.015   0.708
11869TIP3   OH235551   1.306   6.301   4.488
11869TIP3    H135552   1.324   6.207   4.485
11869TIP3    H235553   1.290   6.319   4.581
11870TIP3   OH235554   0.024   3.128   4.230
11870TIP3    H135555   0.025   3.071   4.307
11870TIP3    H235556   0.089   3.195   4.249
11871TIP3   OH235557   4.743   4.392   3.025
11871TIP3    H135558   4.767   4.330   2.955
11871TIP3    H235559   4.765   4.346   3.106
11872TIP3   OH235560   5.257   7.840   4.377
11872TIP3    H135561   5.313   7.762   4.367
11872TIP3    H235562   5.178   7.807   4.420
11873TIP3   OH235563   3.404   4.587   0.007
11873TIP3    H135564   3.326   4.600   0.061
11873TIP3    H235565   3.475   4.628   0.057
11874TIP3   OH235566   2.420   6.203   4.514
11874TIP3    H135567   2.360   6.233   4.582
11874TIP3    H235568   2.416   6.107   4.518
11875TIP3   OH235569   7.572   5.261   0.561
11875TIP3    H135570   7.506   5.311   0.513
11875TIP3    H235571   7.623   5.328   0.606
11876TIP3   OH235572   4.671   4.029   6.154
11876TIP3    H135573   4.588   3.982   6.150
11876TIP3    H235574   4.723   3.991   6.083
11877TIP3   OH235575   4.883   6.214   5.036
11877TIP3    H135576   4.973   6.205   5.006
11877TIP3    H235577   4.891   6.250   5.124
11878TIP3   OH235578   1.113   6.616   5.671
11878TIP3    H135579   1.037   6.626   5.613
11878TIP3    H235580   1.117   6.522   5.689
11879TIP3   OH235581   5.591   3.254   2.082
11879TIP3    H135582   5.509   3.259   2.033
11879TIP3    H235583   5.643   3.327   2.049
11880TIP3   OH235584   7.868   5.303   5.765
11880TIP3    H135585   7.776   5.279   5.780
11880TIP3    H235586   7.873   5.319   5.671
11881TIP3   OH235587   6.368   4.649   6.488
11881TIP3    H135588   6.421   4.691   6.420
11881TIP3    H235589   6.430   4.596   6.539
11882TIP3   OH235590   4.853   0.558   4.097
11882TIP3    H135591   4.790   0.584   4.164
11882TIP3    H235592   4.800   0.536   4.021
11883TIP3   OH235593   8.088   3.854   6.464
11883TIP3    H135594   8.069   3.939   6.502
11883TIP3    H235595   8.044   3.856   6.379
11884TIP3   OH235596   2.590   7.731   6.579
11884TIP3    H135597   2.497   7.750   6.573
11884TIP3    H235598   2.621   7.736   6.489
11885TIP3   OH235599   3.887   1.871   4.392
11885TIP3    H135600   3.966   1.922   4.375
11885TIP3    H235601   3.846   1.914   4.467
11886TIP3   OH235602   7.634   0.469   5.838
11886TIP3    H135603   7.720   0.442   5.806
11886TIP3    H235604   7.649   0.492   5.930
11887TIP3   OH235605   2.304   0.168   4.618
11887TIP3    H135606   2.335   0.256   4.636
11887TIP3    H235607   2.227   0.180   4.562
11888TIP3   OH235608   5.275   2.333   4.059
11888TIP3    H135609   5.273   2.306   3.967
11888TIP3    H235610   5.361   2.306   4.091
11889TIP3   OH235611   6.084   7.499   1.713
11889TIP3    H135612   6.071   7.485   1.807
11889TIP3    H235613   6.007   7.548   1.685
11890TIP3   OH235614   0.265   2.525   2.736
11890TIP3    H135615   0.277   2.479   2.653
11890TIP3    H235616   0.344   2.578   2.745
11891TIP3   OH235617   4.691   3.744   2.330
11891TIP3    H135618   4.654   3.832   2.341
11891TIP3    H235619   4.684   3.726   2.237
11892TIP3   OH235620   0.896   4.926   3.554
11892TIP3    H135621   0.810   4.914   3.595
11892TIP3    H235622   0.958   4.888   3.616
11893TIP3   OH235623   6.068   1.259   0.615
11893TIP3    H135624   5.998   1.305   0.568
11893TIP3    H235625   6.133   1.239   0.547
11894TIP3   OH235626   4.769   3.074   6.082
11894TIP3    H135627   4.800   3.061   5.992
11894TIP3    H235628   4.730   3.162   6.081
11895TIP3   OH235629   3.517   6.600   5.732
11895TIP3    H135630   3.559   6.666   5.788
11895TIP3    H235631   3.435   6.641   5.705
11896TIP3   OH235632   4.596   4.287   2.238
11896TIP3    H135633   4.517   4.338   2.257
11896TIP3    H235634   4.659   4.351   2.207
11897TIP3   OH235635   6.749   2.164   5.470
11897TIP3    H135636   6.785   2.197   5.552
11897TIP3    H235637   6.664   2.207   5.462
11898TIP3   OH235638   7.199   1.661   1.265
11898TIP3    H135639   7.259   1.726   1.228
11898TIP3    H235640   7.112   1.688   1.233
11899TIP3   OH235641   0.466   3.261   0.464
11899TIP3    H135642   0.541   3.309   0.499
11899TIP3    H235643   0.483   3.252   0.371
11900TIP3   OH235644   2.446   1.797   5.436
11900TIP3    H135645   2.355   1.776   5.458
11900TIP3    H235646   2.440   1.873   5.379
11901TIP3   OH235647   2.104   4.283   4.594
11901TIP3    H135648   2.108   4.289   4.499
11901TIP3    H235649   2.102   4.189   4.612
11902TIP3   OH235650   5.989   4.913   2.218
11902TIP3    H135651   5.928   4.900   2.146
11902TIP3    H235652   5.933   4.925   2.295
11903TIP3   OH235653   4.771   4.238   5.194
11903TIP3    H135654   4.823   4.311   5.161
11903TIP3    H235655   4.744   4.191   5.115
11904TIP3   OH235656   7.668   3.157   4.511
11904TIP3    H135657   7.656   3.099   4.586
11904TIP3    H235658   7.697   3.240   4.550
11905TIP3   OH235659   5.050   7.057   4.639
11905TIP3    H135660   5.135   7.014   4.633
11905TIP3    H235661   4.992   7.004   4.583
11906TIP3   OH235662   4.449   5.918   0.299
11906TIP3    H135663   4.388   5.873   0.240
11906TIP3    H235664   4.455   5.860   0.375
11907TIP3   OH235665   7.906   6.731   4.208
11907TIP3    H135666   7.996   6.761   4.219
11907TIP3    H235667   7.900   6.707   4.115
11908TIP3   OH235668   1.849   5.983   4.954
11908TIP3    H135669   1.758   5.986   4.984
11908TIP3    H235670   1.861   5.893   4.922
11909TIP3   OH235671   4.527   0.799   4.664
11909TIP3    H135672   4.586   0.865   4.700
11909TIP3    H235673   4.581   0.721   4.654
11910TIP3   OH235674   6.493   3.615   0.670
11910TIP3    H135675   6.454   3.570   0.595
11910TIP3    H235676   6.582   3.636   0.641
11911TIP3   OH235677   2.398   4.405   4.049
11911TIP3    H135678   2.305   4.388   4.034
11911TIP3    H235679   2.400   4.482   4.106
11912TIP3   OH235680   4.989   4.448   0.295
11912TIP3    H135681   4.980   4.483   0.206
11912TIP3    H235682   5.062   4.498   0.333
11913TIP3   OH235683   6.625   7.805   6.500
11913TIP3    H135684   6.603   7.713   6.486
11913TIP3    H235685   6.565   7.853   6.443
11914TIP3   OH235686   8.285   5.448   3.008
11914TIP3    H135687   8.204   5.488   3.040
11914TIP3    H235688   8.278   5.451   2.913
11915TIP3   OH235689   5.841   3.136   3.868
11915TIP3    H135690   5.789   3.214   3.889
11915TIP3    H235691   5.924   3.171   3.837
11916TIP3   OH235692   4.797   0.418   2.903
11916TIP3    H135693   4.786   0.461   2.988
11916TIP3    H235694   4.793   0.489   2.839
11917TIP3   OH235695   0.969   5.906   2.573
11917TIP3    H135696   0.919   5.975   2.617
11917TIP3    H235697   0.970   5.931   2.481
11918TIP3   OH235698   7.048   6.835   1.545
11918TIP3    H135699   7.039   6.740   1.538
11918TIP3    H235700   7.138   6.853   1.521
11919TIP3   OH235701   2.285   5.172   3.459
11919TIP3    H135702   2.283   5.081   3.428
11919TIP3    H235703   2.369   5.206   3.427
11920TIP3   OH235704   6.279   6.585   1.257
11920TIP3    H135705   6.311   6.590   1.168
11920TIP3    H235706   6.357   6.593   1.312
11921TIP3   OH235707   4.273   4.542   1.590
11921TIP3    H135708   4.306   4.514   1.505
11921TIP3    H235709   4.352   4.566   1.639
11922TIP3   OH235710   3.830   4.916   2.276
11922TIP3    H135711   3.789   4.981   2.333
11922TIP3    H235712   3.858   4.967   2.199
11923TIP3   OH235713   1.906   6.290   2.650
11923TIP3    H135714   1.958   6.210   2.650
11923TIP3    H235715   1.943   6.343   2.721
11924TIP3   OH235716   2.597   4.577   0.087
11924TIP3    H135717   2.588   4.495   0.037
11924TIP3    H235718   2.573   4.646   0.025
11925TIP3   OH235719   6.987   1.307   5.244
11925TIP3    H135720   7.009   1.287   5.335
11925TIP3    H235721   7.042   1.382   5.222
11926TIP3   OH235722   0.658   5.985   5.536
11926TIP3    H135723   0.612   5.980   5.452
11926TIP3    H235724   0.616   6.058   5.581
11927TIP3   OH235725   2.641   5.961   1.999
11927TIP3    H135726   2.669   6.007   1.920
11927TIP3    H235727   2.716   5.964   2.057
11928TIP3   OH235728   7.291   1.726   2.724
11928TIP3    H135729   7.196   1.716   2.720
11928TIP3    H235730   7.316   1.754   2.636
11929TIP3   OH235731   0.682   7.597   3.060
11929TIP3    H135732   0.638   7.513   3.071
11929TIP3    H235733   0.771   7.582   3.093
11930TIP3   OH235734   3.064   0.269   0.633
11930TIP3    H135735   3.051   0.282   0.727
11930TIP3    H235736   2.984   0.305   0.593
11931TIP3   OH235737   2.543   6.583   3.169
11931TIP3    H135738   2.548   6.509   3.108
11931TIP3    H235739   2.449   6.592   3.189
11932TIP3   OH235740   2.055   0.893   3.540
11932TIP3    H135741   2.128   0.871   3.597
11932TIP3    H235742   2.066   0.835   3.464
11933TIP3   OH235743   3.837   2.342   2.252
11933TIP3    H135744   3.924   2.377   2.274
11933TIP3    H235745   3.849   2.305   2.164
11934TIP3   OH235746   5.972   7.706   4.684
11934TIP3    H135747   5.915   7.766   4.732
11934TIP3    H235748   5.964   7.623   4.730
11935TIP3   OH235749   6.119   3.673   5.818
11935TIP3    H135750   6.114   3.739   5.888
11935TIP3    H235751   6.176   3.605   5.855
11936TIP3   OH235752   3.995   6.183   4.088
11936TIP3    H135753   3.939   6.189   4.011
11936TIP3    H235754   4.067   6.243   4.069
11937TIP3   OH235755   1.410   5.888   3.158
11937TIP3    H135756   1.422   5.939   3.079
11937TIP3    H235757   1.460   5.807   3.143
11938TIP3   OH235758   4.797   2.690   6.605
11938TIP3    H135759   4.717   2.649   6.572
11938TIP3    H235760   4.827   2.632   6.675
11939TIP3   OH235761   3.521   5.657   6.019
11939TIP3    H135762   3.538   5.566   5.996
11939TIP3    H235763   3.436   5.656   6.062
11940TIP3   OH235764   1.761   6.783   4.723
11940TIP3    H135765   1.687   6.829   4.763
11940TIP3    H235766   1.803   6.737   4.795
11941TIP3   OH235767   6.045   0.564   6.051
11941TIP3    H135768   6.036   0.516   5.969
11941TIP3    H235769   6.069   0.497   6.115
11942TIP3   OH235770   3.795   5.891   2.565
11942TIP3    H135771   3.753   5.903   2.650
11942TIP3    H235772   3.734   5.931   2.502
11943TIP3   OH235773   0.968   5.468   5.206
11943TIP3    H135774   0.971   5.560   5.230
11943TIP3    H235775   0.901   5.431   5.264
11944TIP3   OH235776   0.696   3.202   3.821
11944TIP3    H135777   0.720   3.184   3.912
11944TIP3    H235778   0.731   3.290   3.804
11945TIP3   OH235779   4.178   3.597   0.973
11945TIP3    H135780   4.153   3.688   0.955
11945TIP3    H235781   4.235   3.573   0.899
11946TIP3   OH235782   6.598   6.057   0.086
11946TIP3    H135783   6.602   5.994   0.158
11946TIP3    H235784   6.521   6.029   0.035
11947TIP3   OH235785   0.882   5.095   5.101
11947TIP3    H135786   0.915   5.150   5.030
11947TIP3    H235787   0.959   5.048   5.132
11948TIP3   OH235788   1.605   4.783   4.249
11948TIP3    H135789   1.672   4.851   4.263
11948TIP3    H235790   1.574   4.761   4.337
11949TIP3   OH235791   3.668   4.421   6.477
11949TIP3    H135792   3.589   4.422   6.532
11949TIP3    H235793   3.634   4.431   6.388
11950TIP3   OH235794   7.812   6.912   3.751
11950TIP3    H135795   7.766   6.971   3.691
11950TIP3    H235796   7.830   6.966   3.828
11951TIP3   OH235797   2.131   2.908   2.834
11951TIP3    H135798   2.108   2.953   2.915
11951TIP3    H235799   2.212   2.862   2.854
11952TIP3   OH235800   4.632   2.924   1.000
11952TIP3    H135801   4.549   2.941   0.956
11952TIP3    H235802   4.677   2.862   0.943
11953TIP3   OH235803   0.167   1.087   4.224
11953TIP3    H135804   0.124   1.136   4.293
11953TIP3    H235805   0.211   1.153   4.170
11954TIP3   OH235806   5.080   5.720   4.424
11954TIP3    H135807   5.119   5.755   4.504
11954TIP3    H235808   4.987   5.711   4.443
11955TIP3   OH235809   3.636   4.701   3.941
11955TIP3    H135810   3.698   4.684   4.012
11955TIP3    H235811   3.560   4.739   3.985
11956TIP3   OH235812   0.894   4.655   2.654
11956TIP3    H135813   0.840   4.584   2.619
11956TIP3    H235814   0.906   4.715   2.580
11957TIP3   OH235815   6.406   1.426   3.152
11957TIP3    H135816   6.321   1.440   3.194
11957TIP3    H235817   6.386   1.378   3.072
11958TIP3   OH235818   8.138   7.476   3.736
11958TIP3    H135819   8.070   7.463   3.670
11958TIP3    H235820   8.152   7.389   3.774
11959TIP3   OH235821   4.343   2.204   2.167
11959TIP3    H135822   4.404   2.139   2.203
11959TIP3    H235823   4.265   2.153   2.145
11960TIP3   OH235824   7.941   5.608   3.692
11960TIP3    H135825   8.029   5.591   3.657
11960TIP3    H235826   7.947   5.697   3.727
11961TIP3   OH235827   4.210   6.040   1.409
11961TIP3    H135828   4.265   6.040   1.331
11961TIP3    H235829   4.175   6.129   1.415
11962TIP3   OH235830   6.094   1.818   0.136
11962TIP3    H135831   6.078   1.892   0.078
11962TIP3    H235832   6.074   1.852   0.223
11963TIP3   OH235833   3.740   5.268   3.557
11963TIP3    H135834   3.796   5.191   3.545
11963TIP3    H235835   3.730   5.303   3.468
11964TIP3   OH235836   1.096   3.294   5.735
11964TIP3    H135837   1.119   3.373   5.784
11964TIP3    H235838   1.172   3.279   5.679
11965TIP3   OH235839   0.430   3.322   2.415
11965TIP3    H135840   0.496   3.376   2.371
11965TIP3    H235841   0.454   3.325   2.507
11966TIP3   OH235842   0.472   1.772   4.184
11966TIP3    H135843   0.394   1.780   4.239
11966TIP3    H235844   0.544   1.797   4.242
11967TIP3   OH235845   1.868   5.780   0.805
11967TIP3    H135846   1.795   5.806   0.861
11967TIP3    H235847   1.884   5.856   0.750
11968TIP3   OH235848   5.543   6.112   0.108
11968TIP3    H135849   5.568   6.204   0.116
11968TIP3    H235850   5.545   6.078   0.197
11969TIP3   OH235851   2.788   0.179   0.863
11969TIP3    H135852   2.874   0.169   0.903
11969TIP3    H235853   2.731   0.121   0.913
11970TIP3   OH235854   1.175   6.613   1.979
11970TIP3    H135855   1.098   6.567   1.946
11970TIP3    H235856   1.192   6.574   2.064
11971TIP3   OH235857   6.696   1.375   1.236
11971TIP3    H135858   6.760   1.305   1.226
11971TIP3    H235859   6.745   1.455   1.217
11972TIP3   OH235860   2.450   5.328   4.353
11972TIP3    H135861   2.361   5.352   4.378
11972TIP3    H235862   2.496   5.316   4.436
11973TIP3   OH235863   7.605   6.005   6.764
11973TIP3    H135864   7.692   6.017   6.804
11973TIP3    H235865   7.615   6.037   6.675
11974TIP3   OH235866   5.316   6.395   3.834
11974TIP3    H135867   5.375   6.358   3.899
11974TIP3    H235868   5.282   6.320   3.786
11975TIP3   OH235869   2.824   6.136   1.086
11975TIP3    H135870   2.835   6.179   1.171
11975TIP3    H235871   2.855   6.200   1.023
11976TIP3   OH235872   5.510   4.349   3.074
11976TIP3    H135873   5.488   4.441   3.084
11976TIP3    H235874   5.598   4.341   3.112
11977TIP3   OH235875   1.143   7.128   2.802
11977TIP3    H135876   1.202   7.153   2.873
11977TIP3    H235877   1.200   7.096   2.733
11978TIP3   OH235878   6.854   2.950   2.547
11978TIP3    H135879   6.892   3.033   2.520
11978TIP3    H235880   6.761   2.969   2.559
11979TIP3   OH235881   4.005   4.224   2.473
11979TIP3    H135882   3.992   4.129   2.476
11979TIP3    H235883   3.981   4.247   2.383
11980TIP3   OH235884   0.129   4.875   4.116
11980TIP3    H135885   0.102   4.784   4.106
11980TIP3    H235886   0.223   4.874   4.099
11981TIP3   OH235887   7.369   2.093   4.109
11981TIP3    H135888   7.349   2.138   4.027
11981TIP3    H235889   7.333   2.149   4.178
11982TIP3   OH235890   2.727   2.308   1.339
11982TIP3    H135891   2.801   2.357   1.303
11982TIP3    H235892   2.684   2.369   1.399
11983TIP3   OH235893   0.997   3.020   6.330
11983TIP3    H135894   1.011   3.017   6.425
11983TIP3    H235895   1.005   2.928   6.303
11984TIP3   OH235896   6.937   1.471   6.639
11984TIP3    H135897   6.883   1.546   6.613
11984TIP3    H235898   6.941   1.478   6.735
11985TIP3   OH235899   1.172   2.418   6.330
11985TIP3    H135900   1.206   2.503   6.302
11985TIP3    H235901   1.249   2.371   6.363
11986TIP3   OH235902   5.141   6.872   0.755
11986TIP3    H135903   5.189   6.899   0.676
11986TIP3    H235904   5.079   6.806   0.724
11987TIP3   OH235905   0.330   6.383   6.324
11987TIP3    H135906   0.240   6.368   6.294
11987TIP3    H235907   0.372   6.297   6.317
11988TIP3   OH235908   3.562   7.138   5.565
11988TIP3    H135909   3.640   7.083   5.569
11988TIP3    H235910   3.569   7.194   5.642
11989TIP3   OH235911   2.544   1.825   6.005
11989TIP3    H135912   2.634   1.841   5.979
11989TIP3    H235913   2.495   1.823   5.922
11990TIP3   OH235914   5.787   0.634   1.482
11990TIP3    H135915   5.847   0.697   1.442
11990TIP3    H235916   5.703   0.680   1.485
11991TIP3   OH235917   7.024   6.459   5.303
11991TIP3    H135918   6.984   6.501   5.227
11991TIP3    H235919   7.107   6.506   5.315
11992TIP3   OH235920   7.822   7.193   0.365
11992TIP3    H135921   7.894   7.251   0.387
11992TIP3    H235922   7.837   7.116   0.420
11993TIP3   OH235923   6.565   5.099   4.886
11993TIP3    H135924   6.656   5.126   4.888
11993TIP3    H235925   6.546   5.083   4.794
11994TIP3   OH235926   6.162   1.666   1.316
11994TIP3    H135927   6.113   1.587   1.340
11994TIP3    H235928   6.233   1.633   1.261
11995TIP3   OH235929   3.904   3.044   3.750
11995TIP3    H135930   3.815   3.025   3.780
11995TIP3    H235931   3.955   2.966   3.774
11996TIP3   OH235932   3.070   4.359   5.299
11996TIP3    H135933   3.067   4.294   5.369
11996TIP3    H235934   3.159   4.353   5.264
11997TIP3   OH235935   0.116   5.394   5.584
11997TIP3    H135936   0.160   5.391   5.499
11997TIP3    H235937   0.186   5.385   5.648
11998TIP3   OH235938   4.981   2.660   5.245
11998TIP3    H135939   5.013   2.718   5.315
11998TIP3    H235940   5.052   2.598   5.231
11999TIP3   OH235941   3.976   0.708   4.866
11999TIP3    H135942   4.053   0.752   4.902
11999TIP3    H235943   3.902   0.746   4.914
12000TIP3   OH235944   2.753   2.654   0.775
12000TIP3    H135945   2.766   2.731   0.720
12000TIP3    H235946   2.804   2.585   0.732
12001TIP3   OH235947   4.843   5.514   5.641
12001TIP3    H135948   4.793   5.449   5.689
12001TIP3    H235949   4.839   5.593   5.695
12002TIP3   OH235950   0.854   6.878   1.735
12002TIP3    H135951   0.806   6.856   1.815
12002TIP3    H235952   0.929   6.818   1.734
12003TIP3   OH235953   1.320   1.942   1.853
12003TIP3    H135954   1.394   1.953   1.912
12003TIP3    H235955   1.260   1.882   1.898
12004TIP3   OH235956   2.174   0.510   2.937
12004TIP3    H135957   2.245   0.459   2.977
12004TIP3    H235958   2.210   0.540   2.854
12005TIP3   OH235959   5.791   1.794   4.936
12005TIP3    H135960   5.767   1.804   5.029
12005TIP3    H235961   5.750   1.868   4.893
12006TIP3   OH235962   5.072   6.602   6.487
12006TIP3    H135963   5.148   6.641   6.530
12006TIP3    H235964   5.057   6.658   6.411
12007TIP3   OH235965   1.614   7.003   6.575
12007TIP3    H135966   1.648   7.054   6.648
12007TIP3    H235967   1.634   6.912   6.597
12008TIP3   OH235968   3.955   7.276   0.542
12008TIP3    H135969   3.959   7.361   0.496
12008TIP3    H235970   3.862   7.259   0.552
12009TIP3   OH235971   4.465   5.694   4.747
12009TIP3    H135972   4.372   5.709   4.729
12009TIP3    H235973   4.468   5.677   4.841
12010TIP3   OH235974   6.104   7.330   4.587
12010TIP3    H135975   6.128   7.421   4.571
12010TIP3    H235976   6.028   7.315   4.531
12011TIP3   OH235977   7.957   2.181   2.616
12011TIP3    H135978   7.928   2.090   2.624
12011TIP3    H235979   8.031   2.177   2.556
12012TIP3   OH235980   5.375   1.093   2.006
12012TIP3    H135981   5.284   1.065   1.995
12012TIP3    H235982   5.413   1.084   1.919
12013TIP3   OH235983   0.965   3.525   0.659
12013TIP3    H135984   0.955   3.484   0.745
12013TIP3    H235985   0.940   3.458   0.596
12014TIP3   OH235986   2.193   1.533   2.875
12014TIP3    H135987   2.185   1.478   2.797
12014TIP3    H235988   2.213   1.472   2.946
12015TIP3   OH235989   0.574   2.971   3.691
12015TIP3    H135990   0.534   2.951   3.775
12015TIP3    H235991   0.633   3.044   3.709
12016TIP3   OH235992   6.317   6.269   2.800
12016TIP3    H135993   6.328   6.175   2.789
12016TIP3    H235994   6.303   6.302   2.711
12017TIP3   OH235995   1.533   4.830   2.667
12017TIP3    H135996   1.447   4.825   2.710
12017TIP3    H235997   1.514   4.817   2.574
12018TIP3   OH235998   0.871   1.795   1.848
12018TIP3    H135999   0.905   1.716   1.889
12018TIP3    H236000   0.810   1.831   1.913
12019TIP3   OH236001   3.284   2.193   3.369
12019TIP3    H136002   3.348   2.241   3.317
12019TIP3    H236003   3.201   2.237   3.351
12020TIP3   OH236004   3.655   2.619   4.857
12020TIP3    H136005   3.716   2.692   4.854
12020TIP3    H236006   3.599   2.637   4.933
12021TIP3   OH236007   4.596   0.640   3.449
12021TIP3    H136008   4.524   0.596   3.404
12021TIP3    H236009   4.670   0.633   3.389
12022TIP3   OH236010   8.240   1.494   2.855
12022TIP3    H136011   8.150   1.518   2.879
12022TIP3    H236012   8.230   1.437   2.779
12023TIP3   OH236013   3.659   0.209   2.979
12023TIP3    H136014   3.567   0.234   2.975
12023TIP3    H236015   3.706   0.290   2.998
12024TIP3   OH236016   5.068   5.483   2.986
12024TIP3    H136017   5.106   5.566   3.016
12024TIP3    H236018   4.978   5.506   2.960
12025TIP3   OH236019   4.869   5.768   3.717
12025TIP3    H136020   4.818   5.779   3.636
12025TIP3    H236021   4.804   5.759   3.786
12026TIP3   OH236022   4.795   6.165   6.774
12026TIP3    H136023   4.869   6.131   6.723
12026TIP3    H236024   4.719   6.116   6.742
12027TIP3   OH236025   5.375   7.555   4.445
12027TIP3    H136026   5.376   7.513   4.532
12027TIP3    H236027   5.317   7.500   4.393
12028TIP3   OH236028   0.303   3.125   3.463
12028TIP3    H136029   0.305   3.050   3.405
12028TIP3    H236030   0.210   3.144   3.475
12029TIP3   OH236031   0.766   7.291   5.386
12029TIP3    H136032   0.759   7.307   5.480
12029TIP3    H236033   0.717   7.210   5.372
12030TIP3   OH236034   4.578   4.583   1.832
12030TIP3    H136035   4.673   4.594   1.825
12030TIP3    H236036   4.564   4.489   1.819
12031TIP3   OH236037   4.386   5.798   5.382
12031TIP3    H136038   4.348   5.876   5.343
12031TIP3    H236039   4.314   5.736   5.387
12032TIP3   OH236040   5.986   5.933   2.112
12032TIP3    H136041   6.004   5.936   2.019
12032TIP3    H236042   5.894   5.959   2.120
12033TIP3   OH236043   1.389   0.371   3.902
12033TIP3    H136044   1.458   0.406   3.845
12033TIP3    H236045   1.436   0.315   3.964
12034TIP3   OH236046   1.601   5.107   5.378
12034TIP3    H136047   1.559   5.192   5.384
12034TIP3    H236048   1.536   5.051   5.335
12035TIP3   OH236049   0.903   5.046   4.520
12035TIP3    H136050   0.890   5.031   4.613
12035TIP3    H236051   0.991   5.083   4.513
12036TIP3   OH236052   6.043   6.148   2.612
12036TIP3    H136053   6.029   6.105   2.528
12036TIP3    H236054   6.066   6.078   2.672
12037TIP3   OH236055   2.928   5.480   4.876
12037TIP3    H136056   3.011   5.443   4.845
12037TIP3    H236057   2.936   5.480   4.972
12038TIP3   OH236058   5.685   6.211   4.783
12038TIP3    H136059   5.733   6.163   4.850
12038TIP3    H236060   5.652   6.289   4.827
12039TIP3   OH236061   6.127   2.377   3.651
12039TIP3    H136062   6.085   2.305   3.697
12039TIP3    H236063   6.161   2.337   3.570
12040TIP3   OH236064   6.667   5.188   0.893
12040TIP3    H136065   6.663   5.112   0.952
12040TIP3    H236066   6.739   5.240   0.927
12041TIP3   OH236067   0.282   1.254   4.038
12041TIP3    H136068   0.361   1.263   3.984
12041TIP3    H236069   0.263   1.342   4.068
12042TIP3   OH236070   2.613   7.014   6.036
12042TIP3    H136071   2.653   6.928   6.019
12042TIP3    H236072   2.526   7.008   5.997
12043TIP3   OH236073   7.452   0.448   2.193
12043TIP3    H136074   7.471   0.410   2.279
12043TIP3    H236075   7.358   0.466   2.195
12044TIP3   OH236076   0.091   0.080   3.977
12044TIP3    H136077   0.034   0.034   4.038
12044TIP3    H236078   0.169   0.024   3.970
12045TIP3   OH236079   2.055   6.035   1.035
12045TIP3    H136080   2.043   6.116   1.086
12045TIP3    H236081   2.149   6.034   1.015
12046TIP3   OH236082   4.685   7.491   3.020
12046TIP3    H136083   4.613   7.501   3.082
12046TIP3    H236084   4.717   7.579   3.005
12047TIP3   OH236085   0.231   1.534   5.274
12047TIP3    H136086   0.209   1.582   5.194
12047TIP3    H236087   0.236   1.602   5.342
12048TIP3   OH236088   7.668   5.892   2.043
12048TIP3    H136089   7.716   5.886   1.960
12048TIP3    H236090   7.627   5.979   2.040
12049TIP3   OH236091   7.152   6.663   4.552
12049TIP3    H136092   7.203   6.667   4.632
12049TIP3    H236093   7.113   6.750   4.543
12050TIP3   OH236094   6.041   1.095   4.716
12050TIP3    H136095   6.101   1.081   4.788
12050TIP3    H236096   6.049   1.188   4.694
12051TIP3   OH236097   3.403   5.295   3.136
12051TIP3    H136098   3.448   5.283   3.220
12051TIP3    H236099   3.439   5.376   3.100
12052TIP3   OH236100   4.599   3.279   1.021
12052TIP3    H136101   4.679   3.268   1.072
12052TIP3    H236102   4.540   3.211   1.054
12053TIP3   OH236103   0.939   4.536   6.747
12053TIP3    H136104   0.957   4.480   6.671
12053TIP3    H236105   0.880   4.604   6.714
12054TIP3   OH236106   8.058   2.792   3.997
12054TIP3    H136107   8.076   2.763   4.087
12054TIP3    H236108   7.994   2.862   4.008
12055TIP3   OH236109   4.004   6.048   4.807
12055TIP3    H136110   4.086   6.027   4.761
12055TIP3    H236111   4.032   6.073   4.895
12056TIP3   OH236112   4.438   6.722   5.316
12056TIP3    H136113   4.512   6.783   5.320
12056TIP3    H236114   4.467   6.646   5.368
12057TIP3   OH236115   6.527   2.900   6.572
12057TIP3    H136116   6.512   2.869   6.662
12057TIP3    H236117   6.529   2.820   6.520
12058TIP3   OH236118   5.237   0.780   6.550
12058TIP3    H136119   5.282   0.797   6.468
12058TIP3    H236120   5.224   0.867   6.589
12059TIP3   OH236121   1.836   0.290   4.703
12059TIP3    H136122   1.796   0.319   4.785
12059TIP3    H236123   1.764   0.291   4.640
12060TIP3   OH236124   6.718   3.866   0.894
12060TIP3    H136125   6.726   3.890   0.802
12060TIP3    H236126   6.791   3.910   0.937
12061TIP3   OH236127   0.779   0.767   6.556
12061TIP3    H136128   0.734   0.717   6.623
12061TIP3    H236129   0.709   0.810   6.507
12062TIP3   OH236130   4.648   2.268   3.985
12062TIP3    H136131   4.574   2.223   3.944
12062TIP3    H236132   4.664   2.219   4.066
12063TIP3   OH236133   4.458   5.520   5.968
12063TIP3    H136134   4.454   5.594   6.030
12063TIP3    H236135   4.367   5.495   5.955
12064TIP3   OH236136   6.337   5.354   3.215
12064TIP3    H136137   6.367   5.292   3.148
12064TIP3    H236138   6.416   5.380   3.261
12065TIP3   OH236139   8.289   0.495   3.922
12065TIP3    H136140   8.213   0.550   3.943
12065TIP3    H236141   8.256   0.406   3.932
12066TIP3   OH236142   4.993   7.420   1.435
12066TIP3    H136143   5.012   7.448   1.345
12066TIP3    H236144   5.060   7.463   1.488
12067TIP3   OH236145   3.162   4.320   6.648
12067TIP3    H136146   3.173   4.261   6.573
12067TIP3    H236147   3.071   4.309   6.673
12068TIP3   OH236148   2.346   6.514   5.279
12068TIP3    H136149   2.338   6.515   5.374
12068TIP3    H236150   2.286   6.581   5.248
12069TIP3   OH236151   2.726   5.664   6.639
12069TIP3    H136152   2.786   5.687   6.568
12069TIP3    H236153   2.774   5.599   6.691
12070TIP3   OH236154   5.670   4.261   5.942
12070TIP3    H136155   5.640   4.207   6.015
12070TIP3    H236156   5.668   4.351   5.975
12071TIP3   OH236157   1.885   0.509   4.044
12071TIP3    H136158   1.854   0.572   4.109
12071TIP3    H236159   1.839   0.428   4.066
12072TIP3   OH236160   0.911   1.039   0.258
12072TIP3    H136161   0.936   1.131   0.255
12072TIP3    H236162   0.885   1.018   0.168
12073TIP3   OH236163   6.014   5.144   1.334
12073TIP3    H136164   5.971   5.187   1.260
12073TIP3    H236165   6.070   5.078   1.295
12074TIP3   OH236166   3.473   5.699   0.647
12074TIP3    H136167   3.568   5.712   0.641
12074TIP3    H236168   3.438   5.739   0.567
12075TIP3   OH236169   4.572   3.909   4.925
12075TIP3    H136170   4.549   3.854   4.850
12075TIP3    H236171   4.532   3.994   4.906
12076TIP3   OH236172   7.355   5.209   6.617
12076TIP3    H136173   7.433   5.154   6.614
12076TIP3    H236174   7.282   5.149   6.604
12077TIP3   OH236175   0.763   4.724   6.633
12077TIP3    H136176   0.688   4.725   6.693
12077TIP3    H236177   0.724   4.728   6.546
12078TIP3   OH236178   4.301   5.619   3.942
12078TIP3    H136179   4.305   5.626   3.847
12078TIP3    H236180   4.367   5.680   3.974
12079TIP3   OH236181   6.292   3.357   5.733
12079TIP3    H136182   6.231   3.346   5.660
12079TIP3    H236183   6.356   3.421   5.701
12080TIP3   OH236184   7.501   0.141   2.601
12080TIP3    H136185   7.427   0.159   2.660
12080TIP3    H236186   7.569   0.105   2.658
12081TIP3   OH236187   0.205   5.126   2.325
12081TIP3    H136188   0.226   5.118   2.418
12081TIP3    H236189   0.109   5.137   2.323
12082TIP3   OH236190   0.799   4.243   3.242
12082TIP3    H136191   0.868   4.259   3.307
12082TIP3    H236192   0.813   4.311   3.176
12083TIP3   OH236193   6.811   2.042   1.496
12083TIP3    H136194   6.743   2.101   1.463
12083TIP3    H236195   6.764   1.962   1.520
12084TIP3   OH236196   1.804   2.955   3.669
12084TIP3    H136197   1.849   2.976   3.588
12084TIP3    H236198   1.786   2.861   3.664
12085TIP3   OH236199   6.437   6.526   1.051
12085TIP3    H136200   6.529   6.502   1.061
12085TIP3    H236201   6.419   6.514   0.957
12086TIP3   OH236202   2.442   6.486   5.923
12086TIP3    H136203   2.409   6.488   6.013
12086TIP3    H236204   2.398   6.411   5.883
12087TIP3   OH236205   7.882   7.408  -0.012
12087TIP3    H136206   7.862   7.500  -0.033
12087TIP3    H236207   7.850   7.397   0.077
12088TIP3   OH236208   4.140   5.031   0.961
12088TIP3    H136209   4.227   4.992   0.955
12088TIP3    H236210   4.089   4.986   0.894
12089TIP3   OH236211   5.303   3.817   0.971
12089TIP3    H136212   5.258   3.882   0.916
12089TIP3    H236213   5.391   3.811   0.934
12090TIP3   OH236214   6.031   2.866   2.690
12090TIP3    H136215   5.951   2.831   2.649
12090TIP3    H236216   6.102   2.820   2.646
12091TIP3   OH236217   0.858   1.325   0.370
12091TIP3    H136218   0.838   1.304   0.461
12091TIP3    H236219   0.787   1.285   0.320
12092TIP3   OH236220   5.401   4.441   6.492
12092TIP3    H136221   5.473   4.458   6.553
12092TIP3    H236222   5.419   4.496   6.416
12093TIP3   OH236223   0.307   1.516   4.175
12093TIP3    H136224   0.358   1.550   4.101
12093TIP3    H236225   0.229   1.572   4.177
12094TIP3   OH236226   3.946   7.043   3.843
12094TIP3    H136227   4.004   7.120   3.839
12094TIP3    H236228   3.954   7.003   3.757
12095TIP3   OH236229   0.205   1.336   4.382
12095TIP3    H136230   0.243   1.404   4.326
12095TIP3    H236231   0.112   1.338   4.361
12096TIP3   OH236232   4.235   5.198   0.123
12096TIP3    H136233   4.179   5.263   0.165
12096TIP3    H236234   4.206   5.114   0.159
12097TIP3   OH236235   4.616   5.039   3.284
12097TIP3    H136236   4.674   4.968   3.312
12097TIP3    H236237   4.671   5.117   3.288
12098TIP3   OH236238   7.755   2.064   6.100
12098TIP3    H136239   7.849   2.081   6.100
12098TIP3    H236240   7.746   1.978   6.061
12099TIP3   OH236241   2.338   4.470   6.375
12099TIP3    H136242   2.412   4.499   6.428
12099TIP3    H236243   2.323   4.542   6.312
12100TIP3   OH236244   5.819   2.760   5.902
12100TIP3    H136245   5.737   2.796   5.868
12100TIP3    H236246   5.825   2.793   5.992
12101TIP3   OH236247   5.596   5.335   5.516
12101TIP3    H136248   5.613   5.401   5.583
12101TIP3    H236249   5.679   5.324   5.471
12102TIP3   OH236250   3.653   5.087   2.430
12102TIP3    H136251   3.697   5.167   2.400
12102TIP3    H236252   3.665   5.088   2.525
12103TIP3   OH236253   2.822   3.403   3.061
12103TIP3    H136254   2.844   3.322   3.106
12103TIP3    H236255   2.783   3.375   2.978
12104TIP3   OH236256   2.197   4.879   5.079
12104TIP3    H136257   2.115   4.903   5.121
12104TIP3    H236258   2.173   4.865   4.987
12105TIP3   OH236259   7.816   2.081   1.500
12105TIP3    H136260   7.853   2.142   1.436
12105TIP3    H236261   7.722   2.086   1.487
12106TIP3   OH236262   6.495   5.779   3.914
12106TIP3    H136263   6.405   5.797   3.941
12106TIP3    H236264   6.490   5.770   3.818
12107TIP3   OH236265   6.276   0.222   6.620
12107TIP3    H136266   6.262   0.127   6.621
12107TIP3    H236267   6.194   0.258   6.587
12108TIP3   OH236268   4.832   3.282   1.679
12108TIP3    H136269   4.785   3.207   1.645
12108TIP3    H236270   4.781   3.311   1.755
12109TIP3   OH236271   5.940   2.981   2.072
12109TIP3    H136272   6.027   3.009   2.043
12109TIP3    H236273   5.918   3.040   2.144
12110TIP3   OH236274   0.830   5.887   6.357
12110TIP3    H136275   0.821   5.922   6.268
12110TIP3    H236276   0.924   5.878   6.370
12111TIP3   OH236277   6.616   3.628   1.030
12111TIP3    H136278   6.699   3.582   1.039
12111TIP3    H236279   6.639   3.711   0.987
12112TIP3   OH236280   4.582   7.807   3.744
12112TIP3    H136281   4.595   7.721   3.783
12112TIP3    H236282   4.487   7.820   3.745
12113TIP3   OH236283   0.526   0.194   2.974
12113TIP3    H136284   0.608   0.227   3.011
12113TIP3    H236285   0.554   0.131   2.907
12114TIP3   OH236286   7.773   6.527   2.497
12114TIP3    H136287   7.765   6.440   2.458
12114TIP3    H236288   7.687   6.543   2.536
12115TIP3   OH236289   7.667   3.738   3.980
12115TIP3    H136290   7.690   3.651   3.946
12115TIP3    H236291   7.617   3.720   4.060
12116TIP3   OH236292   7.980   0.909   6.797
12116TIP3    H136293   8.010   0.997   6.817
12116TIP3    H236294   7.969   0.908   6.702
12117TIP3   OH236295   6.418   0.979   6.177
12117TIP3    H136296   6.495   0.938   6.216
12117TIP3    H236297   6.416   0.944   6.087
12118TIP3   OH236298   4.490   2.129   0.762
12118TIP3    H136299   4.461   2.137   0.853
12118TIP3    H236300   4.566   2.186   0.756
12119TIP3   OH236301   3.165   3.815   5.993
12119TIP3    H136302   3.151   3.894   5.942
12119TIP3    H236303   3.115   3.747   5.947
12120TIP3   OH236304   4.694   2.329   0.056
12120TIP3    H136305   4.742   2.258   0.014
12120TIP3    H236306   4.728   2.332   0.146
12121TIP3   OH236307   7.836   1.040   4.189
12121TIP3    H136308   7.763   1.021   4.248
12121TIP3    H236309   7.871   1.123   4.220
12122TIP3   OH236310   7.645   6.589   4.595
12122TIP3    H136311   7.684   6.651   4.533
12122TIP3    H236312   7.712   6.577   4.663
12123TIP3   OH236313   3.643   2.706   2.370
12123TIP3    H136314   3.718   2.693   2.312
12123TIP3    H236315   3.569   2.672   2.320
12124TIP3   OH236316   7.466   2.125   3.170
12124TIP3    H136317   7.457   2.190   3.100
12124TIP3    H236318   7.530   2.063   3.136
12125TIP3   OH236319   6.322   1.097   4.456
12125TIP3    H136320   6.353   1.151   4.384
12125TIP3    H236321   6.370   1.129   4.532
12126TIP3   OH236322   5.314   2.536   4.265
12126TIP3    H136323   5.245   2.577   4.318
12126TIP3    H236324   5.269   2.510   4.184
12127TIP3   OH236325   2.115   4.896   4.087
12127TIP3    H136326   2.121   4.843   4.166
12127TIP3    H236327   2.034   4.866   4.044
12128TIP3   OH236328   0.067   0.326   4.228
12128TIP3    H136329   0.014   0.405   4.215
12128TIP3    H236330   0.154   0.359   4.250
12129TIP3   OH236331   1.322   0.222   6.709
12129TIP3    H136332   1.393   0.228   6.774
12129TIP3    H236333   1.316   0.129   6.689
12130TIP3   OH236334   5.192   3.561   2.443
12130TIP3    H136335   5.222   3.606   2.522
12130TIP3    H236336   5.106   3.599   2.425
12131TIP3   OH236337   4.188   4.866   3.305
12131TIP3    H136338   4.206   4.835   3.393
12131TIP3    H236339   4.203   4.790   3.249
12132TIP3   OH236340   7.807   7.574   1.694
12132TIP3    H136341   7.895   7.584   1.732
12132TIP3    H236342   7.808   7.629   1.616
12133TIP3   OH236343   0.701   4.769   2.987
12133TIP3    H136344   0.738   4.693   2.943
12133TIP3    H236345   0.769   4.796   3.049
12134TIP3   OH236346   4.204   5.992   3.551
12134TIP3    H136347   4.290   6.032   3.548
12134TIP3    H236348   4.214   5.910   3.502
12135TIP3   OH236349   1.891   7.635   5.390
12135TIP3    H136350   1.878   7.727   5.371
12135TIP3    H236351   1.812   7.607   5.435
12136TIP3   OH236352   0.022   4.016   6.288
12136TIP3    H136353  -0.047   3.966   6.331
12136TIP3    H236354   0.089   4.029   6.355
12137TIP3   OH236355   4.749   6.007   1.120
12137TIP3    H136356   4.678   5.943   1.126
12137TIP3    H236357   4.754   6.045   1.208
12138TIP3   OH236358   4.561   0.535   2.633
12138TIP3    H136359   4.648   0.561   2.665
12138TIP3    H236360   4.513   0.512   2.712
12139TIP3   OH236361   0.909   5.098   5.878
12139TIP3    H136362   0.877   5.177   5.922
12139TIP3    H236363   0.993   5.124   5.841
12140TIP3   OH236364   1.948   5.204   1.006
12140TIP3    H136365   1.888   5.249   1.066
12140TIP3    H236366   1.988   5.273   0.955
12141TIP3   OH236367   6.547   2.172   4.291
12141TIP3    H136368   6.455   2.191   4.311
12141TIP3    H236369   6.550   2.167   4.196
12142TIP3   OH236370   3.839   5.054   0.114
12142TIP3    H136371   3.758   5.004   0.126
12142TIP3    H236372   3.815   5.122   0.051
12143TIP3   OH236373   7.214   6.626   4.092
12143TIP3    H136374   7.218   6.616   3.997
12143TIP3    H236375   7.165   6.549   4.122
12144TIP3   OH236376   0.244   0.344   6.405
12144TIP3    H136377   0.333   0.340   6.371
12144TIP3    H236378   0.254   0.332   6.500
12145TIP3   OH236379   5.023   0.779   4.015
12145TIP3    H136380   4.969   0.855   4.041
12145TIP3    H236381   4.975   0.703   4.048
12146TIP3   OH236382   6.699   7.704   6.750
12146TIP3    H136383   6.666   7.767   6.686
12146TIP3    H236384   6.641   7.714   6.826
12147TIP3   OH236385   3.109   3.629   2.914
12147TIP3    H136386   3.174   3.558   2.914
12147TIP3    H236387   3.034   3.592   2.868
12148TIP3   OH236388   0.620   3.627   1.201
12148TIP3    H136389   0.715   3.623   1.205
12148TIP3    H236390   0.595   3.551   1.150
12149TIP3   OH236391   7.668   6.101   2.796
12149TIP3    H136392   7.590   6.087   2.742
12149TIP3    H236393   7.741   6.097   2.734
12150TIP3   OH236394   6.884   4.393   2.071
12150TIP3    H136395   6.864   4.333   1.999
12150TIP3    H236396   6.919   4.337   2.140
12151TIP3   OH236397   7.254   5.644   0.574
12151TIP3    H136398   7.293   5.651   0.661
12151TIP3    H236399   7.286   5.561   0.539
12152TIP3   OH236400   1.145   5.557   4.565
12152TIP3    H136401   1.078   5.503   4.523
12152TIP3    H236402   1.184   5.606   4.493
12153TIP3   OH236403   6.082   7.320   2.255
12153TIP3    H136404   6.150   7.365   2.304
12153TIP3    H236405   6.016   7.297   2.321
12154TIP3   OH236406   3.791   2.630   0.034
12154TIP3    H136407   3.829   2.542   0.029
12154TIP3    H236408   3.866   2.688   0.021
12155TIP3   OH236409   4.042   7.320   3.059
12155TIP3    H136410   4.053   7.235   3.101
12155TIP3    H236411   4.011   7.377   3.129
12156TIP3   OH236412   7.829   0.113   0.156
12156TIP3    H136413   7.827   0.208   0.159
12156TIP3    H236414   7.742   0.088   0.124
12157TIP3   OH236415   5.114   0.841   0.095
12157TIP3    H136416   5.135   0.834   0.002
12157TIP3    H236417   5.194   0.875   0.135
12158TIP3   OH236418   6.307   5.775   6.718
12158TIP3    H136419   6.231   5.822   6.755
12158TIP3    H236420   6.276   5.741   6.634
12159TIP3   OH236421   0.271   2.653   0.109
12159TIP3    H136422   0.355   2.654   0.156
12159TIP3    H236423   0.219   2.721   0.151
12160TIP3   OH236424   2.944   5.857   1.415
12160TIP3    H136425   2.869   5.804   1.440
12160TIP3    H236426   3.016   5.824   1.469
12161TIP3   OH236427   2.271   2.004   4.600
12161TIP3    H136428   2.211   2.057   4.547
12161TIP3    H236429   2.357   2.041   4.584
12162TIP3   OH236430   5.303   4.829   5.287
12162TIP3    H136431   5.213   4.826   5.322
12162TIP3    H236432   5.319   4.740   5.255
12163TIP3   OH236433   4.747   5.912   4.465
12163TIP3    H136434   4.660   5.910   4.506
12163TIP3    H236435   4.758   5.824   4.429
12164TIP3   OH236436   6.923   1.737   4.540
12164TIP3    H136437   7.010   1.743   4.502
12164TIP3    H236438   6.888   1.654   4.506
12165TIP3   OH236439   0.419   7.450   3.063
12165TIP3    H136440   0.486   7.397   3.020
12165TIP3    H236441   0.387   7.396   3.135
12166TIP3   OH236442   5.390   5.807   0.291
12166TIP3    H136443   5.313   5.812   0.235
12166TIP3    H236444   5.371   5.866   0.364
12167TIP3   OH236445   3.368   4.286   4.013
12167TIP3    H136446   3.285   4.329   4.036
12167TIP3    H236447   3.369   4.285   3.918
12168TIP3   OH236448   7.735   2.251   5.896
12168TIP3    H136449   7.714   2.217   5.983
12168TIP3    H236450   7.661   2.307   5.874
12169TIP3   OH236451   0.841   3.843   1.435
12169TIP3    H136452   0.807   3.764   1.479
12169TIP3    H236453   0.869   3.900   1.506
12170TIP3   OH236454   7.283   0.221   1.573
12170TIP3    H136455   7.375   0.248   1.562
12170TIP3    H236456   7.257   0.187   1.488
12171TIP3   OH236457   5.549   2.871   2.279
12171TIP3    H136458   5.475   2.810   2.283
12171TIP3    H236459   5.511   2.957   2.294
12172TIP3   OH236460   1.605   2.340   0.657
12172TIP3    H136461   1.529   2.311   0.606
12172TIP3    H236462   1.610   2.278   0.729
12173TIP3   OH236463   0.764   2.909   2.168
12173TIP3    H136464   0.685   2.961   2.150
12173TIP3    H236465   0.750   2.874   2.256
12174TIP3   OH236466   8.205   6.785   3.848
12174TIP3    H136467   8.217   6.851   3.780
12174TIP3    H236468   8.201   6.702   3.799
12175TIP3   OH236469   6.107   3.868   5.410
12175TIP3    H136470   6.153   3.795   5.368
12175TIP3    H236471   6.077   3.923   5.337
12176TIP3   OH236472   3.747   1.512   3.130
12176TIP3    H136473   3.708   1.433   3.166
12176TIP3    H236474   3.691   1.535   3.056
12177TIP3   OH236475   1.800   4.290   2.313
12177TIP3    H136476   1.768   4.208   2.351
12177TIP3    H236477   1.825   4.267   2.223
12178TIP3   OH236478   6.298   2.979   4.995
12178TIP3    H136479   6.242   3.027   4.934
12178TIP3    H236480   6.245   2.971   5.075
12179TIP3   OH236481   5.348   6.817   5.238
12179TIP3    H136482   5.306   6.756   5.298
12179TIP3    H236483   5.322   6.787   5.151
12180TIP3   OH236484   7.228   1.170   4.379
12180TIP3    H136485   7.282   1.113   4.324
12180TIP3    H236486   7.289   1.237   4.411
12181TIP3   OH236487   4.589   6.516   1.518
12181TIP3    H136488   4.670   6.537   1.472
12181TIP3    H236489   4.577   6.589   1.579
12182TIP3   OH236490   0.215   7.068   0.766
12182TIP3    H136491   0.123   7.091   0.754
12182TIP3    H236492   0.254   7.078   0.679
12183TIP3   OH236493   5.155   0.205   1.651
12183TIP3    H136494   5.248   0.186   1.637
12183TIP3    H236495   5.125   0.241   1.568
12184TIP3   OH236496   1.675   0.744   0.932
12184TIP3    H136497   1.583   0.720   0.920
12184TIP3    H236498   1.714   0.737   0.844
12185TIP3   OH236499   1.467   6.680   4.633
12185TIP3    H136500   1.479   6.659   4.541
12185TIP3    H236501   1.555   6.676   4.670
12186TIP3   OH236502   0.184   1.038   5.166
12186TIP3    H136503   0.256   1.095   5.194
12186TIP3    H236504   0.127   1.096   5.115
12187TIP3   OH236505   5.186   6.641   1.717
12187TIP3    H136506   5.110   6.691   1.748
12187TIP3    H236507   5.176   6.638   1.622
12188TIP3   OH236508   5.500   7.063   0.908
12188TIP3    H136509   5.559   7.026   0.974
12188TIP3    H236510   5.473   6.988   0.855
12189TIP3   OH236511   6.056   5.625   3.539
12189TIP3    H136512   5.989   5.622   3.471
12189TIP3    H236513   6.115   5.553   3.517
12190TIP3   OH236514   5.428   3.924   1.528
12190TIP3    H136515   5.430   3.936   1.434
12190TIP3    H236516   5.500   3.979   1.561
12191TIP3   OH236517   5.958   0.683   3.190
12191TIP3    H136518   6.026   0.646   3.246
12191TIP3    H236519   5.876   0.658   3.232
12192TIP3   OH236520   1.388   7.607   4.497
12192TIP3    H136521   1.443   7.532   4.518
12192TIP3    H236522   1.435   7.652   4.426
12193TIP3   OH236523   7.618   3.480   4.862
12193TIP3    H136524   7.640   3.443   4.776
12193TIP3    H236525   7.540   3.431   4.889
12194TIP3   OH236526   2.609   0.982   6.445
12194TIP3    H136527   2.519   1.003   6.424
12194TIP3    H236528   2.613   0.985   6.541
12195TIP3   OH236529   4.111   3.786   1.201
12195TIP3    H136530   4.162   3.709   1.175
12195TIP3    H236531   4.095   3.832   1.118
12196TIP3   OH236532   4.279   7.200   1.809
12196TIP3    H136533   4.232   7.143   1.870
12196TIP3    H236534   4.370   7.175   1.817
12197TIP3   OH236535   7.427   3.123   3.949
12197TIP3    H136536   7.429   3.032   3.917
12197TIP3    H236537   7.506   3.132   4.002
12198TIP3   OH236538   2.134   0.326   0.694
12198TIP3    H136539   2.045   0.305   0.665
12198TIP3    H236540   2.122   0.390   0.764
12199TIP3   OH236541   6.333   7.272   3.388
12199TIP3    H136542   6.408   7.231   3.345
12199TIP3    H236543   6.368   7.351   3.429
12200TIP3   OH236544   5.012   3.595   4.899
12200TIP3    H136545   5.013   3.503   4.871
12200TIP3    H236546   4.993   3.644   4.819
12201TIP3   OH236547   5.608   2.713   1.309
12201TIP3    H136548   5.592   2.621   1.326
12201TIP3    H236549   5.703   2.723   1.317
12202TIP3   OH236550   0.212   2.698   4.905
12202TIP3    H136551   0.116   2.700   4.904
12202TIP3    H236552   0.234   2.605   4.909
12203TIP3   OH236553   6.668   4.129   2.005
12203TIP3    H136554   6.647   4.174   1.923
12203TIP3    H236555   6.635   4.040   1.994
12204TIP3   OH236556  -0.008   6.204   0.981
12204TIP3    H136557   0.045   6.148   1.039
12204TIP3    H236558  -0.019   6.285   1.030
12205TIP3   OH236559   5.664   0.962   0.153
12205TIP3    H136560   5.735   0.969   0.217
12205TIP3    H236561   5.705   0.926   0.075
12206TIP3   OH236562   2.754   7.332   1.698
12206TIP3    H136563   2.718   7.412   1.737
12206TIP3    H236564   2.803   7.291   1.770
12207TIP3   OH236565   0.104   6.974   4.251
12207TIP3    H136566   0.190   6.963   4.210
12207TIP3    H236567   0.118   6.954   4.343
12208TIP3   OH236568   1.012   2.663   1.297
12208TIP3    H136569   0.974   2.725   1.359
12208TIP3    H236570   0.973   2.579   1.320
12209TIP3   OH236571   2.873   7.588   5.499
12209TIP3    H136572   2.919   7.671   5.489
12209TIP3    H236573   2.913   7.548   5.576
12210TIP3   OH236574   6.702   5.939   0.888
12210TIP3    H136575   6.711   6.009   0.952
12210TIP3    H236576   6.608   5.926   0.880
12211TIP3   OH236577   5.292   1.609   4.871
12211TIP3    H136578   5.378   1.567   4.870
12211TIP3    H236579   5.273   1.622   4.964
12212TIP3   OH236580   7.863   0.378   2.452
12212TIP3    H136581   7.823   0.433   2.385
12212TIP3    H236582   7.930   0.433   2.492
12213TIP3   OH236583   5.925   0.384   4.341
12213TIP3    H136584   5.883   0.404   4.425
12213TIP3    H236585   6.013   0.419   4.350
12214TIP3   OH236586   8.090   5.440   2.475
12214TIP3    H136587   8.012   5.489   2.499
12214TIP3    H236588   8.137   5.498   2.414
12215TIP3   OH236589   7.175   5.635   1.816
12215TIP3    H136590   7.187   5.634   1.911
12215TIP3    H236591   7.212   5.719   1.788
12216TIP3   OH236592   3.661   3.340   1.721
12216TIP3    H136593   3.568   3.347   1.742
12216TIP3    H236594   3.663   3.316   1.628
12217TIP3   OH236595   3.817   0.428   4.075
12217TIP3    H136596   3.855   0.371   4.008
12217TIP3    H236597   3.873   0.416   4.152
12218TIP3   OH236598   4.565   2.184   5.909
12218TIP3    H136599   4.642   2.133   5.934
12218TIP3    H236600   4.544   2.235   5.987
12219TIP3   OH236601   1.006   2.484   3.265
12219TIP3    H136602   1.003   2.496   3.170
12219TIP3    H236603   0.921   2.516   3.296
12220TIP3   OH236604   8.115   4.068   5.391
12220TIP3    H136605   8.143   4.149   5.435
12220TIP3    H236606   8.178   4.002   5.420
12221TIP3   OH236607   5.105   0.296   4.740
12221TIP3    H136608   5.039   0.259   4.682
12221TIP3    H236609   5.119   0.229   4.807
12222TIP3   OH236610   4.324   5.453   0.675
12222TIP3    H136611   4.408   5.496   0.659
12222TIP3    H236612   4.318   5.386   0.608
12223TIP3   OH236613   1.849   2.256   6.057
12223TIP3    H136614   1.895   2.172   6.049
12223TIP3    H236615   1.848   2.291   5.968
12224TIP3   OH236616   1.192   2.978   4.868
12224TIP3    H136617   1.132   2.918   4.912
12224TIP3    H236618   1.242   2.923   4.808
12225TIP3   OH236619   7.840   6.449   3.667
12225TIP3    H136620   7.830   6.363   3.707
12225TIP3    H236621   7.934   6.456   3.648
12226TIP3   OH236622   6.339   3.136   1.254
12226TIP3    H136623   6.319   3.135   1.160
12226TIP3    H236624   6.304   3.220   1.285
12227TIP3   OH236625   5.469   4.464   0.347
12227TIP3    H136626   5.476   4.379   0.390
12227TIP3    H236627   5.480   4.445   0.254
12228TIP3   OH236628   0.589   4.068   3.283
12228TIP3    H136629   0.614   3.999   3.344
12228TIP3    H236630   0.662   4.130   3.284
12229TIP3   OH236631   5.741   6.450   6.508
12229TIP3    H136632   5.682   6.473   6.437
12229TIP3    H236633   5.787   6.532   6.528
12230TIP3   OH236634   3.063   1.888   2.503
12230TIP3    H136635   3.013   1.892   2.584
12230TIP3    H236636   3.000   1.912   2.435
12231TIP3   OH236637   6.755   4.526   4.042
12231TIP3    H136638   6.814   4.599   4.062
12231TIP3    H236639   6.785   4.455   4.097
12232TIP3   OH236640   0.021   5.516   6.051
12232TIP3    H136641  -0.040   5.523   6.124
12232TIP3    H236642   0.046   5.423   6.049
12233TIP3   OH236643   2.429   6.288   2.839
12233TIP3    H136644   2.403   6.204   2.802
12233TIP3    H236645   2.504   6.315   2.785
12234TIP3   OH236646   1.624   1.250   0.626
12234TIP3    H136647   1.620   1.214   0.537
12234TIP3    H236648   1.699   1.207   0.666
12235TIP3   OH236649   4.519   5.158   5.303
12235TIP3    H136650   4.541   5.154   5.396
12235TIP3    H236651   4.591   5.209   5.264
12236TIP3   OH236652   0.445   2.200   3.584
12236TIP3    H136653   0.436   2.117   3.538
12236TIP3    H236654   0.490   2.177   3.665
12237TIP3   OH236655   7.666   1.475   4.147
12237TIP3    H136656   7.581   1.519   4.154
12237TIP3    H236657   7.670   1.445   4.056
12238TIP3   OH236658   6.014   5.351   5.073
12238TIP3    H136659   6.057   5.285   5.127
12238TIP3    H236660   5.929   5.312   5.050
12239TIP3   OH236661   2.115   5.756   0.021
12239TIP3    H136662   2.210   5.746   0.015
12239TIP3    H236663   2.100   5.851   0.018
12240TIP3   OH236664   5.385   6.697   5.959
12240TIP3    H136665   5.373   6.787   5.926
12240TIP3    H236666   5.322   6.645   5.910
12241TIP3   OH236667   2.363   7.422   4.208
12241TIP3    H136668   2.341   7.513   4.229
12241TIP3    H236669   2.453   7.427   4.175
12242TIP3   OH236670   2.903   4.033   0.671
12242TIP3    H136671   2.940   3.944   0.667
12242TIP3    H236672   2.859   4.043   0.587
12243TIP3   OH236673   5.903   6.307   5.889
12243TIP3    H136674   5.891   6.213   5.876
12243TIP3    H236675   5.952   6.313   5.972
12244TIP3   OH236676   3.071   6.428   6.343
12244TIP3    H136677   2.994   6.484   6.351
12244TIP3    H236678   3.127   6.472   6.279
12245TIP3   OH236679   7.820   4.987   3.787
12245TIP3    H136680   7.809   4.892   3.778
12245TIP3    H236681   7.818   5.020   3.698
12246TIP3   OH236682   6.750   4.516   4.864
12246TIP3    H136683   6.683   4.451   4.885
12246TIP3    H236684   6.754   4.572   4.941
12247TIP3   OH236685   4.876   0.978   0.144
12247TIP3    H136686   4.958   0.930   0.129
12247TIP3    H236687   4.839   0.939   0.223
12248TIP3   OH236688   6.134   0.410   1.617
12248TIP3    H136689   6.081   0.342   1.661
12248TIP3    H236690   6.092   0.492   1.642
12249TIP3   OH236691   5.591   6.681   0.039
12249TIP3    H136692   5.619   6.634  -0.039
12249TIP3    H236693   5.498   6.700   0.025
12250TIP3   OH236694   6.715   0.131   2.733
12250TIP3    H136695   6.652   0.059   2.738
12250TIP3    H236696   6.724   0.161   2.824
12251TIP3   OH236697   7.535   1.574   1.222
12251TIP3    H136698   7.507   1.483   1.217
12251TIP3    H236699   7.606   1.574   1.286
12252TIP3   OH236700   0.603   7.744   3.319
12252TIP3    H136701   0.623   7.838   3.325
12252TIP3    H236702   0.624   7.722   3.228
12253TIP3   OH236703   3.177   4.897   2.173
12253TIP3    H136704   3.120   4.937   2.238
12253TIP3    H236705   3.224   4.829   2.221
12254TIP3   OH236706   2.071   6.211   6.478
12254TIP3    H136707   2.030   6.194   6.563
12254TIP3    H236708   1.998   6.242   6.423
12255TIP3   OH236709   3.881   6.405   1.126
12255TIP3    H136710   3.800   6.370   1.088
12255TIP3    H236711   3.933   6.328   1.146
12256TIP3   OH236712   8.077   7.493   6.486
12256TIP3    H136713   8.119   7.530   6.565
12256TIP3    H236714   8.109   7.403   6.482
12257TIP3   OH236715   7.808   0.594   6.017
12257TIP3    H136716   7.871   0.638   6.074
12257TIP3    H236717   7.796   0.655   5.944
12258TIP3   OH236718   7.841   0.056   3.731
12258TIP3    H136719   7.877   0.092   3.811
12258TIP3    H236720   7.840  -0.039   3.745
12259TIP3   OH236721   5.761   6.378   3.308
12259TIP3    H136722   5.762   6.465   3.268
12259TIP3    H236723   5.809   6.322   3.247
12260TIP3   OH236724   6.550   1.374   0.221
12260TIP3    H136725   6.519   1.361   0.311
12260TIP3    H236726   6.645   1.374   0.228
12261TIP3   OH236727   4.398   6.275   0.007
12261TIP3    H136728   4.418   6.368   0.015
12261TIP3    H236729   4.457   6.233   0.070
12262TIP3   OH236730   3.442   1.921   1.122
12262TIP3    H136731   3.419   1.834   1.091
12262TIP3    H236732   3.493   1.959   1.050
12263TIP3   OH236733   5.484   3.016   1.920
12263TIP3    H136734   5.548   2.944   1.922
12263TIP3    H236735   5.425   2.998   1.994
12264TIP3   OH236736   3.643   3.731   5.233
12264TIP3    H136737   3.725   3.734   5.184
12264TIP3    H236738   3.631   3.638   5.251
12265TIP3   OH236739   5.507   7.336   3.883
12265TIP3    H136740   5.528   7.413   3.934
12265TIP3    H236741   5.577   7.274   3.903
12266TIP3   OH236742   3.433   7.303   3.118
12266TIP3    H136743   3.484   7.362   3.173
12266TIP3    H236744   3.447   7.216   3.157
12267TIP3   OH236745   3.650   3.301   0.239
12267TIP3    H136746   3.635   3.273   0.330
12267TIP3    H236747   3.571   3.350   0.216
12268TIP3   OH236748   0.918   7.621   3.205
12268TIP3    H136749   0.874   7.581   3.280
12268TIP3    H236750   0.915   7.715   3.222
12269TIP3   OH236751   5.608   2.773   3.636
12269TIP3    H136752   5.524   2.814   3.617
12269TIP3    H236753   5.592   2.720   3.715
12270TIP3   OH236754   7.713   6.351   0.813
12270TIP3    H136755   7.753   6.288   0.754
12270TIP3    H236756   7.785   6.377   0.871
12271TIP3   OH236757   0.168   3.936   3.860
12271TIP3    H136758   0.080   3.963   3.885
12271TIP3    H236759   0.202   4.008   3.807
12272TIP3   OH236760   5.822   6.122   5.277
12272TIP3    H136761   5.825   6.214   5.303
12272TIP3    H236762   5.774   6.079   5.347
12273TIP3   OH236763   0.530   2.315   0.013
12273TIP3    H136764   0.507   2.320   0.106
12273TIP3    H236765   0.625   2.310   0.012
12274TIP3   OH236766   2.067   7.740   4.896
12274TIP3    H136767   2.050   7.829   4.866
12274TIP3    H236768   2.097   7.751   4.987
12275TIP3   OH236769   4.668   0.930   5.153
12275TIP3    H136770   4.719   1.007   5.126
12275TIP3    H236771   4.732   0.872   5.194
12276TIP3   OH236772   3.111   0.874   6.178
12276TIP3    H136773   3.071   0.879   6.092
12276TIP3    H236774   3.202   0.847   6.161
12277TIP3   OH236775   2.938   3.879   6.371
12277TIP3    H136776   2.898   3.918   6.293
12277TIP3    H236777   3.021   3.927   6.382
12278TIP3   OH236778   3.615   6.933   3.464
12278TIP3    H136779   3.606   7.025   3.488
12278TIP3    H236780   3.630   6.887   3.546
12279TIP3   OH236781   4.546   7.482   0.090
12279TIP3    H136782   4.611   7.416   0.066
12279TIP3    H236783   4.498   7.499   0.009
12280TIP3   OH236784   0.089   5.793   3.659
12280TIP3    H136785   0.072   5.735   3.733
12280TIP3    H236786   0.010   5.846   3.651
12281TIP3   OH236787   0.811   1.401   1.455
12281TIP3    H136788   0.851   1.382   1.541
12281TIP3    H236789   0.879   1.447   1.407
12282TIP3   OH236790   7.148   7.794   3.102
12282TIP3    H136791   7.072   7.845   3.073
12282TIP3    H236792   7.188   7.762   3.021
12283TIP3   OH236793   3.729   3.221   1.940
12283TIP3    H136794   3.675   3.273   1.999
12283TIP3    H236795   3.722   3.267   1.856
12284TIP3   OH236796   5.289   1.086   3.145
12284TIP3    H136797   5.270   1.039   3.065
12284TIP3    H236798   5.332   1.167   3.116
12285TIP3   OH236799   6.886   6.574   3.969
12285TIP3    H136800   6.887   6.505   3.902
12285TIP3    H236801   6.851   6.531   4.047
12286TIP3   OH236802   6.451   4.505   3.465
12286TIP3    H136803   6.444   4.413   3.490
12286TIP3    H236804   6.546   4.519   3.456
12287TIP3   OH236805   3.100   2.770   1.936
12287TIP3    H136806   3.059   2.852   1.906
12287TIP3    H236807   3.085   2.769   2.031
12288TIP3   OH236808   2.147   4.137   4.060
12288TIP3    H136809   2.126   4.087   4.138
12288TIP3    H236810   2.073   4.125   4.002
12289TIP3   OH236811   2.966   3.303   1.981
12289TIP3    H136812   3.017   3.345   2.051
12289TIP3    H236813   2.906   3.370   1.950
12290TIP3   OH236814   2.124   4.910   1.041
12290TIP3    H136815   2.120   4.868   1.127
12290TIP3    H236816   2.108   5.003   1.059
12291TIP3   OH236817   5.423   4.467   1.390
12291TIP3    H136818   5.434   4.513   1.473
12291TIP3    H236819   5.374   4.388   1.412
12292TIP3   OH236820   6.154   4.092   1.143
12292TIP3    H136821   6.199   4.128   1.220
12292TIP3    H236822   6.199   4.130   1.068
12293TIP3   OH236823   4.125   4.452   1.189
12293TIP3    H136824   4.084   4.533   1.219
12293TIP3    H236825   4.062   4.384   1.213
12294TIP3   OH236826   6.691   7.130   0.715
12294TIP3    H136827   6.663   7.062   0.655
12294TIP3    H236828   6.719   7.202   0.659
12295TIP3   OH236829   4.513   3.158   0.137
12295TIP3    H136830   4.484   3.183   0.225
12295TIP3    H236831   4.530   3.241   0.093
12296TIP3   OH236832   5.011   1.642   3.947
12296TIP3    H136833   5.017   1.686   3.862
12296TIP3    H236834   4.933   1.587   3.941
12297TIP3   OH236835   3.725   7.451   4.994
12297TIP3    H136836   3.809   7.411   4.974
12297TIP3    H236837   3.717   7.445   5.090
12298TIP3   OH236838   4.957   4.349   4.027
12298TIP3    H136839   4.947   4.443   4.036
12298TIP3    H236840   4.945   4.315   4.116
12299TIP3   OH236841   3.413   7.721   1.182
12299TIP3    H136842   3.478   7.711   1.113
12299TIP3    H236843   3.378   7.809   1.171
12300TIP3   OH236844   3.802   5.161   4.939
12300TIP3    H136845   3.869   5.102   4.976
12300TIP3    H236846   3.826   5.248   4.972
12301TIP3   OH236847   8.060   5.113   0.305
12301TIP3    H136848   8.079   5.193   0.354
12301TIP3    H236849   7.988   5.137   0.247
12302TIP3   OH236850   3.654   4.112   2.835
12302TIP3    H136851   3.575   4.130   2.784
12302TIP3    H236852   3.699   4.042   2.787
12303TIP3   OH236853   4.543   3.736   5.757
12303TIP3    H136854   4.639   3.732   5.758
12303TIP3    H236855   4.522   3.811   5.812
12304TIP3   OH236856   3.726   1.783   6.589
12304TIP3    H136857   3.645   1.812   6.548
12304TIP3    H236858   3.714   1.802   6.682
12305TIP3   OH236859   1.100   3.275   3.849
12305TIP3    H136860   1.147   3.356   3.828
12305TIP3    H236861   1.063   3.291   3.936
12306TIP3   OH236862   3.767   4.561   2.676
12306TIP3    H136863   3.775   4.470   2.646
12306TIP3    H236864   3.757   4.553   2.771
12307TIP3   OH236865   7.201   4.205   3.980
12307TIP3    H136866   7.237   4.179   3.895
12307TIP3    H236867   7.233   4.139   4.041
12308TIP3   OH236868   0.921   2.491   4.397
12308TIP3    H136869   0.959   2.562   4.345
12308TIP3    H236870   0.827   2.500   4.386
12309TIP3   OH236871   6.368   1.185   2.943
12309TIP3    H136872   6.275   1.170   2.927
12309TIP3    H236873   6.385   1.140   3.027
12310TIP3   OH236874   4.316   4.588   4.903
12310TIP3    H136875   4.279   4.562   4.987
12310TIP3    H236876   4.278   4.673   4.884
12311TIP3   OH236877   5.506   1.585   0.614
12311TIP3    H136878   5.552   1.519   0.666
12311TIP3    H236879   5.543   1.668   0.643
12312TIP3   OH236880   7.190   1.156   5.773
12312TIP3    H136881   7.232   1.236   5.742
12312TIP3    H236882   7.261   1.091   5.777
12313TIP3   OH236883   3.282   2.043   2.586
12313TIP3    H136884   3.218   1.987   2.542
12313TIP3    H236885   3.331   2.085   2.515
12314TIP3   OH236886   1.607   7.427   4.545
12314TIP3    H136887   1.685   7.465   4.505
12314TIP3    H236888   1.607   7.461   4.634
12315TIP3   OH236889   3.931   1.250   0.759
12315TIP3    H136890   4.006   1.244   0.818
12315TIP3    H236891   3.942   1.177   0.698
12316TIP3   OH236892   6.583   6.543   2.488
12316TIP3    H136893   6.555   6.452   2.491
12316TIP3    H236894   6.613   6.562   2.577
12317TIP3   OH236895   8.299   2.751   6.134
12317TIP3    H136896   8.241   2.710   6.198
12317TIP3    H236897   8.240   2.802   6.078
12318TIP3   OH236898   5.284   6.117   1.018
12318TIP3    H136899   5.217   6.124   1.086
12318TIP3    H236900   5.240   6.076   0.944
12319TIP3   OH236901   6.253   6.261   6.760
12319TIP3    H136902   6.283   6.198   6.695
12319TIP3    H236903   6.176   6.220   6.800
12320TIP3   OH236904   5.483   3.291   4.213
12320TIP3    H136905   5.459   3.287   4.120
12320TIP3    H236906   5.563   3.239   4.219
12321TIP3   OH236907   7.858   7.166   2.715
12321TIP3    H136908   7.766   7.145   2.731
12321TIP3    H236909   7.864   7.261   2.729
12322TIP3   OH236910   4.002   6.323   3.041
12322TIP3    H136911   3.935   6.254   3.032
12322TIP3    H236912   4.062   6.290   3.107
12323TIP3   OH236913   5.915   5.961   5.857
12323TIP3    H136914   5.994   6.006   5.826
12323TIP3    H236915   5.934   5.940   5.948
12324TIP3   OH236916   3.507   1.318   5.162
12324TIP3    H136917   3.498   1.234   5.117
12324TIP3    H236918   3.544   1.377   5.096
12325TIP3   OH236919   6.715   7.076   4.442
12325TIP3    H136920   6.633   7.097   4.396
12325TIP3    H236921   6.775   7.145   4.416
12326TIP3   OH236922   6.283   4.225   2.889
12326TIP3    H136923   6.270   4.300   2.947
12326TIP3    H236924   6.218   4.161   2.917
12327TIP3   OH236925   6.296   4.143   4.416
12327TIP3    H136926   6.324   4.179   4.500
12327TIP3    H236927   6.343   4.195   4.350
12328TIP3   OH236928   2.750   4.943   5.945
12328TIP3    H136929   2.769   4.920   5.854
12328TIP3    H236930   2.834   4.971   5.980
12329TIP3   OH236931   5.628   5.518   5.730
12329TIP3    H136932   5.555   5.571   5.763
12329TIP3    H236933   5.706   5.570   5.748
12330TIP3   OH236934   4.865   0.339   2.477
12330TIP3    H136935   4.901   0.422   2.507
12330TIP3    H236936   4.938   0.277   2.483
12331TIP3   OH236937   0.391   2.672   3.405
12331TIP3    H136938   0.398   2.685   3.500
12331TIP3    H236939   0.419   2.582   3.391
12332TIP3   OH236940   3.460   3.335   4.028
12332TIP3    H136941   3.541   3.331   4.079
12332TIP3    H236942   3.394   3.365   4.090
12333TIP3   OH236943   1.032   0.141   4.594
12333TIP3    H136944   1.018   0.226   4.635
12333TIP3    H236945   0.957   0.088   4.621
12334TIP3   OH236946   3.792   5.489   5.933
12334TIP3    H136947   3.697   5.474   5.939
12334TIP3    H236948   3.829   5.402   5.915
12335TIP3   OH236949   6.206   6.521   6.773
12335TIP3    H136950   6.257   6.538   6.694
12335TIP3    H236951   6.225   6.429   6.795
12336TIP3   OH236952   7.998   5.943   1.621
12336TIP3    H136953   8.006   5.873   1.686
12336TIP3    H236954   8.088   5.960   1.593
12337TIP3   OH236955   8.128   1.270   5.727
12337TIP3    H136956   8.196   1.208   5.754
12337TIP3    H236957   8.107   1.319   5.806
12338TIP3   OH236958   0.151   1.918   4.617
12338TIP3    H136959   0.101   1.976   4.560
12338TIP3    H236960   0.205   1.866   4.557
12339TIP3   OH236961   4.788   7.763   2.158
12339TIP3    H136962   4.821   7.848   2.129
12339TIP3    H236963   4.754   7.779   2.246
12340TIP3   OH236964   5.616   2.338   2.215
12340TIP3    H136965   5.536   2.298   2.250
12340TIP3    H236966   5.679   2.332   2.287
12341TIP3   OH236967   0.548   2.867   1.916
12341TIP3    H136968   0.502   2.938   1.870
12341TIP3    H236969   0.641   2.881   1.896
12342TIP3   OH236970   3.959   4.553   5.144
12342TIP3    H136971   3.866   4.533   5.157
12342TIP3    H236972   3.982   4.608   5.219
12343TIP3   OH236973   3.499   7.144   6.024
12343TIP3    H136974   3.472   7.054   6.043
12343TIP3    H236975   3.583   7.154   6.068
12344TIP3   OH236976   4.367   4.445   6.086
12344TIP3    H136977   4.328   4.518   6.038
12344TIP3    H236978   4.421   4.488   6.153
12345TIP3   OH236979   0.568   0.431   3.429
12345TIP3    H136980   0.519   0.445   3.510
12345TIP3    H236981   0.573   0.336   3.420
12346TIP3   OH236982   3.231   0.630   1.244
12346TIP3    H136983   3.200   0.714   1.279
12346TIP3    H236984   3.326   0.635   1.249
12347TIP3   OH236985   3.771   4.405   4.223
12347TIP3    H136986   3.831   4.469   4.186
12347TIP3    H236987   3.798   4.322   4.184
12348TIP3   OH236988   4.086   7.389   1.737
12348TIP3    H136989   4.160   7.331   1.753
12348TIP3    H236990   4.028   7.375   1.811
12349TIP3   OH236991   6.325   4.329   4.609
12349TIP3    H136992   6.232   4.331   4.585
12349TIP3    H236993   6.328   4.370   4.696
12350TIP3   OH236994   4.502   4.060   3.132
12350TIP3    H136995   4.482   4.088   3.042
12350TIP3    H236996   4.558   3.984   3.121
12351TIP3   OH236997   5.063   1.032   2.414
12351TIP3    H136998   5.076   1.023   2.508
12351TIP3    H236999   5.112   0.960   2.375
12352TIP3   OH237000   3.979   7.575   3.193
12352TIP3    H137001   3.961   7.580   3.099
12352TIP3    H237002   3.894   7.554   3.232
12353TIP3   OH237003   3.163   7.053   6.088
12353TIP3    H137004   3.082   7.002   6.090
12353TIP3    H237005   3.222   7.002   6.032
12354TIP3   OH237006   7.120   1.998   2.904
12354TIP3    H137007   7.029   2.024   2.892
12354TIP3    H237008   7.171   2.071   2.867
12355TIP3   OH237009   7.446   1.993   2.074
12355TIP3    H137010   7.542   1.993   2.068
12355TIP3    H237011   7.427   2.044   2.153
12356TIP3   OH237012   3.237   1.480   5.542
12356TIP3    H137013   3.264   1.557   5.492
12356TIP3    H237014   3.142   1.480   5.536
12357TIP3   OH237015   7.892   5.832   3.102
12357TIP3    H137016   7.900   5.900   3.035
12357TIP3    H237017   7.900   5.879   3.185
12358TIP3   OH237018   4.072   3.059   5.916
12358TIP3    H137019   4.099   3.147   5.946
12358TIP3    H237020   4.046   3.014   5.997
12359TIP3   OH237021   7.947   7.376   5.983
12359TIP3    H137022   7.942   7.436   6.057
12359TIP3    H237023   8.034   7.390   5.947
12360TIP3   OH237024   1.973   5.464   6.726
12360TIP3    H137025   2.004   5.507   6.805
12360TIP3    H237026   2.026   5.385   6.719
12361TIP3   OH237027   0.537   2.058   1.660
12361TIP3    H137028   0.629   2.034   1.657
12361TIP3    H237029   0.491   1.981   1.627
12362TIP3   OH237030   3.084   0.795   0.415
12362TIP3    H137031   3.067   0.887   0.438
12362TIP3    H237032   3.071   0.792   0.320
12363TIP3   OH237033   5.266   3.259   3.017
12363TIP3    H137034   5.266   3.201   3.093
12363TIP3    H237035   5.174   3.282   3.005
12364TIP3   OH237036   0.948   4.373   6.515
12364TIP3    H137037   0.859   4.391   6.485
12364TIP3    H237038   0.941   4.289   6.561
12365TIP3   OH237039   2.855   2.894   2.716
12365TIP3    H137040   2.825   2.824   2.657
12365TIP3    H237041   2.918   2.851   2.773
12366TIP3   OH237042   7.542   4.744   1.319
12366TIP3    H137043   7.611   4.680   1.336
12366TIP3    H237044   7.478   4.730   1.389
12367TIP3   OH237045   4.411   6.650   2.067
12367TIP3    H137046   4.494   6.605   2.052
12367TIP3    H237047   4.349   6.605   2.010
12368TIP3   OH237048   3.744   7.639   3.614
12368TIP3    H137049   3.649   7.639   3.597
12368TIP3    H237050   3.771   7.728   3.595
12369TIP3   OH237051   2.115   6.383   5.021
12369TIP3    H137052   2.198   6.430   5.012
12369TIP3    H237053   2.140   6.294   5.046
12370TIP3   OH237054   1.841   6.434   5.536
12370TIP3    H137055   1.780   6.364   5.560
12370TIP3    H237056   1.877   6.405   5.452
12371TIP3   OH237057   0.264   2.556   5.892
12371TIP3    H137058   0.175   2.529   5.870
12371TIP3    H237059   0.298   2.486   5.948
12372TIP3   OH237060   5.043   0.108   5.885
12372TIP3    H137061   5.026   0.115   5.791
12372TIP3    H237062   5.041   0.014   5.902
12373TIP3   OH237063   6.169   4.899   2.632
12373TIP3    H137064   6.131   4.823   2.675
12373TIP3    H237065   6.169   4.967   2.699
12374TIP3   OH237066   3.100   6.165   0.217
12374TIP3    H137067   3.125   6.195   0.130
12374TIP3    H237068   3.180   6.169   0.269
12375TIP3   OH237069   6.278   0.165   3.466
12375TIP3    H137070   6.276   0.147   3.560
12375TIP3    H237071   6.296   0.080   3.425
12376TIP3   OH237072   0.658   1.329   1.925
12376TIP3    H137073   0.628   1.239   1.911
12376TIP3    H237074   0.628   1.376   1.847
12377TIP3   OH237075   0.871   7.221   5.679
12377TIP3    H137076   0.789   7.175   5.662
12377TIP3    H237077   0.924   7.159   5.728
12378TIP3   OH237078   4.898   5.364   1.638
12378TIP3    H137079   4.911   5.358   1.732
12378TIP3    H237080   4.983   5.339   1.600
12379TIP3   OH237081   4.760   7.468   4.616
12379TIP3    H137082   4.846   7.433   4.637
12379TIP3    H237083   4.699   7.395   4.630
12380TIP3   OH237084   1.675   7.763   3.253
12380TIP3    H137085   1.726   7.690   3.290
12380TIP3    H237086   1.639   7.728   3.172
12381TIP3   OH237087   1.209   4.344   3.048
12381TIP3    H137088   1.238   4.409   2.984
12381TIP3    H237089   1.213   4.390   3.132
12382TIP3   OH237090   4.404   2.419   4.057
12382TIP3    H137091   4.478   2.373   4.098
12382TIP3    H237092   4.333   2.411   4.121
12383TIP3   OH237093   2.676   0.548   2.266
12383TIP3    H137094   2.716   0.462   2.259
12383TIP3    H237095   2.750   0.609   2.270
12384TIP3   OH237096   5.710   4.264   4.393
12384TIP3    H137097   5.780   4.312   4.349
12384TIP3    H237098   5.755   4.206   4.454
12385TIP3   OH237099   3.411   2.711   5.398
12385TIP3    H137100   3.362   2.640   5.358
12385TIP3    H237101   3.436   2.678   5.485
12386TIP3   OH237102   6.689   5.501   2.039
12386TIP3    H137103   6.637   5.421   2.031
12386TIP3    H237104   6.667   5.534   2.126
12387TIP3   OH237105   0.826   0.377   3.775
12387TIP3    H137106   0.908   0.374   3.824
12387TIP3    H237107   0.852   0.358   3.685
12388TIP3   OH237108   1.355   1.915   6.564
12388TIP3    H137109   1.335   1.970   6.488
12388TIP3    H237110   1.363   1.827   6.528
12389TIP3   OH237111   6.046   6.101   4.147
12389TIP3    H137112   5.962   6.146   4.144
12389TIP3    H237113   6.024   6.010   4.164
12390TIP3   OH237114   6.094   7.227   3.551
12390TIP3    H137115   6.032   7.300   3.556
12390TIP3    H237116   6.068   7.178   3.474
12391TIP3   OH237117   8.182   2.138   3.601
12391TIP3    H137118   8.197   2.044   3.604
12391TIP3    H237119   8.114   2.154   3.666
12392TIP3   OH237120   2.563   7.644   3.041
12392TIP3    H137121   2.500   7.682   2.980
12392TIP3    H237122   2.571   7.553   3.014
12393TIP3   OH237123   6.904   1.868   5.504
12393TIP3    H137124   6.953   1.887   5.424
12393TIP3    H237125   6.818   1.838   5.473
12394TIP3   OH237126   0.052   1.079   0.979
12394TIP3    H137127   0.096   1.159   0.950
12394TIP3    H237128   0.019   1.039   0.898
12395TIP3   OH237129   2.913   4.278   0.779
12395TIP3    H137130   3.002   4.302   0.753
12395TIP3    H237131   2.899   4.190   0.743
12396TIP3   OH237132   1.654   3.595   5.288
12396TIP3    H137133   1.739   3.605   5.244
12396TIP3    H237134   1.592   3.637   5.229
12397TIP3   OH237135   2.670   3.504   1.976
12397TIP3    H137136   2.743   3.495   1.914
12397TIP3    H237137   2.592   3.498   1.922
12398TIP3   OH237138   5.330   5.228   6.000
12398TIP3    H137139   5.367   5.149   6.040
12398TIP3    H237140   5.399   5.261   5.943
12399TIP3   OH237141   1.787   5.119   3.522
12399TIP3    H137142   1.813   5.063   3.595
12399TIP3    H237143   1.697   5.094   3.503
12400TIP3   OH237144   0.843   6.296   2.579
12400TIP3    H137145   0.813   6.225   2.636
12400TIP3    H237146   0.827   6.375   2.631
12401TIP3   OH237147   1.066   1.004   1.245
12401TIP3    H137148   1.004   0.992   1.173
12401TIP3    H237149   1.012   1.017   1.322
12402TIP3   OH237150   6.270   6.378   4.646
12402TIP3    H137151   6.338   6.396   4.712
12402TIP3    H237152   6.247   6.465   4.612
12403TIP3   OH237153   1.535   1.659   6.229
12403TIP3    H137154   1.516   1.569   6.255
12403TIP3    H237155   1.452   1.705   6.239
12404TIP3   OH237156   5.044   2.588   1.300
12404TIP3    H137157   5.090   2.615   1.379
12404TIP3    H237158   5.081   2.642   1.230
12405TIP3   OH237159   3.921   2.484   6.181
12405TIP3    H137160   3.973   2.423   6.130
12405TIP3    H237161   3.949   2.571   6.151
12406TIP3   OH237162   0.796   6.387   1.477
12406TIP3    H137163   0.872   6.444   1.482
12406TIP3    H237164   0.729   6.431   1.529
12407TIP3   OH237165   1.969   7.085   4.502
12407TIP3    H137166   1.976   7.106   4.595
12407TIP3    H237167   1.894   7.026   4.495
12408TIP3   OH237168   3.654   5.339   1.138
12408TIP3    H137169   3.568   5.303   1.115
12408TIP3    H237170   3.662   5.323   1.232
12409TIP3   OH237171   0.834   0.114   5.238
12409TIP3    H137172   0.832   0.034   5.290
12409TIP3    H237173   0.913   0.160   5.267
12410TIP3   OH237174   0.314   2.007   6.370
12410TIP3    H137175   0.291   2.089   6.326
12410TIP3    H237176   0.378   1.966   6.312
12411TIP3   OH237177   4.063   3.588   0.545
12411TIP3    H137178   4.063   3.645   0.622
12411TIP3    H237179   4.022   3.640   0.477
12412TIP3   OH237180   1.390   6.248   5.063
12412TIP3    H137181   1.353   6.166   5.095
12412TIP3    H237182   1.430   6.225   4.979
12413TIP3   OH237183   1.942   0.688   5.528
12413TIP3    H137184   2.020   0.733   5.495
12413TIP3    H237185   1.887   0.675   5.452
12414TIP3   OH237186   2.134   3.045   4.320
12414TIP3    H137187   2.138   2.950   4.311
12414TIP3    H237188   2.151   3.078   4.231
12415TIP3   OH237189   3.981   0.273   4.272
12415TIP3    H137190   3.996   0.203   4.208
12415TIP3    H237191   4.033   0.247   4.348
12416TIP3   OH237192   6.464   1.912   0.263
12416TIP3    H137193   6.491   1.980   0.202
12416TIP3    H237194   6.539   1.902   0.322
12417TIP3   OH237195   7.119   4.100   0.473
12417TIP3    H137196   7.163   4.163   0.415
12417TIP3    H237197   7.048   4.065   0.420
12418TIP3   OH237198   1.656   2.422   3.738
12418TIP3    H137199   1.561   2.430   3.748
12418TIP3    H237200   1.668   2.347   3.679
12419TIP3   OH237201   4.620   1.841   5.119
12419TIP3    H137202   4.680   1.874   5.185
12419TIP3    H237203   4.541   1.894   5.130
12420TIP3   OH237204   6.411   2.369   4.595
12420TIP3    H137205   6.471   2.296   4.578
12420TIP3    H237206   6.392   2.363   4.689
12421TIP3   OH237207   2.708   6.801   2.369
12421TIP3    H137208   2.776   6.813   2.302
12421TIP3    H237209   2.742   6.845   2.446
12422TIP3   OH237210   2.265   4.965   2.539
12422TIP3    H137211   2.355   4.980   2.569
12422TIP3    H237212   2.248   4.873   2.560
12423TIP3   OH237213   1.046   4.464   2.355
12423TIP3    H137214   1.075   4.551   2.328
12423TIP3    H237215   0.983   4.480   2.426
12424TIP3   OH237216   3.809   1.896   4.146
12424TIP3    H137217   3.856   1.870   4.226
12424TIP3    H237218   3.726   1.849   4.152
12425TIP3   OH237219   6.305   6.586   3.833
12425TIP3    H137220   6.303   6.610   3.740
12425TIP3    H237221   6.354   6.657   3.875
12426TIP3   OH237222   7.093   3.255   2.159
12426TIP3    H137223   7.097   3.348   2.181
12426TIP3    H237224   7.008   3.227   2.195
12427TIP3   OH237225   2.373   1.204   0.765
12427TIP3    H137226   2.363   1.181   0.673
12427TIP3    H237227   2.284   1.227   0.794
12428TIP3   OH237228   6.808   5.711   0.372
12428TIP3    H137229   6.841   5.668   0.451
12428TIP3    H237230   6.839   5.656   0.300
12429TIP3   OH237231   5.196   3.606   5.104
12429TIP3    H137232   5.235   3.692   5.088
12429TIP3    H237233   5.123   3.600   5.042
12430TIP3   OH237234   3.913   3.162   1.504
12430TIP3    H137235   3.860   3.162   1.424
12430TIP3    H237236   3.894   3.077   1.544
12431TIP3   OH237237   7.662   1.915   3.164
12431TIP3    H137238   7.619   1.832   3.186
12431TIP3    H237239   7.675   1.958   3.248
12432TIP3   OH237240   5.165   3.877   1.570
12432TIP3    H137241   5.245   3.921   1.543
12432TIP3    H237242   5.188   3.784   1.570
12433TIP3   OH237243   5.318   7.065   6.178
12433TIP3    H137244   5.268   7.083   6.257
12433TIP3    H237245   5.382   6.999   6.205
12434TIP3   OH237246   1.120   5.910   4.880
12434TIP3    H137247   1.096   5.820   4.859
12434TIP3    H237248   1.060   5.935   4.950
12435TIP3   OH237249   6.704   0.899   6.231
12435TIP3    H137250   6.702   0.881   6.137
12435TIP3    H237251   6.717   0.994   6.237
12436TIP3   OH237252   1.621   6.479   2.244
12436TIP3    H137253   1.546   6.444   2.294
12436TIP3    H237254   1.659   6.545   2.301
12437TIP3   OH237255   3.500   3.011   1.585
12437TIP3    H137256   3.429   3.068   1.614
12437TIP3    H237257   3.511   3.032   1.492
12438TIP3   OH237258   0.554   3.242   3.526
12438TIP3    H137259   0.562   3.194   3.608
12438TIP3    H237260   0.487   3.195   3.477
12439TIP3   OH237261   4.765   1.242   1.940
12439TIP3    H137262   4.748   1.324   1.892
12439TIP3    H237263   4.770   1.269   2.031
12440TIP3   OH237264   7.642   0.143   5.576
12440TIP3    H137265   7.547   0.133   5.577
12440TIP3    H237266   7.667   0.124   5.485
12441TIP3   OH237267   2.058   4.076   5.615
12441TIP3    H137268   2.045   4.130   5.537
12441TIP3    H237269   2.000   4.001   5.602
12442TIP3   OH237270   3.568   0.881   6.718
12442TIP3    H137271   3.603   0.907   6.804
12442TIP3    H237272   3.473   0.886   6.729
12443TIP3   OH237273   0.357  -0.033   6.314
12443TIP3    H137274   0.410   0.026   6.367
12443TIP3    H237275   0.327   0.021   6.240
12444TIP3   OH237276   4.698   0.335   5.232
12444TIP3    H137277   4.792   0.354   5.223
12444TIP3    H237278   4.674   0.373   5.317
12445TIP3   OH237279   3.420   4.154  -0.020
12445TIP3    H137280   3.492   4.092  -0.031
12445TIP3    H237281   3.369   4.119   0.053
12446TIP3   OH237282   4.777   0.445   1.816
12446TIP3    H137283   4.869   0.472   1.807
12446TIP3    H237284   4.735   0.475   1.736
12447TIP3   OH237285   7.527   7.250   5.133
12447TIP3    H137286   7.440   7.226   5.167
12447TIP3    H237287   7.588   7.215   5.198
12448TIP3   OH237288   3.541   4.940   5.538
12448TIP3    H137289   3.528   4.913   5.629
12448TIP3    H237290   3.531   4.860   5.487
12449TIP3   OH237291   6.434   3.467   4.297
12449TIP3    H137292   6.448   3.385   4.251
12449TIP3    H237293   6.339   3.480   4.293
12450TIP3   OH237294   4.700   4.759   2.787
12450TIP3    H137295   4.616   4.722   2.761
12450TIP3    H237296   4.694   4.851   2.765
12451TIP3   OH237297   2.353   3.157   2.141
12451TIP3    H137298   2.339   3.071   2.100
12451TIP3    H237299   2.359   3.218   2.067
12452TIP3   OH237300   1.877   1.406   3.210
12452TIP3    H137301   1.851   1.452   3.130
12452TIP3    H237302   1.838   1.456   3.281
12453TIP3   OH237303   5.714   1.165   3.392
12453TIP3    H137304   5.662   1.085   3.403
12453TIP3    H237305   5.655   1.225   3.346
12454TIP3   OH237306   1.525   6.332   0.046
12454TIP3    H137307   1.538   6.361   0.136
12454TIP3    H237308   1.511   6.237   0.054
12455TIP3   OH237309   2.320   3.427   4.942
12455TIP3    H137310   2.235   3.389   4.920
12455TIP3    H237311   2.344   3.477   4.864
12456TIP3   OH237312   5.522   3.799   0.314
12456TIP3    H137313   5.521   3.703   0.316
12456TIP3    H237314   5.459   3.825   0.382
12457TIP3   OH237315   1.605   5.821   6.382
12457TIP3    H137316   1.593   5.757   6.452
12457TIP3    H237317   1.663   5.888   6.421
12458TIP3   OH237318   5.977   1.716   5.609
12458TIP3    H137319   5.893   1.673   5.598
12458TIP3    H237320   6.014   1.722   5.521
12459TIP3   OH237321   1.444   4.648   6.747
12459TIP3    H137322   1.414   4.580   6.807
12459TIP3    H237323   1.538   4.630   6.737
12460TIP3   OH237324   6.416   2.575   5.864
12460TIP3    H137325   6.399   2.629   5.787
12460TIP3    H237326   6.349   2.506   5.860
12461TIP3   OH237327   1.042   0.118   2.129
12461TIP3    H137328   1.090   0.098   2.048
12461TIP3    H237329   0.960   0.156   2.100
12462TIP3   OH237330   1.360   7.626   0.766
12462TIP3    H137331   1.272   7.604   0.735
12462TIP3    H237332   1.415   7.553   0.736
12463TIP3   OH237333   1.351   4.858   3.467
12463TIP3    H137334   1.439   4.820   3.465
12463TIP3    H237335   1.362   4.946   3.434
12464TIP3   OH237336   8.162   5.764   0.362
12464TIP3    H137337   8.113   5.799   0.437
12464TIP3    H237338   8.238   5.721   0.402
12465TIP3   OH237339   0.888   3.178   4.535
12465TIP3    H137340   0.826   3.246   4.562
12465TIP3    H237341   0.842   3.095   4.554
12466TIP3   OH237342   6.982   3.948   5.833
12466TIP3    H137343   7.055   3.981   5.886
12466TIP3    H237344   6.905   3.963   5.887
12467TIP3   OH237345   7.256   4.513   1.988
12467TIP3    H137346   7.198   4.490   2.060
12467TIP3    H237347   7.331   4.455   1.998
12468TIP3   OH237348   7.265   5.610   3.436
12468TIP3    H137349   7.264   5.540   3.371
12468TIP3    H237350   7.348   5.656   3.421
12469TIP3   OH237351   7.339   5.199   5.032
12469TIP3    H137352   7.404   5.130   5.046
12469TIP3    H237353   7.358   5.231   4.944
12470TIP3   OH237354   7.559   2.882   5.756
12470TIP3    H137355   7.558   2.909   5.664
12470TIP3    H237356   7.471   2.903   5.788
12471TIP3   OH237357   4.409   1.307   1.334
12471TIP3    H137358   4.448   1.296   1.420
12471TIP3    H237359   4.316   1.289   1.348
12472TIP3   OH237360   7.133   2.514   0.758
12472TIP3    H137361   7.189   2.558   0.695
12472TIP3    H237362   7.143   2.565   0.839
12473TIP3   OH237363   5.603   4.567   3.727
12473TIP3    H137364   5.663   4.635   3.758
12473TIP3    H237365   5.642   4.535   3.646
12474TIP3   OH237366   2.780   0.770   1.850
12474TIP3    H137367   2.847   0.813   1.903
12474TIP3    H237368   2.705   0.829   1.853
12475TIP3   OH237369   3.286   5.980   6.621
12475TIP3    H137370   3.224   6.052   6.637
12475TIP3    H237371   3.370   6.014   6.651
12476TIP3   OH237372   3.134   7.709   2.655
12476TIP3    H137373   3.188   7.661   2.719
12476TIP3    H237374   3.189   7.713   2.576
12477TIP3   OH237375   3.411   4.877   5.767
12477TIP3    H137376   3.347   4.891   5.837
12477TIP3    H237377   3.399   4.786   5.741
12478TIP3   OH237378   7.262   0.045   1.803
12478TIP3    H137379   7.297   0.104   1.871
12478TIP3    H237380   7.234   0.104   1.733
12479TIP3   OH237381   5.020   4.634   2.014
12479TIP3    H137382   5.044   4.584   1.936
12479TIP3    H237383   5.104   4.663   2.051
12480TIP3   OH237384   3.347   4.938   0.641
12480TIP3    H137385   3.429   4.929   0.690
12480TIP3    H237386   3.367   4.999   0.570
12481TIP3   OH237387   4.953   0.623   2.483
12481TIP3    H137388   5.048   0.629   2.477
12481TIP3    H237389   4.921   0.658   2.400
12482TIP3   OH237390   3.640   3.974   4.961
12482TIP3    H137391   3.687   3.998   4.881
12482TIP3    H237392   3.583   3.902   4.934
12483TIP3   OH237393   2.030   0.097   3.388
12483TIP3    H137394   1.967   0.110   3.318
12483TIP3    H237395   2.086   0.174   3.385
12484TIP3   OH237396   7.799   0.576   4.437
12484TIP3    H137397   7.706   0.602   4.437
12484TIP3    H237398   7.847   0.658   4.448
12485TIP3   OH237399   3.146   1.308   5.968
12485TIP3    H137400   3.163   1.400   5.952
12485TIP3    H237401   3.194   1.288   6.049
12486TIP3   OH237402   0.304   2.439   1.832
12486TIP3    H137403   0.375   2.374   1.823
12486TIP3    H237404   0.323   2.483   1.915
12487TIP3   OH237405   7.867   7.580   0.410
12487TIP3    H137406   7.962   7.586   0.400
12487TIP3    H237407   7.840   7.514   0.347
12488TIP3   OH237408   5.470   7.287   5.568
12488TIP3    H137409   5.501   7.370   5.534
12488TIP3    H237410   5.529   7.222   5.530
12489TIP3   OH237411   2.777   4.739   6.760
12489TIP3    H137412   2.710   4.670   6.766
12489TIP3    H237413   2.844   4.702   6.703
12490TIP3   OH237414   6.602   6.403   5.918
12490TIP3    H137415   6.631   6.425   5.830
12490TIP3    H237416   6.508   6.421   5.918
12491TIP3   OH237417   6.832   1.808   6.240
12491TIP3    H137418   6.813   1.722   6.278
12491TIP3    H237419   6.912   1.795   6.190
12492TIP3   OH237420   8.179   6.325   3.592
12492TIP3    H137421   8.225   6.307   3.673
12492TIP3    H237422   8.175   6.241   3.546
12493TIP3   OH237423   6.406   3.377   3.971
12493TIP3    H137424   6.404   3.308   4.037
12493TIP3    H237425   6.334   3.435   3.995
12494TIP3   OH237426   2.467   6.844   0.627
12494TIP3    H137427   2.422   6.904   0.686
12494TIP3    H237428   2.397   6.805   0.575
12495TIP3   OH237429   4.090   1.879   1.464
12495TIP3    H137430   4.138   1.801   1.435
12495TIP3    H237431   4.021   1.889   1.399
12496TIP3   OH237432   2.831   3.017   4.368
12496TIP3    H137433   2.778   3.003   4.290
12496TIP3    H237434   2.922   3.010   4.338
12497TIP3   OH237435   0.807   2.297   3.556
12497TIP3    H137436   0.808   2.376   3.502
12497TIP3    H237437   0.885   2.304   3.611
12498TIP3   OH237438   1.869   0.581   6.707
12498TIP3    H137439   1.812   0.516   6.666
12498TIP3    H237440   1.950   0.534   6.725
12499TIP3   OH237441   2.142   7.748   5.190
12499TIP3    H137442   2.048   7.765   5.196
12499TIP3    H237443   2.168   7.726   5.280
12500TIP3   OH237444   7.526   0.617   4.517
12500TIP3    H137445   7.519   0.588   4.608
12500TIP3    H237446   7.475   0.553   4.467
12501TIP3   OH237447   0.003   4.454   5.202
12501TIP3    H137448   0.085   4.501   5.215
12501TIP3    H237449   0.028   4.361   5.204
12502TIP3   OH237450   4.818   4.868   3.362
12502TIP3    H137451   4.859   4.878   3.448
12502TIP3    H237452   4.890   4.876   3.300
12503TIP3   OH237453   6.308   7.819   5.575
12503TIP3    H137454   6.262   7.735   5.570
12503TIP3    H237455   6.282   7.857   5.659
12504TIP3   OH237456   6.691   3.985   4.986
12504TIP3    H137457   6.599   4.003   5.005
12504TIP3    H237458   6.700   3.890   4.994
12505TIP3   OH237459   1.167   7.523   0.586
12505TIP3    H137460   1.100   7.556   0.527
12505TIP3    H237461   1.234   7.486   0.528
12506TIP3   OH237462   6.109   7.184   5.364
12506TIP3    H137463   6.039   7.132   5.326
12506TIP3    H237464   6.158   7.218   5.289
12507TIP3   OH237465   3.294   4.766   1.938
12507TIP3    H137466   3.333   4.688   1.976
12507TIP3    H237467   3.221   4.787   1.996
12508TIP3   OH237468   0.380   1.177   2.733
12508TIP3    H137469   0.339   1.093   2.714
12508TIP3    H237470   0.381   1.182   2.829
12509TIP3   OH237471   2.667   2.147   0.063
12509TIP3    H137472   2.640   2.141   0.155
12509TIP3    H237473   2.602   2.096   0.015
12510TIP3   OH237474   5.909   2.259   0.198
12510TIP3    H137475   5.890   2.344   0.158
12510TIP3    H237476   5.856   2.257   0.277
12511TIP3   OH237477   6.903   4.665   1.520
12511TIP3    H137478   6.990   4.633   1.499
12511TIP3    H237479   6.856   4.588   1.553
12512TIP3   OH237480   8.175   0.688   0.421
12512TIP3    H137481   8.149   0.596   0.423
12512TIP3    H237482   8.270   0.685   0.405
12513TIP3   OH237483   1.326   2.419   5.765
12513TIP3    H137484   1.387   2.469   5.711
12513TIP3    H237485   1.274   2.368   5.702
12514TIP3   OH237486   4.856   5.268   5.938
12514TIP3    H137487   4.890   5.252   6.026
12514TIP3    H237488   4.934   5.276   5.883
12515TIP3   OH237489   2.286   5.622   5.359
12515TIP3    H137490   2.334   5.539   5.367
12515TIP3    H237491   2.346   5.679   5.311
12516TIP3   OH237492   7.287   2.198   0.105
12516TIP3    H137493   7.335   2.218   0.025
12516TIP3    H237494   7.355   2.178   0.170
12517TIP3   OH237495   0.638   3.784   5.067
12517TIP3    H137496   0.605   3.728   4.996
12517TIP3    H237497   0.723   3.815   5.035
12518TIP3   OH237498   5.409   5.478   3.018
12518TIP3    H137499   5.398   5.524   2.935
12518TIP3    H237500   5.403   5.546   3.085
12519TIP3   OH237501   8.049   1.283   0.682
12519TIP3    H137502   8.036   1.279   0.777
12519TIP3    H237503   7.998   1.359   0.655
12520TIP3   OH237504   1.149   7.536   1.634
12520TIP3    H137505   1.188   7.511   1.718
12520TIP3    H237506   1.059   7.559   1.656
12521TIP3   OH237507   3.420   6.427   4.106
12521TIP3    H137508   3.390   6.344   4.069
12521TIP3    H237509   3.381   6.494   4.049
12522TIP3   OH237510   4.462   4.216   1.320
12522TIP3    H137511   4.438   4.204   1.228
12522TIP3    H237512   4.524   4.289   1.320
12523TIP3   OH237513   4.101   0.685   2.602
12523TIP3    H137514   4.091   0.598   2.562
12523TIP3    H237515   4.020   0.730   2.580
12524TIP3   OH237516   1.607   2.668   5.132
12524TIP3    H137517   1.612   2.572   5.138
12524TIP3    H237518   1.669   2.699   5.198
12525TIP3   OH237519   4.706   4.101   2.550
12525TIP3    H137520   4.742   4.013   2.539
12525TIP3    H237521   4.762   4.156   2.494
12526TIP3   OH237522   7.524   4.668   3.159
12526TIP3    H137523   7.607   4.688   3.204
12526TIP3    H237524   7.458   4.672   3.229
12527TIP3   OH237525   4.907   6.930   5.050
12527TIP3    H137526   4.992   6.966   5.022
12527TIP3    H237527   4.918   6.914   5.144
12528TIP3   OH237528   4.094   5.592   0.703
12528TIP3    H137529   4.174   5.547   0.676
12528TIP3    H237530   4.124   5.660   0.763
12529TIP3   OH237531   2.774   5.309   4.717
12529TIP3    H137532   2.820   5.362   4.782
12529TIP3    H237533   2.711   5.258   4.768
12530TIP3   OH237534   2.829   6.544   6.419
12530TIP3    H137535   2.773   6.543   6.342
12530TIP3    H237536   2.769   6.533   6.493
12531TIP3   OH237537   4.496   6.742   0.903
12531TIP3    H137538   4.529   6.797   0.833
12531TIP3    H237539   4.569   6.685   0.926
12532TIP3   OH237540   3.561   2.367   0.658
12532TIP3    H137541   3.634   2.397   0.712
12532TIP3    H237542   3.602   2.310   0.593
12533TIP3   OH237543   7.414   0.494   6.154
12533TIP3    H137544   7.398   0.532   6.067
12533TIP3    H237545   7.476   0.423   6.138
12534TIP3   OH237546   7.792   5.543   1.096
12534TIP3    H137547   7.875   5.556   1.051
12534TIP3    H237548   7.753   5.630   1.102
12535TIP3   OH237549   7.067   7.816   2.340
12535TIP3    H137550   6.985   7.777   2.308
12535TIP3    H237551   7.100   7.866   2.266
12536TIP3   OH237552   4.958   7.773   1.268
12536TIP3    H137553   5.013   7.796   1.342
12536TIP3    H237554   4.914   7.692   1.295
12537TIP3   OH237555   2.085   2.907   1.219
12537TIP3    H137556   2.067   2.939   1.307
12537TIP3    H237557   2.001   2.913   1.173
12538TIP3   OH237558   1.730   4.594   3.284
12538TIP3    H137559   1.675   4.655   3.234
12538TIP3    H237560   1.818   4.608   3.249
12539TIP3   OH237561   3.610   6.050   6.448
12539TIP3    H137562   3.682   6.078   6.505
12539TIP3    H237563   3.645   6.061   6.360
12540TIP3   OH237564   4.721   5.973   2.034
12540TIP3    H137565   4.811   6.004   2.035
12540TIP3    H237566   4.702   5.957   1.942
12541TIP3   OH237567   6.428   3.231   2.037
12541TIP3    H137568   6.341   3.219   1.997
12541TIP3    H237569   6.489   3.220   1.964
12542TIP3   OH237570   7.961   7.492   4.544
12542TIP3    H137571   7.954   7.586   4.527
12542TIP3    H237572   7.981   7.485   4.638
12543TIP3   OH237573   0.432   4.649   5.508
12543TIP3    H137574   0.483   4.568   5.505
12543TIP3    H237575   0.480   4.709   5.450
12544TIP3   OH237576   2.376   5.505   2.576
12544TIP3    H137577   2.433   5.469   2.509
12544TIP3    H237578   2.289   5.469   2.557
12545TIP3   OH237579   1.852   3.575   6.128
12545TIP3    H137580   1.759   3.554   6.122
12545TIP3    H237581   1.896   3.495   6.098
12546TIP3   OH237582   3.962   1.598   4.390
12546TIP3    H137583   3.987   1.592   4.298
12546TIP3    H237584   3.940   1.690   4.403
12547TIP3   OH237585   5.226   1.859   1.044
12547TIP3    H137586   5.259   1.920   1.110
12547TIP3    H237587   5.300   1.801   1.026
12548TIP3   OH237588   3.389   1.245   5.631
12548TIP3    H137589   3.445   1.322   5.637
12548TIP3    H237590   3.334   1.260   5.554
12549TIP3   OH237591   6.245   7.265   0.035
12549TIP3    H137592   6.306   7.204   0.076
12549TIP3    H237593   6.186   7.290   0.107
12550TIP3   OH237594   0.690   3.317   5.799
12550TIP3    H137595   0.623   3.267   5.752
12550TIP3    H237596   0.768   3.262   5.793
12551TIP3   OH237597   4.196   0.685   1.204
12551TIP3    H137598   4.265   0.644   1.256
12551TIP3    H237599   4.136   0.614   1.184
12552TIP3   OH237600   7.971   6.520   6.117
12552TIP3    H137601   7.991   6.531   6.024
12552TIP3    H237602   7.926   6.435   6.122
12553TIP3   OH237603   5.450   7.708   0.232
12553TIP3    H137604   5.496   7.625   0.247
12553TIP3    H237605   5.508   7.775   0.267
12554TIP3   OH237606   8.210   7.641   1.306
12554TIP3    H137607   8.303   7.619   1.299
12554TIP3    H237608   8.210   7.730   1.343
12555TIP3   OH237609   6.105   2.565   4.557
12555TIP3    H137610   6.059   2.486   4.529
12555TIP3    H237611   6.163   2.585   4.483
12556TIP3   OH237612   5.744   3.786   0.124
12556TIP3    H137613   5.670   3.802   0.182
12556TIP3    H237614   5.711   3.726   0.058
12557TIP3   OH237615   8.111   3.193   5.471
12557TIP3    H137616   8.204   3.193   5.493
12557TIP3    H237617   8.069   3.236   5.545
12558TIP3   OH237618   0.552   3.064   4.761
12558TIP3    H137619   0.620   3.071   4.828
12558TIP3    H237620   0.482   3.013   4.802
12559TIP3   OH237621   7.491   3.157   2.800
12559TIP3    H137622   7.576   3.115   2.785
12559TIP3    H237623   7.428   3.086   2.797
12560TIP3   OH237624   5.159   6.191   6.474
12560TIP3    H137625   5.133   6.254   6.408
12560TIP3    H237626   5.148   6.236   6.557
12561TIP3   OH237627   1.200   4.611   1.269
12561TIP3    H137628   1.121   4.584   1.222
12561TIP3    H237629   1.235   4.684   1.218
12562TIP3   OH237630   0.091   6.571   4.761
12562TIP3    H137631   0.183   6.585   4.740
12562TIP3    H237632   0.043   6.618   4.693
12563TIP3   OH237633   2.327   0.720   2.679
12563TIP3    H137634   2.305   0.813   2.688
12563TIP3    H237635   2.409   0.711   2.729
12564TIP3   OH237636   5.905   7.225   5.090
12564TIP3    H137637   5.909   7.293   5.157
12564TIP3    H237638   5.869   7.148   5.134
12565TIP3   OH237639   2.526   5.538   6.199
12565TIP3    H137640   2.465   5.481   6.247
12565TIP3    H237641   2.481   5.558   6.117
12566TIP3   OH237642   4.582   5.033   2.734
12566TIP3    H137643   4.563   5.127   2.736
12566TIP3    H237644   4.524   4.998   2.667
12567TIP3   OH237645   3.305   1.499   6.524
12567TIP3    H137646   3.238   1.484   6.458
12567TIP3    H237647   3.387   1.503   6.475
12568TIP3   OH237648   4.895   2.380   1.047
12568TIP3    H137649   4.820   2.397   1.104
12568TIP3    H237650   4.948   2.317   1.096
12569TIP3   OH237651   3.445   3.968   3.222
12569TIP3    H137652   3.368   3.952   3.167
12569TIP3    H237653   3.513   3.995   3.161
12570TIP3   OH237654   6.292   2.615   1.734
12570TIP3    H137655   6.331   2.699   1.760
12570TIP3    H237656   6.323   2.553   1.800
12571TIP3   OH237657   0.869   0.850   2.942
12571TIP3    H137658   0.910   0.763   2.949
12571TIP3    H237659   0.886   0.877   2.852
12572TIP3   OH237660   4.150   6.989  -0.011
12572TIP3    H137661   4.147   6.938   0.070
12572TIP3    H237662   4.237   6.970  -0.048
12573TIP3   OH237663   1.383   3.446   3.281
12573TIP3    H137664   1.329   3.448   3.360
12573TIP3    H237665   1.364   3.529   3.237
12574TIP3   OH237666   5.639   1.212   3.688
12574TIP3    H137667   5.674   1.141   3.741
12574TIP3    H237668   5.654   1.184   3.597
12575TIP3   OH237669   5.148   7.254   1.166
12575TIP3    H137670   5.198   7.200   1.227
12575TIP3    H237671   5.058   7.223   1.174
12576TIP3   OH237672   4.688   2.837   3.099
12576TIP3    H137673   4.731   2.886   3.028
12576TIP3    H237674   4.636   2.903   3.145
12577TIP3   OH237675   5.797   7.018   5.220
12577TIP3    H137676   5.702   7.017   5.229
12577TIP3    H237677   5.826   6.934   5.254
12578TIP3   OH237678   5.189   4.705   4.576
12578TIP3    H137679   5.097   4.711   4.601
12578TIP3    H237680   5.222   4.629   4.625
12579TIP3   OH237681   6.397   4.040   3.959
12579TIP3    H137682   6.430   4.046   4.049
12579TIP3    H237683   6.425   3.953   3.929
12580TIP3   OH237684   8.178   5.208   2.613
12580TIP3    H137685   8.151   5.292   2.576
12580TIP3    H237686   8.100   5.176   2.659
12581TIP3   OH237687   4.482   3.824   1.269
12581TIP3    H137688   4.427   3.896   1.238
12581TIP3    H237689   4.518   3.786   1.189
12582TIP3   OH237690   7.295   6.721   0.247
12582TIP3    H137691   7.232   6.652   0.267
12582TIP3    H237692   7.324   6.752   0.333
12583TIP3   OH237693   2.109   5.101   2.695
12583TIP3    H137694   2.150   5.037   2.638
12583TIP3    H237695   2.030   5.128   2.649
12584TIP3   OH237696   2.010   1.075   2.246
12584TIP3    H137697   2.027   1.084   2.153
12584TIP3    H237698   2.082   1.021   2.279
12585TIP3   OH237699   0.030   6.572   0.860
12585TIP3    H137700   0.058   6.663   0.872
12585TIP3    H237701   0.110   6.525   0.836
12586TIP3   OH237702   3.632   7.664   3.100
12586TIP3    H137703   3.538   7.645   3.095
12586TIP3    H237704   3.671   7.608   3.033
12587TIP3   OH237705   2.127   2.844   4.788
12587TIP3    H137706   2.192   2.826   4.855
12587TIP3    H237707   2.115   2.939   4.790
12588TIP3   OH237708   6.307   2.549   3.449
12588TIP3    H137709   6.369   2.505   3.507
12588TIP3    H237710   6.305   2.639   3.479
12589TIP3   OH237711   3.789   3.536   0.113
12589TIP3    H137712   3.719   3.472   0.119
12589TIP3    H237713   3.869   3.486   0.133
12590TIP3   OH237714   7.575   2.209   6.226
12590TIP3    H137715   7.619   2.147   6.169
12590TIP3    H237716   7.644   2.270   6.253
12591TIP3   OH237717   7.314   4.869   0.340
12591TIP3    H137718   7.237   4.921   0.318
12591TIP3    H237719   7.309   4.793   0.282
12592TIP3   OH237720   7.924   3.624   2.741
12592TIP3    H137721   7.859   3.566   2.779
12592TIP3    H237722   8.008   3.592   2.774
12593TIP3   OH237723   5.899   7.599   3.954
12593TIP3    H137724   5.911   7.657   4.029
12593TIP3    H237725   5.837   7.644   3.897
12594TIP3   OH237726   6.603   0.513   1.585
12594TIP3    H137727   6.517   0.548   1.564
12594TIP3    H237728   6.596   0.419   1.566
12595TIP3   OH237729   0.835   3.494   0.337
12595TIP3    H137730   0.809   3.434   0.267
12595TIP3    H237731   0.924   3.520   0.315
12596TIP3   OH237732   1.391   3.935   4.013
12596TIP3    H137733   1.306   3.957   3.976
12596TIP3    H237734   1.372   3.905   4.101
12597TIP3   OH237735   7.789   4.664   5.622
12597TIP3    H137736   7.797   4.582   5.573
12597TIP3    H237737   7.775   4.731   5.554
12598TIP3   OH237738   5.901   4.465   5.276
12598TIP3    H137739   5.835   4.395   5.275
12598TIP3    H237740   5.851   4.544   5.295
12599TIP3   OH237741   6.865   6.365   1.514
12599TIP3    H137742   6.891   6.323   1.432
12599TIP3    H237743   6.795   6.425   1.489
12600TIP3   OH237744   7.207   4.357   0.781
12600TIP3    H137745   7.280   4.348   0.720
12600TIP3    H237746   7.245   4.343   0.867
12601TIP3   OH237747   4.020   2.096   5.407
12601TIP3    H137748   3.930   2.125   5.392
12601TIP3    H237749   4.074   2.174   5.393
12602TIP3   OH237750   2.509   3.789   3.161
12602TIP3    H137751   2.526   3.721   3.226
12602TIP3    H237752   2.471   3.744   3.087
12603TIP3   OH237753   3.626   4.094   2.445
12603TIP3    H137754   3.573   4.131   2.374
12603TIP3    H237755   3.569   4.098   2.521
12604TIP3   OH237756   3.450   7.734   4.745
12604TIP3    H137757   3.492   7.786   4.677
12604TIP3    H237758   3.490   7.647   4.736
12605TIP3   OH237759   2.886   7.018   4.431
12605TIP3    H137760   2.886   6.957   4.358
12605TIP3    H237761   2.964   6.995   4.482
12606TIP3   OH237762   2.711   5.602   4.597
12606TIP3    H137763   2.705   5.506   4.605
12606TIP3    H237764   2.713   5.633   4.688
12607TIP3   OH237765   6.090   2.478   0.533
12607TIP3    H137766   6.122   2.424   0.461
12607TIP3    H237767   6.027   2.422   0.578
12608TIP3   OH237768   2.782   5.200   3.669
12608TIP3    H137769   2.692   5.202   3.703
12608TIP3    H237770   2.817   5.286   3.689
12609TIP3   OH237771   5.315   2.707   4.602
12609TIP3    H137772   5.305   2.676   4.693
12609TIP3    H237773   5.226   2.707   4.567
12610TIP3   OH237774   6.009   4.040   4.851
12610TIP3    H137775   6.070   4.029   4.778
12610TIP3    H237776   6.012   3.957   4.898
12611TIP3   OH237777   5.313   6.824   3.196
12611TIP3    H137778   5.400   6.816   3.156
12611TIP3    H237779   5.278   6.906   3.160
12612TIP3   OH237780   1.899   6.536   4.549
12612TIP3    H137781   1.872   6.627   4.561
12612TIP3    H237782   1.949   6.516   4.628
12613TIP3   OH237783   4.366   7.152   3.563
12613TIP3    H137784   4.369   7.061   3.534
12613TIP3    H237785   4.436   7.159   3.628
12614TIP3   OH237786   5.810   2.386   6.514
12614TIP3    H137787   5.795   2.332   6.436
12614TIP3    H237788   5.890   2.435   6.493
12615TIP3   OH237789   2.853   7.750   3.863
12615TIP3    H137790   2.796   7.825   3.882
12615TIP3    H237791   2.795   7.675   3.860
12616TIP3   OH237792   8.160   6.284   2.192
12616TIP3    H137793   8.199   6.341   2.260
12616TIP3    H237794   8.091   6.337   2.154
12617TIP3   OH237795   7.589   2.837   1.536
12617TIP3    H137796   7.652   2.906   1.515
12617TIP3    H237797   7.531   2.875   1.602
12618TIP3   OH237798   7.215   7.473   0.089
12618TIP3    H137799   7.201   7.499  -0.003
12618TIP3    H237800   7.130   7.438   0.116
12619TIP3   OH237801   3.642   5.549   4.765
12619TIP3    H137802   3.591   5.552   4.846
12619TIP3    H237803   3.645   5.640   4.735
12620TIP3   OH237804   6.777   3.562   1.980
12620TIP3    H137805   6.740   3.490   2.031
12620TIP3    H237806   6.774   3.637   2.039
12621TIP3   OH237807   3.029   0.496   0.344
12621TIP3    H137808   2.954   0.480   0.401
12621TIP3    H237809   3.070   0.574   0.379
12622TIP3   OH237810   0.916   5.653   2.519
12622TIP3    H137811   0.953   5.596   2.587
12622TIP3    H237812   0.942   5.741   2.545
12623TIP3   OH237813   5.491   0.154   3.944
12623TIP3    H137814   5.445   0.194   4.018
12623TIP3    H237815   5.448   0.190   3.866
12624TIP3   OH237816   1.018   3.027   6.601
12624TIP3    H137817   1.079   2.959   6.573
12624TIP3    H237818   1.073   3.103   6.617
12625TIP3   OH237819   0.644   1.820   0.057
12625TIP3    H137820   0.710   1.757   0.085
12625TIP3    H237821   0.674   1.849  -0.029
12626TIP3   OH237822   4.197   6.572   6.492
12626TIP3    H137823   4.228   6.635   6.556
12626TIP3    H237824   4.184   6.491   6.542
12627TIP3   OH237825   6.842   4.010   3.292
12627TIP3    H137826   6.828   4.040   3.381
12627TIP3    H237827   6.896   3.931   3.301
12628TIP3   OH237828   7.631   4.827   5.224
12628TIP3    H137829   7.566   4.773   5.270
12628TIP3    H237830   7.580   4.877   5.161
12629TIP3   OH237831   6.621   1.377   5.751
12629TIP3    H137832   6.712   1.350   5.736
12629TIP3    H237833   6.622   1.419   5.837
12630TIP3   OH237834   1.326   0.941   6.660
12630TIP3    H137835   1.236   0.937   6.627
12630TIP3    H237836   1.338   0.857   6.706
12631TIP3   OH237837   3.686   7.543   6.668
12631TIP3    H137838   3.651   7.567   6.754
12631TIP3    H237839   3.781   7.541   6.680
12632TIP3   OH237840   1.799   4.847   4.593
12632TIP3    H137841   1.828   4.756   4.597
12632TIP3    H237842   1.806   4.870   4.500
12633TIP3   OH237843   1.146   7.240   0.376
12633TIP3    H137844   1.145   7.152   0.339
12633TIP3    H237845   1.139   7.226   0.471
12634TIP3   OH237846   5.367   2.090   0.922
12634TIP3    H137847   5.440   2.062   0.977
12634TIP3    H237848   5.307   2.016   0.921
12635TIP3   OH237849   3.124   1.256   2.009
12635TIP3    H137850   3.147   1.346   1.987
12635TIP3    H237851   3.053   1.264   2.073
12636TIP3   OH237852   0.138   4.346   2.307
12636TIP3    H137853   0.177   4.374   2.390
12636TIP3    H237854   0.047   4.326   2.329
12637TIP3   OH237855   3.588   3.810   6.215
12637TIP3    H137856   3.637   3.728   6.225
12637TIP3    H237857   3.639   3.874   6.265
12638TIP3   OH237858   7.865   3.324   3.604
12638TIP3    H137859   7.879   3.414   3.630
12638TIP3    H237860   7.802   3.329   3.531
12639TIP3   OH237861   5.387   3.581   0.764
12639TIP3    H137862   5.377   3.573   0.859
12639TIP3    H237863   5.453   3.516   0.741
12640TIP3   OH237864   4.254   2.804   5.802
12640TIP3    H137865   4.204   2.733   5.842
12640TIP3    H237866   4.219   2.884   5.841
12641TIP3   OH237867   7.525   1.095   0.316
12641TIP3    H137868   7.560   1.154   0.249
12641TIP3    H237869   7.447   1.057   0.276
12642TIP3   OH237870   0.757   7.330   0.067
12642TIP3    H137871   0.826   7.343   0.002
12642TIP3    H237872   0.786   7.381   0.143
12643TIP3   OH237873   3.871   0.394   5.777
12643TIP3    H137874   3.922   0.469   5.809
12643TIP3    H237875   3.909   0.374   5.692
12644TIP3   OH237876   0.874   0.666   2.447
12644TIP3    H137877   0.818   0.589   2.449
12644TIP3    H237878   0.845   0.715   2.369
12645TIP3   OH237879   6.991   0.838   2.722
12645TIP3    H137880   6.990   0.830   2.818
12645TIP3    H237881   6.988   0.748   2.690
12646TIP3   OH237882   7.114   5.997   6.716
12646TIP3    H137883   7.201   5.962   6.737
12646TIP3    H237884   7.054   5.934   6.755
12647TIP3   OH237885   1.836   4.056   4.456
12647TIP3    H137886   1.797   4.024   4.375
12647TIP3    H237887   1.763   4.061   4.518
12648TIP3   OH237888   1.439   3.796   2.554
12648TIP3    H137889   1.417   3.724   2.494
12648TIP3    H237890   1.367   3.797   2.618
12649TIP3   OH237891   5.942   4.067   4.481
12649TIP3    H137892   5.869   4.046   4.540
12649TIP3    H237893   6.004   4.115   4.535
12650TIP3   OH237894   7.630   1.407   2.284
12650TIP3    H137895   7.565   1.463   2.325
12650TIP3    H237896   7.580   1.332   2.251
12651TIP3   OH237897   1.826   1.635   4.929
12651TIP3    H137898   1.864   1.703   4.985
12651TIP3    H237899   1.889   1.625   4.857
12652TIP3   OH237900   6.148   6.633   0.222
12652TIP3    H137901   6.103   6.590   0.295
12652TIP3    H237902   6.146   6.568   0.152
12653TIP3   OH237903   1.396   0.525   6.361
12653TIP3    H137904   1.437   0.611   6.368
12653TIP3    H237905   1.450   0.476   6.299
12654TIP3   OH237906   7.491   0.375   2.456
12654TIP3    H137907   7.518   0.289   2.487
12654TIP3    H237908   7.397   0.378   2.474
12655TIP3   OH237909   3.369   3.432   1.694
12655TIP3    H137910   3.320   3.390   1.765
12655TIP3    H237911   3.315   3.507   1.670
12656TIP3   OH237912   0.910   0.309   3.517
12656TIP3    H137913   0.917   0.404   3.507
12656TIP3    H237914   0.942   0.274   3.434
12657TIP3   OH237915   4.114   4.293   6.041
12657TIP3    H137916   4.183   4.355   6.016
12657TIP3    H237917   4.155   4.237   6.107
12658TIP3   OH237918   3.177   6.659   0.353
12658TIP3    H137919   3.100   6.666   0.297
12658TIP3    H237920   3.185   6.745   0.394
12659TIP3   OH237921   6.311   6.214   2.303
12659TIP3    H137922   6.225   6.173   2.301
12659TIP3    H237923   6.353   6.185   2.222
12660TIP3   OH237924   4.222   1.818   0.181
12660TIP3    H137925   4.147   1.760   0.190
12660TIP3    H237926   4.298   1.762   0.196
12661TIP3   OH237927   1.126   4.129   5.162
12661TIP3    H137928   1.137   4.212   5.208
12661TIP3    H237929   1.134   4.063   5.231
12662TIP3   OH237930   5.026   1.287   6.116
12662TIP3    H137931   5.033   1.286   6.020
12662TIP3    H237932   5.002   1.377   6.137
12663TIP3   OH237933   6.259   0.110   4.525
12663TIP3    H137934   6.269   0.191   4.476
12663TIP3    H237935   6.164   0.102   4.539
12664TIP3   OH237936   1.967   3.276   3.474
12664TIP3    H137937   2.009   3.240   3.552
12664TIP3    H237938   2.039   3.294   3.413
12665TIP3   OH237939   1.744   2.331   4.872
12665TIP3    H137940   1.792   2.381   4.805
12665TIP3    H237941   1.810   2.273   4.909
12666TIP3   OH237942   5.668   3.880   1.156
12666TIP3    H137943   5.711   3.807   1.199
12666TIP3    H237944   5.740   3.933   1.121
12667TIP3   OH237945   2.824   7.712   3.169
12667TIP3    H137946   2.899   7.769   3.188
12667TIP3    H237947   2.860   7.623   3.176
12668TIP3   OH237948   1.345   3.513   0.004
12668TIP3    H137949   1.321   3.454   0.076
12668TIP3    H237950   1.418   3.470  -0.039
12669TIP3   OH237951   6.148   0.203   5.347
12669TIP3    H137952   6.080   0.150   5.390
12669TIP3    H237953   6.108   0.228   5.264
12670TIP3   OH237954   4.427   7.395   1.514
12670TIP3    H137955   4.450   7.302   1.523
12670TIP3    H237956   4.421   7.427   1.604
12671TIP3   OH237957   2.773   2.365   3.371
12671TIP3    H137958   2.680   2.385   3.383
12671TIP3    H237959   2.787   2.372   3.276
12672TIP3   OH237960   4.080   7.454   6.457
12672TIP3    H137961   4.026   7.396   6.512
12672TIP3    H237962   4.077   7.414   6.370
12673TIP3   OH237963   6.632   6.666   1.695
12673TIP3    H137964   6.609   6.725   1.767
12673TIP3    H237965   6.685   6.721   1.636
12674TIP3   OH237966   6.075   6.839   1.438
12674TIP3    H137967   5.990   6.871   1.409
12674TIP3    H237968   6.137   6.876   1.375
12675TIP3   OH237969   6.821   6.324   5.777
12675TIP3    H137970   6.759   6.251   5.778
12675TIP3    H237971   6.828   6.347   5.684
12676TIP3   OH237972   6.445   4.525   1.164
12676TIP3    H137973   6.375   4.466   1.138
12676TIP3    H237974   6.497   4.475   1.227
12677TIP3   OH237975   1.051   4.649   4.942
12677TIP3    H137976   1.130   4.669   4.891
12677TIP3    H237977   0.987   4.619   4.877
12678TIP3   OH237978   0.320   3.574   5.216
12678TIP3    H137979   0.371   3.516   5.160
12678TIP3    H237980   0.289   3.517   5.287
12679TIP3   OH237981   2.174   4.981   4.614
12679TIP3    H137982   2.168   4.994   4.519
12679TIP3    H237983   2.260   5.018   4.637
12680TIP3   OH237984   2.656   6.231   1.565
12680TIP3    H137985   2.641   6.310   1.618
12680TIP3    H237986   2.568   6.204   1.538
12681TIP3   OH237987   0.930   1.803   3.405
12681TIP3    H137988   0.982   1.881   3.386
12681TIP3    H237989   0.911   1.809   3.499
12682TIP3   OH237990   2.577   7.533   5.178
12682TIP3    H137991   2.626   7.589   5.239
12682TIP3    H237992   2.582   7.446   5.216
12683TIP3   OH237993   3.137   1.810   1.520
12683TIP3    H137994   3.232   1.815   1.534
12683TIP3    H237995   3.108   1.901   1.523
12684TIP3   OH237996   4.477   6.038   4.173
12684TIP3    H137997   4.473   6.088   4.092
12684TIP3    H237998   4.570   6.034   4.195
12685TIP3   OH237999   5.952   6.780   4.486
12685TIP3    H138000   5.989   6.695   4.508
12685TIP3    H238001   5.996   6.842   4.545
12686TIP3   OH238002   2.746   0.109   6.166
12686TIP3    H138003   2.713   0.025   6.198
12686TIP3    H238004   2.838   0.111   6.194
12687TIP3   OH238005   0.776   6.708   6.284
12687TIP3    H138006   0.714   6.665   6.343
12687TIP3    H238007   0.863   6.684   6.318
12688TIP3   OH238008   7.938   3.540   3.350
12688TIP3    H138009   7.955   3.627   3.312
12688TIP3    H238010   7.940   3.555   3.444
12689TIP3   OH238011   2.834   0.480   3.826
12689TIP3    H138012   2.917   0.494   3.871
12689TIP3    H238013   2.836   0.389   3.799
12690TIP3   OH238014   0.100   0.754   1.214
12690TIP3    H138015   0.083   0.779   1.123
12690TIP3    H238016   0.158   0.678   1.208
12691TIP3   OH238017   0.369   3.203   1.287
12691TIP3    H138018   0.341   3.295   1.295
12691TIP3    H238019   0.291   3.157   1.257
12692TIP3   OH238020   1.840   0.254   0.683
12692TIP3    H138021   1.824   0.164   0.655
12692TIP3    H238022   1.790   0.263   0.764
12693TIP3   OH238023   1.545   6.077   6.212
12693TIP3    H138024   1.560   6.027   6.292
12693TIP3    H238025   1.569   6.017   6.142
12694TIP3   OH238026   3.421   5.230   1.532
12694TIP3    H138027   3.481   5.297   1.500
12694TIP3    H238028   3.407   5.252   1.624
12695TIP3   OH238029   6.816   4.945   4.351
12695TIP3    H138030   6.724   4.938   4.376
12695TIP3    H238031   6.862   4.961   4.433
12696TIP3   OH238032   3.298   5.486   0.624
12696TIP3    H138033   3.273   5.504   0.534
12696TIP3    H238034   3.364   5.551   0.645
12697TIP3   OH238035   0.109   1.595   5.940
12697TIP3    H138036   0.187   1.544   5.923
12697TIP3    H238037   0.058   1.543   6.002
12698TIP3   OH238038   5.393   6.399   2.481
12698TIP3    H138039   5.460   6.399   2.413
12698TIP3    H238040   5.310   6.393   2.433
12699TIP3   OH238041   4.797   2.618   2.028
12699TIP3    H138042   4.792   2.525   2.004
12699TIP3    H238043   4.881   2.626   2.072
12700TIP3   OH238044   7.747   6.978   6.479
12700TIP3    H138045   7.673   6.954   6.534
12700TIP3    H238046   7.722   6.950   6.391
12701TIP3   OH238047   7.708   7.392   1.888
12701TIP3    H138048   7.749   7.456   1.830
12701TIP3    H238049   7.709   7.310   1.839
12702TIP3   OH238050   1.701   5.395   3.546
12702TIP3    H138051   1.710   5.456   3.473
12702TIP3    H238052   1.745   5.316   3.518
12703TIP3   OH238053   4.512   5.740   1.971
12703TIP3    H138054   4.559   5.806   2.024
12703TIP3    H238055   4.425   5.777   1.959
12704TIP3   OH238056   4.792   1.304   2.916
12704TIP3    H138057   4.713   1.332   2.962
12704TIP3    H238058   4.842   1.256   2.982
12705TIP3   OH238059   1.124   2.371   4.224
12705TIP3    H138060   1.072   2.294   4.201
12705TIP3    H238061   1.095   2.393   4.313
12706TIP3   OH238062   5.543   0.806   1.033
12706TIP3    H138063   5.606   0.803   1.105
12706TIP3    H238064   5.580   0.750   0.965
12707TIP3   OH238065   8.154   0.580   5.957
12707TIP3    H138066   8.182   0.533   5.878
12707TIP3    H238067   8.083   0.636   5.927
12708TIP3   OH238068   3.919   2.865   6.508
12708TIP3    H138069   3.989   2.837   6.449
12708TIP3    H238070   3.895   2.785   6.556
12709TIP3   OH238071   2.573   6.272   6.416
12709TIP3    H138072   2.540   6.340   6.356
12709TIP3    H238073   2.647   6.233   6.370
12710TIP3   OH238074   1.711   0.289   5.002
12710TIP3    H138075   1.682   0.367   5.047
12710TIP3    H238076   1.804   0.281   5.025
12711TIP3   OH238077   0.174   5.932   6.168
12711TIP3    H138078   0.220   6.014   6.186
12711TIP3    H238079   0.096   5.936   6.223
12712TIP3   OH238080   2.440   1.845   6.274
12712TIP3    H138081   2.477   1.816   6.191
12712TIP3    H238082   2.468   1.936   6.283
12713TIP3   OH238083   0.472   5.799   2.482
12713TIP3    H138084   0.449   5.740   2.410
12713TIP3    H238085   0.535   5.750   2.534
12714TIP3   OH238086   7.342   5.559   0.856
12714TIP3    H138087   7.427   5.587   0.822
12714TIP3    H238088   7.362   5.517   0.940
12715TIP3   OH238089   7.465   3.324   0.890
12715TIP3    H138090   7.391   3.311   0.948
12715TIP3    H238091   7.427   3.335   0.803
12716TIP3   OH238092   2.133   2.612   1.255
12716TIP3    H138093   2.039   2.596   1.256
12716TIP3    H238094   2.146   2.678   1.187
12717TIP3   OH238095   5.010   4.814   6.588
12717TIP3    H138096   4.976   4.769   6.510
12717TIP3    H238097   4.970   4.901   6.585
12718TIP3   OH238098   3.386   2.967   4.678
12718TIP3    H138099   3.312   3.017   4.644
12718TIP3    H238100   3.412   2.911   4.605
12719TIP3   OH238101   1.607   5.937   4.776
12719TIP3    H138102   1.643   5.854   4.808
12719TIP3    H238103   1.655   5.954   4.695
12720TIP3   OH238104   7.779   1.460   2.529
12720TIP3    H138105   7.731   1.452   2.447
12720TIP3    H238106   7.822   1.375   2.540
12721TIP3   OH238107   4.570   3.786   6.606
12721TIP3    H138108   4.634   3.841   6.561
12721TIP3    H238109   4.594   3.697   6.582
12722TIP3   OH238110   6.449   0.275   2.930
12722TIP3    H138111   6.535   0.244   2.959
12722TIP3    H238112   6.407   0.307   3.010
12723TIP3   OH238113   3.585   4.771   5.071
12723TIP3    H138114   3.568   4.809   4.985
12723TIP3    H238115   3.541   4.830   5.133
12724TIP3   OH238116   6.821   5.669   2.781
12724TIP3    H138117   6.745   5.726   2.795
12724TIP3    H238118   6.785   5.581   2.779
12725TIP3   OH238119   4.722   2.939   5.693
12725TIP3    H138120   4.786   3.004   5.723
12725TIP3    H238121   4.731   2.866   5.755
12726TIP3   OH238122   3.003   6.078   5.331
12726TIP3    H138123   2.947   6.015   5.286
12726TIP3    H238124   2.956   6.162   5.323
12727TIP3   OH238125   6.731   3.431   4.778
12727TIP3    H138126   6.758   3.377   4.852
12727TIP3    H238127   6.642   3.403   4.759
12728TIP3   OH238128   6.549   5.903   1.457
12728TIP3    H138129   6.524   5.855   1.377
12728TIP3    H238130   6.643   5.884   1.467
12729TIP3   OH238131   5.074   5.938   3.591
12729TIP3    H138132   5.063   5.914   3.499
12729TIP3    H238133   5.027   5.870   3.640
12730TIP3   OH238134   5.896   3.895   3.726
12730TIP3    H138135   5.854   3.827   3.673
12730TIP3    H238136   5.898   3.858   3.815
12731TIP3   OH238137   4.912   3.511   0.042
12731TIP3    H138138   4.849   3.583   0.041
12731TIP3    H238139   4.989   3.545  -0.003
12732TIP3   OH238140   1.716   5.116   2.038
12732TIP3    H138141   1.794   5.081   1.995
12732TIP3    H238142   1.649   5.116   1.970
12733TIP3   OH238143   5.420   7.214   4.656
12733TIP3    H138144   5.401   7.151   4.725
12733TIP3    H238145   5.400   7.168   4.575
12734TIP3   OH238146   6.843   2.961   0.125
12734TIP3    H138147   6.829   2.886   0.184
12734TIP3    H238148   6.826   2.926   0.038
12735TIP3   OH238149   6.488   1.328   1.045
12735TIP3    H138150   6.521   1.389   0.980
12735TIP3    H238151   6.561   1.316   1.107
12736TIP3   OH238152   1.789   3.395   2.249
12736TIP3    H138153   1.799   3.355   2.336
12736TIP3    H238154   1.837   3.337   2.190
12737TIP3   OH238155   8.029   1.966   6.066
12737TIP3    H138156   8.105   2.021   6.048
12737TIP3    H238157   8.023   1.907   5.991
12738TIP3   OH238158   3.571   3.059   0.103
12738TIP3    H138159   3.564   3.038   0.196
12738TIP3    H238160   3.633   3.131   0.099
12739TIP3   OH238161   6.157   1.039   4.988
12739TIP3    H138162   6.225   1.068   5.048
12739TIP3    H238163   6.147   0.946   5.008
12740TIP3   OH238164   1.135   5.832   0.063
12740TIP3    H138165   1.129   5.784  -0.019
12740TIP3    H238166   1.174   5.916   0.039
12741TIP3   OH238167   4.169   6.978   4.715
12741TIP3    H138168   4.226   6.980   4.638
12741TIP3    H238169   4.134   6.888   4.716
12742TIP3   OH238170   5.726   4.342   1.988
12742TIP3    H138171   5.743   4.253   2.019
12742TIP3    H238172   5.651   4.333   1.929
12743TIP3   OH238173   5.948   2.754   3.865
12743TIP3    H138174   5.900   2.834   3.848
12743TIP3    H238175   5.998   2.738   3.785
12744TIP3   OH238176   1.477   5.329   0.128
12744TIP3    H138177   1.402   5.270   0.139
12744TIP3    H238178   1.492   5.366   0.214
12745TIP3   OH238179   4.060   0.862   4.327
12745TIP3    H138180   3.991   0.797   4.342
12745TIP3    H238181   4.023   0.923   4.263
12746TIP3   OH238182   3.226   1.471   6.211
12746TIP3    H138183   3.160   1.425   6.263
12746TIP3    H238184   3.293   1.405   6.194
12747TIP3   OH238185   1.812   4.650   3.639
12747TIP3    H138186   1.836   4.572   3.689
12747TIP3    H238187   1.775   4.617   3.558
12748TIP3   OH238188   6.825   5.222   6.630
12748TIP3    H138189   6.799   5.155   6.693
12748TIP3    H238190   6.854   5.296   6.684
12749TIP3   OH238191   3.120   5.586   2.005
12749TIP3    H138192   3.171   5.590   2.086
12749TIP3    H238193   3.185   5.595   1.935
12750TIP3   OH238194   6.589   2.372   3.111
12750TIP3    H138195   6.564   2.403   3.024
12750TIP3    H238196   6.506   2.343   3.151
12751TIP3   OH238197   0.283   3.052   0.013
12751TIP3    H138198   0.224   2.993  -0.035
12751TIP3    H238199   0.231   3.130   0.029
12752TIP3   OH238200   0.919   6.302   4.356
12752TIP3    H138201   0.888   6.244   4.287
12752TIP3    H238202   0.906   6.253   4.437
12753TIP3   OH238203   5.999   2.880   4.722
12753TIP3    H138204   6.035   2.962   4.756
12753TIP3    H238205   6.055   2.812   4.760
12754TIP3   OH238206   7.095   2.674   1.899
12754TIP3    H138207   7.172   2.670   1.843
12754TIP3    H238208   7.021   2.682   1.838
12755TIP3   OH238209   2.278   3.105   0.246
12755TIP3    H138210   2.339   3.139   0.311
12755TIP3    H238211   2.197   3.088   0.295
12756TIP3   OH238212   6.958   1.795   2.108
12756TIP3    H138213   6.915   1.716   2.141
12756TIP3    H238214   6.995   1.769   2.024
12757TIP3   OH238215   8.251   5.711   1.745
12757TIP3    H138216   8.199   5.654   1.801
12757TIP3    H238217   8.334   5.665   1.733
12758TIP3   OH238218   0.031   2.985   3.001
12758TIP3    H138219   0.027   2.975   3.096
12758TIP3    H238220   0.091   2.916   2.973
12759TIP3   OH238221   1.801   0.617   4.282
12759TIP3    H138222   1.724   0.561   4.291
12759TIP3    H238223   1.870   0.571   4.329
12760TIP3   OH238224   3.456   3.604   3.054
12760TIP3    H138225   3.379   3.578   3.105
12760TIP3    H238226   3.508   3.524   3.047
12761TIP3   OH238227   1.998   6.555   4.309
12761TIP3    H138228   1.986   6.472   4.263
12761TIP3    H238229   2.002   6.531   4.402
12762TIP3   OH238230   6.129   6.058   3.045
12762TIP3    H138231   6.144   6.007   3.124
12762TIP3    H238232   6.152   5.999   2.973
12763TIP3   OH238233   6.555   1.265   6.340
12763TIP3    H138234   6.546   1.338   6.401
12763TIP3    H238235   6.485   1.277   6.277
12764TIP3   OH238236   4.512   0.855   0.267
12764TIP3    H138237   4.574   0.801   0.218
12764TIP3    H238238   4.438   0.796   0.283
12765TIP3   OH238239   2.347   6.984   5.947
12765TIP3    H138240   2.378   7.050   5.884
12765TIP3    H238241   2.273   7.025   5.991
12766TIP3   OH238242   6.530   7.149   0.415
12766TIP3    H138243   6.439   7.134   0.439
12766TIP3    H238244   6.538   7.244   0.413
12767TIP3   OH238245   3.245   0.631   5.120
12767TIP3    H138246   3.233   0.608   5.212
12767TIP3    H238247   3.157   0.655   5.089
12768TIP3   OH238248   0.842   5.780   3.366
12768TIP3    H138249   0.763   5.793   3.313
12768TIP3    H238250   0.899   5.726   3.311
12769TIP3   OH238251   7.535   4.351   4.579
12769TIP3    H138252   7.576   4.368   4.494
12769TIP3    H238253   7.494   4.265   4.570
12770TIP3   OH238254   0.110   3.892   3.311
12770TIP3    H138255   0.172   3.930   3.374
12770TIP3    H238256   0.165   3.836   3.256
12771TIP3   OH238257   3.826   2.164   4.227
12771TIP3    H138258   3.875   2.087   4.198
12771TIP3    H238259   3.761   2.129   4.289
12772TIP3   OH238260   8.029   0.545   2.598
12772TIP3    H138261   8.107   0.595   2.573
12772TIP3    H238262   7.996   0.591   2.676
12773TIP3   OH238263   7.934   2.848   2.448
12773TIP3    H138264   7.862   2.910   2.439
12773TIP3    H238265   7.892   2.763   2.460
12774TIP3   OH238266   3.846   6.684   5.542
12774TIP3    H138267   3.785   6.637   5.485
12774TIP3    H238268   3.933   6.662   5.509
12775TIP3   OH238269   4.407   2.631   3.257
12775TIP3    H138270   4.440   2.718   3.235
12775TIP3    H238271   4.386   2.591   3.173
12776TIP3   OH238272   5.682   4.055   2.740
12776TIP3    H138273   5.621   4.017   2.677
12776TIP3    H238274   5.763   4.007   2.726
12777TIP3   OH238275   6.722   6.156   6.391
12777TIP3    H138276   6.772   6.153   6.309
12777TIP3    H238277   6.636   6.189   6.366
12778TIP3   OH238278   2.010   2.573   2.718
12778TIP3    H138279   1.994   2.557   2.811
12778TIP3    H238280   2.105   2.576   2.709
12779TIP3   OH238281   1.512   4.932   6.119
12779TIP3    H138282   1.542   4.872   6.050
12779TIP3    H238283   1.451   4.879   6.172
12780TIP3   OH238284   2.670   0.556   1.004
12780TIP3    H138285   2.713   0.472   1.020
12780TIP3    H238286   2.628   0.546   0.919
12781TIP3   OH238287   1.095   6.737   6.067
12781TIP3    H138288   1.183   6.763   6.041
12781TIP3    H238289   1.040   6.755   5.991
12782TIP3   OH238290   1.059   3.607   4.860
12782TIP3    H138291   1.097   3.554   4.930
12782TIP3    H238292   1.098   3.571   4.780
12783TIP3   OH238293   1.235   6.502   4.029
12783TIP3    H138294   1.248   6.409   4.013
12783TIP3    H238295   1.204   6.507   4.119
12784TIP3   OH238296   6.718   1.189   2.627
12784TIP3    H138297   6.691   1.233   2.708
12784TIP3    H238298   6.657   1.116   2.617
12785TIP3   OH238299   4.229   4.681   2.908
12785TIP3    H138300   4.149   4.639   2.938
12785TIP3    H238301   4.282   4.692   2.987
12786TIP3   OH238302   0.818   3.481   1.620
12786TIP3    H138303   0.762   3.425   1.566
12786TIP3    H238304   0.767   3.562   1.630
12787TIP3   OH238305   5.971   3.834   1.912
12787TIP3    H138306   5.898   3.784   1.950
12787TIP3    H238307   5.993   3.788   1.832
12788TIP3   OH238308   8.129   4.958   6.064
12788TIP3    H138309   8.204   4.909   6.028
12788TIP3    H238310   8.085   4.993   5.987
12789TIP3   OH238311   5.449   7.556   5.924
12789TIP3    H138312   5.405   7.474   5.946
12789TIP3    H238313   5.445   7.607   6.005
12790TIP3   OH238314   1.406   0.836   6.340
12790TIP3    H138315   1.499   0.826   6.360
12790TIP3    H238316   1.386   0.927   6.364
12791TIP3   OH238317   3.523   1.453   3.373
12791TIP3    H138318   3.610   1.461   3.413
12791TIP3    H238319   3.536   1.391   3.302
12792TIP3   OH238320   1.043   7.063   4.059
12792TIP3    H138321   0.983   7.137   4.047
12792TIP3    H238322   1.012   6.997   3.997
12793TIP3   OH238323   6.693   7.277   2.854
12793TIP3    H138324   6.753   7.277   2.780
12793TIP3    H238325   6.637   7.201   2.839
12794TIP3   OH238326   7.242   3.049   6.677
12794TIP3    H138327   7.226   3.123   6.735
12794TIP3    H238328   7.160   3.036   6.630
12795TIP3   OH238329   3.112   6.710   5.889
12795TIP3    H138330   3.124   6.652   5.813
12795TIP3    H238331   3.118   6.651   5.964
12796TIP3   OH238332   2.278   4.398   5.763
12796TIP3    H138333   2.302   4.398   5.856
12796TIP3    H238334   2.331   4.328   5.725
12797TIP3   OH238335   1.476   1.103   2.112
12797TIP3    H138336   1.535   1.062   2.176
12797TIP3    H238337   1.530   1.169   2.068
12798TIP3   OH238338   7.659   4.952   4.783
12798TIP3    H138339   7.603   4.885   4.743
12798TIP3    H238340   7.740   4.905   4.804
12799TIP3   OH238341   6.514   5.225   4.321
12799TIP3    H138342   6.457   5.301   4.306
12799TIP3    H238343   6.484   5.160   4.258
12800TIP3   OH238344   1.905   4.783   3.929
12800TIP3    H138345   1.824   4.735   3.949
12800TIP3    H238346   1.882   4.839   3.856
12801TIP3   OH238347   6.897   4.578   2.383
12801TIP3    H138348   6.875   4.552   2.473
12801TIP3    H238349   6.900   4.496   2.335
12802TIP3   OH238350   3.077   7.133   1.699
12802TIP3    H138351   3.032   7.108   1.780
12802TIP3    H238352   3.164   7.093   1.707
12803TIP3   OH238353   4.615   1.187   6.442
12803TIP3    H138354   4.552   1.126   6.401
12803TIP3    H238355   4.565   1.267   6.457
12804TIP3   OH238356   7.461   4.237   5.060
12804TIP3    H138357   7.501   4.196   4.982
12804TIP3    H238358   7.367   4.226   5.047
12805TIP3   OH238359   5.831   6.052   4.990
12805TIP3    H138360   5.810   6.084   5.078
12805TIP3    H238361   5.922   6.023   4.997
12806TIP3   OH238362   4.473   5.424   3.776
12806TIP3    H138363   4.397   5.371   3.802
12806TIP3    H238364   4.549   5.370   3.800
12807TIP3   OH238365   8.226   3.823   1.927
12807TIP3    H138366   8.192   3.800   1.840
12807TIP3    H238367   8.251   3.916   1.919
12808TIP3   OH238368   1.477   4.131   1.886
12808TIP3    H138369   1.421   4.085   1.948
12808TIP3    H238370   1.565   4.098   1.904
12809TIP3   OH238371   4.591   6.981   5.756
12809TIP3    H138372   4.574   6.973   5.850
12809TIP3    H238373   4.684   7.001   5.751
12810TIP3   OH238374   7.780   1.306   1.261
12810TIP3    H138375   7.830   1.383   1.288
12810TIP3    H238376   7.843   1.234   1.266
12811TIP3   OH238377   2.650   0.341   6.379
12811TIP3    H138378   2.698   0.371   6.302
12811TIP3    H238379   2.608   0.419   6.414
12812TIP3   OH238380   0.320   4.930   3.690
12812TIP3    H138381   0.365   4.949   3.773
12812TIP3    H238382   0.265   5.007   3.675
12813TIP3   OH238383   5.110   1.332   1.217
12813TIP3    H138384   5.185   1.390   1.204
12813TIP3    H238385   5.121   1.263   1.151
12814TIP3   OH238386   0.919   7.536   4.049
12814TIP3    H138387   0.997   7.485   4.027
12814TIP3    H238388   0.951   7.603   4.109
12815TIP3   OH238389   5.784   0.256   5.847
12815TIP3    H138390   5.787   0.350   5.833
12815TIP3    H238391   5.768   0.246   5.941
12816TIP3   OH238392   5.094   4.313   5.661
12816TIP3    H138393   5.094   4.343   5.752
12816TIP3    H238394   5.116   4.390   5.610
12817TIP3   OH238395   4.948   6.976   5.307
12817TIP3    H138396   5.005   6.921   5.361
12817TIP3    H238397   4.978   7.065   5.324
12818TIP3   OH238398   5.725   7.542   3.493
12818TIP3    H138399   5.793   7.576   3.434
12818TIP3    H238400   5.711   7.452   3.464
12819TIP3   OH238401   0.426   4.630   2.997
12819TIP3    H138402   0.517   4.600   2.991
12819TIP3    H238403   0.430   4.707   3.055
12820TIP3   OH238404   4.836   5.773   6.087
12820TIP3    H138405   4.849   5.683   6.057
12820TIP3    H238406   4.796   5.818   6.012
12821TIP3   OH238407   3.305   5.084   3.933
12821TIP3    H138408   3.356   5.048   3.861
12821TIP3    H238409   3.225   5.116   3.892
12822TIP3   OH238410   2.830   4.527   4.896
12822TIP3    H138411   2.866   4.440   4.877
12822TIP3    H238412   2.886   4.560   4.966
12823TIP3   OH238413   7.239   3.558   4.449
12823TIP3    H138414   7.146   3.577   4.435
12823TIP3    H238415   7.243   3.463   4.457
12824TIP3   OH238416   1.787   5.179   1.533
12824TIP3    H138417   1.770   5.136   1.449
12824TIP3    H238418   1.846   5.252   1.512
12825TIP3   OH238419   2.806   5.196   1.550
12825TIP3    H138420   2.803   5.200   1.645
12825TIP3    H238421   2.840   5.109   1.530
12826TIP3   OH238422   2.036   6.920   0.089
12826TIP3    H138423   1.976   6.992   0.109
12826TIP3    H238424   1.980   6.844   0.076
12827TIP3   OH238425   2.981   0.077   3.451
12827TIP3    H138426   3.017   0.038   3.531
12827TIP3    H238427   2.931   0.006   3.411
12828TIP3   OH238428   6.092   5.427   2.564
12828TIP3    H138429   6.031   5.493   2.532
12828TIP3    H238430   6.084   5.431   2.660
12829TIP3   OH238431   5.402   2.815   4.055
12829TIP3    H138432   5.487   2.848   4.026
12829TIP3    H238433   5.413   2.720   4.058
12830TIP3   OH238434   7.044   4.947   2.478
12830TIP3    H138435   7.132   4.908   2.483
12830TIP3    H238436   7.054   5.019   2.416
12831TIP3   OH238437   6.610   7.365   3.103
12831TIP3    H138438   6.658   7.338   3.024
12831TIP3    H238439   6.595   7.283   3.151
12832TIP3   OH238440   5.859   1.056   2.920
12832TIP3    H138441   5.780   1.091   2.879
12832TIP3    H238442   5.847   0.961   2.919
12833TIP3   OH238443   8.018   3.652   0.767
12833TIP3    H138444   8.001   3.573   0.817
12833TIP3    H238445   7.947   3.656   0.703
12834TIP3   OH238446   6.308   1.897   5.456
12834TIP3    H138447   6.227   1.847   5.468
12834TIP3    H238448   6.318   1.905   5.362
12835TIP3   OH238449   2.037   1.264   3.483
12835TIP3    H138450   1.971   1.197   3.469
12835TIP3    H238451   2.047   1.269   3.578
12836TIP3   OH238452   2.441   4.656   2.318
12836TIP3    H138453   2.398   4.678   2.235
12836TIP3    H238454   2.526   4.621   2.291
12837TIP3   OH238455   1.183   1.373   2.882
12837TIP3    H138456   1.092   1.344   2.877
12837TIP3    H238457   1.218   1.356   2.795
12838TIP3   OH238458   5.659   5.113   1.082
12838TIP3    H138459   5.721   5.045   1.107
12838TIP3    H238460   5.627   5.148   1.165
12839TIP3   OH238461   5.190   4.067   5.574
12839TIP3    H138462   5.167   4.155   5.606
12839TIP3    H238463   5.109   4.017   5.581
12840TIP3   OH238464   1.486   7.317   6.372
12840TIP3    H138465   1.543   7.277   6.306
12840TIP3    H238466   1.403   7.271   6.363
12841TIP3   OH238467   6.036   1.442   3.013
12841TIP3    H138468   6.006   1.371   2.956
12841TIP3    H238469   5.964   1.455   3.074
12842TIP3   OH238470   1.555   1.988   2.754
12842TIP3    H138471   1.605   2.051   2.702
12842TIP3    H238472   1.487   2.041   2.796
12843TIP3   OH238473   2.106   5.279   1.912
12843TIP3    H138474   2.031   5.306   1.966
12843TIP3    H238475   2.084   5.190   1.884
12844TIP3   OH238476   6.409   6.294   1.581
12844TIP3    H138477   6.326   6.330   1.613
12844TIP3    H238478   6.403   6.201   1.601
12845TIP3   OH238479   3.860   3.365   6.214
12845TIP3    H138480   3.850   3.322   6.129
12845TIP3    H238481   3.819   3.305   6.276
12846TIP3   OH238482   8.045   2.278   4.502
12846TIP3    H138483   7.999   2.246   4.580
12846TIP3    H238484   8.131   2.236   4.505
12847TIP3   OH238485   2.340   6.256   6.592
12847TIP3    H138486   2.254   6.248   6.551
12847TIP3    H238487   2.402   6.246   6.519
12848TIP3   OH238488   3.950   1.644   3.907
12848TIP3    H138489   3.897   1.703   3.960
12848TIP3    H238490   3.906   1.559   3.915
12849TIP3   OH238491   3.578   3.595   4.935
12849TIP3    H138492   3.504   3.535   4.931
12849TIP3    H238493   3.617   3.579   5.021
12850TIP3   OH238494   4.069   6.248   6.233
12850TIP3    H138495   4.154   6.274   6.270
12850TIP3    H238496   4.090   6.203   6.152
12851TIP3   OH238497   2.208   2.746   0.322
12851TIP3    H138498   2.258   2.808   0.374
12851TIP3    H238499   2.165   2.800   0.255
12852TIP3   OH238500   7.659   4.037   6.066
12852TIP3    H138501   7.680   3.947   6.092
12852TIP3    H238502   7.597   4.067   6.132
12853TIP3   OH238503   4.292   0.993   0.217
12853TIP3    H138504   4.264   0.963   0.130
12853TIP3    H238505   4.383   0.965   0.223
12854TIP3   OH238506   4.229   2.154   5.854
12854TIP3    H138507   4.290   2.176   5.784
12854TIP3    H238508   4.280   2.096   5.912
12855TIP3   OH238509   4.048   3.049   5.634
12855TIP3    H138510   4.055   3.017   5.724
12855TIP3    H238511   4.044   3.144   5.642
12856TIP3   OH238512   0.502   0.083   2.010
12856TIP3    H138513   0.472   0.139   2.081
12856TIP3    H238514   0.450   0.110   1.934
12857TIP3   OH238515   7.744   6.225   2.338
12857TIP3    H138516   7.796   6.145   2.346
12857TIP3    H238517   7.786   6.274   2.268
12858TIP3   OH238518   2.600   5.779   5.767
12858TIP3    H138519   2.593   5.859   5.820
12858TIP3    H238520   2.515   5.772   5.723
12859TIP3   OH238521   0.347   0.466   5.523
12859TIP3    H138522   0.417   0.401   5.529
12859TIP3    H238523   0.339   0.501   5.612
12860TIP3   OH238524   5.652   0.575   2.638
12860TIP3    H138525   5.577   0.516   2.639
12860TIP3    H238526   5.693   0.560   2.553
12861TIP3   OH238527   5.368   3.800   4.862
12861TIP3    H138528   5.391   3.709   4.881
12861TIP3    H238529   5.321   3.830   4.939
12862TIP3   OH238530   6.066   7.334   0.242
12862TIP3    H138531   5.978   7.307   0.216
12862TIP3    H238532   6.057   7.363   0.332
12863TIP3   OH238533   1.103   3.654   1.741
12863TIP3    H138534   1.128   3.681   1.652
12863TIP3    H238535   1.024   3.706   1.759
12864TIP3   OH238536   0.531   2.663   4.764
12864TIP3    H138537   0.445   2.654   4.722
12864TIP3    H238538   0.591   2.679   4.691
12865TIP3   OH238539   3.867   7.844   1.729
12865TIP3    H138540   3.955   7.838   1.693
12865TIP3    H238541   3.838   7.753   1.736
12866TIP3   OH238542   5.034   4.800   1.655
12866TIP3    H138543   5.118   4.838   1.682
12866TIP3    H238544   5.044   4.784   1.561
12867TIP3   OH238545   6.318   5.128   4.498
12867TIP3    H138546   6.379   5.147   4.426
12867TIP3    H238547   6.374   5.108   4.572
12868TIP3   OH238548   4.155   3.191   2.013
12868TIP3    H138549   4.240   3.160   2.043
12868TIP3    H238550   4.102   3.197   2.092
12869TIP3   OH238551   2.551   0.154   3.107
12869TIP3    H138552   2.550   0.060   3.086
12869TIP3    H238553   2.493   0.162   3.183
12870TIP3   OH238554   1.598   2.647   4.168
12870TIP3    H138555   1.689   2.673   4.187
12870TIP3    H238556   1.571   2.707   4.097
12871TIP3   OH238557   1.717   1.643   2.046
12871TIP3    H138558   1.692   1.552   2.065
12871TIP3    H238559   1.740   1.680   2.131
12872TIP3   OH238560   4.796   3.304   5.579
12872TIP3    H138561   4.753   3.300   5.665
12872TIP3    H238562   4.800   3.398   5.558
12873TIP3   OH238563   2.203   7.551   0.056
12873TIP3    H138564   2.145   7.615   0.097
12873TIP3    H238565   2.232   7.594  -0.025
12874TIP3   OH238566   5.697   5.992   0.838
12874TIP3    H138567   5.630   6.051   0.874
12874TIP3    H238568   5.749   5.966   0.914
12875TIP3   OH238569   5.822   1.633   1.510
12875TIP3    H138570   5.857   1.545   1.497
12875TIP3    H238571   5.890   1.678   1.560
12876TIP3   OH238572   7.838   0.120   6.571
12876TIP3    H138573   7.829   0.112   6.666
12876TIP3    H238574   7.923   0.161   6.559
12877TIP3   OH238575   2.783   4.176   4.363
12877TIP3    H138576   2.742   4.190   4.449
12877TIP3    H238577   2.724   4.219   4.301
12878TIP3   OH238578   7.886   1.195   2.474
12878TIP3    H138579   7.868   1.136   2.401
12878TIP3    H238580   7.967   1.240   2.450
12879TIP3   OH238581   3.644   4.544   5.978
12879TIP3    H138582   3.573   4.554   6.042
12879TIP3    H238583   3.718   4.511   6.029
12880TIP3   OH238584   6.533   4.777   6.274
12880TIP3    H138585   6.623   4.798   6.299
12880TIP3    H238586   6.499   4.857   6.235
12881TIP3   OH238587   3.924   6.777   1.601
12881TIP3    H138588   3.898   6.692   1.565
12881TIP3    H238589   3.927   6.835   1.526
12882TIP3   OH238590   1.970   4.695   2.910
12882TIP3    H138591   1.891   4.746   2.894
12882TIP3    H238592   1.966   4.672   3.002
12883TIP3   OH238593   1.417   4.095   1.061
12883TIP3    H138594   1.505   4.057   1.065
12883TIP3    H238595   1.408   4.124   0.970
12884TIP3   OH238596   5.340   6.632   5.004
12884TIP3    H138597   5.396   6.555   5.015
12884TIP3    H238598   5.266   6.600   4.952
12885TIP3   OH238599   0.392   2.655   1.070
12885TIP3    H138600   0.364   2.580   1.121
12885TIP3    H238601   0.378   2.629   0.979
12886TIP3   OH238602   2.255   5.364   0.364
12886TIP3    H138603   2.218   5.349   0.451
12886TIP3    H238604   2.198   5.316   0.305
12887TIP3   OH238605   7.427   6.515   6.735
12887TIP3    H138606   7.389   6.552   6.815
12887TIP3    H238607   7.430   6.421   6.750
12888TIP3   OH238608   2.241   1.217   1.760
12888TIP3    H138609   2.308   1.157   1.726
12888TIP3    H238610   2.264   1.302   1.722
12889TIP3   OH238611   4.741   6.824   3.583
12889TIP3    H138612   4.794   6.775   3.647
12889TIP3    H238613   4.804   6.851   3.517
12890TIP3   OH238614   5.553   1.696   4.675
12890TIP3    H138615   5.628   1.682   4.732
12890TIP3    H238616   5.540   1.791   4.676
12891TIP3   OH238617   4.908   1.746   5.442
12891TIP3    H138618   4.816   1.732   5.462
12891TIP3    H238619   4.908   1.815   5.375
12892TIP3   OH238620   6.672   1.519   6.501
12892TIP3    H138621   6.705   1.507   6.412
12892TIP3    H238622   6.664   1.614   6.511
12893TIP3   OH238623   1.520   0.648   0.436
12893TIP3    H138624   1.442   0.621   0.484
12893TIP3    H238625   1.584   0.579   0.453
12894TIP3   OH238626   0.272   7.747   1.386
12894TIP3    H138627   0.290   7.768   1.478
12894TIP3    H238628   0.253   7.653   1.386
12895TIP3   OH238629   2.295   4.651   6.176
12895TIP3    H138630   2.368   4.690   6.128
12895TIP3    H238631   2.256   4.589   6.114
12896TIP3   OH238632   3.898   3.337   4.294
12896TIP3    H138633   3.806   3.360   4.312
12896TIP3    H238634   3.898   3.242   4.292
12897TIP3   OH238635   0.180   0.718   2.002
12897TIP3    H138636   0.204   0.806   1.972
12897TIP3    H238637   0.226   0.659   1.942
12898TIP3   OH238638   3.631   6.510   2.609
12898TIP3    H138639   3.596   6.585   2.656
12898TIP3    H238640   3.682   6.548   2.538
12899TIP3   OH238641   6.384   0.157   0.735
12899TIP3    H138642   6.436   0.194   0.663
12899TIP3    H238643   6.296   0.193   0.721
12900TIP3   OH238644   2.465   2.531   3.358
12900TIP3    H138645   2.371   2.525   3.341
12900TIP3    H238646   2.494   2.605   3.305
12901TIP3   OH238647   0.763   5.895   3.029
12901TIP3    H138648   0.724   5.852   2.953
12901TIP3    H238649   0.717   5.979   3.034
12902TIP3   OH238650   0.021   3.193   6.120
12902TIP3    H138651  -0.041   3.163   6.053
12902TIP3    H238652   0.053   3.277   6.086
12903TIP3   OH238653   4.153   6.529   2.774
12903TIP3    H138654   4.210   6.605   2.782
12903TIP3    H238655   4.161   6.501   2.683
12904TIP3   OH238656   5.839   1.418   5.056
12904TIP3    H138657   5.911   1.360   5.079
12904TIP3    H238658   5.760   1.364   5.062
12905TIP3   OH238659   1.053   6.195   3.622
12905TIP3    H138660   1.033   6.221   3.712
12905TIP3    H238661   1.054   6.277   3.573
12906TIP3   OH238662   6.970   4.566   2.666
12906TIP3    H138663   6.892   4.515   2.691
12906TIP3    H238664   7.041   4.528   2.717
12907TIP3   OH238665   5.181   5.279   4.150
12907TIP3    H138666   5.224   5.338   4.088
12907TIP3    H238667   5.088   5.287   4.130
12908TIP3   OH238668   5.450   2.909   4.958
12908TIP3    H138669   5.419   2.977   5.018
12908TIP3    H238670   5.494   2.958   4.888
12909TIP3   OH238671   2.035   4.280   3.761
12909TIP3    H138672   1.999   4.191   3.766
12909TIP3    H238673   1.958   4.337   3.756
12910TIP3   OH238674   7.274   5.876   5.391
12910TIP3    H138675   7.319   5.810   5.444
12910TIP3    H238676   7.188   5.885   5.432
12911TIP3   OH238677   3.789   1.119   5.532
12911TIP3    H138678   3.707   1.082   5.566
12911TIP3    H238679   3.855   1.095   5.597
12912TIP3   OH238680   3.493   2.733   6.186
12912TIP3    H138681   3.525   2.695   6.104
12912TIP3    H238682   3.567   2.782   6.220
12913TIP3   OH238683   6.897   2.116   0.465
12913TIP3    H138684   6.950   2.191   0.492
12913TIP3    H238685   6.956   2.064   0.410
12914TIP3   OH238686   2.568   1.940   5.112
12914TIP3    H138687   2.576   2.035   5.104
12914TIP3    H238688   2.609   1.919   5.196
12915TIP3   OH238689   0.246   3.893   1.284
12915TIP3    H138690   0.306   3.823   1.311
12915TIP3    H238691   0.293   3.939   1.214
12916TIP3   OH238692   5.654   3.379   6.408
12916TIP3    H138693   5.675   3.453   6.465
12916TIP3    H238694   5.626   3.310   6.467
12917TIP3   OH238695   1.123   0.662   3.865
12917TIP3    H138696   1.093   0.572   3.881
12917TIP3    H238697   1.102   0.709   3.945
12918TIP3   OH238698   2.568   4.041   5.409
12918TIP3    H138699   2.477   4.050   5.379
12918TIP3    H238700   2.567   4.077   5.498
12919TIP3   OH238701   0.146   5.456   6.655
12919TIP3    H138702   0.108   5.540   6.628
12919TIP3    H238703   0.167   5.467   6.748
12920TIP3   OH238704   6.975   7.508   2.133
12920TIP3    H138705   6.956   7.444   2.064
12920TIP3    H238706   7.070   7.503   2.145
12921TIP3   OH238707   0.719   3.505   2.719
12921TIP3    H138708   0.739   3.548   2.802
12921TIP3    H238709   0.789   3.440   2.708
12922TIP3   OH238710   1.020   6.576   6.287
12922TIP3    H138711   1.029   6.481   6.281
12922TIP3    H238712   1.048   6.608   6.202
12923TIP3   OH238713   7.085   4.837   3.195
12923TIP3    H138714   7.020   4.831   3.265
12923TIP3    H238715   7.036   4.868   3.119
12924TIP3   OH238716   5.399   6.211   2.760
12924TIP3    H138717   5.404   6.232   2.853
12924TIP3    H238718   5.320   6.256   2.730
12925TIP3   OH238719   0.470   0.760   1.579
12925TIP3    H138720   0.384   0.766   1.538
12925TIP3    H238721   0.451   0.735   1.670
12926TIP3   OH238722   7.832   4.470   5.398
12926TIP3    H138723   7.745   4.433   5.413
12926TIP3    H238724   7.885   4.396   5.368
12927TIP3   OH238725   1.613   2.903   5.720
12927TIP3    H138726   1.675   2.924   5.649
12927TIP3    H238727   1.666   2.860   5.787
12928TIP3   OH238728   8.019   1.227   6.440
12928TIP3    H138729   7.969   1.261   6.365
12928TIP3    H238730   8.072   1.156   6.403
12929TIP3   OH238731   5.551   1.999   5.293
12929TIP3    H138732   5.628   1.944   5.309
12929TIP3    H238733   5.545   2.054   5.371
12930TIP3   OH238734   5.643   4.457   6.639
12930TIP3    H138735   5.720   4.511   6.618
12930TIP3    H238736   5.611   4.494   6.722
12931TIP3   OH238737   0.809   7.680   1.197
12931TIP3    H138738   0.881   7.715   1.250
12931TIP3    H238739   0.795   7.745   1.129
12932TIP3   OH238740   0.451   7.114   3.626
12932TIP3    H138741   0.533   7.162   3.613
12932TIP3    H238742   0.453   7.046   3.559
12933TIP3   OH238743   3.740   0.471   1.919
12933TIP3    H138744   3.731   0.414   1.843
12933TIP3    H238745   3.819   0.440   1.963
12934TIP3   OH238746   6.638   7.168   0.060
12934TIP3    H138747   6.603   7.256   0.074
12934TIP3    H238748   6.724   7.183   0.020
12935TIP3   OH238749   3.221   7.510   2.097
12935TIP3    H138750   3.195   7.479   2.011
12935TIP3    H238751   3.314   7.529   2.089
12936TIP3   OH238752   0.884   2.561   2.273
12936TIP3    H138753   0.802   2.575   2.225
12936TIP3    H238754   0.911   2.649   2.301
12937TIP3   OH238755   0.229   0.045   5.587
12937TIP3    H138756   0.314   0.032   5.629
12937TIP3    H238757   0.180  -0.035   5.606
12938TIP3   OH238758   7.830   0.435   1.899
12938TIP3    H138759   7.870   0.377   1.964
12938TIP3    H238760   7.765   0.381   1.855
12939TIP3   OH238761   6.862   5.035   5.899
12939TIP3    H138762   6.926   5.054   5.968
12939TIP3    H238763   6.810   4.963   5.935
12940TIP3   OH238764   3.924   2.255   2.802
12940TIP3    H138765   3.995   2.192   2.788
12940TIP3    H238766   3.851   2.203   2.835
12941TIP3   OH238767   3.535   3.318   4.546
12941TIP3    H138768   3.444   3.330   4.519
12941TIP3    H238769   3.584   3.384   4.497
12942TIP3   OH238770   0.046   4.062   1.945
12942TIP3    H138771   0.069   4.154   1.955
12942TIP3    H238772   0.092   4.034   1.866
12943TIP3   OH238773   1.151   0.658   0.813
12943TIP3    H138774   1.095   0.649   0.890
12943TIP3    H238775   1.090   0.669   0.740
12944TIP3   OH238776   4.906   1.949   5.851
12944TIP3    H138777   5.001   1.962   5.848
12944TIP3    H238778   4.879   1.950   5.759
12945TIP3   OH238779   5.284   5.890   6.424
12945TIP3    H138780   5.337   5.967   6.403
12945TIP3    H238781   5.325   5.819   6.374
12946TIP3   OH238782   3.533   0.819   4.508
12946TIP3    H138783   3.617   0.822   4.553
12946TIP3    H238784   3.510   0.726   4.505
12947TIP3   OH238785   1.399   5.387   0.462
12947TIP3    H138786   1.337   5.427   0.523
12947TIP3    H238787   1.356   5.305   0.435
12948TIP3   OH238788   8.091   0.556   5.142
12948TIP3    H138789   8.019   0.532   5.084
12948TIP3    H238790   8.163   0.498   5.117
12949TIP3   OH238791   5.285   6.588   4.036
12949TIP3    H138792   5.376   6.581   4.065
12949TIP3    H238793   5.278   6.522   3.967
12950TIP3   OH238794   8.223   1.596   2.542
12950TIP3    H138795   8.148   1.647   2.573
12950TIP3    H238796   8.193   1.557   2.459
12951TIP3   OH238797   2.636   5.668   1.430
12951TIP3    H138798   2.694   5.679   1.505
12951TIP3    H238799   2.693   5.632   1.361
12952TIP3   OH238800   7.038   6.382   1.005
12952TIP3    H138801   6.987   6.417   1.079
12952TIP3    H238802   7.066   6.296   1.034
12953TIP3   OH238803   5.458   3.405   6.022
12953TIP3    H138804   5.544   3.430   6.053
12953TIP3    H238805   5.474   3.362   5.938
12954TIP3   OH238806   4.957   3.097   1.997
12954TIP3    H138807   4.972   3.183   1.955
12954TIP3    H238808   5.024   3.092   2.065
12955TIP3   OH238809   1.141   2.697   1.052
12955TIP3    H138810   1.136   2.720   1.145
12955TIP3    H238811   1.139   2.601   1.051
12956TIP3   OH238812   1.038   6.444   6.620
12956TIP3    H138813   1.121   6.446   6.667
12956TIP3    H238814   1.026   6.533   6.588
12957TIP3   OH238815   3.586   7.183   6.437
12957TIP3    H138816   3.645   7.121   6.394
12957TIP3    H238817   3.513   7.129   6.466
12958TIP3   OH238818   2.386   0.599   1.582
12958TIP3    H138819   2.359   0.669   1.522
12958TIP3    H238820   2.479   0.615   1.597
12959TIP3   OH238821   6.326   7.280   3.749
12959TIP3    H138822   6.280   7.203   3.783
12959TIP3    H238823   6.289   7.293   3.662
12960TIP3   OH238824   3.330   0.018   1.669
12960TIP3    H138825   3.398   0.049   1.730
12960TIP3    H238826   3.282   0.098   1.644
12961TIP3   OH238827   3.945   6.802   2.281
12961TIP3    H138828   3.874   6.820   2.219
12961TIP3    H238829   4.019   6.854   2.248
12962TIP3   OH238830   4.549   3.635   6.085
12962TIP3    H138831   4.595   3.596   6.160
12962TIP3    H238832   4.619   3.670   6.030
12963TIP3   OH238833   5.127   5.635   3.667
12963TIP3    H138834   5.043   5.678   3.651
12963TIP3    H238835   5.105   5.556   3.717
12964TIP3   OH238836   7.163   3.595   3.402
12964TIP3    H138837   7.256   3.594   3.382
12964TIP3    H238838   7.157   3.555   3.489
12965TIP3   OH238839   0.833   1.181   1.231
12965TIP3    H138840   0.812   1.265   1.274
12965TIP3    H238841   0.869   1.206   1.146
12966TIP3   OH238842   5.715   7.675   3.740
12966TIP3    H138843   5.706   7.661   3.646
12966TIP3    H238844   5.635   7.638   3.778
12967TIP3   OH238845   1.183   3.768   5.090
12967TIP3    H138846   1.109   3.710   5.111
12967TIP3    H238847   1.201   3.814   5.173
12968TIP3   OH238848   4.135   6.223   3.291
12968TIP3    H138849   4.118   6.138   3.250
12968TIP3    H238850   4.167   6.201   3.379
12969TIP3   OH238851   1.592   4.089   5.380
12969TIP3    H138852   1.557   4.175   5.402
12969TIP3    H238853   1.523   4.028   5.404
12970TIP3   OH238854   6.312   0.629   1.538
12970TIP3    H138855   6.290   0.645   1.630
12970TIP3    H238856   6.256   0.556   1.512
12971TIP3   OH238857   4.895   4.859   0.817
12971TIP3    H138858   4.913   4.936   0.871
12971TIP3    H238859   4.810   4.878   0.776
12972TIP3   OH238860   1.945   6.343   6.064
12972TIP3    H138861   1.888   6.278   6.105
12972TIP3    H238862   1.886   6.402   6.018
12973TIP3   OH238863   0.798   2.874   0.938
12973TIP3    H138864   0.872   2.837   0.889
12973TIP3    H238865   0.765   2.802   0.991
12974TIP3   OH238866   7.414   3.285   6.277
12974TIP3    H138867   7.399   3.196   6.308
12974TIP3    H238868   7.328   3.327   6.282
12975TIP3   OH238869   4.279   0.356   2.026
12975TIP3    H138870   4.361   0.307   2.018
12975TIP3    H238871   4.297   0.439   1.983
12976TIP3   OH238872   0.289   4.146   3.354
12976TIP3    H138873   0.229   4.139   3.280
12976TIP3    H238874   0.330   4.232   3.343
12977TIP3   OH238875   5.403   0.047   5.515
12977TIP3    H138876   5.324   0.096   5.538
12977TIP3    H238877   5.471   0.114   5.507
12978TIP3   OH238878   6.764   2.915   3.724
12978TIP3    H138879   6.844   2.903   3.776
12978TIP3    H238880   6.738   2.827   3.699
12979TIP3   OH238881   6.562   6.081   4.722
12979TIP3    H138882   6.469   6.086   4.700
12979TIP3    H238883   6.593   6.002   4.678
12980TIP3   OH238884   1.516   7.250   5.236
12980TIP3    H138885   1.567   7.257   5.156
12980TIP3    H238886   1.425   7.242   5.207
12981TIP3   OH238887   0.675   3.186   1.703
12981TIP3    H138888   0.592   3.166   1.747
12981TIP3    H238889   0.649   3.227   1.621
12982TIP3   OH238890   6.573   1.720   0.072
12982TIP3    H138891   6.643   1.664   0.105
12982TIP3    H238892   6.564   1.789   0.137
12983TIP3   OH238893   3.449   6.180   0.880
12983TIP3    H138894   3.472   6.088   0.892
12983TIP3    H238895   3.425   6.211   0.967
12984TIP3   OH238896   4.123   7.059   1.982
12984TIP3    H138897   4.068   7.049   2.060
12984TIP3    H238898   4.173   6.978   1.977
12985TIP3   OH238899   2.567   3.676   2.160
12985TIP3    H138900   2.631   3.617   2.121
12985TIP3    H238901   2.523   3.623   2.226
12986TIP3   OH238902   3.618   1.743   2.899
12986TIP3    H138903   3.591   1.662   2.856
12986TIP3    H238904   3.571   1.812   2.852
12987TIP3   OH238905   0.721   4.524   5.934
12987TIP3    H138906   0.686   4.589   5.873
12987TIP3    H238907   0.760   4.457   5.878
12988TIP3   OH238908   7.198   1.874   4.233
12988TIP3    H138909   7.215   1.902   4.323
12988TIP3    H238910   7.233   1.945   4.178
12989TIP3   OH238911   7.704   3.693   1.028
12989TIP3    H138912   7.711   3.614   1.080
12989TIP3    H238913   7.659   3.666   0.948
12990TIP3   OH238914   5.314   1.770   0.630
12990TIP3    H138915   5.339   1.749   0.720
12990TIP3    H238916   5.358   1.704   0.577
12991TIP3   OH238917   0.435   0.081   2.725
12991TIP3    H138918   0.512   0.129   2.694
12991TIP3    H238919   0.417   0.017   2.656
12992TIP3   OH238920   1.860   2.592   1.201
12992TIP3    H138921   1.875   2.666   1.143
12992TIP3    H238922   1.812   2.629   1.275
12993TIP3   OH238923   3.246   4.604   6.128
12993TIP3    H138924   3.223   4.585   6.037
12993TIP3    H238925   3.232   4.520   6.173
12994TIP3   OH238926   6.672   6.120   2.849
12994TIP3    H138927   6.747   6.177   2.835
12994TIP3    H238928   6.642   6.139   2.938
12995TIP3   OH238929   1.711   5.509   1.466
12995TIP3    H138930   1.789   5.461   1.438
12995TIP3    H238931   1.737   5.601   1.462
12996TIP3   OH238932   5.052   5.268   2.837
12996TIP3    H138933   5.010   5.304   2.759
12996TIP3    H238934   5.051   5.341   2.900
12997TIP3   OH238935   5.365   5.621   2.776
12997TIP3    H138936   5.446   5.619   2.725
12997TIP3    H238937   5.299   5.583   2.717
12998TIP3   OH238938   3.165   4.947   5.895
12998TIP3    H138939   3.137   4.933   5.985
12998TIP3    H238940   3.093   4.997   5.855
12999TIP3   OH238941   7.906   2.536   4.555
12999TIP3    H138942   7.816   2.512   4.533
12999TIP3    H238943   7.959   2.467   4.516
13000TIP3   OH238944   3.536   0.197   1.789
13000TIP3    H138945   3.475   0.225   1.720
13000TIP3    H238946   3.622   0.227   1.759
13001TIP3   OH238947   7.710   1.096   5.165
13001TIP3    H138948   7.623   1.135   5.165
13001TIP3    H238949   7.758   1.143   5.096
13002TIP3   OH238950   6.440   7.407   0.413
13002TIP3    H138951   6.356   7.369   0.440
13002TIP3    H238952   6.418   7.497   0.387
13003TIP3   OH238953   0.461   3.451   3.381
13003TIP3    H138954   0.497   3.373   3.425
13003TIP3    H238955   0.367   3.434   3.375
13004TIP3   OH238956   1.757   3.004   1.375
13004TIP3    H138957   1.744   2.909   1.378
13004TIP3    H238958   1.841   3.018   1.418
13005TIP3   OH238959   7.461   1.700   0.976
13005TIP3    H138960   7.460   1.662   1.064
13005TIP3    H238961   7.369   1.711   0.953
13006TIP3   OH238962   1.916   3.705   1.926
13006TIP3    H138963   1.968   3.786   1.920
13006TIP3    H238964   1.896   3.697   2.019
13007TIP3   OH238965   1.608   0.413   3.478
13007TIP3    H138966   1.576   0.394   3.391
13007TIP3    H238967   1.639   0.504   3.473
13008TIP3   OH238968   0.019   2.681   0.574
13008TIP3    H138969   0.033   2.761   0.523
13008TIP3    H238970  -0.021   2.711   0.655
13009TIP3   OH238971   3.881   6.996   3.023
13009TIP3    H138972   3.831   7.067   2.982
13009TIP3    H238973   3.822   6.960   3.088
13010TIP3   OH238974   4.713   2.326   3.553
13010TIP3    H138975   4.707   2.361   3.641
13010TIP3    H238976   4.651   2.378   3.502
13011TIP3   OH238977   4.934   5.737   2.177
13011TIP3    H138978   5.029   5.736   2.190
13011TIP3    H238979   4.918   5.815   2.124
13012TIP3   OH238980   4.537   1.264   1.666
13012TIP3    H138981   4.577   1.348   1.688
13012TIP3    H238982   4.444   1.276   1.687
13013TIP3   OH238983   4.241   5.801   5.061
13013TIP3    H138984   4.194   5.734   5.110
13013TIP3    H238985   4.234   5.880   5.116
13014TIP3   OH238986   7.382   4.257   2.059
13014TIP3    H138987   7.349   4.168   2.043
13014TIP3    H238988   7.324   4.293   2.126
13015TIP3   OH238989   8.199   3.605   5.043
13015TIP3    H138990   8.163   3.622   4.956
13015TIP3    H238991   8.121   3.594   5.098
13016TIP3   OH238992   5.763   6.795   5.026
13016TIP3    H138993   5.796   6.781   5.115
13016TIP3    H238994   5.834   6.841   4.981
13017TIP3   OH238995   5.368   3.909   4.010
13017TIP3    H138996   5.374   3.954   4.094
13017TIP3    H238997   5.316   3.968   3.955
13018TIP3   OH238998   3.902   0.420   3.581
13018TIP3    H138999   3.939   0.509   3.588
13018TIP3    H239000   3.976   0.366   3.555
13019TIP3   OH239001   2.393   6.013   5.029
13019TIP3    H139002   2.342   6.094   5.020
13019TIP3    H239003   2.428   5.996   4.942
13020TIP3   OH239004   2.483   7.369   0.636
13020TIP3    H139005   2.497   7.284   0.595
13020TIP3    H239006   2.402   7.402   0.597
13021TIP3   OH239007   2.920   6.007   0.359
13021TIP3    H139008   2.948   5.917   0.339
13021TIP3    H239009   2.975   6.062   0.305
13022TIP3   OH239010   2.781   4.872   5.664
13022TIP3    H139011   2.772   4.958   5.624
13022TIP3    H239012   2.720   4.816   5.616
13023TIP3   OH239013   5.710   1.113   5.725
13023TIP3    H139014   5.779   1.047   5.723
13023TIP3    H239015   5.671   1.110   5.638
13024TIP3   OH239016   5.960   3.913   6.207
13024TIP3    H139017   6.028   3.908   6.275
13024TIP3    H239018   6.001   3.874   6.129
13025TIP3   OH239019   5.546   1.320   1.085
13025TIP3    H139020   5.603   1.244   1.072
13025TIP3    H239021   5.600   1.394   1.058
13026TIP3   OH239022   1.476   4.434   3.393
13026TIP3    H139023   1.521   4.362   3.348
13026TIP3    H239024   1.519   4.513   3.361
13027TIP3   OH239025   4.957   0.727   0.809
13027TIP3    H139026   4.875   0.697   0.848
13027TIP3    H239027   4.967   0.817   0.840
13028TIP3   OH239028   1.392   2.654   2.033
13028TIP3    H139029   1.467   2.694   1.988
13028TIP3    H239030   1.403   2.560   2.018
13029TIP3   OH239031   6.334   3.071   0.702
13029TIP3    H139032   6.359   3.156   0.665
13029TIP3    H239033   6.417   3.023   0.708
13030TIP3   OH239034   6.502   3.774   4.051
13030TIP3    H139035   6.515   3.763   4.145
13030TIP3    H239036   6.584   3.745   4.011
13031TIP3   OH239037   6.940   0.536   5.204
13031TIP3    H139038   6.972   0.490   5.126
13031TIP3    H239039   7.003   0.607   5.217
13032TIP3   OH239040   7.443   7.037   4.308
13032TIP3    H139041   7.381   7.073   4.244
13032TIP3    H239042   7.422   6.944   4.312
13033TIP3   OH239043   4.017   0.625   1.713
13033TIP3    H139044   4.008   0.624   1.618
13033TIP3    H239045   4.025   0.532   1.737
13034TIP3   OH239046   1.485   5.094   1.870
13034TIP3    H139047   1.492   5.110   1.776
13034TIP3    H239048   1.438   5.011   1.877
13035TIP3   OH239049   2.834   4.904   5.119
13035TIP3    H139050   2.803   4.817   5.147
13035TIP3    H239051   2.855   4.892   5.026
13036TIP3   OH239052   1.534   7.601   6.375
13036TIP3    H139053   1.570   7.591   6.287
13036TIP3    H239054   1.505   7.513   6.399
13037TIP3   OH239055   2.583   5.104   2.435
13037TIP3    H139056   2.678   5.116   2.425
13037TIP3    H239057   2.557   5.055   2.358
13038TIP3   OH239058   2.209   5.914   3.464
13038TIP3    H139059   2.146   5.943   3.398
13038TIP3    H239060   2.189   5.822   3.478
13039TIP3   OH239061   3.330   6.467   6.594
13039TIP3    H139062   3.384   6.402   6.548
13039TIP3    H239063   3.280   6.416   6.658
13040TIP3   OH239064   3.806   3.965   3.386
13040TIP3    H139065   3.897   3.965   3.357
13040TIP3    H239066   3.765   4.036   3.336
13041TIP3   OH239067   0.669   7.620   5.016
13041TIP3    H139068   0.612   7.597   4.942
13041TIP3    H239069   0.670   7.542   5.071
13042TIP3   OH239070   6.202   5.679   0.151
13042TIP3    H139071   6.158   5.601   0.185
13042TIP3    H239072   6.293   5.652   0.140
13043TIP3   OH239073   7.895   0.738   5.771
13043TIP3    H139074   7.905   0.655   5.724
13043TIP3    H239075   7.955   0.798   5.726
13044TIP3   OH239076   6.295   3.513   2.086
13044TIP3    H139077   6.351   3.588   2.108
13044TIP3    H239078   6.320   3.446   2.149
13045TIP3   OH239079   6.414   0.480   0.318
13045TIP3    H139080   6.481   0.545   0.337
13045TIP3    H239081   6.377   0.458   0.403
13046TIP3   OH239082   4.924   4.138   5.415
13046TIP3    H139083   4.840   4.106   5.448
13046TIP3    H239084   4.901   4.189   5.337
13047TIP3   OH239085   5.461   3.295   0.093
13047TIP3    H139086   5.431   3.381   0.124
13047TIP3    H239087   5.531   3.271   0.154
13048TIP3   OH239088   2.073   4.530   4.824
13048TIP3    H139089   2.103   4.447   4.862
13048TIP3    H239090   1.995   4.552   4.875
13049TIP3   OH239091   3.364   4.663   1.334
13049TIP3    H139092   3.354   4.749   1.375
13049TIP3    H239093   3.392   4.682   1.244
13050TIP3   OH239094   7.695   0.696   1.941
13050TIP3    H139095   7.740   0.617   1.912
13050TIP3    H239096   7.605   0.667   1.958
13051TIP3   OH239097   5.036   2.086   0.203
13051TIP3    H139098   5.020   2.163   0.257
13051TIP3    H239099   5.009   2.012   0.258
13052TIP3   OH239100   1.026   1.241   3.366
13052TIP3    H139101   1.060   1.215   3.451
13052TIP3    H239102   0.971   1.317   3.383
13053TIP3   OH239103   5.392   7.159   4.391
13053TIP3    H139104   5.464   7.206   4.348
13053TIP3    H239105   5.417   7.067   4.385
13054TIP3   OH239106   1.477   1.056   0.259
13054TIP3    H139107   1.403   1.097   0.303
13054TIP3    H239108   1.499   1.115   0.187
13055TIP3   OH239109   0.603   0.452   1.149
13055TIP3    H139110   0.570   0.372   1.190
13055TIP3    H239111   0.555   0.523   1.191
13056TIP3   OH239112   7.729   2.595   0.215
13056TIP3    H139113   7.771   2.677   0.188
13056TIP3    H239114   7.774   2.527   0.166
13057TIP3   OH239115   2.281   5.777   6.100
13057TIP3    H139116   2.208   5.839   6.107
13057TIP3    H239117   2.347   5.823   6.047
13058TIP3   OH239118   7.947   4.416   3.023
13058TIP3    H139119   7.927   4.365   2.945
13058TIP3    H239120   8.033   4.455   3.004
13059TIP3   OH239121   8.028   0.279   4.308
13059TIP3    H139122   8.012   0.185   4.318
13059TIP3    H239123   7.942   0.316   4.289
13060TIP3   OH239124   4.675   7.198   1.017
13060TIP3    H139125   4.762   7.178   0.982
13060TIP3    H239126   4.649   7.279   0.974
13061TIP3   OH239127   0.243   3.379   5.376
13061TIP3    H139128   0.308   3.350   5.441
13061TIP3    H239129   0.216   3.298   5.332
13062TIP3   OH239130   8.012   4.318   1.093
13062TIP3    H139131   8.094   4.366   1.095
13062TIP3    H239132   7.991   4.303   1.185
13063TIP3   OH239133   1.951   1.955   4.056
13063TIP3    H139134   2.006   1.949   4.135
13063TIP3    H239135   1.862   1.937   4.087
13064TIP3   OH239136   2.396   2.396   4.784
13064TIP3    H139137   2.364   2.316   4.743
13064TIP3    H239138   2.475   2.369   4.831
13065TIP3   OH239139   6.900   0.101   4.289
13065TIP3    H139140   6.919   0.011   4.314
13065TIP3    H239141   6.813   0.119   4.325
13066TIP3   OH239142   4.589   3.319   5.771
13066TIP3    H139143   4.537   3.240   5.758
13066TIP3    H239144   4.560   3.378   5.702
13067TIP3   OH239145   4.124   3.334   4.745
13067TIP3    H139146   4.133   3.429   4.740
13067TIP3    H239147   4.102   3.317   4.837
13068TIP3   OH239148   0.699   6.985   4.738
13068TIP3    H139149   0.773   6.988   4.799
13068TIP3    H239150   0.723   6.916   4.675
13069TIP3   OH239151   3.815   3.174   6.556
13069TIP3    H139152   3.745   3.184   6.491
13069TIP3    H239153   3.772   3.130   6.630
13070TIP3   OH239154   7.736   6.834   5.470
13070TIP3    H139155   7.718   6.865   5.559
13070TIP3    H239156   7.831   6.834   5.464
13071TIP3   OH239157   2.353   5.068   0.494
13071TIP3    H139158   2.372   4.995   0.553
13071TIP3    H239159   2.258   5.080   0.502
13072TIP3   OH239160   5.287   2.485   5.478
13072TIP3    H139161   5.286   2.542   5.555
13072TIP3    H239162   5.379   2.478   5.454
13073TIP3   OH239163   3.241   4.805   0.121
13073TIP3    H139164   3.279   4.784   0.206
13073TIP3    H239165   3.207   4.895   0.130
13074TIP3   OH239166   5.692   6.966   1.812
13074TIP3    H139167   5.768   7.018   1.838
13074TIP3    H239168   5.728   6.897   1.757
13075TIP3   OH239169   6.500   7.081   5.185
13075TIP3    H139170   6.421   7.044   5.224
13075TIP3    H239171   6.486   7.071   5.090
13076TIP3   OH239172   0.636   5.450   1.711
13076TIP3    H139173   0.639   5.397   1.790
13076TIP3    H239174   0.612   5.538   1.741
13077TIP3   OH239175   2.891   4.623   3.919
13077TIP3    H139176   2.864   4.714   3.928
13077TIP3    H239177   2.865   4.581   4.001
13078TIP3   OH239178   3.015   3.708   6.606
13078TIP3    H139179   3.023   3.722   6.700
13078TIP3    H239180   2.975   3.788   6.573
13079TIP3   OH239181   3.562   7.266   3.799
13079TIP3    H139182   3.537   7.348   3.842
13079TIP3    H239183   3.612   7.219   3.866
13080TIP3   OH239184   1.326   7.323   0.770
13080TIP3    H139185   1.334   7.228   0.777
13080TIP3    H239186   1.238   7.338   0.734
13081TIP3   OH239187   5.012   0.516   1.716
13081TIP3    H139188   4.995   0.484   1.628
13081TIP3    H239189   5.103   0.546   1.713
13082TIP3   OH239190   6.404   5.805   2.967
13082TIP3    H139191   6.417   5.711   2.976
13082TIP3    H239192   6.414   5.840   3.055
13083TIP3   OH239193   7.158   3.611   2.951
13083TIP3    H139194   7.087   3.555   2.982
13083TIP3    H239195   7.223   3.549   2.918
13084TIP3   OH239196   4.191   0.804   0.570
13084TIP3    H139197   4.235   0.775   0.649
13084TIP3    H239198   4.242   0.879   0.540
13085TIP3   OH239199   7.990   5.435   2.187
13085TIP3    H139200   7.995   5.342   2.209
13085TIP3    H239201   7.900   5.448   2.157
13086TIP3   OH239202   3.405   6.656   3.633
13086TIP3    H139203   3.488   6.609   3.633
13086TIP3    H239204   3.351   6.609   3.569
13087TIP3   OH239205   3.761   5.747   0.616
13087TIP3    H139206   3.738   5.680   0.552
13087TIP3    H239207   3.787   5.699   0.694
13088TIP3   OH239208   5.116   6.336   6.696
13088TIP3    H139209   5.127   6.412   6.640
13088TIP3    H239210   5.084   6.371   6.779
13089TIP3   OH239211   3.503   6.552   6.230
13089TIP3    H139212   3.514   6.458   6.226
13089TIP3    H239213   3.524   6.576   6.320
13090TIP3   OH239214   8.135   1.966   0.399
13090TIP3    H139215   8.216   2.017   0.391
13090TIP3    H239216   8.088   2.006   0.472
13091TIP3   OH239217   6.168   1.227   2.441
13091TIP3    H139218   6.243   1.171   2.422
13091TIP3    H239219   6.196   1.278   2.517
13092TIP3   OH239220   4.356   2.950   2.800
13092TIP3    H139221   4.437   2.929   2.753
13092TIP3    H239222   4.385   2.982   2.885
13093TIP3   OH239223   5.757   5.287   2.363
13093TIP3    H139224   5.696   5.315   2.294
13093TIP3    H239225   5.843   5.308   2.329
13094TIP3   OH239226   5.202   4.593   0.392
13094TIP3    H139227   5.289   4.563   0.367
13094TIP3    H239228   5.205   4.688   0.382
13095TIP3   OH239229   3.969   3.093   2.590
13095TIP3    H139230   4.060   3.099   2.562
13095TIP3    H239231   3.953   3.000   2.603
13096TIP3   OH239232   6.813   4.104   6.216
13096TIP3    H139233   6.883   4.158   6.254
13096TIP3    H239234   6.799   4.035   6.281
13097TIP3   OH239235   5.398   2.091   6.631
13097TIP3    H139236   5.451   2.150   6.684
13097TIP3    H239237   5.397   2.132   6.544
13098TIP3   OH239238   3.530   4.693   4.521
13098TIP3    H139239   3.486   4.620   4.564
13098TIP3    H239240   3.516   4.678   4.427
13099TIP3   OH239241   1.006   0.479   5.888
13099TIP3    H139242   1.022   0.447   5.800
13099TIP3    H239243   1.007   0.401   5.943
13100TIP3   OH239244   4.639   0.703   0.102
13100TIP3    H139245   4.728   0.670   0.098
13100TIP3    H239246   4.632   0.762   0.027
13101TIP3   OH239247   5.612   0.169   6.494
13101TIP3    H139248   5.707   0.164   6.488
13101TIP3    H239249   5.583   0.079   6.503
13102TIP3   OH239250   5.394   0.285   6.379
13102TIP3    H139251   5.339   0.231   6.437
13102TIP3    H239252   5.482   0.277   6.416
13103TIP3   OH239253   1.729   3.251   2.476
13103TIP3    H139254   1.784   3.174   2.459
13103TIP3    H239255   1.660   3.218   2.533
13104TIP3   OH239256   6.708   2.420   1.556
13104TIP3    H139257   6.758   2.349   1.597
13104TIP3    H239258   6.769   2.493   1.550
13105TIP3   OH239259   3.051   2.604   1.057
13105TIP3    H139260   3.017   2.556   0.981
13105TIP3    H239261   2.973   2.624   1.109
13106TIP3   OH239262   6.355   2.971   5.910
13106TIP3    H139263   6.428   2.982   5.971
13106TIP3    H239264   6.277   2.978   5.965
13107TIP3   OH239265   2.267   2.471   5.628
13107TIP3    H139266   2.319   2.409   5.679
13107TIP3    H239267   2.326   2.546   5.614
13108TIP3   OH239268   4.859   2.270   3.336
13108TIP3    H139269   4.822   2.295   3.421
13108TIP3    H239270   4.886   2.179   3.348
13109TIP3   OH239271   3.067   1.583   1.651
13109TIP3    H139272   2.985   1.579   1.602
13109TIP3    H239273   3.111   1.661   1.618
13110TIP3   OH239274   2.624   1.929   1.981
13110TIP3    H139275   2.564   1.976   1.923
13110TIP3    H239276   2.617   1.837   1.955
13111TIP3   OH239277   6.324   3.765   3.360
13111TIP3    H139278   6.243   3.759   3.309
13111TIP3    H239279   6.301   3.819   3.436
13112TIP3   OH239280   0.217   2.411   4.877
13112TIP3    H139281   0.220   2.344   4.808
13112TIP3    H239282   0.232   2.362   4.958
13113TIP3   OH239283   4.353   1.600   5.965
13113TIP3    H139284   4.278   1.654   5.943
13113TIP3    H239285   4.335   1.516   5.922
13114TIP3   OH239286   7.317   2.596   1.380
13114TIP3    H139287   7.407   2.588   1.410
13114TIP3    H239288   7.325   2.627   1.289
13115TIP3   OH239289   4.893   0.629   0.366
13115TIP3    H139290   4.859   0.712   0.400
13115TIP3    H239291   4.829   0.564   0.394
13116TIP3   OH239292   2.984   4.764   2.585
13116TIP3    H139293   2.950   4.681   2.551
13116TIP3    H239294   2.945   4.773   2.672
13117TIP3   OH239295   6.450   5.129   3.102
13117TIP3    H139296   6.404   5.062   3.152
13117TIP3    H239297   6.532   5.088   3.075
13118TIP3   OH239298   1.495   3.231   0.116
13118TIP3    H139299   1.556   3.163   0.087
13118TIP3    H239300   1.428   3.184   0.166
13119TIP3   OH239301   0.452   1.296   3.286
13119TIP3    H139302   0.364   1.332   3.297
13119TIP3    H239303   0.496   1.317   3.369
13120TIP3   OH239304   7.408   6.424   0.192
13120TIP3    H139305   7.460   6.399   0.116
13120TIP3    H239306   7.351   6.494   0.161
13121TIP3   OH239307   1.481   5.232   6.145
13121TIP3    H139308   1.524   5.147   6.152
13121TIP3    H239309   1.539   5.294   6.188
13122TIP3   OH239310   5.678   0.286   2.385
13122TIP3    H139311   5.729   0.258   2.462
13122TIP3    H239312   5.740   0.280   2.312
13123TIP3   OH239313   7.275   6.627   3.768
13123TIP3    H139314   7.365   6.595   3.764
13123TIP3    H239315   7.222   6.548   3.777
13124TIP3   OH239316   4.056   2.452   4.024
13124TIP3    H139317   4.033   2.532   4.070
13124TIP3    H239318   4.094   2.396   4.091
13125TIP3   OH239319   5.860   7.167   1.896
13125TIP3    H139320   5.931   7.109   1.868
13125TIP3    H239321   5.904   7.248   1.924
13126TIP3   OH239322   4.589   2.559   4.501
13126TIP3    H139323   4.684   2.552   4.495
13126TIP3    H239324   4.569   2.540   4.593
13127TIP3   OH239325   6.654   3.689   4.804
13127TIP3    H139326   6.678   3.599   4.787
13127TIP3    H239327   6.714   3.718   4.873
13128TIP3   OH239328   7.708   3.494   0.267
13128TIP3    H139329   7.657   3.418   0.237
13128TIP3    H239330   7.731   3.541   0.187
13129TIP3   OH239331   4.795   5.644   4.406
13129TIP3    H139332   4.719   5.601   4.446
13129TIP3    H239333   4.805   5.600   4.322
13130TIP3   OH239334   3.700   7.012   1.256
13130TIP3    H139335   3.651   7.080   1.302
13130TIP3    H239336   3.653   6.931   1.273
13131TIP3   OH239337   4.510   7.524   6.585
13131TIP3    H139338   4.568   7.597   6.608
13131TIP3    H239339   4.528   7.507   6.493
13132TIP3   OH239340   5.118   3.442   1.016
13132TIP3    H139341   5.053   3.455   1.085
13132TIP3    H239342   5.183   3.384   1.054
13133TIP3   OH239343   8.105   7.788   4.284
13133TIP3    H139344   8.045   7.741   4.343
13133TIP3    H239345   8.050   7.855   4.243
13134TIP3   OH239346   0.481   4.856   3.175
13134TIP3    H139347   0.565   4.897   3.154
13134TIP3    H239348   0.429   4.926   3.214
13135TIP3   OH239349   5.007   3.665   3.783
13135TIP3    H139350   4.969   3.728   3.844
13135TIP3    H239351   5.074   3.715   3.736
13136TIP3   OH239352   6.210   3.372   1.616
13136TIP3    H139353   6.242   3.332   1.698
13136TIP3    H239354   6.116   3.353   1.616
13137TIP3   OH239355   8.159   5.688   3.358
13137TIP3    H139356   8.168   5.657   3.448
13137TIP3    H239357   8.220   5.761   3.351
13138TIP3   OH239358   5.770   0.452   4.553
13138TIP3    H139359   5.757   0.401   4.633
13138TIP3    H239360   5.759   0.543   4.581
13139TIP3   OH239361   6.393   6.022   1.646
13139TIP3    H139362   6.438   5.978   1.574
13139TIP3    H239363   6.320   5.963   1.667
13140TIP3   OH239364   3.167   3.691   3.530
13140TIP3    H139365   3.230   3.726   3.467
13140TIP3    H239366   3.213   3.695   3.614
13141TIP3   OH239367   6.103   4.276   6.715
13141TIP3    H139368   6.012   4.259   6.688
13141TIP3    H239369   6.104   4.370   6.734
13142TIP3   OH239370   0.731   1.167   3.345
13142TIP3    H139371   0.698   1.225   3.414
13142TIP3    H239372   0.825   1.163   3.360
13143TIP3   OH239373   1.010   7.012   5.799
13143TIP3    H139374   1.035   7.057   5.880
13143TIP3    H239375   0.991   6.922   5.826
13144TIP3   OH239376   1.461   5.565   5.540
13144TIP3    H139377   1.555   5.586   5.542
13144TIP3    H239378   1.431   5.585   5.629
13145TIP3   OH239379   6.340   4.775   2.466
13145TIP3    H139380   6.253   4.797   2.500
13145TIP3    H239381   6.400   4.800   2.535
13146TIP3   OH239382   8.196   5.825   3.047
13146TIP3    H139383   8.236   5.825   2.960
13146TIP3    H239384   8.120   5.768   3.038
13147TIP3   OH239385   8.070   2.231   0.185
13147TIP3    H139386   8.161   2.263   0.184
13147TIP3    H239387   8.078   2.136   0.188
13148TIP3   OH239388   1.035   6.995   4.640
13148TIP3    H139389   1.037   6.900   4.649
13148TIP3    H239390   1.065   7.028   4.724
13149TIP3   OH239391   4.913   4.580   4.170
13149TIP3    H139392   4.836   4.525   4.187
13149TIP3    H239393   4.932   4.620   4.255
13150TIP3   OH239394   1.644   6.309   6.105
13150TIP3    H139395   1.611   6.225   6.139
13150TIP3    H239396   1.626   6.306   6.011
13151TIP3   OH239397   1.462   5.095   2.876
13151TIP3    H139398   1.440   5.062   2.963
13151TIP3    H239399   1.378   5.106   2.832
13152TIP3   OH239400   4.567   6.146   5.420
13152TIP3    H139401   4.619   6.088   5.476
13152TIP3    H239402   4.613   6.230   5.423
13153TIP3   OH239403   0.587   1.986   2.850
13153TIP3    H139404   0.534   2.060   2.821
13153TIP3    H239405   0.525   1.914   2.858
13154TIP3   OH239406   7.636   3.014   0.178
13154TIP3    H139407   7.573   2.967   0.232
13154TIP3    H239408   7.714   2.959   0.179
13155TIP3   OH239409   5.228   2.002   6.370
13155TIP3    H139410   5.206   2.014   6.278
13155TIP3    H239411   5.243   2.091   6.403
13156TIP3   OH239412   2.250   1.009   5.861
13156TIP3    H139413   2.338   1.005   5.823
13156TIP3    H239414   2.255   0.957   5.941
13157TIP3   OH239415   7.608   7.724   6.262
13157TIP3    H139416   7.644   7.670   6.191
13157TIP3    H239417   7.586   7.807   6.219
13158TIP3   OH239418   7.641   5.210   0.141
13158TIP3    H139419   7.675   5.197   0.229
13158TIP3    H239420   7.548   5.186   0.147
13159TIP3   OH239421   8.125   2.651   5.369
13159TIP3    H139422   8.084   2.592   5.432
13159TIP3    H239423   8.063   2.723   5.360
13160TIP3   OH239424   3.962   5.031   6.036
13160TIP3    H139425   3.873   5.023   6.001
13160TIP3    H239426   3.953   5.015   6.130
13161TIP3   OH239427   2.934   3.180   2.655
13161TIP3    H139428   2.952   3.235   2.578
13161TIP3    H239429   2.858   3.128   2.629
13162TIP3   OH239430   6.391   5.127   3.899
13162TIP3    H139431   6.330   5.191   3.861
13162TIP3    H239432   6.368   5.044   3.858
13163TIP3   OH239433   0.058   0.864   5.853
13163TIP3    H139434   0.118   0.889   5.922
13163TIP3    H239435   0.080   0.772   5.834
13164TIP3   OH239436   3.657   2.306   4.028
13164TIP3    H139437   3.662   2.396   4.061
13164TIP3    H239438   3.708   2.255   4.091
13165TIP3   OH239439   7.612   1.871   6.303
13165TIP3    H139440   7.531   1.885   6.353
13165TIP3    H239441   7.593   1.909   6.217
13166TIP3   OH239442   1.370   2.692   6.660
13166TIP3    H139443   1.330   2.618   6.705
13166TIP3    H239444   1.439   2.654   6.605
13167TIP3   OH239445   5.867   6.965   2.705
13167TIP3    H139446   5.787   6.924   2.673
13167TIP3    H239447   5.861   6.958   2.801
13168TIP3   OH239448   3.949   6.882   2.539
13168TIP3    H139449   3.979   6.854   2.452
13168TIP3    H239450   4.019   6.857   2.598
13169TIP3   OH239451   1.201   5.060   1.540
13169TIP3    H139452   1.203   5.063   1.636
13169TIP3    H239453   1.129   5.118   1.516
13170TIP3   OH239454   2.211   6.943   4.352
13170TIP3    H139455   2.173   7.011   4.408
13170TIP3    H239456   2.163   6.949   4.270
13171TIP3   OH239457   7.915   5.036   4.165
13171TIP3    H139458   7.901   5.100   4.235
13171TIP3    H239459   7.898   5.086   4.085
13172TIP3   OH239460   5.181   2.973   5.967
13172TIP3    H139461   5.234   2.942   5.894
13172TIP3    H239462   5.243   3.010   6.029
13173TIP3   OH239463   1.739   5.632   5.529
13173TIP3    H139464   1.766   5.547   5.493
13173TIP3    H239465   1.779   5.696   5.471
13174TIP3   OH239466   6.034   6.648   1.743
13174TIP3    H139467   6.069   6.586   1.678
13174TIP3    H239468   6.111   6.695   1.775
13175TIP3   OH239469   2.998   4.562   5.132
13175TIP3    H139470   3.077   4.528   5.091
13175TIP3    H239471   3.005   4.536   5.224
13176TIP3   OH239472   1.467   4.465   4.306
13176TIP3    H139473   1.495   4.541   4.358
13176TIP3    H239474   1.382   4.441   4.342
13177TIP3   OH239475   0.623   1.860   1.037
13177TIP3    H139476   0.584   1.794   1.094
13177TIP3    H239477   0.590   1.838   0.949
13178TIP3   OH239478   3.391   4.499   5.660
13178TIP3    H139479   3.334   4.457   5.596
13178TIP3    H239480   3.454   4.432   5.685
13179TIP3   OH239481   3.979   6.926   5.537
13179TIP3    H139482   4.071   6.906   5.522
13179TIP3    H239483   3.938   6.842   5.555
13180TIP3   OH239484   4.854   0.208   3.597
13180TIP3    H139485   4.787   0.140   3.599
13180TIP3    H239486   4.825   0.268   3.528
13181TIP3   OH239487   4.971   6.292   3.180
13181TIP3    H139488   4.934   6.226   3.238
13181TIP3    H239489   5.042   6.248   3.135
13182TIP3   OH239490   6.256   3.633   4.002
13182TIP3    H139491   6.257   3.658   3.909
13182TIP3    H239492   6.336   3.670   4.037
13183TIP3   OH239493   2.037   7.152   4.761
13183TIP3    H139494   2.014   7.238   4.796
13183TIP3    H239495   2.126   7.136   4.793
13184TIP3   OH239496   2.498   6.293   3.099
13184TIP3    H139497   2.464   6.284   3.010
13184TIP3    H239498   2.576   6.238   3.101
13185TIP3   OH239499   2.894   4.888   4.844
13185TIP3    H139500   2.965   4.942   4.809
13185TIP3    H239501   2.874   4.826   4.774
13186TIP3   OH239502   3.143   0.679   4.406
13186TIP3    H139503   3.188   0.595   4.394
13186TIP3    H239504   3.113   0.703   4.318
13187TIP3   OH239505   0.991   7.726   0.223
13187TIP3    H139506   0.917   7.751   0.168
13187TIP3    H239507   1.053   7.685   0.162
13188TIP3   OH239508   2.821   4.579   1.062
13188TIP3    H139509   2.820   4.617   0.975
13188TIP3    H239510   2.731   4.589   1.094
13189TIP3   OH239511   4.778   1.619   5.712
13189TIP3    H139512   4.706   1.674   5.744
13189TIP3    H239513   4.746   1.581   5.631
13190TIP3   OH239514   2.617   5.371   3.956
13190TIP3    H139515   2.672   5.432   3.907
13190TIP3    H239516   2.558   5.334   3.890
13191TIP3   OH239517   5.943   3.978   2.715
13191TIP3    H139518   6.000   3.995   2.640
13191TIP3    H239519   5.963   3.888   2.740
13192TIP3   OH239520   0.935   1.865   4.877
13192TIP3    H139521   0.875   1.918   4.825
13192TIP3    H239522   0.889   1.848   4.959
13193TIP3   OH239523   3.638   6.249   1.095
13193TIP3    H139524   3.600   6.165   1.123
13193TIP3    H239525   3.564   6.309   1.093
13194TIP3   OH239526   4.377   3.708   1.704
13194TIP3    H139527   4.447   3.695   1.639
13194TIP3    H239528   4.406   3.784   1.755
13195TIP3   OH239529   7.759   5.284   6.485
13195TIP3    H139530   7.729   5.212   6.542
13195TIP3    H239531   7.724   5.363   6.526
13196TIP3   OH239532   0.882   0.917   5.184
13196TIP3    H139533   0.971   0.937   5.212
13196TIP3    H239534   0.890   0.897   5.090
13197TIP3   OH239535   7.128   2.932   0.843
13197TIP3    H139536   7.065   2.978   0.897
13197TIP3    H239537   7.214   2.960   0.877
13198TIP3   OH239538   5.078   3.275   5.684
13198TIP3    H139539   5.162   3.281   5.638
13198TIP3    H239540   5.013   3.283   5.615
13199TIP3   OH239541   5.297   5.875   0.547
13199TIP3    H139542   5.259   5.809   0.605
13199TIP3    H239543   5.329   5.943   0.606
13200TIP3   OH239544   6.845   7.209   3.280
13200TIP3    H139545   6.879   7.120   3.289
13200TIP3    H239546   6.923   7.263   3.267
13201TIP3   OH239547   0.369   1.553   4.550
13201TIP3    H139548   0.454   1.565   4.508
13201TIP3    H239549   0.307   1.592   4.489
13202TIP3   OH239550   5.172   1.387   5.316
13202TIP3    H139551   5.164   1.421   5.405
13202TIP3    H239552   5.094   1.420   5.271
13203TIP3   OH239553   3.420   0.137   1.305
13203TIP3    H139554   3.441   0.222   1.266
13203TIP3    H239555   3.330   0.120   1.277
13204TIP3   OH239556   1.653   3.569   0.070
13204TIP3    H139557   1.680   3.591  -0.019
13204TIP3    H239558   1.714   3.618   0.126
13205TIP3   OH239559   4.472   3.227   1.458
13205TIP3    H139560   4.500   3.318   1.457
13205TIP3    H239561   4.382   3.228   1.425
13206TIP3   OH239562   2.607   1.743   4.715
13206TIP3    H139563   2.643   1.741   4.804
13206TIP3    H239564   2.605   1.836   4.693
13207TIP3   OH239565   4.239   5.950   2.812
13207TIP3    H139566   4.282   5.998   2.741
13207TIP3    H239567   4.182   5.887   2.769
13208TIP3   OH239568   5.098   7.519   1.156
13208TIP3    H139569   5.158   7.571   1.209
13208TIP3    H239570   5.134   7.431   1.158
13209TIP3   OH239571   2.360   3.500   0.288
13209TIP3    H139572   2.284   3.455   0.324
13209TIP3    H239573   2.328   3.540   0.207
13210TIP3   OH239574   1.431   7.227   1.854
13210TIP3    H139575   1.489   7.219   1.930
13210TIP3    H239576   1.359   7.167   1.873
13211TIP3   OH239577   0.966   0.129   2.861
13211TIP3    H139578   1.045   0.084   2.832
13211TIP3    H239579   0.900   0.061   2.867
13212TIP3   OH239580   8.114   3.875   6.755
13212TIP3    H139581   8.111   3.834   6.668
13212TIP3    H239582   8.057   3.951   6.748
13213TIP3   OH239583   8.004   3.528   5.448
13213TIP3    H139584   7.925   3.522   5.503
13213TIP3    H239585   8.076   3.506   5.507
13214TIP3   OH239586   4.207   4.377   2.552
13214TIP3    H139587   4.199   4.379   2.648
13214TIP3    H239588   4.145   4.310   2.524
13215TIP3   OH239589   4.434   5.290   2.783
13215TIP3    H139590   4.480   5.314   2.702
13215TIP3    H239591   4.381   5.367   2.804
13216TIP3   OH239592   5.263   7.167   4.140
13216TIP3    H139593   5.291   7.144   4.229
13216TIP3    H239594   5.242   7.083   4.099
13217TIP3   OH239595   2.950   4.950   1.469
13217TIP3    H139596   2.955   4.864   1.512
13217TIP3    H239597   3.001   4.940   1.389
13218TIP3   OH239598   7.602   3.990   4.145
13218TIP3    H139599   7.679   4.030   4.104
13218TIP3    H239600   7.629   3.971   4.234
13219TIP3   OH239601   2.203   7.624   2.729
13219TIP3    H139602   2.122   7.592   2.769
13219TIP3    H239603   2.173   7.687   2.664
13220TIP3   OH239604   6.992   5.306   2.602
13220TIP3    H139605   7.015   5.394   2.634
13220TIP3    H239606   7.067   5.280   2.549
13221TIP3   OH239607   2.553   4.810   1.581
13221TIP3    H139608   2.534   4.717   1.582
13221TIP3    H239609   2.608   4.823   1.504
13222TIP3   OH239610   0.486   2.211   5.169
13222TIP3    H139611   0.501   2.153   5.244
13222TIP3    H239612   0.557   2.191   5.108
13223TIP3   OH239613   5.027   2.350   5.736
13223TIP3    H139614   5.046   2.426   5.791
13223TIP3    H239615   5.026   2.386   5.647
13224TIP3   OH239616   0.221   2.270   5.109
13224TIP3    H139617   0.178   2.196   5.067
13224TIP3    H239618   0.308   2.238   5.132
13225TIP3   OH239619   5.000   0.718   4.538
13225TIP3    H139620   5.078   0.716   4.594
13225TIP3    H239621   5.008   0.640   4.484
13226TIP3   OH239622   2.068   7.356   3.272
13226TIP3    H139623   2.050   7.332   3.363
13226TIP3    H239624   2.126   7.287   3.239
13227TIP3   OH239625   7.618   4.902   0.201
13227TIP3    H139626   7.708   4.934   0.211
13227TIP3    H239627   7.595   4.868   0.288
13228TIP3   OH239628   7.098   7.752   0.296
13228TIP3    H139629   7.115   7.763   0.203
13228TIP3    H239630   7.006   7.775   0.307
13229TIP3   OH239631   2.855   4.267   2.054
13229TIP3    H139632   2.890   4.318   1.981
13229TIP3    H239633   2.840   4.180   2.016
13230TIP3   OH239634   5.190   5.235   3.566
13230TIP3    H139635   5.231   5.309   3.520
13230TIP3    H239636   5.133   5.196   3.501
13231TIP3   OH239637   3.698   1.257   1.613
13231TIP3    H139638   3.673   1.240   1.704
13231TIP3    H239639   3.794   1.259   1.614
13232TIP3   OH239640   6.595   4.859   0.489
13232TIP3    H139641   6.620   4.907   0.410
13232TIP3    H239642   6.510   4.821   0.468
13233TIP3   OH239643   6.392   7.290   4.682
13233TIP3    H139644   6.311   7.265   4.639
13233TIP3    H239645   6.442   7.337   4.615
13234TIP3   OH239646   0.561   7.002   2.575
13234TIP3    H139647   0.594   7.092   2.579
13234TIP3    H239648   0.624   6.956   2.520
13235TIP3   OH239649   3.816   0.495   0.564
13235TIP3    H139650   3.781   0.579   0.592
13235TIP3    H239651   3.908   0.497   0.591
13236TIP3   OH239652   5.110   2.802   6.302
13236TIP3    H139653   5.098   2.778   6.394
13236TIP3    H239654   5.175   2.872   6.305
13237TIP3   OH239655   5.144   0.933   3.785
13237TIP3    H139656   5.106   0.887   3.859
13237TIP3    H239657   5.227   0.967   3.818
13238TIP3   OH239658   3.843   4.857   2.794
13238TIP3    H139659   3.804   4.783   2.748
13238TIP3    H239660   3.928   4.869   2.753
13239TIP3   OH239661   0.913   5.749   6.635
13239TIP3    H139662   0.872   5.689   6.573
13239TIP3    H239663   0.949   5.693   6.703
13240TIP3   OH239664   7.212   2.102   4.681
13240TIP3    H139665   7.161   2.073   4.757
13240TIP3    H239666   7.174   2.186   4.657
13241TIP3   OH239667   2.323   3.752   3.717
13241TIP3    H139668   2.233   3.783   3.714
13241TIP3    H239669   2.376   3.827   3.688
13242TIP3   OH239670   5.337   4.315   5.934
13242TIP3    H139671   5.380   4.268   6.005
13242TIP3    H239672   5.407   4.369   5.895
13243TIP3   OH239673   7.695   1.298   4.483
13243TIP3    H139674   7.748   1.318   4.406
13243TIP3    H239675   7.695   1.202   4.487
13244TIP3   OH239676   6.751   0.142   6.019
13244TIP3    H139677   6.763   0.228   5.978
13244TIP3    H239678   6.808   0.084   5.969
13245TIP3   OH239679   1.111   2.534   1.765
13245TIP3    H139680   1.068   2.509   1.847
13245TIP3    H239681   1.065   2.484   1.697
13246TIP3   OH239682   5.476   3.257   4.517
13246TIP3    H139683   5.490   3.168   4.485
13246TIP3    H239684   5.453   3.307   4.439
13247TIP3   OH239685   5.638   6.373   1.935
13247TIP3    H139686   5.647   6.455   1.983
13247TIP3    H239687   5.677   6.390   1.850
13248TIP3   OH239688   0.545   1.145   0.435
13248TIP3    H139689   0.597   1.147   0.515
13248TIP3    H239690   0.454   1.139   0.466
13249TIP3   OH239691   5.162   7.798   2.585
13249TIP3    H139692   5.135   7.726   2.528
13249TIP3    H239693   5.220   7.759   2.650
13250TIP3   OH239694   8.165   0.521   4.232
13250TIP3    H139695   8.141   0.577   4.158
13250TIP3    H239696   8.106   0.446   4.225
13251TIP3   OH239697   1.668   6.163   5.647
13251TIP3    H139698   1.606   6.184   5.577
13251TIP3    H239699   1.644   6.074   5.673
13252TIP3   OH239700   2.340   6.349   0.382
13252TIP3    H139701   2.369   6.440   0.387
13252TIP3    H239702   2.246   6.355   0.365
13253TIP3   OH239703   1.858   0.437   2.483
13253TIP3    H139704   1.825   0.358   2.441
13253TIP3    H239705   1.947   0.414   2.511
13254TIP3   OH239706   6.307   6.645   2.607
13254TIP3    H139707   6.269   6.656   2.520
13254TIP3    H239708   6.297   6.552   2.626
13255TIP3   OH239709   0.089   3.319   1.530
13255TIP3    H139710   0.050   3.329   1.443
13255TIP3    H239711   0.030   3.367   1.588
13256TIP3   OH239712   5.505   6.176   0.908
13256TIP3    H139713   5.528   6.265   0.934
13256TIP3    H239714   5.432   6.152   0.965
13257TIP3   OH239715   2.829   5.383   3.021
13257TIP3    H139716   2.830   5.417   3.110
13257TIP3    H239717   2.919   5.353   3.006
13258TIP3   OH239718   0.980   5.580   5.927
13258TIP3    H139719   1.024   5.529   5.859
13258TIP3    H239720   0.912   5.629   5.881
13259TIP3   OH239721   2.730   0.302   5.580
13259TIP3    H139722   2.745   0.394   5.601
13259TIP3    H239723   2.694   0.303   5.491
13260TIP3   OH239724   6.532   7.624   3.113
13260TIP3    H139725   6.607   7.682   3.123
13260TIP3    H239726   6.569   7.536   3.122
13261TIP3   OH239727   7.415   3.252   5.504
13261TIP3    H139728   7.329   3.263   5.545
13261TIP3    H239729   7.478   3.260   5.575
13262TIP3   OH239730   0.942   5.627   2.857
13262TIP3    H139731   0.979   5.539   2.856
13262TIP3    H239732   0.847   5.614   2.851
13263TIP3   OH239733   6.102   3.342   2.983
13263TIP3    H139734   6.155   3.395   2.923
13263TIP3    H239735   6.086   3.261   2.935
13264TIP3   OH239736   6.647   3.222   1.225
13264TIP3    H139737   6.612   3.133   1.224
13264TIP3    H239738   6.583   3.274   1.175
13265TIP3   OH239739   4.343   0.574   5.130
13265TIP3    H139740   4.377   0.640   5.189
13265TIP3    H239741   4.266   0.539   5.174
13266TIP3   OH239742   5.299   0.313   5.537
13266TIP3    H139743   5.308   0.374   5.463
13266TIP3    H239744   5.314   0.367   5.615
13267TIP3   OH239745   7.412   3.735   5.799
13267TIP3    H139746   7.337   3.756   5.854
13267TIP3    H239747   7.382   3.660   5.747
13268TIP3   OH239748   0.933   3.221   1.766
13268TIP3    H139749   0.838   3.229   1.766
13268TIP3    H239750   0.960   3.238   1.676
13269TIP3   OH239751   7.160   2.263   5.959
13269TIP3    H139752   7.151   2.348   6.003
13269TIP3    H239753   7.243   2.228   5.991
13270TIP3   OH239754   5.131   2.093   6.121
13270TIP3    H139755   5.128   2.145   6.041
13270TIP3    H239756   5.074   2.018   6.102
13271TIP3   OH239757   1.590   5.520   4.758
13271TIP3    H139758   1.582   5.432   4.796
13271TIP3    H239759   1.609   5.504   4.666
13272TIP3   OH239760   1.824   2.388   6.282
13272TIP3    H139761   1.816   2.331   6.206
13272TIP3    H239762   1.764   2.351   6.346
13273TIP3   OH239763   1.030   0.337   1.025
13273TIP3    H139764   1.081   0.274   1.076
13273TIP3    H239765   0.992   0.396   1.090
13274TIP3   OH239766   2.169   3.410   4.473
13274TIP3    H139767   2.164   3.453   4.559
13274TIP3    H239768   2.096   3.349   4.472
13275TIP3   OH239769  -0.011   5.374   5.258
13275TIP3    H139770   0.070   5.374   5.308
13275TIP3    H239771  -0.018   5.286   5.223
13276TIP3   OH239772   8.264   5.735   2.765
13276TIP3    H139773   8.358   5.719   2.774
13276TIP3    H239774   8.242   5.698   2.679
13277TIP3   OH239775   7.810   0.260   5.758
13277TIP3    H139776   7.891   0.298   5.725
13277TIP3    H239777   7.755   0.247   5.680
13278TIP3   OH239778   1.296   3.338   6.300
13278TIP3    H139779   1.300   3.281   6.223
13278TIP3    H239780   1.268   3.423   6.267
13279TIP3   OH239781   7.078   7.161   1.020
13279TIP3    H139782   6.992   7.191   1.049
13279TIP3    H239783   7.071   7.154   0.925
13280TIP3   OH239784   6.839   2.052   1.785
13280TIP3    H139785   6.833   2.031   1.692
13280TIP3    H239786   6.847   2.147   1.787
13281TIP3   OH239787   0.002   0.231   0.301
13281TIP3    H139788   0.092   0.207   0.322
13281TIP3    H239789  -0.010   0.203   0.210
13282TIP3   OH239790   3.565   1.421   1.142
13282TIP3    H139791   3.656   1.407   1.169
13282TIP3    H239792   3.524   1.463   1.218
13283TIP3   OH239793   3.802   2.146   5.987
13283TIP3    H139794   3.834   2.139   5.897
13283TIP3    H239795   3.876   2.120   6.041
13284TIP3   OH239796   7.120   5.446   3.958
13284TIP3    H139797   7.126   5.365   3.907
13284TIP3    H239798   7.158   5.513   3.901
13285TIP3   OH239799   6.065   0.136   4.231
13285TIP3    H139800   6.008   0.118   4.156
13285TIP3    H239801   6.020   0.204   4.280
13286TIP3   OH239802   7.601   4.916   1.929
13286TIP3    H139803   7.661   4.911   1.854
13286TIP3    H239804   7.617   4.836   1.978
13287TIP3   OH239805   8.111   6.177   0.423
13287TIP3    H139806   8.120   6.262   0.466
13287TIP3    H239807   8.161   6.187   0.341
13288TIP3   OH239808   8.141   7.236   6.475
13288TIP3    H139809   8.150   7.206   6.385
13288TIP3    H239810   8.230   7.236   6.509
13289TIP3   OH239811   8.069   1.304   5.170
13289TIP3    H139812   8.053   1.238   5.238
13289TIP3    H239813   7.993   1.299   5.113
13290TIP3   OH239814   0.344   7.707   1.654
13290TIP3    H139815   0.335   7.699   1.749
13290TIP3    H239816   0.435   7.730   1.640
13291TIP3   OH239817   1.778   7.681   1.324
13291TIP3    H139818   1.775   7.592   1.358
13291TIP3    H239819   1.692   7.694   1.284
13292TIP3   OH239820   4.038   5.343   4.778
13292TIP3    H139821   4.016   5.279   4.711
13292TIP3    H239822   3.962   5.345   4.836
13293TIP3   OH239823   2.073   1.362   4.673
13293TIP3    H139824   1.993   1.316   4.649
13293TIP3    H239825   2.139   1.294   4.684
13294TIP3   OH239826   3.868   2.007   5.018
13294TIP3    H139827   3.840   2.098   5.033
13294TIP3    H239828   3.868   1.968   5.106
13295TIP3   OH239829   4.233   4.353   3.021
13295TIP3    H139830   4.167   4.377   2.956
13295TIP3    H239831   4.312   4.335   2.969
13296TIP3   OH239832   5.636   5.673   2.094
13296TIP3    H139833   5.553   5.699   2.053
13296TIP3    H239834   5.634   5.713   2.180
13297TIP3   OH239835   1.103   4.015   5.752
13297TIP3    H139836   1.140   4.061   5.827
13297TIP3    H239837   1.072   3.932   5.789
13298TIP3   OH239838   6.719   7.352   2.573
13298TIP3    H139839   6.791   7.395   2.526
13298TIP3    H239840   6.646   7.413   2.567
13299TIP3   OH239841   0.782   4.765   1.823
13299TIP3    H139842   0.872   4.760   1.855
13299TIP3    H239843   0.742   4.681   1.847
13300TIP3   OH239844   6.485   4.252   1.198
13300TIP3    H139845   6.575   4.276   1.219
13300TIP3    H239846   6.492   4.198   1.119
13301TIP3   OH239847   7.913   5.809   5.296
13301TIP3    H139848   7.855   5.791   5.222
13301TIP3    H239849   7.880   5.890   5.334
13302TIP3   OH239850   5.616   7.248   4.251
13302TIP3    H139851   5.655   7.298   4.323
13302TIP3    H239852   5.651   7.288   4.172
13303TIP3   OH239853   3.811   7.025   0.824
13303TIP3    H139854   3.822   6.988   0.736
13303TIP3    H239855   3.900   7.041   0.854
13304TIP3   OH239856   3.301   3.063   1.201
13304TIP3    H139857   3.307   3.157   1.212
13304TIP3    H239858   3.207   3.044   1.208
13305TIP3   OH239859   4.383   3.422   5.982
13305TIP3    H139860   4.415   3.480   6.051
13305TIP3    H239861   4.461   3.398   5.932
13306TIP3   OH239862   7.540   3.518   0.490
13306TIP3    H139863   7.584   3.530   0.406
13306TIP3    H239864   7.456   3.479   0.468
13307TIP3   OH239865   4.562   1.761   6.013
13307TIP3    H139866   4.591   1.784   5.924
13307TIP3    H239867   4.497   1.691   5.999
13308TIP3   OH239868   6.879   2.683   0.638
13308TIP3    H139869   6.866   2.594   0.672
13308TIP3    H239870   6.808   2.734   0.678
13309TIP3   OH239871   1.654   6.313   2.967
13309TIP3    H139872   1.635   6.293   3.058
13309TIP3    H239873   1.745   6.286   2.954
13310TIP3   OH239874   2.451   3.469   1.743
13310TIP3    H139875   2.495   3.524   1.677
13310TIP3    H239876   2.404   3.403   1.691
13311TIP3   OH239877   7.374   7.085   3.380
13311TIP3    H139878   7.410   7.020   3.320
13311TIP3    H239879   7.403   7.056   3.467
13312TIP3   OH239880   5.480   4.251   5.335
13312TIP3    H139881   5.457   4.315   5.402
13312TIP3    H239882   5.518   4.303   5.265
13313TIP3   OH239883   3.753   5.676   4.028
13313TIP3    H139884   3.826   5.735   4.046
13313TIP3    H239885   3.748   5.673   3.932
13314TIP3   OH239886   3.351   0.818   5.662
13314TIP3    H139887   3.407   0.891   5.635
13314TIP3    H239888   3.329   0.773   5.580
13315TIP3   OH239889   8.178   7.608   6.708
13315TIP3    H139890   8.263   7.567   6.722
13315TIP3    H239891   8.194   7.701   6.718
13316TIP3   OH239892   0.705   0.465   2.421
13316TIP3    H139893   0.718   0.401   2.351
13316TIP3    H239894   0.693   0.412   2.500
13317TIP3   OH239895   2.273   3.181   2.834
13317TIP3    H139896   2.280   3.111   2.899
13317TIP3    H239897   2.288   3.262   2.883
13318TIP3   OH239898   3.910   3.761   5.562
13318TIP3    H139899   3.932   3.734   5.651
13318TIP3    H239900   3.977   3.826   5.540
13319TIP3   OH239901   3.342   0.492   4.373
13319TIP3    H139902   3.370   0.405   4.404
13319TIP3    H239903   3.423   0.533   4.343
13320TIP3   OH239904   6.427   6.820   6.349
13320TIP3    H139905   6.442   6.892   6.409
13320TIP3    H239906   6.332   6.808   6.348
13321TIP3   OH239907   6.637   5.954   1.805
13321TIP3    H139908   6.624   5.889   1.875
13321TIP3    H239909   6.555   5.953   1.756
13322TIP3   OH239910   3.932   7.367   2.738
13322TIP3    H139911   3.993   7.414   2.680
13322TIP3    H239912   3.951   7.275   2.723
13323TIP3   OH239913   1.431   2.919   1.538
13323TIP3    H139914   1.430   2.957   1.450
13323TIP3    H239915   1.351   2.867   1.542
13324TIP3   OH239916   1.175   4.218   1.613
13324TIP3    H139917   1.118   4.279   1.568
13324TIP3    H239918   1.262   4.258   1.608
13325TIP3   OH239919   0.911   5.187   2.056
13325TIP3    H139920   0.993   5.230   2.033
13325TIP3    H239921   0.924   5.157   2.146
13326TIP3   OH239922   4.757   0.301   2.208
13326TIP3    H139923   4.799   0.328   2.290
13326TIP3    H239924   4.830   0.290   2.147
13327TIP3   OH239925   0.970   0.021   0.900
13327TIP3    H139926   0.918   0.092   0.864
13327TIP3    H239927   1.032   0.065   0.960
13328TIP3   OH239928   1.846   1.860   1.055
13328TIP3    H139929   1.914   1.807   1.097
13328TIP3    H239930   1.892   1.907   0.985
13329TIP3   OH239931   4.763   1.712   4.345
13329TIP3    H139932   4.830   1.760   4.296
13329TIP3    H239933   4.680   1.743   4.308
13330TIP3   OH239934   4.896   6.185   2.741
13330TIP3    H139935   4.841   6.165   2.666
13330TIP3    H239936   4.851   6.144   2.815
13331TIP3   OH239937   7.242   6.446   4.348
13331TIP3    H139938   7.210   6.427   4.260
13331TIP3    H239939   7.186   6.518   4.378
13332TIP3   OH239940   3.315   3.021   6.719
13332TIP3    H139941   3.296   3.063   6.636
13332TIP3    H239942   3.254   2.947   6.724
13333TIP3   OH239943   3.795   0.768   3.414
13333TIP3    H139944   3.728   0.709   3.448
13333TIP3    H239945   3.749   0.851   3.400
13334TIP3   OH239946   2.352   6.875   6.301
13334TIP3    H139947   2.337   6.902   6.210
13334TIP3    H239948   2.268   6.843   6.332
13335TIP3   OH239949   3.277   3.134   2.188
13335TIP3    H139950   3.278   3.127   2.284
13335TIP3    H239951   3.288   3.043   2.158
13336TIP3   OH239952   7.139   6.139   1.114
13336TIP3    H139953   7.192   6.066   1.082
13336TIP3    H239954   7.196   6.184   1.177
13337TIP3   OH239955   2.951   4.470   1.872
13337TIP3    H139956   3.013   4.490   1.942
13337TIP3    H239957   3.000   4.483   1.791
13338TIP3   OH239958   4.127   2.474   0.500
13338TIP3    H139959   4.081   2.392   0.479
13338TIP3    H239960   4.192   2.449   0.565
13339TIP3   OH239961   3.470   0.200   4.989
13339TIP3    H139962   3.429   0.284   4.968
13339TIP3    H239963   3.448   0.144   4.914
13340TIP3   OH239964   7.726   7.537   5.051
13340TIP3    H139965   7.673   7.562   5.127
13340TIP3    H239966   7.776   7.461   5.081
13341TIP3   OH239967   4.176   6.013   3.092
13341TIP3    H139968   4.244   5.962   3.137
13341TIP3    H239969   4.213   6.033   3.006
13342TIP3   OH239970   2.367   2.456   1.301
13342TIP3    H139971   2.406   2.481   1.384
13342TIP3    H239972   2.289   2.510   1.293
13343TIP3   OH239973   3.102   5.104   2.716
13343TIP3    H139974   3.024   5.093   2.770
13343TIP3    H239975   3.133   5.192   2.737
13344TIP3   OH239976   7.454   7.786   0.576
13344TIP3    H139977   7.548   7.803   0.569
13344TIP3    H239978   7.428   7.757   0.488
13345TIP3   OH239979   2.140   2.334   3.894
13345TIP3    H139980   2.200   2.334   3.969
13345TIP3    H239981   2.060   2.294   3.928
13346TIP3   OH239982   3.544   5.374   5.960
13346TIP3    H139983   3.490   5.340   5.889
13346TIP3    H239984   3.544   5.304   6.026
13347TIP3   OH239985   4.616   1.316   0.757
13347TIP3    H139986   4.560   1.244   0.785
13347TIP3    H239987   4.568   1.395   0.781
13348TIP3   OH239988   6.594   0.703   2.523
13348TIP3    H139989   6.610   0.623   2.574
13348TIP3    H239990   6.509   0.689   2.482
13349TIP3   OH239991   8.289   3.658   1.205
13349TIP3    H139992   8.369   3.655   1.154
13349TIP3    H239993   8.233   3.720   1.158
13350TIP3   OH239994   6.691   1.266   0.011
13350TIP3    H139995   6.602   1.273   0.045
13350TIP3    H239996   6.748   1.289   0.085
13351TIP3   OH239997   4.676   6.732   1.728
13351TIP3    H139998   4.605   6.791   1.702
13351TIP3    H239999   4.641   6.686   1.805
13352TIP3   OH240000   4.816   7.060   0.620
13352TIP3    H140001   4.886   7.015   0.572
13352TIP3    H240002   4.766   7.106   0.552
13353TIP3   OH240003   3.645   6.850   2.853
13353TIP3    H140004   3.662   6.942   2.833
13353TIP3    H240005   3.701   6.801   2.792
13354TIP3   OH240006   7.170   6.793   6.593
13354TIP3    H140007   7.114   6.826   6.523
13354TIP3    H240008   7.134   6.832   6.673
13355TIP3   OH240009   3.731   1.380   1.354
13355TIP3    H140010   3.777   1.338   1.426
13355TIP3    H240011   3.769   1.468   1.350
13356TIP3   OH240012   5.997   0.874   4.140
13356TIP3    H140013   6.017   0.892   4.232
13356TIP3    H240014   6.049   0.797   4.119
13357TIP3   OH240015   1.679   3.168   1.177
13357TIP3    H140016   1.757   3.218   1.155
13357TIP3    H240017   1.711   3.094   1.229
13358TIP3   OH240018   6.615   1.671   6.048
13358TIP3    H140019   6.594   1.764   6.045
13358TIP3    H240020   6.536   1.626   6.019
13359TIP3   OH240021   2.526   3.393   5.370
13359TIP3    H140022   2.598   3.392   5.307
13359TIP3    H240023   2.545   3.466   5.428
13360TIP3   OH240024   5.033   4.861   5.338
13360TIP3    H140025   5.032   4.916   5.416
13360TIP3    H240026   4.960   4.893   5.285
13361TIP3   OH240027   1.819   7.599   2.395
13361TIP3    H140028   1.790   7.673   2.341
13361TIP3    H240029   1.812   7.631   2.485
13362TIP3   OH240030   6.637   3.317   2.468
13362TIP3    H140031   6.676   3.242   2.424
13362TIP3    H240032   6.576   3.279   2.532
13363TIP3   OH240033   6.726   3.103   0.440
13363TIP3    H140034   6.693   3.040   0.504
13363TIP3    H240035   6.820   3.089   0.439
13364TIP3   OH240036   6.402   3.222   3.086
13364TIP3    H140037   6.438   3.311   3.085
13364TIP3    H240038   6.313   3.231   3.053
13365TIP3   OH240039   2.153   2.034   5.356
13365TIP3    H140040   2.124   1.987   5.434
13365TIP3    H240041   2.156   1.968   5.287
13366TIP3   OH240042   6.112   6.065   4.943
13366TIP3    H140043   6.207   6.056   4.953
13366TIP3    H240044   6.098   6.069   4.848
13367TIP3   OH240045   1.322   4.016   2.821
13367TIP3    H140046   1.321   4.109   2.798
13367TIP3    H240047   1.324   4.016   2.917
13368TIP3   OH240048   3.141   4.820   5.077
13368TIP3    H140049   3.132   4.760   5.003
13368TIP3    H240050   3.053   4.827   5.113
13369TIP3   OH240051   1.612   4.783   3.493
13369TIP3    H140052   1.670   4.821   3.426
13369TIP3    H240053   1.670   4.763   3.566
13370TIP3   OH240054   4.751   1.997   1.508
13370TIP3    H140055   4.686   1.927   1.506
13370TIP3    H240056   4.829   1.956   1.546
13371TIP3   OH240057   5.390   3.472   5.347
13371TIP3    H140058   5.421   3.423   5.271
13371TIP3    H240059   5.432   3.558   5.339
13372TIP3   OH240060   2.620   3.976   3.290
13372TIP3    H140061   2.654   4.052   3.244
13372TIP3    H240062   2.564   3.932   3.227
13373TIP3   OH240063   2.379   6.409   1.357
13373TIP3    H140064   2.368   6.321   1.393
13373TIP3    H240065   2.393   6.464   1.434
13374TIP3   OH240066   6.397   6.840   5.863
13374TIP3    H140067   6.349   6.917   5.833
13374TIP3    H240068   6.478   6.841   5.811
13375TIP3   OH240069   0.252   7.198   6.237
13375TIP3    H140070   0.260   7.289   6.266
13375TIP3    H240071   0.159   7.178   6.244
13376TIP3   OH240072   7.877   2.851   0.177
13376TIP3    H140073   7.934   2.808   0.113
13376TIP3    H240074   7.930   2.858   0.256
13377TIP3   OH240075   1.549   1.799   3.601
13377TIP3    H140076   1.471   1.761   3.641
13377TIP3    H240077   1.622   1.757   3.646
13378TIP3   OH240078   2.610   4.443   6.227
13378TIP3    H140079   2.540   4.503   6.251
13378TIP3    H240080   2.688   4.498   6.220
13379TIP3   OH240081   0.056   6.175   2.927
13379TIP3    H140082   0.149   6.196   2.935
13379TIP3    H240083   0.040   6.174   2.833
13380TIP3   OH240084   4.752   4.749   1.409
13380TIP3    H140085   4.738   4.751   1.314
13380TIP3    H240086   4.846   4.730   1.418
13381TIP3   OH240087   5.526   4.302   0.559
13381TIP3    H140088   5.522   4.217   0.603
13381TIP3    H240089   5.480   4.362   0.618
13382TIP3   OH240090  -0.025   2.101   6.073
13382TIP3    H140091   0.031   2.108   5.995
13382TIP3    H240092   0.033   2.122   6.146
13383TIP3   OH240093   1.405   1.196   5.452
13383TIP3    H140094   1.458   1.116   5.453
13383TIP3    H240095   1.376   1.206   5.543
13384TIP3   OH240096   7.029   3.603   5.685
13384TIP3    H140097   6.977   3.544   5.630
13384TIP3    H240098   6.994   3.690   5.665
13385TIP3   OH240099   2.087   1.965   0.922
13385TIP3    H140100   2.053   2.031   0.862
13385TIP3    H240101   2.181   1.980   0.925
13386TIP3   OH240102   7.269   0.204   0.526
13386TIP3    H140103   7.345   0.221   0.471
13386TIP3    H240104   7.211   0.150   0.472
13387TIP3   OH240105   6.694   4.924   0.238
13387TIP3    H140106   6.664   4.851   0.184
13387TIP3    H240107   6.785   4.939   0.210
13388TIP3   OH240108   6.850   7.316   5.909
13388TIP3    H140109   6.830   7.341   5.819
13388TIP3    H240110   6.817   7.226   5.917
13389TIP3   OH240111   0.840   2.818   2.408
13389TIP3    H140112   0.767   2.825   2.470
13389TIP3    H240113   0.918   2.812   2.464
13390TIP3   OH240114   3.273   4.265   3.190
13390TIP3    H140115   3.248   4.197   3.252
13390TIP3    H240116   3.315   4.218   3.119
13391TIP3   OH240117   7.696   7.209   2.291
13391TIP3    H140118   7.722   7.294   2.255
13391TIP3    H240119   7.775   7.175   2.331
13392TIP3   OH240120   3.452   6.731   3.287
13392TIP3    H140121   3.475   6.743   3.379
13392TIP3    H240122   3.380   6.792   3.272
13393TIP3   OH240123   0.662   6.225   5.875
13393TIP3    H140124   0.600   6.207   5.804
13393TIP3    H240125   0.712   6.300   5.845
13394TIP3   OH240126   7.041   0.912   5.759
13394TIP3    H140127   7.104   0.973   5.796
13394TIP3    H240128   7.025   0.946   5.671
13395TIP3   OH240129   0.669   0.955   1.585
13395TIP3    H140130   0.637   0.950   1.675
13395TIP3    H240131   0.640   0.873   1.544
13396TIP3   OH240132   6.109   4.179   2.557
13396TIP3    H140133   6.033   4.220   2.599
13396TIP3    H240134   6.097   4.196   2.463
13397TIP3   OH240135   6.508   2.059   1.209
13397TIP3    H140136   6.599   2.075   1.186
13397TIP3    H240137   6.473   2.145   1.231
13398TIP3   OH240138   1.495   6.751   0.765
13398TIP3    H140139   1.562   6.683   0.771
13398TIP3    H240140   1.474   6.773   0.856
13399TIP3   OH240141   5.454   0.710   4.552
13399TIP3    H140142   5.548   0.725   4.542
13399TIP3    H240143   5.448   0.621   4.585
13400TIP3   OH240144   6.403   3.124   4.753
13400TIP3    H140145   6.447   3.044   4.782
13400TIP3    H240146   6.410   3.183   4.827
13401TIP3   OH240147   0.955   2.447   1.976
13401TIP3    H140148   0.953   2.359   1.938
13401TIP3    H240149   0.864   2.478   1.968
13402TIP3   OH240150   7.094   7.019   4.287
13402TIP3    H140151   7.072   6.967   4.210
13402TIP3    H240152   7.085   6.958   4.360
13403TIP3   OH240153   4.816   6.816   0.780
13403TIP3    H140154   4.768   6.897   0.762
13403TIP3    H240155   4.848   6.787   0.695
13404TIP3   OH240156   5.140   5.833   3.185
13404TIP3    H140157   5.192   5.901   3.226
13404TIP3    H240158   5.185   5.813   3.103
13405TIP3   OH240159   7.106   5.191   1.231
13405TIP3    H140160   7.196   5.223   1.232
13405TIP3    H240161   7.082   5.181   1.323
13406TIP3   OH240162   5.241   5.037   2.857
13406TIP3    H140163   5.181   5.102   2.893
13406TIP3    H240164   5.324   5.054   2.900
13407TIP3   OH240165   8.244   4.852   3.442
13407TIP3    H140166   8.167   4.835   3.496
13407TIP3    H240167   8.224   4.810   3.358
13408TIP3   OH240168   0.952   4.208   3.777
13408TIP3    H140169   0.941   4.298   3.745
13408TIP3    H240170   0.913   4.153   3.710
13409TIP3   OH240171   3.862   7.641   2.002
13409TIP3    H140172   3.866   7.588   2.082
13409TIP3    H240173   3.891   7.728   2.030
13410TIP3   OH240174   7.485   0.710   6.325
13410TIP3    H140175   7.528   0.645   6.380
13410TIP3    H240176   7.423   0.660   6.272
13411TIP3   OH240177   4.644   4.554   0.321
13411TIP3    H140178   4.676   4.607   0.249
13411TIP3    H240179   4.578   4.609   0.364
13412TIP3   OH240180   4.397   6.041   1.186
13412TIP3    H140181   4.386   6.062   1.093
13412TIP3    H240182   4.438   5.955   1.187
13413TIP3   OH240183   3.185   2.458   2.322
13413TIP3    H140184   3.210   2.381   2.271
13413TIP3    H240185   3.245   2.526   2.294
13414TIP3   OH240186   3.101   7.443   5.307
13414TIP3    H140187   3.128   7.508   5.373
13414TIP3    H240188   3.154   7.366   5.326
13415TIP3   OH240189   1.627   6.182   2.664
13415TIP3    H140190   1.672   6.116   2.717
13415TIP3    H240191   1.688   6.256   2.660
13416TIP3   OH240192   3.809   7.857   2.347
13416TIP3    H140193   3.850   7.782   2.302
13416TIP3    H240194   3.722   7.826   2.372
13417TIP3   OH240195   6.183   5.825   1.129
13417TIP3    H140196   6.234   5.760   1.177
13417TIP3    H240197   6.177   5.900   1.189
13418TIP3   OH240198   1.214   1.234   3.911
13418TIP3    H140199   1.282   1.169   3.895
13418TIP3    H240200   1.177   1.210   3.996
13419TIP3   OH240201   3.600   2.511   0.239
13419TIP3    H140202   3.628   2.424   0.211
13419TIP3    H240203   3.571   2.554   0.159
13420TIP3   OH240204   2.489   7.132   0.509
13420TIP3    H140205   2.403   7.132   0.466
13420TIP3    H240206   2.523   7.044   0.493
13421TIP3   OH240207   4.020   5.952   2.285
13421TIP3    H140208   4.103   5.997   2.270
13421TIP3    H240209   4.020   5.931   2.378
13422TIP3   OH240210   4.074   3.906   1.444
13422TIP3    H140211   4.156   3.933   1.485
13422TIP3    H240212   4.101   3.868   1.360
13423TIP3   OH240213   7.685   3.554   6.300
13423TIP3    H140214   7.766   3.556   6.351
13423TIP3    H240215   7.685   3.468   6.258
13424TIP3   OH240216   4.846   3.441   5.235
13424TIP3    H140217   4.880   3.358   5.202
13424TIP3    H240218   4.903   3.507   5.196
13425TIP3   OH240219   3.735   6.443   1.830
13425TIP3    H140220   3.683   6.523   1.841
13425TIP3    H240221   3.820   6.464   1.868
13426TIP3   OH240222   0.797   6.355   0.939
13426TIP3    H140223   0.858   6.407   0.887
13426TIP3    H240224   0.849   6.280   0.969
13427TIP3   OH240225   1.994   3.424   2.925
13427TIP3    H140226   1.928   3.464   2.869
13427TIP3    H240227   2.015   3.492   2.989
13428TIP3   OH240228   1.512   3.491   1.053
13428TIP3    H140229   1.556   3.576   1.045
13428TIP3    H240230   1.528   3.464   1.144
13429TIP3   OH240231   3.879   5.637   2.319
13429TIP3    H140232   3.910   5.687   2.244
13429TIP3    H240233   3.956   5.587   2.348
13430TIP3   OH240234   1.291   5.781   2.538
13430TIP3    H140235   1.234   5.801   2.613
13430TIP3    H240236   1.306   5.866   2.496
13431TIP3   OH240237   5.810   0.258   0.557
13431TIP3    H140238   5.782   0.322   0.623
13431TIP3    H240239   5.903   0.278   0.543
13432TIP3   OH240240   4.175   6.396   5.260
13432TIP3    H140241   4.131   6.340   5.196
13432TIP3    H240242   4.264   6.407   5.226
13433TIP3   OH240243   4.028   0.308   1.706
13433TIP3    H140244   4.055   0.219   1.727
13433TIP3    H240245   4.096   0.340   1.647
13434TIP3   OH240246   7.130   3.283   1.192
13434TIP3    H140247   7.041   3.291   1.227
13434TIP3    H240248   7.125   3.321   1.104
13435TIP3   OH240249   3.916   0.783   5.479
13435TIP3    H140250   3.852   0.759   5.412
13435TIP3    H240251   3.963   0.858   5.442
13436TIP3   OH240252   6.220   2.851   1.081
13436TIP3    H140253   6.198   2.797   1.005
13436TIP3    H240254   6.226   2.940   1.046
13437TIP3   OH240255   7.702   0.302   4.605
13437TIP3    H140256   7.709   0.322   4.698
13437TIP3    H240257   7.742   0.377   4.561
13438TIP3   OH240258   2.328   1.761   2.848
13438TIP3    H140259   2.423   1.764   2.850
13438TIP3    H240260   2.306   1.669   2.859
13439TIP3   OH240261   3.124   0.342   4.478
13439TIP3    H140262   3.181   0.417   4.459
13439TIP3    H240263   3.132   0.330   4.573
13440TIP3   OH240264   6.705   6.750   3.540
13440TIP3    H140265   6.782   6.764   3.596
13440TIP3    H240266   6.631   6.777   3.594
13441TIP3   OH240267   4.700   0.145   4.537
13441TIP3    H140268   4.646   0.118   4.611
13441TIP3    H240269   4.782   0.097   4.548
13442TIP3   OH240270   0.165   5.838   2.355
13442TIP3    H140271   0.189   5.930   2.344
13442TIP3    H240272   0.094   5.824   2.293
13443TIP3   OH240273   8.074   6.606   5.851
13443TIP3    H140274   7.988   6.628   5.816
13443TIP3    H240275   8.132   6.676   5.819
13444TIP3   OH240276   0.837   4.184   4.049
13444TIP3    H140277   0.869   4.162   3.962
13444TIP3    H240278   0.784   4.263   4.035
13445TIP3   OH240279   5.835   0.420   6.212
13445TIP3    H140280   5.788   0.490   6.167
13445TIP3    H240281   5.780   0.342   6.199
13446TIP3   OH240282   7.103   6.374   5.701
13446TIP3    H140283   7.105   6.316   5.625
13446TIP3    H240284   7.040   6.443   5.677
13447TIP3   OH240285   2.797   2.624   1.154
13447TIP3    H140286   2.736   2.660   1.220
13447TIP3    H240287   2.740   2.591   1.085
13448TIP3   OH240288   0.330   5.015   6.596
13448TIP3    H140289   0.346   5.071   6.520
13448TIP3    H240290   0.306   5.076   6.666
13449TIP3   OH240291   6.425   3.327   0.656
13449TIP3    H140292   6.481   3.338   0.580
13449TIP3    H240293   6.482   3.341   0.731
13450TIP3   OH240294   2.502   7.733   0.665
13450TIP3    H140295   2.486   7.695   0.579
13450TIP3    H240296   2.509   7.827   0.649
13451TIP3   OH240297   7.328   7.044   1.892
13451TIP3    H140298   7.422   7.051   1.911
13451TIP3    H240299   7.306   7.127   1.851
13452TIP3   OH240300   6.891   6.788   3.747
13452TIP3    H140301   6.877   6.800   3.841
13452TIP3    H240302   6.972   6.738   3.740
13453TIP3   OH240303   6.798   5.861   0.608
13453TIP3    H140304   6.744   5.822   0.540
13453TIP3    H240305   6.815   5.950   0.577
13454TIP3   OH240306   6.323   7.447   6.338
13454TIP3    H140307   6.289   7.496   6.263
13454TIP3    H240308   6.325   7.356   6.309
13455TIP3   OH240309   3.371   5.277   1.840
13455TIP3    H140310   3.408   5.320   1.918
13455TIP3    H240311   3.309   5.340   1.806
13456TIP3   OH240312   2.949   3.547   0.454
13456TIP3    H140313   2.992   3.630   0.435
13456TIP3    H240314   2.880   3.568   0.517
13457TIP3   OH240315   0.601   5.311   5.152
13457TIP3    H140316   0.679   5.320   5.097
13457TIP3    H240317   0.576   5.400   5.173
13458TIP3   OH240318   1.638   0.869   5.233
13458TIP3    H140319   1.597   0.798   5.283
13458TIP3    H240320   1.564   0.913   5.191
13459TIP3   OH240321   0.107   4.639   2.064
13459TIP3    H140322   0.019   4.638   2.100
13459TIP3    H240323   0.164   4.656   2.138
13460TIP3   OH240324   1.511   2.057   3.879
13460TIP3    H140325   1.440   1.996   3.865
13460TIP3    H240326   1.492   2.131   3.821
13461TIP3   OH240327   6.092   3.033   5.995
13461TIP3    H140328   6.036   3.015   6.070
13461TIP3    H240329   6.073   2.963   5.932
13462TIP3   OH240330   1.899   1.859   5.091
13462TIP3    H140331   1.889   1.805   5.170
13462TIP3    H240332   1.830   1.925   5.098
13463TIP3   OH240333   4.505   0.104   4.738
13463TIP3    H140334   4.519   0.100   4.833
13463TIP3    H240335   4.483   0.196   4.721
13464TIP3   OH240336   6.566   7.466   5.798
13464TIP3    H140337   6.634   7.520   5.839
13464TIP3    H240338   6.599   7.446   5.711
13465TIP3   OH240339   2.115   5.037   2.306
13465TIP3    H140340   2.172   5.082   2.244
13465TIP3    H240341   2.173   5.012   2.378
13466TIP3   OH240342   4.243   0.924   2.177
13466TIP3    H140343   4.235   0.833   2.149
13466TIP3    H240344   4.210   0.925   2.267
13467TIP3   OH240345   3.363   2.869   3.622
13467TIP3    H140346   3.360   2.884   3.717
13467TIP3    H240347   3.279   2.830   3.601
13468TIP3   OH240348   5.430   4.006   0.600
13468TIP3    H140349   5.349   3.972   0.563
13468TIP3    H240350   5.430   3.976   0.691
13469TIP3   OH240351   0.617   2.942   3.425
13469TIP3    H140352   0.592   2.936   3.517
13469TIP3    H240353   0.536   2.928   3.377
13470TIP3   OH240354   6.495   1.186   5.537
13470TIP3    H140355   6.562   1.238   5.583
13470TIP3    H240356   6.503   1.213   5.446
13471TIP3   OH240357   0.961   3.924   1.063
13471TIP3    H140358   0.977   3.835   1.031
13471TIP3    H240359   1.042   3.948   1.109
13472TIP3   OH240360   4.453   2.334   0.332
13472TIP3    H140361   4.403   2.263   0.292
13472TIP3    H240362   4.413   2.414   0.296
13473TIP3   OH240363   6.093   5.910   2.778
13473TIP3    H140364   6.185   5.883   2.769
13473TIP3    H240365   6.056   5.848   2.841
13474TIP3   OH240366   2.939   0.838   3.675
13474TIP3    H140367   3.008   0.777   3.647
13474TIP3    H240368   2.972   0.874   3.758
13475TIP3   OH240369   7.992   7.773   0.187
13475TIP3    H140370   7.902   7.768   0.219
13475TIP3    H240371   7.987   7.822   0.105
13476TIP3   OH240372   2.212   0.899   5.166
13476TIP3    H140373   2.209   0.990   5.135
13476TIP3    H240374   2.172   0.849   5.095
13477TIP3   OH240375   2.825   5.501   3.273
13477TIP3    H140376   2.784   5.568   3.328
13477TIP3    H240377   2.885   5.456   3.332
13478TIP3   OH240378   0.268   7.617   4.598
13478TIP3    H140379   0.184   7.573   4.580
13478TIP3    H240380   0.275   7.683   4.529
13479TIP3   OH240381   6.258   4.790   5.344
13479TIP3    H140382   6.215   4.786   5.429
13479TIP3    H240383   6.191   4.763   5.281
13480TIP3   OH240384   7.707   4.885   5.478
13480TIP3    H140385   7.620   4.917   5.500
13480TIP3    H240386   7.705   4.874   5.383
13481TIP3   OH240387   5.965   1.497   4.298
13481TIP3    H140388   5.944   1.585   4.329
13481TIP3    H240389   5.882   1.450   4.302
13482TIP3   OH240390   1.036   4.994   6.154
13482TIP3    H140391   0.947   4.990   6.120
13482TIP3    H240392   1.081   5.056   6.097
13483TIP3   OH240393   4.676   0.067   3.311
13483TIP3    H140394   4.713  -0.019   3.330
13483TIP3    H240395   4.593   0.048   3.267
13484TIP3   OH240396   6.089   3.508   5.461
13484TIP3    H140397   6.060   3.526   5.550
13484TIP3    H240398   6.011   3.475   5.416
13485TIP3   OH240399   2.945   7.664   0.795
13485TIP3    H140400   2.913   7.630   0.711
13485TIP3    H240401   2.987   7.747   0.773
13486TIP3   OH240402   7.212   0.237   2.185
13486TIP3    H140403   7.178   0.155   2.149
13486TIP3    H240404   7.261   0.211   2.263
13487TIP3   OH240405   4.319   4.102   2.331
13487TIP3    H140406   4.405   4.074   2.301
13487TIP3    H240407   4.276   4.022   2.362
13488TIP3   OH240408   8.070   6.592   1.446
13488TIP3    H140409   8.079   6.498   1.435
13488TIP3    H240410   8.154   6.628   1.418
13489TIP3   OH240411   6.320   3.212   0.135
13489TIP3    H140412   6.372   3.160   0.197
13489TIP3    H240413   6.294   3.289   0.185
13490TIP3   OH240414   1.949   0.967   5.245
13490TIP3    H140415   2.041   0.963   5.271
13490TIP3    H240416   1.917   1.050   5.281
13491TIP3   OH240417   1.776   5.386   5.425
13491TIP3    H140418   1.853   5.386   5.368
13491TIP3    H240419   1.701   5.382   5.365
13492TIP3   OH240420   4.570   0.311   4.989
13492TIP3    H140421   4.590   0.335   5.080
13492TIP3    H240422   4.570   0.394   4.942
13493TIP3   OH240423   3.920   7.090   1.770
13493TIP3    H140424   3.975   7.034   1.825
13493TIP3    H240425   3.902   7.167   1.825
13494TIP3   OH240426   6.681   6.047   1.142
13494TIP3    H140427   6.631   6.121   1.176
13494TIP3    H240428   6.640   5.970   1.182
13495TIP3   OH240429   4.615   3.754   1.523
13495TIP3    H140430   4.600   3.825   1.460
13495TIP3    H240431   4.709   3.739   1.520
13496TIP3   OH240432   1.634   3.451   5.741
13496TIP3    H140433   1.598   3.538   5.759
13496TIP3    H240434   1.564   3.405   5.694
13497TIP3   OH240435   0.545   7.521   5.616
13497TIP3    H140436   0.638   7.512   5.594
13497TIP3    H240437   0.526   7.614   5.604
13498TIP3   OH240438   4.689   0.535   4.641
13498TIP3    H140439   4.718   0.523   4.551
13498TIP3    H240440   4.765   0.513   4.694
13499TIP3   OH240441   0.518   1.332   6.308
13499TIP3    H140442   0.506   1.306   6.217
13499TIP3    H240443   0.430   1.335   6.344
13500TIP3   OH240444   6.914   1.720   3.799
13500TIP3    H140445   6.852   1.765   3.856
13500TIP3    H240446   6.888   1.628   3.802
13501TIP3   OH240447   3.175   0.071   0.023
13501TIP3    H140448   3.248   0.015   0.047
13501TIP3    H240449   3.189   0.151   0.073
13502TIP3   OH240450   4.044   4.634   2.163
13502TIP3    H140451   4.131   4.630   2.202
13502TIP3    H240452   3.985   4.642   2.238
13503TIP3   OH240453   4.873   4.095   1.158
13503TIP3    H140454   4.864   4.191   1.163
13503TIP3    H240455   4.813   4.070   1.088
13504TIP3   OH240456   1.972   0.539   3.357
13504TIP3    H140457   1.991   0.515   3.448
13504TIP3    H240458   1.883   0.573   3.359
13505TIP3   OH240459   4.095   4.478   3.731
13505TIP3    H140460   4.081   4.522   3.647
13505TIP3    H240461   4.149   4.401   3.709
13506TIP3   OH240462   1.907   6.937   3.985
13506TIP3    H140463   1.937   6.871   4.048
13506TIP3    H240464   1.916   7.020   4.031
13507TIP3   OH240465   7.610   1.069   2.741
13507TIP3    H140466   7.591   1.091   2.650
13507TIP3    H240467   7.552   1.125   2.792
13508TIP3   OH240468   6.874   7.454   5.280
13508TIP3    H140469   6.876   7.367   5.318
13508TIP3    H240470   6.962   7.489   5.294
13509TIP3   OH240471   6.019   2.235   2.590
13509TIP3    H140472   6.074   2.181   2.647
13509TIP3    H240473   5.960   2.281   2.650
13510TIP3   OH240474   4.049   2.962   2.199
13510TIP3    H140475   4.134   2.926   2.225
13510TIP3    H240476   4.043   3.046   2.246
13511TIP3   OH240477   4.428   7.723   2.940
13511TIP3    H140478   4.370   7.649   2.955
13511TIP3    H240479   4.376   7.800   2.962
13512TIP3   OH240480   1.767   3.364   3.098
13512TIP3    H140481   1.844   3.416   3.073
13512TIP3    H240482   1.694   3.409   3.057
13513TIP3   OH240483   3.412   6.322   0.658
13513TIP3    H140484   3.494   6.364   0.683
13513TIP3    H240485   3.402   6.250   0.720
13514TIP3   OH240486   5.053   0.690   6.067
13514TIP3    H140487   4.958   0.680   6.066
13514TIP3    H240488   5.069   0.778   6.032
13515TIP3   OH240489   7.121   2.241   2.119
13515TIP3    H140490   7.196   2.251   2.060
13515TIP3    H240491   7.071   2.322   2.107
13516TIP3   OH240492   4.623   0.026   2.559
13516TIP3    H140493   4.600   0.032   2.466
13516TIP3    H240494   4.598   0.111   2.596
13517TIP3   OH240495   6.409   5.054   2.680
13517TIP3    H140496   6.346   5.010   2.623
13517TIP3    H240497   6.454   4.982   2.725
13518TIP3   OH240498   0.494   1.276   6.008
13518TIP3    H140499   0.526   1.222   5.936
13518TIP3    H240500   0.400   1.285   5.991
13519TIP3   OH240501   1.477   1.941   0.437
13519TIP3    H140502   1.555   1.996   0.436
13519TIP3    H240503   1.508   1.856   0.468
13520TIP3   OH240504   7.066   7.182   2.035
13520TIP3    H140505   7.134   7.217   2.092
13520TIP3    H240506   7.101   7.098   2.005
13521TIP3   OH240507   7.113   3.914   4.342
13521TIP3    H140508   7.145   3.846   4.401
13521TIP3    H240509   7.027   3.883   4.314
13522TIP3   OH240510   2.509   6.025   3.169
13522TIP3    H140511   2.550   5.955   3.220
13522TIP3    H240512   2.493   6.095   3.232
13523TIP3   OH240513   7.563   3.989   2.938
13523TIP3    H140514   7.636   3.927   2.931
13523TIP3    H240515   7.600   4.064   2.985
13524TIP3   OH240516   7.916   4.900   2.319
13524TIP3    H140517   7.828   4.902   2.356
13524TIP3    H240518   7.925   4.984   2.273
13525TIP3   OH240519   6.891   7.465   2.401
13525TIP3    H140520   6.943   7.414   2.339
13525TIP3    H240521   6.811   7.487   2.354
13526TIP3   OH240522   6.738   2.880   5.908
13526TIP3    H140523   6.676   2.910   5.974
13526TIP3    H240524   6.756   2.957   5.854
13527TIP3   OH240525   7.966   4.560   4.434
13527TIP3    H140526   8.042   4.565   4.376
13527TIP3    H240527   7.921   4.644   4.424
13528TIP3   OH240528   7.503   1.906   5.335
13528TIP3    H140529   7.580   1.875   5.383
13528TIP3    H240530   7.535   1.981   5.285
13529TIP3   OH240531   3.308   0.951   3.568
13529TIP3    H140532   3.261   1.023   3.610
13529TIP3    H240533   3.239   0.888   3.545
13530TIP3   OH240534   5.420   2.695   0.182
13530TIP3    H140535   5.505   2.714   0.143
13530TIP3    H240536   5.396   2.774   0.229
13531TIP3   OH240537   1.232   0.734   4.987
13531TIP3    H140538   1.265   0.799   5.049
13531TIP3    H240539   1.176   0.678   5.040
13532TIP3   OH240540   0.513   3.007   1.417
13532TIP3    H140541   0.596   3.049   1.393
13532TIP3    H240542   0.446   3.066   1.382
13533TIP3   OH240543   6.499   5.414   5.406
13533TIP3    H140544   6.432   5.411   5.473
13533TIP3    H240545   6.519   5.322   5.388
13534TIP3   OH240546   4.024   6.359   6.548
13534TIP3    H140547   3.951   6.421   6.541
13534TIP3    H240548   4.017   6.306   6.468
13535TIP3   OH240549   4.394   3.518   0.394
13535TIP3    H140550   4.486   3.501   0.372
13535TIP3    H240551   4.395   3.606   0.433
13536TIP3   OH240552   3.419   1.718   5.719
13536TIP3    H140553   3.428   1.782   5.648
13536TIP3    H240554   3.501   1.669   5.718
13537TIP3   OH240555   5.384   2.456   5.127
13537TIP3    H140556   5.364   2.547   5.151
13537TIP3    H240557   5.304   2.408   5.148
13538TIP3   OH240558   4.545   2.389   2.202
13538TIP3    H140559   4.474   2.326   2.190
13538TIP3    H240560   4.505   2.473   2.181
13539TIP3   OH240561   5.421   4.632   4.331
13539TIP3    H140562   5.479   4.573   4.378
13539TIP3    H240563   5.357   4.661   4.397
13540TIP3   OH240564   5.700   0.686   6.416
13540TIP3    H140565   5.669   0.610   6.367
13540TIP3    H240566   5.642   0.757   6.389
13541TIP3   OH240567   7.724   3.482   2.861
13541TIP3    H140568   7.649   3.542   2.867
13541TIP3    H240569   7.691   3.408   2.810
13542TIP3   OH240570   6.173   0.918   2.449
13542TIP3    H140571   6.217   0.833   2.446
13542TIP3    H240572   6.244   0.981   2.458
13543TIP3   OH240573   7.232   6.850   6.121
13543TIP3    H140574   7.326   6.852   6.102
13543TIP3    H240575   7.202   6.767   6.083
13544TIP3   OH240576   0.631   4.701   4.986
13544TIP3    H140577   0.648   4.791   5.015
13544TIP3    H240578   0.617   4.709   4.891
13545TIP3   OH240579   0.876   3.156   5.648
13545TIP3    H140580   0.954   3.212   5.652
13545TIP3    H240581   0.887   3.104   5.569
13546TIP3   OH240582   7.958   3.616   2.408
13546TIP3    H140583   8.036   3.671   2.395
13546TIP3    H240584   7.950   3.608   2.503
13547TIP3   OH240585   0.165   2.897   6.294
13547TIP3    H140586   0.084   2.852   6.271
13547TIP3    H240587   0.153   2.986   6.262
13548TIP3   OH240588   7.492   3.481   3.103
13548TIP3    H140589   7.466   3.514   3.017
13548TIP3    H240590   7.490   3.558   3.160
13549TIP3   OH240591   5.703   3.155   5.831
13549TIP3    H140592   5.675   3.073   5.792
13549TIP3    H240593   5.665   3.223   5.775
13550TIP3   OH240594   4.848   6.138   3.955
13550TIP3    H140595   4.836   6.183   4.038
13550TIP3    H240596   4.818   6.201   3.889
13551TIP3   OH240597   7.200   1.718   4.871
13551TIP3    H140598   7.225   1.660   4.799
13551TIP3    H240599   7.113   1.750   4.848
13552TIP3   OH240600   4.475   3.610   6.366
13552TIP3    H140601   4.531   3.544   6.406
13552TIP3    H240602   4.424   3.645   6.439
13553TIP3   OH240603   7.567   5.476   4.378
13553TIP3    H140604   7.650   5.487   4.330
13553TIP3    H240605   7.519   5.410   4.328
13554TIP3   OH240606   0.823   4.014   4.837
13554TIP3    H140607   0.883   4.088   4.839
13554TIP3    H240608   0.868   3.946   4.887
13555TIP3   OH240609   4.131   2.810   1.954
13555TIP3    H140610   4.105   2.853   1.873
13555TIP3    H240611   4.125   2.878   2.021
13556TIP3   OH240612   2.516   2.242   4.111
13556TIP3    H140613   2.599   2.228   4.158
13556TIP3    H240614   2.541   2.292   4.034
13557TIP3   OH240615   5.873   4.567   1.095
13557TIP3    H140616   5.941   4.590   1.031
13557TIP3    H240617   5.791   4.572   1.047
13558TIP3   OH240618   2.111   0.978   0.473
13558TIP3    H140619   2.131   1.028   0.553
13558TIP3    H240620   2.142   0.890   0.492
13559TIP3   OH240621   6.169   2.935   5.558
13559TIP3    H140622   6.149   2.961   5.468
13559TIP3    H240623   6.180   3.017   5.605
13560TIP3   OH240624   0.759   6.222   2.313
13560TIP3    H140625   0.727   6.214   2.402
13560TIP3    H240626   0.843   6.175   2.314
13561TIP3   OH240627   1.644   0.216   5.527
13561TIP3    H140628   1.700   0.161   5.471
13561TIP3    H240629   1.577   0.156   5.560
13562TIP3   OH240630   4.473   4.952   6.227
13562TIP3    H140631   4.461   5.012   6.153
13562TIP3    H240632   4.384   4.927   6.251
13563TIP3   OH240633   7.513   1.885   4.623
13563TIP3    H140634   7.540   1.840   4.703
13563TIP3    H240635   7.588   1.939   4.599
13564TIP3   OH240636   3.270   0.496   2.943
13564TIP3    H140637   3.188   0.460   2.978
13564TIP3    H240638   3.252   0.590   2.933
13565TIP3   OH240639   2.212   3.453   3.214
13565TIP3    H140640   2.196   3.544   3.189
13565TIP3    H240641   2.134   3.406   3.185
13566TIP3   OH240642   6.089   3.609   0.218
13566TIP3    H140643   6.044   3.598   0.135
13566TIP3    H240644   6.074   3.701   0.242
13567TIP3   OH240645   1.223   2.125   0.936
13567TIP3    H140646   1.221   2.087   1.024
13567TIP3    H240647   1.161   2.071   0.886
13568TIP3   OH240648   8.266   2.441   6.711
13568TIP3    H140649   8.254   2.389   6.791
13568TIP3    H240650   8.202   2.406   6.649
13569TIP3   OH240651   4.610   4.664   0.850
13569TIP3    H140652   4.599   4.707   0.765
13569TIP3    H240653   4.623   4.572   0.829
13570TIP3   OH240654   4.589   6.183   6.338
13570TIP3    H140655   4.523   6.115   6.357
13570TIP3    H240656   4.567   6.255   6.397
13571TIP3   OH240657   0.067   3.248   4.611
13571TIP3    H140658   0.152   3.247   4.654
13571TIP3    H240659   0.065   3.168   4.559
13572TIP3   OH240660   5.215   3.980   5.885
13572TIP3    H140661   5.156   4.014   5.819
13572TIP3    H240662   5.161   3.969   5.963
13573TIP3   OH240663   2.737   2.701   3.702
13573TIP3    H140664   2.684   2.623   3.690
13573TIP3    H240665   2.802   2.675   3.768
13574TIP3   OH240666   2.006   4.089   6.134
13574TIP3    H140667   2.040   4.024   6.195
13574TIP3    H240668   2.052   4.071   6.052
13575TIP3   OH240669   7.790   5.001   6.055
13575TIP3    H140670   7.802   5.082   6.104
13575TIP3    H240671   7.854   5.007   5.984
13576TIP3   OH240672   4.264   6.987   4.973
13576TIP3    H140673   4.238   6.987   4.881
13576TIP3    H240674   4.347   6.939   4.973
13577TIP3   OH240675   3.798   5.962   0.812
13577TIP3    H140676   3.793   5.898   0.883
13577TIP3    H240677   3.719   5.947   0.760
13578TIP3   OH240678   4.629   0.431   3.620
13578TIP3    H140679   4.577   0.354   3.643
13578TIP3    H240680   4.582   0.469   3.545
13579TIP3   OH240681   1.395   1.237   1.755
13579TIP3    H140682   1.380   1.168   1.691
13579TIP3    H240683   1.347   1.313   1.720
13580TIP3   OH240684   2.084   2.891   3.934
13580TIP3    H140685   2.158   2.859   3.882
13580TIP3    H240686   2.021   2.818   3.933
13581TIP3   OH240687   1.806   7.796   4.355
13581TIP3    H140688   1.871   7.727   4.370
13581TIP3    H240689   1.824   7.860   4.425
13582TIP3   OH240690   6.671   6.927   0.182
13582TIP3    H140691   6.642   7.013   0.152
13582TIP3    H240692   6.761   6.919   0.148
13583TIP3   OH240693   5.345   0.306   0.340
13583TIP3    H140694   5.332   0.388   0.293
13583TIP3    H240695   5.408   0.258   0.287
13584TIP3   OH240696   6.160   4.624   0.542
13584TIP3    H140697   6.160   4.531   0.564
13584TIP3    H240698   6.068   4.647   0.534
13585TIP3   OH240699   6.926   5.683   3.909
13585TIP3    H140700   6.887   5.657   3.993
13585TIP3    H240701   6.959   5.601   3.872
13586TIP3   OH240702   4.751   0.370   0.717
13586TIP3    H140703   4.726   0.279   0.731
13586TIP3    H240704   4.834   0.365   0.671
13587TIP3   OH240705   5.218   0.749   4.737
13587TIP3    H140706   5.301   0.745   4.689
13587TIP3    H240707   5.227   0.827   4.793
13588TIP3   OH240708   2.533   3.219   3.319
13588TIP3    H140709   2.558   3.133   3.285
13588TIP3    H240710   2.573   3.282   3.259
13589TIP3   OH240711   5.239   6.976   2.979
13589TIP3    H140712   5.283   6.917   2.918
13589TIP3    H240713   5.146   6.963   2.960
13590TIP3   OH240714   7.779   0.405   4.209
13590TIP3    H140715   7.779   0.445   4.121
13590TIP3    H240716   7.781   0.480   4.268
13591TIP3   OH240717   6.713   0.759   0.082
13591TIP3    H140718   6.668   0.684   0.041
13591TIP3    H240719   6.744   0.812   0.009
13592TIP3   OH240720   0.903   1.280   2.855
13592TIP3    H140721   0.821   1.231   2.854
13592TIP3    H240722   0.888   1.355   2.798
13593TIP3   OH240723   6.403   7.707   2.008
13593TIP3    H140724   6.388   7.801   2.014
13593TIP3    H240725   6.403   7.688   1.914
13594TIP3   OH240726   3.077   7.286   5.978
13594TIP3    H140727   3.093   7.227   6.052
13594TIP3    H240728   2.998   7.334   6.003
13595TIP3   OH240729   1.972   2.750   3.171
13595TIP3    H140730   1.879   2.775   3.170
13595TIP3    H240731   2.016   2.821   3.125
13596TIP3   OH240732   0.434   5.659   0.462
13596TIP3    H140733   0.371   5.701   0.404
13596TIP3    H240734   0.463   5.582   0.414
13597TIP3   OH240735   0.139   6.658   5.755
13597TIP3    H140736   0.127   6.565   5.740
13597TIP3    H240737   0.156   6.665   5.849
13598TIP3   OH240738   0.801   3.938   4.528
13598TIP3    H140739   0.726   3.966   4.579
13598TIP3    H240740   0.776   3.954   4.437
13599TIP3   OH240741   7.514   7.393   0.100
13599TIP3    H140742   7.439   7.444   0.132
13599TIP3    H240743   7.478   7.345   0.025
13600TIP3   OH240744   0.656   5.688   0.177
13600TIP3    H140745   0.648   5.604   0.220
13600TIP3    H240746   0.647   5.753   0.247
13601TIP3   OH240747   2.912   3.478   4.874
13601TIP3    H140748   2.829   3.431   4.866
13601TIP3    H240749   2.888   3.564   4.906
13602TIP3   OH240750   3.042   5.391   2.327
13602TIP3    H140751   2.984   5.466   2.336
13602TIP3    H240752   3.107   5.418   2.263
13603TIP3   OH240753   5.105   6.590   0.885
13603TIP3    H140754   5.073   6.502   0.867
13603TIP3    H240755   5.139   6.585   0.975
13604TIP3   OH240756   5.742   7.218   2.910
13604TIP3    H140757   5.741   7.313   2.904
13604TIP3    H240758   5.684   7.188   2.840
13605TIP3   OH240759   4.511   2.084   2.492
13605TIP3    H140760   4.537   2.017   2.555
13605TIP3    H240761   4.511   2.038   2.407
13606TIP3   OH240762   2.588   6.728   1.843
13606TIP3    H140763   2.575   6.727   1.748
13606TIP3    H240764   2.572   6.818   1.869
13607TIP3   OH240765   5.853   1.805   3.701
13607TIP3    H140766   5.833   1.832   3.791
13607TIP3    H240767   5.840   1.710   3.702
13608TIP3   OH240768   1.322   1.443  -0.003
13608TIP3    H140769   1.255   1.414   0.058
13608TIP3    H240770   1.389   1.374  -0.001
13609TIP3   OH240771   6.876   7.532   0.737
13609TIP3    H140772   6.971   7.535   0.725
13609TIP3    H240773   6.864   7.514   0.830
13610TIP3   OH240774   4.067   7.652   1.324
13610TIP3    H140775   4.083   7.697   1.241
13610TIP3    H240776   4.154   7.635   1.361
13611TIP3   OH240777   4.709   4.712   0.108
13611TIP3    H140778   4.766   4.721   0.032
13611TIP3    H240779   4.622   4.697   0.071
13612TIP3   OH240780   4.888   6.964   6.426
13612TIP3    H140781   4.916   6.874   6.412
13612TIP3    H240782   4.798   6.966   6.394
13613TIP3   OH240783   5.867   6.505   1.369
13613TIP3    H140784   5.786   6.526   1.415
13613TIP3    H240785   5.926   6.472   1.437
13614TIP3   OH240786   7.355   5.697   4.430
13614TIP3    H140787   7.433   5.658   4.468
13614TIP3    H240788   7.382   5.724   4.342
13615TIP3   OH240789   3.826   5.783   6.529
13615TIP3    H140790   3.893   5.715   6.541
13615TIP3    H240791   3.873   5.855   6.485
13616TIP3   OH240792   5.281   4.950   4.487
13616TIP3    H140793   5.260   4.951   4.394
13616TIP3    H240794   5.246   4.867   4.519
13617TIP3   OH240795   3.047   4.130   3.004
13617TIP3    H140796   3.137   4.146   3.032
13617TIP3    H240797   3.054   4.104   2.912
13618TIP3   OH240798   4.759   2.003   4.622
13618TIP3    H140799   4.828   1.950   4.582
13618TIP3    H240800   4.732   1.953   4.699
13619TIP3   OH240801   7.881   3.879   5.912
13619TIP3    H140802   7.825   3.876   5.835
13619TIP3    H240803   7.835   3.826   5.977
13620TIP3   OH240804   4.760   6.328   5.488
13620TIP3    H140805   4.785   6.292   5.573
13620TIP3    H240806   4.842   6.339   5.441
13621TIP3   OH240807   3.782   2.801   6.006
13621TIP3    H140808   3.737   2.718   5.991
13621TIP3    H240809   3.743   2.861   5.942
13622TIP3   OH240810   6.984   3.701   0.007
13622TIP3    H140811   7.036   3.752   0.068
13622TIP3    H240812   6.894   3.732   0.020
13623TIP3   OH240813   6.899   2.008   3.714
13623TIP3    H140814   6.915   2.052   3.797
13623TIP3    H240815   6.915   2.075   3.647
13624TIP3   OH240816   1.344   0.791   3.375
13624TIP3    H140817   1.411   0.787   3.443
13624TIP3    H240818   1.306   0.703   3.374
13625TIP3   OH240819   3.745   0.946   2.118
13625TIP3    H140820   3.709   1.032   2.140
13625TIP3    H240821   3.715   0.929   2.029
13626TIP3   OH240822   0.962   1.997   3.588
13626TIP3    H140823   1.017   1.976   3.664
13626TIP3    H240824   0.936   2.088   3.601
13627TIP3   OH240825   4.311   1.796   3.558
13627TIP3    H140826   4.273   1.737   3.624
13627TIP3    H240827   4.268   1.880   3.573
13628TIP3   OH240828   6.402   5.311   0.973
13628TIP3    H140829   6.441   5.233   1.012
13628TIP3    H240830   6.401   5.293   0.879
13629TIP3   OH240831   0.308   4.851   6.049
13629TIP3    H140832   0.364   4.925   6.022
13629TIP3    H240833   0.368   4.791   6.093
13630TIP3   OH240834   7.503   6.943   6.574
13630TIP3    H140835   7.469   6.913   6.658
13630TIP3    H240836   7.467   6.881   6.510
13631TIP3   OH240837   7.478   6.127   3.842
13631TIP3    H140838   7.510   6.055   3.789
13631TIP3    H240839   7.470   6.091   3.930
13632TIP3   OH240840   2.820   3.843   3.449
13632TIP3    H140841   2.859   3.788   3.381
13632TIP3    H240842   2.778   3.915   3.401
13633TIP3   OH240843   3.485   7.352   5.389
13633TIP3    H140844   3.393   7.340   5.411
13633TIP3    H240845   3.527   7.271   5.418
13634TIP3   OH240846   6.012   6.915   4.068
13634TIP3    H140847   6.085   6.877   4.117
13634TIP3    H240848   5.977   6.984   4.125
13635TIP3   OH240849   8.175   3.986   3.177
13635TIP3    H140850   8.197   4.078   3.165
13635TIP3    H240851   8.254   3.945   3.212
13636TIP3   OH240852   7.866   5.338   3.720
13636TIP3    H140853   7.889   5.430   3.733
13636TIP3    H240854   7.789   5.341   3.663
13637TIP3   OH240855   1.888   1.987   1.873
13637TIP3    H140856   1.914   2.043   1.800
13637TIP3    H240857   1.959   1.995   1.937
13638TIP3   OH240858   3.757   4.813   3.725
13638TIP3    H140859   3.698   4.764   3.668
13638TIP3    H240860   3.738   4.780   3.813
13639TIP3   OH240861   6.335   3.835   6.709
13639TIP3    H140862   6.264   3.840   6.773
13639TIP3    H240863   6.327   3.915   6.658
13640TIP3   OH240864   8.180   0.365   1.026
13640TIP3    H140865   8.258   0.414   1.000
13640TIP3    H240866   8.124   0.366   0.949
13641TIP3   OH240867   7.531   5.206   2.385
13641TIP3    H140868   7.529   5.166   2.298
13641TIP3    H240869   7.609   5.263   2.383
13642TIP3   OH240870   3.645   5.810   5.832
13642TIP3    H140871   3.599   5.764   5.902
13642TIP3    H240872   3.603   5.780   5.751
13643TIP3   OH240873   5.848   2.389   1.526
13643TIP3    H140874   5.872   2.296   1.524
13643TIP3    H240875   5.890   2.423   1.605
13644TIP3   OH240876   6.803   1.491   6.257
13644TIP3    H140877   6.770   1.463   6.171
13644TIP3    H240878   6.895   1.468   6.256
13645TIP3   OH240879   0.331   2.417   2.236
13645TIP3    H140880   0.408   2.382   2.191
13645TIP3    H240881   0.284   2.465   2.168
13646TIP3   OH240882   4.864   1.129   5.097
13646TIP3    H140883   4.892   1.121   5.005
13646TIP3    H240884   4.933   1.085   5.146
13647TIP3   OH240885   3.462   4.972   1.093
13647TIP3    H140886   3.405   4.895   1.089
13647TIP3    H240887   3.521   4.956   1.166
13648TIP3   OH240888   4.000   6.672   3.290
13648TIP3    H140889   3.995   6.584   3.327
13648TIP3    H240890   3.911   6.706   3.297
13649TIP3   OH240891   0.931   0.153   1.368
13649TIP3    H140892   0.890   0.228   1.410
13649TIP3    H240893   0.871   0.128   1.298
13650TIP3   OH240894   1.092   3.667   1.005
13650TIP3    H140895   1.122   3.667   0.914
13650TIP3    H240896   1.124   3.584   1.041
13651TIP3   OH240897   6.605   5.659   1.685
13651TIP3    H140898   6.656   5.740   1.689
13651TIP3    H240899   6.670   5.589   1.682
13652TIP3   OH240900   7.450   2.737   2.764
13652TIP3    H140901   7.408   2.738   2.850
13652TIP3    H240902   7.542   2.720   2.782
13653TIP3   OH240903   2.094   3.691   4.976
13653TIP3    H140904   2.130   3.616   5.023
13653TIP3    H240905   2.052   3.653   4.899
13654TIP3   OH240906   6.452   4.278   3.840
13654TIP3    H140907   6.393   4.306   3.770
13654TIP3    H240908   6.425   4.188   3.859
13655TIP3   OH240909   7.800   6.042   4.065
13655TIP3    H140910   7.895   6.053   4.067
13655TIP3    H240911   7.766   6.114   4.118
13656TIP3   OH240912   7.155   5.869   4.341
13656TIP3    H140913   7.236   5.818   4.343
13656TIP3    H240914   7.110   5.840   4.262
13657TIP3   OH240915   2.987   2.263   0.798
13657TIP3    H140916   2.964   2.177   0.763
13657TIP3    H240917   3.083   2.266   0.793
13658TIP3   OH240918   4.339   1.256   0.140
13658TIP3    H140919   4.339   1.167   0.177
13658TIP3    H240920   4.426   1.267   0.102
13659TIP3   OH240921   4.243   1.039   1.237
13659TIP3    H140922   4.224   1.014   1.328
13659TIP3    H240923   4.204   1.126   1.228
13660TIP3   OH240924   2.577   1.351   0.009
13660TIP3    H140925   2.620   1.431   0.040
13660TIP3    H240926   2.648   1.286   0.005
13661TIP3   OH240927   0.211   4.045   2.230
13661TIP3    H140928   0.302   4.018   2.223
13661TIP3    H240929   0.211   4.137   2.202
13662TIP3   OH240930   7.269   3.854   1.341
13662TIP3    H140931   7.324   3.874   1.265
13662TIP3    H240932   7.331   3.825   1.408
13663TIP3   OH240933   4.344   3.302   5.399
13663TIP3    H140934   4.315   3.391   5.417
13663TIP3    H240935   4.432   3.312   5.363
13664TIP3   OH240936   7.733   5.468   1.389
13664TIP3    H140937   7.682   5.387   1.386
13664TIP3    H240938   7.751   5.488   1.297
13665TIP3   OH240939   7.040   5.071   0.695
13665TIP3    H140940   7.029   5.164   0.717
13665TIP3    H240941   7.118   5.044   0.743
13666TIP3   OH240942   5.961   7.510   6.674
13666TIP3    H140943   5.977   7.416   6.672
13666TIP3    H240944   6.043   7.549   6.643
13667TIP3   OH240945   7.592   5.720   0.430
13667TIP3    H140946   7.590   5.645   0.370
13667TIP3    H240947   7.683   5.723   0.461
13668TIP3   OH240948   1.000   5.978   5.385
13668TIP3    H140949   0.923   5.989   5.440
13668TIP3    H240950   1.074   5.987   5.444
13669TIP3   OH240951   4.205   6.351   4.062
13669TIP3    H140952   4.188   6.435   4.021
13669TIP3    H240953   4.225   6.372   4.153
13670TIP3   OH240954   1.327   6.989   6.595
13670TIP3    H140955   1.420   6.998   6.575
13670TIP3    H240956   1.319   6.900   6.631
13671TIP3   OH240957   2.589   2.163   6.520
13671TIP3    H140958   2.585   2.211   6.602
13671TIP3    H240959   2.677   2.126   6.517
13672TIP3   OH240960   2.292   0.277   2.356
13672TIP3    H140961   2.362   0.243   2.300
13672TIP3    H240962   2.338   0.319   2.429
13673TIP3   OH240963   3.181   0.879   1.313
13673TIP3    H140964   3.086   0.889   1.307
13673TIP3    H240965   3.214   0.968   1.323
13674TIP3   OH240966   6.302   4.148   6.049
13674TIP3    H140967   6.257   4.204   6.112
13674TIP3    H240968   6.390   4.138   6.084
13675TIP3   OH240969   1.634   6.980   6.294
13675TIP3    H140970   1.648   7.019   6.380
13675TIP3    H240971   1.644   7.053   6.232
13676TIP3   OH240972   5.397   2.539   2.594
13676TIP3    H140973   5.320   2.531   2.650
13676TIP3    H240974   5.366   2.515   2.506
13677TIP3   OH240975   2.472   6.718   0.077
13677TIP3    H140976   2.409   6.783   0.047
13677TIP3    H240977   2.422   6.636   0.081
13678TIP3   OH240978   6.196   4.556   5.479
13678TIP3    H140979   6.177   4.488   5.414
13678TIP3    H240980   6.292   4.560   5.482
13679TIP3   OH240981   3.075   7.241   1.222
13679TIP3    H140982   3.038   7.222   1.309
13679TIP3    H240983   2.999   7.257   1.166
13680TIP3   OH240984   3.015   0.035   6.205
13680TIP3    H140985   2.989   0.044   6.296
13680TIP3    H240986   3.062   0.117   6.185
13681TIP3   OH240987   1.001   0.715   0.351
13681TIP3    H140988   1.077   0.660   0.333
13681TIP3    H240989   0.952   0.715   0.269
13682TIP3   OH240990   0.286   6.306   3.834
13682TIP3    H140991   0.285   6.398   3.860
13682TIP3    H240992   0.195   6.278   3.838
13683TIP3   OH240993   1.318   4.832   2.804
13683TIP3    H140994   1.235   4.804   2.766
13683TIP3    H240995   1.294   4.884   2.880
13684TIP3   OH240996   1.366   3.265   2.557
13684TIP3    H140997   1.402   3.274   2.469
13684TIP3    H240998   1.272   3.281   2.547
13685TIP3   OH240999   7.428   0.663   1.987
13685TIP3    H141000   7.422   0.606   2.064
13685TIP3    H241001   7.385   0.744   2.014
13686TIP3   OH241002   7.589   0.993   5.411
13686TIP3    H141003   7.641   1.025   5.337
13686TIP3    H241004   7.586   1.066   5.472
13687TIP3   OH241005   2.692   1.549   2.618
13687TIP3    H141006   2.730   1.476   2.667
13687TIP3    H241007   2.729   1.540   2.530
13688TIP3   OH241008   0.697   6.197   6.158
13688TIP3    H141009   0.680   6.231   6.070
13688TIP3    H241010   0.724   6.106   6.143
13689TIP3   OH241011   4.372   2.135   2.765
13689TIP3    H141012   4.444   2.101   2.818
13689TIP3    H241013   4.411   2.208   2.717
13690TIP3   OH241014   4.475   3.053   5.698
13690TIP3    H141015   4.449   3.014   5.615
13690TIP3    H241016   4.569   3.035   5.705
13691TIP3   OH241017   7.032   5.712   5.998
13691TIP3    H141018   6.968   5.737   6.064
13691TIP3    H241019   6.985   5.719   5.915
13692TIP3   OH241020   1.425   6.323   6.291
13692TIP3    H141021   1.404   6.409   6.255
13692TIP3    H241022   1.498   6.292   6.237
13693TIP3   OH241023   4.951   4.901   6.169
13693TIP3    H141024   4.943   4.871   6.259
13693TIP3    H241025   4.992   4.828   6.122
13694TIP3   OH241026   2.228   1.789   1.590
13694TIP3    H141027   2.220   1.772   1.684
13694TIP3    H241028   2.147   1.754   1.552
13695TIP3   OH241029   2.056   6.510   1.612
13695TIP3    H141030   2.145   6.505   1.648
13695TIP3    H241031   2.012   6.432   1.646
13696TIP3   OH241032   5.352   1.356   5.105
13696TIP3    H141033   5.305   1.396   5.031
13696TIP3    H241034   5.294   1.371   5.180
13697TIP3   OH241035   6.575   4.275   3.404
13697TIP3    H141036   6.568   4.316   3.318
13697TIP3    H241037   6.523   4.195   3.396
13698TIP3   OH241038   5.973   1.634   2.157
13698TIP3    H141039   5.982   1.708   2.096
13698TIP3    H241040   6.059   1.591   2.153
13699TIP3   OH241041   4.401   3.624   2.327
13699TIP3    H141042   4.405   3.650   2.235
13699TIP3    H241043   4.491   3.602   2.350
13700TIP3   OH241044   3.773   7.361   5.802
13700TIP3    H141045   3.859   7.321   5.790
13700TIP3    H241046   3.745   7.385   5.713
13701TIP3   OH241047   8.087   5.986   5.787
13701TIP3    H141048   8.179   5.971   5.764
13701TIP3    H241049   8.038   5.933   5.724
13702TIP3   OH241050   1.394   0.366   5.922
13702TIP3    H141051   1.435   0.279   5.921
13702TIP3    H241052   1.350   0.372   5.838
13703TIP3   OH241053   4.523   2.353   4.325
13703TIP3    H141054   4.547   2.269   4.366
13703TIP3    H241055   4.534   2.417   4.395
13704TIP3   OH241056   4.311   4.655   4.253
13704TIP3    H141057   4.259   4.692   4.183
13704TIP3    H241058   4.256   4.586   4.291
13705TIP3   OH241059   0.412   0.689   3.347
13705TIP3    H141060   0.427   0.736   3.429
13705TIP3    H241061   0.477   0.618   3.349
13706TIP3   OH241062   0.306   6.310   4.479
13706TIP3    H141063   0.252   6.231   4.480
13706TIP3    H241064   0.300   6.344   4.568
13707TIP3   OH241065   8.288   1.827   2.085
13707TIP3    H141066   8.275   1.893   2.017
13707TIP3    H241067   8.302   1.877   2.165
13708TIP3   OH241068   1.792   2.748   4.595
13708TIP3    H141069   1.708   2.720   4.558
13708TIP3    H241070   1.788   2.844   4.593
13709TIP3   OH241071   5.899   0.426   0.060
13709TIP3    H141072   5.864   0.511   0.034
13709TIP3    H241073   5.924   0.437   0.152
13710TIP3   OH241074   7.185   7.567   6.098
13710TIP3    H141075   7.170   7.477   6.127
13710TIP3    H241076   7.151   7.621   6.169
13711TIP3   OH241077   8.008   0.894   4.038
13711TIP3    H141078   8.061   0.961   3.995
13711TIP3    H241079   7.937   0.944   4.081
13712TIP3   OH241080   7.790   5.983   6.167
13712TIP3    H141081   7.810   5.929   6.090
13712TIP3    H241082   7.867   5.973   6.223
13713TIP3   OH241083   7.555   7.660   1.285
13713TIP3    H141084   7.637   7.707   1.274
13713TIP3    H241085   7.514   7.664   1.198
13714TIP3   OH241086   5.912   2.429   5.221
13714TIP3    H141087   5.967   2.374   5.165
13714TIP3    H241088   5.941   2.518   5.203
13715TIP3   OH241089   5.706   1.621   0.127
13715TIP3    H141090   5.634   1.586   0.180
13715TIP3    H241091   5.736   1.697   0.176
13716TIP3   OH241092   6.099   6.581   4.152
13716TIP3    H141093   6.149   6.506   4.185
13716TIP3    H241094   6.157   6.656   4.164
13717TIP3   OH241095   1.183   5.110   4.594
13717TIP3    H141096   1.205   5.196   4.629
13717TIP3    H241097   1.155   5.060   4.671
13718TIP3   OH241098   3.312   1.598   1.087
13718TIP3    H141099   3.257   1.643   1.151
13718TIP3    H241100   3.368   1.541   1.140
13719TIP3   OH241101   6.950   4.403   5.511
13719TIP3    H141102   6.918   4.319   5.545
13719TIP3    H241103   7.005   4.438   5.581
13720TIP3   OH241104   3.896   7.244   5.120
13720TIP3    H141105   3.902   7.208   5.209
13720TIP3    H241106   3.816   7.207   5.084
13721TIP3   OH241107   2.246   2.529   3.684
13721TIP3    H141108   2.173   2.501   3.739
13721TIP3    H241109   2.223   2.498   3.596
13722TIP3   OH241110   1.135   1.374   1.726
13722TIP3    H141111   1.136   1.379   1.630
13722TIP3    H241112   1.042   1.367   1.748
13723TIP3   OH241113   2.740   3.704   0.252
13723TIP3    H141114   2.750   3.684   0.345
13723TIP3    H241115   2.756   3.799   0.246
13724TIP3   OH241116   1.992   4.731   2.314
13724TIP3    H141117   2.017   4.709   2.404
13724TIP3    H241118   1.945   4.814   2.322
13725TIP3   OH241119   4.140   0.259   3.520
13725TIP3    H141120   4.183   0.318   3.581
13725TIP3    H241121   4.205   0.191   3.502
13726TIP3   OH241122   1.561   4.064   6.412
13726TIP3    H141123   1.623   4.003   6.372
13726TIP3    H241124   1.497   4.008   6.455
13727TIP3   OH241125   4.368   1.382   3.848
13727TIP3    H141126   4.424   1.321   3.897
13727TIP3    H241127   4.279   1.351   3.865
13728TIP3   OH241128   2.121   1.397   6.250
13728TIP3    H141129   2.210   1.377   6.278
13728TIP3    H241130   2.094   1.471   6.305
13729TIP3   OH241131   2.658   7.073   0.803
13729TIP3    H141132   2.650   7.168   0.808
13729TIP3    H241133   2.570   7.043   0.780
13730TIP3   OH241134   7.713   4.246   3.056
13730TIP3    H141135   7.642   4.272   3.115
13730TIP3    H241136   7.779   4.314   3.068
13731TIP3   OH241137   6.685   1.273   6.690
13731TIP3    H141138   6.756   1.329   6.660
13731TIP3    H241139   6.729   1.204   6.741
13732TIP3   OH241140   0.823   2.768   3.482
13732TIP3    H141141   0.751   2.828   3.462
13732TIP3    H241142   0.799   2.728   3.566
13733TIP3   OH241143   8.272   1.631   6.510
13733TIP3    H141144   8.331   1.650   6.437
13733TIP3    H241145   8.286   1.703   6.571
13734TIP3   OH241146   5.086   2.447   3.228
13734TIP3    H141147   5.004   2.413   3.264
13734TIP3    H241148   5.154   2.401   3.277
13735TIP3   OH241149   1.086   5.290   3.873
13735TIP3    H141150   1.103   5.381   3.850
13735TIP3    H241151   0.993   5.278   3.854
13736TIP3   OH241152   3.363   0.987   6.299
13736TIP3    H141153   3.432   1.014   6.360
13736TIP3    H241154   3.338   0.900   6.328
13737TIP3   OH241155   1.372   2.315   6.728
13737TIP3    H141156   1.365   2.325   6.633
13737TIP3    H241157   1.466   2.307   6.745
13738TIP3   OH241158   2.027   5.506   5.337
13738TIP3    H141159   2.101   5.567   5.339
13738TIP3    H241160   1.979   5.528   5.257
13739TIP3   OH241161   2.576   2.396   6.723
13739TIP3    H141162   2.627   2.360   6.795
13739TIP3    H241163   2.632   2.464   6.685
13740TIP3   OH241164   4.567   0.991   1.681
13740TIP3    H141165   4.542   1.083   1.681
13740TIP3    H241166   4.661   0.991   1.663
13741TIP3   OH241167   1.161   1.911   2.325
13741TIP3    H141168   1.211   1.905   2.407
13741TIP3    H241169   1.156   2.005   2.307
13742TIP3   OH241170   0.886   3.787   4.979
13742TIP3    H141171   0.941   3.729   4.926
13742TIP3    H241172   0.883   3.745   5.065
13743TIP3   OH241173   5.626   3.202   2.785
13743TIP3    H141174   5.658   3.183   2.873
13743TIP3    H241175   5.698   3.248   2.743
13744TIP3   OH241176   4.041   6.689   6.113
13744TIP3    H141177   4.106   6.697   6.043
13744TIP3    H241178   4.016   6.596   6.111
13745TIP3   OH241179   4.234   7.081   5.382
13745TIP3    H141180   4.221   6.989   5.357
13745TIP3    H241181   4.275   7.121   5.305
13746TIP3   OH241182   2.894   7.437   3.199
13746TIP3    H141183   2.945   7.447   3.279
13746TIP3    H241184   2.846   7.356   3.211
13747TIP3   OH241185   5.377   3.988   5.323
13747TIP3    H141186   5.433   4.051   5.369
13747TIP3    H241187   5.315   3.959   5.390
13748TIP3   OH241188   5.823   0.197   2.596
13748TIP3    H141189   5.881   0.120   2.600
13748TIP3    H241190   5.872   0.266   2.640
13749TIP3   OH241191   1.141   6.665   0.250
13749TIP3    H141192   1.079   6.617   0.304
13749TIP3    H241193   1.191   6.718   0.313
13750TIP3   OH241194   6.553   4.649   5.164
13750TIP3    H141195   6.539   4.554   5.160
13750TIP3    H241196   6.549   4.670   5.257
13751TIP3   OH241197   2.326   1.369   5.942
13751TIP3    H141198   2.283   1.286   5.959
13751TIP3    H241199   2.264   1.436   5.971
13752TIP3   OH241200   2.902   1.974   1.465
13752TIP3    H141201   2.867   1.894   1.504
13752TIP3    H241202   2.831   2.038   1.471
13753TIP3   OH241203   3.479   1.658   6.133
13753TIP3    H141204   3.403   1.600   6.143
13753TIP3    H241205   3.443   1.746   6.138
13754TIP3   OH241206   6.299   7.583   0.900
13754TIP3    H141207   6.240   7.625   0.963
13754TIP3    H241208   6.387   7.610   0.928
13755TIP3   OH241209   0.592   6.190   0.736
13755TIP3    H141210   0.573   6.230   0.821
13755TIP3    H241211   0.672   6.234   0.706
13756TIP3   OH241212   8.188   1.356   4.772
13756TIP3    H141213   8.122   1.326   4.709
13756TIP3    H241214   8.251   1.406   4.719
13757TIP3   OH241215   1.885   6.902   1.459
13757TIP3    H141216   1.900   6.808   1.448
13757TIP3    H241217   1.965   6.934   1.499
13758TIP3   OH241218   4.590   0.067   2.271
13758TIP3    H141219   4.592   0.016   2.190
13758TIP3    H241220   4.643   0.144   2.253
13759TIP3   OH241221   3.023   2.179   2.349
13759TIP3    H141222   3.051   2.145   2.264
13759TIP3    H241223   3.104   2.192   2.398
13760TIP3   OH241224   4.091   7.582   0.709
13760TIP3    H141225   4.059   7.603   0.621
13760TIP3    H241226   4.061   7.493   0.725
13761TIP3   OH241227   8.059   4.577   6.599
13761TIP3    H141228   7.983   4.588   6.543
13761TIP3    H241229   8.104   4.662   6.595
13762TIP3   OH241230   5.798   6.555   0.536
13762TIP3    H141231   5.760   6.641   0.519
13762TIP3    H241232   5.724   6.499   0.557
13763TIP3   OH241233   4.686   2.930   5.429
13763TIP3    H141234   4.709   2.931   5.522
13763TIP3    H241235   4.600   2.972   5.425
13764TIP3   OH241236   6.340   0.847   1.395
13764TIP3    H141237   6.300   0.907   1.457
13764TIP3    H241238   6.309   0.761   1.420
13765TIP3   OH241239   3.282   5.889   2.393
13765TIP3    H141240   3.202   5.938   2.376
13765TIP3    H241241   3.252   5.802   2.422
13766TIP3   OH241242   4.553   1.214   3.650
13766TIP3    H141243   4.548   1.280   3.720
13766TIP3    H241244   4.502   1.141   3.683
13767TIP3   OH241245   1.833   2.568   4.361
13767TIP3    H141246   1.742   2.596   4.350
13767TIP3    H241247   1.871   2.635   4.419
13768TIP3   OH241248   4.453   2.606   5.861
13768TIP3    H141249   4.408   2.688   5.843
13768TIP3    H241250   4.524   2.603   5.797
13769TIP3   OH241251   3.633   3.817   2.985
13769TIP3    H141252   3.717   3.771   2.990
13769TIP3    H241253   3.569   3.755   3.018
13770TIP3   OH241254   5.509   0.997   3.451
13770TIP3    H141255   5.437   1.058   3.436
13770TIP3    H241256   5.465   0.915   3.475
13771TIP3   OH241257   6.684   4.208   4.414
13771TIP3    H141258   6.730   4.292   4.420
13771TIP3    H241259   6.748   4.148   4.377
13772TIP3   OH241260   4.746   3.265   4.293
13772TIP3    H141261   4.729   3.202   4.363
13772TIP3    H241262   4.683   3.335   4.307
13773TIP3   OH241263   0.138   6.742   3.645
13773TIP3    H141264   0.175   6.677   3.705
13773TIP3    H241265   0.046   6.717   3.636
13774TIP3   OH241266   0.765   5.958   3.968
13774TIP3    H141267   0.856   5.990   3.965
13774TIP3    H241268   0.729   5.980   3.882
13775TIP3   OH241269   2.993   0.790   3.172
13775TIP3    H141270   2.969   0.817   3.083
13775TIP3    H241271   2.923   0.731   3.199
13776TIP3   OH241272   1.469   2.831   4.003
13776TIP3    H141273   1.443   2.883   4.079
13776TIP3    H241274   1.422   2.872   3.930
13777TIP3   OH241275   2.671   5.935   2.347
13777TIP3    H141276   2.687   5.952   2.439
13777TIP3    H241277   2.596   5.875   2.346
13778TIP3   OH241278   4.290   3.035   0.002
13778TIP3    H141279   4.363   3.095   0.011
13778TIP3    H241280   4.257   3.025   0.092
13779TIP3   OH241281   0.701   1.828   5.026
13779TIP3    H141282   0.704   1.732   5.020
13779TIP3    H241283   0.614   1.847   5.059
13780TIP3   OH241284   4.541   3.495   1.414
13780TIP3    H141285   4.491   3.500   1.332
13780TIP3    H241286   4.572   3.585   1.428
13781TIP3   OH241287   0.959   2.879   1.956
13781TIP3    H141288   0.887   2.916   2.008
13781TIP3    H241289   1.021   2.847   2.021
13782TIP3   OH241290   8.226   5.015   5.481
13782TIP3    H141291   8.296   4.993   5.542
13782TIP3    H241292   8.194   5.100   5.511
13783TIP3   OH241293   3.668   2.651   1.072
13783TIP3    H141294   3.651   2.573   1.125
13783TIP3    H241295   3.600   2.713   1.099
13784TIP3   OH241296   3.698   2.805   0.775
13784TIP3    H141297   3.777   2.772   0.732
13784TIP3    H241298   3.652   2.726   0.805
13785TIP3   OH241299   6.591   2.930   4.786
13785TIP3    H141300   6.649   2.985   4.734
13785TIP3    H241301   6.645   2.897   4.857
13786TIP3   OH241302   1.736   1.978   2.335
13786TIP3    H141303   1.753   1.886   2.315
13786TIP3    H241304   1.664   2.002   2.277
13787TIP3   OH241305   0.424   1.560   3.591
13787TIP3    H141306   0.329   1.549   3.600
13787TIP3    H241307   0.441   1.647   3.628
13788TIP3   OH241308   3.831   2.098   4.565
13788TIP3    H141309   3.861   2.164   4.628
13788TIP3    H241310   3.755   2.138   4.523
13789TIP3   OH241311   2.260   5.552   6.298
13789TIP3    H141312   2.173   5.536   6.262
13789TIP3    H241313   2.288   5.635   6.259
13790TIP3   OH241314   0.310   0.875   2.595
13790TIP3    H141315   0.316   0.793   2.545
13790TIP3    H241316   0.217   0.896   2.597
13791TIP3   OH241317   4.833   5.801   6.738
13791TIP3    H141318   4.797   5.769   6.655
13791TIP3    H241319   4.901   5.863   6.712
13792TIP3   OH241320   0.320   7.767   3.687
13792TIP3    H141321   0.268   7.687   3.680
13792TIP3    H241322   0.409   7.741   3.665
13793TIP3   OH241323   4.870   4.672   6.412
13793TIP3    H141324   4.794   4.727   6.429
13793TIP3    H241325   4.848   4.587   6.452
13794TIP3   OH241326   7.474   4.685   3.516
13794TIP3    H141327   7.456   4.722   3.602
13794TIP3    H241328   7.440   4.750   3.454
13795TIP3   OH241329   0.861   5.642  -0.007
13795TIP3    H141330   0.798   5.660   0.063
13795TIP3    H241331   0.942   5.685   0.022
13796TIP3   OH241332   2.242   5.478   5.723
13796TIP3    H141333   2.164   5.424   5.714
13796TIP3    H241334   2.299   5.450   5.651
13797TIP3   OH241335   1.575   3.991   2.199
13797TIP3    H141336   1.481   4.007   2.205
13797TIP3    H241337   1.608   4.061   2.143
13798TIP3   OH241338   6.145   0.918   3.233
13798TIP3    H141339   6.086   0.846   3.210
13798TIP3    H241340   6.101   0.996   3.199
13799TIP3   OH241341   1.294   6.815   2.437
13799TIP3    H141342   1.350   6.781   2.507
13799TIP3    H241343   1.253   6.893   2.474
13800TIP3   OH241344   5.400   2.929   3.552
13800TIP3    H141345   5.319   2.953   3.597
13800TIP3    H241346   5.443   3.012   3.535
13801TIP3   OH241347   1.483   6.147   1.616
13801TIP3    H141348   1.476   6.116   1.707
13801TIP3    H241349   1.398   6.186   1.597
13802TIP3   OH241350   4.300   5.412   6.599
13802TIP3    H141351   4.230   5.348   6.613
13802TIP3    H241352   4.265   5.493   6.638
13803TIP3   OH241353   2.063   4.841   1.310
13803TIP3    H141354   2.045   4.757   1.351
13803TIP3    H241355   2.090   4.898   1.382
13804TIP3   OH241356   1.020   5.973   2.932
13804TIP3    H141357   1.075   5.918   2.877
13804TIP3    H241358   0.960   5.911   2.974
13805TIP3   OH241359   0.270   2.548   0.590
13805TIP3    H141360   0.335   2.609   0.556
13805TIP3    H241361   0.186   2.591   0.575
13806TIP3   OH241362   6.374   1.770   3.075
13806TIP3    H141363   6.345   1.700   3.017
13806TIP3    H241364   6.408   1.837   3.016
13807TIP3   OH241365   7.478   6.756   6.012
13807TIP3    H141366   7.472   6.806   5.930
13807TIP3    H241367   7.489   6.665   5.984
13808TIP3   OH241368   3.273   2.274   0.434
13808TIP3    H141369   3.324   2.308   0.508
13808TIP3    H241370   3.222   2.349   0.403
13809TIP3   OH241371   7.375   0.897   5.206
13809TIP3    H141372   7.431   0.862   5.275
13809TIP3    H241373   7.323   0.965   5.249
13810TIP3   OH241374   0.973   5.940   1.294
13810TIP3    H141375   1.028   5.939   1.372
13810TIP3    H241376   0.905   5.876   1.311
13811TIP3   OH241377   8.233   2.777   4.953
13811TIP3    H141378   8.231   2.852   4.894
13811TIP3    H241379   8.143   2.746   4.956
13812TIP3   OH241380   0.870   4.628   3.697
13812TIP3    H141381   0.820   4.638   3.778
13812TIP3    H241382   0.961   4.621   3.726
13813TIP3   OH241383   3.650   7.844   4.022
13813TIP3    H141384   3.577   7.846   3.961
13813TIP3    H241385   3.704   7.770   3.994
13814TIP3   OH241386   5.886   0.898   3.445
13814TIP3    H141387   5.891   0.971   3.383
13814TIP3    H241388   5.916   0.934   3.528
13815TIP3   OH241389   6.261   4.529   2.875
13815TIP3    H141390   6.346   4.488   2.858
13815TIP3    H241391   6.277   4.588   2.949
13816TIP3   OH241392   4.489   5.477   4.949
13816TIP3    H141393   4.394   5.472   4.945
13816TIP3    H241394   4.519   5.409   4.888
13817TIP3   OH241395   3.097   0.161   3.126
13817TIP3    H141396   3.139   0.164   3.040
13817TIP3    H241397   3.113   0.072   3.157
13818TIP3   OH241398   7.701   3.147   0.702
13818TIP3    H141399   7.736   3.058   0.695
13818TIP3    H241400   7.638   3.153   0.630
13819TIP3   OH241401   3.358   4.407   3.425
13819TIP3    H141402   3.450   4.431   3.413
13819TIP3    H241403   3.329   4.381   3.337
13820TIP3   OH241404   1.535   5.668   3.025
13820TIP3    H141405   1.555   5.612   3.100
13820TIP3    H241406   1.467   5.620   2.977
13821TIP3   OH241407   3.215   7.799   5.225
13821TIP3    H141408   3.283   7.764   5.283
13821TIP3    H241409   3.233   7.757   5.141
13822TIP3   OH241410   7.303   4.853   2.490
13822TIP3    H141411   7.352   4.869   2.409
13822TIP3    H241412   7.370   4.836   2.556
13823TIP3   OH241413   1.392   5.771   4.157
13823TIP3    H141414   1.440   5.704   4.109
13823TIP3    H241415   1.391   5.847   4.100
13824TIP3   OH241416   4.438   0.429   2.864
13824TIP3    H141417   4.408   0.469   2.945
13824TIP3    H241418   4.406   0.339   2.868
13825TIP3   OH241419   4.013   3.097   1.047
13825TIP3    H141420   4.099   3.137   1.045
13825TIP3    H241421   4.017   3.033   1.119
13826TIP3   OH241422   3.214   3.298   4.951
13826TIP3    H141423   3.292   3.255   4.917
13826TIP3    H241424   3.169   3.331   4.873
13827TIP3   OH241425   0.219   1.385   0.528
13827TIP3    H141426   0.125   1.368   0.524
13827TIP3    H241427   0.228   1.477   0.501
13828TIP3   OH241428   5.138   6.995   4.910
13828TIP3    H141429   5.089   6.954   4.839
13828TIP3    H241430   5.113   7.087   4.906
13829TIP3   OH241431   7.118   6.678   1.218
13829TIP3    H141432   7.112   6.712   1.128
13829TIP3    H241433   7.210   6.657   1.230
13830TIP3   OH241434   5.914   7.686   2.550
13830TIP3    H141435   5.968   7.644   2.483
13830TIP3    H241436   5.851   7.739   2.502
13831TIP3   OH241437   0.667   4.255   5.723
13831TIP3    H141438   0.638   4.256   5.632
13831TIP3    H241439   0.753   4.296   5.721
13832TIP3   OH241440   2.986   3.150   2.929
13832TIP3    H141441   2.953   3.175   2.843
13832TIP3    H241442   2.976   3.054   2.931
13833TIP3   OH241443   7.067   0.125   3.059
13833TIP3    H141444   7.121   0.204   3.061
13833TIP3    H241445   7.026   0.122   3.145
13834TIP3   OH241446   3.564   1.900   6.400
13834TIP3    H141447   3.565   1.992   6.428
13834TIP3    H241448   3.493   1.895   6.337
13835TIP3   OH241449   3.666   4.808   6.140
13835TIP3    H141450   3.750   4.770   6.166
13835TIP3    H241451   3.602   4.741   6.161
13836TIP3   OH241452   3.790   7.390   6.424
13836TIP3    H141453   3.758   7.300   6.421
13836TIP3    H241454   3.711   7.443   6.414
13837TIP3   OH241455   6.769   5.333   4.934
13837TIP3    H141456   6.705   5.381   4.987
13837TIP3    H241457   6.821   5.401   4.891
13838TIP3   OH241458   1.832   0.336   5.949
13838TIP3    H141459   1.855   0.334   6.042
13838TIP3    H241460   1.822   0.244   5.924
13839TIP3   OH241461   7.447   7.254   5.987
13839TIP3    H141462   7.495   7.325   6.031
13839TIP3    H241463   7.472   7.175   6.034
13840TIP3   OH241464   1.508   0.214   6.436
13840TIP3    H141465   1.425   0.223   6.482
13840TIP3    H241466   1.531   0.121   6.446
13841TIP3   OH241467   7.396   4.064   4.603
13841TIP3    H141468   7.345   4.027   4.530
13841TIP3    H241469   7.331   4.083   4.670
13842TIP3   OH241470   3.376   6.428   5.453
13842TIP3    H141471   3.318   6.503   5.463
13842TIP3    H241472   3.320   6.358   5.422
13843TIP3   OH241473   1.206   2.296   4.668
13843TIP3    H141474   1.268   2.311   4.596
13843TIP3    H241475   1.162   2.380   4.680
13844TIP3   OH241476   6.261   4.071   6.588
13844TIP3    H141477   6.197   4.132   6.625
13844TIP3    H241478   6.322   4.126   6.540
13845TIP3   OH241479   5.083   5.095   5.518
13845TIP3    H141480   5.163   5.101   5.465
13845TIP3    H241481   5.053   5.186   5.526
13846TIP3   OH241482   7.840   6.628   5.115
13846TIP3    H141483   7.843   6.682   5.194
13846TIP3    H241484   7.927   6.639   5.075
13847TIP3   OH241485   2.845   1.849   3.632
13847TIP3    H141486   2.823   1.915   3.566
13847TIP3    H241487   2.782   1.865   3.703
13848TIP3   OH241488   7.977   1.959   3.958
13848TIP3    H141489   8.044   1.969   4.026
13848TIP3    H241490   7.894   1.961   4.005
13849TIP3   OH241491   8.114   5.275   0.555
13849TIP3    H141492   8.038   5.223   0.582
13849TIP3    H241493   8.113   5.351   0.613
13850TIP3   OH241494   4.840   3.167   0.207
13850TIP3    H141495   4.792   3.100   0.255
13850TIP3    H241496   4.772   3.222   0.169
13851TIP3   OH241497   1.927   7.315   6.409
13851TIP3    H141498   1.968   7.235   6.442
13851TIP3    H241499   1.845   7.322   6.458
13852TIP3   OH241500   6.256   7.207   2.068
13852TIP3    H141501   6.307   7.271   2.018
13852TIP3    H241502   6.200   7.261   2.125
13853TIP3   OH241503   6.164   2.219   0.317
13853TIP3    H141504   6.218   2.200   0.240
13853TIP3    H241505   6.084   2.258   0.280
13854TIP3   OH241506   6.842   0.572   5.884
13854TIP3    H141507   6.829   0.478   5.879
13854TIP3    H241508   6.841   0.592   5.978
13855TIP3   OH241509   5.167   3.069   5.355
13855TIP3    H141510   5.084   3.110   5.378
13855TIP3    H241511   5.144   3.004   5.289
13856TIP3   OH241512   2.169   5.985   3.726
13856TIP3    H141513   2.183   5.955   3.637
13856TIP3    H241514   2.250   5.961   3.772
13857TIP3   OH241515   4.337   6.309   3.033
13857TIP3    H141516   4.295   6.291   3.117
13857TIP3    H241517   4.374   6.396   3.042
13858TIP3   OH241518   2.002   2.481   5.592
13858TIP3    H141519   2.095   2.478   5.617
13858TIP3    H241520   1.988   2.571   5.562
13859TIP3   OH241521   2.997   5.723   6.068
13859TIP3    H141522   2.931   5.677   6.016
13859TIP3    H241523   2.964   5.812   6.076
13860TIP3   OH241524   6.083   4.287   2.244
13860TIP3    H141525   6.161   4.251   2.201
13860TIP3    H241526   6.012   4.272   2.180
13861TIP3   OH241527   6.165   6.309   3.840
13861TIP3    H141528   6.231   6.286   3.904
13861TIP3    H241529   6.213   6.355   3.771
13862TIP3   OH241530   2.631   0.623   3.983
13862TIP3    H141531   2.692   0.559   3.947
13862TIP3    H241532   2.676   0.707   3.973
13863TIP3   OH241533   5.069   4.379   4.384
13863TIP3    H141534   5.143   4.346   4.434
13863TIP3    H241535   5.036   4.453   4.435
13864TIP3   OH241536   8.022   7.665   5.299
13864TIP3    H141537   8.092   7.725   5.275
13864TIP3    H241538   7.943   7.719   5.301
13865TIP3   OH241539   8.130   7.805   1.018
13865TIP3    H141540   8.201   7.823   1.080
13865TIP3    H241541   8.112   7.711   1.029
13866TIP3   OH241542   5.991   6.371   3.522
13866TIP3    H141543   5.909   6.348   3.479
13866TIP3    H241544   6.042   6.289   3.523
13867TIP3   OH241545   0.043   6.708   0.447
13867TIP3    H141546   0.042   6.747   0.534
13867TIP3    H241547   0.128   6.665   0.441
13868TIP3   OH241548   1.786   6.752   2.207
13868TIP3    H141549   1.726   6.724   2.138
13868TIP3    H241550   1.867   6.705   2.189
13869TIP3   OH241551   2.784   1.411   6.383
13869TIP3    H141552   2.736   1.403   6.466
13869TIP3    H241553   2.745   1.487   6.340
13870TIP3   OH241554   3.635   5.508   3.675
13870TIP3    H141555   3.668   5.425   3.642
13870TIP3    H241556   3.609   5.557   3.597
13871TIP3   OH241557   4.074   5.187   1.370
13871TIP3    H141558   4.010   5.131   1.413
13871TIP3    H241559   4.111   5.240   1.440
13872TIP3   OH241560   5.047   1.458   3.255
13872TIP3    H141561   5.007   1.371   3.255
13872TIP3    H241562   5.038   1.487   3.346
13873TIP3   OH241563   6.265   1.835   0.491
13873TIP3    H141564   6.181   1.881   0.489
13873TIP3    H241565   6.323   1.890   0.438
13874TIP3   OH241566   5.052   2.602   0.496
13874TIP3    H141567   5.118   2.534   0.479
13874TIP3    H241568   5.007   2.572   0.575
13875TIP3   OH241569   3.573   0.639   1.777
13875TIP3    H141570   3.609   0.695   1.708
13875TIP3    H241571   3.646   0.586   1.807
13876TIP3   OH241572   5.044   3.173   6.179
13876TIP3    H141573   5.072   3.150   6.090
13876TIP3    H241574   4.953   3.144   6.184
13877TIP3   OH241575   6.515   7.446   3.501
13877TIP3    H141576   6.610   7.447   3.487
13877TIP3    H241577   6.505   7.442   3.596
13878TIP3   OH241578   7.833   7.015   1.087
13878TIP3    H141579   7.777   7.093   1.081
13878TIP3    H241580   7.778   6.945   1.053
13879TIP3   OH241581   4.897   5.305   4.209
13879TIP3    H141582   4.869   5.310   4.300
13879TIP3    H241583   4.878   5.215   4.182
13880TIP3   OH241584   1.992   7.287   0.734
13880TIP3    H141585   1.939   7.353   0.777
13880TIP3    H241586   1.969   7.205   0.778
13881TIP3   OH241587   7.285   4.715   0.733
13881TIP3    H141588   7.357   4.653   0.739
13881TIP3    H241589   7.324   4.795   0.699
13882TIP3   OH241590   6.192   3.250   1.861
13882TIP3    H141591   6.173   3.159   1.886
13882TIP3    H241592   6.123   3.301   1.904
13883TIP3   OH241593   0.150   3.062   3.985
13883TIP3    H141594   0.074   3.045   4.040
13883TIP3    H241595   0.121   3.130   3.924
13884TIP3   OH241596   0.317   4.713   5.740
13884TIP3    H141597   0.267   4.635   5.764
13884TIP3    H241598   0.337   4.700   5.647
13885TIP3   OH241599   7.936   3.399   2.111
13885TIP3    H141600   7.999   3.407   2.183
13885TIP3    H241601   7.934   3.305   2.092
13886TIP3   OH241602   5.411   0.444   4.667
13886TIP3    H141603   5.469   0.368   4.664
13886TIP3    H241604   5.324   0.406   4.683
13887TIP3   OH241605   4.299   5.850   0.668
13887TIP3    H141606   4.292   5.797   0.588
13887TIP3    H241607   4.389   5.882   0.668
13888TIP3   OH241608   5.852   5.374   5.407
13888TIP3    H141609   5.834   5.462   5.375
13888TIP3    H241610   5.947   5.369   5.415
13889TIP3   OH241611   4.616   5.516   4.568
13889TIP3    H141612   4.531   5.484   4.537
13889TIP3    H241613   4.595   5.582   4.633
13890TIP3   OH241614   3.009   3.658   5.817
13890TIP3    H141615   3.063   3.673   5.740
13890TIP3    H241616   2.961   3.578   5.798
13891TIP3   OH241617   7.153   4.347   3.281
13891TIP3    H141618   7.084   4.367   3.343
13891TIP3    H241619   7.209   4.425   3.281
13892TIP3   OH241620   3.146   1.807   1.202
13892TIP3    H141621   3.122   1.790   1.294
13892TIP3    H241622   3.192   1.891   1.205
13893TIP3   OH241623   1.807   3.118   4.864
13893TIP3    H141624   1.773   3.176   4.932
13893TIP3    H241625   1.897   3.148   4.850
13894TIP3   OH241626   0.911   6.563   5.044
13894TIP3    H141627   0.961   6.522   4.974
13894TIP3    H241628   0.832   6.510   5.052
13895TIP3   OH241629   1.557   3.234   2.722
13895TIP3    H141630   1.487   3.248   2.658
13895TIP3    H241631   1.564   3.317   2.768
13896TIP3   OH241632   3.382   6.042   5.594
13896TIP3    H141633   3.378   5.970   5.532
13896TIP3    H241634   3.391   6.000   5.679
13897TIP3   OH241635   3.145   3.361   5.574
13897TIP3    H141636   3.079   3.297   5.601
13897TIP3    H241637   3.103   3.410   5.503
13898TIP3   OH241638   4.375   2.753   6.239
13898TIP3    H141639   4.449   2.705   6.278
13898TIP3    H241640   4.416   2.815   6.178
13899TIP3   OH241641   3.211   3.352   2.707
13899TIP3    H141642   3.230   3.440   2.674
13899TIP3    H241643   3.203   3.364   2.802
13900TIP3   OH241644   0.167   4.514   6.631
13900TIP3    H141645   0.191   4.589   6.576
13900TIP3    H241646   0.189   4.542   6.720
13901TIP3   OH241647   3.453   5.306   5.483
13901TIP3    H141648   3.488   5.230   5.436
13901TIP3    H241649   3.443   5.276   5.573
13902TIP3   OH241650   1.080   4.890   1.966
13902TIP3    H141651   1.065   4.798   1.989
13902TIP3    H241652   1.044   4.939   2.040
13903TIP3   OH241653   3.400   0.578   5.453
13903TIP3    H141654   3.421   0.659   5.407
13903TIP3    H241655   3.480   0.525   5.448
13904TIP3   OH241656   6.172   5.707   5.263
13904TIP3    H141657   6.210   5.633   5.215
13904TIP3    H241658   6.115   5.750   5.199
13905TIP3   OH241659   0.520   7.518   3.814
13905TIP3    H141660   0.432   7.539   3.784
13905TIP3    H241661   0.511   7.506   3.909
13906TIP3   OH241662   4.434   0.232   0.972
13906TIP3    H141663   4.442   0.140   0.946
13906TIP3    H241664   4.348   0.238   1.013
13907TIP3   OH241665   1.125   7.290   3.500
13907TIP3    H141666   1.106   7.358   3.564
13907TIP3    H241667   1.163   7.219   3.551
13908TIP3   OH241668   1.566   0.371   2.521
13908TIP3    H141669   1.649   0.376   2.474
13908TIP3    H241670   1.561   0.453   2.570
13909TIP3   OH241671   2.394   5.448   2.132
13909TIP3    H141672   2.316   5.502   2.120
13909TIP3    H241673   2.377   5.399   2.212
13910TIP3   OH241674   7.081   5.943   3.072
13910TIP3    H141675   6.996   5.988   3.064
13910TIP3    H241676   7.120   5.981   3.151
13911TIP3   OH241677   3.313   0.836   3.841
13911TIP3    H141678   3.292   0.904   3.904
13911TIP3    H241679   3.272   0.865   3.760
13912TIP3   OH241680   2.467   2.198   2.967
13912TIP3    H141681   2.412   2.120   2.965
13912TIP3    H241682   2.556   2.165   2.977
13913TIP3   OH241683   0.487   1.818   6.263
13913TIP3    H141684   0.464   1.796   6.173
13913TIP3    H241685   0.419   1.777   6.317
13914TIP3   OH241686   4.829   0.757   5.299
13914TIP3    H141687   4.899   0.823   5.305
13914TIP3    H241688   4.875   0.675   5.279
13915TIP3   OH241689   6.434   7.094   3.999
13915TIP3    H141690   6.427   7.005   3.965
13915TIP3    H241691   6.343   7.123   4.008
13916TIP3   OH241692   2.955   2.625   6.493
13916TIP3    H141693   2.975   2.540   6.451
13916TIP3    H241694   2.860   2.624   6.504
13917TIP3   OH241695   1.819   1.064   6.776
13917TIP3    H141696   1.845   1.034   6.689
13917TIP3    H241697   1.796   0.984   6.824
13918TIP3   OH241698   8.094   5.291   0.986
13918TIP3    H141699   8.038   5.255   1.054
13918TIP3    H241700   8.141   5.215   0.951
13919TIP3   OH241701   2.995   2.561   3.457
13919TIP3    H141702   2.999   2.600   3.369
13919TIP3    H241703   2.901   2.546   3.471
13920TIP3   OH241704   8.120   2.722   1.198
13920TIP3    H141705   8.149   2.670   1.273
13920TIP3    H241706   8.087   2.656   1.136
13921TIP3   OH241707   1.752   4.039   1.960
13921TIP3    H141708   1.807   4.063   1.886
13921TIP3    H241709   1.749   3.943   1.959
13922TIP3   OH241710   3.569   6.861   3.755
13922TIP3    H141711   3.516   6.792   3.716
13922TIP3    H241712   3.641   6.816   3.797
13923TIP3   OH241713   0.622   0.382   4.901
13923TIP3    H141714   0.555   0.444   4.931
13923TIP3    H241715   0.574   0.300   4.886
13924TIP3   OH241716   1.276   1.010   2.885
13924TIP3    H141717   1.232   1.041   2.806
13924TIP3    H241718   1.259   1.078   2.950
13925TIP3   OH241719   1.749   7.791   6.426
13925TIP3    H141720   1.717   7.707   6.391
13925TIP3    H241721   1.804   7.766   6.500
13926TIP3   OH241722   2.145   6.932   0.623
13926TIP3    H141723   2.068   6.889   0.587
13926TIP3    H241724   2.181   6.981   0.549
13927TIP3   OH241725   1.416   7.259   4.380
13927TIP3    H141726   1.475   7.310   4.436
13927TIP3    H241727   1.400   7.179   4.429
13928TIP3   OH241728   4.244   4.135   0.206
13928TIP3    H141729   4.193   4.215   0.221
13928TIP3    H241730   4.182   4.064   0.223
13929TIP3   OH241731   7.716   6.918   2.256
13929TIP3    H141732   7.780   6.849   2.274
13929TIP3    H241733   7.650   6.908   2.325
13930TIP3   OH241734   0.285   6.494   3.289
13930TIP3    H141735   0.257   6.499   3.380
13930TIP3    H241736   0.368   6.543   3.287
13931TIP3   OH241737   3.829   1.400   3.947
13931TIP3    H141738   3.784   1.409   3.863
13931TIP3    H241739   3.771   1.343   3.998
13932TIP3   OH241740   3.614   6.906   6.245
13932TIP3    H141741   3.616   6.833   6.307
13932TIP3    H241742   3.526   6.943   6.254
13933TIP3   OH241743   1.258   3.558   1.257
13933TIP3    H141744   1.305   3.575   1.339
13933TIP3    H241745   1.279   3.633   1.202
13934TIP3   OH241746   3.220   6.782   6.539
13934TIP3    H141747   3.208   6.695   6.499
13934TIP3    H241748   3.142   6.793   6.594
13935TIP3   OH241749   6.344   7.751   2.931
13935TIP3    H141750   6.271   7.690   2.919
13935TIP3    H241751   6.406   7.703   2.987
13936TIP3   OH241752   5.612   1.283   5.091
13936TIP3    H141753   5.622   1.237   5.008
13936TIP3    H241754   5.522   1.315   5.090
13937TIP3   OH241755   5.788   6.330   0.372
13937TIP3    H141756   5.856   6.383   0.413
13937TIP3    H241757   5.834   6.256   0.334
13938TIP3   OH241758   6.516   4.474   2.813
13938TIP3    H141759   6.575   4.409   2.773
13938TIP3    H241760   6.573   4.549   2.832
13939TIP3   OH241761   2.611   3.815   3.858
13939TIP3    H141762   2.569   3.854   3.782
13939TIP3    H241763   2.538   3.774   3.907
13940TIP3   OH241764   5.733   3.470   3.459
13940TIP3    H141765   5.759   3.380   3.480
13940TIP3    H241766   5.638   3.466   3.449
13941TIP3   OH241767   3.237   5.057   2.939
13941TIP3    H141768   3.331   5.073   2.941
13941TIP3    H241769   3.226   4.983   2.879
13942TIP3   OH241770   2.516   3.274   2.348
13942TIP3    H141771   2.460   3.351   2.355
13942TIP3    H241772   2.467   3.214   2.291
13943TIP3   OH241773   2.727   7.240   5.799
13943TIP3    H141774   2.690   7.155   5.823
13943TIP3    H241775   2.769   7.272   5.879
13944TIP3   OH241776   2.927   5.518   4.073
13944TIP3    H141777   2.953   5.467   3.996
13944TIP3    H241778   2.921   5.453   4.143
13945TIP3   OH241779   5.564   5.415   4.044
13945TIP3    H141780   5.517   5.338   4.012
13945TIP3    H241781   5.583   5.395   4.136
13946TIP3   OH241782   3.814   6.320   5.834
13946TIP3    H141783   3.860   6.351   5.912
13946TIP3    H241784   3.722   6.317   5.861
13947TIP3   OH241785   8.082   0.419   6.756
13947TIP3    H141786   8.076   0.412   6.661
13947TIP3    H241787   7.996   0.390   6.787
13948TIP3   OH241788   4.932   1.828   4.961
13948TIP3    H141789   5.009   1.809   4.906
13948TIP3    H241790   4.860   1.784   4.917
13949TIP3   OH241791   7.617   5.981   0.054
13949TIP3    H141792   7.614   5.886   0.043
13949TIP3    H241793   7.545   6.000   0.115
13950TIP3   OH241794   6.697   5.371   1.532
13950TIP3    H141795   6.744   5.387   1.613
13950TIP3    H241796   6.606   5.354   1.560
13951TIP3   OH241797   0.532   3.690   0.235
13951TIP3    H141798   0.555   3.643   0.315
13951TIP3    H241799   0.454   3.741   0.258
13952TIP3   OH241800   2.701   7.392   6.696
13952TIP3    H141801   2.634   7.426   6.636
13952TIP3    H241802   2.658   7.393   6.782
13953TIP3   OH241803   6.431   2.733   4.970
13953TIP3    H141804   6.407   2.802   5.032
13953TIP3    H241805   6.409   2.769   4.884
13954TIP3   OH241806   3.348   5.866   5.795
13954TIP3    H141807   3.339   5.771   5.805
13954TIP3    H241808   3.274   5.903   5.842
13955TIP3   OH241809   4.844   2.284   4.871
13955TIP3    H141810   4.858   2.306   4.779
13955TIP3    H241811   4.905   2.212   4.888
13956TIP3   OH241812   2.696   7.543   1.253
13956TIP3    H141813   2.706   7.547   1.158
13956TIP3    H241814   2.779   7.506   1.284
13957TIP3   OH241815   6.048   1.938   0.380
13957TIP3    H141816   6.066   2.031   0.367
13957TIP3    H241817   5.974   1.936   0.441
13958TIP3   OH241818   3.333   5.022   0.312
13958TIP3    H141819   3.282   5.052   0.237
13958TIP3    H241820   3.293   5.066   0.387
13959TIP3   OH241821   6.595   3.142   6.458
13959TIP3    H141822   6.591   3.206   6.529
13959TIP3    H241823   6.574   3.059   6.499
13960TIP3   OH241824   5.874   3.710   6.373
13960TIP3    H141825   5.963   3.732   6.401
13960TIP3    H241826   5.858   3.769   6.299
13961TIP3   OH241827   2.135   1.294   3.849
13961TIP3    H141828   2.089   1.221   3.806
13961TIP3    H241829   2.123   1.368   3.790
13962TIP3   OH241830   3.850   7.692   6.190
13962TIP3    H141831   3.856   7.601   6.161
13962TIP3    H241832   3.812   7.687   6.278
13963TIP3   OH241833   5.962   4.744   1.779
13963TIP3    H141834   6.054   4.760   1.757
13963TIP3    H241835   5.941   4.661   1.735
13964TIP3   OH241836   8.149   0.423   0.409
13964TIP3    H141837   8.074   0.369   0.435
13964TIP3    H241838   8.209   0.362   0.367
13965TIP3   OH241839   7.558   2.871   4.724
13965TIP3    H141840   7.560   2.786   4.768
13965TIP3    H241841   7.650   2.896   4.717
13966TIP3   OH241842   0.638   2.399   1.667
13966TIP3    H141843   0.690   2.343   1.724
13966TIP3    H241844   0.665   2.488   1.691
13967TIP3   OH241845   7.228   2.607   2.926
13967TIP3    H141846   7.250   2.591   2.834
13967TIP3    H241847   7.139   2.574   2.936
13968TIP3   OH241848   0.480   6.731   3.201
13968TIP3    H141849   0.420   6.805   3.197
13968TIP3    H241850   0.509   6.718   3.111
13969TIP3   OH241851   2.881   0.717   1.144
13969TIP3    H141852   2.798   0.684   1.110
13969TIP3    H241853   2.942   0.710   1.071
13970TIP3   OH241854   7.492   2.477   2.433
13970TIP3    H141855   7.575   2.431   2.419
13970TIP3    H241856   7.463   2.447   2.519
13971TIP3   OH241857   5.445   5.225   4.280
13971TIP3    H141858   5.373   5.287   4.274
13971TIP3    H241859   5.414   5.148   4.232
13972TIP3   OH241860   0.533   6.545   3.420
13972TIP3    H141861   0.580   6.524   3.338
13972TIP3    H241862   0.587   6.612   3.462
13973TIP3   OH241863   8.261   7.835   0.022
13973TIP3    H141864   8.345   7.844  -0.025
13973TIP3    H241865   8.267   7.750   0.065
13974TIP3   OH241866   4.175   2.138   6.442
13974TIP3    H141867   4.183   2.221   6.396
13974TIP3    H241868   4.138   2.161   6.527
13975TIP3   OH241869   5.926   4.932   2.910
13975TIP3    H141870   5.931   4.858   2.849
13975TIP3    H241871   5.832   4.938   2.931
13976TIP3   OH241872   5.681   3.940   5.608
13976TIP3    H141873   5.600   3.978   5.641
13976TIP3    H241874   5.744   3.953   5.679
13977TIP3   OH241875   2.807   7.694   4.999
13977TIP3    H141876   2.820   7.714   5.092
13977TIP3    H241877   2.854   7.612   4.985
13978TIP3   OH241878   2.368   2.812   3.302
13978TIP3    H141879   2.391   2.777   3.216
13978TIP3    H241880   2.452   2.822   3.347
13979TIP3   OH241881   1.126   3.759   0.553
13979TIP3    H141882   1.053   3.708   0.589
13979TIP3    H241883   1.185   3.693   0.517
13980TIP3   OH241884   7.300   7.177   6.326
13980TIP3    H141885   7.368   7.171   6.393
13980TIP3    H241886   7.341   7.141   6.247
13981TIP3   OH241887   4.207   1.129   1.998
13981TIP3    H141888   4.148   1.190   2.044
13981TIP3    H241889   4.204   1.050   2.051
13982TIP3   OH241890   7.091   2.049   5.804
13982TIP3    H141891   6.995   2.050   5.808
13982TIP3    H241892   7.118   2.120   5.861
13983TIP3   OH241893   8.009   5.487   1.402
13983TIP3    H141894   7.915   5.501   1.412
13983TIP3    H241895   8.044   5.574   1.382
13984TIP3   OH241896   6.150   3.369   2.683
13984TIP3    H141897   6.208   3.293   2.690
13984TIP3    H241898   6.185   3.419   2.609
13985TIP3   OH241899   5.378   0.324   2.106
13985TIP3    H141900   5.370   0.395   2.170
13985TIP3    H241901   5.302   0.335   2.049
13986TIP3   OH241902   8.097   2.981   2.672
13986TIP3    H141903   8.039   2.976   2.596
13986TIP3    H241904   8.039   2.974   2.747
13987TIP3   OH241905   7.305   1.660   6.275
13987TIP3    H141906   7.299   1.565   6.287
13987TIP3    H241907   7.268   1.675   6.188
13988TIP3   OH241908   7.799   5.221   0.375
13988TIP3    H141909   7.820   5.314   0.373
13988TIP3    H241910   7.736   5.212   0.446
13989TIP3   OH241911   2.969   0.241   6.380
13989TIP3    H141912   2.921   0.240   6.462
13989TIP3    H241913   2.980   0.333   6.359
13990TIP3   OH241914   8.222   2.527   1.389
13990TIP3    H141915   8.194   2.457   1.331
13990TIP3    H241916   8.298   2.492   1.435
13991TIP3   OH241917   0.097   1.101   6.262
13991TIP3    H141918   0.136   1.032   6.209
13991TIP3    H241919   0.017   1.063   6.298
13992TIP3   OH241920   8.277   2.294   3.869
13992TIP3    H141921   8.288   2.201   3.848
13992TIP3    H241922   8.198   2.320   3.823
13993TIP3   OH241923   4.154   4.987   2.345
13993TIP3    H141924   4.205   4.966   2.267
13993TIP3    H241925   4.064   4.965   2.321
13994TIP3   OH241926   1.479   5.910   1.425
13994TIP3    H141927   1.395   5.898   1.470
13994TIP3    H241928   1.532   5.960   1.487
13995TIP3   OH241929   5.046   7.485   2.930
13995TIP3    H141930   5.095   7.534   2.864
13995TIP3    H241931   4.954   7.501   2.908
13996TIP3   OH241932   3.927   6.518   1.478
13996TIP3    H141933   3.986   6.499   1.404
13996TIP3    H241934   3.839   6.504   1.443
13997TIP3   OH241935   3.845   1.319   5.336
13997TIP3    H141936   3.922   1.333   5.391
13997TIP3    H241937   3.801   1.244   5.375
13998TIP3   OH241938   1.222   2.602   5.156
13998TIP3    H141939   1.185   2.521   5.120
13998TIP3    H241940   1.256   2.648   5.079
13999TIP3   OH241941   0.567   0.474   0.179
13999TIP3    H141942   0.606   0.536   0.242
13999TIP3    H241943   0.607   0.390   0.200
14000TIP3   OH241944   4.055   6.044   4.339
14000TIP3    H141945   4.131   6.102   4.343
14000TIP3    H241946   4.020   6.057   4.251
14001TIP3   OH241947   5.896   0.057   0.747
14001TIP3    H141948   5.986   0.062   0.714
14001TIP3    H241949   5.848   0.120   0.693
14002TIP3   OH241950   5.939   1.280   2.715
14002TIP3    H141951   5.865   1.317   2.763
14002TIP3    H241952   5.968   1.351   2.658
14003TIP3   OH241953   1.447   0.437   5.465
14003TIP3    H141954   1.500   0.357   5.458
14003TIP3    H241955   1.509   0.505   5.491
14004TIP3   OH241956   2.712   0.693   3.645
14004TIP3    H141957   2.768   0.770   3.656
14004TIP3    H241958   2.773   0.619   3.645
14005TIP3   OH241959   7.486   3.152   1.657
14005TIP3    H141960   7.408   3.108   1.623
14005TIP3    H241961   7.515   3.210   1.586
14006TIP3   OH241962   7.037   0.229   3.511
14006TIP3    H141963   7.069   0.309   3.553
14006TIP3    H241964   7.028   0.167   3.583
14007TIP3   OH241965   6.070   0.303   6.167
14007TIP3    H141966   5.986   0.346   6.186
14007TIP3    H241967   6.045   0.213   6.146
14008TIP3   OH241968   1.539   3.995   5.114
14008TIP3    H141969   1.548   4.054   5.189
14008TIP3    H241970   1.629   3.982   5.082
14009TIP3   OH241971   6.239   5.668   6.493
14009TIP3    H141972   6.221   5.576   6.473
14009TIP3    H241973   6.204   5.716   6.418
14010TIP3   OH241974   7.494   6.879   3.247
14010TIP3    H141975   7.412   6.843   3.211
14010TIP3    H241976   7.545   6.801   3.270
14011TIP3   OH241977   7.922   6.859   2.504
14011TIP3    H141978   7.846   6.803   2.523
14011TIP3    H241979   7.932   6.912   2.582
14012TIP3   OH241980   3.518   7.124   0.543
14012TIP3    H141981   3.545   7.088   0.458
14012TIP3    H241982   3.572   7.202   0.554
14013TIP3   OH241983   7.685   0.862   0.429
14013TIP3    H141984   7.777   0.862   0.402
14013TIP3    H241985   7.639   0.905   0.356
14014TIP3   OH241986   2.004   7.637   3.317
14014TIP3    H141987   1.915   7.615   3.347
14014TIP3    H241988   2.034   7.558   3.272
14015TIP3   OH241989   5.816   0.797   2.985
14015TIP3    H141990   5.728   0.803   3.022
14015TIP3    H241991   5.870   0.766   3.058
14016TIP3   OH241992   1.619   2.003   5.118
14016TIP3    H141993   1.569   2.067   5.168
14016TIP3    H241994   1.630   1.929   5.177
14017TIP3   OH241995   7.001   2.950   4.646
14017TIP3    H141996   7.087   2.982   4.672
14017TIP3    H241997   7.017   2.859   4.619
14018TIP3   OH241998   5.298   5.143   1.951
14018TIP3    H141999   5.272   5.181   1.867
14018TIP3    H242000   5.379   5.096   1.932
14019TIP3   OH242001   1.287   1.148   6.042
14019TIP3    H142002   1.331   1.216   5.991
14019TIP3    H242003   1.332   1.067   6.019
14020TIP3   OH242004   7.307   6.747   3.460
14020TIP3    H142005   7.336   6.810   3.526
14020TIP3    H242006   7.309   6.663   3.505
14021TIP3   OH242007   1.944   4.270   2.710
14021TIP3    H142008   1.949   4.365   2.702
14021TIP3    H242009   1.999   4.249   2.786
14022TIP3   OH242010   2.298   6.913   1.081
14022TIP3    H142011   2.250   6.982   1.127
14022TIP3    H242012   2.368   6.959   1.035
14023TIP3   OH242013   2.937   5.909   3.615
14023TIP3    H142014   3.016   5.944   3.574
14023TIP3    H242015   2.969   5.864   3.693
14024TIP3   OH242016   6.948   1.803   4.807
14024TIP3    H142017   6.866   1.791   4.856
14024TIP3    H242018   6.926   1.776   4.718
14025TIP3   OH242019   6.563   3.012   5.135
14025TIP3    H142020   6.482   3.010   5.083
14025TIP3    H242021   6.533   3.021   5.225
14026TIP3   OH242022   4.564   0.334   2.003
14026TIP3    H142023   4.640   0.355   2.056
14026TIP3    H242024   4.594   0.340   1.913
14027TIP3   OH242025   5.470   7.493   2.640
14027TIP3    H142026   5.459   7.490   2.545
14027TIP3    H242027   5.409   7.427   2.674
14028TIP3   OH242028   4.632   1.170   2.476
14028TIP3    H142029   4.584   1.252   2.488
14028TIP3    H242030   4.596   1.133   2.395
14029TIP3   OH242031   4.357   6.712   2.815
14029TIP3    H142032   4.427   6.777   2.817
14029TIP3    H242033   4.342   6.692   2.908
14030TIP3   OH242034   0.146   6.045   3.986
14030TIP3    H142035   0.227   6.026   4.033
14030TIP3    H242036   0.092   5.966   3.997
14031TIP3   OH242037   8.126   3.059   0.619
14031TIP3    H142038   8.126   3.083   0.711
14031TIP3    H242039   8.096   3.138   0.574
14032TIP3   OH242040   4.627   5.256   0.615
14032TIP3    H142041   4.655   5.315   0.685
14032TIP3    H242042   4.620   5.311   0.537
14033TIP3   OH242043   8.236   1.876   6.619
14033TIP3    H142044   8.163   1.912   6.567
14033TIP3    H242045   8.295   1.950   6.633
14034TIP3   OH242046   1.628   1.178   6.342
14034TIP3    H142047   1.578   1.134   6.411
14034TIP3    H242048   1.565   1.238   6.301
14035TIP3   OH242049   2.939   4.847   1.919
14035TIP3    H142050   3.020   4.868   1.872
14035TIP3    H242051   2.887   4.797   1.857
14036TIP3   OH242052   2.430   5.569   3.334
14036TIP3    H142053   2.470   5.647   3.372
14036TIP3    H242054   2.469   5.496   3.382
14037TIP3   OH242055   6.591   2.063   4.826
14037TIP3    H142056   6.644   2.131   4.867
14037TIP3    H242057   6.584   2.089   4.735
14038TIP3   OH242058   5.212   4.780   2.975
14038TIP3    H142059   5.257   4.862   2.956
14038TIP3    H242060   5.144   4.804   3.038
14039TIP3   OH242061   2.006   3.395   4.186
14039TIP3    H142062   1.947   3.452   4.138
14039TIP3    H242063   1.957   3.314   4.200
14040TIP3   OH242064   0.774   7.416   0.331
14040TIP3    H142065   0.824   7.474   0.388
14040TIP3    H242066   0.689   7.458   0.321
14041TIP3   OH242067   7.971   2.735   0.805
14041TIP3    H142068   7.941   2.677   0.735
14041TIP3    H242069   8.065   2.746   0.789
14042TIP3   OH242070   3.563   7.475   4.759
14042TIP3    H142071   3.490   7.415   4.772
14042TIP3    H242072   3.597   7.491   4.847
14043TIP3   OH242073   0.859   0.401   1.523
14043TIP3    H142074   0.822   0.488   1.505
14043TIP3    H242075   0.954   0.414   1.522
14044TIP3   OH242076   5.608   4.979   1.606
14044TIP3    H142077   5.627   5.020   1.690
14044TIP3    H242078   5.659   5.029   1.543
14045TIP3   OH242079   2.725   7.584   3.586
14045TIP3    H142080   2.808   7.631   3.577
14045TIP3    H242081   2.745   7.495   3.558
14046TIP3   OH242082   6.449   4.695   4.741
14046TIP3    H142083   6.407   4.630   4.797
14046TIP3    H242084   6.532   4.654   4.715
14047TIP3   OH242085   3.552   1.720   4.087
14047TIP3    H142086   3.485   1.788   4.097
14047TIP3    H242087   3.512   1.642   4.126
14048TIP3   OH242088   2.434   4.095   1.919
14048TIP3    H142089   2.480   4.046   1.987
14048TIP3    H242090   2.428   4.034   1.846
14049TIP3   OH242091   8.078   2.419   0.412
14049TIP3    H142092   8.051   2.339   0.367
14049TIP3    H242093   8.130   2.467   0.347
14050TIP3   OH242094   1.662   4.565   2.762
14050TIP3    H142095   1.634   4.609   2.681
14050TIP3    H242096   1.689   4.478   2.733
14051TIP3   OH242097   2.927   0.644   2.823
14051TIP3    H142098   3.007   0.677   2.783
14051TIP3    H242099   2.866   0.717   2.817
14052TIP3   OH242100   7.196   6.781  -0.017
14052TIP3    H142101   7.231   6.747   0.065
14052TIP3    H242102   7.198   6.876  -0.006
14053TIP3   OH242103   8.052   4.720   5.846
14053TIP3    H142104   8.035   4.789   5.781
14053TIP3    H242105   8.031   4.761   5.930
14054TIP3   OH242106   5.054   6.383   4.537
14054TIP3    H142107   5.113   6.340   4.475
14054TIP3    H242108   5.091   6.470   4.551
14055TIP3   OH242109   8.223   6.072   4.215
14055TIP3    H142110   8.207   6.097   4.124
14055TIP3    H242111   8.140   6.035   4.245
14056TIP3   OH242112   1.608   6.786   1.323
14056TIP3    H142113   1.686   6.751   1.280
14056TIP3    H242114   1.643   6.845   1.390
14057TIP3   OH242115   8.232   3.809   0.803
14057TIP3    H142116   8.161   3.746   0.814
14057TIP3    H242117   8.312   3.757   0.805
14058TIP3   OH242118   4.761   5.419   6.632
14058TIP3    H142119   4.839   5.394   6.582
14058TIP3    H242120   4.694   5.435   6.566
14059TIP3   OH242121   1.568   6.043   0.356
14059TIP3    H142122   1.630   6.111   0.384
14059TIP3    H242123   1.519   6.021   0.435
14060TIP3   OH242124   5.677   6.626   3.762
14060TIP3    H142125   5.662   6.534   3.786
14060TIP3    H242126   5.773   6.633   3.758
14061TIP3   OH242127   2.420   0.065   1.197
14061TIP3    H142128   2.475   0.014   1.138
14061TIP3    H242129   2.332   0.028   1.186
14062TIP3   OH242130   4.507   0.741   0.619
14062TIP3    H142131   4.546   0.818   0.660
14062TIP3    H242132   4.440   0.712   0.682
14063TIP3   OH242133   0.752   2.503   3.392
14063TIP3    H142134   0.658   2.485   3.402
14063TIP3    H242135   0.763   2.592   3.426
14064TIP3   OH242136   5.573   0.746   4.030
14064TIP3    H142137   5.519   0.672   4.060
14064TIP3    H242138   5.547   0.758   3.939
14065TIP3   OH242139   0.527   5.043   5.905
14065TIP3    H142140   0.512   5.118   5.963
14065TIP3    H242141   0.592   5.075   5.842
14066TIP3   OH242142   0.338   5.762   5.699
14066TIP3    H142143   0.276   5.700   5.737
14066TIP3    H242144   0.373   5.810   5.774
14067TIP3   OH242145   0.778   6.151   4.962
14067TIP3    H142146   0.741   6.066   4.986
14067TIP3    H242147   0.867   6.149   4.998
14068TIP3   OH242148   0.854   5.229   4.291
14068TIP3    H142149   0.787   5.240   4.224
14068TIP3    H242150   0.831   5.146   4.334
14069TIP3   OH242151   3.266   4.008   0.166
14069TIP3    H142152   3.331   3.945   0.195
14069TIP3    H242153   3.196   3.955   0.129
14070TIP3   OH242154   2.624   2.663   5.024
14070TIP3    H142155   2.568   2.692   4.952
14070TIP3    H242156   2.663   2.744   5.058
14071TIP3   OH242157   1.373   6.691   3.412
14071TIP3    H142158   1.336   6.616   3.366
14071TIP3    H242159   1.315   6.705   3.487
14072TIP3   OH242160   4.498   0.421   4.016
14072TIP3    H142161   4.580   0.448   3.975
14072TIP3    H242162   4.524   0.376   4.096
14073TIP3   OH242163   1.352   1.626   3.336
14073TIP3    H142164   1.260   1.644   3.318
14073TIP3    H242165   1.350   1.551   3.396
14074TIP3   OH242166   3.466   4.497   2.634
14074TIP3    H142167   3.442   4.584   2.602
14074TIP3    H242168   3.561   4.497   2.634
14075TIP3   OH242169   0.637   7.021   2.880
14075TIP3    H142170   0.562   6.982   2.835
14075TIP3    H242171   0.714   6.982   2.838
14076TIP3   OH242172   3.471   2.653   3.986
14076TIP3    H142173   3.457   2.573   3.936
14076TIP3    H242174   3.528   2.627   4.059
14077TIP3   OH242175   5.203   3.699   5.821
14077TIP3    H142176   5.243   3.786   5.822
14077TIP3    H242177   5.209   3.668   5.911
14078TIP3   OH242178   0.343   7.246   3.235
14078TIP3    H142179   0.429   7.210   3.257
14078TIP3    H242180   0.304   7.266   3.320
14079TIP3   OH242181   5.518   2.931   4.515
14079TIP3    H142182   5.449   2.869   4.539
14079TIP3    H242183   5.509   2.941   4.421
14080TIP3   OH242184   3.512   6.790   4.050
14080TIP3    H142185   3.462   6.708   4.053
14080TIP3    H242186   3.472   6.839   3.978
14081TIP3   OH242187   2.930   6.823   1.026
14081TIP3    H142188   2.926   6.810   0.931
14081TIP3    H242189   2.921   6.918   1.038
14082TIP3   OH242190   7.150   5.316   5.311
14082TIP3    H142191   7.220   5.336   5.373
14082TIP3    H242192   7.087   5.387   5.322
14083TIP3   OH242193   2.346   3.404   5.696
14083TIP3    H142194   2.254   3.389   5.717
14083TIP3    H242195   2.345   3.464   5.622
14084TIP3   OH242196   4.691   3.330   0.737
14084TIP3    H142197   4.638   3.302   0.663
14084TIP3    H242198   4.629   3.341   0.809
14085TIP3   OH242199   0.183   6.977   3.766
14085TIP3    H142200   0.193   6.885   3.745
14085TIP3    H242201   0.132   7.013   3.694
14086TIP3   OH242202   5.774   2.250   5.053
14086TIP3    H142203   5.768   2.324   5.114
14086TIP3    H242204   5.865   2.221   5.059
14087TIP3   OH242205   4.420   3.898   4.681
14087TIP3    H142206   4.438   3.886   4.588
14087TIP3    H242207   4.447   3.989   4.699
14088TIP3   OH242208   3.819   1.920   0.249
14088TIP3    H142209   3.774   1.996   0.285
14088TIP3    H242210   3.803   1.850   0.312
14089TIP3   OH242211   5.235   2.319   1.368
14089TIP3    H142212   5.153   2.316   1.416
14089TIP3    H242213   5.298   2.357   1.429
14090TIP3   OH242214   2.898   4.679   0.815
14090TIP3    H142215   2.865   4.686   0.725
14090TIP3    H242216   2.993   4.685   0.806
14091TIP3   OH242217   2.152   3.645   1.514
14091TIP3    H142218   2.097   3.722   1.501
14091TIP3    H242219   2.176   3.648   1.606
14092TIP3   OH242220   0.829   3.662   2.377
14092TIP3    H142221   0.768   3.605   2.331
14092TIP3    H242222   0.873   3.711   2.308
14093TIP3   OH242223   1.095   6.185   0.693
14093TIP3    H142224   1.145   6.202   0.773
14093TIP3    H242225   1.009   6.157   0.725
14094TIP3   OH242226   2.998   3.656   1.174
14094TIP3    H142227   3.087   3.679   1.147
14094TIP3    H242228   2.967   3.732   1.222
14095TIP3   OH242229   3.176   1.567   3.417
14095TIP3    H142230   3.191   1.652   3.458
14095TIP3    H242231   3.262   1.541   3.386
14096TIP3   OH242232   4.329   1.963   6.007
14096TIP3    H142233   4.406   1.910   5.986
14096TIP3    H242234   4.343   1.992   6.097
14097TIP3   OH242235   1.901   1.514   5.532
14097TIP3    H142236   1.923   1.501   5.439
14097TIP3    H242237   1.974   1.475   5.580
14098TIP3   OH242238   7.222   2.192   2.509
14098TIP3    H142239   7.255   2.188   2.419
14098TIP3    H242240   7.215   2.100   2.536
14099TIP3   OH242241   0.300   1.882   0.675
14099TIP3    H142242   0.337   1.816   0.733
14099TIP3    H242243   0.214   1.901   0.713
14100TIP3   OH242244   0.206   7.470   4.326
14100TIP3    H142245   0.132   7.512   4.282
14100TIP3    H242246   0.280   7.530   4.311
14101TIP3   OH242247   5.539   7.012   5.274
14101TIP3    H142248   5.541   7.044   5.364
14101TIP3    H242249   5.469   6.947   5.274
14102TIP3   OH242250   5.281   0.950   4.483
14102TIP3    H142251   5.316   0.864   4.506
14102TIP3    H242252   5.235   0.936   4.400
14103TIP3   OH242253   0.494   7.015   1.799
14103TIP3    H142254   0.495   6.993   1.892
14103TIP3    H242255   0.525   7.106   1.795
14104TIP3   OH242256   0.502   5.552   5.272
14104TIP3    H142257   0.510   5.523   5.362
14104TIP3    H242258   0.480   5.645   5.278
14105TIP3   OH242259   4.041   0.722   5.201
14105TIP3    H142260   4.085   0.754   5.122
14105TIP3    H242261   4.060   0.628   5.202
14106TIP3   OH242262   3.647   0.102   4.542
14106TIP3    H142263   3.729   0.108   4.591
14106TIP3    H242264   3.621   0.010   4.550
14107TIP3   OH242265   6.480   7.038   0.852
14107TIP3    H142266   6.558   7.085   0.822
14107TIP3    H242267   6.410   7.102   0.848
14108TIP3   OH242268   2.394   7.403   2.703
14108TIP3    H142269   2.313   7.453   2.694
14108TIP3    H242270   2.435   7.407   2.617
14109TIP3   OH242271   8.004   1.828   5.491
14109TIP3    H142272   8.041   1.809   5.578
14109TIP3    H242273   8.024   1.920   5.477
14110TIP3   OH242274   1.830   3.420   2.678
14110TIP3    H142275   1.779   3.501   2.671
14110TIP3    H242276   1.800   3.367   2.604
14111TIP3   OH242277   0.081   3.261   3.752
14111TIP3    H142278   0.031   3.180   3.759
14111TIP3    H242279   0.018   3.326   3.720
14112TIP3   OH242280   1.308   7.748   5.943
14112TIP3    H142281   1.302   7.841   5.966
14112TIP3    H242282   1.330   7.705   6.026
14113TIP3   OH242283   0.846   2.526   2.817
14113TIP3    H142284   0.863   2.494   2.728
14113TIP3    H242285   0.834   2.621   2.806
14114TIP3   OH242286   1.825   0.744   3.713
14114TIP3    H142287   1.868   0.688   3.777
14114TIP3    H242288   1.880   0.739   3.635
14115TIP3   OH242289   7.297   6.333   5.390
14115TIP3    H142290   7.288   6.428   5.386
14115TIP3    H242291   7.212   6.299   5.362
14116TIP3   OH242292   7.336   1.272   1.925
14116TIP3    H142293   7.254   1.238   1.889
14116TIP3    H242294   7.324   1.367   1.926
14117TIP3   OH242295   1.416   3.838   6.030
14117TIP3    H142296   1.352   3.828   6.100
14117TIP3    H242297   1.497   3.863   6.074
14118TIP3   OH242298   1.357   5.981   5.128
14118TIP3    H142299   1.328   5.959   5.217
14118TIP3    H242300   1.336   5.904   5.076
14119TIP3   OH242301   5.000   5.084   6.574
14119TIP3    H142302   5.015   5.147   6.504
14119TIP3    H242303   4.971   5.136   6.649
14120TIP3   OH242304   7.128   0.396   3.016
14120TIP3    H142305   7.128   0.475   3.071
14120TIP3    H242306   7.122   0.429   2.927
14121TIP3   OH242307   2.230   7.229   5.360
14121TIP3    H142308   2.178   7.150   5.342
14121TIP3    H242309   2.318   7.197   5.376
14122TIP3   OH242310   4.510   1.841   1.226
14122TIP3    H142311   4.482   1.751   1.242
14122TIP3    H242312   4.438   1.894   1.257
14123TIP3   OH242313   2.727   2.285   0.856
14123TIP3    H142314   2.682   2.285   0.771
14123TIP3    H242315   2.820   2.292   0.834
14124TIP3   OH242316   5.643   1.777   0.768
14124TIP3    H142317   5.735   1.749   0.769
14124TIP3    H242318   5.640   1.850   0.830
14125TIP3   OH242319   3.951   4.422   6.471
14125TIP3    H142320   3.941   4.502   6.524
14125TIP3    H242321   3.862   4.393   6.454
14126TIP3   OH242322   0.164   1.826   6.068
14126TIP3    H142323   0.115   1.755   6.026
14126TIP3    H242324   0.106   1.856   6.138
14127TIP3   OH242325   4.304   0.238   4.990
14127TIP3    H142326   4.305   0.258   5.083
14127TIP3    H242327   4.387   0.273   4.957
14128TIP3   OH242328   1.824   0.119   3.225
14128TIP3    H142329   1.787   0.204   3.200
14128TIP3    H242330   1.759   0.055   3.196
14129TIP3   OH242331   7.466   7.511   0.466
14129TIP3    H142332   7.376   7.510   0.435
14129TIP3    H242333   7.512   7.568   0.404
14130TIP3   OH242334   3.610   7.570   0.566
14130TIP3    H142335   3.520   7.562   0.597
14130TIP3    H242336   3.602   7.570   0.470
14131TIP3   OH242337   2.147   2.273   1.403
14131TIP3    H142338   2.067   2.301   1.358
14131TIP3    H242339   2.217   2.291   1.340
14132TIP3   OH242340   4.622   4.726   6.130
14132TIP3    H142341   4.592   4.657   6.190
14132TIP3    H242342   4.586   4.807   6.166
14133TIP3   OH242343   7.926   5.217   1.919
14133TIP3    H142344   7.986   5.196   1.848
14133TIP3    H242345   7.841   5.228   1.876
14134TIP3   OH242346   2.903   1.617   3.460
14134TIP3    H142347   2.970   1.569   3.509
14134TIP3    H242348   2.889   1.697   3.511
14135TIP3   OH242349   4.558   5.294   2.539
14135TIP3    H142350   4.520   5.379   2.518
14135TIP3    H242351   4.591   5.261   2.456
14136TIP3   OH242352   5.274   1.967   4.905
14136TIP3    H142353   5.245   1.895   4.850
14136TIP3    H242354   5.248   1.940   4.994
14137TIP3   OH242355   7.580   0.953   2.140
14137TIP3    H142356   7.525   0.996   2.074
14137TIP3    H242357   7.519   0.923   2.207
14138TIP3   OH242358   6.498   0.278   5.760
14138TIP3    H142359   6.439   0.268   5.686
14138TIP3    H242360   6.473   0.208   5.820
14139TIP3   OH242361   0.990   0.119   6.296
14139TIP3    H142362   0.897   0.107   6.274
14139TIP3    H242363   1.037   0.085   6.221
14140TIP3   OH242364   1.162   1.683   0.156
14140TIP3    H142365   1.230   1.647   0.099
14140TIP3    H242366   1.139   1.611   0.214
14141TIP3   OH242367   0.168   0.999   3.222
14141TIP3    H142368   0.198   1.032   3.307
14141TIP3    H242369   0.247   0.963   3.182
14142TIP3   OH242370   3.887   3.645   3.056
14142TIP3    H142371   3.897   3.550   3.046
14142TIP3    H242372   3.946   3.683   2.992
14143TIP3   OH242373   6.900   6.884   3.028
14143TIP3    H142374   6.921   6.793   3.007
14143TIP3    H242375   6.928   6.933   2.951
14144TIP3   OH242376   6.247   5.818   3.955
14144TIP3    H142377   6.214   5.880   4.020
14144TIP3    H242378   6.188   5.743   3.962
14145TIP3   OH242379   1.030   4.272   2.615
14145TIP3    H142380   0.949   4.276   2.565
14145TIP3    H242381   1.005   4.235   2.699
14146TIP3   OH242382   3.646   0.831   2.377
14146TIP3    H142383   3.590   0.866   2.307
14146TIP3    H242384   3.659   0.740   2.354
14147TIP3   OH242385   4.209   3.254   1.367
14147TIP3    H142386   4.184   3.323   1.429
14147TIP3    H242387   4.200   3.296   1.281
14148TIP3   OH242388   7.772   2.543   6.005
14148TIP3    H142389   7.747   2.587   5.924
14148TIP3    H242390   7.797   2.455   5.978
14149TIP3   OH242391   0.062   0.037   6.309
14149TIP3    H142392   0.097   0.057   6.396
14149TIP3    H242393   0.062   0.121   6.263
14150TIP3   OH242394   7.302   3.312   3.005
14150TIP3    H142395   7.326   3.237   2.951
14150TIP3    H242396   7.380   3.329   3.058
14151TIP3   OH242397   3.635   3.773   3.292
14151TIP3    H142398   3.703   3.834   3.320
14151TIP3    H242399   3.558   3.829   3.278
14152TIP3   OH242400   3.095   5.273   3.074
14152TIP3    H142401   3.176   5.300   3.117
14152TIP3    H242402   3.115   5.186   3.039
14153TIP3   OH242403   3.463   0.059   0.626
14153TIP3    H142404   3.461  -0.032   0.657
14153TIP3    H242405   3.553   0.088   0.643
14154TIP3   OH242406   3.400   4.096   1.284
14154TIP3    H142407   3.419   4.093   1.378
14154TIP3    H242408   3.458   4.165   1.250
14155TIP3   OH242409   0.420   7.372   4.625
14155TIP3    H142410   0.340   7.320   4.617
14155TIP3    H242411   0.391   7.463   4.615
14156TIP3   OH242412   3.622   2.200   4.408
14156TIP3    H142413   3.540   2.152   4.421
14156TIP3    H242414   3.597   2.292   4.417
14157TIP3   OH242415   1.037   7.137   6.028
14157TIP3    H142416   1.093   7.211   6.053
14157TIP3    H242417   0.949   7.174   6.027
14158TIP3   OH242418   7.068   4.649   0.593
14158TIP3    H142419   7.156   4.658   0.631
14158TIP3    H242420   7.032   4.738   0.596
14159TIP3   OH242421   6.609   6.780   4.403
14159TIP3    H142422   6.658   6.856   4.370
14159TIP3    H242423   6.529   6.817   4.440
14160TIP3   OH242424   0.223   2.910   2.159
14160TIP3    H142425   0.210   2.816   2.144
14160TIP3    H242426   0.231   2.947   2.071
14161TIP3   OH242427   2.226   6.043   4.146
14161TIP3    H142428   2.188   6.077   4.227
14161TIP3    H242429   2.227   5.948   4.157
14162TIP3   OH242430   5.658   0.051   1.188
14162TIP3    H142431   5.726   0.115   1.168
14162TIP3    H242432   5.695  -0.032   1.160
14163TIP3   OH242433   1.601   0.463   3.766
14163TIP3    H142434   1.622   0.553   3.790
14163TIP3    H242435   1.600   0.463   3.670
14164TIP3   OH242436   1.345   6.069   0.508
14164TIP3    H142437   1.288   6.044   0.580
14164TIP3    H242438   1.293   6.051   0.429
14165TIP3   OH242439   4.672   4.420   3.466
14165TIP3    H142440   4.679   4.344   3.407
14165TIP3    H242441   4.703   4.494   3.413
14166TIP3   OH242442   1.355   5.760   0.961
14166TIP3    H142443   1.407   5.706   1.020
14166TIP3    H242444   1.279   5.787   1.013
14167TIP3   OH242445   0.970   6.444   1.909
14167TIP3    H142446   0.927   6.360   1.929
14167TIP3    H242447   0.909   6.488   1.850
14168TIP3   OH242448   6.698   4.612   3.394
14168TIP3    H142449   6.760   4.591   3.324
14168TIP3    H242450   6.736   4.573   3.472
14169TIP3   OH242451   6.269   6.314   3.087
14169TIP3    H142452   6.287   6.287   2.997
14169TIP3    H242453   6.175   6.300   3.098
14170TIP3   OH242454   6.564   1.862   4.207
14170TIP3    H142455   6.488   1.877   4.264
14170TIP3    H242456   6.637   1.904   4.253
14171TIP3   OH242457   5.532   5.630   3.843
14171TIP3    H142458   5.609   5.611   3.790
14171TIP3    H242459   5.533   5.564   3.912
14172TIP3   OH242460   2.197   2.429   0.847
14172TIP3    H142461   2.107   2.460   0.838
14172TIP3    H242462   2.211   2.425   0.942
14173TIP3   OH242463   1.942   6.899   3.507
14173TIP3    H142464   2.008   6.966   3.524
14173TIP3    H242465   1.907   6.876   3.593
14174TIP3   OH242466   4.518   0.919   2.932
14174TIP3    H142467   4.430   0.905   2.899
14174TIP3    H242468   4.567   0.953   2.858
14175TIP3   OH242469   1.698   1.153   1.423
14175TIP3    H142470   1.620   1.118   1.468
14175TIP3    H242471   1.671   1.240   1.393
14176TIP3   OH242472   6.742   2.525   4.323
14176TIP3    H142473   6.652   2.518   4.290
14176TIP3    H242474   6.774   2.608   4.289
14177TIP3   OH242475   5.136   7.116   6.386
14177TIP3    H142476   5.046   7.087   6.375
14177TIP3    H242477   5.129   7.198   6.435
14178TIP3   OH242478   2.963   2.106   3.022
14178TIP3    H142479   2.974   2.014   3.048
14178TIP3    H242480   3.021   2.116   2.946
14179TIP3   OH242481   1.816   7.694   0.237
14179TIP3    H142482   1.870   7.615   0.235
14179TIP3    H242483   1.732   7.665   0.273
14180TIP3   OH242484   1.337   6.721   4.962
14180TIP3    H142485   1.335   6.808   5.001
14180TIP3    H242486   1.250   6.710   4.924
14181TIP3   OH242487   8.037   2.457   1.596
14181TIP3    H142488   8.109   2.510   1.562
14181TIP3    H242489   8.078   2.376   1.628
14182TIP3   OH242490   8.134   0.207   1.876
14182TIP3    H142491   8.162   0.298   1.867
14182TIP3    H242492   8.105   0.200   1.967
14183TIP3   OH242493   4.685   1.006   1.074
14183TIP3    H142494   4.678   1.093   1.113
14183TIP3    H242495   4.601   0.964   1.095
14184TIP3   OH242496   5.278   0.911   2.935
14184TIP3    H142497   5.227   0.975   2.886
14184TIP3    H242498   5.225   0.831   2.934
14185TIP3   OH242499   0.303   1.987   1.897
14185TIP3    H142500   0.287   1.986   1.992
14185TIP3    H242501   0.336   1.900   1.877
14186TIP3   OH242502   3.525   3.540   2.760
14186TIP3    H142503   3.557   3.469   2.705
14186TIP3    H242504   3.534   3.508   2.850
14187TIP3   OH242505   4.856   6.728   4.222
14187TIP3    H142506   4.920   6.656   4.220
14187TIP3    H242507   4.800   6.707   4.297
14188TIP3   OH242508   6.734   2.035   6.365
14188TIP3    H142509   6.783   1.957   6.336
14188TIP3    H242510   6.802   2.101   6.380
14189TIP3   OH242511   8.198   3.983   3.888
14189TIP3    H142512   8.157   4.003   3.804
14189TIP3    H242513   8.134   4.010   3.953
14190TIP3   OH242514   5.846   1.113   3.861
14190TIP3    H142515   5.817   1.051   3.928
14190TIP3    H242516   5.919   1.159   3.902
14191TIP3   OH242517   7.334   6.645   2.901
14191TIP3    H142518   7.427   6.652   2.922
14191TIP3    H242519   7.292   6.712   2.956
14192TIP3   OH242520   2.196   1.456   1.577
14192TIP3    H142521   2.125   1.498   1.529
14192TIP3    H242522   2.263   1.439   1.511
14193TIP3   OH242523   5.706   1.360   4.395
14193TIP3    H142524   5.752   1.289   4.440
14193TIP3    H242525   5.669   1.319   4.317
14194TIP3   OH242526   4.874   0.301   0.146
14194TIP3    H142527   4.798   0.353   0.119
14194TIP3    H242528   4.867   0.220   0.096
14195TIP3   OH242529   5.601   4.410   4.755
14195TIP3    H142530   5.582   4.492   4.801
14195TIP3    H242531   5.539   4.347   4.791
14196TIP3   OH242532   6.405   7.122   2.789
14196TIP3    H142533   6.324   7.081   2.758
14196TIP3    H242534   6.394   7.129   2.883
14197TIP3   OH242535   5.655   0.993   1.726
14197TIP3    H142536   5.575   1.043   1.746
14197TIP3    H242537   5.662   0.997   1.630
14198TIP3   OH242538   1.109   0.574   5.527
14198TIP3    H142539   1.184   0.515   5.528
14198TIP3    H242540   1.118   0.625   5.608
14199TIP3   OH242541   7.869   0.902   4.832
14199TIP3    H142542   7.947   0.890   4.887
14199TIP3    H242543   7.904   0.937   4.750
14200TIP3   OH242544   2.689   6.559   4.260
14200TIP3    H142545   2.719   6.489   4.203
14200TIP3    H242546   2.736   6.637   4.229
14201TIP3   OH242547   2.574   4.550   6.502
14201TIP3    H142548   2.631   4.624   6.481
14201TIP3    H242549   2.547   4.565   6.593
14202TIP3   OH242550   0.662   0.393   0.895
14202TIP3    H142551   0.617   0.442   0.964
14202TIP3    H242552   0.627   0.304   0.902
14203TIP3   OH242553   4.485   2.573   2.965
14203TIP3    H142554   4.549   2.516   2.922
14203TIP3    H242555   4.535   2.650   2.992
14204TIP3   OH242556   6.257   2.580   6.673
14204TIP3    H142557   6.337   2.528   6.682
14204TIP3    H242558   6.197   2.523   6.625
14205TIP3   OH242559   7.680   0.773   2.382
14205TIP3    H142560   7.697   0.690   2.337
14205TIP3    H242561   7.758   0.825   2.366
14206TIP3   OH242562   5.926   1.243   6.337
14206TIP3    H142563   5.980   1.166   6.356
14206TIP3    H242564   5.937   1.258   6.244
14207TIP3   OH242565   7.673   0.838   6.577
14207TIP3    H142566   7.663   0.759   6.523
14207TIP3    H242567   7.768   0.849   6.585
14208TIP3   OH242568   7.944   3.762   1.350
14208TIP3    H142569   7.889   3.826   1.305
14208TIP3    H242570   7.989   3.813   1.418
14209TIP3   OH242571   3.202   0.026   6.503
14209TIP3    H142572   3.285  -0.005   6.467
14209TIP3    H242573   3.201   0.120   6.485
14210TIP3   OH242574   1.094   0.741   1.129
14210TIP3    H142575   1.038   0.664   1.139
14210TIP3    H242576   1.046   0.799   1.071
14211TIP3   OH242577   2.684   4.966   4.552
14211TIP3    H142578   2.774   4.971   4.520
14211TIP3    H242579   2.651   4.883   4.517
14212TIP3   OH242580   4.414   2.547   3.812
14212TIP3    H142581   4.324   2.518   3.798
14212TIP3    H242582   4.443   2.500   3.890
14213TIP3   OH242583   3.791   6.734   3.838
14213TIP3    H142584   3.777   6.700   3.926
14213TIP3    H242585   3.879   6.705   3.815
14214TIP3   OH242586   0.402   6.747   1.704
14214TIP3    H142587   0.324   6.742   1.759
14214TIP3    H242588   0.443   6.830   1.726
14215TIP3   OH242589   5.274   3.973   1.808
14215TIP3    H142590   5.218   3.936   1.740
14215TIP3    H242591   5.341   3.906   1.823
14216TIP3   OH242592   1.767   1.584   0.406
14216TIP3    H142593   1.830   1.609   0.338
14216TIP3    H242594   1.693   1.548   0.357
14217TIP3   OH242595   0.229   6.294   1.202
14217TIP3    H142596   0.141   6.331   1.201
14217TIP3    H242597   0.215   6.200   1.218
14218TIP3   OH242598   1.487   3.654   5.845
14218TIP3    H142599   1.478   3.724   5.909
14218TIP3    H242600   1.458   3.576   5.890
14219TIP3   OH242601   7.528   7.316   1.250
14219TIP3    H142602   7.569   7.361   1.324
14219TIP3    H242603   7.439   7.351   1.248
14220TIP3   OH242604   0.792   7.612   4.473
14220TIP3    H142605   0.766   7.620   4.565
14220TIP3    H242606   0.888   7.608   4.476
14221TIP3   OH242607   7.805   2.939   6.752
14221TIP3    H142608   7.713   2.960   6.767
14221TIP3    H242609   7.853   3.017   6.780
14222TIP3   OH242610   6.506   4.366   3.149
14222TIP3    H142611   6.530   4.344   3.059
14222TIP3    H242612   6.479   4.458   3.145
14223TIP3   OH242613   3.620   5.053   2.706
14223TIP3    H142614   3.654   4.967   2.731
14223TIP3    H242615   3.568   5.082   2.781
14224TIP3   OH242616   6.440   2.986   5.371
14224TIP3    H142617   6.482   2.914   5.418
14224TIP3    H242618   6.351   2.954   5.354
14225TIP3   OH242619   3.754   0.314   1.689
14225TIP3    H142620   3.738   0.301   1.596
14225TIP3    H242621   3.850   0.309   1.698
14226TIP3   OH242622   3.732   7.155   3.578
14226TIP3    H142623   3.783   7.176   3.655
14226TIP3    H242624   3.644   7.187   3.598
14227TIP3   OH242625   0.502   5.695   3.742
14227TIP3    H142626   0.466   5.694   3.654
14227TIP3    H242627   0.572   5.761   3.739
14228TIP3   OH242628   2.657   6.918   5.468
14228TIP3    H142629   2.750   6.898   5.483
14228TIP3    H242630   2.628   6.850   5.407
14229TIP3   OH242631   2.016   1.752   6.679
14229TIP3    H142632   2.055   1.839   6.669
14229TIP3    H242633   1.951   1.747   6.609
14230TIP3   OH242634   6.698   0.538   5.117
14230TIP3    H142635   6.784   0.569   5.144
14230TIP3    H242636   6.716   0.466   5.058
14231TIP3   OH242637   0.844   3.630   4.282
14231TIP3    H142638   0.899   3.695   4.239
14231TIP3    H242639   0.881   3.621   4.370
14232TIP3   OH242640   5.044   4.099   2.639
14232TIP3    H142641   5.022   4.057   2.556
14232TIP3    H242642   5.139   4.090   2.645
14233TIP3   OH242643   4.370   5.383   3.321
14233TIP3    H142644   4.326   5.325   3.259
14233TIP3    H242645   4.300   5.438   3.356
14234TIP3   OH242646   5.037   2.388   5.430
14234TIP3    H142647   5.123   2.423   5.406
14234TIP3    H242648   5.039   2.297   5.401
14235TIP3   OH242649   3.007   2.643   3.173
14235TIP3    H142650   3.081   2.703   3.167
14235TIP3    H242651   3.027   2.573   3.111
14236TIP3   OH242652   7.657   5.297   4.114
14236TIP3    H142653   7.579   5.261   4.072
14236TIP3    H242654   7.728   5.239   4.086
14237TIP3   OH242655   1.836   7.421   5.720
14237TIP3    H142656   1.906   7.369   5.680
14237TIP3    H242657   1.856   7.511   5.695
14238TIP3   OH242658   6.960   1.571   5.377
14238TIP3    H142659   7.014   1.617   5.313
14238TIP3    H242660   6.896   1.523   5.324
14239TIP3   OH242661   4.966   4.894   3.607
14239TIP3    H142662   4.937   4.816   3.656
14239TIP3    H242663   4.989   4.957   3.675
14240TIP3   OH242664   0.236   2.570   6.182
14240TIP3    H142665   0.169   2.601   6.121
14240TIP3    H242666   0.203   2.594   6.268
14241TIP3   OH242667   8.024   4.840   1.068
14241TIP3    H142668   8.099   4.885   1.030
14241TIP3    H242669   7.960   4.833   0.997
14242TIP3   OH242670   8.073   6.138   3.956
14242TIP3    H142671   8.016   6.207   3.991
14242TIP3    H242672   8.115   6.178   3.879
14243TIP3   OH242673   2.439   1.515   0.472
14243TIP3    H142674   2.505   1.450   0.446
14243TIP3    H242675   2.477   1.599   0.448
14244TIP3   OH242676   3.098   7.415   1.858
14244TIP3    H142677   3.172   7.401   1.799
14244TIP3    H242678   3.041   7.476   1.812
14245TIP3   OH242679   5.743   0.979   4.081
14245TIP3    H142680   5.815   0.925   4.112
14245TIP3    H242681   5.670   0.917   4.071
14246TIP3   OH242682   0.539   7.172   1.126
14246TIP3    H142683   0.491   7.253   1.144
14246TIP3    H242684   0.533   7.161   1.032
14247TIP3   OH242685   2.797   1.976   6.246
14247TIP3    H142686   2.864   2.037   6.214
14247TIP3    H242687   2.790   1.995   6.340
14248TIP3   OH242688   6.444   4.335   4.333
14248TIP3    H142689   6.509   4.278   4.374
14248TIP3    H242690   6.394   4.371   4.406
14249TIP3   OH242691   3.860   2.390   3.328
14249TIP3    H142692   3.942   2.364   3.286
14249TIP3    H242693   3.812   2.436   3.259
14250TIP3   OH242694   0.337   3.200   4.652
14250TIP3    H142695   0.339   3.182   4.558
14250TIP3    H242696   0.422   3.170   4.683
14251TIP3   OH242697   3.841   5.424   4.977
14251TIP3    H142698   3.812   5.478   4.904
14251TIP3    H242699   3.852   5.486   5.050
14252TIP3   OH242700   5.690   3.364   3.863
14252TIP3    H142701   5.705   3.458   3.856
14252TIP3    H242702   5.631   3.355   3.937
14253TIP3   OH242703   8.101   0.806   4.985
14253TIP3    H142704   8.025   0.821   5.042
14253TIP3    H242705   8.154   0.741   5.031
14254TIP3   OH242706   7.116   7.576   5.347
14254TIP3    H142707   7.187   7.512   5.347
14254TIP3    H242708   7.134   7.631   5.271
14255TIP3   OH242709   8.186   7.329   2.585
14255TIP3    H142710   8.150   7.314   2.673
14255TIP3    H242711   8.264   7.382   2.600
14256TIP3   OH242712   3.632   0.471   5.589
14256TIP3    H142713   3.655   0.419   5.512
14256TIP3    H242714   3.710   0.469   5.644
14257TIP3   OH242715   2.321   0.540   1.115
14257TIP3    H142716   2.328   0.602   1.188
14257TIP3    H242717   2.299   0.457   1.157
14258TIP3   OH242718   2.727   4.665   1.800
14258TIP3    H142719   2.783   4.588   1.797
14258TIP3    H242720   2.738   4.707   1.714
14259TIP3   OH242721   7.396   3.358   4.910
14259TIP3    H142722   7.325   3.326   4.855
14259TIP3    H242723   7.352   3.405   4.981
14260TIP3   OH242724   7.023   3.154   2.456
14260TIP3    H142725   7.093   3.089   2.465
14260TIP3    H242726   7.050   3.226   2.512
14261TIP3   OH242727   7.503   1.189   0.065
14261TIP3    H142728   7.563   1.224   0.000
14261TIP3    H242729   7.446   1.130   0.016
14262TIP3   OH242730   2.892   1.003   0.607
14262TIP3    H142731   2.985   1.021   0.613
14262TIP3    H242732   2.851   1.089   0.600
14263TIP3   OH242733   3.438   3.973   3.497
14263TIP3    H142734   3.382   4.042   3.533
14263TIP3    H242735   3.420   3.974   3.403
14264TIP3   OH242736   6.323   0.224   4.167
14264TIP3    H142737   6.246   0.181   4.205
14264TIP3    H242738   6.349   0.166   4.095
14265TIP3   OH242739   1.857   6.904   2.765
14265TIP3    H142740   1.926   6.869   2.709
14265TIP3    H242741   1.823   6.827   2.812
14266TIP3   OH242742   7.510   2.531   0.849
14266TIP3    H142743   7.460   2.514   0.769
14266TIP3    H242744   7.530   2.625   0.845
14267TIP3   OH242745   7.998   6.741   2.898
14267TIP3    H142746   8.060   6.812   2.914
14267TIP3    H242747   8.050   6.673   2.854
14268TIP3   OH242748   6.523   4.609   4.185
14268TIP3    H142749   6.514   4.570   4.273
14268TIP3    H242750   6.607   4.576   4.154
14269TIP3   OH242751   1.083   4.633   0.972
14269TIP3    H142752   1.082   4.546   1.013
14269TIP3    H242753   1.016   4.683   1.020
14270TIP3   OH242754   7.474   4.548   2.260
14270TIP3    H142755   7.403   4.486   2.281
14270TIP3    H242756   7.554   4.502   2.287
14271TIP3   OH242757   2.169   3.232   6.612
14271TIP3    H142758   2.236   3.300   6.623
14271TIP3    H242759   2.211   3.152   6.644
14272TIP3   OH242760   3.752   4.016   6.336
14272TIP3    H142761   3.719   4.102   6.308
14272TIP3    H242762   3.847   4.028   6.340
14273TIP3   OH242763   5.834   4.091   3.411
14273TIP3    H142764   5.857   4.172   3.366
14273TIP3    H242765   5.855   4.022   3.348
14274TIP3   OH242766   4.787   1.362   2.184
14274TIP3    H142767   4.813   1.330   2.271
14274TIP3    H242768   4.834   1.445   2.175
14275TIP3   OH242769   5.349   6.535   2.103
14275TIP3    H142770   5.396   6.599   2.157
14275TIP3    H242771   5.394   6.452   2.120
14276TIP3   OH242772   6.853   0.288   5.305
14276TIP3    H142773   6.928   0.262   5.357
14276TIP3    H242774   6.878   0.372   5.267
14277TIP3   OH242775   0.170   7.312   5.862
14277TIP3    H142776   0.184   7.350   5.776
14277TIP3    H242777   0.254   7.273   5.886
14278TIP3   OH242778   5.531   7.780   2.483
14278TIP3    H142779   5.549   7.686   2.474
14278TIP3    H242780   5.604   7.823   2.439
14279TIP3   OH242781   4.105   0.854   6.518
14279TIP3    H142782   4.103   0.899   6.602
14279TIP3    H242783   4.054   0.774   6.532
14280TIP3   OH242784   4.754   3.617   0.680
14280TIP3    H142785   4.782   3.532   0.714
14280TIP3    H242786   4.676   3.598   0.629
14281TIP3   OH242787   7.272   3.550   1.251
14281TIP3    H142788   7.217   3.472   1.261
14281TIP3    H242789   7.308   3.566   1.338
14282TIP3   OH242790   1.440   2.149   1.218
14282TIP3    H142791   1.444   2.085   1.147
14282TIP3    H242792   1.482   2.227   1.184
14283TIP3   OH242793   0.937   1.003   1.488
14283TIP3    H142794   1.003   1.009   1.557
14283TIP3    H242795   0.854   1.001   1.534
14284TIP3   OH242796   3.935   0.426   0.902
14284TIP3    H142797   3.866   0.363   0.882
14284TIP3    H242798   3.888   0.504   0.930
14285TIP3   OH242799   4.660   0.122   0.776
14285TIP3    H142800   4.593   0.074   0.825
14285TIP3    H242801   4.685   0.062   0.705
14286TIP3   OH242802   2.889   5.697   0.037
14286TIP3    H142803   2.820   5.631   0.038
14286TIP3    H242804   2.856   5.767  -0.020
14287TIP3   OH242805   0.918   7.494   5.617
14287TIP3    H142806   0.901   7.401   5.630
14287TIP3    H242807   0.942   7.527   5.703
14288TIP3   OH242808   5.779   3.622   4.472
14288TIP3    H142809   5.714   3.637   4.402
14288TIP3    H242810   5.860   3.603   4.425
14289TIP3   OH242811   3.137   6.520   3.753
14289TIP3    H142812   3.042   6.519   3.765
14289TIP3    H242813   3.150   6.497   3.660
14290TIP3   OH242814   3.698   2.923   5.273
14290TIP3    H142815   3.772   2.944   5.216
14290TIP3    H242816   3.675   3.007   5.314
14291TIP3   OH242817   5.081   0.366   2.716
14291TIP3    H142818   5.110   0.290   2.766
14291TIP3    H242819   4.989   0.378   2.742
14292TIP3   OH242820   8.180   3.552   6.312
14292TIP3    H142821   8.180   3.621   6.246
14292TIP3    H242822   8.238   3.585   6.381
14293TIP3   OH242823   6.846   5.694   3.446
14293TIP3    H142824   6.896   5.649   3.514
14293TIP3    H242825   6.771   5.731   3.492
14294TIP3   OH242826   2.500   5.189   0.304
14294TIP3    H142827   2.432   5.254   0.288
14294TIP3    H242828   2.469   5.141   0.382
14295TIP3   OH242829   7.923   6.798   6.111
14295TIP3    H142830   7.907   6.834   6.024
14295TIP3    H242831   7.954   6.709   6.096
14296TIP3   OH242832   0.407   4.560   1.622
14296TIP3    H142833   0.330   4.570   1.566
14296TIP3    H242834   0.449   4.645   1.621
14297TIP3   OH242835   2.505   5.354   4.845
14297TIP3    H142836   2.539   5.397   4.923
14297TIP3    H242837   2.473   5.425   4.789
14298TIP3   OH242838   2.273   3.174   0.624
14298TIP3    H142839   2.310   3.138   0.543
14298TIP3    H242840   2.250   3.264   0.602
14299TIP3   OH242841   6.835   6.465   3.016
14299TIP3    H142842   6.872   6.405   2.951
14299TIP3    H242843   6.796   6.407   3.082
14300TIP3   OH242844   1.134   3.821   4.698
14300TIP3    H142845   1.114   3.756   4.765
14300TIP3    H242846   1.183   3.889   4.745
14301TIP3   OH242847   1.323   4.344   3.604
14301TIP3    H142848   1.378   4.365   3.528
14301TIP3    H242849   1.311   4.249   3.598
14302TIP3   OH242850   0.572   5.817   3.216
14302TIP3    H142851   0.643   5.851   3.161
14302TIP3    H242852   0.508   5.888   3.218
14303TIP3   OH242853   3.530   7.514   2.329
14303TIP3    H142854   3.542   7.438   2.385
14303TIP3    H242855   3.573   7.490   2.247
14304TIP3   OH242856   0.327   6.678   5.479
14304TIP3    H142857   0.295   6.599   5.436
14304TIP3    H242858   0.249   6.734   5.486
14305TIP3   OH242859   6.228   2.360   6.321
14305TIP3    H142860   6.299   2.374   6.258
14305TIP3    H242861   6.271   2.359   6.407
14306TIP3   OH242862   1.385   3.601   4.805
14306TIP3    H142863   1.459   3.550   4.771
14306TIP3    H242864   1.312   3.539   4.808
14307TIP3   OH242865   4.709   0.521   3.858
14307TIP3    H142866   4.767   0.450   3.829
14307TIP3    H242867   4.657   0.543   3.780
14308TIP3   OH242868   5.566   3.047   4.762
14308TIP3    H142869   5.536   3.010   4.679
14308TIP3    H242870   5.567   3.142   4.746
14309TIP3   OH242871   6.753   5.901   3.942
14309TIP3    H142872   6.662   5.874   3.953
14309TIP3    H242873   6.802   5.818   3.939
14310TIP3   OH242874   1.750   1.915   0.731
14310TIP3    H142875   1.823   1.885   0.677
14310TIP3    H242876   1.677   1.859   0.707
14311TIP3   OH242877   1.966   1.848   0.593
14311TIP3    H142878   2.025   1.802   0.533
14311TIP3    H242879   1.956   1.935   0.555
14312TIP3   OH242880   4.777   0.428   6.273
14312TIP3    H142881   4.725   0.508   6.267
14312TIP3    H242882   4.714   0.357   6.264
14313TIP3   OH242883   4.404   0.186   1.359
14313TIP3    H142884   4.476   0.245   1.382
14313TIP3    H242885   4.368   0.222   1.278
14314TIP3   OH242886   1.164   5.603   0.463
14314TIP3    H142887   1.139   5.545   0.536
14314TIP3    H242888   1.118   5.567   0.387
14315TIP3   OH242889   2.311   0.223   5.111
14315TIP3    H142890   2.393   0.200   5.155
14315TIP3    H242891   2.312   0.170   5.031
14316TIP3   OH242892   8.215   0.229   3.830
14316TIP3    H142893   8.200   0.173   3.754
14316TIP3    H242894   8.264   0.173   3.891
14317TIP3   OH242895   4.095   4.813   2.708
14317TIP3    H142896   4.134   4.752   2.646
14317TIP3    H242897   4.131   4.789   2.793
14318TIP3   OH242898   4.809   0.881   0.405
14318TIP3    H142899   4.722   0.843   0.418
14318TIP3    H242900   4.802   0.969   0.441
14319TIP3   OH242901   5.587   1.102   1.477
14319TIP3    H142902   5.518   1.074   1.417
14319TIP3    H242903   5.612   1.189   1.446
14320TIP3   OH242904   0.588   6.199   1.276
14320TIP3    H142905   0.538   6.148   1.339
14320TIP3    H242906   0.650   6.249   1.329
14321TIP3   OH242907   0.243   2.976   3.676
14321TIP3    H142908   0.289   3.050   3.716
14321TIP3    H242909   0.164   2.965   3.730
14322TIP3   OH242910   1.621   0.321   2.940
14322TIP3    H142911   1.668   0.377   2.878
14322TIP3    H242912   1.588   0.249   2.886
14323TIP3   OH242913   4.610   4.443   4.921
14323TIP3    H142914   4.536   4.498   4.896
14323TIP3    H242915   4.685   4.502   4.924
14324TIP3   OH242916   5.595   1.981   2.245
14324TIP3    H142917   5.524   2.005   2.304
14324TIP3    H242918   5.617   2.063   2.200
14325TIP3   OH242919   6.353   4.527   0.211
14325TIP3    H142920   6.405   4.577   0.148
14325TIP3    H242921   6.273   4.506   0.164
14326TIP3   OH242922   8.201   3.015   4.814
14326TIP3    H142923   8.271   3.078   4.829
14326TIP3    H242924   8.127   3.049   4.864
14327TIP3   OH242925   4.871   6.844   3.961
14327TIP3    H142926   4.863   6.804   4.048
14327TIP3    H242927   4.861   6.770   3.900
14328TIP3   OH242928   7.418   0.918   2.388
14328TIP3    H142929   7.362   0.905   2.464
14328TIP3    H242930   7.499   0.872   2.409
14329TIP3   OH242931   2.513   4.012   0.242
14329TIP3    H142932   2.475   3.924   0.237
14329TIP3    H242933   2.585   4.004   0.305
14330TIP3   OH242934   3.689   1.200   2.681
14330TIP3    H142935   3.707   1.167   2.593
14330TIP3    H242936   3.726   1.135   2.739
14331TIP3   OH242937   8.092   5.550   0.612
14331TIP3    H142938   8.143   5.631   0.615
14331TIP3    H242939   8.059   5.538   0.701
14332TIP3   OH242940   0.310   7.285   1.470
14332TIP3    H142941   0.401   7.316   1.464
14332TIP3    H242942   0.318   7.192   1.491
14333TIP3   OH242943   1.961   0.881   6.593
14333TIP3    H142944   1.977   0.807   6.535
14333TIP3    H242945   2.034   0.940   6.578
14334TIP3   OH242946   0.498   4.182   5.426
14334TIP3    H142947   0.424   4.166   5.485
14334TIP3    H242948   0.478   4.130   5.348
14335TIP3   OH242949   1.361   5.545   6.536
14335TIP3    H142950   1.286   5.515   6.484
14335TIP3    H242951   1.328   5.621   6.583
14336TIP3   OH242952   3.817   2.543   3.915
14336TIP3    H142953   3.873   2.488   3.969
14336TIP3    H242954   3.778   2.483   3.851
14337TIP3   OH242955   0.418   1.328   1.099
14337TIP3    H142956   0.460   1.363   1.021
14337TIP3    H242957   0.440   1.235   1.098
14338TIP3   OH242958   3.211   2.646   6.040
14338TIP3    H142959   3.227   2.622   6.131
14338TIP3    H242960   3.242   2.736   6.033
14339TIP3   OH242961   6.935   1.765   4.130
14339TIP3    H142962   7.013   1.797   4.176
14339TIP3    H242963   6.929   1.673   4.156
14340TIP3   OH242964   1.272   0.340   5.663
14340TIP3    H142965   1.247   0.253   5.631
14340TIP3    H242966   1.324   0.378   5.593
14341TIP3   OH242967   3.794   1.447   4.513
14341TIP3    H142968   3.721   1.501   4.542
14341TIP3    H242969   3.840   1.501   4.449
14342TIP3   OH242970   5.798   1.125   2.546
14342TIP3    H142971   5.845   1.187   2.602
14342TIP3    H242972   5.754   1.066   2.606
14343TIP3   OH242973   4.724   6.629   5.395
14343TIP3    H142974   4.780   6.639   5.318
14343TIP3    H242975   4.749   6.545   5.432
14344TIP3   OH242976   2.336   7.196   6.381
14344TIP3    H142977   2.410   7.214   6.322
14344TIP3    H242978   2.268   7.161   6.325
14345TIP3   OH242979   3.881   6.353   2.495
14345TIP3    H142980   3.864   6.284   2.431
14345TIP3    H242981   3.830   6.428   2.463
14346TIP3   OH242982   3.445   0.500   0.361
14346TIP3    H142983   3.448   0.424   0.419
14346TIP3    H242984   3.370   0.551   0.391
14347TIP3   OH242985   0.208   4.643   2.844
14347TIP3    H142986   0.292   4.666   2.885
14347TIP3    H242987   0.198   4.550   2.862
14348TIP3   OH242988   4.349   3.521   4.220
14348TIP3    H142989   4.388   3.518   4.133
14348TIP3    H242990   4.256   3.505   4.205
14349TIP3   OH242991   3.992   4.951   2.040
14349TIP3    H142992   4.042   4.869   2.042
14349TIP3    H242993   3.936   4.943   1.963
14350TIP3   OH242994   6.703   1.816   0.688
14350TIP3    H142995   6.732   1.901   0.720
14350TIP3    H242996   6.669   1.772   0.766
14351TIP3   OH242997   7.653   2.552   2.999
14351TIP3    H142998   7.683   2.600   2.922
14351TIP3    H242999   7.635   2.620   3.064
14352TIP3   OH243000   4.538   3.723   1.029
14352TIP3    H143001   4.507   3.755   0.944
14352TIP3    H243002   4.591   3.647   1.008
14353TIP3   OH243003   6.597   6.197   3.936
14353TIP3    H143004   6.557   6.283   3.940
14353TIP3    H243005   6.676   6.203   3.990
14354TIP3   OH243006   2.031   1.678   6.351
14354TIP3    H143007   2.071   1.761   6.376
14354TIP3    H243008   1.981   1.698   6.272
14355TIP3   OH243009   4.972   6.850   3.410
14355TIP3    H143010   5.015   6.767   3.391
14355TIP3    H243011   5.044   6.913   3.416
14356TIP3   OH243012   2.587   5.329   3.391
14356TIP3    H143013   2.673   5.352   3.355
14356TIP3    H243014   2.606   5.266   3.460
14357TIP3   OH243015   0.466   1.741   6.617
14357TIP3    H143016   0.498   1.816   6.666
14357TIP3    H243017   0.466   1.669   6.681
14358TIP3   OH243018   0.710   7.216   3.591
14358TIP3    H143019   0.752   7.197   3.507
14358TIP3    H243020   0.653   7.291   3.572
14359TIP3   OH243021   3.764   1.488   2.506
14359TIP3    H143022   3.754   1.564   2.449
14359TIP3    H243023   3.681   1.482   2.553
14360TIP3   OH243024   2.170   3.723   3.177
14360TIP3    H143025   2.199   3.762   3.095
14360TIP3    H243026   2.201   3.784   3.245
14361TIP3   OH243027   1.848   7.418   4.338
14361TIP3    H143028   1.904   7.472   4.393
14361TIP3    H243029   1.863   7.328   4.368
14362TIP3   OH243030   7.651   7.765   4.323
14362TIP3    H143031   7.597   7.783   4.246
14362TIP3    H243032   7.663   7.670   4.323
14363TIP3   OH243033   2.784   6.522   1.629
14363TIP3    H143034   2.843   6.598   1.631
14363TIP3    H243035   2.843   6.447   1.617
14364TIP3   OH243036   8.017   1.422   1.585
14364TIP3    H143037   8.061   1.450   1.666
14364TIP3    H243038   7.992   1.503   1.542
14365TIP3   OH243039   1.538   4.449   5.238
14365TIP3    H143040   1.490   4.396   5.302
14365TIP3    H243041   1.480   4.523   5.220
14366TIP3   OH243042   7.472   0.700   6.743
14366TIP3    H143043   7.561   0.729   6.722
14366TIP3    H243044   7.483   0.608   6.768
14367TIP3   OH243045   4.535   7.063   4.252
14367TIP3    H143046   4.499   7.148   4.277
14367TIP3    H243047   4.622   7.084   4.217
14368TIP3   OH243048   8.012   3.076   6.236
14368TIP3    H143049   8.018   3.172   6.232
14368TIP3    H243050   8.018   3.048   6.144
14369TIP3   OH243051   2.361   4.883   3.222
14369TIP3    H143052   2.395   4.973   3.225
14369TIP3    H243053   2.310   4.880   3.141
14370TIP3   OH243054   8.007   0.588   1.689
14370TIP3    H143055   8.029   0.538   1.610
14370TIP3    H243056   7.949   0.530   1.738
14371TIP3   OH243057   0.198   7.380   0.892
14371TIP3    H143058   0.119   7.431   0.877
14371TIP3    H243059   0.260   7.412   0.826
14372TIP3   OH243060   2.328   0.747   5.639
14372TIP3    H143061   2.408   0.703   5.611
14372TIP3    H243062   2.356   0.809   5.707
14373TIP3   OH243063   0.095   0.682   5.632
14373TIP3    H143064   0.181   0.666   5.669
14373TIP3    H243065   0.113   0.732   5.552
14374TIP3   OH243066   4.871   5.377   0.040
14374TIP3    H143067   4.816   5.305   0.070
14374TIP3    H243068   4.826   5.411  -0.038
14375TIP3   OH243069   4.387   1.032   3.736
14375TIP3    H143070   4.306   1.039   3.687
14375TIP3    H243071   4.432   0.956   3.699
14376TIP3   OH243072   3.618   4.726   0.104
14376TIP3    H143073   3.680   4.796   0.127
14376TIP3    H243074   3.630   4.660   0.172
14377TIP3   OH243075   6.502   2.724   2.599
14377TIP3    H143076   6.598   2.723   2.606
14377TIP3    H243077   6.474   2.785   2.667
14378TIP3   OH243078   2.831   1.691   5.976
14378TIP3    H143079   2.834   1.784   5.956
14378TIP3    H243080   2.899   1.679   6.043
14379TIP3   OH243081   1.537   1.724   3.941
14379TIP3    H143082   1.452   1.763   3.921
14379TIP3    H243083   1.526   1.631   3.918
14380TIP3   OH243084   1.717   7.802   0.506
14380TIP3    H143085   1.756   7.723   0.544
14380TIP3    H243086   1.629   7.776   0.480
14381TIP3   OH243087   7.299   2.556   3.800
14381TIP3    H143088   7.304   2.533   3.707
14381TIP3    H243089   7.320   2.474   3.845
14382TIP3   OH243090   3.537   6.009   3.034
14382TIP3    H143091   3.540   5.920   3.071
14382TIP3    H243092   3.477   6.056   3.091
14383TIP3   OH243093   1.614   4.151   6.684
14383TIP3    H143094   1.633   4.136   6.592
14383TIP3    H243095   1.616   4.064   6.724
14384TIP3   OH243096   3.222   5.089   3.291
14384TIP3    H143097   3.291   5.155   3.281
14384TIP3    H243098   3.213   5.079   3.386
14385TIP3   OH243099   0.828   7.253   4.056
14385TIP3    H143100   0.860   7.343   4.063
14385TIP3    H243101   0.735   7.259   4.080
14386TIP3   OH243102   0.910   5.041   0.956
14386TIP3    H143103   0.906   4.985   0.878
14386TIP3    H243104   0.894   5.129   0.923
14387TIP3   OH243105   4.918   0.975   4.395
14387TIP3    H143106   4.945   0.889   4.426
14387TIP3    H243107   4.825   0.966   4.374
14388TIP3   OH243108   5.329   4.834   2.396
14388TIP3    H143109   5.242   4.849   2.358
14388TIP3    H243110   5.312   4.810   2.487
14389TIP3   OH243111   6.340   4.795   0.410
14389TIP3    H143112   6.268   4.743   0.444
14389TIP3    H243113   6.303   4.840   0.334
14390TIP3   OH243114   0.597   5.519   1.067
14390TIP3    H143115   0.595   5.610   1.037
14390TIP3    H243116   0.505   5.498   1.084
14391TIP3   OH243117   5.629   7.631   5.708
14391TIP3    H143118   5.555   7.643   5.766
14391TIP3    H243119   5.696   7.588   5.762
14392TIP3   OH243120   6.504   4.253   2.220
14392TIP3    H143121   6.419   4.276   2.183
14392TIP3    H243122   6.558   4.229   2.145
14393TIP3   OH243123   7.197   1.358   1.307
14393TIP3    H143124   7.168   1.313   1.228
14393TIP3    H243125   7.200   1.450   1.282
14394TIP3   OH243126   2.527   0.988   3.417
14394TIP3    H143127   2.594   1.024   3.476
14394TIP3    H243128   2.561   0.901   3.393
14395TIP3   OH243129   2.450   4.831   3.802
14395TIP3    H143130   2.450   4.741   3.772
14395TIP3    H243131   2.522   4.872   3.755
14396TIP3   OH243132   1.182   7.653   2.784
14396TIP3    H143133   1.257   7.667   2.842
14396TIP3    H243134   1.133   7.736   2.788
14397TIP3   OH243135   4.934   3.323   4.887
14397TIP3    H143136   4.946   3.278   4.971
14397TIP3    H243137   4.843   3.352   4.889
14398TIP3   OH243138   5.248   0.817   3.277
14398TIP3    H143139   5.297   0.892   3.243
14398TIP3    H243140   5.274   0.812   3.370
14399TIP3   OH243141   0.844   0.669   4.379
14399TIP3    H143142   0.758   0.635   4.403
14399TIP3    H243143   0.905   0.598   4.400
14400TIP3   OH243144   3.251   1.002   5.331
14400TIP3    H143145   3.270   1.090   5.362
14400TIP3    H243146   3.258   1.008   5.235
14401TIP3   OH243147   4.533   1.019   5.379
14401TIP3    H143148   4.491   1.105   5.372
14401TIP3    H243149   4.570   1.003   5.293
14402TIP3   OH243150   7.811   1.293   6.677
14402TIP3    H143151   7.846   1.354   6.742
14402TIP3    H243152   7.888   1.252   6.638
14403TIP3   OH243153   0.891   7.738   5.480
14403TIP3    H143154   0.955   7.780   5.537
14403TIP3    H243155   0.905   7.644   5.493
14404TIP3   OH243156   4.395   0.537   1.335
14404TIP3    H143157   4.444   0.505   1.260
14404TIP3    H243158   4.442   0.616   1.363
14405TIP3   OH243159   2.708   2.083   2.903
14405TIP3    H143160   2.794   2.078   2.944
14405TIP3    H243161   2.681   1.992   2.892
14406TIP3   OH243162   6.589   7.152   3.313
14406TIP3    H143163   6.612   7.072   3.266
14406TIP3    H243164   6.671   7.201   3.319
14407TIP3   OH243165   3.578   7.827   2.067
14407TIP3    H143166   3.673   7.832   2.062
14407TIP3    H243167   3.552   7.779   1.989
14408TIP3   OH243168   4.389   3.452   1.983
14408TIP3    H143169   4.364   3.443   1.891
14408TIP3    H243170   4.378   3.545   2.002
14409TIP3   OH243171   8.036   2.262   5.051
14409TIP3    H143172   8.010   2.349   5.021
14409TIP3    H243173   8.033   2.207   4.973
14410TIP3   OH243174   8.197   1.365   1.328
14410TIP3    H143175   8.130   1.417   1.284
14410TIP3    H243176   8.187   1.387   1.421
14411TIP3   OH243177   5.386   4.047   3.688
14411TIP3    H143178   5.466   4.034   3.740
14411TIP3    H243179   5.364   4.139   3.700
14412TIP3   OH243180   7.285   7.164   4.073
14412TIP3    H143181   7.251   7.239   4.026
14412TIP3    H243182   7.208   7.123   4.111
14413TIP3   OH243183   7.827   4.162   5.440
14413TIP3    H143184   7.863   4.222   5.506
14413TIP3    H243185   7.741   4.137   5.475
14414TIP3   OH243186   7.114   5.503   2.745
14414TIP3    H143187   7.172   5.540   2.678
14414TIP3    H243188   7.124   5.562   2.820
14415TIP3   OH243189   8.262   1.118   4.419
14415TIP3    H143190   8.222   1.041   4.378
14415TIP3    H243191   8.217   1.192   4.379
14416TIP3   OH243192   4.901   4.231   2.411
14416TIP3    H143193   4.856   4.291   2.351
14416TIP3    H243194   4.941   4.287   2.477
14417TIP3   OH243195   5.763   5.955   0.570
14417TIP3    H143196   5.711   5.971   0.648
14417TIP3    H243197   5.753   5.861   0.554
14418TIP3   OH243198   0.143   7.151   3.075
14418TIP3    H143199   0.208   7.204   3.120
14418TIP3    H243200   0.148   7.178   2.984
14419TIP3   OH243201   6.703   1.903   0.418
14419TIP3    H143202   6.696   1.873   0.508
14419TIP3    H243203   6.777   1.963   0.418
14420TIP3   OH243204   2.851   1.806   0.237
14420TIP3    H143205   2.901   1.816   0.319
14420TIP3    H243206   2.789   1.878   0.238
14421TIP3   OH243207   6.504   1.016   3.555
14421TIP3    H143208   6.545   1.050   3.475
14421TIP3    H243209   6.413   0.998   3.530
14422TIP3   OH243210   0.539   2.994   4.497
14422TIP3    H143211   0.464   2.934   4.503
14422TIP3    H243212   0.561   3.014   4.588
14423TIP3   OH243213   5.602   2.026   5.007
14423TIP3    H143214   5.581   2.007   5.099
14423TIP3    H243215   5.645   2.112   5.010
14424TIP3   OH243216   4.772   4.165   3.789
14424TIP3    H143217   4.780   4.140   3.697
14424TIP3    H243218   4.817   4.096   3.837
14425TIP3   OH243219   7.073   2.325   4.639
14425TIP3    H143220   7.056   2.346   4.548
14425TIP3    H243221   7.002   2.368   4.687
14426TIP3   OH243222   2.368   3.053   1.165
14426TIP3    H143223   2.375   3.048   1.069
14426TIP3    H243224   2.296   2.994   1.186
14427TIP3   OH243225   3.092   0.353   1.818
14427TIP3    H143226   3.067   0.378   1.729
14427TIP3    H243227   3.149   0.423   1.848
14428TIP3   OH243228   0.446   2.272   2.467
14428TIP3    H143229   0.541   2.267   2.477
14428TIP3    H243230   0.433   2.301   2.377
14429TIP3   OH243231   6.026   1.461   5.336
14429TIP3    H143232   6.047   1.388   5.394
14429TIP3    H243233   5.948   1.433   5.289
14430TIP3   OH243234   4.950   1.686   0.116
14430TIP3    H143235   5.024   1.645   0.071
14430TIP3    H243236   4.884   1.616   0.122
14431TIP3   OH243237   0.302   7.005   1.585
14431TIP3    H143238   0.362   7.023   1.657
14431TIP3    H243239   0.359   6.981   1.512
14432TIP3   OH243240   6.982   7.080   3.807
14432TIP3    H143241   6.921   7.046   3.741
14432TIP3    H243242   7.064   7.035   3.790
14433TIP3   OH243243   2.999   4.314   5.687
14433TIP3    H143244   3.002   4.399   5.641
14433TIP3    H243245   3.019   4.250   5.619
14434TIP3   OH243246   2.589   2.669   1.361
14434TIP3    H143247   2.567   2.646   1.451
14434TIP3    H243248   2.591   2.764   1.360
14435TIP3   OH243249   3.710   6.658   6.386
14435TIP3    H143250   3.747   6.605   6.457
14435TIP3    H243251   3.778   6.723   6.368
14436TIP3   OH243252   1.370   7.412   0.291
14436TIP3    H143253   1.411   7.437   0.374
14436TIP3    H243254   1.291   7.363   0.317
14437TIP3   OH243255   7.184   6.177   6.158
14437TIP3    H143256   7.206   6.099   6.108
14437TIP3    H243257   7.133   6.231   6.097
14438TIP3   OH243258   0.218   3.798   0.569
14438TIP3    H143259   0.223   3.886   0.533
14438TIP3    H243260   0.216   3.741   0.492
14439TIP3   OH243261   3.511   3.274   2.107
14439TIP3    H143262   3.551   3.324   2.178
14439TIP3    H243263   3.432   3.237   2.146
14440TIP3   OH243264   8.316   2.713   3.900
14440TIP3    H143265   8.239   2.766   3.922
14440TIP3    H243266   8.301   2.685   3.810
14441TIP3   OH243267   1.028   7.536   4.906
14441TIP3    H143268   1.121   7.547   4.886
14441TIP3    H243269   1.000   7.464   4.849
14442TIP3   OH243270   5.590   6.337   3.816
14442TIP3    H143271   5.624   6.303   3.734
14442TIP3    H243272   5.550   6.262   3.860
14443TIP3   OH243273   7.726   5.114   6.720
14443TIP3    H143274   7.775   5.161   6.787
14443TIP3    H243275   7.672   5.052   6.770
14444TIP3   OH243276   8.210   6.340   6.537
14444TIP3    H143277   8.189   6.432   6.521
14444TIP3    H243278   8.164   6.320   6.619
14445TIP3   OH243279   1.342   4.859   1.879
14445TIP3    H143280   1.254   4.893   1.899
14445TIP3    H243281   1.355   4.788   1.941
14446TIP3   OH243282   7.350   5.123   3.112
14446TIP3    H143283   7.320   5.172   3.036
14446TIP3    H243284   7.388   5.189   3.170
14447TIP3   OH243285   3.783   7.171   6.178
14447TIP3    H143286   3.777   7.092   6.231
14447TIP3    H243287   3.840   7.147   6.105
14448TIP3   OH243288   3.122   1.579   3.105
14448TIP3    H143289   3.217   1.572   3.119
14448TIP3    H243290   3.084   1.540   3.184
14449TIP3   OH243291   7.113   2.040   0.278
14449TIP3    H143292   7.162   2.096   0.217
14449TIP3    H243293   7.075   1.972   0.223
14450TIP3   OH243294   3.336   2.865   0.888
14450TIP3    H143295   3.376   2.792   0.841
14450TIP3    H243296   3.242   2.854   0.873
14451TIP3   OH243297   6.231   4.934   5.673
14451TIP3    H143298   6.174   4.983   5.613
14451TIP3    H243299   6.223   4.979   5.757
14452TIP3   OH243300   4.592   3.993   2.270
14452TIP3    H143301   4.574   3.979   2.177
14452TIP3    H243302   4.603   4.088   2.278
14453TIP3   OH243303   2.169   4.804   4.812
14453TIP3    H143304   2.140   4.716   4.789
14453TIP3    H243305   2.141   4.859   4.739
14454TIP3   OH243306   0.688   7.036   5.623
14454TIP3    H143307   0.657   7.010   5.709
14454TIP3    H243308   0.610   7.031   5.567
14455TIP3   OH243309   4.425   1.925   5.545
14455TIP3    H143310   4.415   2.016   5.572
14455TIP3    H243311   4.336   1.896   5.526
14456TIP3   OH243312   4.058   1.107   5.722
14456TIP3    H143313   4.143   1.139   5.691
14456TIP3    H243314   4.073   1.016   5.745
14457TIP3   OH243315   2.648   0.329   0.693
14457TIP3    H143316   2.697   0.270   0.751
14457TIP3    H243317   2.578   0.363   0.748
14458TIP3   OH243318   0.950   1.299   6.702
14458TIP3    H143319   0.885   1.335   6.761
14458TIP3    H243320   0.916   1.212   6.678
14459TIP3   OH243321   4.098   0.222   5.646
14459TIP3    H143322   4.139   0.195   5.729
14459TIP3    H243323   4.155   0.291   5.613
14460TIP3   OH243324   0.226   3.472   3.024
14460TIP3    H143325   0.243   3.385   3.060
14460TIP3    H243326   0.313   3.505   3.001
14461TIP3   OH243327   6.182   1.785   3.291
14461TIP3    H143328   6.218   1.800   3.204
14461TIP3    H243329   6.231   1.710   3.325
14462TIP3   OH243330   7.441   5.131   0.356
14462TIP3    H143331   7.449   5.141   0.451
14462TIP3    H243332   7.410   5.041   0.344
14463TIP3   OH243333   7.900   4.840   6.609
14463TIP3    H143334   7.904   4.867   6.517
14463TIP3    H243335   7.967   4.893   6.652
14464TIP3   OH243336   5.131   4.170   3.918
14464TIP3    H143337   5.068   4.098   3.916
14464TIP3    H243338   5.083   4.243   3.958
14465TIP3   OH243339   4.073   0.336   3.109
14465TIP3    H143340   4.105   0.385   3.034
14465TIP3    H243341   4.133   0.262   3.118
14466TIP3   OH243342   6.490   6.461   2.939
14466TIP3    H143343   6.435   6.395   2.897
14466TIP3    H243344   6.443   6.484   3.019
14467TIP3   OH243345   7.451   4.545   4.297
14467TIP3    H143346   7.410   4.537   4.383
14467TIP3    H243347   7.446   4.457   4.259
14468TIP3   OH243348   7.664   4.786   6.139
14468TIP3    H143349   7.712   4.731   6.077
14468TIP3    H243350   7.695   4.875   6.121
14469TIP3   OH243351   2.980   3.422   6.476
14469TIP3    H143352   2.951   3.512   6.466
14469TIP3    H243353   3.024   3.402   6.393
14470TIP3   OH243354   0.121   5.182   1.598
14470TIP3    H143355   0.141   5.195   1.691
14470TIP3    H243356   0.189   5.231   1.553
14471TIP3   OH243357   0.014   1.841   2.816
14471TIP3    H143358   0.046   1.765   2.864
14471TIP3    H243359   0.038   1.916   2.870
14472TIP3   OH243360   2.590   2.687  -0.001
14472TIP3    H143361   2.662   2.632   0.029
14472TIP3    H243362   2.512   2.649   0.039
14473TIP3   OH243363   0.997   1.884   6.253
14473TIP3    H143364   0.928   1.836   6.298
14473TIP3    H243365   0.955   1.965   6.224
14474TIP3   OH243366   4.682   0.651   5.684
14474TIP3    H143367   4.665   0.557   5.682
14474TIP3    H243368   4.612   0.687   5.739
14475TIP3   OH243369   6.467   0.417   5.248
14475TIP3    H143370   6.545   0.471   5.232
14475TIP3    H243371   6.473   0.346   5.184
14476TIP3   OH243372   0.472   3.253   0.182
14476TIP3    H143373   0.441   3.340   0.157
14476TIP3    H243374   0.406   3.193   0.146
14477TIP3   OH243375   5.781   0.668   0.113
14477TIP3    H143376   5.697   0.649   0.155
14477TIP3    H243377   5.833   0.710   0.182
14478TIP3   OH243378   8.062   3.534   5.977
14478TIP3    H143379   8.154   3.509   5.970
14478TIP3    H243380   8.065   3.625   6.007
14479TIP3   OH243381   6.631   4.874   2.342
14479TIP3    H143382   6.549   4.923   2.333
14479TIP3    H243383   6.605   4.782   2.333
14480TIP3   OH243384   7.409   7.660   4.678
14480TIP3    H143385   7.382   7.677   4.768
14480TIP3    H243386   7.498   7.693   4.672
14481TIP3   OH243387   1.987   3.398   6.752
14481TIP3    H143388   2.055   3.422   6.815
14481TIP3    H243389   2.026   3.328   6.699
14482TIP3   OH243390   4.226   6.442   0.604
14482TIP3    H143391   4.152   6.500   0.621
14482TIP3    H243392   4.225   6.379   0.676
14483TIP3   OH243393   6.025   6.531   4.696
14483TIP3    H143394   6.026   6.467   4.626
14483TIP3    H243395   5.935   6.530   4.729
14484TIP3   OH243396   0.053   1.662   4.201
14484TIP3    H143397   0.012   1.749   4.206
14484TIP3    H243398   0.001   1.608   4.260
14485TIP3   OH243399   2.377   2.433   2.512
14485TIP3    H143400   2.330   2.350   2.521
14485TIP3    H243401   2.455   2.410   2.461
14486TIP3   OH243402   6.275   1.770   4.315
14486TIP3    H143403   6.301   1.688   4.273
14486TIP3    H243404   6.197   1.798   4.267
14487TIP3   OH243405   7.136   3.321   6.283
14487TIP3    H143406   7.127   3.298   6.191
14487TIP3    H243407   7.049   3.308   6.320
14488TIP3   OH243408   7.241   2.986   1.939
14488TIP3    H143409   7.317   2.930   1.956
14488TIP3    H243410   7.244   3.003   1.845
14489TIP3   OH243411   6.094   3.779   3.251
14489TIP3    H143412   6.029   3.709   3.253
14489TIP3    H243413   6.047   3.854   3.215
14490TIP3   OH243414   0.926   0.299   6.096
14490TIP3    H143415   0.964   0.258   6.173
14490TIP3    H243416   0.841   0.256   6.085
14491TIP3   OH243417   1.269   1.458   6.180
14491TIP3    H143418   1.216   1.379   6.185
14491TIP3    H243419   1.208   1.529   6.197
14492TIP3   OH243420   7.891   4.166   4.765
14492TIP3    H143421   7.815   4.155   4.823
14492TIP3    H243422   7.955   4.214   4.819
14493TIP3   OH243423   7.459   6.223   4.696
14493TIP3    H143424   7.462   6.141   4.744
14493TIP3    H243425   7.366   6.241   4.683
14494TIP3   OH243426   5.345   3.068   0.028
14494TIP3    H143427   5.383   3.041  -0.055
14494TIP3    H243428   5.381   3.155   0.044
14495TIP3   OH243429   5.548   4.898   3.932
14495TIP3    H143430   5.576   4.826   3.989
14495TIP3    H243431   5.628   4.949   3.919
14496TIP3   OH243432   6.396   7.351   6.670
14496TIP3    H143433   6.337   7.296   6.619
14496TIP3    H243434   6.480   7.305   6.668
14497TIP3   OH243435   1.906   7.152   2.862
14497TIP3    H143436   1.919   7.136   2.956
14497TIP3    H243437   1.914   7.066   2.821
14498TIP3   OH243438   5.892   5.213   5.705
14498TIP3    H143439   5.977   5.180   5.736
14498TIP3    H243440   5.915   5.279   5.639
14499TIP3   OH243441   6.139   2.524   3.932
14499TIP3    H143442   6.082   2.599   3.918
14499TIP3    H243443   6.086   2.448   3.906
14500TIP3   OH243444   5.544   1.592   6.095
14500TIP3    H143445   5.537   1.584   6.190
14500TIP3    H243446   5.460   1.629   6.068
14501TIP3   OH243447   5.977   7.339   5.595
14501TIP3    H143448   5.997   7.279   5.523
14501TIP3    H243449   5.909   7.293   5.645
14502TIP3   OH243450   6.123   0.579   2.044
14502TIP3    H143451   6.086   0.610   2.127
14502TIP3    H243452   6.214   0.559   2.065
14503TIP3   OH243453   6.842   4.106   4.162
14503TIP3    H143454   6.888   4.108   4.079
14503TIP3    H243455   6.826   4.198   4.183
14504TIP3   OH243456   6.372   0.243   6.062
14504TIP3    H143457   6.335   0.156   6.077
14504TIP3    H243458   6.297   0.298   6.040
14505TIP3   OH243459   7.924   6.206   4.758
14505TIP3    H143460   7.957   6.286   4.717
14505TIP3    H243461   7.843   6.233   4.802
14506TIP3   OH243462   8.094   6.007   0.910
14506TIP3    H143463   8.175   6.041   0.873
14506TIP3    H243464   8.036   5.995   0.835
14507TIP3   OH243465   0.769   4.060   3.595
14507TIP3    H143466   0.698   4.116   3.627
14507TIP3    H243467   0.727   3.976   3.578
14508TIP3   OH243468   0.673   0.140   2.612
14508TIP3    H143469   0.743   0.200   2.586
14508TIP3    H243470   0.710   0.053   2.598
14509TIP3   OH243471   2.857   4.319   0.028
14509TIP3    H143472   2.848   4.346  -0.063
14509TIP3    H243473   2.769   4.324   0.064
14510TIP3   OH243474   2.755   6.599   0.638
14510TIP3    H143475   2.830   6.544   0.658
14510TIP3    H243476   2.783   6.687   0.664
14511TIP3   OH243477   3.041   3.512   5.363
14511TIP3    H143478   2.972   3.473   5.416
14511TIP3    H243479   3.016   3.493   5.273
14512TIP3   OH243480   7.164   0.089   5.711
14512TIP3    H143481   7.186   0.182   5.712
14512TIP3    H243482   7.167   0.063   5.803
14513TIP3   OH243483   1.576   2.926   6.062
14513TIP3    H143484   1.503   2.868   6.039
14513TIP3    H243485   1.654   2.880   6.032
14514TIP3   OH243486   4.090   2.291   6.069
14514TIP3    H143487   4.065   2.221   6.131
14514TIP3    H243488   4.134   2.245   5.998
14515TIP3   OH243489   5.915   6.865   3.112
14515TIP3    H143490   5.909   6.804   3.185
14515TIP3    H243491   5.975   6.933   3.142
14516TIP3   OH243492   7.943   0.861   5.418
14516TIP3    H143493   7.878   0.830   5.481
14516TIP3    H243494   8.027   0.850   5.464
14517TIP3   OH243495   7.980   0.853   3.249
14517TIP3    H143496   7.906   0.895   3.293
14517TIP3    H243497   8.055   0.870   3.305
14518TIP3   OH243498   7.841   3.482   0.588
14518TIP3    H143499   7.756   3.449   0.558
14518TIP3    H243500   7.834   3.577   0.582
14519TIP3   OH243501   7.954   7.041   4.954
14519TIP3    H143502   7.862   7.024   4.936
14519TIP3    H243503   7.984   7.092   4.879
14520TIP3   OH243504   1.803   5.605   2.493
14520TIP3    H143505   1.850   5.556   2.426
14520TIP3    H243506   1.775   5.685   2.450
14521TIP3   OH243507   0.309   5.298   0.599
14521TIP3    H143508   0.356   5.224   0.560
14521TIP3    H243509   0.378   5.356   0.631
14522TIP3   OH243510   4.272   4.779   3.551
14522TIP3    H143511   4.238   4.695   3.519
14522TIP3    H243512   4.198   4.818   3.598
14523TIP3   OH243513   6.025   4.089   5.242
14523TIP3    H143514   5.970   4.163   5.216
14523TIP3    H243515   6.102   4.097   5.185
14524TIP3   OH243516   5.771   4.709   5.300
14524TIP3    H143517   5.804   4.794   5.329
14524TIP3    H243518   5.702   4.687   5.362
14525TIP3   OH243519   4.715   7.691   5.672
14525TIP3    H143520   4.684   7.742   5.598
14525TIP3    H243521   4.770   7.751   5.722
14526TIP3   OH243522   1.366   7.764   2.947
14526TIP3    H143523   1.416   7.846   2.942
14526TIP3    H243524   1.417   7.708   3.006
14527TIP3   OH243525   7.054   0.836   6.125
14527TIP3    H143526   6.998   0.776   6.174
14527TIP3    H243527   6.997   0.910   6.104
14528TIP3   OH243528   7.209   1.378   3.640
14528TIP3    H143529   7.236   1.460   3.681
14528TIP3    H243530   7.236   1.387   3.549
14529TIP3   OH243531   4.922   3.075   5.839
14529TIP3    H143532   4.989   3.021   5.881
14529TIP3    H243533   4.972   3.138   5.786
14530TIP3   OH243534   6.787   3.689   3.336
14530TIP3    H143535   6.803   3.674   3.429
14530TIP3    H243536   6.694   3.709   3.331
14531TIP3   OH243537   0.948   5.374   5.525
14531TIP3    H143538   0.853   5.388   5.527
14531TIP3    H243539   0.958   5.287   5.484
14532TIP3   OH243540   1.059   4.807   4.063
14532TIP3    H143541   1.153   4.823   4.070
14532TIP3    H243542   1.037   4.760   4.144
14533TIP3   OH243543   6.029   1.248   5.155
14533TIP3    H143544   6.107   1.303   5.167
14533TIP3    H243545   6.051   1.194   5.079
14534TIP3   OH243546   7.934   6.368   0.222
14534TIP3    H143547   7.937   6.365   0.317
14534TIP3    H243548   7.957   6.459   0.200
14535TIP3   OH243549   0.914   7.160   3.337
14535TIP3    H143550   0.905   7.113   3.254
14535TIP3    H243551   1.007   7.183   3.341
14536TIP3   OH243552   0.389   0.362   2.470
14536TIP3    H143553   0.307   0.324   2.501
14536TIP3    H243554   0.444   0.368   2.548
14537TIP3   OH243555   4.048   6.607   3.795
14537TIP3    H143556   4.116   6.632   3.857
14537TIP3    H243557   4.076   6.645   3.711
14538TIP3   OH243558   1.735   3.021   4.618
14538TIP3    H143559   1.765   3.057   4.701
14538TIP3    H243560   1.724   3.097   4.561
14539TIP3   OH243561   5.103   2.921   3.623
14539TIP3    H143562   5.012   2.941   3.647
14539TIP3    H243563   5.107   2.826   3.620
14540TIP3   OH243564   2.985   7.387   3.891
14540TIP3    H143565   3.075   7.377   3.859
14540TIP3    H243566   2.941   7.306   3.865
14541TIP3   OH243567   2.634   3.977  -0.009
14541TIP3    H143568   2.605   3.986   0.082
14541TIP3    H243569   2.726   4.001  -0.007
14542TIP3   OH243570   3.008   3.280   1.299
14542TIP3    H143571   3.032   3.218   1.368
14542TIP3    H243572   3.047   3.363   1.325
14543TIP3   OH243573   2.364   0.830   6.056
14543TIP3    H143574   2.327   0.746   6.030
14543TIP3    H243575   2.458   0.821   6.039
14544TIP3   OH243576   3.124   5.125   2.020
14544TIP3    H143577   3.216   5.152   2.018
14544TIP3    H243578   3.128   5.033   2.046
14545TIP3   OH243579   4.047   5.890   1.167
14545TIP3    H143580   4.038   5.802   1.204
14545TIP3    H243581   4.073   5.874   1.076
14546TIP3   OH243582   6.960   6.829   5.414
14546TIP3    H143583   6.915   6.894   5.469
14546TIP3    H243584   7.050   6.860   5.409
14547TIP3   OH243585   1.416   6.731   1.933
14547TIP3    H143586   1.331   6.688   1.938
14547TIP3    H243587   1.438   6.752   2.024
14548TIP3   OH243588   0.487   2.807   3.045
14548TIP3    H143589   0.471   2.900   3.031
14548TIP3    H243590   0.579   2.802   3.072
14549TIP3   OH243591   6.270   7.537   5.349
14549TIP3    H143592   6.271   7.472   5.279
14549TIP3    H243593   6.337   7.601   5.323
14550TIP3   OH243594   7.200   7.250   4.636
14550TIP3    H143595   7.291   7.264   4.663
14550TIP3    H243596   7.202   7.171   4.582
14551TIP3   OH243597   3.759   2.921   1.212
14551TIP3    H143598   3.852   2.902   1.196
14551TIP3    H243599   3.742   2.887   1.300
14552TIP3   OH243600   4.079   2.058   4.360
14552TIP3    H143601   4.157   2.081   4.411
14552TIP3    H243602   4.108   2.059   4.269
14553TIP3   OH243603   7.379   4.756   6.660
14553TIP3    H143604   7.335   4.830   6.618
14553TIP3    H243605   7.469   4.760   6.627
14554TIP3   OH243606   7.251   5.515   0.195
14554TIP3    H143607   7.174   5.483   0.148
14554TIP3    H243608   7.283   5.589   0.143
14555TIP3   OH243609   5.292   3.020   5.703
14555TIP3    H143610   5.278   3.083   5.632
14555TIP3    H243611   5.369   2.970   5.676
14556TIP3   OH243612   3.505   7.717   0.053
14556TIP3    H143613   3.481   7.636   0.008
14556TIP3    H243614   3.596   7.705   0.079
14557TIP3   OH243615   3.672   1.504   5.986
14557TIP3    H143616   3.642   1.521   5.896
14557TIP3    H243617   3.631   1.574   6.037
14558TIP3   OH243618   5.075   5.146   0.896
14558TIP3    H143619   5.054   5.115   0.984
14558TIP3    H243620   5.171   5.145   0.893
14559TIP3   OH243621   6.943   4.304   5.010
14559TIP3    H143622   6.876   4.326   4.946
14559TIP3    H243623   6.918   4.217   5.042
14560TIP3   OH243624   5.667   2.010   0.052
14560TIP3    H143625   5.629   2.086   0.097
14560TIP3    H243626   5.646   2.023  -0.040
14561TIP3   OH243627   5.390   3.735   6.034
14561TIP3    H143628   5.427   3.806   5.981
14561TIP3    H243629   5.428   3.748   6.120
14562TIP3   OH243630   2.857   3.876   2.729
14562TIP3    H143631   2.777   3.865   2.676
14562TIP3    H243632   2.899   3.790   2.727
14563TIP3   OH243633   1.234   5.208   0.236
14563TIP3    H143634   1.286   5.157   0.299
14563TIP3    H243635   1.193   5.142   0.180
14564TIP3   OH243636   6.755   0.053   5.663
14564TIP3    H143637   6.723   0.068   5.574
14564TIP3    H243638   6.688  -0.001   5.704
14565TIP3   OH243639   4.382   6.037   6.162
14565TIP3    H143640   4.350   5.947   6.155
14565TIP3    H243641   4.328   6.077   6.229
14566TIP3   OH243642   6.505   1.962   2.885
14566TIP3    H143643   6.536   1.907   2.813
14566TIP3    H243644   6.516   2.051   2.853
14567TIP3   OH243645   5.225   0.040   1.861
14567TIP3    H143646   5.154   0.068   1.804
14567TIP3    H243647   5.207  -0.052   1.879
14568TIP3   OH243648   5.271   0.125   5.191
14568TIP3    H143649   5.228   0.116   5.276
14568TIP3    H243650   5.332   0.051   5.186
14569TIP3   OH243651   0.717   4.384   4.541
14569TIP3    H143652   0.776   4.311   4.558
14569TIP3    H243653   0.629   4.346   4.555
14570TIP3   OH243654   7.224   6.389   0.801
14570TIP3    H143655   7.158   6.418   0.864
14570TIP3    H243656   7.176   6.334   0.739
14571TIP3   OH243657   2.880   5.867   5.160
14571TIP3    H143658   2.947   5.807   5.126
14571TIP3    H243659   2.827   5.889   5.083
14572TIP3   OH243660   2.093   3.419   2.369
14572TIP3    H143661   2.081   3.387   2.458
14572TIP3    H243662   2.058   3.508   2.370
14573TIP3   OH243663   2.862   0.042   0.491
14573TIP3    H143664   2.866   0.039   0.586
14573TIP3    H243665   2.773   0.072   0.471
14574TIP3   OH243666   8.128   4.622   4.224
14574TIP3    H143667   8.098   4.543   4.180
14574TIP3    H243668   8.192   4.660   4.164
14575TIP3   OH243669   6.538   0.540   3.517
14575TIP3    H143670   6.609   0.488   3.555
14575TIP3    H243671   6.524   0.611   3.580
14576TIP3   OH243672   6.032   3.724   2.789
14576TIP3    H143673   6.109   3.743   2.843
14576TIP3    H243674   6.062   3.657   2.727
14577TIP3   OH243675   5.828   0.545   4.142
14577TIP3    H143676   5.793   0.467   4.099
14577TIP3    H243677   5.884   0.511   4.212
14578TIP3   OH243678   1.670   4.129   3.126
14578TIP3    H143679   1.631   4.096   3.207
14578TIP3    H243680   1.754   4.166   3.153
14579TIP3   OH243681   5.231   0.518   1.306
14579TIP3    H143682   5.295   0.485   1.370
14579TIP3    H243683   5.275   0.591   1.263
14580TIP3   OH243684   6.568   7.465   0.691
14580TIP3    H143685   6.656   7.442   0.662
14580TIP3    H243686   6.526   7.499   0.612
14581TIP3   OH243687   1.329   0.924   5.159
14581TIP3    H143688   1.297   0.948   5.246
14581TIP3    H243689   1.396   0.990   5.139
14582TIP3   OH243690   8.034   2.460   6.326
14582TIP3    H143691   8.064   2.369   6.326
14582TIP3    H243692   8.065   2.496   6.243
14583TIP3   OH243693   6.764   0.276   4.992
14583TIP3    H143694   6.770   0.203   5.054
14583TIP3    H243695   6.725   0.237   4.914
14584TIP3   OH243696   7.812   6.705   5.800
14584TIP3    H143697   7.776   6.792   5.780
14584TIP3    H243698   7.755   6.645   5.752
14585TIP3   OH243699   8.151   1.646   4.647
14585TIP3    H143700   8.224   1.591   4.617
14585TIP3    H243701   8.078   1.623   4.589
14586TIP3   OH243702   3.567   4.320   5.780
14586TIP3    H143703   3.596   4.380   5.849
14586TIP3    H243704   3.648   4.276   5.752
14587TIP3   OH243705   6.871   5.864   6.749
14587TIP3    H143706   6.896   5.813   6.826
14587TIP3    H243707   6.777   5.851   6.740
14588TIP3   OH243708   5.970   5.901   0.117
14588TIP3    H143709   5.993   5.881   0.208
14588TIP3    H243710   5.931   5.820   0.084
14589TIP3   OH243711   2.795   2.430   2.833
14589TIP3    H143712   2.877   2.460   2.795
14589TIP3    H243713   2.754   2.376   2.765
14590TIP3   OH243714   7.927   5.079   1.477
14590TIP3    H143715   7.944   5.109   1.566
14590TIP3    H243716   7.942   4.985   1.479
14591TIP3   OH243717   4.098   1.531   2.798
14591TIP3    H143718   4.048   1.502   2.722
14591TIP3    H243719   4.189   1.533   2.768
14592TIP3   OH243720   4.523   6.438   2.357
14592TIP3    H143721   4.461   6.380   2.312
14592TIP3    H243722   4.467   6.505   2.397
14593TIP3   OH243723   0.680   3.030   5.427
14593TIP3    H143724   0.769   2.995   5.421
14593TIP3    H243725   0.626   2.953   5.446
14594TIP3   OH243726   7.187   3.043   6.090
14594TIP3    H143727   7.221   3.037   6.179
14594TIP3    H243728   7.123   3.114   6.093
14595TIP3   OH243729   4.976   7.012   2.403
14595TIP3    H143730   4.912   6.982   2.467
14595TIP3    H243731   4.924   7.036   2.326
14596TIP3   OH243732   6.292   5.315   4.804
14596TIP3    H143733   6.222   5.283   4.747
14596TIP3    H243734   6.283   5.264   4.885
14597TIP3   OH243735   1.174   3.382   1.836
14597TIP3    H143736   1.103   3.329   1.799
14597TIP3    H243737   1.159   3.470   1.802
14598TIP3   OH243738   3.999   7.289   5.652
14598TIP3    H143739   4.005   7.263   5.561
14598TIP3    H243740   4.033   7.379   5.654
14599TIP3   OH243741   7.332   7.599   1.465
14599TIP3    H143742   7.418   7.640   1.450
14599TIP3    H243743   7.324   7.533   1.396
14600TIP3   OH243744   0.000   4.416   4.736
14600TIP3    H143745  -0.013   4.510   4.748
14600TIP3    H243746   0.086   4.399   4.775
14601TIP3   OH243747   0.500   1.476   4.828
14601TIP3    H143748   0.461   1.476   4.740
14601TIP3    H243749   0.452   1.408   4.875
14602TIP3   OH243750   4.786   0.176   4.923
14602TIP3    H143751   4.824   0.262   4.904
14602TIP3    H243752   4.694   0.194   4.941
14603TIP3   OH243753   3.816   1.462   6.210
14603TIP3    H143754   3.753   1.476   6.280
14603TIP3    H243755   3.764   1.463   6.129
14604TIP3   OH243756   7.178   0.106   6.211
14604TIP3    H143757   7.147   0.172   6.274
14604TIP3    H243758   7.207   0.033   6.265
14605TIP3   OH243759   6.080   1.766   5.045
14605TIP3    H143760   6.004   1.796   4.996
14605TIP3    H243761   6.139   1.731   4.979
14606TIP3   OH243762   0.794   4.875   5.744
14606TIP3    H143763   0.843   4.944   5.788
14606TIP3    H243764   0.854   4.800   5.742
14607TIP3   OH243765   8.261   0.981   4.826
14607TIP3    H143766   8.216   0.917   4.881
14607TIP3    H243767   8.287   1.051   4.886
14608TIP3   OH243768   0.733   3.173   4.977
14608TIP3    H143769   0.674   3.195   5.050
14608TIP3    H243770   0.747   3.257   4.932
14609TIP3   OH243771   7.994   4.673   5.319
14609TIP3    H143772   8.061   4.666   5.387
14609TIP3    H243773   7.933   4.601   5.337
14610TIP3   OH243774   1.587   4.945   2.234
14610TIP3    H143775   1.606   5.025   2.185
14610TIP3    H243776   1.631   4.875   2.186
14611TIP3   OH243777   5.814   6.824   0.846
14611TIP3    H143778   5.879   6.754   0.837
14611TIP3    H243779   5.804   6.835   0.941
14612TIP3   OH243780   8.191   7.205   5.034
14612TIP3    H143781   8.109   7.162   5.011
14612TIP3    H243782   8.165   7.271   5.099
14613TIP3   OH243783   6.986   7.223   4.034
14613TIP3    H143784   6.981   7.155   4.102
14613TIP3    H243785   6.952   7.181   3.955
14614TIP3   OH243786   5.162   2.836   2.297
14614TIP3    H143787   5.133   2.770   2.360
14614TIP3    H243788   5.125   2.918   2.330
14615TIP3   OH243789   2.259   5.410   4.511
14615TIP3    H143790   2.168   5.419   4.481
14615TIP3    H243791   2.284   5.497   4.539
14616TIP3   OH243792   4.883   2.954   4.878
14616TIP3    H143793   4.858   3.032   4.829
14616TIP3    H243794   4.862   2.881   4.820
14617TIP3   OH243795   5.878   3.316   2.620
14617TIP3    H143796   5.971   3.335   2.627
14617TIP3    H243797   5.874   3.235   2.570
14618TIP3   OH243798   0.190   6.736   1.870
14618TIP3    H143799   0.113   6.762   1.819
14618TIP3    H243800   0.154   6.705   1.953
14619TIP3   OH243801   7.112   7.452   3.484
14619TIP3    H143802   7.088   7.532   3.530
14619TIP3    H243803   7.158   7.483   3.405
14620TIP3   OH243804   7.179   2.730   5.650
14620TIP3    H143805   7.134   2.672   5.589
14620TIP3    H243806   7.185   2.680   5.731
14621TIP3   OH243807   7.762   5.467   6.110
14621TIP3    H143808   7.702   5.405   6.068
14621TIP3    H243809   7.728   5.479   6.198
14622TIP3   OH243810   8.056   7.195   4.699
14622TIP3    H143811   7.991   7.134   4.663
14622TIP3    H243812   8.108   7.222   4.623
14623TIP3   OH243813   3.937   7.492   0.355
14623TIP3    H143814   3.922   7.586   0.367
14623TIP3    H243815   4.002   7.487   0.285
14624TIP3   OH243816   1.332   4.325   2.286
14624TIP3    H143817   1.255   4.381   2.277
14624TIP3    H243818   1.307   4.259   2.351
14625TIP3   OH243819   7.694   1.093   6.022
14625TIP3    H143820   7.652   1.022   6.070
14625TIP3    H243821   7.772   1.053   5.984
14626TIP3   OH243822   1.429   0.417   2.265
14626TIP3    H143823   1.519   0.411   2.231
14626TIP3    H243824   1.439   0.448   2.355
14627TIP3   OH243825   0.785   5.614   0.875
14627TIP3    H143826   0.748   5.557   0.808
14627TIP3    H243827   0.716   5.678   0.894
14628TIP3   OH243828   5.614   6.801   2.695
14628TIP3    H143829   5.554   6.731   2.669
14628TIP3    H243830   5.666   6.762   2.765
14629TIP3   OH243831   5.831   2.698   0.248
14629TIP3    H143832   5.846   2.611   0.212
14629TIP3    H243833   5.774   2.741   0.185
14630TIP3   OH243834   5.046   5.168   6.155
14630TIP3    H143835   4.998   5.085   6.149
14630TIP3    H243836   5.134   5.147   6.123
14631TIP3   OH243837   2.794   6.973   1.354
14631TIP3    H143838   2.792   7.020   1.270
14631TIP3    H243839   2.774   7.040   1.419
14632TIP3   OH243840   6.487   1.547   1.333
14632TIP3    H143841   6.427   1.549   1.259
14632TIP3    H243842   6.556   1.486   1.307
14633TIP3   OH243843   6.220   1.888   2.608
14633TIP3    H143844   6.241   1.795   2.596
14633TIP3    H243845   6.243   1.929   2.524
14634TIP3   OH243846   4.103   0.534   4.693
14634TIP3    H143847   4.054   0.598   4.745
14634TIP3    H243848   4.193   0.539   4.728
14635TIP3   OH243849   0.993   1.025   5.698
14635TIP3    H143850   0.993   0.998   5.790
14635TIP3    H243851   0.905   1.006   5.667
14636TIP3   OH243852   5.184   5.359   1.801
14636TIP3    H143853   5.139   5.443   1.812
14636TIP3    H243854   5.267   5.382   1.759
14637TIP3   OH243855   1.314   1.740   5.316
14637TIP3    H143856   1.266   1.658   5.325
14637TIP3    H243857   1.259   1.805   5.360
14638TIP3   OH243858   5.861   1.340   5.729
14638TIP3    H143859   5.802   1.266   5.744
14638TIP3    H243860   5.890   1.330   5.638
14639TIP3   OH243861   4.513   7.323   4.384
14639TIP3    H143862   4.542   7.329   4.475
14639TIP3    H243863   4.575   7.377   4.336
14640TIP3   OH243864   0.955   5.495   3.472
14640TIP3    H143865   0.947   5.412   3.519
14640TIP3    H243866   0.878   5.545   3.500
14641TIP3   OH243867   0.120   5.854   0.061
14641TIP3    H143868   0.115   5.808  -0.023
14641TIP3    H243869   0.138   5.945   0.037
14642TIP3   OH243870   2.155   5.268   5.398
14642TIP3    H143871   2.139   5.216   5.319
14642TIP3    H243872   2.125   5.356   5.375
14643TIP3   OH243873   7.487   0.411   2.835
14643TIP3    H143874   7.579   0.387   2.846
14643TIP3    H243875   7.485   0.459   2.752
14644TIP3   OH243876   7.629   4.293   5.725
14644TIP3    H143877   7.611   4.328   5.638
14644TIP3    H243878   7.703   4.235   5.714
14645TIP3   OH243879   4.913   6.647   3.762
14645TIP3    H143880   5.009   6.654   3.767
14645TIP3    H243881   4.897   6.553   3.761
14646TIP3   OH243882   1.006   0.911   4.674
14646TIP3    H143883   0.922   0.920   4.629
14646TIP3    H243884   1.060   0.859   4.614
14647TIP3   OH243885   2.412   5.846   0.188
14647TIP3    H143886   2.374   5.919   0.237
14647TIP3    H243887   2.495   5.828   0.232
14648TIP3   OH243888   1.063   2.809   3.368
14648TIP3    H143889   1.049   2.899   3.338
14648TIP3    H243890   0.998   2.796   3.437
14649TIP3   OH243891   3.883   7.474   4.494
14649TIP3    H143892   3.875   7.443   4.404
14649TIP3    H243893   3.795   7.507   4.516
14650TIP3   OH243894   3.713   5.828   5.422
14650TIP3    H143895   3.681   5.910   5.459
14650TIP3    H243896   3.660   5.760   5.464
14651TIP3   OH243897   3.104   1.272   0.319
14651TIP3    H143898   3.115   1.178   0.304
14651TIP3    H243899   3.167   1.313   0.259
14652TIP3   OH243900   1.155   3.538   3.411
14652TIP3    H143901   1.089   3.490   3.460
14652TIP3    H243902   1.128   3.630   3.418
14653TIP3   OH243903   3.383   6.837   1.538
14653TIP3    H143904   3.472   6.839   1.501
14653TIP3    H243905   3.327   6.812   1.465
14654TIP3   OH243906   5.512   5.825   3.180
14654TIP3    H143907   5.492   5.837   3.273
14654TIP3    H243908   5.426   5.829   3.137
14655TIP3   OH243909   2.691   3.338   4.814
14655TIP3    H143910   2.601   3.334   4.782
14655TIP3    H243911   2.706   3.253   4.854
14656TIP3   OH243912   6.365   3.672   1.794
14656TIP3    H143913   6.356   3.625   1.877
14656TIP3    H243914   6.441   3.632   1.751
14657TIP3   OH243915   1.805   4.554   4.084
14657TIP3    H143916   1.843   4.610   4.153
14657TIP3    H243917   1.770   4.479   4.131
14658TIP3   OH243918   5.609   3.874   3.483
14658TIP3    H143919   5.590   3.862   3.390
14658TIP3    H243920   5.663   3.953   3.487
14659TIP3   OH243921   1.641   1.191   1.072
14659TIP3    H143922   1.630   1.160   0.982
14659TIP3    H243923   1.671   1.114   1.120
14660TIP3   OH243924   7.771   3.978   6.372
14660TIP3    H143925   7.761   4.062   6.418
14660TIP3    H243926   7.700   3.978   6.308
14661TIP3   OH243927   4.747   1.219   6.691
14661TIP3    H143928   4.727   1.191   6.602
14661TIP3    H243929   4.662   1.237   6.731
14662TIP3   OH243930   6.273   1.717   0.848
14662TIP3    H143931   6.192   1.667   0.854
14662TIP3    H243932   6.329   1.666   0.789
14663TIP3   OH243933   4.091   7.275   5.931
14663TIP3    H143934   4.034   7.201   5.911
14663TIP3    H243935   4.168   7.263   5.875
14664TIP3   OH243936   6.830   4.825   2.011
14664TIP3    H143937   6.768   4.752   2.008
14664TIP3    H243938   6.792   4.885   2.076
14665TIP3   OH243939   4.266   6.943   3.059
14665TIP3    H143940   4.290   7.005   2.990
14665TIP3    H243941   4.204   6.990   3.114
14666TIP3   OH243942   2.351   5.627   1.466
14666TIP3    H143943   2.445   5.642   1.462
14666TIP3    H243944   2.320   5.642   1.376
14667TIP3   OH243945   5.660   6.804   4.631
14667TIP3    H143946   5.738   6.859   4.634
14667TIP3    H243947   5.620   6.815   4.717
14668TIP3   OH243948   0.195   7.706   5.041
14668TIP3    H143949   0.273   7.760   5.033
14668TIP3    H243950   0.227   7.617   5.051
14669TIP3   OH243951   6.337   7.695   1.424
14669TIP3    H143952   6.304   7.775   1.467
14669TIP3    H243953   6.264   7.634   1.429
14670TIP3   OH243954   2.124   3.931   2.921
14670TIP3    H143955   2.182   3.995   2.880
14670TIP3    H243956   2.120   3.957   3.012
14671TIP3   OH243957   2.599   0.182   4.040
14671TIP3    H143958   2.601   0.173   3.944
14671TIP3    H243959   2.689   0.168   4.068
14672TIP3   OH243960   7.614   0.701   4.168
14672TIP3    H143961   7.686   0.739   4.118
14672TIP3    H243962   7.587   0.625   4.117
14673TIP3   OH243963   0.827   1.898   6.567
14673TIP3    H143964   0.803   1.886   6.475
14673TIP3    H243965   0.883   1.822   6.587
14674TIP3   OH243966   4.435   6.641   2.567
14674TIP3    H143967   4.407   6.679   2.650
14674TIP3    H243968   4.528   6.662   2.561
14675TIP3   OH243969   6.760   3.167   3.537
14675TIP3    H143970   6.855   3.169   3.545
14675TIP3    H243971   6.735   3.259   3.523
14676TIP3   OH243972   0.419   6.067   2.426
14676TIP3    H143973   0.467   6.116   2.493
14676TIP3    H243974   0.444   5.976   2.441
14677TIP3   OH243975   6.529   6.188   1.365
14677TIP3    H143976   6.494   6.234   1.441
14677TIP3    H243977   6.526   6.095   1.390
14678TIP3   OH243978   0.192   7.209   4.408
14678TIP3    H143979   0.191   7.305   4.408
14678TIP3    H243980   0.193   7.185   4.315
14679TIP3   OH243981   1.827   2.621   6.579
14679TIP3    H143982   1.847   2.706   6.619
14679TIP3    H243983   1.911   2.590   6.545
14680TIP3   OH243984   0.409   3.913   2.665
14680TIP3    H143985   0.479   3.885   2.724
14680TIP3    H243986   0.363   3.833   2.641
14681TIP3   OH243987   5.255   4.382   0.939
14681TIP3    H143988   5.161   4.398   0.951
14681TIP3    H243989   5.269   4.397   0.846
14682TIP3   OH243990   8.104   7.536   1.052
14682TIP3    H143991   8.012   7.519   1.069
14682TIP3    H243992   8.144   7.542   1.139
14683TIP3   OH243993   6.555   0.492   5.923
14683TIP3    H143994   6.559   0.549   5.846
14683TIP3    H243995   6.538   0.405   5.887
14684TIP3   OH243996   6.514   5.500   4.751
14684TIP3    H143997   6.462   5.425   4.781
14684TIP3    H243998   6.583   5.462   4.697
14685TIP3   OH243999   4.481   1.420   0.378
14685TIP3    H144000   4.563   1.392   0.338
14685TIP3    H244001   4.505   1.441   0.469
14686TIP3   OH244002   3.473   7.076   3.282
14686TIP3    H144003   3.501   7.029   3.203
14686TIP3    H244004   3.495   7.017   3.354
14687TIP3   OH244005   2.452   7.468   6.632
14687TIP3    H144006   2.383   7.401   6.627
14687TIP3    H244007   2.423   7.526   6.702
14688TIP3   OH244008   1.906   4.649   0.891
14688TIP3    H144009   1.828   4.642   0.945
14688TIP3    H244010   1.909   4.741   0.866
14689TIP3   OH244011   0.666   0.789   3.164
14689TIP3    H144012   0.649   0.695   3.158
14689TIP3    H244013   0.703   0.812   3.079
14690TIP3   OH244014   4.055   0.562   3.234
14690TIP3    H144015   4.045   0.536   3.325
14690TIP3    H244016   4.054   0.480   3.185
14691TIP3   OH244017   4.169   2.821   2.989
14691TIP3    H144018   4.218   2.862   2.918
14691TIP3    H244019   4.080   2.854   2.980
14692TIP3   OH244020   5.400   5.416   2.007
14692TIP3    H144021   5.396   5.324   1.984
14692TIP3    H244022   5.401   5.462   1.923
14693TIP3   OH244023   0.061   7.542   5.316
14693TIP3    H144024   0.156   7.553   5.305
14693TIP3    H244025   0.032   7.626   5.351
14694TIP3   OH244026   6.732   4.554   5.464
14694TIP3    H144027   6.747   4.649   5.463
14694TIP3    H244028   6.819   4.516   5.453
14695TIP3   OH244029   6.813   6.683   6.191
14695TIP3    H144030   6.719   6.701   6.186
14695TIP3    H244031   6.835   6.645   6.106
14696TIP3   OH244032   4.027   1.031   4.596
14696TIP3    H144033   4.099   0.992   4.645
14696TIP3    H244034   4.046   1.012   4.504
14697TIP3   OH244035   7.039   6.844   4.092
14697TIP3    H144036   7.088   6.875   4.016
14697TIP3    H244037   7.054   6.750   4.093
14698TIP3   OH244038   1.134   1.544   0.603
14698TIP3    H144039   1.133   1.507   0.515
14698TIP3    H244040   1.155   1.636   0.590
14699TIP3   OH244041   1.735   6.314   5.177
14699TIP3    H144042   1.818   6.346   5.211
14699TIP3    H244043   1.734   6.340   5.085
14700TIP3   OH244044   7.705   5.248   5.091
14700TIP3    H144045   7.799   5.246   5.106
14700TIP3    H244046   7.669   5.292   5.168
14701TIP3   OH244047   4.884   0.884   6.618
14701TIP3    H144048   4.965   0.933   6.603
14701TIP3    H244049   4.884   0.816   6.551
14702TIP3   OH244050   5.493   7.398   1.804
14702TIP3    H144051   5.432   7.342   1.852
14702TIP3    H244052   5.528   7.343   1.735
14703TIP3   OH244053   5.323   6.386   0.228
14703TIP3    H144054   5.410   6.406   0.261
14703TIP3    H244055   5.306   6.453   0.162
14704TIP3   OH244056   3.340   7.503   0.596
14704TIP3    H144057   3.314   7.513   0.687
14704TIP3    H244058   3.264   7.532   0.546
14705TIP3   OH244059   1.626   6.036   5.169
14705TIP3    H144060   1.664   6.124   5.173
14705TIP3    H244061   1.532   6.051   5.161
14706TIP3   OH244062   4.636   0.074   5.932
14706TIP3    H144063   4.688   0.154   5.940
14706TIP3    H244064   4.552   0.103   5.898
14707TIP3   OH244065   5.254   2.201   0.678
14707TIP3    H144066   5.233   2.107   0.681
14707TIP3    H244067   5.346   2.206   0.704
14708TIP3   OH244068   0.063   2.118   6.485
14708TIP3    H144069  -0.006   2.115   6.418
14708TIP3    H244070   0.136   2.069   6.445
14709TIP3   OH244071   1.709   3.481   4.402
14709TIP3    H144072   1.714   3.575   4.421
14709TIP3    H244073   1.746   3.473   4.314
14710TIP3   OH244074   3.152   7.512   1.565
14710TIP3    H144075   3.079   7.486   1.622
14710TIP3    H244076   3.191   7.587   1.609
14711TIP3   OH244077   0.717   1.038   2.830
14711TIP3    H144078   0.629   1.001   2.835
14711TIP3    H244079   0.753   1.025   2.918
14712TIP3   OH244080   7.926   2.258   0.836
14712TIP3    H144081   7.942   2.351   0.847
14712TIP3    H244082   7.987   2.215   0.896
14713TIP3   OH244083   0.480   0.854   2.822
14713TIP3    H144084   0.423   0.869   2.746
14713TIP3    H244085   0.419   0.827   2.892
14714TIP3   OH244086   0.668   5.262   1.922
14714TIP3    H144087   0.672   5.179   1.873
14714TIP3    H244088   0.739   5.255   1.986
14715TIP3   OH244089   2.334   6.584   2.236
14715TIP3    H144090   2.319   6.543   2.322
14715TIP3    H244091   2.248   6.582   2.194
14716TIP3   OH244092   6.736   4.962   3.779
14716TIP3    H144093   6.704   4.904   3.848
14716TIP3    H244094   6.829   4.971   3.797
14717TIP3   OH244095   5.008   5.592   1.853
14717TIP3    H144096   4.926   5.624   1.816
14717TIP3    H244097   5.070   5.663   1.841
14718TIP3   OH244098   4.596   2.557   1.705
14718TIP3    H144099   4.535   2.623   1.739
14718TIP3    H244100   4.581   2.479   1.758
14719TIP3   OH244101   7.770   0.658   3.277
14719TIP3    H144102   7.852   0.704   3.258
14719TIP3    H244103   7.787   0.567   3.257
14720TIP3   OH244104   4.049   0.144   6.557
14720TIP3    H144105   4.091   0.088   6.623
14720TIP3    H244106   4.083   0.112   6.473
14721TIP3   OH244107   6.783   3.942   0.606
14721TIP3    H144108   6.733   4.023   0.606
14721TIP3    H244109   6.874   3.970   0.618
14722TIP3   OH244110   0.052   0.480   2.730
14722TIP3    H144111   0.102   0.401   2.712
14722TIP3    H244112   0.097   0.549   2.680
14723TIP3   OH244113   7.325   2.399   0.382
14723TIP3    H144114   7.357   2.328   0.327
14723TIP3    H244115   7.250   2.363   0.428
14724TIP3   OH244116   0.491   3.517   4.517
14724TIP3    H144117   0.437   3.450   4.476
14724TIP3    H244118   0.464   3.518   4.609
14725TIP3   OH244119   4.926   2.393   0.287
14725TIP3    H144120   4.998   2.374   0.347
14725TIP3    H244121   4.848   2.385   0.341
14726TIP3   OH244122   3.598   6.464   4.323
14726TIP3    H144123   3.537   6.457   4.249
14726TIP3    H244124   3.595   6.557   4.347
14727TIP3   OH244125   8.089   4.573   2.658
14727TIP3    H144126   8.142   4.497   2.634
14727TIP3    H244127   8.078   4.621   2.576
14728TIP3   OH244128   0.694   1.145   3.077
14728TIP3    H144129   0.691   1.121   3.169
14728TIP3    H244130   0.688   1.241   3.076
14729TIP3   OH244131   2.949   6.760   1.444
14729TIP3    H144132   2.941   6.707   1.365
14729TIP3    H244133   2.889   6.833   1.430
14730TIP3   OH244134   6.100   4.008   1.602
14730TIP3    H144135   6.159   4.076   1.569
14730TIP3    H244136   6.013   4.048   1.597
14731TIP3   OH244137   6.603   3.923   3.612
14731TIP3    H144138   6.611   3.953   3.702
14731TIP3    H244139   6.647   3.837   3.612
14732TIP3   OH244140   3.946   7.699   6.538
14732TIP3    H144141   3.854   7.691   6.514
14732TIP3    H244142   3.983   7.613   6.518
14733TIP3   OH244143   1.326   6.432   4.738
14733TIP3    H144144   1.392   6.363   4.736
14733TIP3    H244145   1.376   6.513   4.731
14734TIP3   OH244146   2.546   1.035   1.175
14734TIP3    H144147   2.549   0.971   1.105
14734TIP3    H244148   2.622   1.092   1.158
14735TIP3   OH244149   3.659   6.377   2.163
14735TIP3    H144150   3.721   6.307   2.183
14735TIP3    H244151   3.710   6.439   2.110
14736TIP3   OH244152   4.414   3.902   6.213
14736TIP3    H144153   4.455   3.816   6.199
14736TIP3    H244154   4.364   3.892   6.294
14737TIP3   OH244155   0.876   5.385   2.638
14737TIP3    H144156   0.922   5.362   2.719
14737TIP3    H244157   0.788   5.350   2.651
14738TIP3   OH244158   4.106   1.324   2.168
14738TIP3    H144159   4.019   1.330   2.207
14738TIP3    H244160   4.164   1.304   2.241
14739TIP3   OH244161   4.245   1.840   0.932
14739TIP3    H144162   4.211   1.929   0.924
14739TIP3    H244163   4.332   1.843   0.892
14740TIP3   OH244164   7.406   5.548   2.084
14740TIP3    H144165   7.314   5.563   2.108
14740TIP3    H244166   7.455   5.608   2.138
14741TIP3   OH244167   6.164   5.176   5.844
14741TIP3    H144168   6.250   5.140   5.869
14741TIP3    H244169   6.174   5.270   5.855
14742TIP3   OH244170   0.738   1.541   4.976
14742TIP3    H144171   0.818   1.502   4.941
14742TIP3    H244172   0.670   1.517   4.913
14743TIP3   OH244173   6.428   5.372   2.670
14743TIP3    H144174   6.359   5.348   2.732
14743TIP3    H244175   6.464   5.288   2.639
14744TIP3   OH244176   2.504   5.940   4.792
14744TIP3    H144177   2.517   5.874   4.724
14744TIP3    H244178   2.528   6.023   4.750
14745TIP3   OH244179   2.790   4.336   2.331
14745TIP3    H144180   2.766   4.262   2.388
14745TIP3    H244181   2.816   4.295   2.249
14746TIP3   OH244182   7.616   2.298   4.597
14746TIP3    H144183   7.583   2.260   4.515
14746TIP3    H244184   7.671   2.230   4.635
14747TIP3   OH244185   1.419   2.924   0.758
14747TIP3    H144186   1.511   2.940   0.737
14747TIP3    H244187   1.390   2.859   0.694
14748TIP3   OH244188   3.282   7.605   3.347
14748TIP3    H144189   3.212   7.547   3.378
14748TIP3    H244190   3.251   7.693   3.367
14749TIP3   OH244191   2.470   3.346   4.629
14749TIP3    H144192   2.544   3.304   4.586
14749TIP3    H244193   2.397   3.284   4.617
14750TIP3   OH244194   6.756   2.223   6.123
14750TIP3    H144195   6.831   2.282   6.131
14750TIP3    H244196   6.688   2.263   6.178
14751TIP3   OH244197   4.219   5.985   5.708
14751TIP3    H144198   4.263   6.051   5.655
14751TIP3    H244199   4.133   6.024   5.727
14752TIP3   OH244200   7.531   6.102   3.487
14752TIP3    H144201   7.619   6.088   3.520
14752TIP3    H244202   7.497   6.014   3.470
14753TIP3   OH244203   0.245   2.923   5.508
14753TIP3    H144204   0.198   2.841   5.494
14753TIP3    H244205   0.314   2.901   5.571
14754TIP3   OH244206   8.262   5.353   0.167
14754TIP3    H144207   8.345   5.399   0.179
14754TIP3    H244208   8.196   5.422   0.165
14755TIP3   OH244209   7.230   2.599   6.673
14755TIP3    H144210   7.206   2.599   6.580
14755TIP3    H244211   7.196   2.516   6.706
14756TIP3   OH244212   6.903   6.871   0.365
14756TIP3    H144213   6.899   6.820   0.284
14756TIP3    H244214   6.969   6.826   0.418
14757TIP3   OH244215   6.986   2.007   6.678
14757TIP3    H144216   7.047   1.934   6.687
14757TIP3    H244217   7.024   2.062   6.610
14758TIP3   OH244218   2.955   3.202   0.551
14758TIP3    H144219   3.013   3.127   0.563
14758TIP3    H244220   3.003   3.261   0.492
14759TIP3   OH244221   3.397   3.577   4.473
14759TIP3    H144222   3.487   3.553   4.452
14759TIP3    H244223   3.389   3.668   4.443
14760TIP3   OH244224   5.026   4.611   0.076
14760TIP3    H144225   5.003   4.635  -0.013
14760TIP3    H244226   5.073   4.687   0.110
14761TIP3   OH244227   1.254   2.685   2.555
14761TIP3    H144228   1.258   2.709   2.648
14761TIP3    H244229   1.339   2.712   2.520
14762TIP3   OH244230   2.947   0.309   3.328
14762TIP3    H144231   2.949   0.225   3.374
14762TIP3    H244232   2.862   0.347   3.351
14763TIP3   OH244233   6.864   5.332   1.001
14763TIP3    H144234   6.840   5.378   1.081
14763TIP3    H244235   6.955   5.304   1.017
14764TIP3   OH244236   4.337   6.079   5.209
14764TIP3    H144237   4.397   6.141   5.250
14764TIP3    H244238   4.306   6.124   5.130
14765TIP3   OH244239   0.501   3.679   0.552
14765TIP3    H144240   0.558   3.727   0.612
14765TIP3    H244241   0.417   3.725   0.556
14766TIP3   OH244242   8.083   3.717   4.336
14766TIP3    H144243   8.169   3.719   4.378
14766TIP3    H244244   8.102   3.719   4.242
14767TIP3   OH244245   6.391   7.757   2.530
14767TIP3    H144246   6.424   7.685   2.583
14767TIP3    H244247   6.376   7.719   2.444
14768TIP3   OH244248   3.790   0.960   0.881
14768TIP3    H144249   3.865   1.010   0.850
14768TIP3    H244250   3.808   0.947   0.975
14769TIP3   OH244251   3.935   3.847   4.749
14769TIP3    H144252   3.992   3.915   4.783
14769TIP3    H244253   3.958   3.841   4.656
14770TIP3   OH244254   3.196   5.713   3.501
14770TIP3    H144255   3.221   5.641   3.443
14770TIP3    H244256   3.175   5.785   3.442
14771TIP3   OH244257   3.352   7.021   3.878
14771TIP3    H144258   3.288   6.958   3.844
14771TIP3    H244259   3.435   6.996   3.838
14772TIP3   OH244260   2.180   0.274   1.270
14772TIP3    H144261   2.244   0.255   1.338
14772TIP3    H244262   2.095   0.270   1.315
14773TIP3   OH244263   0.477   6.953   6.664
14773TIP3    H144264   0.466   6.936   6.758
14773TIP3    H244265   0.474   6.867   6.623
14774TIP3   OH244266   3.757   3.607   6.239
14774TIP3    H144267   3.780   3.515   6.228
14774TIP3    H244268   3.808   3.653   6.173
14775TIP3   OH244269   2.345   5.792   2.608
14775TIP3    H144270   2.370   5.829   2.523
14775TIP3    H244271   2.360   5.698   2.599
14776TIP3   OH244272   7.447   0.089   5.992
14776TIP3    H144273   7.505   0.030   5.944
14776TIP3    H244274   7.506   0.155   6.029
14777TIP3   OH244275   4.049   6.902   5.127
14777TIP3    H144276   4.127   6.919   5.073
14777TIP3    H244277   4.085   6.879   5.212
14778TIP3   OH244278   5.869   0.984   5.492
14778TIP3    H144279   5.878   0.889   5.483
14778TIP3    H244280   5.808   1.009   5.423
14779TIP3   OH244281   8.093   2.817   5.957
14779TIP3    H144282   8.071   2.801   5.865
14779TIP3    H244283   8.071   2.908   5.972
14780TIP3   OH244284  -0.015   6.420   0.398
14780TIP3    H144285   0.018   6.480   0.331
14780TIP3    H244286  -0.001   6.466   0.481
14781TIP3   OH244287   2.580   1.377   5.549
14781TIP3    H144288   2.618   1.289   5.554
14781TIP3    H244289   2.634   1.430   5.607
14782TIP3   OH244290   0.817   7.807   1.956
14782TIP3    H144291   0.773   7.872   1.902
14782TIP3    H244292   0.845   7.740   1.894
14783TIP3   OH244293   3.619   2.787   2.063
14783TIP3    H144294   3.679   2.861   2.055
14783TIP3    H244295   3.671   2.710   2.043
14784TIP3   OH244296   6.139   0.662   4.033
14784TIP3    H144297   6.229   0.687   4.011
14784TIP3    H244298   6.125   0.580   3.985
14785TIP3   OH244299   1.458   0.222   0.379
14785TIP3    H144300   1.375   0.176   0.372
14785TIP3    H244301   1.508   0.170   0.442
14786TIP3   OH244302   1.245   3.646   4.443
14786TIP3    H144303   1.238   3.663   4.537
14786TIP3    H244304   1.307   3.572   4.437
14787TIP3   OH244305   0.369   7.642   2.773
14787TIP3    H144306   0.430   7.576   2.741
14787TIP3    H244307   0.330   7.604   2.852
14788TIP3   OH244308   2.943   0.670   1.435
14788TIP3    H144309   2.942   0.675   1.340
14788TIP3    H244310   2.884   0.740   1.464
14789TIP3   OH244311   8.085   0.142   0.857
14789TIP3    H144312   8.084   0.091   0.938
14789TIP3    H244313   7.993   0.143   0.829
14790TIP3   OH244314   0.058   0.986   2.650
14790TIP3    H144315  -0.028   0.988   2.609
14790TIP3    H244316   0.045   1.028   2.736
14791TIP3   OH244317   0.098   4.672   6.197
14791TIP3    H144318   0.133   4.592   6.158
14791TIP3    H244319   0.174   4.729   6.207
14792TIP3   OH244320   0.393   7.742   5.523
14792TIP3    H144321   0.303   7.745   5.555
14792TIP3    H244322   0.410   7.830   5.490
14793TIP3   OH244323   4.798   2.680   2.737
14793TIP3    H144324   4.851   2.664   2.814
14793TIP3    H244325   4.732   2.611   2.738
14794TIP3   OH244326   2.744   6.161   0.130
14794TIP3    H144327   2.678   6.162   0.199
14794TIP3    H244328   2.823   6.130   0.172
14795TIP3   OH244329   2.124   4.109   0.773
14795TIP3    H144330   2.045   4.108   0.719
14795TIP3    H244331   2.195   4.123   0.711
14796TIP3   OH244332   6.183   1.436   0.789
14796TIP3    H144333   6.145   1.371   0.730
14796TIP3    H244334   6.270   1.455   0.752
14797TIP3   OH244335   5.063   3.305   0.070
14797TIP3    H144336   5.077   3.302  -0.025
14797TIP3    H244337   5.011   3.384   0.084
14798TIP3   OH244338   7.357   5.446   5.179
14798TIP3    H144339   7.425   5.401   5.230
14798TIP3    H244340   7.281   5.388   5.185
14799TIP3   OH244341   0.869   6.200   2.053
14799TIP3    H144342   0.774   6.190   2.058
14799TIP3    H244343   0.902   6.154   2.130
14800TIP3   OH244344   4.201   5.287   1.661
14800TIP3    H144345   4.250   5.296   1.744
14800TIP3    H244346   4.109   5.287   1.687
14801TIP3   OH244347   3.935   0.444   5.511
14801TIP3    H144348   3.985   0.525   5.520
14801TIP3    H244349   4.001   0.376   5.497
14802TIP3   OH244350   2.085   4.147   2.517
14802TIP3    H144351   2.009   4.182   2.563
14802TIP3    H244352   2.145   4.221   2.510
14803TIP3   OH244353   4.955   4.828   3.098
14803TIP3    H144354   4.891   4.760   3.079
14803TIP3    H244355   4.924   4.904   3.049
14804TIP3   OH244356   7.196   4.558   4.766
14804TIP3    H144357   7.181   4.643   4.806
14804TIP3    H244358   7.229   4.503   4.837
14805TIP3   OH244359   0.219   5.467   6.375
14805TIP3    H144360   0.134   5.426   6.363
14805TIP3    H244361   0.242   5.448   6.466
14806TIP3   OH244362   0.848   4.581   4.736
14806TIP3    H144363   0.840   4.493   4.699
14806TIP3    H244364   0.758   4.614   4.737
14807TIP3   OH244365   5.502   6.274   6.609
14807TIP3    H144366   5.482   6.271   6.702
14807TIP3    H244367   5.567   6.343   6.601
14808TIP3   OH244368   3.404   4.532   5.130
14808TIP3    H144369   3.379   4.518   5.038
14808TIP3    H244370   3.412   4.627   5.138
14809TIP3   OH244371   5.418   1.561   4.142
14809TIP3    H144372   5.438   1.556   4.048
14809TIP3    H244373   5.407   1.470   4.169
14810TIP3   OH244374   1.260   0.884   1.411
14810TIP3    H144375   1.217   0.809   1.452
14810TIP3    H244376   1.198   0.913   1.343
14811TIP3   OH244377   6.223   4.298   6.278
14811TIP3    H144378   6.297   4.291   6.339
14811TIP3    H244379   6.215   4.392   6.261
14812TIP3   OH244380   1.307   0.277   3.304
14812TIP3    H144381   1.271   0.265   3.392
14812TIP3    H244382   1.337   0.190   3.279
14813TIP3   OH244383   3.054   2.573   0.713
14813TIP3    H144384   2.989   2.560   0.644
14813TIP3    H244385   3.123   2.509   0.694
14814TIP3   OH244386   6.014   3.109   2.895
14814TIP3    H144387   5.921   3.124   2.915
14814TIP3    H244388   6.013   3.034   2.835
14815TIP3   OH244389   7.299   1.968   1.153
14815TIP3    H144390   7.323   2.051   1.193
14815TIP3    H244391   7.330   1.974   1.062
14816TIP3   OH244392   2.530   2.585   4.624
14816TIP3    H144393   2.482   2.621   4.549
14816TIP3    H244394   2.464   2.539   4.675
14817TIP3   OH244395   0.267   7.502   3.424
14817TIP3    H144396   0.198   7.569   3.431
14817TIP3    H244397   0.236   7.430   3.478
14818TIP3   OH244398   1.363   2.252   0.575
14818TIP3    H144399   1.280   2.282   0.613
14818TIP3    H244400   1.382   2.170   0.620
14819TIP3   OH244401   4.752   2.580   3.153
14819TIP3    H144402   4.848   2.575   3.155
14819TIP3    H244403   4.733   2.669   3.122
14820TIP3   OH244404   6.411   1.989   2.442
14820TIP3    H144405   6.441   1.941   2.365
14820TIP3    H244406   6.351   2.055   2.408
14821TIP3   OH244407   6.736   3.837   2.942
14821TIP3    H144408   6.822   3.828   2.984
14821TIP3    H244409   6.755   3.876   2.857
14822TIP3   OH244410   7.632   4.494   3.604
14822TIP3    H144411   7.599   4.477   3.693
14822TIP3    H244412   7.566   4.551   3.565
14823TIP3   OH244413   3.950   4.454   4.464
14823TIP3    H144414   4.026   4.470   4.409
14823TIP3    H244415   3.976   4.485   4.551
14824TIP3   OH244416   7.004   5.243   1.481
14824TIP3    H144417   7.044   5.300   1.547
14824TIP3    H244418   6.979   5.164   1.530
14825TIP3   OH244419   5.088   2.081   2.481
14825TIP3    H144420   5.064   2.173   2.495
14825TIP3    H244421   5.154   2.063   2.548
14826TIP3   OH244422   6.712   5.157   5.720
14826TIP3    H144423   6.773   5.119   5.784
14826TIP3    H244424   6.665   5.082   5.684
14827TIP3   OH244425   0.872   1.212   3.738
14827TIP3    H144426   0.852   1.131   3.786
14827TIP3    H244427   0.790   1.234   3.693
14828TIP3   OH244428   3.141   2.450   3.964
14828TIP3    H144429   3.127   2.356   3.954
14828TIP3    H244430   3.230   2.465   3.933
14829TIP3   OH244431   3.666   1.690   4.544
14829TIP3    H144432   3.685   1.759   4.608
14829TIP3    H244433   3.583   1.716   4.505
14830TIP3   OH244434   6.830   5.876   1.427
14830TIP3    H144435   6.834   5.788   1.390
14830TIP3    H244436   6.867   5.933   1.360
14831TIP3   OH244437   0.469   4.083   4.033
14831TIP3    H144438   0.462   4.122   4.120
14831TIP3    H244439   0.399   4.018   4.031
14832TIP3   OH244440   1.752   6.050   3.037
14832TIP3    H144441   1.707   6.120   3.085
14832TIP3    H244442   1.841   6.083   3.025
14833TIP3   OH244443   4.282   3.633   6.591
14833TIP3    H144444   4.238   3.716   6.611
14833TIP3    H244445   4.211   3.569   6.589
14834TIP3   OH244446   2.049   4.224   2.083
14834TIP3    H144447   2.076   4.304   2.037
14834TIP3    H244448   2.067   4.154   2.020
14835TIP3   OH244449   8.013   3.905   4.670
14835TIP3    H144450   7.920   3.928   4.672
14835TIP3    H244451   8.057   3.985   4.642
14836TIP3   OH244452   2.375   0.477   5.047
14836TIP3    H144453   2.366   0.497   5.140
14836TIP3    H244454   2.314   0.405   5.032
14837TIP3   OH244455   3.060   1.826   0.440
14837TIP3    H144456   3.095   1.806   0.527
14837TIP3    H244457   3.113   1.900   0.409
14838TIP3   OH244458   0.485   4.209   0.914
14838TIP3    H144459   0.400   4.216   0.870
14838TIP3    H244460   0.547   4.249   0.853
14839TIP3   OH244461   2.256   7.490   6.125
14839TIP3    H144462   2.174   7.441   6.120
14839TIP3    H244463   2.286   7.477   6.215
   8.29894   7.82432   6.77605   0.00000   0.00000  -2.76631   0.00000  -2.76631  -3.91216
