Generated by CHARMM-GUI FF-Converter
68212
    1GLY      N    1   2.225   4.423   5.689
    1GLY    HT1    2   2.175   4.416   5.780
    1GLY    HT2    3   2.287   4.339   5.681
    1GLY    HT3    4   2.155   4.417   5.610
    1GLY     CA    5   2.308   4.542   5.679
    1GLY    HA1    6   2.366   4.553   5.769
    1GLY    HA2    7   2.240   4.624   5.662
    1GLY      C    8   2.406   4.537   5.563
    1GLY      O    9   2.422   4.433   5.500
    2PRO      N   10   2.474   4.649   5.514
    2PRO     CD   11   2.461   4.766   5.583
    2PRO    HD1   12   2.492   4.756   5.689
    2PRO    HD2   13   2.355   4.802   5.576
    2PRO     CA   14   2.575   4.650   5.408
    2PRO     HA   15   2.534   4.603   5.320
    2PRO     CB   16   2.606   4.799   5.390
    2PRO    HB1   17   2.551   4.835   5.300
    2PRO    HB2   18   2.714   4.821   5.375
    2PRO     CG   19   2.550   4.864   5.512
    2PRO    HG1   20   2.634   4.889   5.581
    2PRO    HG2   21   2.498   4.959   5.489
    2PRO      C   22   2.701   4.573   5.446
    2PRO      O   23   2.730   4.554   5.564
    3GLY      N   24   2.769   4.510   5.331
    3GLY     HN   25   2.741   4.526   5.237
    3GLY     CA   26   2.896   4.441   5.353
    3GLY    HA1   27   2.930   4.405   5.257
    3GLY    HA2   28   2.878   4.363   5.425
    3GLY      C   29   3.004   4.530   5.410
    3GLY      O   30   2.991   4.653   5.408
    4ALA      N   31   3.107   4.478   5.460
    4ALA     HN   32   3.116   4.379   5.461
    4ALA     CA   33   3.223   4.552   5.509
    4ALA     HA   34   3.185   4.629   5.574
    4ALA     CB   35   3.315   4.460   5.589
    4ALA    HB1   36   3.351   4.376   5.526
    4ALA    HB2   37   3.259   4.417   5.676
    4ALA    HB3   38   3.403   4.515   5.629
    4ALA      C   39   3.300   4.615   5.393
    4ALA      O   40   3.293   4.568   5.280
    5PRO      N   41   3.376   4.725   5.414
    5PRO     CD   42   3.357   4.804   5.527
    5PRO    HD1   43   3.398   4.751   5.616
    5PRO    HD2   44   3.250   4.829   5.544
    5PRO     CA   45   3.461   4.784   5.310
    5PRO     HA   46   3.397   4.810   5.227
    5PRO     CB   47   3.525   4.904   5.381
    5PRO    HB1   48   3.532   4.992   5.314
    5PRO    HB2   49   3.627   4.878   5.417
    5PRO     CG   50   3.438   4.928   5.500
    5PRO    HG1   51   3.499   4.957   5.589
    5PRO    HG2   52   3.369   5.012   5.478
    5PRO      C   53   3.567   4.687   5.260
    5PRO      O   54   3.606   4.594   5.331
    6GLY      N   55   3.599   4.705   5.140
    6GLY     HN   56   3.557   4.776   5.083
    6GLY     CA   57   3.706   4.625   5.082
    6GLY    HA1   58   3.717   4.657   4.979
    6GLY    HA2   59   3.679   4.520   5.091
    6GLY      C   60   3.840   4.647   5.149
    6GLY      O   61   3.854   4.737   5.232
    7SER      N   62   3.918   4.570   5.108
    7SER     HN   63   3.896   4.495   5.045
    7SER     CA   64   4.055   4.585   5.156
    7SER     HA   65   4.056   4.595   5.264
    7SER     CB   66   4.139   4.463   5.119
    7SER    HB1   67   4.242   4.475   5.161
    7SER    HB2   68   4.147   4.452   5.009
    7SER     OG   69   4.082   4.345   5.174
    7SER    HG1   70   4.077   4.353   5.270
    7SER      C   71   4.120   4.711   5.098
    7SER      O   72   4.080   4.759   4.992
    8GLY      N   73   4.214   4.770   5.180
    8GLY     HN   74   4.244   4.730   5.266
    8GLY     CA   75   4.286   4.885   5.127
    8GLY    HA1   76   4.344   4.924   5.210
    8GLY    HA2   77   4.214   4.955   5.087
    8GLY      C   78   4.383   4.850   5.016
    8GLY      O   79   4.403   4.732   4.986
    9PRO      N   80   4.439   4.938   4.961
    9PRO     CD   81   4.441   5.077   5.013
    9PRO    HD1   82   4.481   5.080   5.117
    9PRO    HD2   83   4.339   5.123   5.011
    9PRO     CA   84   4.540   4.919   4.856
    9PRO     HA   85   4.500   4.852   4.780
    9PRO     CB   86   4.564   5.060   4.804
    9PRO    HB1   87   4.492   5.081   4.722
    9PRO    HB2   88   4.667   5.075   4.763
    9PRO     CG   89   4.534   5.149   4.920
    9PRO    HG1   90   4.628   5.167   4.977
    9PRO    HG2   91   4.495   5.249   4.889
    9PRO      C   92   4.669   4.856   4.909
    9PRO      O   93   4.698   4.866   5.028
   10GLY      N   94   4.736   4.791   4.816
   10GLY     HN   95   4.703   4.784   4.722
   10GLY     CA   96   4.863   4.732   4.853
   10GLY    HA1   97   4.897   4.675   4.768
   10GLY    HA2   98   4.849   4.671   4.942
   10GLY      C   99   4.970   4.834   4.883
   10GLY      O  100   4.955   4.952   4.851
   11ALA      N  101   5.073   4.801   4.943
   11ALA     HN  102   5.085   4.707   4.974
   11ALA     CA  103   5.188   4.886   4.973
   11ALA     HA  104   5.148   4.974   5.021
   11ALA     CB  105   5.282   4.816   5.071
   11ALA    HB1  106   5.322   4.724   5.024
   11ALA    HB2  107   5.229   4.788   5.165
   11ALA    HB3  108   5.368   4.880   5.098
   11ALA      C  109   5.262   4.924   4.846
   11ALA      O  110   5.256   4.853   4.746
   12PRO      N  111   5.341   5.045   4.855
   12PRO     CD  112   5.332   5.141   4.952
   12PRO    HD1  113   5.385   5.103   5.043
   12PRO    HD2  114   5.226   5.159   4.977
   12PRO     CA  115   5.424   5.080   4.739
   12PRO     HA  116   5.360   5.081   4.653
   12PRO     CB  117   5.482   5.216   4.777
   12PRO    HB1  118   5.476   5.288   4.692
   12PRO    HB2  119   5.590   5.208   4.807
   12PRO     CG  120   5.403   5.260   4.896
   12PRO    HG1  121   5.467   5.308   4.973
   12PRO    HG2  122   5.328   5.336   4.863
   12PRO      C  123   5.535   4.978   4.713
   12PRO      O  124   5.576   4.907   4.805
   13GLY      N  125   5.569   4.968   4.587
   13GLY     HN  126   5.530   5.024   4.515
   13GLY     CA  127   5.679   4.880   4.552
   13GLY    HA1  128   5.693   4.887   4.445
   13GLY    HA2  129   5.656   4.780   4.585
   13GLY      C  130   5.811   4.920   4.615
   13GLY      O  131   5.823   5.029   4.671
   14SER      N  132   5.906   4.836   4.598
   14SER     HN  133   5.893   4.746   4.557
   14SER     CA  134   6.041   4.869   4.644
   14SER     HA  135   6.034   4.908   4.745
   14SER     CB  136   6.130   4.745   4.645
   14SER    HB1  137   6.233   4.767   4.679
   14SER    HB2  138   6.137   4.707   4.541
   14SER     OG  139   6.072   4.642   4.724
   14SER    HG1  140   6.097   4.660   4.815
   14SER      C  141   6.103   4.978   4.557
   14SER      O  142   6.068   4.992   4.440
   15GLY      N  143   6.181   5.071   4.620
   15GLY     HN  144   6.205   5.060   4.716
   15GLY     CA  145   6.253   5.171   4.542
   15GLY    HA1  146   6.307   5.233   4.612
   15GLY    HA2  147   6.179   5.225   4.484
   15GLY      C  148   6.354   5.111   4.447
   15GLY      O  149   6.381   4.990   4.451
   16PRO      N  150   6.409   5.166   4.357
   16PRO     CD  151   6.389   5.319   4.350
   16PRO    HD1  152   6.403   5.369   4.448
   16PRO    HD2  153   6.288   5.341   4.308
   16PRO     CA  154   6.516   5.121   4.268
   16PRO     HA  155   6.484   5.030   4.218
   16PRO     CB  156   6.535   5.239   4.173
   16PRO    HB1  157   6.463   5.227   4.088
   16PRO    HB2  158   6.638   5.245   4.130
   16PRO     CG  159   6.496   5.359   4.253
   16PRO    HG1  160   6.585   5.393   4.311
   16PRO    HG2  161   6.463   5.443   4.188
   16PRO      C  162   6.645   5.089   4.343
   16PRO      O  163   6.668   5.141   4.452
   17GLY      N  164   6.736   4.983   4.288
   17GLY     HN  165   6.711   4.938   4.202
   17GLY     CA  166   6.867   4.951   4.343
   17GLY    HA1  167   6.907   4.872   4.284
   17GLY    HA2  168   6.853   4.926   4.447
   17GLY      C  169   6.964   5.067   4.335
   17GLY      O  170   6.941   5.163   4.261
   18ALA      N  171   7.053   5.077   4.400
   18ALA     HN  172   7.073   5.003   4.463
   18ALA     CA  173   7.159   5.178   4.399
   18ALA     HA  174   7.109   5.274   4.405
   18ALA     CB  175   7.246   5.165   4.523
   18ALA    HB1  176   7.293   5.064   4.528
   18ALA    HB2  177   7.188   5.182   4.615
   18ALA    HB3  178   7.329   5.240   4.522
   18ALA      C  179   7.244   5.167   4.273
   18ALA      O  180   7.254   5.060   4.213
   19PRO      N  181   7.282   5.300   4.204
   19PRO     CD  182   7.247   5.416   4.255
   19PRO    HD1  183   7.300   5.430   4.351
   19PRO    HD2  184   7.136   5.421   4.270
   19PRO     CA  185   7.363   5.304   4.082
   19PRO     HA  186   7.315   5.247   4.005
   19PRO     CB  187   7.373   5.454   4.050
   19PRO    HB1  188   7.336   5.474   3.947
   19PRO    HB2  189   7.478   5.489   4.058
   19PRO     CG  190   7.289   5.520   4.155
   19PRO    HG1  191   7.347   5.601   4.205
   19PRO    HG2  192   7.200   5.567   4.107
   19PRO      C  193   7.502   5.243   4.101
   19PRO    OT1  194   7.531   5.198   4.215
   19PRO    OT2  195   7.580   5.242   4.003
   20SOD    SOD  196   9.104   3.240   5.922
   21SOD    SOD  197   4.801  -0.040   2.257
   22SOD    SOD  198   5.677   5.209   9.384
   23SOD    SOD  199   3.788   6.855   4.890
   24SOD    SOD  200   1.296   3.731   7.711
   25SOD    SOD  201   1.925   3.859   2.158
   26SOD    SOD  202   8.403   9.131   3.605
   27SOD    SOD  203   3.534   5.632   1.294
   28SOD    SOD  204   9.632   3.881   6.854
   29SOD    SOD  205   6.037   2.351   4.087
   30SOD    SOD  206   4.104   0.523   3.759
   31SOD    SOD  207   1.140   2.144   5.121
   32SOD    SOD  208   4.605   6.459  10.152
   33SOD    SOD  209   8.014   8.885   4.072
   34SOD    SOD  210   7.735   3.010   7.661
   35SOD    SOD  211   5.687  10.106   5.057
   36SOD    SOD  212   3.627   3.738   3.648
   37SOD    SOD  213   2.152   5.088   3.140
   38SOD    SOD  214   7.681   4.567   5.262
   39SOD    SOD  215   6.788   8.816   7.015
   40SOD    SOD  216   5.688   5.240   6.111
   41SOD    SOD  217   5.596   3.305   3.091
   42SOD    SOD  218   8.200   2.261   6.614
   43SOD    SOD  219   6.533   9.415   6.281
   44SOD    SOD  220   2.873   8.562   3.266
   45SOD    SOD  221   1.583   2.229   2.877
   46SOD    SOD  222   8.156   5.034   3.111
   47SOD    SOD  223   7.601   4.882   6.620
   48SOD    SOD  224   2.719   1.841   8.637
   49SOD    SOD  225   3.823   6.565   0.349
   50SOD    SOD  226   4.409   2.787   6.561
   51SOD    SOD  227   3.342   1.756   4.734
   52SOD    SOD  228   7.857   3.648   6.433
   53SOD    SOD  229   3.435   1.317   5.470
   54SOD    SOD  230   8.953   7.644   4.580
   55SOD    SOD  231   9.267   4.535   7.759
   56SOD    SOD  232   5.488   4.104   0.450
   57SOD    SOD  233  -0.081   5.378   3.271
   58SOD    SOD  234   5.091   7.662   8.853
   59SOD    SOD  235   1.836   5.403   7.118
   60SOD    SOD  236   7.848   1.547   4.505
   61SOD    SOD  237   3.605   2.149   4.378
   62SOD    SOD  238   9.672   6.808   4.924
   63SOD    SOD  239   7.890   7.016   2.632
   64SOD    SOD  240   2.997   8.862   5.266
   65SOD    SOD  241   6.095   0.547   1.743
   66SOD    SOD  242   5.886   3.841   4.103
   67SOD    SOD  243   2.764   2.751   0.826
   68SOD    SOD  244   4.529   6.706   3.771
   69SOD    SOD  245   5.047   9.431   4.581
   70SOD    SOD  246   6.357   9.031   6.832
   71SOD    SOD  247   8.011   0.984   2.512
   72SOD    SOD  248   2.114   0.958   5.240
   73SOD    SOD  249   2.507   8.128   4.277
   74SOD    SOD  250   0.909   4.481   4.406
   75SOD    SOD  251   8.654   3.847   2.469
   76SOD    SOD  252   6.936   3.182   4.826
   77SOD    SOD  253   4.547   5.550   7.491
   78SOD    SOD  254   5.225   9.398   7.448
   79SOD    SOD  255   3.417   8.105   1.375
   80SOD    SOD  256   4.117   1.414   8.696
   81SOD    SOD  257   6.858   3.871   7.848
   82SOD    SOD  258   4.057   7.993   3.813
   83SOD    SOD  259   1.555   7.808   8.532
   84SOD    SOD  260   2.686   3.111   4.091
   85CLA    CLA  261   1.682   4.567   5.760
   86CLA    CLA  262   2.863  -0.032   3.581
   87CLA    CLA  263   0.656   4.273   7.308
   88CLA    CLA  264   4.649   0.440   5.597
   89CLA    CLA  265   9.005   6.263   5.779
   90CLA    CLA  266   4.672   5.928   1.857
   91CLA    CLA  267   1.355   2.427   2.941
   92CLA    CLA  268   1.885   4.925   3.954
   93CLA    CLA  269   8.958   3.606   6.783
   94CLA    CLA  270   5.626   8.020   7.491
   95CLA    CLA  271   3.429   4.656   0.300
   96CLA    CLA  272   5.014   8.596   9.012
   97CLA    CLA  273   5.465   6.274   8.223
   98CLA    CLA  274  -0.046   3.361   4.869
   99CLA    CLA  275   1.214   3.997   3.081
  100CLA    CLA  276   6.614   8.478   0.902
  101CLA    CLA  277   4.955   3.765   6.724
  102CLA    CLA  278   2.426   0.490   7.147
  103CLA    CLA  279   3.067   2.055   8.557
  104CLA    CLA  280   9.704   3.925   6.350
  105CLA    CLA  281   1.846   2.015   8.544
  106CLA    CLA  282   4.004   1.637   7.624
  107CLA    CLA  283   3.298   9.071   2.459
  108CLA    CLA  284   3.203   8.717   6.039
  109CLA    CLA  285   2.499   7.782   6.601
  110CLA    CLA  286   8.798   0.736   4.124
  111CLA    CLA  287   2.095   1.206   4.896
  112CLA    CLA  288   6.129   1.429   7.845
  113CLA    CLA  289   1.594   1.852   7.325
  114CLA    CLA  290   4.486   6.486   3.383
  115CLA    CLA  291   1.908   2.233   4.910
  116CLA    CLA  292   4.540   9.612   3.480
  117CLA    CLA  293   9.753   7.794   3.805
  118CLA    CLA  294   3.143   3.147   3.785
  119CLA    CLA  295   0.728   5.078   8.572
  120CLA    CLA  296   8.643   7.343   4.517
  121CLA    CLA  297   3.029   0.668   5.669
  122CLA    CLA  298   6.384   7.027   9.601
  123CLA    CLA  299   9.294   5.805   4.654
  124CLA    CLA  300   0.738   8.106   6.276
  125CLA    CLA  301   8.089   4.409   6.148
  126CLA    CLA  302   7.716   1.077   6.732
  127CLA    CLA  303   0.700   5.119   7.313
  128CLA    CLA  304   3.710   8.151   8.136
  129CLA    CLA  305   3.815   1.743   4.477
  130CLA    CLA  306   6.566   9.153   6.751
  131CLA    CLA  307   1.769   2.863   3.153
  132CLA    CLA  308   5.766   4.239   4.311
  133CLA    CLA  309   4.342   2.930   4.635
  134CLA    CLA  310   6.069   3.479   9.424
  135CLA    CLA  311   1.876   7.649   7.961
  136CLA    CLA  312   2.081   8.388   4.665
  137CLA    CLA  313   7.669   8.255   3.026
  138CLA    CLA  314   4.905   5.179   5.640
  139CLA    CLA  315   2.421   1.143   7.974
  140CLA    CLA  316   2.963   0.191   4.456
  141CLA    CLA  317   3.159   2.019   4.766
  142CLA    CLA  318   8.279   3.917   2.038
  143CLA    CLA  319   2.997   3.832   3.589
  144CLA    CLA  320   6.436   7.148   7.469
  145CLA    CLA  321   5.395   3.388   3.207
  146CLA    CLA  322   7.533   1.701   7.413
  147CLA    CLA  323   7.897   7.064   1.943
  148CLA    CLA  324   4.404   7.698   2.051
  149CLA    CLA  325   7.669   1.059   2.426
  150TIP3   OH2  326   4.585   0.073   1.705
  150TIP3    H1  327   4.494   0.046   1.725
  150TIP3    H2  328   4.567   0.149   1.645
  151TIP3   OH2  329   4.761   0.001   2.040
  151TIP3    H1  330   4.730  -0.068   1.976
  151TIP3    H2  331   4.743   0.081   1.984
  152TIP3   OH2  332   4.945  -0.310   1.917
  152TIP3    H1  333   4.860  -0.264   1.901
  152TIP3    H2  334   4.959  -0.352   1.830
  153TIP3   OH2  335   4.662  -0.506   2.167
  153TIP3    H1  336   4.617  -0.437   2.217
  153TIP3    H2  337   4.589  -0.566   2.143
  154TIP3   OH2  338   5.006   0.331   2.047
  154TIP3    H1  339   5.002   0.234   2.053
  154TIP3    H2  340   4.920   0.355   2.088
  155TIP3   OH2  341   4.134   0.102   2.193
  155TIP3    H1  342   4.126   0.198   2.206
  155TIP3    H2  343   4.051   0.072   2.233
  156TIP3   OH2  344   4.894  -0.554   2.321
  156TIP3    H1  345   4.814  -0.541   2.267
  156TIP3    H2  346   4.921  -0.643   2.294
  157TIP3   OH2  347   4.408  -0.554   2.546
  157TIP3    H1  348   4.386  -0.645   2.574
  157TIP3    H2  349   4.506  -0.556   2.545
  158TIP3   OH2  350   4.695   0.672   2.144
  158TIP3    H1  351   4.688   0.699   2.051
  158TIP3    H2  352   4.770   0.726   2.175
  159TIP3   OH2  353   4.692  -0.200   1.881
  159TIP3    H1  354   4.723  -0.220   1.789
  159TIP3    H2  355   4.617  -0.262   1.888
  160TIP3   OH2  356   4.289  -0.154   2.215
  160TIP3    H1  357   4.224  -0.188   2.278
  160TIP3    H2  358   4.246  -0.071   2.189
  161TIP3   OH2  359   4.395   0.135   2.079
  161TIP3    H1  360   4.303   0.107   2.093
  161TIP3    H2  361   4.417   0.166   2.170
  162TIP3   OH2  362   5.018   0.033   2.100
  162TIP3    H1  363   4.929   0.028   2.061
  162TIP3    H2  364   5.068   0.000   2.022
  163TIP3   OH2  365   4.525   0.371   1.987
  163TIP3    H1  366   4.456   0.302   1.982
  163TIP3    H2  367   4.504   0.428   1.909
  164TIP3   OH2  368   4.555   0.323   1.588
  164TIP3    H1  369   4.510   0.376   1.516
  164TIP3    H2  370   4.647   0.346   1.566
  165TIP3   OH2  371   3.368   0.376   2.504
  165TIP3    H1  372   3.439   0.385   2.571
  165TIP3    H2  373   3.308   0.315   2.554
  166TIP3   OH2  374   3.805   0.328   2.605
  166TIP3    H1  375   3.899   0.316   2.622
  166TIP3    H2  376   3.796   0.289   2.518
  167TIP3   OH2  377   4.446   0.233   2.332
  167TIP3    H1  378   4.434   0.165   2.403
  167TIP3    H2  379   4.517   0.289   2.369
  168TIP3   OH2  380   4.062  -0.137   2.542
  168TIP3    H1  381   4.036  -0.150   2.448
  168TIP3    H2  382   4.129  -0.206   2.553
  169TIP3   OH2  383   4.411  -0.219   2.540
  169TIP3    H1  384   4.505  -0.196   2.532
  169TIP3    H2  385   4.414  -0.284   2.613
  170TIP3   OH2  386   4.675  -0.543   2.583
  170TIP3    H1  387   4.702  -0.629   2.619
  170TIP3    H2  388   4.755  -0.491   2.594
  171TIP3   OH2  389   4.811   0.413   1.541
  171TIP3    H1  390   4.826   0.462   1.624
  171TIP3    H2  391   4.828   0.481   1.474
  172TIP3   OH2  392   4.837   0.461   1.817
  172TIP3    H1  393   4.795   0.372   1.824
  172TIP3    H2  394   4.914   0.447   1.873
  173TIP3   OH2  395   4.857   0.135   2.381
  173TIP3    H1  396   4.799   0.147   2.460
  173TIP3    H2  397   4.908   0.220   2.385
  174TIP3   OH2  398   4.918  -0.055   1.681
  174TIP3    H1  399   4.919  -0.119   1.609
  174TIP3    H2  400   4.890   0.025   1.633
  175TIP3   OH2  401   4.726   0.217   1.879
  175TIP3    H1  402   4.650   0.266   1.917
  175TIP3    H2  403   4.681   0.162   1.811
  176TIP3   OH2  404   5.100  -0.377   2.292
  176TIP3    H1  405   5.027  -0.442   2.284
  176TIP3    H2  406   5.175  -0.427   2.257
  177TIP3   OH2  407   4.883  -0.568   2.003
  177TIP3    H1  408   4.811  -0.519   2.046
  177TIP3    H2  409   4.923  -0.499   1.947
  178TIP3   OH2  410   4.107   0.375   2.259
  178TIP3    H1  411   4.149   0.377   2.348
  178TIP3    H2  412   4.173   0.425   2.206
  179TIP3   OH2  413   4.291   0.520   2.117
  179TIP3    H1  414   4.368   0.473   2.082
  179TIP3    H2  415   4.335   0.584   2.177
  180TIP3   OH2  416   4.274   0.347   1.814
  180TIP3    H1  417   4.182   0.322   1.837
  180TIP3    H2  418   4.276   0.442   1.834
  181TIP3   OH2  419   4.496   0.539   1.771
  181TIP3    H1  420   4.469   0.622   1.725
  181TIP3    H2  421   4.505   0.477   1.696
  182TIP3   OH2  422   4.755   0.404   2.148
  182TIP3    H1  423   4.674   0.378   2.099
  182TIP3    H2  424   4.742   0.501   2.149
  183TIP3   OH2  425   5.493   0.122   1.654
  183TIP3    H1  426   5.464   0.214   1.634
  183TIP3    H2  427   5.422   0.097   1.717
  184TIP3   OH2  428   5.695   0.223   1.827
  184TIP3    H1  429   5.641   0.297   1.859
  184TIP3    H2  430   5.633   0.179   1.766
  185TIP3   OH2  431   5.436  -0.152   1.877
  185TIP3    H1  432   5.443  -0.090   1.951
  185TIP3    H2  433   5.374  -0.218   1.912
  186TIP3   OH2  434   5.500   0.409   1.896
  186TIP3    H1  435   5.463   0.408   1.806
  186TIP3    H2  436   5.421   0.386   1.951
  187TIP3   OH2  437   5.108  -0.060   1.868
  187TIP3    H1  438   5.036  -0.066   1.800
  187TIP3    H2  439   5.129  -0.154   1.883
  188TIP3   OH2  440   4.938   0.170   1.510
  188TIP3    H1  441   5.021   0.205   1.551
  188TIP3    H2  442   4.881   0.249   1.522
  189TIP3   OH2  443   5.290   0.134   1.834
  189TIP3    H1  444   5.344   0.120   1.914
  189TIP3    H2  445   5.225   0.061   1.843
  190TIP3   OH2  446   6.485   0.934   1.640
  190TIP3    H1  447   6.476   0.953   1.544
  190TIP3    H2  448   6.564   0.987   1.662
  191TIP3   OH2  449   5.440   0.053   2.065
  191TIP3    H1  450   5.525   0.080   2.106
  191TIP3    H2  451   5.382   0.057   2.143
  192TIP3   OH2  452   5.213  -0.284   1.992
  192TIP3    H1  453   5.245  -0.285   2.084
  192TIP3    H2  454   5.122  -0.318   1.998
  193TIP3   OH2  455   5.677   0.502   1.515
  193TIP3    H1  456   5.703   0.567   1.447
  193TIP3    H2  457   5.743   0.433   1.498
  194TIP3   OH2  458   6.318   0.676   1.509
  194TIP3    H1  459   6.298   0.594   1.460
  194TIP3    H2  460   6.318   0.740   1.434
  195TIP3   OH2  461   5.146   0.303   1.630
  195TIP3    H1  462   5.197   0.248   1.692
  195TIP3    H2  463   5.154   0.391   1.671
  196TIP3   OH2  464   5.116   0.623   2.043
  196TIP3    H1  465   5.201   0.625   2.091
  196TIP3    H2  466   5.096   0.528   2.044
  197TIP3   OH2  467   5.596   0.589   2.088
  197TIP3    H1  468   5.689   0.566   2.098
  197TIP3    H2  469   5.571   0.530   2.013
  198TIP3   OH2  470   5.241   0.016   2.261
  198TIP3    H1  471   5.273  -0.075   2.241
  198TIP3    H2  472   5.163   0.024   2.201
  199TIP3   OH2  473   5.856   0.115   2.018
  199TIP3    H1  474   5.810   0.142   1.935
  199TIP3    H2  475   5.906   0.038   1.988
  200TIP3   OH2  476   5.365  -0.243   2.227
  200TIP3    H1  477   5.442  -0.296   2.200
  200TIP3    H2  478   5.394  -0.214   2.316
  201TIP3   OH2  479   6.221   0.049   2.007
  201TIP3    H1  480   6.311   0.070   1.980
  201TIP3    H2  481   6.231   0.031   2.103
  202TIP3   OH2  482   5.636  -0.430   2.231
  202TIP3    H1  483   5.575  -0.506   2.241
  202TIP3    H2  484   5.649  -0.429   2.135
  203TIP3   OH2  485   4.873   0.296   1.246
  203TIP3    H1  486   4.882   0.215   1.300
  203TIP3    H2  487   4.929   0.358   1.296
  204TIP3   OH2  488   6.683   0.370   1.965
  204TIP3    H1  489   6.596   0.382   2.009
  204TIP3    H2  490   6.722   0.459   1.970
  205TIP3   OH2  491   5.285   0.351   2.065
  205TIP3    H1  492   5.190   0.333   2.049
  205TIP3    H2  493   5.291   0.349   2.161
  206TIP3   OH2  494   5.449   0.391   1.616
  206TIP3    H1  495   5.397   0.462   1.573
  206TIP3    H2  496   5.538   0.423   1.590
  207TIP3   OH2  497   6.084   0.752   1.633
  207TIP3    H1  498   6.155   0.742   1.566
  207TIP3    H2  499   6.122   0.827   1.683
  208TIP3   OH2  500   5.133   0.636   1.641
  208TIP3    H1  501   5.045   0.669   1.614
  208TIP3    H2  502   5.147   0.689   1.721
  209TIP3   OH2  503   5.362   0.617   1.485
  209TIP3    H1  504   5.279   0.636   1.533
  209TIP3    H2  505   5.346   0.662   1.400
  210TIP3   OH2  506   5.769   0.664   1.312
  210TIP3    H1  507   5.703   0.682   1.241
  210TIP3    H2  508   5.790   0.754   1.342
  211TIP3   OH2  509   6.030   0.595   1.286
  211TIP3    H1  510   5.937   0.624   1.294
  211TIP3    H2  511   6.080   0.679   1.284
  212TIP3   OH2  512   6.225   0.796   1.273
  212TIP3    H1  513   6.212   0.890   1.248
  212TIP3    H2  514   6.303   0.777   1.216
  213TIP3   OH2  515   5.063   0.448   1.378
  213TIP3    H1  516   5.090   0.426   1.469
  213TIP3    H2  517   5.132   0.406   1.325
  214TIP3   OH2  518   5.262   0.296   1.229
  214TIP3    H1  519   5.255   0.236   1.304
  214TIP3    H2  520   5.349   0.339   1.246
  215TIP3   OH2  521   5.511   0.387   1.252
  215TIP3    H1  522   5.601   0.357   1.231
  215TIP3    H2  523   5.531   0.448   1.325
  216TIP3   OH2  524   6.562   0.666   1.658
  216TIP3    H1  525   6.497   0.638   1.591
  216TIP3    H2  526   6.550   0.763   1.652
  217TIP3   OH2  527   6.906   0.889   1.565
  217TIP3    H1  528   6.994   0.899   1.606
  217TIP3    H2  529   6.897   0.793   1.571
  218TIP3   OH2  530   2.623   1.577   2.161
  218TIP3    H1  531   2.571   1.501   2.127
  218TIP3    H2  532   2.609   1.643   2.091
  219TIP3   OH2  533   2.846   1.885   2.195
  219TIP3    H1  534   2.843   1.789   2.211
  219TIP3    H2  535   2.762   1.911   2.240
  220TIP3   OH2  536   2.534   2.231   2.293
  220TIP3    H1  537   2.532   2.258   2.200
  220TIP3    H2  538   2.611   2.282   2.326
  221TIP3   OH2  539   2.868   1.596   2.261
  221TIP3    H1  540   2.770   1.597   2.244
  221TIP3    H2  541   2.899   1.571   2.171
  222TIP3   OH2  542   2.361   1.922   2.156
  222TIP3    H1  543   2.270   1.886   2.148
  222TIP3    H2  544   2.361   1.995   2.090
  223TIP3   OH2  545   1.677   1.901   2.735
  223TIP3    H1  546   1.762   1.858   2.755
  223TIP3    H2  547   1.648   1.848   2.661
  224TIP3   OH2  548   2.286   1.795   2.478
  224TIP3    H1  549   2.280   1.731   2.552
  224TIP3    H2  550   2.362   1.851   2.506
  225TIP3   OH2  551   2.304   1.390   2.776
  225TIP3    H1  552   2.367   1.354   2.712
  225TIP3    H2  553   2.231   1.327   2.773
  226TIP3   OH2  554   2.529   1.065   2.783
  226TIP3    H1  555   2.534   0.977   2.744
  226TIP3    H2  556   2.594   1.116   2.734
  227TIP3   OH2  557   2.538   1.305   2.463
  227TIP3    H1  558   2.476   1.357   2.408
  227TIP3    H2  559   2.624   1.333   2.425
  228TIP3   OH2  560   2.697   1.942   1.692
  228TIP3    H1  561   2.660   1.992   1.767
  228TIP3    H2  562   2.686   2.005   1.620
  229TIP3   OH2  563   2.667   2.015   1.978
  229TIP3    H1  564   2.623   1.928   1.970
  229TIP3    H2  565   2.749   1.988   2.022
  230TIP3   OH2  566   2.715   1.685   2.539
  230TIP3    H1  567   2.643   1.694   2.605
  230TIP3    H2  568   2.755   1.774   2.541
  231TIP3   OH2  569   2.534   1.773   1.992
  231TIP3    H1  570   2.471   1.809   2.057
  231TIP3    H2  571   2.476   1.724   1.932
  232TIP3   OH2  572   2.782   1.358   2.368
  232TIP3    H1  573   2.857   1.295   2.381
  232TIP3    H2  574   2.825   1.436   2.327
  233TIP3   OH2  575   2.930   1.144   2.432
  233TIP3    H1  576   2.877   1.069   2.402
  233TIP3    H2  577   3.019   1.103   2.428
  234TIP3   OH2  578   3.186   0.571   2.678
  234TIP3    H1  579   3.225   0.484   2.661
  234TIP3    H2  580   3.201   0.617   2.595
  235TIP3   OH2  581   1.952   1.966   2.411
  235TIP3    H1  582   2.003   1.953   2.494
  235TIP3    H2  583   2.021   1.998   2.350
  236TIP3   OH2  584   2.144   2.092   2.255
  236TIP3    H1  585   2.218   2.030   2.251
  236TIP3    H2  586   2.179   2.156   2.321
  237TIP3   OH2  587   2.356   2.088   1.939
  237TIP3    H1  588   2.280   2.149   1.922
  237TIP3    H2  589   2.402   2.093   1.851
  238TIP3   OH2  590   2.602   1.965   2.300
  238TIP3    H1  591   2.520   1.932   2.258
  238TIP3    H2  592   2.583   2.061   2.301
  239TIP3   OH2  593   3.893   1.358   1.114
  239TIP3    H1  594   3.881   1.454   1.102
  239TIP3    H2  595   3.816   1.325   1.064
  240TIP3   OH2  596   3.865   1.377   1.412
  240TIP3    H1  597   3.840   1.340   1.499
  240TIP3    H2  598   3.853   1.301   1.354
  241TIP3   OH2  599   3.171   1.217   1.780
  241TIP3    H1  600   3.186   1.166   1.861
  241TIP3    H2  601   3.242   1.283   1.785
  242TIP3   OH2  602   4.103   1.633   1.128
  242TIP3    H1  603   4.097   1.568   1.200
  242TIP3    H2  604   4.132   1.712   1.175
  243TIP3   OH2  605   3.161   1.649   1.569
  243TIP3    H1  606   3.114   1.574   1.530
  243TIP3    H2  607   3.253   1.639   1.539
  244TIP3   OH2  608   3.753   2.102   1.142
  244TIP3    H1  609   3.800   2.032   1.092
  244TIP3    H2  610   3.748   2.063   1.230
  245TIP3   OH2  611   3.661   1.567   1.486
  245TIP3    H1  612   3.709   1.499   1.436
  245TIP3    H2  613   3.741   1.615   1.519
  246TIP3   OH2  614   4.680   0.880   1.493
  246TIP3    H1  615   4.705   0.966   1.532
  246TIP3    H2  616   4.687   0.899   1.398
  247TIP3   OH2  617   4.064   1.066   1.523
  247TIP3    H1  618   4.123   0.992   1.539
  247TIP3    H2  619   4.021   1.037   1.441
  248TIP3   OH2  620   4.750   1.091   1.661
  248TIP3    H1  621   4.666   1.137   1.641
  248TIP3    H2  622   4.766   1.123   1.752
  249TIP3   OH2  623   3.764   1.608   0.987
  249TIP3    H1  624   3.791   1.587   0.896
  249TIP3    H2  625   3.713   1.691   0.973
  250TIP3   OH2  626   3.506   1.473   1.717
  250TIP3    H1  627   3.448   1.541   1.758
  250TIP3    H2  628   3.560   1.527   1.657
  251TIP3   OH2  629   4.388   0.803   1.319
  251TIP3    H1  630   4.308   0.780   1.366
  251TIP3    H2  631   4.395   0.899   1.333
  252TIP3   OH2  632   3.352   1.673   1.817
  252TIP3    H1  633   3.322   1.753   1.769
  252TIP3    H2  634   3.275   1.663   1.877
  253TIP3   OH2  635   4.176   1.880   1.293
  253TIP3    H1  636   4.086   1.872   1.332
  253TIP3    H2  637   4.168   1.966   1.247
  254TIP3   OH2  638   4.470   0.786   1.656
  254TIP3    H1  639   4.381   0.806   1.624
  254TIP3    H2  640   4.526   0.810   1.579
  255TIP3   OH2  641   3.874   1.930   0.969
  255TIP3    H1  642   3.924   1.848   0.948
  255TIP3    H2  643   3.932   1.996   0.924
  256TIP3   OH2  644   4.025   1.723   0.877
  256TIP3    H1  645   4.041   1.648   0.816
  256TIP3    H2  646   4.059   1.686   0.962
  257TIP3   OH2  647   4.402   1.795   1.637
  257TIP3    H1  648   4.392   1.718   1.577
  257TIP3    H2  649   4.384   1.870   1.576
  258TIP3   OH2  650   4.598   1.429   1.480
  258TIP3    H1  651   4.516   1.482   1.486
  258TIP3    H2  652   4.628   1.454   1.390
  259TIP3   OH2  653   4.044   1.292   0.896
  259TIP3    H1  654   4.035   1.326   0.988
  259TIP3    H2  655   4.134   1.254   0.895
  260TIP3   OH2  656   4.300   1.314   1.787
  260TIP3    H1  657   4.293   1.399   1.836
  260TIP3    H2  658   4.211   1.315   1.743
  261TIP3   OH2  659   3.404   1.674   1.430
  261TIP3    H1  660   3.393   1.629   1.345
  261TIP3    H2  661   3.496   1.648   1.454
  262TIP3   OH2  662   3.422   1.226   1.629
  262TIP3    H1  663   3.455   1.220   1.539
  262TIP3    H2  664   3.451   1.316   1.656
  263TIP3   OH2  665   3.934   1.877   1.414
  263TIP3    H1  666   3.921   1.957   1.467
  263TIP3    H2  667   3.920   1.804   1.478
  264TIP3   OH2  668   3.549   1.797   1.962
  264TIP3    H1  669   3.489   1.860   2.007
  264TIP3    H2  670   3.483   1.745   1.910
  265TIP3   OH2  671   3.298   1.354   2.062
  265TIP3    H1  672   3.305   1.442   2.105
  265TIP3    H2  673   3.202   1.341   2.065
  266TIP3   OH2  674   3.609   1.838   0.968
  266TIP3    H1  675   3.691   1.888   0.984
  266TIP3    H2  676   3.555   1.901   0.919
  267TIP3   OH2  677   3.343   1.965   2.048
  267TIP3    H1  678   3.309   1.960   1.956
  267TIP3    H2  679   3.263   1.942   2.100
  268TIP3   OH2  680   4.213   1.743   0.287
  268TIP3    H1  681   4.217   1.840   0.287
  268TIP3    H2  682   4.305   1.714   0.295
  269TIP3   OH2  683   2.947   1.522   2.019
  269TIP3    H1  684   2.877   1.533   1.950
  269TIP3    H2  685   2.963   1.426   2.011
  270TIP3   OH2  686   4.640   2.139   1.682
  270TIP3    H1  687   4.638   2.042   1.695
  270TIP3    H2  688   4.556   2.164   1.727
  271TIP3   OH2  689   3.745   1.925   1.817
  271TIP3    H1  690   3.744   2.018   1.849
  271TIP3    H2  691   3.674   1.886   1.872
  272TIP3   OH2  692   3.498   2.051   0.778
  272TIP3    H1  693   3.438   2.032   0.704
  272TIP3    H2  694   3.481   2.146   0.793
  273TIP3   OH2  695   3.759   2.021   0.692
  273TIP3    H1  696   3.666   2.016   0.724
  273TIP3    H2  697   3.803   1.955   0.746
  274TIP3   OH2  698   4.530   1.269   1.958
  274TIP3    H1  699   4.451   1.285   1.903
  274TIP3    H2  700   4.543   1.173   1.945
  275TIP3   OH2  701   3.147   1.698   1.988
  275TIP3    H1  702   3.195   1.679   2.071
  275TIP3    H2  703   3.069   1.639   1.998
  276TIP3   OH2  704   4.062   0.629   1.965
  276TIP3    H1  705   4.126   0.587   2.025
  276TIP3    H2  706   3.978   0.588   1.992
  277TIP3   OH2  707   4.298   1.045   1.878
  277TIP3    H1  708   4.250   1.041   1.964
  277TIP3    H2  709   4.281   1.136   1.848
  278TIP3   OH2  710   3.436   1.002   1.784
  278TIP3    H1  711   3.389   1.034   1.863
  278TIP3    H2  712   3.426   1.079   1.724
  279TIP3   OH2  713   4.004   1.268   2.115
  279TIP3    H1  714   3.982   1.195   2.177
  279TIP3    H2  715   4.098   1.283   2.137
  280TIP3   OH2  716   3.269   1.055   1.998
  280TIP3    H1  717   3.298   1.116   2.067
  280TIP3    H2  718   3.222   0.987   2.048
  281TIP3   OH2  719   4.046   1.268   1.703
  281TIP3    H1  720   4.061   1.198   1.636
  281TIP3    H2  721   4.009   1.218   1.779
  282TIP3   OH2  722   4.161   0.781   1.572
  282TIP3    H1  723   4.130   0.840   1.648
  282TIP3    H2  724   4.079   0.742   1.543
  283TIP3   OH2  725   4.330   2.489   1.781
  283TIP3    H1  726   4.327   2.513   1.686
  283TIP3    H2  727   4.408   2.539   1.812
  284TIP3   OH2  728   3.291   1.597   2.206
  284TIP3    H1  729   3.370   1.629   2.253
  284TIP3    H2  730   3.225   1.600   2.278
  285TIP3   OH2  731   3.784   1.222   1.618
  285TIP3    H1  732   3.873   1.229   1.656
  285TIP3    H2  733   3.777   1.129   1.587
  286TIP3   OH2  734   3.731   0.936   1.814
  286TIP3    H1  735   3.655   0.979   1.772
  286TIP3    H2  736   3.793   1.010   1.830
  287TIP3   OH2  737   4.368   1.577   1.473
  287TIP3    H1  738   4.393   1.626   1.392
  287TIP3    H2  739   4.282   1.537   1.447
  288TIP3   OH2  740   3.864   1.662   1.841
  288TIP3    H1  741   3.885   1.641   1.933
  288TIP3    H2  742   3.824   1.750   1.847
  289TIP3   OH2  743   3.043   1.283   2.154
  289TIP3    H1  744   3.088   1.291   2.241
  289TIP3    H2  745   3.014   1.189   2.156
  290TIP3   OH2  746   3.758   1.396   2.155
  290TIP3    H1  747   3.695   1.334   2.115
  290TIP3    H2  748   3.844   1.362   2.123
  291TIP3   OH2  749   4.024   1.917   1.736
  291TIP3    H1  750   3.928   1.916   1.748
  291TIP3    H2  751   4.052   1.969   1.814
  292TIP3   OH2  752   4.652   1.847   1.725
  292TIP3    H1  753   4.554   1.842   1.716
  292TIP3    H2  754   4.678   1.818   1.635
  293TIP3   OH2  755   4.135   1.806   0.547
  293TIP3    H1  756   4.119   1.735   0.610
  293TIP3    H2  757   4.135   1.757   0.462
  294TIP3   OH2  758   4.138   1.446   1.383
  294TIP3    H1  759   4.043   1.427   1.396
  294TIP3    H2  760   4.169   1.362   1.344
  295TIP3   OH2  761   3.528   2.010   1.611
  295TIP3    H1  762   3.569   2.083   1.562
  295TIP3    H2  763   3.604   1.978   1.663
  296TIP3   OH2  764   3.915   1.647   1.573
  296TIP3    H1  765   3.905   1.643   1.671
  296TIP3    H2  766   3.997   1.597   1.561
  297TIP3   OH2  767   4.164   2.179   1.622
  297TIP3    H1  768   4.085   2.122   1.613
  297TIP3    H2  769   4.149   2.243   1.549
  298TIP3   OH2  770   4.230   2.021   0.257
  298TIP3    H1  771   4.283   2.101   0.237
  298TIP3    H2  772   4.151   2.064   0.297
  299TIP3   OH2  773   4.063   1.506   0.721
  299TIP3    H1  774   4.078   1.421   0.766
  299TIP3    H2  775   4.133   1.501   0.653
  300TIP3   OH2  776   2.987   1.867   1.781
  300TIP3    H1  777   3.051   1.796   1.792
  300TIP3    H2  778   3.010   1.926   1.853
  301TIP3   OH2  779   4.083   0.864   1.819
  301TIP3    H1  780   4.164   0.898   1.861
  301TIP3    H2  781   4.070   0.779   1.867
  302TIP3   OH2  782   3.936   1.111   1.895
  302TIP3    H1  783   3.950   1.165   1.975
  302TIP3    H2  784   3.982   1.028   1.917
  303TIP3   OH2  785   4.564   1.002   1.876
  303TIP3    H1  786   4.466   0.998   1.883
  303TIP3    H2  787   4.576   0.966   1.786
  304TIP3   OH2  788   4.214   1.197   1.271
  304TIP3    H1  789   4.149   1.126   1.292
  304TIP3    H2  790   4.294   1.157   1.312
  305TIP3   OH2  791   4.183   2.152   1.214
  305TIP3    H1  792   4.141   2.200   1.140
  305TIP3    H2  793   4.278   2.171   1.194
  306TIP3   OH2  794   2.956   2.181   2.191
  306TIP3    H1  795   3.041   2.181   2.240
  306TIP3    H2  796   2.933   2.087   2.192
  307TIP3   OH2  797   3.439   2.147   2.237
  307TIP3    H1  798   3.533   2.126   2.244
  307TIP3    H2  799   3.412   2.088   2.164
  308TIP3   OH2  800   4.078   2.052   1.969
  308TIP3    H1  801   4.069   1.982   2.038
  308TIP3    H2  802   4.154   2.103   2.002
  309TIP3   OH2  803   3.098   1.588   2.402
  309TIP3    H1  804   3.109   1.492   2.406
  309TIP3    H2  805   3.009   1.596   2.360
  310TIP3   OH2  806   3.696   1.673   2.167
  310TIP3    H1  807   3.652   1.691   2.081
  310TIP3    H2  808   3.725   1.580   2.158
  311TIP3   OH2  809   4.187   1.681   1.774
  311TIP3    H1  810   4.261   1.727   1.728
  311TIP3    H2  811   4.115   1.746   1.762
  312TIP3   OH2  812   3.199   1.311   2.380
  312TIP3    H1  813   3.278   1.259   2.359
  312TIP3    H2  814   3.224   1.348   2.467
  313TIP3   OH2  815   3.531   1.204   2.073
  313TIP3    H1  816   3.453   1.264   2.069
  313TIP3    H2  817   3.569   1.221   1.983
  314TIP3   OH2  818   4.056   1.608   2.171
  314TIP3    H1  819   4.137   1.586   2.124
  314TIP3    H2  820   4.054   1.541   2.242
  315TIP3   OH2  821   3.670   0.987   2.164
  315TIP3    H1  822   3.651   0.907   2.112
  315TIP3    H2  823   3.619   1.055   2.114
  316TIP3   OH2  824   3.633   0.754   1.983
  316TIP3    H1  825   3.679   0.817   1.922
  316TIP3    H2  826   3.559   0.728   1.927
  317TIP3   OH2  827   3.643   1.274   1.844
  317TIP3    H1  828   3.696   1.252   1.765
  317TIP3    H2  829   3.596   1.353   1.810
  318TIP3   OH2  830   4.276   1.285   2.226
  318TIP3    H1  831   4.326   1.202   2.234
  318TIP3    H2  832   4.343   1.345   2.190
  319TIP3   OH2  833   4.317   1.539   1.961
  319TIP3    H1  834   4.258   1.591   1.902
  319TIP3    H2  835   4.404   1.560   1.921
  320TIP3   OH2  836   3.545   1.107   2.396
  320TIP3    H1  837   3.476   1.038   2.407
  320TIP3    H2  838   3.575   1.090   2.305
  321TIP3   OH2  839   3.800   0.544   2.037
  321TIP3    H1  840   3.749   0.626   2.022
  321TIP3    H2  841   3.745   0.480   1.989
  322TIP3   OH2  842   3.926   1.048   2.254
  322TIP3    H1  843   3.911   1.038   2.350
  322TIP3    H2  844   3.838   1.022   2.221
  323TIP3   OH2  845   4.165   0.998   2.108
  323TIP3    H1  846   4.088   1.000   2.168
  323TIP3    H2  847   4.236   0.966   2.166
  324TIP3   OH2  848   4.396   0.939   2.261
  324TIP3    H1  849   4.405   0.843   2.280
  324TIP3    H2  850   4.389   0.979   2.350
  325TIP3   OH2  851   3.384   0.889   2.442
  325TIP3    H1  852   3.387   0.796   2.408
  325TIP3    H2  853   3.419   0.876   2.532
  326TIP3   OH2  854   3.888   0.547   2.299
  326TIP3    H1  855   3.962   0.484   2.288
  326TIP3    H2  856   3.852   0.549   2.208
  327TIP3   OH2  857   3.957   0.767   2.455
  327TIP3    H1  858   3.933   0.698   2.389
  327TIP3    H2  859   3.881   0.829   2.449
  328TIP3   OH2  860   4.437   2.243   1.170
  328TIP3    H1  861   4.464   2.277   1.257
  328TIP3    H2  862   4.498   2.288   1.110
  329TIP3   OH2  863   4.466   2.265   1.453
  329TIP3    H1  864   4.423   2.177   1.448
  329TIP3    H2  865   4.542   2.242   1.509
  330TIP3   OH2  866   4.513   1.940   2.026
  330TIP3    H1  867   4.440   1.948   2.090
  330TIP3    H2  868   4.554   2.029   2.030
  331TIP3   OH2  869   4.340   1.482   0.661
  331TIP3    H1  870   4.422   1.526   0.633
  331TIP3    H2  871   4.375   1.409   0.716
  332TIP3   OH2  872   4.466   1.313   0.843
  332TIP3    H1  873   4.392   1.274   0.894
  332TIP3    H2  874   4.517   1.361   0.911
  333TIP3   OH2  875   4.511   1.713   1.282
  333TIP3    H1  876   4.563   1.649   1.230
  333TIP3    H2  877   4.504   1.789   1.220
  334TIP3   OH2  878   4.342   2.013   1.477
  334TIP3    H1  879   4.271   2.056   1.528
  334TIP3    H2  880   4.292   1.965   1.408
  335TIP3   OH2  881   4.282   1.176   1.000
  335TIP3    H1  882   4.286   1.079   0.998
  335TIP3    H2  883   4.262   1.194   1.094
  336TIP3   OH2  884   4.559   1.602   1.853
  336TIP3    H1  885   4.632   1.537   1.843
  336TIP3    H2  886   4.585   1.672   1.791
  337TIP3   OH2  887   4.744   1.408   1.869
  337TIP3    H1  888   4.670   1.358   1.908
  337TIP3    H2  889   4.817   1.344   1.883
  338TIP3   OH2  890   4.428   1.073   1.388
  338TIP3    H1  891   4.514   1.096   1.345
  338TIP3    H2  892   4.445   1.110   1.476
  339TIP3   OH2  893   4.501   1.211   1.618
  339TIP3    H1  894   4.427   1.248   1.671
  339TIP3    H2  895   4.532   1.292   1.571
  340TIP3   OH2  896   3.124   0.959   2.439
  340TIP3    H1  897   3.219   0.938   2.428
  340TIP3    H2  898   3.085   0.871   2.441
  341TIP3   OH2  899   4.950   0.802   2.175
  341TIP3    H1  900   5.007   0.737   2.129
  341TIP3    H2  901   4.919   0.858   2.100
  342TIP3   OH2  902   4.820   0.942   1.983
  342TIP3    H1  903   4.734   0.984   2.005
  342TIP3    H2  904   4.789   0.873   1.922
  343TIP3   OH2  905   4.027   2.109   0.833
  343TIP3    H1  906   4.072   2.090   0.748
  343TIP3    H2  907   4.084   2.177   0.871
  344TIP3   OH2  908   3.124   1.912   2.218
  344TIP3    H1  909   3.031   1.889   2.198
  344TIP3    H2  910   3.128   1.898   2.313
  345TIP3   OH2  911   3.303   1.945   1.764
  345TIP3    H1  912   3.246   2.013   1.725
  345TIP3    H2  913   3.386   1.966   1.716
  346TIP3   OH2  914   3.745   2.190   1.898
  346TIP3    H1  915   3.786   2.191   1.987
  346TIP3    H2  916   3.811   2.242   1.846
  347TIP3   OH2  917   3.924   2.343   1.756
  347TIP3    H1  918   3.996   2.292   1.716
  347TIP3    H2  919   3.975   2.400   1.818
  348TIP3   OH2  920   4.719   0.711   1.858
  348TIP3    H1  921   4.628   0.707   1.824
  348TIP3    H2  922   4.748   0.618   1.843
  349TIP3   OH2  923   2.983   2.217   1.778
  349TIP3    H1  924   2.890   2.243   1.759
  349TIP3    H2  925   2.984   2.229   1.874
  350TIP3   OH2  926   3.217   2.185   1.641
  350TIP3    H1  927   3.131   2.197   1.689
  350TIP3    H2  928   3.192   2.211   1.551
  351TIP3   OH2  929   3.640   2.211   1.440
  351TIP3    H1  930   3.570   2.230   1.376
  351TIP3    H2  931   3.652   2.298   1.483
  352TIP3   OH2  932   3.908   2.150   1.491
  352TIP3    H1  933   3.814   2.166   1.472
  352TIP3    H2  934   3.950   2.226   1.448
  353TIP3   OH2  935   4.116   2.343   1.406
  353TIP3    H1  936   4.100   2.428   1.359
  353TIP3    H2  937   4.141   2.283   1.333
  354TIP3   OH2  938   2.918   2.011   1.527
  354TIP3    H1  939   2.897   1.975   1.616
  354TIP3    H2  940   2.995   1.955   1.505
  355TIP3   OH2  941   3.105   1.860   1.407
  355TIP3    H1  942   3.123   1.781   1.462
  355TIP3    H2  943   3.195   1.894   1.391
  356TIP3   OH2  944   3.364   1.973   1.384
  356TIP3    H1  945   3.394   1.882   1.368
  356TIP3    H2  946   3.403   1.988   1.473
  357TIP3   OH2  947   4.474   0.484   1.393
  357TIP3    H1  948   4.515   0.538   1.321
  357TIP3    H2  949   4.381   0.503   1.378
  358TIP3   OH2  950   4.596   0.588   1.181
  358TIP3    H1  951   4.597   0.539   1.097
  358TIP3    H2  952   4.610   0.681   1.152
  359TIP3   OH2  953   4.167   2.072   0.594
  359TIP3    H1  954   4.157   1.975   0.581
  359TIP3    H2  955   4.119   2.106   0.516
  360TIP3   OH2  956   3.397   0.621   2.397
  360TIP3    H1  957   3.373   0.532   2.428
  360TIP3    H2  958   3.490   0.625   2.428
  361TIP3   OH2  959   3.645   0.612   2.510
  361TIP3    H1  960   3.727   0.582   2.467
  361TIP3    H2  961   3.630   0.542   2.576
  362TIP3   OH2  962   4.452   0.666   2.290
  362TIP3    H1  963   4.473   0.638   2.382
  362TIP3    H2  964   4.541   0.663   2.248
  363TIP3   OH2  965   4.393   2.220   1.783
  363TIP3    H1  966   4.314   2.188   1.735
  363TIP3    H2  967   4.374   2.316   1.786
  364TIP3   OH2  968   5.638   1.600   0.566
  364TIP3    H1  969   5.615   1.690   0.538
  364TIP3    H2  970   5.569   1.548   0.521
  365TIP3   OH2  971   5.657   1.595   0.932
  365TIP3    H1  972   5.689   1.561   1.017
  365TIP3    H2  973   5.617   1.516   0.892
  366TIP3   OH2  974   4.958   1.489   1.296
  366TIP3    H1  975   4.991   1.422   1.359
  366TIP3    H2  976   5.037   1.544   1.284
  367TIP3   OH2  977   5.902   1.892   0.611
  367TIP3    H1  978   5.886   1.825   0.679
  367TIP3    H2  979   5.931   1.968   0.664
  368TIP3   OH2  980   4.930   1.898   1.022
  368TIP3    H1  981   4.920   1.801   1.023
  368TIP3    H2  982   5.027   1.906   1.013
  369TIP3   OH2  983   4.637   1.097   0.806
  369TIP3    H1  984   4.592   1.185   0.806
  369TIP3    H2  985   4.560   1.040   0.815
  370TIP3   OH2  986   4.700   1.393   0.982
  370TIP3    H1  987   4.749   1.314   1.015
  370TIP3    H2  988   4.750   1.417   0.903
  371TIP3   OH2  989   5.551   2.357   0.628
  371TIP3    H1  990   5.597   2.286   0.579
  371TIP3    H2  991   5.544   2.319   0.716
  372TIP3   OH2  992   5.456   1.818   0.979
  372TIP3    H1  993   5.494   1.741   0.932
  372TIP3    H2  994   5.540   1.863   1.003
  373TIP3   OH2  995   6.427   1.169   1.014
  373TIP3    H1  996   6.494   1.219   1.066
  373TIP3    H2  997   6.407   1.233   0.944
  374TIP3   OH2  998   5.865   1.319   1.010
  374TIP3    H1  999   5.908   1.233   1.029
  374TIP3    H2 1000   5.839   1.306   0.917
  375TIP3   OH2 1001   5.200   0.976   0.980
  375TIP3    H1 1002   5.187   1.051   0.918
  375TIP3    H2 1003   5.151   0.906   0.932
  376TIP3   OH2 1004   4.840   1.180   1.085
  376TIP3    H1 1005   4.924   1.162   1.132
  376TIP3    H2 1006   4.854   1.125   1.005
  377TIP3   OH2 1007   5.282   1.381   0.878
  377TIP3    H1 1008   5.376   1.356   0.888
  377TIP3    H2 1009   5.243   1.297   0.845
  378TIP3   OH2 1010   6.554   1.365   1.153
  378TIP3    H1 1011   6.466   1.408   1.144
  378TIP3    H2 1012   6.572   1.380   1.248
  379TIP3   OH2 1013   5.201   0.962   1.412
  379TIP3    H1 1014   5.144   1.001   1.343
  379TIP3    H2 1015   5.149   0.983   1.492
  380TIP3   OH2 1016   5.557   1.819   0.415
  380TIP3    H1 1017   5.511   1.792   0.334
  380TIP3    H2 1018   5.505   1.899   0.440
  381TIP3   OH2 1019   5.310   1.738   1.206
  381TIP3    H1 1020   5.247   1.804   1.242
  381TIP3    H2 1021   5.353   1.788   1.134
  382TIP3   OH2 1022   5.075   1.079   1.197
  382TIP3    H1 1023   5.137   1.153   1.218
  382TIP3    H2 1024   5.122   1.038   1.121
  383TIP3   OH2 1025   5.138   1.932   1.304
  383TIP3    H1 1026   5.112   2.017   1.263
  383TIP3    H2 1027   5.059   1.916   1.360
  384TIP3   OH2 1028   4.554   1.622   0.554
  384TIP3    H1 1029   4.502   1.630   0.472
  384TIP3    H2 1030   4.566   1.715   0.582
  385TIP3   OH2 1031   5.973   2.137   0.779
  385TIP3    H1 1032   5.883   2.129   0.818
  385TIP3    H2 1033   5.965   2.223   0.734
  386TIP3   OH2 1034   6.234   1.044   1.162
  386TIP3    H1 1035   6.151   1.067   1.116
  386TIP3    H2 1036   6.301   1.076   1.098
  387TIP3   OH2 1037   5.569   0.714   1.138
  387TIP3    H1 1038   5.539   0.639   1.082
  387TIP3    H2 1039   5.485   0.740   1.180
  388TIP3   OH2 1040   5.674   2.183   0.454
  388TIP3    H1 1041   5.726   2.103   0.433
  388TIP3    H2 1042   5.732   2.252   0.415
  389TIP3   OH2 1043   5.821   1.967   0.358
  389TIP3    H1 1044   5.763   1.894   0.333
  389TIP3    H2 1045   5.854   1.937   0.446
  390TIP3   OH2 1046   6.198   2.051   1.123
  390TIP3    H1 1047   6.188   1.974   1.064
  390TIP3    H2 1048   6.181   2.126   1.062
  391TIP3   OH2 1049   5.489   1.458   0.375
  391TIP3    H1 1050   5.408   1.508   0.353
  391TIP3    H2 1051   5.525   1.440   0.286
  392TIP3   OH2 1052   6.389   1.680   0.961
  392TIP3    H1 1053   6.308   1.735   0.971
  392TIP3    H2 1054   6.420   1.712   0.873
  393TIP3   OH2 1055   5.829   1.546   0.383
  393TIP3    H1 1056   5.758   1.564   0.449
  393TIP3    H2 1057   5.904   1.530   0.441
  394TIP3   OH2 1058   6.073   1.566   1.264
  394TIP3    H1 1059   6.069   1.650   1.313
  394TIP3    H2 1060   5.986   1.569   1.218
  395TIP3   OH2 1061   5.068   1.523   0.768
  395TIP3    H1 1062   5.028   1.464   0.701
  395TIP3    H2 1063   5.146   1.471   0.797
  396TIP3   OH2 1064   5.198   1.935   0.917
  396TIP3    H1 1065   5.178   1.894   0.832
  396TIP3    H2 1066   5.288   1.901   0.935
  397TIP3   OH2 1067   5.207   1.495   1.124
  397TIP3    H1 1068   5.239   1.474   1.033
  397TIP3    H2 1069   5.250   1.581   1.142
  398TIP3   OH2 1070   5.732   2.134   0.900
  398TIP3    H1 1071   5.717   2.213   0.954
  398TIP3    H2 1072   5.717   2.060   0.963
  399TIP3   OH2 1073   5.343   2.052   1.448
  399TIP3    H1 1074   5.284   2.115   1.493
  399TIP3    H2 1075   5.277   1.999   1.398
  400TIP3   OH2 1076   5.099   1.607   1.550
  400TIP3    H1 1077   5.103   1.695   1.592
  400TIP3    H2 1078   5.002   1.589   1.556
  401TIP3   OH2 1079   5.421   2.064   0.456
  401TIP3    H1 1080   5.499   2.120   0.471
  401TIP3    H2 1081   5.359   2.124   0.411
  402TIP3   OH2 1082   5.138   2.222   1.534
  402TIP3    H1 1083   5.104   2.219   1.442
  402TIP3    H2 1084   5.058   2.199   1.586
  403TIP3   OH2 1085   4.936   1.364   0.573
  403TIP3    H1 1086   4.882   1.426   0.520
  403TIP3    H2 1087   4.875   1.289   0.579
  404TIP3   OH2 1088   4.716   1.752   1.480
  404TIP3    H1 1089   4.651   1.730   1.410
  404TIP3    H2 1090   4.753   1.664   1.503
  405TIP3   OH2 1091   4.571   1.943   1.117
  405TIP3    H1 1092   4.666   1.938   1.104
  405TIP3    H2 1093   4.561   2.024   1.168
  406TIP3   OH2 1094   6.435   2.395   1.168
  406TIP3    H1 1095   6.434   2.298   1.182
  406TIP3    H2 1096   6.352   2.420   1.214
  407TIP3   OH2 1097   5.542   2.181   1.304
  407TIP3    H1 1098   5.541   2.274   1.336
  407TIP3    H2 1099   5.470   2.142   1.358
  408TIP3   OH2 1100   5.298   2.308   0.256
  408TIP3    H1 1101   5.255   2.289   0.170
  408TIP3    H2 1102   5.269   2.400   0.274
  409TIP3   OH2 1103   4.739   2.160   0.639
  409TIP3    H1 1104   4.787   2.150   0.724
  409TIP3    H2 1105   4.685   2.079   0.639
  410TIP3   OH2 1106   5.486   2.224  -0.076
  410TIP3    H1 1107   5.559   2.176  -0.120
  410TIP3    H2 1108   5.525   2.234   0.013
  411TIP3   OH2 1109   5.556   2.267   0.183
  411TIP3    H1 1110   5.464   2.271   0.219
  411TIP3    H2 1111   5.603   2.220   0.253
  412TIP3   OH2 1112   6.324   1.527   1.444
  412TIP3    H1 1113   6.245   1.540   1.390
  412TIP3    H2 1114   6.342   1.432   1.430
  413TIP3   OH2 1115   4.923   1.934   1.470
  413TIP3    H1 1116   4.972   1.917   1.552
  413TIP3    H2 1117   4.848   1.871   1.477
  414TIP3   OH2 1118   5.318   0.760   1.254
  414TIP3    H1 1119   5.228   0.730   1.229
  414TIP3    H2 1120   5.295   0.845   1.296
  415TIP3   OH2 1121   5.854   0.881   1.455
  415TIP3    H1 1122   5.916   0.853   1.523
  415TIP3    H2 1123   5.766   0.865   1.496
  416TIP3   OH2 1124   6.091   1.301   1.365
  416TIP3    H1 1125   6.044   1.299   1.451
  416TIP3    H2 1126   6.069   1.389   1.330
  417TIP3   OH2 1127   5.253   1.273   1.272
  417TIP3    H1 1128   5.203   1.295   1.353
  417TIP3    H2 1129   5.238   1.354   1.218
  418TIP3   OH2 1130   5.138   1.162   0.792
  418TIP3    H1 1131   5.044   1.137   0.802
  418TIP3    H2 1132   5.154   1.131   0.700
  419TIP3   OH2 1133   5.584   1.270   0.552
  419TIP3    H1 1134   5.533   1.340   0.505
  419TIP3    H2 1135   5.637   1.238   0.477
  420TIP3   OH2 1136   5.802   1.524   1.600
  420TIP3    H1 1137   5.780   1.451   1.661
  420TIP3    H2 1138   5.896   1.538   1.621
  421TIP3   OH2 1139   5.789   1.270   0.745
  421TIP3    H1 1140   5.715   1.303   0.689
  421TIP3    H2 1141   5.807   1.187   0.697
  422TIP3   OH2 1142   5.073   1.304   1.481
  422TIP3    H1 1143   5.097   1.369   1.548
  422TIP3    H2 1144   5.060   1.223   1.534
  423TIP3   OH2 1145   4.674   0.818   1.060
  423TIP3    H1 1146   4.736   0.856   1.125
  423TIP3    H2 1147   4.715   0.842   0.976
  424TIP3   OH2 1148   5.796   1.520   1.177
  424TIP3    H1 1149   5.827   1.448   1.117
  424TIP3    H2 1150   5.766   1.466   1.253
  425TIP3   OH2 1151   5.454   0.995   0.853
  425TIP3    H1 1152   5.378   0.987   0.913
  425TIP3    H2 1153   5.530   0.979   0.911
  426TIP3   OH2 1154   4.897   1.034   0.860
  426TIP3    H1 1155   4.806   1.047   0.824
  426TIP3    H2 1156   4.924   0.948   0.824
  427TIP3   OH2 1157   5.174   1.053   0.546
  427TIP3    H1 1158   5.272   1.039   0.547
  427TIP3    H2 1159   5.155   1.046   0.452
  428TIP3   OH2 1160   5.946   1.054   1.050
  428TIP3    H1 1161   5.912   1.069   1.141
  428TIP3    H2 1162   5.876   0.996   1.014
  429TIP3   OH2 1163   6.126   2.746   1.268
  429TIP3    H1 1164   6.124   2.769   1.173
  429TIP3    H2 1165   6.205   2.795   1.298
  430TIP3   OH2 1166   5.083   1.854   1.690
  430TIP3    H1 1167   5.162   1.887   1.737
  430TIP3    H2 1168   5.018   1.856   1.763
  431TIP3   OH2 1169   5.550   1.313   0.945
  431TIP3    H1 1170   5.609   1.264   0.887
  431TIP3    H2 1171   5.563   1.268   1.030
  432TIP3   OH2 1172   5.071   0.797   0.816
  432TIP3    H1 1173   5.051   0.708   0.849
  432TIP3    H2 1174   5.127   0.780   0.739
  433TIP3   OH2 1175   5.523   1.201   1.243
  433TIP3    H1 1176   5.435   1.243   1.249
  433TIP3    H2 1177   5.582   1.266   1.286
  434TIP3   OH2 1178   5.259   1.605   0.329
  434TIP3    H1 1179   5.193   1.532   0.322
  434TIP3    H2 1180   5.242   1.636   0.422
  435TIP3   OH2 1181   6.161   1.832   0.960
  435TIP3    H1 1182   6.186   1.881   0.878
  435TIP3    H2 1183   6.074   1.793   0.936
  436TIP3   OH2 1184   5.660   1.915   1.327
  436TIP3    H1 1185   5.683   1.895   1.418
  436TIP3    H2 1186   5.621   2.004   1.332
  437TIP3   OH2 1187   4.955   1.621   1.006
  437TIP3    H1 1188   4.991   1.592   0.919
  437TIP3    H2 1189   4.993   1.555   1.065
  438TIP3   OH2 1190   5.419   1.752   0.162
  438TIP3    H1 1191   5.370   1.837   0.166
  438TIP3    H2 1192   5.359   1.694   0.215
  439TIP3   OH2 1193   4.833   1.539   1.618
  439TIP3    H1 1194   4.853   1.525   1.713
  439TIP3    H2 1195   4.763   1.473   1.602
  440TIP3   OH2 1196   5.558   1.653   1.640
  440TIP3    H1 1197   5.500   1.597   1.586
  440TIP3    H2 1198   5.646   1.620   1.611
  441TIP3   OH2 1199   5.821   2.175   1.223
  441TIP3    H1 1200   5.724   2.173   1.234
  441TIP3    H2 1201   5.848   2.227   1.301
  442TIP3   OH2 1202   6.448   2.105   1.212
  442TIP3    H1 1203   6.350   2.099   1.203
  442TIP3    H2 1204   6.475   2.076   1.122
  443TIP3   OH2 1205   5.936   2.055   0.038
  443TIP3    H1 1206   5.915   2.015   0.123
  443TIP3    H2 1207   5.867   2.018  -0.020
  444TIP3   OH2 1208   5.923   1.699   0.880
  444TIP3    H1 1209   5.830   1.673   0.893
  444TIP3    H2 1210   5.958   1.618   0.837
  445TIP3   OH2 1211   5.053   1.923   0.632
  445TIP3    H1 1212   5.055   2.004   0.577
  445TIP3    H2 1213   4.958   1.906   0.637
  446TIP3   OH2 1214   4.654   1.260   0.439
  446TIP3    H1 1215   4.695   1.348   0.425
  446TIP3    H2 1216   4.585   1.261   0.370
  447TIP3   OH2 1217   5.194   1.690   0.578
  447TIP3    H1 1218   5.158   1.779   0.595
  447TIP3    H2 1219   5.155   1.639   0.651
  448TIP3   OH2 1220   5.323   2.266   1.099
  448TIP3    H1 1221   5.363   2.339   1.048
  448TIP3    H2 1222   5.400   2.233   1.147
  449TIP3   OH2 1223   4.974   2.161   0.484
  449TIP3    H1 1224   4.887   2.170   0.529
  449TIP3    H2 1225   5.006   2.254   0.486
  450TIP3   OH2 1226   5.712   1.902   1.057
  450TIP3    H1 1227   5.703   1.899   1.155
  450TIP3    H2 1228   5.791   1.847   1.043
  451TIP3   OH2 1229   5.746   1.839  -0.034
  451TIP3    H1 1230   5.785   1.797   0.045
  451TIP3    H2 1231   5.667   1.880   0.001
  452TIP3   OH2 1232   5.960   2.436   1.109
  452TIP3    H1 1233   5.881   2.379   1.101
  452TIP3    H2 1234   5.945   2.500   1.036
  453TIP3   OH2 1235   6.008   2.270  -0.180
  453TIP3    H1 1236   6.050   2.293  -0.261
  453TIP3    H2 1237   5.934   2.338  -0.172
  454TIP3   OH2 1238   5.045   1.045   1.628
  454TIP3    H1 1239   4.948   1.052   1.640
  454TIP3    H2 1240   5.070   0.986   1.700
  455TIP3   OH2 1241   5.856   1.729   0.186
  455TIP3    H1 1242   5.832   1.661   0.253
  455TIP3    H2 1243   5.938   1.764   0.224
  456TIP3   OH2 1244   4.761   2.131   1.259
  456TIP3    H1 1245   4.813   2.055   1.288
  456TIP3    H2 1246   4.791   2.199   1.320
  457TIP3   OH2 1247   5.041   1.780  -0.064
  457TIP3    H1 1248   5.101   1.704  -0.079
  457TIP3    H2 1249   5.021   1.772   0.031
  458TIP3   OH2 1250   4.999   1.779   0.212
  458TIP3    H1 1251   5.072   1.750   0.269
  458TIP3    H2 1252   5.005   1.877   0.220
  459TIP3   OH2 1253   4.762   1.510   0.422
  459TIP3    H1 1254   4.695   1.548   0.483
  459TIP3    H2 1255   4.763   1.577   0.352
  460TIP3   OH2 1256   5.880   1.114   1.309
  460TIP3    H1 1257   5.964   1.152   1.340
  460TIP3    H2 1258   5.871   1.033   1.363
  461TIP3   OH2 1259   5.266   1.975   0.168
  461TIP3    H1 1260   5.180   2.009   0.198
  461TIP3    H2 1261   5.275   2.021   0.083
  462TIP3   OH2 1262   5.442   1.031   0.579
  462TIP3    H1 1263   5.502   1.107   0.571
  462TIP3    H2 1264   5.455   1.007   0.673
  463TIP3   OH2 1265   5.719   1.358   1.383
  463TIP3    H1 1266   5.742   1.413   1.461
  463TIP3    H2 1267   5.777   1.281   1.394
  464TIP3   OH2 1268   5.006   2.051   0.230
  464TIP3    H1 1269   4.978   2.121   0.167
  464TIP3    H2 1270   4.991   2.095   0.316
  465TIP3   OH2 1271   6.359   1.265   1.358
  465TIP3    H1 1272   6.261   1.261   1.365
  465TIP3    H2 1273   6.371   1.215   1.277
  466TIP3   OH2 1274   6.008   1.461   0.752
  466TIP3    H1 1275   5.934   1.397   0.750
  466TIP3    H2 1276   6.076   1.410   0.803
  467TIP3   OH2 1277   4.728   1.698   0.221
  467TIP3    H1 1278   4.804   1.758   0.228
  467TIP3    H2 1279   4.764   1.636   0.154
  468TIP3   OH2 1280   5.979   2.409   0.701
  468TIP3    H1 1281   5.937   2.457   0.627
  468TIP3    H2 1282   6.073   2.428   0.681
  469TIP3   OH2 1283   5.056   0.680   1.227
  469TIP3    H1 1284   5.023   0.642   1.142
  469TIP3    H2 1285   5.044   0.604   1.288
  470TIP3   OH2 1286   4.598   1.903   0.611
  470TIP3    H1 1287   4.523   1.930   0.667
  470TIP3    H2 1288   4.571   1.940   0.524
  471TIP3   OH2 1289   4.752   2.438   1.680
  471TIP3    H1 1290   4.838   2.437   1.727
  471TIP3    H2 1291   4.730   2.343   1.679
  472TIP3   OH2 1292   5.235   2.403   1.725
  472TIP3    H1 1293   5.329   2.383   1.731
  472TIP3    H2 1294   5.208   2.344   1.651
  473TIP3   OH2 1295   5.218   1.982  -0.121
  473TIP3    H1 1296   5.146   1.916  -0.110
  473TIP3    H2 1297   5.278   1.937  -0.181
  474TIP3   OH2 1298   5.872   2.310   1.458
  474TIP3    H1 1299   5.864   2.239   1.526
  474TIP3    H2 1300   5.950   2.359   1.489
  475TIP3   OH2 1301   5.711   2.098  -0.153
  475TIP3    H1 1302   5.708   2.011  -0.197
  475TIP3    H2 1303   5.750   2.151  -0.223
  476TIP3   OH2 1304   4.882   1.844   1.881
  476TIP3    H1 1305   4.899   1.748   1.883
  476TIP3    H2 1306   4.794   1.847   1.837
  477TIP3   OH2 1307   4.857   1.508   0.072
  477TIP3    H1 1308   4.919   1.462   0.131
  477TIP3    H2 1309   4.912   1.527  -0.005
  478TIP3   OH2 1310   5.490   1.929   1.654
  478TIP3    H1 1311   5.449   1.945   1.567
  478TIP3    H2 1312   5.522   1.836   1.645
  479TIP3   OH2 1313   5.264   1.626  -0.081
  479TIP3    H1 1314   5.295   1.695  -0.021
  479TIP3    H2 1315   5.350   1.612  -0.126
  480TIP3   OH2 1316   5.984   1.937   1.260
  480TIP3    H1 1317   6.058   1.983   1.216
  480TIP3    H2 1318   5.912   2.002   1.247
  481TIP3   OH2 1319   5.000   1.577   1.864
  481TIP3    H1 1320   5.077   1.524   1.840
  481TIP3    H2 1321   5.026   1.610   1.952
  482TIP3   OH2 1322   5.084   1.398   0.311
  482TIP3    H1 1323   5.047   1.359   0.392
  482TIP3    H2 1324   5.067   1.329   0.244
  483TIP3   OH2 1325   5.337   1.462   1.524
  483TIP3    H1 1326   5.260   1.522   1.527
  483TIP3    H2 1327   5.386   1.496   1.445
  484TIP3   OH2 1328   5.853   1.864   1.658
  484TIP3    H1 1329   5.933   1.842   1.609
  484TIP3    H2 1330   5.852   1.797   1.728
  485TIP3   OH2 1331   5.459   1.250   1.650
  485TIP3    H1 1332   5.460   1.172   1.592
  485TIP3    H2 1333   5.417   1.318   1.593
  486TIP3   OH2 1334   5.461   1.035   1.458
  486TIP3    H1 1335   5.489   1.081   1.376
  486TIP3    H2 1336   5.367   1.016   1.438
  487TIP3   OH2 1337   5.490   1.574   1.332
  487TIP3    H1 1338   5.572   1.581   1.282
  487TIP3    H2 1339   5.434   1.640   1.287
  488TIP3   OH2 1340   6.074   1.541   1.713
  488TIP3    H1 1341   6.123   1.457   1.720
  488TIP3    H2 1342   6.141   1.600   1.675
  489TIP3   OH2 1343   6.113   1.793   1.449
  489TIP3    H1 1344   6.056   1.847   1.389
  489TIP3    H2 1345   6.201   1.812   1.408
  490TIP3   OH2 1346   5.340   1.362   1.882
  490TIP3    H1 1347   5.269   1.296   1.894
  490TIP3    H2 1348   5.373   1.339   1.793
  491TIP3   OH2 1349   5.595   0.807   1.529
  491TIP3    H1 1350   5.544   0.888   1.502
  491TIP3    H2 1351   5.530   0.737   1.510
  492TIP3   OH2 1352   5.721   1.305   1.741
  492TIP3    H1 1353   5.709   1.296   1.837
  492TIP3    H2 1354   5.631   1.281   1.710
  493TIP3   OH2 1355   5.959   1.254   1.595
  493TIP3    H1 1356   5.884   1.257   1.657
  493TIP3    H2 1357   6.033   1.225   1.653
  494TIP3   OH2 1358   6.183   1.193   1.749
  494TIP3    H1 1359   6.200   1.098   1.768
  494TIP3    H2 1360   6.184   1.234   1.838
  495TIP3   OH2 1361   5.176   1.143   1.933
  495TIP3    H1 1362   5.186   1.053   1.897
  495TIP3    H2 1363   5.211   1.131   2.023
  496TIP3   OH2 1364   5.685   0.814   1.784
  496TIP3    H1 1365   5.747   0.741   1.776
  496TIP3    H2 1366   5.643   0.814   1.696
  497TIP3   OH2 1367   5.753   1.026   1.944
  497TIP3    H1 1368   5.728   0.958   1.877
  497TIP3    H2 1369   5.677   1.089   1.938
  498TIP3   OH2 1370   4.962   2.249   0.044
  498TIP3    H1 1371   5.057   2.253   0.021
  498TIP3    H2 1372   4.922   2.294  -0.031
  499TIP3   OH2 1373   4.474   1.607   0.280
  499TIP3    H1 1374   4.562   1.647   0.264
  499TIP3    H2 1375   4.439   1.610   0.189
  500TIP3   OH2 1376   4.368   2.248   0.669
  500TIP3    H1 1377   4.300   2.185   0.636
  500TIP3    H2 1378   4.413   2.192   0.736
  501TIP3   OH2 1379   4.504   2.102   0.858
  501TIP3    H1 1380   4.492   2.027   0.918
  501TIP3    H2 1381   4.556   2.162   0.915
  502TIP3   OH2 1382   6.232   2.500   0.658
  502TIP3    H1 1383   6.262   2.535   0.744
  502TIP3    H2 1384   6.295   2.540   0.597
  503TIP3   OH2 1385   6.263   2.522   0.942
  503TIP3    H1 1386   6.219   2.434   0.934
  503TIP3    H2 1387   6.339   2.497   0.997
  504TIP3   OH2 1388   6.309   2.198   1.512
  504TIP3    H1 1389   6.236   2.205   1.577
  504TIP3    H2 1390   6.350   2.286   1.517
  505TIP3   OH2 1391   6.307   1.968   0.768
  505TIP3    H1 1392   6.359   1.905   0.715
  505TIP3    H2 1393   6.301   2.046   0.709
  506TIP3   OH2 1394   6.138   2.270   0.963
  506TIP3    H1 1395   6.067   2.312   1.015
  506TIP3    H2 1396   6.088   2.222   0.894
  507TIP3   OH2 1397   6.214   1.433   0.555
  507TIP3    H1 1398   6.162   1.394   0.483
  507TIP3    H2 1399   6.143   1.456   0.617
  508TIP3   OH2 1400   4.693   1.506   1.232
  508TIP3    H1 1401   4.691   1.476   1.139
  508TIP3    H2 1402   4.791   1.509   1.247
  509TIP3   OH2 1403   6.355   1.858   1.339
  509TIP3    H1 1404   6.428   1.792   1.331
  509TIP3    H2 1405   6.384   1.928   1.278
  510TIP3   OH2 1406   6.540   1.665   1.359
  510TIP3    H1 1407   6.466   1.613   1.397
  510TIP3    H2 1408   6.614   1.602   1.374
  511TIP3   OH2 1409   6.219   1.339   0.877
  511TIP3    H1 1410   6.298   1.369   0.829
  511TIP3    H2 1411   6.238   1.370   0.968
  512TIP3   OH2 1412   6.295   1.471   1.110
  512TIP3    H1 1413   6.215   1.502   1.156
  512TIP3    H2 1414   6.324   1.552   1.062
  513TIP3   OH2 1415   4.908   1.193   1.902
  513TIP3    H1 1416   5.006   1.188   1.905
  513TIP3    H2 1417   4.885   1.108   1.946
  514TIP3   OH2 1418   6.729   1.069   1.668
  514TIP3    H1 1419   6.795   1.005   1.635
  514TIP3    H2 1420   6.710   1.123   1.588
  515TIP3   OH2 1421   4.874   0.889   1.236
  515TIP3    H1 1422   4.936   0.815   1.244
  515TIP3    H2 1423   4.935   0.964   1.230
  516TIP3   OH2 1424   4.674   1.160   1.309
  516TIP3    H1 1425   4.724   1.155   1.225
  516TIP3    H2 1426   4.699   1.248   1.339
  517TIP3   OH2 1427   6.614   1.205   1.464
  517TIP3    H1 1428   6.523   1.237   1.477
  517TIP3    H2 1429   6.597   1.133   1.401
  518TIP3   OH2 1430   5.818   2.368   0.324
  518TIP3    H1 1431   5.863   2.348   0.239
  518TIP3    H2 1432   5.877   2.435   0.361
  519TIP3   OH2 1433   4.876   0.734   1.621
  519TIP3    H1 1434   4.828   0.739   1.705
  519TIP3    H2 1435   4.813   0.781   1.562
  520TIP3   OH2 1436   4.919   2.169   1.701
  520TIP3    H1 1437   4.826   2.144   1.683
  520TIP3    H2 1438   4.926   2.153   1.795
  521TIP3   OH2 1439   5.096   2.203   1.249
  521TIP3    H1 1440   5.047   2.278   1.209
  521TIP3    H2 1441   5.182   2.217   1.203
  522TIP3   OH2 1442   5.541   2.448   1.386
  522TIP3    H1 1443   5.583   2.448   1.474
  522TIP3    H2 1444   5.607   2.498   1.333
  523TIP3   OH2 1445   5.720   2.599   1.244
  523TIP3    H1 1446   5.791   2.548   1.202
  523TIP3    H2 1447   5.772   2.656   1.304
  524TIP3   OH2 1448   6.484   0.967   1.364
  524TIP3    H1 1449   6.423   0.971   1.289
  524TIP3    H2 1450   6.553   0.907   1.331
  525TIP3   OH2 1451   4.773   2.461   1.270
  525TIP3    H1 1452   4.684   2.494   1.247
  525TIP3    H2 1453   4.781   2.496   1.360
  526TIP3   OH2 1454   5.009   2.439   1.129
  526TIP3    H1 1455   4.923   2.452   1.174
  526TIP3    H2 1456   4.989   2.471   1.039
  527TIP3   OH2 1457   5.435   2.467   0.927
  527TIP3    H1 1458   5.366   2.487   0.861
  527TIP3    H2 1459   5.447   2.555   0.969
  528TIP3   OH2 1460   5.703   2.408   0.979
  528TIP3    H1 1461   5.609   2.423   0.959
  528TIP3    H2 1462   5.745   2.483   0.934
  529TIP3   OH2 1463   5.913   2.600   0.893
  529TIP3    H1 1464   5.896   2.684   0.845
  529TIP3    H2 1465   5.937   2.540   0.820
  530TIP3   OH2 1466   4.684   2.254   1.016
  530TIP3    H1 1467   4.711   2.228   1.107
  530TIP3    H2 1468   4.756   2.211   0.965
  531TIP3   OH2 1469   4.877   2.126   0.873
  531TIP3    H1 1470   4.893   2.041   0.921
  531TIP3    H2 1471   4.968   2.162   0.869
  532TIP3   OH2 1472   5.143   2.221   0.875
  532TIP3    H1 1473   5.175   2.130   0.861
  532TIP3    H2 1474   5.188   2.241   0.960
  533TIP3   OH2 1475   5.734   0.882   0.975
  533TIP3    H1 1476   5.679   0.824   1.031
  533TIP3    H2 1477   5.767   0.818   0.908
  534TIP3   OH2 1478   4.980   0.566   0.985
  534TIP3    H1 1479   4.889   0.543   0.964
  534TIP3    H2 1480   5.028   0.488   0.953
  535TIP3   OH2 1481   4.471   2.023   0.407
  535TIP3    H1 1482   4.388   1.989   0.370
  535TIP3    H2 1483   4.457   2.119   0.396
  536TIP3   OH2 1484   5.226   2.229  -0.012
  536TIP3    H1 1485   5.318   2.248  -0.043
  536TIP3    H2 1486   5.213   2.145  -0.063
  537TIP3   OH2 1487   5.957   2.328   0.094
  537TIP3    H1 1488   5.966   2.234   0.064
  537TIP3    H2 1489   5.912   2.364   0.014
  538TIP3   OH2 1490   5.176   0.861   1.867
  538TIP3    H1 1491   5.142   0.795   1.929
  538TIP3    H2 1492   5.270   0.865   1.895
  539TIP3   OH2 1493   5.423   0.862   1.990
  539TIP3    H1 1494   5.509   0.841   1.951
  539TIP3    H2 1495   5.413   0.791   2.056
  540TIP3   OH2 1496   4.553   2.054   0.066
  540TIP3    H1 1497   4.537   2.100   0.149
  540TIP3    H2 1498   4.644   2.024   0.075
  541TIP3   OH2 1499   6.245   0.920   1.779
  541TIP3    H1 1500   6.272   0.896   1.870
  541TIP3    H2 1501   6.332   0.920   1.732
  542TIP3   OH2 1502   6.189   2.477   1.271
  542TIP3    H1 1503   6.110   2.445   1.222
  542TIP3    H2 1504   6.169   2.573   1.273
  543TIP3   OH2 1505   6.753   1.760   0.799
  543TIP3    H1 1506   6.777   1.681   0.853
  543TIP3    H2 1507   6.830   1.816   0.820
  544TIP3   OH2 1508   6.725   2.176   0.517
  544TIP3    H1 1509   6.714   2.081   0.539
  544TIP3    H2 1510   6.820   2.178   0.499
  545TIP3   OH2 1511   7.373   2.575   0.122
  545TIP3    H1 1512   7.359   2.480   0.108
  545TIP3    H2 1513   7.353   2.581   0.217
  546TIP3   OH2 1514   7.102   1.998   0.708
  546TIP3    H1 1515   7.029   2.057   0.735
  546TIP3    H2 1516   7.147   2.052   0.642
  547TIP3   OH2 1517   6.929   2.192   0.791
  547TIP3    H1 1518   6.904   2.277   0.751
  547TIP3    H2 1519   6.851   2.176   0.848
  548TIP3   OH2 1520   7.938   2.307   0.615
  548TIP3    H1 1521   7.875   2.261   0.557
  548TIP3    H2 1522   7.931   2.399   0.583
  549TIP3   OH2 1523   6.990   2.189   0.406
  549TIP3    H1 1524   6.975   2.151   0.318
  549TIP3    H2 1525   7.086   2.185   0.413
  550TIP3   OH2 1526   7.460   2.403   0.373
  550TIP3    H1 1527   7.498   2.486   0.406
  550TIP3    H2 1528   7.499   2.339   0.435
  551TIP3   OH2 1529   7.137   2.308   0.934
  551TIP3    H1 1530   7.079   2.371   0.980
  551TIP3    H2 1531   7.071   2.256   0.885
  552TIP3   OH2 1532   6.894   1.867   1.037
  552TIP3    H1 1533   6.901   1.953   1.083
  552TIP3    H2 1534   6.799   1.848   1.048
  553TIP3   OH2 1535   6.934   2.479   1.021
  553TIP3    H1 1536   6.900   2.476   0.929
  553TIP3    H2 1537   6.854   2.457   1.073
  554TIP3   OH2 1538   6.513   2.009   0.967
  554TIP3    H1 1539   6.447   1.986   0.899
  554TIP3    H2 1540   6.548   1.922   0.995
  555TIP3   OH2 1541   6.369   2.196   0.607
  555TIP3    H1 1542   6.464   2.198   0.590
  555TIP3    H2 1543   6.355   2.279   0.654
  556TIP3   OH2 1544   8.231   2.665   0.655
  556TIP3    H1 1545   8.231   2.567   0.664
  556TIP3    H2 1546   8.146   2.685   0.701
  557TIP3   OH2 1547   7.335   2.437   0.793
  557TIP3    H1 1548   7.337   2.530   0.824
  557TIP3    H2 1549   7.263   2.400   0.848
  558TIP3   OH2 1550   6.526   2.428   0.134
  558TIP3    H1 1551   6.573   2.413   0.219
  558TIP3    H2 1552   6.474   2.345   0.129
  559TIP3   OH2 1553   6.718   2.192   0.959
  559TIP3    H1 1554   6.768   2.174   1.040
  559TIP3    H2 1555   6.644   2.128   0.965
  560TIP3   OH2 1556   7.604   1.804   1.103
  560TIP3    H1 1557   7.580   1.720   1.148
  560TIP3    H2 1558   7.701   1.800   1.109
  561TIP3   OH2 1559   6.839   1.556   0.973
  561TIP3    H1 1560   6.900   1.614   1.021
  561TIP3    H2 1561   6.842   1.475   1.029
  562TIP3   OH2 1562   7.923   3.002   0.758
  562TIP3    H1 1563   7.918   3.023   0.662
  562TIP3    H2 1564   7.998   3.056   0.787
  563TIP3   OH2 1565   6.878   2.113   1.178
  563TIP3    H1 1566   6.958   2.144   1.224
  563TIP3    H2 1567   6.814   2.113   1.251
  564TIP3   OH2 1568   7.463   2.183   0.815
  564TIP3    H1 1569   7.470   2.147   0.904
  564TIP3    H2 1570   7.409   2.263   0.828
  565TIP3   OH2 1571   6.734   1.910   0.564
  565TIP3    H1 1572   6.762   1.856   0.487
  565TIP3    H2 1573   6.746   1.847   0.638
  566TIP3   OH2 1574   6.625   1.800   1.108
  566TIP3    H1 1575   6.654   1.787   1.201
  566TIP3    H2 1576   6.566   1.724   1.095
  567TIP3   OH2 1577   7.354   1.912   1.124
  567TIP3    H1 1578   7.311   1.875   1.045
  567TIP3    H2 1579   7.446   1.879   1.110
  568TIP3   OH2 1580   7.634   2.482   0.704
  568TIP3    H1 1581   7.544   2.445   0.700
  568TIP3    H2 1582   7.639   2.513   0.797
  569TIP3   OH2 1583   8.239   2.391   0.696
  569TIP3    H1 1584   8.158   2.364   0.742
  569TIP3    H2 1585   8.237   2.333   0.616
  570TIP3   OH2 1586   6.784   2.209   0.124
  570TIP3    H1 1587   6.786   2.286   0.063
  570TIP3    H2 1588   6.689   2.194   0.134
  571TIP3   OH2 1589   7.120   2.520   0.585
  571TIP3    H1 1590   7.161   2.592   0.534
  571TIP3    H2 1591   7.197   2.486   0.634
  572TIP3   OH2 1592   6.732   2.422  -0.045
  572TIP3    H1 1593   6.654   2.437   0.013
  572TIP3    H2 1594   6.779   2.507  -0.038
  573TIP3   OH2 1595   7.558   2.225   0.565
  573TIP3    H1 1596   7.517   2.206   0.653
  573TIP3    H2 1597   7.633   2.162   0.565
  574TIP3   OH2 1598   7.765   2.700   0.596
  574TIP3    H1 1599   7.698   2.629   0.606
  574TIP3    H2 1600   7.730   2.754   0.522
  575TIP3   OH2 1601   6.849   1.320   1.121
  575TIP3    H1 1602   6.751   1.320   1.128
  575TIP3    H2 1603   6.868   1.237   1.168
  576TIP3   OH2 1604   6.556   2.389   0.747
  576TIP3    H1 1605   6.608   2.311   0.774
  576TIP3    H2 1606   6.589   2.455   0.810
  577TIP3   OH2 1607   7.786   2.685   0.194
  577TIP3    H1 1608   7.738   2.737   0.125
  577TIP3    H2 1609   7.878   2.702   0.167
  578TIP3   OH2 1610   6.414   2.178   0.120
  578TIP3    H1 1611   6.322   2.175   0.149
  578TIP3    H2 1612   6.400   2.187   0.023
  579TIP3   OH2 1613   6.548   2.694   1.167
  579TIP3    H1 1614   6.634   2.693   1.213
  579TIP3    H2 1615   6.527   2.599   1.165
  580TIP3   OH2 1616   7.030   2.660   1.211
  580TIP3    H1 1617   7.125   2.639   1.219
  580TIP3    H2 1618   7.005   2.601   1.137
  581TIP3   OH2 1619   7.663   2.575   0.960
  581TIP3    H1 1620   7.658   2.499   1.022
  581TIP3    H2 1621   7.745   2.620   0.988
  582TIP3   OH2 1622   6.678   2.101   1.368
  582TIP3    H1 1623   6.696   2.005   1.372
  582TIP3    H2 1624   6.591   2.103   1.324
  583TIP3   OH2 1625   7.287   2.185   1.141
  583TIP3    H1 1626   7.243   2.198   1.054
  583TIP3    H2 1627   7.317   2.092   1.136
  584TIP3   OH2 1628   7.766   2.205   0.809
  584TIP3    H1 1629   7.827   2.258   0.756
  584TIP3    H2 1630   7.680   2.243   0.785
  585TIP3   OH2 1631   6.797   1.834   1.347
  585TIP3    H1 1632   6.872   1.777   1.326
  585TIP3    H2 1633   6.823   1.866   1.437
  586TIP3   OH2 1634   7.109   1.692   1.014
  586TIP3    H1 1635   7.042   1.762   1.029
  586TIP3    H2 1636   7.169   1.740   0.952
  587TIP3   OH2 1637   7.653   2.121   1.145
  587TIP3    H1 1638   7.728   2.089   1.093
  587TIP3    H2 1639   7.642   2.049   1.209
  588TIP3   OH2 1640   7.270   1.539   1.170
  588TIP3    H1 1641   7.256   1.454   1.125
  588TIP3    H2 1642   7.223   1.600   1.109
  589TIP3   OH2 1643   7.265   1.845   0.858
  589TIP3    H1 1644   7.340   1.844   0.795
  589TIP3    H2 1645   7.202   1.900   0.806
  590TIP3   OH2 1646   7.870   1.795   1.191
  590TIP3    H1 1647   7.907   1.728   1.254
  590TIP3    H2 1648   7.942   1.858   1.183
  591TIP3   OH2 1649   7.900   2.041   0.972
  591TIP3    H1 1650   7.836   2.090   0.916
  591TIP3    H2 1651   7.976   2.040   0.911
  592TIP3   OH2 1652   7.119   1.637   1.377
  592TIP3    H1 1653   7.058   1.562   1.387
  592TIP3    H2 1654   7.168   1.613   1.296
  593TIP3   OH2 1655   7.525   1.594   1.257
  593TIP3    H1 1656   7.500   1.575   1.349
  593TIP3    H2 1657   7.441   1.570   1.212
  594TIP3   OH2 1658   6.976   1.409   1.426
  594TIP3    H1 1659   6.968   1.314   1.403
  594TIP3    H2 1660   7.010   1.399   1.517
  595TIP3   OH2 1661   7.564   1.302   1.436
  595TIP3    H1 1662   7.566   1.251   1.354
  595TIP3    H2 1663   7.483   1.358   1.428
  596TIP3   OH2 1664   6.160   2.510   0.156
  596TIP3    H1 1665   6.097   2.443   0.121
  596TIP3    H2 1666   6.209   2.455   0.222
  597TIP3   OH2 1667   6.293   2.370   0.350
  597TIP3    H1 1668   6.290   2.286   0.398
  597TIP3    H2 1669   6.350   2.423   0.408
  598TIP3   OH2 1670   8.053   2.776   0.155
  598TIP3    H1 1671   8.062   2.805   0.248
  598TIP3    H2 1672   8.099   2.848   0.109
  599TIP3   OH2 1673   8.065   2.787   0.434
  599TIP3    H1 1674   8.019   2.700   0.432
  599TIP3    H2 1675   8.142   2.763   0.488
  600TIP3   OH2 1676   8.105   2.455   0.994
  600TIP3    H1 1677   8.033   2.459   1.060
  600TIP3    H2 1678   8.144   2.544   1.003
  601TIP3   OH2 1679   7.946   2.540   0.469
  601TIP3    H1 1680   7.878   2.594   0.514
  601TIP3    H2 1681   7.890   2.496   0.400
  602TIP3   OH2 1682   6.491   1.757   0.720
  602TIP3    H1 1683   6.507   1.715   0.633
  602TIP3    H2 1684   6.584   1.772   0.749
  603TIP3   OH2 1685   6.708   1.456   1.399
  603TIP3    H1 1686   6.805   1.448   1.393
  603TIP3    H2 1687   6.686   1.368   1.436
  604TIP3   OH2 1688   6.466   1.422   0.784
  604TIP3    H1 1689   6.440   1.451   0.695
  604TIP3    H2 1690   6.479   1.506   0.830
  605TIP3   OH2 1691   6.714   2.428   1.187
  605TIP3    H1 1692   6.622   2.400   1.170
  605TIP3    H2 1693   6.724   2.408   1.281
  606TIP3   OH2 1694   6.892   2.461   0.736
  606TIP3    H1 1695   6.843   2.536   0.695
  606TIP3    H2 1696   6.978   2.474   0.691
  607TIP3   OH2 1697   7.337   2.704   0.873
  607TIP3    H1 1698   7.379   2.705   0.961
  607TIP3    H2 1699   7.403   2.754   0.820
  608TIP3   OH2 1700   7.515   2.856   0.729
  608TIP3    H1 1701   7.585   2.803   0.688
  608TIP3    H2 1702   7.568   2.913   0.790
  609TIP3   OH2 1703   6.570   2.719   0.756
  609TIP3    H1 1704   6.480   2.752   0.733
  609TIP3    H2 1705   6.577   2.751   0.847
  610TIP3   OH2 1706   6.806   2.697   0.616
  610TIP3    H1 1707   6.719   2.709   0.661
  610TIP3    H2 1708   6.785   2.727   0.525
  611TIP3   OH2 1709   7.235   2.727   0.406
  611TIP3    H1 1710   7.157   2.746   0.349
  611TIP3    H2 1711   7.246   2.813   0.452
  612TIP3   OH2 1712   7.504   2.669   0.453
  612TIP3    H1 1713   7.408   2.683   0.441
  612TIP3    H2 1714   7.542   2.752   0.421
  613TIP3   OH2 1715   7.702   2.867   0.382
  613TIP3    H1 1716   7.691   2.950   0.331
  613TIP3    H2 1717   7.732   2.805   0.312
  614TIP3   OH2 1718   6.478   2.513   0.508
  614TIP3    H1 1719   6.507   2.485   0.597
  614TIP3    H2 1720   6.550   2.472   0.455
  615TIP3   OH2 1721   6.671   2.393   0.362
  615TIP3    H1 1722   6.686   2.308   0.409
  615TIP3    H2 1723   6.763   2.426   0.353
  616TIP3   OH2 1724   6.939   2.484   0.361
  616TIP3    H1 1725   6.968   2.395   0.340
  616TIP3    H2 1726   6.984   2.498   0.447
  617TIP3   OH2 1727   6.280   2.279  -0.099
  617TIP3    H1 1728   6.198   2.235  -0.124
  617TIP3    H2 1729   6.263   2.368  -0.135
  618TIP3   OH2 1730   6.952   1.140   1.409
  618TIP3    H1 1731   6.933   1.057   1.454
  618TIP3    H2 1732   7.016   1.110   1.340
  619TIP3   OH2 1733   7.249   1.127   1.492
  619TIP3    H1 1734   7.294   1.060   1.440
  619TIP3    H2 1735   7.212   1.073   1.565
  620TIP3   OH2 1736   7.986   2.734   0.760
  620TIP3    H1 1737   7.908   2.705   0.709
  620TIP3    H2 1738   7.968   2.830   0.763
  621TIP3   OH2 1739   8.340   2.946   0.654
  621TIP3    H1 1740   8.428   2.934   0.694
  621TIP3    H2 1741   8.309   2.854   0.649
  622TIP3   OH2 1742   8.456   2.360   0.855
  622TIP3    H1 1743   8.443   2.266   0.875
  622TIP3    H2 1744   8.377   2.377   0.799
  623TIP3   OH2 1745   8.505   2.650   0.688
  623TIP3    H1 1746   8.410   2.651   0.666
  623TIP3    H2 1747   8.505   2.649   0.784
  624TIP3   OH2 1748   8.350   2.982   0.218
  624TIP3    H1 1749   8.266   3.030   0.225
  624TIP3    H2 1750   8.384   2.990   0.308
  625TIP3   OH2 1751   0.694   3.447   2.364
  625TIP3    H1 1752   0.668   3.354   2.349
  625TIP3    H2 1753   0.610   3.480   2.402
  626TIP3   OH2 1754   0.372   3.788   2.445
  626TIP3    H1 1755   0.373   3.813   2.351
  626TIP3    H2 1756   0.452   3.835   2.477
  627TIP3   OH2 1757   0.566   3.249   2.697
  627TIP3    H1 1758   0.490   3.257   2.758
  627TIP3    H2 1759   0.606   3.338   2.704
  628TIP3   OH2 1760   0.439   3.523   2.438
  628TIP3    H1 1761   0.361   3.486   2.481
  628TIP3    H2 1762   0.423   3.619   2.451
  629TIP3   OH2 1763   1.943   3.191   1.279
  629TIP3    H1 1764   1.944   3.124   1.348
  629TIP3    H2 1765   1.978   3.268   1.326
  630TIP3   OH2 1766   1.601   3.662   1.293
  630TIP3    H1 1767   1.643   3.587   1.245
  630TIP3    H2 1768   1.574   3.620   1.375
  631TIP3   OH2 1769   1.531   3.159   1.638
  631TIP3    H1 1770   1.562   3.087   1.580
  631TIP3    H2 1771   1.617   3.187   1.675
  632TIP3   OH2 1772   2.526   2.438   1.633
  632TIP3    H1 1773   2.551   2.516   1.687
  632TIP3    H2 1774   2.521   2.477   1.545
  633TIP3   OH2 1775   2.590   2.645   1.806
  633TIP3    H1 1776   2.505   2.693   1.792
  633TIP3    H2 1777   2.601   2.661   1.901
  634TIP3   OH2 1778   1.386   3.052   1.954
  634TIP3    H1 1779   1.298   3.092   1.971
  634TIP3    H2 1780   1.444   3.129   1.956
  635TIP3   OH2 1781   1.177   3.234   1.973
  635TIP3    H1 1782   1.154   3.322   1.935
  635TIP3    H2 1783   1.104   3.225   2.038
  636TIP3   OH2 1784   2.015   3.439   1.439
  636TIP3    H1 1785   1.926   3.431   1.480
  636TIP3    H2 1786   2.009   3.528   1.398
  637TIP3   OH2 1787   2.329   2.355   1.815
  637TIP3    H1 1788   2.233   2.362   1.800
  637TIP3    H2 1789   2.367   2.385   1.730
  638TIP3   OH2 1790   1.733   3.482   1.132
  638TIP3    H1 1791   1.809   3.423   1.141
  638TIP3    H2 1792   1.767   3.548   1.068
  639TIP3   OH2 1793   2.240   3.362   1.792
  639TIP3    H1 1794   2.239   3.280   1.736
  639TIP3    H2 1795   2.229   3.432   1.725
  640TIP3   OH2 1796   2.443   2.986   1.628
  640TIP3    H1 1797   2.363   3.041   1.640
  640TIP3    H2 1798   2.470   3.013   1.538
  641TIP3   OH2 1799   2.148   2.873   1.938
  641TIP3    H1 1800   2.132   2.953   1.991
  641TIP3    H2 1801   2.060   2.863   1.894
  642TIP3   OH2 1802   1.777   3.438   1.568
  642TIP3    H1 1803   1.760   3.512   1.628
  642TIP3    H2 1804   1.772   3.360   1.627
  643TIP3   OH2 1805   1.388   3.355   2.101
  643TIP3    H1 1806   1.337   3.417   2.158
  643TIP3    H2 1807   1.313   3.306   2.060
  644TIP3   OH2 1808   1.132   2.947   2.210
  644TIP3    H1 1809   1.140   3.024   2.270
  644TIP3    H2 1810   1.049   2.906   2.243
  645TIP3   OH2 1811   1.183   3.524   2.199
  645TIP3    H1 1812   1.147   3.519   2.109
  645TIP3    H2 1813   1.105   3.502   2.255
  646TIP3   OH2 1814   2.479   3.695   1.830
  646TIP3    H1 1815   2.481   3.599   1.846
  646TIP3    H2 1816   2.397   3.719   1.879
  647TIP3   OH2 1817   1.582   3.486   1.964
  647TIP3    H1 1818   1.570   3.577   1.997
  647TIP3    H2 1819   1.513   3.438   2.016
  648TIP3   OH2 1820   2.373   2.831   2.107
  648TIP3    H1 1821   2.292   2.842   2.054
  648TIP3    H2 1822   2.388   2.734   2.099
  649TIP3   OH2 1823   0.975   3.238   2.153
  649TIP3    H1 1824   1.033   3.238   2.233
  649TIP3    H2 1825   0.926   3.157   2.167
  650TIP3   OH2 1826   2.140   2.599   2.028
  650TIP3    H1 1827   2.093   2.591   2.115
  650TIP3    H2 1828   2.117   2.689   2.001
  651TIP3   OH2 1829   1.853   2.826   2.260
  651TIP3    H1 1830   1.829   2.755   2.323
  651TIP3    H2 1831   1.946   2.839   2.285
  652TIP3   OH2 1832   1.896   2.824   1.855
  652TIP3    H1 1833   1.835   2.780   1.794
  652TIP3    H2 1834   1.842   2.823   1.935
  653TIP3   OH2 1835   2.166   4.048   1.927
  653TIP3    H1 1836   2.170   4.072   1.833
  653TIP3    H2 1837   2.245   4.094   1.962
  654TIP3   OH2 1838   1.133   3.176   2.366
  654TIP3    H1 1839   1.213   3.199   2.418
  654TIP3    H2 1840   1.067   3.168   2.437
  655TIP3   OH2 1841   2.226   3.147   1.630
  655TIP3    H1 1842   2.248   3.192   1.546
  655TIP3    H2 1843   2.139   3.106   1.609
  656TIP3   OH2 1844   1.702   3.220   1.987
  656TIP3    H1 1845   1.724   3.174   2.069
  656TIP3    H2 1846   1.667   3.305   2.018
  657TIP3   OH2 1847   1.613   2.962   2.307
  657TIP3    H1 1848   1.557   2.897   2.261
  657TIP3    H2 1849   1.701   2.932   2.276
  658TIP3   OH2 1850   1.863   3.488   1.885
  658TIP3    H1 1851   1.768   3.471   1.898
  658TIP3    H2 1852   1.887   3.530   1.969
  659TIP3   OH2 1853   2.493   3.407   1.876
  659TIP3    H1 1854   2.395   3.401   1.869
  659TIP3    H2 1855   2.518   3.376   1.785
  660TIP3   OH2 1856   2.001   3.019   1.554
  660TIP3    H1 1857   1.907   2.995   1.544
  660TIP3    H2 1858   2.039   2.930   1.540
  661TIP3   OH2 1859   1.373   3.561   1.765
  661TIP3    H1 1860   1.408   3.638   1.717
  661TIP3    H2 1861   1.452   3.530   1.814
  662TIP3   OH2 1862   1.785   3.205   1.728
  662TIP3    H1 1863   1.762   3.202   1.823
  662TIP3    H2 1864   1.872   3.161   1.729
  663TIP3   OH2 1865   2.001   3.739   1.778
  663TIP3    H1 1866   1.927   3.677   1.762
  663TIP3    H2 1867   1.991   3.799   1.701
  664TIP3   OH2 1868   0.819   3.427   1.924
  664TIP3    H1 1869   0.853   3.341   1.955
  664TIP3    H2 1870   0.829   3.481   2.003
  665TIP3   OH2 1871   1.909   2.432   1.978
  665TIP3    H1 1872   2.001   2.458   1.997
  665TIP3    H2 1873   1.914   2.336   1.978
  666TIP3   OH2 1874   1.745   2.646   2.062
  666TIP3    H1 1875   1.779   2.707   2.130
  666TIP3    H2 1876   1.816   2.579   2.056
  667TIP3   OH2 1877   2.407   2.562   2.022
  667TIP3    H1 1878   2.310   2.562   2.035
  667TIP3    H2 1879   2.413   2.506   1.943
  668TIP3   OH2 1880   2.064   2.749   1.513
  668TIP3    H1 1881   2.028   2.670   1.469
  668TIP3    H2 1882   2.155   2.715   1.528
  669TIP3   OH2 1883   2.024   3.711   1.365
  669TIP3    H1 1884   1.982   3.759   1.290
  669TIP3    H2 1885   2.118   3.730   1.346
  670TIP3   OH2 1886   0.798   3.741   2.339
  670TIP3    H1 1887   0.880   3.737   2.393
  670TIP3    H2 1888   0.771   3.648   2.340
  671TIP3   OH2 1889   1.292   3.714   2.373
  671TIP3    H1 1890   1.378   3.673   2.393
  671TIP3    H2 1891   1.256   3.649   2.309
  672TIP3   OH2 1892   1.904   3.621   2.130
  672TIP3    H1 1893   1.875   3.550   2.194
  672TIP3    H2 1894   2.000   3.616   2.147
  673TIP3   OH2 1895   0.925   3.142   2.540
  673TIP3    H1 1896   0.957   3.052   2.558
  673TIP3    H2 1897   0.830   3.128   2.531
  674TIP3   OH2 1898   1.541   3.232   2.315
  674TIP3    H1 1899   1.492   3.234   2.232
  674TIP3    H2 1900   1.575   3.140   2.318
  675TIP3   OH2 1901   2.026   3.238   1.918
  675TIP3    H1 1902   2.102   3.284   1.878
  675TIP3    H2 1903   1.956   3.304   1.909
  676TIP3   OH2 1904   1.054   2.881   2.538
  676TIP3    H1 1905   1.109   2.801   2.549
  676TIP3    H2 1906   1.072   2.919   2.627
  677TIP3   OH2 1907   1.413   2.776   2.208
  677TIP3    H1 1908   1.346   2.838   2.240
  677TIP3    H2 1909   1.425   2.803   2.116
  678TIP3   OH2 1910   1.900   3.166   2.318
  678TIP3    H1 1911   1.985   3.139   2.281
  678TIP3    H2 1912   1.891   3.104   2.392
  679TIP3   OH2 1913   1.535   2.563   2.324
  679TIP3    H1 1914   1.506   2.481   2.281
  679TIP3    H2 1915   1.493   2.633   2.269
  680TIP3   OH2 1916   1.601   2.904   2.019
  680TIP3    H1 1917   1.628   2.851   1.942
  680TIP3    H2 1918   1.522   2.951   1.987
  681TIP3   OH2 1919   2.116   2.841   2.372
  681TIP3    H1 1920   2.160   2.759   2.398
  681TIP3    H2 1921   2.190   2.896   2.345
  682TIP3   OH2 1922   2.159   3.100   2.112
  682TIP3    H1 1923   2.100   3.150   2.051
  682TIP3    H2 1924   2.246   3.118   2.070
  683TIP3   OH2 1925   1.372   2.688   2.525
  683TIP3    H1 1926   1.320   2.616   2.567
  683TIP3    H2 1927   1.418   2.643   2.453
  684TIP3   OH2 1928   1.785   2.613   2.413
  684TIP3    H1 1929   1.773   2.605   2.509
  684TIP3    H2 1930   1.694   2.589   2.383
  685TIP3   OH2 1931   2.009   2.553   2.259
  685TIP3    H1 1932   1.934   2.561   2.320
  685TIP3    H2 1933   2.081   2.523   2.318
  686TIP3   OH2 1934   2.240   2.493   2.406
  686TIP3    H1 1935   2.248   2.399   2.430
  686TIP3    H2 1936   2.229   2.537   2.494
  687TIP3   OH2 1937   1.299   2.451   2.642
  687TIP3    H1 1938   1.216   2.401   2.645
  687TIP3    H2 1939   1.318   2.458   2.739
  688TIP3   OH2 1940   1.737   2.117   2.469
  688TIP3    H1 1941   1.817   2.061   2.458
  688TIP3    H2 1942   1.721   2.148   2.379
  689TIP3   OH2 1943   1.801   2.336   2.620
  689TIP3    H1 1944   1.776   2.260   2.564
  689TIP3    H2 1945   1.722   2.394   2.614
  690TIP3   OH2 1946   2.276   3.803   1.321
  690TIP3    H1 1947   2.306   3.837   1.407
  690TIP3    H2 1948   2.340   3.843   1.260
  691TIP3   OH2 1949   2.306   3.823   1.606
  691TIP3    H1 1950   2.265   3.734   1.598
  691TIP3    H2 1951   2.384   3.800   1.659
  692TIP3   OH2 1952   2.347   3.502   2.174
  692TIP3    H1 1953   2.279   3.509   2.244
  692TIP3    H2 1954   2.392   3.588   2.181
  693TIP3   OH2 1955   2.351   3.274   1.426
  693TIP3    H1 1956   2.405   3.208   1.378
  693TIP3    H2 1957   2.348   3.348   1.362
  694TIP3   OH2 1958   2.183   3.572   1.623
  694TIP3    H1 1959   2.111   3.607   1.677
  694TIP3    H2 1960   2.136   3.521   1.554
  695TIP3   OH2 1961   2.401   3.161   2.000
  695TIP3    H1 1962   2.472   3.092   1.994
  695TIP3    H2 1963   2.435   3.231   1.942
  696TIP3   OH2 1964   2.587   2.967   2.016
  696TIP3    H1 1965   2.512   2.917   2.056
  696TIP3    H2 1966   2.659   2.902   2.032
  697TIP3   OH2 1967   2.298   2.624   1.550
  697TIP3    H1 1968   2.379   2.653   1.503
  697TIP3    H2 1969   2.314   2.662   1.639
  698TIP3   OH2 1970   2.347   2.772   1.772
  698TIP3    H1 1971   2.273   2.805   1.827
  698TIP3    H2 1972   2.375   2.854   1.726
  699TIP3   OH2 1973   2.790   2.360   2.323
  699TIP3    H1 1974   2.847   2.294   2.280
  699TIP3    H2 1975   2.762   2.416   2.248
  700TIP3   OH2 1976   2.663   2.503   2.130
  700TIP3    H1 1977   2.576   2.541   2.155
  700TIP3    H2 1978   2.633   2.429   2.073
  701TIP3   OH2 1979   1.857   3.671   0.979
  701TIP3    H1 1980   1.906   3.655   0.896
  701TIP3    H2 1981   1.914   3.736   1.024
  702TIP3   OH2 1982   0.967   3.473   2.367
  702TIP3    H1 1983   0.871   3.454   2.361
  702TIP3    H2 1984   0.983   3.454   2.461
  703TIP3   OH2 1985   1.144   3.500   1.916
  703TIP3    H1 1986   1.085   3.564   1.871
  703TIP3    H2 1987   1.227   3.523   1.870
  704TIP3   OH2 1988   1.592   3.746   2.057
  704TIP3    H1 1989   1.627   3.703   2.137
  704TIP3    H2 1990   1.671   3.785   2.015
  705TIP3   OH2 1991   1.821   3.890   1.952
  705TIP3    H1 1992   1.855   3.829   1.882
  705TIP3    H2 1993   1.832   3.975   1.907
  706TIP3   OH2 1994   2.567   2.270   2.009
  706TIP3    H1 1995   2.477   2.261   1.972
  706TIP3    H2 1996   2.598   2.177   2.001
  707TIP3   OH2 1997   0.814   3.776   1.909
  707TIP3    H1 1998   0.722   3.809   1.911
  707TIP3    H2 1999   0.836   3.782   2.003
  708TIP3   OH2 2000   1.065   3.748   1.793
  708TIP3    H1 2001   0.980   3.763   1.838
  708TIP3    H2 2002   1.044   3.774   1.702
  709TIP3   OH2 2003   1.482   3.767   1.593
  709TIP3    H1 2004   1.412   3.784   1.526
  709TIP3    H2 2005   1.493   3.856   1.630
  710TIP3   OH2 2006   1.747   3.720   1.656
  710TIP3    H1 2007   1.654   3.728   1.627
  710TIP3    H2 2008   1.792   3.781   1.594
  711TIP3   OH2 2009   1.956   3.900   1.557
  711TIP3    H1 2010   1.941   3.985   1.509
  711TIP3    H2 2011   1.983   3.841   1.483
  712TIP3   OH2 2012   1.221   3.565   1.526
  712TIP3    H1 2013   1.221   3.484   1.472
  712TIP3    H2 2014   1.268   3.539   1.608
  713TIP3   OH2 2015   1.991   3.631   0.735
  713TIP3    H1 2016   1.992   3.537   0.709
  713TIP3    H2 2017   1.953   3.672   0.655
  714TIP3   OH2 2018   1.504   2.183   2.670
  714TIP3    H1 2019   1.553   2.139   2.599
  714TIP3    H2 2020   1.441   2.114   2.699
  715TIP3   OH2 2021   2.294   2.224   2.443
  715TIP3    H1 2022   2.314   2.195   2.535
  715TIP3    H2 2023   2.383   2.221   2.402
  716TIP3   OH2 2024   2.232   3.781   1.934
  716TIP3    H1 2025   2.157   3.750   1.879
  716TIP3    H2 2026   2.216   3.878   1.932
  717TIP3   OH2 2027   3.502   3.152   0.707
  717TIP3    H1 2028   3.472   3.243   0.685
  717TIP3    H2 2029   3.431   3.102   0.661
  718TIP3   OH2 2030   3.493   3.153   1.084
  718TIP3    H1 2031   3.529   3.124   1.169
  718TIP3    H2 2032   3.464   3.069   1.044
  719TIP3   OH2 2033   2.801   3.043   1.442
  719TIP3    H1 2034   2.828   2.976   1.507
  719TIP3    H2 2035   2.871   3.109   1.455
  720TIP3   OH2 2036   3.743   3.450   0.763
  720TIP3    H1 2037   3.730   3.383   0.831
  720TIP3    H2 2038   3.771   3.527   0.814
  721TIP3   OH2 2039   2.769   3.455   1.171
  721TIP3    H1 2040   2.761   3.357   1.175
  721TIP3    H2 2041   2.866   3.464   1.166
  722TIP3   OH2 2042   2.547   2.956   1.137
  722TIP3    H1 2043   2.597   2.874   1.155
  722TIP3    H2 2044   2.592   2.995   1.061
  723TIP3   OH2 2045   3.388   3.909   0.779
  723TIP3    H1 2046   3.436   3.840   0.728
  723TIP3    H2 2047   3.391   3.873   0.868
  724TIP3   OH2 2048   3.299   3.373   1.126
  724TIP3    H1 2049   3.344   3.297   1.086
  724TIP3    H2 2050   3.379   3.423   1.152
  725TIP3   OH2 2051   4.311   2.696   1.126
  725TIP3    H1 2052   4.339   2.779   1.169
  725TIP3    H2 2053   4.333   2.715   1.033
  726TIP3   OH2 2054   3.708   2.878   1.161
  726TIP3    H1 2055   3.752   2.793   1.182
  726TIP3    H2 2056   3.679   2.861   1.069
  727TIP3   OH2 2057   3.015   2.533   1.114
  727TIP3    H1 2058   3.040   2.574   1.031
  727TIP3    H2 2059   3.007   2.440   1.090
  728TIP3   OH2 2060   3.741   2.628   0.750
  728TIP3    H1 2061   3.814   2.612   0.813
  728TIP3    H2 2062   3.791   2.662   0.674
  729TIP3   OH2 2063   2.688   2.730   1.211
  729TIP3    H1 2064   2.769   2.719   1.265
  729TIP3    H2 2065   2.663   2.638   1.196
  730TIP3   OH2 2066   3.134   2.937   1.016
  730TIP3    H1 2067   3.231   2.936   1.037
  730TIP3    H2 2068   3.122   2.842   1.005
  731TIP3   OH2 2069   4.384   2.904   1.296
  731TIP3    H1 2070   4.301   2.951   1.277
  731TIP3    H2 2071   4.399   2.929   1.388
  732TIP3   OH2 2072   3.045   2.519   1.560
  732TIP3    H1 2073   2.983   2.561   1.497
  732TIP3    H2 2074   2.996   2.532   1.644
  733TIP3   OH2 2075   3.381   3.365   0.576
  733TIP3    H1 2076   3.360   3.353   0.482
  733TIP3    H2 2077   3.346   3.455   0.593
  734TIP3   OH2 2078   3.148   3.295   1.356
  734TIP3    H1 2079   3.086   3.362   1.394
  734TIP3    H2 2080   3.193   3.348   1.286
  735TIP3   OH2 2081   3.952   2.631   0.921
  735TIP3    H1 2082   3.949   2.578   1.001
  735TIP3    H2 2083   4.007   2.707   0.947
  736TIP3   OH2 2084   2.912   2.641   1.347
  736TIP3    H1 2085   2.977   2.711   1.371
  736TIP3    H2 2086   2.958   2.600   1.270
  737TIP3   OH2 2087   2.977   3.489   1.453
  737TIP3    H1 2088   2.953   3.576   1.415
  737TIP3    H2 2089   2.900   3.475   1.511
  738TIP3   OH2 2090   2.363   3.189   0.702
  738TIP3    H1 2091   2.391   3.185   0.610
  738TIP3    H2 2092   2.411   3.267   0.734
  739TIP3   OH2 2093   3.813   3.695   0.931
  739TIP3    H1 2094   3.722   3.687   0.968
  739TIP3    H2 2095   3.806   3.780   0.884
  740TIP3   OH2 2096   4.105   2.596   1.293
  740TIP3    H1 2097   4.017   2.626   1.263
  740TIP3    H2 2098   4.163   2.628   1.221
  741TIP3   OH2 2099   3.405   2.238   1.277
  741TIP3    H1 2100   3.393   2.143   1.300
  741TIP3    H2 2101   3.325   2.276   1.319
  742TIP3   OH2 2102   3.513   3.741   0.604
  742TIP3    H1 2103   3.563   3.659   0.581
  742TIP3    H2 2104   3.573   3.807   0.563
  743TIP3   OH2 2105   3.650   3.524   0.512
  743TIP3    H1 2106   3.637   3.444   0.459
  743TIP3    H2 2107   3.689   3.488   0.595
  744TIP3   OH2 2108   4.039   3.609   1.274
  744TIP3    H1 2109   4.029   3.532   1.214
  744TIP3    H2 2110   4.022   3.684   1.213
  745TIP3   OH2 2111   3.335   3.016   0.538
  745TIP3    H1 2112   3.254   3.063   0.510
  745TIP3    H2 2113   3.376   2.995   0.452
  746TIP3   OH2 2114   3.291   2.792   0.349
  746TIP3    H1 2115   3.376   2.839   0.336
  746TIP3    H2 2116   3.315   2.702   0.320
  747TIP3   OH2 2117   4.235   3.245   1.118
  747TIP3    H1 2118   4.152   3.298   1.123
  747TIP3    H2 2119   4.264   3.268   1.027
  748TIP3   OH2 2120   3.679   3.087   0.507
  748TIP3    H1 2121   3.626   3.113   0.586
  748TIP3    H2 2122   3.763   3.059   0.550
  749TIP3   OH2 2123   3.913   3.124   1.414
  749TIP3    H1 2124   3.911   3.207   1.464
  749TIP3    H2 2125   3.828   3.130   1.367
  750TIP3   OH2 2126   2.894   3.032   0.915
  750TIP3    H1 2127   2.912   3.072   0.828
  750TIP3    H2 2128   2.984   3.013   0.948
  751TIP3   OH2 2129   3.039   3.490   1.070
  751TIP3    H1 2130   3.024   3.460   0.979
  751TIP3    H2 2131   3.131   3.459   1.087
  752TIP3   OH2 2132   3.051   3.054   1.268
  752TIP3    H1 2133   3.092   3.041   1.181
  752TIP3    H2 2134   3.089   3.140   1.297
  753TIP3   OH2 2135   3.570   3.692   1.050
  753TIP3    H1 2136   3.558   3.772   1.104
  753TIP3    H2 2137   3.557   3.619   1.114
  754TIP3   OH2 2138   3.184   3.610   1.597
  754TIP3    H1 2139   3.125   3.673   1.644
  754TIP3    H2 2140   3.117   3.557   1.548
  755TIP3   OH2 2141   3.526   2.942   0.333
  755TIP3    H1 2142   3.584   3.004   0.384
  755TIP3    H2 2143   3.551   2.965   0.241
  756TIP3   OH2 2144   2.935   3.169   1.691
  756TIP3    H1 2145   2.943   3.254   1.739
  756TIP3    H2 2146   2.842   3.147   1.711
  757TIP3   OH2 2147   3.258   3.625   0.607
  757TIP3    H1 2148   3.341   3.675   0.620
  757TIP3    H2 2149   3.201   3.691   0.564
  758TIP3   OH2 2150   2.978   3.779   1.684
  758TIP3    H1 2151   2.944   3.777   1.593
  758TIP3    H2 2152   2.899   3.758   1.737
  759TIP3   OH2 2153   4.040   2.185   0.374
  759TIP3    H1 2154   3.957   2.200   0.425
  759TIP3    H2 2155   4.047   2.269   0.324
  760TIP3   OH2 2156   3.833   3.555  -0.073
  760TIP3    H1 2157   3.841   3.650  -0.094
  760TIP3    H2 2158   3.925   3.524  -0.088
  761TIP3   OH2 2159   2.557   3.308   1.631
  761TIP3    H1 2160   2.494   3.284   1.561
  761TIP3    H2 2161   2.595   3.222   1.657
  762TIP3   OH2 2162   2.412   3.503   1.263
  762TIP3    H1 2163   2.508   3.495   1.253
  762TIP3    H2 2164   2.405   3.582   1.318
  763TIP3   OH2 2165   4.277   3.953   1.319
  763TIP3    H1 2166   4.275   3.857   1.333
  763TIP3    H2 2167   4.193   3.978   1.364
  764TIP3   OH2 2168   3.382   3.740   1.453
  764TIP3    H1 2169   3.381   3.833   1.486
  764TIP3    H2 2170   3.312   3.700   1.508
  765TIP3   OH2 2171   3.137   3.864   0.406
  765TIP3    H1 2172   3.098   3.850   0.318
  765TIP3    H2 2173   3.113   3.956   0.425
  766TIP3   OH2 2174   2.580   3.719   0.789
  766TIP3    H1 2175   2.628   3.708   0.874
  766TIP3    H2 2176   2.527   3.637   0.787
  767TIP3   OH2 2177   3.334   3.760   0.062
  767TIP3    H1 2178   3.394   3.705   0.006
  767TIP3    H2 2179   3.386   3.770   0.143
  768TIP3   OH2 2180   3.397   3.821   0.327
  768TIP3    H1 2181   3.308   3.826   0.367
  768TIP3    H2 2182   3.449   3.780   0.398
  769TIP3   OH2 2183   4.167   3.085   1.594
  769TIP3    H1 2184   4.086   3.098   1.542
  769TIP3    H2 2185   4.182   2.989   1.583
  770TIP3   OH2 2186   2.763   3.492   1.620
  770TIP3    H1 2187   2.814   3.475   1.702
  770TIP3    H2 2188   2.689   3.428   1.629
  771TIP3   OH2 2189   3.157   2.319   1.399
  771TIP3    H1 2190   3.066   2.286   1.380
  771TIP3    H2 2191   3.135   2.396   1.454
  772TIP3   OH2 2192   3.695   2.431   1.598
  772TIP3    H1 2193   3.764   2.404   1.663
  772TIP3    H2 2194   3.612   2.410   1.644
  773TIP3   OH2 2195   3.935   2.860   1.516
  773TIP3    H1 2196   3.887   2.856   1.602
  773TIP3    H2 2197   3.911   2.947   1.481
  774TIP3   OH2 2198   3.599   2.996   0.078
  774TIP3    H1 2199   3.542   2.988   0.002
  774TIP3    H2 2200   3.676   3.044   0.042
  775TIP3   OH2 2201   3.092   2.833   1.421
  775TIP3    H1 2202   3.045   2.853   1.504
  775TIP3    H2 2203   3.076   2.915   1.369
  776TIP3   OH2 2204   3.469   2.804   0.662
  776TIP3    H1 2205   3.417   2.877   0.620
  776TIP3    H2 2206   3.522   2.772   0.586
  777TIP3   OH2 2207   3.642   3.082   1.750
  777TIP3    H1 2208   3.620   3.009   1.812
  777TIP3    H2 2209   3.736   3.096   1.772
  778TIP3   OH2 2210   3.623   2.831   0.902
  778TIP3    H1 2211   3.567   2.861   0.828
  778TIP3    H2 2212   3.659   2.750   0.860
  779TIP3   OH2 2213   2.912   2.859   1.632
  779TIP3    H1 2214   2.940   2.921   1.701
  779TIP3    H2 2215   2.899   2.777   1.683
  780TIP3   OH2 2216   3.633   3.078   1.324
  780TIP3    H1 2217   3.667   3.006   1.267
  780TIP3    H2 2218   3.606   3.026   1.403
  781TIP3   OH2 2219   3.305   2.560   1.010
  781TIP3    H1 2220   3.241   2.513   1.065
  781TIP3    H2 2221   3.388   2.540   1.057
  782TIP3   OH2 2222   3.033   2.670   0.687
  782TIP3    H1 2223   3.129   2.651   0.699
  782TIP3    H2 2224   3.008   2.597   0.628
  783TIP3   OH2 2225   3.799   2.617   1.201
  783TIP3    H1 2226   3.762   2.627   1.292
  783TIP3    H2 2227   3.737   2.554   1.162
  784TIP3   OH2 2228   3.966   4.304   1.418
  784TIP3    H1 2229   3.964   4.327   1.323
  784TIP3    H2 2230   4.045   4.353   1.448
  785TIP3   OH2 2231   2.924   3.414   1.839
  785TIP3    H1 2232   3.004   3.444   1.887
  785TIP3    H2 2233   2.860   3.411   1.913
  786TIP3   OH2 2234   3.390   2.872   1.094
  786TIP3    H1 2235   3.460   2.830   1.042
  786TIP3    H2 2236   3.398   2.828   1.180
  787TIP3   OH2 2237   3.364   2.765   1.384
  787TIP3    H1 2238   3.275   2.803   1.401
  787TIP3    H2 2239   3.424   2.823   1.435
  788TIP3   OH2 2240   3.094   3.163   0.482
  788TIP3    H1 2241   3.033   3.087   0.482
  788TIP3    H2 2242   3.084   3.194   0.575
  789TIP3   OH2 2243   4.002   3.391   1.109
  789TIP3    H1 2244   4.027   3.440   1.028
  789TIP3    H2 2245   3.916   3.350   1.084
  790TIP3   OH2 2246   3.595   2.470   0.331
  790TIP3    H1 2247   3.498   2.475   0.323
  790TIP3    H2 2248   3.616   2.564   0.349
  791TIP3   OH2 2249   3.497   3.470   1.478
  791TIP3    H1 2250   3.525   3.452   1.569
  791TIP3    H2 2251   3.463   3.561   1.484
  792TIP3   OH2 2252   3.637   2.716   0.446
  792TIP3    H1 2253   3.733   2.725   0.462
  792TIP3    H2 2254   3.616   2.795   0.391
  793TIP3   OH2 2255   2.795   3.175   1.158
  793TIP3    H1 2256   2.827   3.130   1.078
  793TIP3    H2 2257   2.829   3.118   1.229
  794TIP3   OH2 2258   3.257   3.312   0.319
  794TIP3    H1 2259   3.208   3.398   0.318
  794TIP3    H2 2260   3.198   3.257   0.374
  795TIP3   OH2 2261   2.674   3.098   1.769
  795TIP3    H1 2262   2.696   3.084   1.863
  795TIP3    H2 2263   2.607   3.029   1.755
  796TIP3   OH2 2264   3.399   3.212   1.788
  796TIP3    H1 2265   3.341   3.151   1.740
  796TIP3    H2 2266   3.488   3.179   1.761
  797TIP3   OH2 2267   3.661   3.729   1.375
  797TIP3    H1 2268   3.564   3.732   1.385
  797TIP3    H2 2269   3.689   3.783   1.451
  798TIP3   OH2 2270   4.072   2.807   0.284
  798TIP3    H1 2271   4.010   2.760   0.223
  798TIP3    H2 2272   4.069   2.895   0.240
  799TIP3   OH2 2273   4.289   3.662   1.362
  799TIP3    H1 2274   4.191   3.657   1.354
  799TIP3    H2 2275   4.315   3.633   1.272
  800TIP3   OH2 2276   3.778   3.623   0.190
  800TIP3    H1 2277   3.742   3.550   0.242
  800TIP3    H2 2278   3.782   3.585   0.100
  801TIP3   OH2 2279   3.768   3.253   1.028
  801TIP3    H1 2280   3.674   3.229   1.040
  801TIP3    H2 2281   3.802   3.174   0.983
  802TIP3   OH2 2282   2.895   3.480   0.780
  802TIP3    H1 2283   2.900   3.562   0.727
  802TIP3    H2 2284   2.800   3.470   0.787
  803TIP3   OH2 2285   3.018   3.236   0.738
  803TIP3    H1 2286   2.995   3.331   0.727
  803TIP3    H2 2287   3.023   3.232   0.834
  804TIP3   OH2 2288   3.164   3.824   1.249
  804TIP3    H1 2289   3.204   3.897   1.198
  804TIP3    H2 2290   3.241   3.791   1.298
  805TIP3   OH2 2291   2.816   3.719   0.636
  805TIP3    H1 2292   2.729   3.729   0.678
  805TIP3    H2 2293   2.848   3.812   0.637
  806TIP3   OH2 2294   3.551   3.460   1.209
  806TIP3    H1 2295   3.542   3.457   1.306
  806TIP3    H2 2296   3.633   3.409   1.195
  807TIP3   OH2 2297   3.528   3.353   0.092
  807TIP3    H1 2298   3.577   3.328   0.173
  807TIP3    H2 2299   3.437   3.333   0.116
  808TIP3   OH2 2300   3.801   3.994   1.258
  808TIP3    H1 2301   3.721   3.938   1.248
  808TIP3    H2 2302   3.787   4.059   1.186
  809TIP3   OH2 2303   3.868   3.831  -0.093
  809TIP3    H1 2304   3.913   3.908  -0.133
  809TIP3    H2 2305   3.786   3.875  -0.060
  810TIP3   OH2 2306   2.887   2.602   1.776
  810TIP3    H1 2307   2.791   2.606   1.791
  810TIP3    H2 2308   2.915   2.542   1.847
  811TIP3   OH2 2309   3.686   3.291   0.319
  811TIP3    H1 2310   3.679   3.220   0.385
  811TIP3    H2 2311   3.781   3.287   0.298
  812TIP3   OH2 2312   2.600   3.687   1.411
  812TIP3    H1 2313   2.654   3.613   1.442
  812TIP3    H2 2314   2.632   3.758   1.468
  813TIP3   OH2 2315   2.878   3.335   0.093
  813TIP3    H1 2316   2.919   3.257   0.054
  813TIP3    H2 2317   2.872   3.315   0.188
  814TIP3   OH2 2318   2.850   3.334   0.371
  814TIP3    H1 2319   2.929   3.312   0.422
  814TIP3    H2 2320   2.853   3.432   0.370
  815TIP3   OH2 2321   3.721   2.668   1.458
  815TIP3    H1 2322   3.801   2.706   1.497
  815TIP3    H2 2323   3.707   2.587   1.512
  816TIP3   OH2 2324   3.583   2.434   0.615
  816TIP3    H1 2325   3.592   2.451   0.520
  816TIP3    H2 2326   3.636   2.507   0.653
  817TIP3   OH2 2327   3.102   3.534   0.311
  817TIP3    H1 2328   3.016   3.567   0.343
  817TIP3    H2 2329   3.127   3.604   0.250
  818TIP3   OH2 2330   3.297   2.604   0.737
  818TIP3    H1 2331   3.365   2.670   0.709
  818TIP3    H2 2332   3.312   2.599   0.834
  819TIP3   OH2 2333   3.561   2.916   1.533
  819TIP3    H1 2334   3.583   2.970   1.612
  819TIP3    H2 2335   3.617   2.837   1.546
  820TIP3   OH2 2336   3.448   2.323   0.828
  820TIP3    H1 2337   3.455   2.396   0.892
  820TIP3    H2 2338   3.499   2.362   0.752
  821TIP3   OH2 2339   2.845   3.607   0.381
  821TIP3    H1 2340   2.817   3.677   0.317
  821TIP3    H2 2341   2.830   3.653   0.467
  822TIP3   OH2 2342   4.202   2.817   1.512
  822TIP3    H1 2343   4.104   2.816   1.521
  822TIP3    H2 2344   4.212   2.776   1.426
  823TIP3   OH2 2345   3.852   3.011   0.903
  823TIP3    H1 2346   3.777   2.950   0.914
  823TIP3    H2 2347   3.924   2.964   0.950
  824TIP3   OH2 2348   2.575   3.319   0.368
  824TIP3    H1 2349   2.669   3.342   0.379
  824TIP3    H2 2350   2.578   3.223   0.363
  825TIP3   OH2 2351   3.820   3.966   0.852
  825TIP3    H1 2352   3.777   4.011   0.776
  825TIP3    H2 2353   3.914   3.984   0.830
  826TIP3   OH2 2354   2.890   2.234   1.380
  826TIP3    H1 2355   2.840   2.184   1.315
  826TIP3    H2 2356   2.903   2.164   1.449
  827TIP3   OH2 2357   2.446   3.464   0.759
  827TIP3    H1 2358   2.366   3.486   0.809
  827TIP3    H2 2359   2.420   3.495   0.670
  828TIP3   OH2 2360   2.593   3.996   1.832
  828TIP3    H1 2361   2.679   3.996   1.878
  828TIP3    H2 2362   2.574   3.900   1.829
  829TIP3   OH2 2363   3.074   3.962   1.874
  829TIP3    H1 2364   3.168   3.942   1.883
  829TIP3    H2 2365   3.050   3.902   1.800
  830TIP3   OH2 2366   3.057   3.531   0.007
  830TIP3    H1 2367   2.993   3.469   0.048
  830TIP3    H2 2368   3.139   3.478   0.007
  831TIP3   OH2 2369   3.713   3.867   1.608
  831TIP3    H1 2370   3.705   3.796   1.676
  831TIP3    H2 2371   3.791   3.917   1.639
  832TIP3   OH2 2372   3.504   3.591  -0.072
  832TIP3    H1 2373   3.528   3.507  -0.028
  832TIP3    H2 2374   3.569   3.595  -0.144
  833TIP3   OH2 2375   2.724   3.403   2.030
  833TIP3    H1 2376   2.741   3.307   2.038
  833TIP3    H2 2377   2.636   3.404   1.987
  834TIP3   OH2 2378   3.332   3.487   1.804
  834TIP3    H1 2379   3.291   3.502   1.717
  834TIP3    H2 2380   3.364   3.394   1.797
  835TIP3   OH2 2381   3.213   3.279   0.053
  835TIP3    H1 2382   3.231   3.284   0.149
  835TIP3    H2 2383   3.196   3.185   0.040
  836TIP3   OH2 2384   3.823   3.495   1.410
  836TIP3    H1 2385   3.899   3.539   1.365
  836TIP3    H2 2386   3.754   3.562   1.397
  837TIP3   OH2 2387   2.844   3.137   2.010
  837TIP3    H1 2388   2.914   3.072   1.996
  837TIP3    H2 2389   2.867   3.169   2.100
  838TIP3   OH2 2390   2.959   2.919   0.507
  838TIP3    H1 2391   3.003   2.854   0.565
  838TIP3    H2 2392   2.975   2.879   0.420
  839TIP3   OH2 2393   3.176   3.019   1.671
  839TIP3    H1 2394   3.100   3.081   1.675
  839TIP3    H2 2395   3.226   3.054   1.594
  840TIP3   OH2 2396   3.693   3.422   1.807
  840TIP3    H1 2397   3.775   3.399   1.762
  840TIP3    H2 2398   3.692   3.356   1.879
  841TIP3   OH2 2399   3.826   3.088  -0.064
  841TIP3    H1 2400   3.840   3.048  -0.151
  841TIP3    H2 2401   3.824   3.183  -0.085
  842TIP3   OH2 2402   3.301   2.809   1.801
  842TIP3    H1 2403   3.301   2.728   1.746
  842TIP3    H2 2404   3.257   2.874   1.742
  843TIP3   OH2 2405   3.304   2.595   1.607
  843TIP3    H1 2406   3.331   2.635   1.523
  843TIP3    H2 2407   3.210   2.571   1.589
  844TIP3   OH2 2408   3.330   3.129   1.478
  844TIP3    H1 2409   3.415   3.138   1.433
  844TIP3    H2 2410   3.276   3.198   1.435
  845TIP3   OH2 2411   3.913   3.098   1.862
  845TIP3    H1 2412   3.960   3.015   1.874
  845TIP3    H2 2413   3.982   3.156   1.827
  846TIP3   OH2 2414   3.954   3.351   1.597
  846TIP3    H1 2415   3.896   3.405   1.538
  846TIP3    H2 2416   4.041   3.370   1.557
  847TIP3   OH2 2417   3.178   2.922   2.029
  847TIP3    H1 2418   3.109   2.854   2.045
  847TIP3    H2 2419   3.214   2.893   1.943
  848TIP3   OH2 2420   3.436   2.359   1.674
  848TIP3    H1 2421   3.387   2.442   1.653
  848TIP3    H2 2422   3.366   2.292   1.664
  849TIP3   OH2 2423   3.562   2.864   1.891
  849TIP3    H1 2424   3.551   2.852   1.987
  849TIP3    H2 2425   3.472   2.839   1.862
  850TIP3   OH2 2426   3.801   2.812   1.745
  850TIP3    H1 2427   3.725   2.814   1.807
  850TIP3    H2 2428   3.874   2.781   1.803
  851TIP3   OH2 2429   4.031   2.753   1.897
  851TIP3    H1 2430   4.043   2.658   1.916
  851TIP3    H2 2431   4.025   2.792   1.987
  852TIP3   OH2 2432   3.019   2.702   2.083
  852TIP3    H1 2433   3.023   2.610   2.050
  852TIP3    H2 2434   3.054   2.689   2.174
  853TIP3   OH2 2435   3.532   2.369   1.931
  853TIP3    H1 2436   3.598   2.298   1.926
  853TIP3    H2 2437   3.491   2.363   1.843
  854TIP3   OH2 2438   3.596   2.584   2.090
  854TIP3    H1 2439   3.574   2.513   2.026
  854TIP3    H2 2440   3.517   2.642   2.084
  855TIP3   OH2 2441   2.811   3.807   0.193
  855TIP3    H1 2442   2.906   3.805   0.168
  855TIP3    H2 2443   2.771   3.854   0.120
  856TIP3   OH2 2444   2.201   3.803   0.823
  856TIP3    H1 2445   2.141   3.737   0.784
  856TIP3    H2 2446   2.252   3.749   0.887
  857TIP3   OH2 2447   2.343   3.660   1.010
  857TIP3    H1 2448   2.339   3.584   1.070
  857TIP3    H2 2449   2.397   3.722   1.063
  858TIP3   OH2 2450   4.075   4.054   0.808
  858TIP3    H1 2451   4.101   4.092   0.894
  858TIP3    H2 2452   4.130   4.104   0.746
  859TIP3   OH2 2453   4.103   4.080   1.091
  859TIP3    H1 2454   4.060   3.992   1.085
  859TIP3    H2 2455   4.178   4.056   1.148
  860TIP3   OH2 2456   4.150   3.755   1.663
  860TIP3    H1 2457   4.077   3.763   1.727
  860TIP3    H2 2458   4.191   3.844   1.667
  861TIP3   OH2 2459   3.965   3.266   0.282
  861TIP3    H1 2460   4.031   3.333   0.254
  861TIP3    H2 2461   4.010   3.229   0.361
  862TIP3   OH2 2462   4.094   3.135   0.486
  862TIP3    H1 2463   4.028   3.093   0.546
  862TIP3    H2 2464   4.158   3.174   0.549
  863TIP3   OH2 2465   4.147   3.527   0.919
  863TIP3    H1 2466   4.201   3.463   0.868
  863TIP3    H2 2467   4.142   3.603   0.858
  864TIP3   OH2 2468   3.980   3.827   1.114
  864TIP3    H1 2469   3.908   3.871   1.165
  864TIP3    H2 2470   3.929   3.780   1.044
  865TIP3   OH2 2471   4.026   3.043   0.133
  865TIP3    H1 2472   3.952   3.045   0.069
  865TIP3    H2 2473   4.004   3.120   0.188
  866TIP3   OH2 2474   3.904   2.716   0.094
  866TIP3    H1 2475   3.872   2.750   0.010
  866TIP3    H2 2476   3.878   2.621   0.087
  867TIP3   OH2 2477   3.908   2.991   0.633
  867TIP3    H1 2478   3.917   2.894   0.627
  867TIP3    H2 2479   3.895   3.005   0.729
  868TIP3   OH2 2480   2.534   3.069   1.383
  868TIP3    H1 2481   2.529   3.034   1.291
  868TIP3    H2 2482   2.632   3.069   1.395
  869TIP3   OH2 2483   4.196   3.416   1.490
  869TIP3    H1 2484   4.269   3.351   1.480
  869TIP3    H2 2485   4.223   3.486   1.428
  870TIP3   OH2 2486   4.382   3.223   1.506
  870TIP3    H1 2487   4.307   3.172   1.545
  870TIP3    H2 2488   4.455   3.158   1.520
  871TIP3   OH2 2489   3.840   2.454   0.099
  871TIP3    H1 2490   3.927   2.419   0.127
  871TIP3    H2 2491   3.777   2.403   0.151
  872TIP3   OH2 2492   3.906   2.709   0.529
  872TIP3    H1 2493   3.946   2.620   0.544
  872TIP3    H2 2494   3.963   2.741   0.458
  873TIP3   OH2 2495   4.066   2.883   1.022
  873TIP3    H1 2496   4.152   2.909   0.982
  873TIP3    H2 2497   4.079   2.919   1.112
  874TIP3   OH2 2498   4.134   3.026   1.255
  874TIP3    H1 2499   4.056   3.060   1.304
  874TIP3    H2 2500   4.166   3.107   1.210
  875TIP3   OH2 2501   2.753   2.754   2.054
  875TIP3    H1 2502   2.850   2.746   2.057
  875TIP3    H2 2503   2.727   2.669   2.095
  876TIP3   OH2 2504   4.587   2.617   1.811
  876TIP3    H1 2505   4.644   2.551   1.767
  876TIP3    H2 2506   4.558   2.672   1.735
  877TIP3   OH2 2507   4.013   2.458   0.566
  877TIP3    H1 2508   4.060   2.440   0.650
  877TIP3    H2 2509   3.952   2.381   0.563
  878TIP3   OH2 2510   2.714   2.447   1.372
  878TIP3    H1 2511   2.778   2.375   1.388
  878TIP3    H2 2512   2.771   2.524   1.387
  879TIP3   OH2 2513   2.533   2.723   1.454
  879TIP3    H1 2514   2.575   2.733   1.367
  879TIP3    H2 2515   2.549   2.810   1.495
  880TIP3   OH2 2516   4.457   2.757   1.618
  880TIP3    H1 2517   4.370   2.796   1.639
  880TIP3    H2 2518   4.428   2.685   1.558
  881TIP3   OH2 2519   4.103   2.393   0.186
  881TIP3    H1 2520   4.171   2.336   0.147
  881TIP3    H2 2521   4.152   2.477   0.190
  882TIP3   OH2 2522   3.659   3.922   0.468
  882TIP3    H1 2523   3.708   3.910   0.384
  882TIP3    H2 2524   3.708   3.994   0.509
  883TIP3   OH2 2525   2.724   2.306   1.775
  883TIP3    H1 2526   2.674   2.294   1.857
  883TIP3    H2 2527   2.655   2.343   1.716
  884TIP3   OH2 2528   2.758   3.730   1.851
  884TIP3    H1 2529   2.667   3.701   1.834
  884TIP3    H2 2530   2.770   3.709   1.944
  885TIP3   OH2 2531   2.937   3.760   1.398
  885TIP3    H1 2532   2.889   3.836   1.359
  885TIP3    H2 2533   3.023   3.773   1.353
  886TIP3   OH2 2534   3.382   4.006   1.536
  886TIP3    H1 2535   3.424   4.006   1.624
  886TIP3    H2 2536   3.448   4.056   1.484
  887TIP3   OH2 2537   3.561   4.157   1.394
  887TIP3    H1 2538   3.632   4.107   1.351
  887TIP3    H2 2539   3.613   4.214   1.455
  888TIP3   OH2 2540   4.355   2.520   1.494
  888TIP3    H1 2541   4.264   2.513   1.461
  888TIP3    H2 2542   4.386   2.427   1.482
  889TIP3   OH2 2543   2.613   4.017   1.421
  889TIP3    H1 2544   2.524   4.052   1.398
  889TIP3    H2 2545   2.624   4.054   1.509
  890TIP3   OH2 2546   2.850   3.995   1.279
  890TIP3    H1 2547   2.763   4.009   1.324
  890TIP3    H2 2548   2.831   4.029   1.189
  891TIP3   OH2 2549   3.275   4.024   1.079
  891TIP3    H1 2550   3.209   4.045   1.010
  891TIP3    H2 2551   3.289   4.112   1.119
  892TIP3   OH2 2552   3.545   3.965   1.129
  892TIP3    H1 2553   3.450   3.981   1.109
  892TIP3    H2 2554   3.587   4.040   1.084
  893TIP3   OH2 2555   3.752   4.158   1.043
  893TIP3    H1 2556   3.735   4.243   0.996
  893TIP3    H2 2557   3.777   4.100   0.968
  894TIP3   OH2 2558   2.523   3.811   1.167
  894TIP3    H1 2559   2.552   3.786   1.257
  894TIP3    H2 2560   2.596   3.769   1.115
  895TIP3   OH2 2561   2.718   3.684   1.024
  895TIP3    H1 2562   2.734   3.599   1.072
  895TIP3    H2 2563   2.808   3.721   1.020
  896TIP3   OH2 2564   2.982   3.779   1.028
  896TIP3    H1 2565   3.017   3.689   1.014
  896TIP3    H2 2566   3.028   3.802   1.111
  897TIP3   OH2 2567   3.547   2.431   1.100
  897TIP3    H1 2568   3.513   2.364   1.163
  897TIP3    H2 2569   3.628   2.388   1.066
  898TIP3   OH2 2570   4.083   2.321   1.024
  898TIP3    H1 2571   4.120   2.368   0.946
  898TIP3    H2 2572   3.988   2.333   1.012
  899TIP3   OH2 2573   4.179   2.414   0.784
  899TIP3    H1 2574   4.251   2.362   0.742
  899TIP3    H2 2575   4.212   2.505   0.768
  900TIP3   OH2 2576   3.240   2.236   1.012
  900TIP3    H1 2577   3.315   2.244   0.952
  900TIP3    H2 2578   3.279   2.192   1.089
  901TIP3   OH2 2579   3.797   2.322   0.994
  901TIP3    H1 2580   3.800   2.284   0.905
  901TIP3    H2 2581   3.785   2.242   1.049
  902TIP3   OH2 2582   3.836   2.243   0.553
  902TIP3    H1 2583   3.744   2.267   0.535
  902TIP3    H2 2584   3.821   2.159   0.604
  903TIP3   OH2 2585   2.297   3.581   0.562
  903TIP3    H1 2586   2.223   3.542   0.514
  903TIP3    H2 2587   2.296   3.672   0.526
  904TIP3   OH2 2588   3.241   2.357   0.638
  904TIP3    H1 2589   3.281   2.298   0.703
  904TIP3    H2 2590   3.266   2.444   0.676
  905TIP3   OH2 2591   3.076   3.776   0.133
  905TIP3    H1 2592   3.169   3.793   0.104
  905TIP3    H2 2593   3.060   3.698   0.075
  906TIP3   OH2 2594   3.804   3.891   0.233
  906TIP3    H1 2595   3.796   3.794   0.218
  906TIP3    H2 2596   3.759   3.926   0.153
  907TIP3   OH2 2597   3.017   2.430   2.024
  907TIP3    H1 2598   2.983   2.356   2.077
  907TIP3    H2 2599   3.112   2.428   2.050
  908TIP3   OH2 2600   3.267   2.421   2.141
  908TIP3    H1 2601   3.351   2.393   2.102
  908TIP3    H2 2602   3.252   2.351   2.208
  909TIP3   OH2 2603   2.418   3.642   0.220
  909TIP3    H1 2604   2.371   3.664   0.302
  909TIP3    H2 2605   2.471   3.566   0.246
  910TIP3   OH2 2606   4.090   2.482   1.928
  910TIP3    H1 2607   4.110   2.452   2.019
  910TIP3    H2 2608   4.179   2.477   1.886
  911TIP3   OH2 2609   4.030   4.035   1.420
  911TIP3    H1 2610   3.951   4.003   1.371
  911TIP3    H2 2611   4.011   4.131   1.423
  912TIP3   OH2 2612   5.297   3.411   0.188
  912TIP3    H1 2613   5.263   3.500   0.161
  912TIP3    H2 2614   5.224   3.356   0.153
  913TIP3   OH2 2615   5.299   3.409   0.568
  913TIP3    H1 2616   5.327   3.374   0.654
  913TIP3    H2 2617   5.256   3.332   0.527
  914TIP3   OH2 2618   4.595   3.302   0.932
  914TIP3    H1 2619   4.627   3.235   0.996
  914TIP3    H2 2620   4.673   3.359   0.924
  915TIP3   OH2 2621   5.542   3.690   0.244
  915TIP3    H1 2622   5.525   3.609   0.294
  915TIP3    H2 2623   5.528   3.758   0.309
  916TIP3   OH2 2624   4.567   3.713   0.659
  916TIP3    H1 2625   4.557   3.615   0.660
  916TIP3    H2 2626   4.664   3.720   0.653
  917TIP3   OH2 2627   4.272   2.916   0.445
  917TIP3    H1 2628   4.223   2.999   0.457
  917TIP3    H2 2629   4.203   2.862   0.404
  918TIP3   OH2 2630   4.333   3.203   0.615
  918TIP3    H1 2631   4.382   3.126   0.651
  918TIP3    H2 2632   4.388   3.229   0.540
  919TIP3   OH2 2633   5.191   4.176   0.269
  919TIP3    H1 2634   5.234   4.101   0.221
  919TIP3    H2 2635   5.146   4.132   0.342
  920TIP3   OH2 2636   5.096   3.635   0.615
  920TIP3    H1 2637   5.130   3.557   0.569
  920TIP3    H2 2638   5.181   3.678   0.637
  921TIP3   OH2 2639   6.107   2.953   0.613
  921TIP3    H1 2640   6.136   3.036   0.656
  921TIP3    H2 2641   6.129   2.971   0.520
  922TIP3   OH2 2642   5.508   3.136   0.648
  922TIP3    H1 2643   5.549   3.049   0.667
  922TIP3    H2 2644   5.475   3.120   0.557
  923TIP3   OH2 2645   4.844   2.794   0.614
  923TIP3    H1 2646   4.823   2.866   0.551
  923TIP3    H2 2647   4.797   2.720   0.569
  924TIP3   OH2 2648   5.536   2.885   0.239
  924TIP3    H1 2649   5.610   2.869   0.301
  924TIP3    H2 2650   5.587   2.919   0.162
  925TIP3   OH2 2651   4.478   2.995   0.721
  925TIP3    H1 2652   4.561   2.975   0.768
  925TIP3    H2 2653   4.489   2.940   0.641
  926TIP3   OH2 2654   4.919   3.194   0.514
  926TIP3    H1 2655   5.012   3.168   0.527
  926TIP3    H2 2656   4.879   3.111   0.481
  927TIP3   OH2 2657   6.181   3.162   0.781
  927TIP3    H1 2658   6.096   3.207   0.765
  927TIP3    H2 2659   6.193   3.182   0.876
  928TIP3   OH2 2660   4.841   2.777   1.048
  928TIP3    H1 2661   4.781   2.813   0.980
  928TIP3    H2 2662   4.788   2.795   1.129
  929TIP3   OH2 2663   5.181   3.626   0.063
  929TIP3    H1 2664   5.154   3.607  -0.028
  929TIP3    H2 2665   5.139   3.713   0.077
  930TIP3   OH2 2666   4.948   3.553   0.843
  930TIP3    H1 2667   4.884   3.617   0.881
  930TIP3    H2 2668   4.988   3.605   0.770
  931TIP3   OH2 2669   5.749   2.888   0.407
  931TIP3    H1 2670   5.742   2.834   0.487
  931TIP3    H2 2671   5.803   2.963   0.437
  932TIP3   OH2 2672   4.712   2.892   0.832
  932TIP3    H1 2673   4.774   2.965   0.854
  932TIP3    H2 2674   4.760   2.851   0.757
  933TIP3   OH2 2675   4.775   3.745   0.940
  933TIP3    H1 2676   4.749   3.831   0.901
  933TIP3    H2 2677   4.697   3.729   0.997
  934TIP3   OH2 2678   4.170   3.435   0.181
  934TIP3    H1 2679   4.131   3.455   0.094
  934TIP3    H2 2680   4.197   3.524   0.212
  935TIP3   OH2 2681   5.900   2.855   0.781
  935TIP3    H1 2682   5.812   2.881   0.750
  935TIP3    H2 2683   5.958   2.884   0.707
  936TIP3   OH2 2684   5.198   2.497   0.762
  936TIP3    H1 2685   5.185   2.401   0.778
  936TIP3    H2 2686   5.120   2.534   0.808
  937TIP3   OH2 2687   5.337   3.997   0.131
  937TIP3    H1 2688   5.366   3.914   0.085
  937TIP3    H2 2689   5.378   4.062   0.069
  938TIP3   OH2 2690   5.448   3.786  -0.002
  938TIP3    H1 2691   5.443   3.712  -0.067
  938TIP3    H2 2692   5.486   3.739   0.074
  939TIP3   OH2 2693   5.832   3.870   0.756
  939TIP3    H1 2694   5.825   3.783   0.709
  939TIP3    H2 2695   5.819   3.932   0.683
  940TIP3   OH2 2696   5.130   3.261   0.017
  940TIP3    H1 2697   5.046   3.310   0.001
  940TIP3    H2 2698   5.163   3.251  -0.073
  941TIP3   OH2 2699   5.081   3.032  -0.237
  941TIP3    H1 2700   5.163   3.079  -0.217
  941TIP3    H2 2701   5.109   2.970  -0.305
  942TIP3   OH2 2702   6.030   3.503   0.606
  942TIP3    H1 2703   5.947   3.555   0.612
  942TIP3    H2 2704   6.058   3.523   0.514
  943TIP3   OH2 2705   5.472   3.332  -0.007
  943TIP3    H1 2706   5.418   3.362   0.070
  943TIP3    H2 2707   5.556   3.310   0.038
  944TIP3   OH2 2708   5.710   3.381   0.900
  944TIP3    H1 2709   5.706   3.464   0.951
  944TIP3    H2 2710   5.622   3.383   0.856
  945TIP3   OH2 2711   4.706   3.339   0.406
  945TIP3    H1 2712   4.663   3.282   0.339
  945TIP3    H2 2713   4.782   3.285   0.433
  946TIP3   OH2 2714   4.837   3.753   0.552
  946TIP3    H1 2715   4.813   3.710   0.469
  946TIP3    H2 2716   4.926   3.716   0.569
  947TIP3   OH2 2717   4.846   3.309   0.761
  947TIP3    H1 2718   4.876   3.288   0.670
  947TIP3    H2 2719   4.887   3.396   0.779
  948TIP3   OH2 2720   4.980   3.866   1.083
  948TIP3    H1 2721   4.922   3.929   1.130
  948TIP3    H2 2722   4.913   3.814   1.034
  949TIP3   OH2 2723   5.324   3.200  -0.193
  949TIP3    H1 2724   5.375   3.252  -0.127
  949TIP3    H2 2725   5.337   3.254  -0.273
  950TIP3   OH2 2726   4.735   3.423   1.185
  950TIP3    H1 2727   4.739   3.510   1.230
  950TIP3    H2 2728   4.640   3.404   1.193
  951TIP3   OH2 2729   5.061   3.880   0.088
  951TIP3    H1 2730   5.119   3.951   0.118
  951TIP3    H2 2731   4.984   3.926   0.052
  952TIP3   OH2 2732   4.776   4.035   1.171
  952TIP3    H1 2733   4.740   4.033   1.080
  952TIP3    H2 2734   4.696   4.014   1.224
  953TIP3   OH2 2735   5.812   2.449  -0.119
  953TIP3    H1 2736   5.732   2.467  -0.067
  953TIP3    H2 2737   5.819   2.530  -0.174
  954TIP3   OH2 2738   4.571   3.182   0.214
  954TIP3    H1 2739   4.508   3.229   0.156
  954TIP3    H2 2740   4.528   3.096   0.221
  955TIP3   OH2 2741   4.354   3.566   1.117
  955TIP3    H1 2742   4.288   3.544   1.048
  955TIP3    H2 2743   4.391   3.478   1.141
  956TIP3   OH2 2744   4.207   3.756   0.756
  956TIP3    H1 2745   4.303   3.755   0.742
  956TIP3    H2 2746   4.195   3.839   0.803
  957TIP3   OH2 2747   6.071   4.204   0.804
  957TIP3    H1 2748   6.073   4.110   0.829
  957TIP3    H2 2749   5.991   4.233   0.852
  958TIP3   OH2 2750   5.177   3.996   0.940
  958TIP3    H1 2751   5.178   4.088   0.974
  958TIP3    H2 2752   5.106   3.957   0.995
  959TIP3   OH2 2753   4.912   4.127  -0.101
  959TIP3    H1 2754   4.896   4.118  -0.196
  959TIP3    H2 2755   4.901   4.223  -0.087
  960TIP3   OH2 2756   4.377   3.975   0.275
  960TIP3    H1 2757   4.422   3.964   0.361
  960TIP3    H2 2758   4.318   3.897   0.275
  961TIP3   OH2 2759   5.176   4.059  -0.130
  961TIP3    H1 2760   5.079   4.067  -0.121
  961TIP3    H2 2761   5.193   3.972  -0.092
  962TIP3   OH2 2762   5.963   3.342   1.079
  962TIP3    H1 2763   5.881   3.352   1.029
  962TIP3    H2 2764   5.979   3.246   1.070
  963TIP3   OH2 2765   4.560   3.748   1.106
  963TIP3    H1 2766   4.609   3.731   1.190
  963TIP3    H2 2767   4.485   3.685   1.114
  964TIP3   OH2 2768   4.958   2.572   0.890
  964TIP3    H1 2769   4.869   2.541   0.864
  964TIP3    H2 2770   4.933   2.655   0.936
  965TIP3   OH2 2771   5.491   2.688   1.085
  965TIP3    H1 2772   5.559   2.660   1.149
  965TIP3    H2 2773   5.407   2.667   1.131
  966TIP3   OH2 2774   5.734   3.117   1.005
  966TIP3    H1 2775   5.684   3.113   1.089
  966TIP3    H2 2776   5.705   3.203   0.968
  967TIP3   OH2 2777   5.120   2.635  -0.133
  967TIP3    H1 2778   5.077   2.626  -0.046
  967TIP3    H2 2779   5.071   2.570  -0.184
  968TIP3   OH2 2780   4.891   3.086   0.909
  968TIP3    H1 2781   4.839   3.106   0.990
  968TIP3    H2 2782   4.875   3.167   0.856
  969TIP3   OH2 2783   4.774   2.975   0.424
  969TIP3    H1 2784   4.681   2.948   0.440
  969TIP3    H2 2785   4.788   2.935   0.335
  970TIP3   OH2 2786   5.264   3.062   0.154
  970TIP3    H1 2787   5.211   3.131   0.108
  970TIP3    H2 2788   5.317   3.027   0.079
  971TIP3   OH2 2789   5.439   3.339   1.237
  971TIP3    H1 2790   5.416   3.265   1.299
  971TIP3    H2 2791   5.533   3.351   1.260
  972TIP3   OH2 2792   5.423   3.090   0.388
  972TIP3    H1 2793   5.361   3.116   0.317
  972TIP3    H2 2794   5.457   3.007   0.347
  973TIP3   OH2 2795   4.710   3.117   1.118
  973TIP3    H1 2796   4.734   3.180   1.187
  973TIP3    H2 2797   4.697   3.034   1.168
  974TIP3   OH2 2798   4.770   2.571  -0.165
  974TIP3    H1 2799   4.757   2.584  -0.069
  974TIP3    H2 2800   4.696   2.619  -0.203
  975TIP3   OH2 2801   4.302   2.638   0.699
  975TIP3    H1 2802   4.378   2.670   0.752
  975TIP3    H2 2803   4.342   2.607   0.617
  976TIP3   OH2 2804   4.271   2.623   0.217
  976TIP3    H1 2805   4.320   2.660   0.140
  976TIP3    H2 2806   4.213   2.698   0.238
  977TIP3   OH2 2807   5.437   3.336   0.813
  977TIP3    H1 2808   5.467   3.263   0.754
  977TIP3    H2 2809   5.406   3.283   0.890
  978TIP3   OH2 2810   5.102   2.798   0.485
  978TIP3    H1 2811   5.019   2.795   0.537
  978TIP3    H2 2812   5.169   2.794   0.555
  979TIP3   OH2 2813   4.535   2.852   0.493
  979TIP3    H1 2814   4.441   2.859   0.466
  979TIP3    H2 2815   4.559   2.761   0.468
  980TIP3   OH2 2816   4.808   2.850   0.183
  980TIP3    H1 2817   4.902   2.863   0.160
  980TIP3    H2 2818   4.761   2.870   0.099
  981TIP3   OH2 2819   5.593   2.872   0.688
  981TIP3    H1 2820   5.556   2.883   0.778
  981TIP3    H2 2821   5.529   2.810   0.649
  982TIP3   OH2 2822   4.649   2.877  -0.036
  982TIP3    H1 2823   4.559   2.856  -0.064
  982TIP3    H2 2824   4.691   2.913  -0.117
  983TIP3   OH2 2825   5.764   4.559   0.905
  983TIP3    H1 2826   5.761   4.588   0.812
  983TIP3    H2 2827   5.841   4.610   0.939
  984TIP3   OH2 2828   4.720   3.670   1.327
  984TIP3    H1 2829   4.799   3.701   1.375
  984TIP3    H2 2830   4.655   3.670   1.400
  985TIP3   OH2 2831   5.186   3.126   0.584
  985TIP3    H1 2832   5.254   3.082   0.531
  985TIP3    H2 2833   5.193   3.081   0.670
  986TIP3   OH2 2834   4.709   2.611   0.460
  986TIP3    H1 2835   4.675   2.531   0.505
  986TIP3    H2 2836   4.754   2.575   0.383
  987TIP3   OH2 2837   5.161   3.020   0.871
  987TIP3    H1 2838   5.071   3.055   0.886
  987TIP3    H2 2839   5.217   3.081   0.922
  988TIP3   OH2 2840   4.896   3.410  -0.029
  988TIP3    H1 2841   4.823   3.345  -0.041
  988TIP3    H2 2842   4.877   3.443   0.062
  989TIP3   OH2 2843   5.797   3.651   0.595
  989TIP3    H1 2844   5.823   3.691   0.509
  989TIP3    H2 2845   5.714   3.603   0.571
  990TIP3   OH2 2846   5.377   2.723  -0.175
  990TIP3    H1 2847   5.283   2.694  -0.176
  990TIP3    H2 2848   5.371   2.818  -0.154
  991TIP3   OH2 2849   5.313   3.743   0.956
  991TIP3    H1 2850   5.317   3.705   1.045
  991TIP3    H2 2851   5.257   3.821   0.968
  992TIP3   OH2 2852   5.422   2.974  -0.062
  992TIP3    H1 2853   5.518   2.976  -0.047
  992TIP3    H2 2854   5.407   3.050  -0.121
  993TIP3   OH2 2855   4.592   3.436   0.643
  993TIP3    H1 2856   4.628   3.406   0.557
  993TIP3    H2 2857   4.627   3.368   0.703
  994TIP3   OH2 2858   5.047   3.571  -0.191
  994TIP3    H1 2859   4.997   3.656  -0.191
  994TIP3    H2 2860   4.988   3.513  -0.140
  995TIP3   OH2 2861   4.470   3.353   1.255
  995TIP3    H1 2862   4.490   3.339   1.349
  995TIP3    H2 2863   4.401   3.287   1.239
  996TIP3   OH2 2864   5.195   3.468   1.276
  996TIP3    H1 2865   5.135   3.409   1.227
  996TIP3    H2 2866   5.282   3.434   1.248
  997TIP3   OH2 2867   5.459   4.020   0.838
  997TIP3    H1 2868   5.368   3.992   0.856
  997TIP3    H2 2869   5.486   4.051   0.927
  998TIP3   OH2 2870   5.826   3.071  -0.183
  998TIP3    H1 2871   5.856   3.002  -0.247
  998TIP3    H2 2872   5.814   3.149  -0.239
  999TIP3   OH2 2873   6.083   3.918   0.851
  999TIP3    H1 2874   5.985   3.913   0.844
  999TIP3    H2 2875   6.109   3.888   0.761
 1000TIP3   OH2 2876   5.564   3.511   0.511
 1000TIP3    H1 2877   5.472   3.483   0.528
 1000TIP3    H2 2878   5.599   3.430   0.469
 1001TIP3   OH2 2879   4.690   3.739   0.269
 1001TIP3    H1 2880   4.688   3.819   0.214
 1001TIP3    H2 2881   4.596   3.718   0.275
 1002TIP3   OH2 2882   4.261   3.041  -0.018
 1002TIP3    H1 2883   4.302   3.129  -0.007
 1002TIP3    H2 2884   4.179   3.050   0.034
 1003TIP3   OH2 2885   4.831   3.505   0.217
 1003TIP3    H1 2886   4.793   3.594   0.232
 1003TIP3    H2 2887   4.790   3.454   0.290
 1004TIP3   OH2 2888   4.959   4.079   0.738
 1004TIP3    H1 2889   4.998   4.154   0.689
 1004TIP3    H2 2890   5.036   4.047   0.788
 1005TIP3   OH2 2891   4.613   3.974   0.125
 1005TIP3    H1 2892   4.525   3.983   0.166
 1005TIP3    H2 2893   4.642   4.068   0.124
 1006TIP3   OH2 2894   5.355   3.717   0.686
 1006TIP3    H1 2895   5.343   3.723   0.784
 1006TIP3    H2 2896   5.428   3.654   0.680
 1007TIP3   OH2 2897   5.599   4.260   0.751
 1007TIP3    H1 2898   5.532   4.189   0.760
 1007TIP3    H2 2899   5.572   4.310   0.671
 1008TIP3   OH2 2900   4.682   2.860   1.264
 1008TIP3    H1 2901   4.585   2.864   1.276
 1008TIP3    H2 2902   4.709   2.799   1.334
 1009TIP3   OH2 2903   5.479   3.564  -0.164
 1009TIP3    H1 2904   5.472   3.482  -0.113
 1009TIP3    H2 2905   5.567   3.553  -0.205
 1010TIP3   OH2 2906   4.400   3.945   0.895
 1010TIP3    H1 2907   4.450   3.868   0.927
 1010TIP3    H2 2908   4.428   4.013   0.958
 1011TIP3   OH2 2909   4.662   3.566  -0.430
 1011TIP3    H1 2910   4.703   3.479  -0.439
 1011TIP3    H2 2911   4.646   3.569  -0.333
 1012TIP3   OH2 2912   4.636   3.594  -0.151
 1012TIP3    H1 2913   4.707   3.565  -0.092
 1012TIP3    H2 2914   4.642   3.692  -0.143
 1013TIP3   OH2 2915   4.373   3.291   0.055
 1013TIP3    H1 2916   4.306   3.336   0.110
 1013TIP3    H2 2917   4.387   3.358  -0.015
 1014TIP3   OH2 2918   5.517   2.926   0.947
 1014TIP3    H1 2919   5.599   2.960   0.985
 1014TIP3    H2 2920   5.503   2.844   0.998
 1015TIP3   OH2 2921   5.388   2.679   0.107
 1015TIP3    H1 2922   5.380   2.696   0.012
 1015TIP3    H2 2923   5.432   2.760   0.140
 1016TIP3   OH2 2924   4.902   3.802  -0.210
 1016TIP3    H1 2925   4.816   3.828  -0.174
 1016TIP3    H2 2926   4.891   3.829  -0.303
 1017TIP3   OH2 2927   5.089   2.854   0.212
 1017TIP3    H1 2928   5.154   2.924   0.193
 1017TIP3    H2 2929   5.094   2.848   0.310
 1018TIP3   OH2 2930   5.357   3.174   1.019
 1018TIP3    H1 2931   5.379   3.226   1.099
 1018TIP3    H2 2932   5.412   3.094   1.031
 1019TIP3   OH2 2933   5.234   2.582   0.316
 1019TIP3    H1 2934   5.224   2.661   0.372
 1019TIP3    H2 2935   5.292   2.618   0.244
 1020TIP3   OH2 2936   4.646   3.863  -0.129
 1020TIP3    H1 2937   4.617   3.932  -0.193
 1020TIP3    H2 2938   4.629   3.909  -0.044
 1021TIP3   OH2 2939   4.743   2.581   0.113
 1021TIP3    H1 2940   4.742   2.674   0.143
 1021TIP3    H2 2941   4.840   2.564   0.117
 1022TIP3   OH2 2942   5.999   3.074   0.998
 1022TIP3    H1 2943   5.901   3.074   1.008
 1022TIP3    H2 2944   6.007   3.027   0.913
 1023TIP3   OH2 2945   5.648   3.270   0.390
 1023TIP3    H1 2946   5.572   3.209   0.398
 1023TIP3    H2 2947   5.719   3.220   0.437
 1024TIP3   OH2 2948   4.364   3.505  -0.138
 1024TIP3    H1 2949   4.438   3.568  -0.131
 1024TIP3    H2 2950   4.406   3.443  -0.203
 1025TIP3   OH2 2951   4.320   2.776  -0.011
 1025TIP3    H1 2952   4.306   2.874  -0.018
 1025TIP3    H2 2953   4.245   2.744  -0.063
 1026TIP3   OH2 2954   4.694   2.492   0.865
 1026TIP3    H1 2955   4.662   2.459   0.779
 1026TIP3    H2 2956   4.683   2.413   0.922
 1027TIP3   OH2 2957   4.234   3.714   0.247
 1027TIP3    H1 2958   4.160   3.742   0.302
 1027TIP3    H2 2959   4.207   3.752   0.160
 1028TIP3   OH2 2960   4.389   4.252   1.317
 1028TIP3    H1 2961   4.475   4.251   1.365
 1028TIP3    H2 2962   4.367   4.157   1.316
 1029TIP3   OH2 2963   4.871   4.217   1.362
 1029TIP3    H1 2964   4.965   4.198   1.369
 1029TIP3    H2 2965   4.846   4.158   1.288
 1030TIP3   OH2 2966   5.516   4.117   1.088
 1030TIP3    H1 2967   5.503   4.050   1.159
 1030TIP3    H2 2968   5.589   4.171   1.124
 1031TIP3   OH2 2969   4.520   3.659   1.518
 1031TIP3    H1 2970   4.536   3.562   1.521
 1031TIP3    H2 2971   4.432   3.661   1.474
 1032TIP3   OH2 2972   4.507   3.321  -0.276
 1032TIP3    H1 2973   4.570   3.275  -0.218
 1032TIP3    H2 2974   4.530   3.291  -0.364
 1033TIP3   OH2 2975   5.129   3.744   1.290
 1033TIP3    H1 2976   5.084   3.758   1.205
 1033TIP3    H2 2977   5.159   3.650   1.284
 1034TIP3   OH2 2978   5.047   3.529  -0.466
 1034TIP3    H1 2979   5.046   3.556  -0.373
 1034TIP3    H2 2980   5.034   3.434  -0.458
 1035TIP3   OH2 2981   5.623   3.745   0.897
 1035TIP3    H1 2982   5.689   3.804   0.856
 1035TIP3    H2 2983   5.542   3.798   0.890
 1036TIP3   OH2 2984   4.638   3.393   1.500
 1036TIP3    H1 2985   4.712   3.335   1.479
 1036TIP3    H2 2986   4.664   3.425   1.589
 1037TIP3   OH2 2987   4.708   3.210  -0.066
 1037TIP3    H1 2988   4.680   3.165   0.016
 1037TIP3    H2 2989   4.742   3.135  -0.119
 1038TIP3   OH2 2990   4.975   3.279   1.163
 1038TIP3    H1 2991   4.896   3.337   1.165
 1038TIP3    H2 2992   5.022   3.312   1.083
 1039TIP3   OH2 2993   4.801   3.004  -0.230
 1039TIP3    H1 2994   4.787   2.992  -0.325
 1039TIP3    H2 2995   4.898   3.017  -0.227
 1040TIP3   OH2 2996   5.491   3.679   1.294
 1040TIP3    H1 2997   5.573   3.656   1.251
 1040TIP3    H2 2998   5.486   3.613   1.366
 1041TIP3   OH2 2999   5.097   3.065   1.288
 1041TIP3    H1 3000   5.097   2.985   1.231
 1041TIP3    H2 3001   5.053   3.131   1.230
 1042TIP3   OH2 3002   5.100   2.852   1.094
 1042TIP3    H1 3003   5.127   2.892   1.009
 1042TIP3    H2 3004   5.006   2.828   1.076
 1043TIP3   OH2 3005   5.128   3.390   0.970
 1043TIP3    H1 3006   5.208   3.392   0.916
 1043TIP3    H2 3007   5.070   3.455   0.923
 1044TIP3   OH2 3008   5.709   3.355   1.350
 1044TIP3    H1 3009   5.756   3.270   1.359
 1044TIP3    H2 3010   5.779   3.412   1.315
 1045TIP3   OH2 3011   5.753   3.606   1.086
 1045TIP3    H1 3012   5.694   3.658   1.027
 1045TIP3    H2 3013   5.840   3.625   1.045
 1046TIP3   OH2 3014   4.976   3.177   1.518
 1046TIP3    H1 3015   4.906   3.110   1.532
 1046TIP3    H2 3016   5.010   3.152   1.430
 1047TIP3   OH2 3017   5.232   2.616   1.162
 1047TIP3    H1 3018   5.183   2.698   1.138
 1047TIP3    H2 3019   5.162   2.548   1.149
 1048TIP3   OH2 3020   5.357   3.121   1.377
 1048TIP3    H1 3021   5.345   3.108   1.473
 1048TIP3    H2 3022   5.268   3.095   1.347
 1049TIP3   OH2 3023   5.598   3.070   1.233
 1049TIP3    H1 3024   5.521   3.070   1.293
 1049TIP3    H2 3025   5.670   3.038   1.290
 1050TIP3   OH2 3026   5.828   3.010   1.384
 1050TIP3    H1 3027   5.840   2.915   1.402
 1050TIP3    H2 3028   5.822   3.048   1.474
 1051TIP3   OH2 3029   4.814   2.958   1.570
 1051TIP3    H1 3030   4.820   2.867   1.535
 1051TIP3    H2 3031   4.850   2.945   1.660
 1052TIP3   OH2 3032   5.327   2.625   1.419
 1052TIP3    H1 3033   5.394   2.555   1.413
 1052TIP3    H2 3034   5.286   2.620   1.330
 1053TIP3   OH2 3035   5.392   2.840   1.578
 1053TIP3    H1 3036   5.370   2.769   1.513
 1053TIP3    H2 3037   5.314   2.899   1.571
 1054TIP3   OH2 3038   4.601   4.056  -0.317
 1054TIP3    H1 3039   4.674   4.105  -0.360
 1054TIP3    H2 3040   4.527   4.083  -0.372
 1055TIP3   OH2 3041   4.100   3.447  -0.091
 1055TIP3    H1 3042   4.190   3.482  -0.112
 1055TIP3    H2 3043   4.093   3.376  -0.156
 1056TIP3   OH2 3044   4.006   4.065   0.307
 1056TIP3    H1 3045   3.937   4.005   0.271
 1056TIP3    H2 3046   4.049   4.006   0.372
 1057TIP3   OH2 3047   4.143   3.915   0.494
 1057TIP3    H1 3048   4.129   3.841   0.555
 1057TIP3    H2 3049   4.193   3.976   0.551
 1058TIP3   OH2 3050   5.857   4.306   0.312
 1058TIP3    H1 3051   5.885   4.366   0.384
 1058TIP3    H2 3052   5.909   4.341   0.238
 1059TIP3   OH2 3053   5.902   4.349   0.588
 1059TIP3    H1 3054   5.875   4.261   0.562
 1059TIP3    H2 3055   5.980   4.330   0.643
 1060TIP3   OH2 3056   5.945   4.012   1.147
 1060TIP3    H1 3057   5.873   4.019   1.213
 1060TIP3    H2 3058   5.987   4.100   1.154
 1061TIP3   OH2 3059   5.746   3.524  -0.230
 1061TIP3    H1 3060   5.815   3.576  -0.276
 1061TIP3    H2 3061   5.798   3.478  -0.161
 1062TIP3   OH2 3062   5.893   3.393  -0.031
 1062TIP3    H1 3063   5.825   3.351   0.026
 1062TIP3    H2 3064   5.955   3.431   0.034
 1063TIP3   OH2 3065   5.934   3.783   0.396
 1063TIP3    H1 3066   5.992   3.716   0.356
 1063TIP3    H2 3067   5.947   3.860   0.336
 1064TIP3   OH2 3068   5.708   3.248   0.119
 1064TIP3    H1 3069   5.710   3.151   0.113
 1064TIP3    H2 3070   5.693   3.262   0.215
 1065TIP3   OH2 3071   4.330   3.320   0.867
 1065TIP3    H1 3072   4.328   3.290   0.774
 1065TIP3    H2 3073   4.427   3.323   0.883
 1066TIP3   OH2 3074   5.993   3.673   0.974
 1066TIP3    H1 3075   6.064   3.605   0.968
 1066TIP3    H2 3076   6.028   3.744   0.918
 1067TIP3   OH2 3077   6.178   3.480   0.994
 1067TIP3    H1 3078   6.103   3.428   1.032
 1067TIP3    H2 3079   6.251   3.416   1.008
 1068TIP3   OH2 3080   5.625   2.718  -0.403
 1068TIP3    H1 3081   5.706   2.677  -0.367
 1068TIP3    H2 3082   5.557   2.670  -0.354
 1069TIP3   OH2 3083   5.693   2.966   0.027
 1069TIP3    H1 3084   5.740   2.879   0.035
 1069TIP3    H2 3085   5.744   3.006  -0.047
 1070TIP3   OH2 3086   5.862   3.140   0.509
 1070TIP3    H1 3087   5.948   3.166   0.469
 1070TIP3    H2 3088   5.875   3.174   0.599
 1071TIP3   OH2 3089   5.931   3.282   0.743
 1071TIP3    H1 3090   5.853   3.315   0.791
 1071TIP3    H2 3091   5.962   3.363   0.698
 1072TIP3   OH2 3092   4.547   3.009   1.542
 1072TIP3    H1 3093   4.645   3.003   1.543
 1072TIP3    H2 3094   4.523   2.924   1.583
 1073TIP3   OH2 3095   6.382   2.873   1.298
 1073TIP3    H1 3096   6.440   2.807   1.255
 1073TIP3    H2 3097   6.355   2.929   1.222
 1074TIP3   OH2 3098   5.811   2.717   0.051
 1074TIP3    H1 3099   5.856   2.699   0.137
 1074TIP3    H2 3100   5.746   2.644   0.052
 1075TIP3   OH2 3101   4.509   2.700   0.873
 1075TIP3    H1 3102   4.572   2.626   0.882
 1075TIP3    H2 3103   4.571   2.775   0.866
 1076TIP3   OH2 3104   4.312   2.975   0.946
 1076TIP3    H1 3105   4.361   2.967   0.861
 1076TIP3    H2 3106   4.341   3.062   0.975
 1077TIP3   OH2 3107   6.254   3.014   1.103
 1077TIP3    H1 3108   6.166   3.053   1.124
 1077TIP3    H2 3109   6.226   2.941   1.045
 1078TIP3   OH2 3110   5.872   2.651  -0.291
 1078TIP3    H1 3111   5.940   2.605  -0.346
 1078TIP3    H2 3112   5.899   2.744  -0.302
 1079TIP3   OH2 3113   4.295   2.479   0.446
 1079TIP3    H1 3114   4.202   2.477   0.472
 1079TIP3    H2 3115   4.293   2.537   0.367
 1080TIP3   OH2 3116   5.469   4.177  -0.030
 1080TIP3    H1 3117   5.462   4.159  -0.125
 1080TIP3    H2 3118   5.520   4.259  -0.028
 1081TIP3   OH2 3119   4.515   2.558   1.261
 1081TIP3    H1 3120   4.464   2.553   1.343
 1081TIP3    H2 3121   4.449   2.597   1.201
 1082TIP3   OH2 3122   4.556   3.983   1.337
 1082TIP3    H1 3123   4.463   3.958   1.320
 1082TIP3    H2 3124   4.563   3.967   1.432
 1083TIP3   OH2 3125   4.733   4.016   0.886
 1083TIP3    H1 3126   4.682   4.091   0.847
 1083TIP3    H2 3127   4.818   4.031   0.840
 1084TIP3   OH2 3128   5.180   4.263   1.020
 1084TIP3    H1 3129   5.219   4.262   1.110
 1084TIP3    H2 3130   5.249   4.312   0.970
 1085TIP3   OH2 3131   5.366   4.409   0.878
 1085TIP3    H1 3132   5.447   4.359   0.855
 1085TIP3    H2 3133   5.405   4.474   0.941
 1086TIP3   OH2 3134   6.152   2.776   0.982
 1086TIP3    H1 3135   6.060   2.768   0.948
 1086TIP3    H2 3136   6.184   2.683   0.969
 1087TIP3   OH2 3137   4.412   4.275   0.908
 1087TIP3    H1 3138   4.323   4.307   0.883
 1087TIP3    H2 3139   4.418   4.311   0.997
 1088TIP3   OH2 3140   4.647   4.253   0.765
 1088TIP3    H1 3141   4.561   4.266   0.811
 1088TIP3    H2 3142   4.625   4.286   0.676
 1089TIP3   OH2 3143   5.075   4.279   0.563
 1089TIP3    H1 3144   5.002   4.299   0.501
 1089TIP3    H2 3145   5.086   4.366   0.607
 1090TIP3   OH2 3146   5.343   4.225   0.570
 1090TIP3    H1 3147   5.245   4.232   0.577
 1090TIP3    H2 3148   5.367   4.319   0.569
 1091TIP3   OH2 3149   5.553   4.402   0.496
 1091TIP3    H1 3150   5.527   4.497   0.493
 1091TIP3    H2 3151   5.587   4.396   0.405
 1092TIP3   OH2 3152   4.321   4.069   0.653
 1092TIP3    H1 3153   4.347   4.043   0.744
 1092TIP3    H2 3154   4.393   4.026   0.602
 1093TIP3   OH2 3155   4.514   3.940   0.511
 1093TIP3    H1 3156   4.530   3.856   0.559
 1093TIP3    H2 3157   4.605   3.976   0.504
 1094TIP3   OH2 3158   4.784   4.035   0.510
 1094TIP3    H1 3159   4.810   3.942   0.500
 1094TIP3    H2 3160   4.824   4.054   0.597
 1095TIP3   OH2 3161   5.358   2.692   0.603
 1095TIP3    H1 3162   5.314   2.621   0.653
 1095TIP3    H2 3163   5.427   2.643   0.554
 1096TIP3   OH2 3164   5.881   2.578   0.511
 1096TIP3    H1 3165   5.917   2.626   0.433
 1096TIP3    H2 3166   5.785   2.589   0.498
 1097TIP3   OH2 3167   5.974   2.675   0.272
 1097TIP3    H1 3168   6.046   2.621   0.232
 1097TIP3    H2 3169   6.009   2.766   0.256
 1098TIP3   OH2 3170   4.605   2.400   0.618
 1098TIP3    H1 3171   4.513   2.366   0.618
 1098TIP3    H2 3172   4.655   2.315   0.615
 1099TIP3   OH2 3173   4.375   2.264   0.262
 1099TIP3    H1 3174   4.423   2.317   0.194
 1099TIP3    H2 3175   4.358   2.333   0.329
 1100TIP3   OH2 3176   5.049   2.432   0.497
 1100TIP3    H1 3177   5.108   2.480   0.437
 1100TIP3    H2 3178   5.072   2.470   0.582
 1101TIP3   OH2 3179   5.598   2.579   0.480
 1101TIP3    H1 3180   5.594   2.542   0.390
 1101TIP3    H2 3181   5.584   2.498   0.535
 1102TIP3   OH2 3182   5.618   2.510   0.060
 1102TIP3    H1 3183   5.526   2.544   0.058
 1102TIP3    H2 3184   5.604   2.423   0.104
 1103TIP3   OH2 3185   4.108   3.838   0.045
 1103TIP3    H1 3186   4.023   3.804   0.011
 1103TIP3    H2 3187   4.097   3.933   0.027
 1104TIP3   OH2 3188   4.514   2.413   0.076
 1104TIP3    H1 3189   4.537   2.377  -0.010
 1104TIP3    H2 3190   4.586   2.477   0.090
 1105TIP3   OH2 3191   5.020   2.603   0.129
 1105TIP3    H1 3192   5.082   2.556   0.187
 1105TIP3    H2 3193   5.042   2.695   0.152
 1106TIP3   OH2 3194   4.813   2.682   1.509
 1106TIP3    H1 3195   4.780   2.610   1.566
 1106TIP3    H2 3196   4.908   2.682   1.534
 1107TIP3   OH2 3197   5.062   2.678   1.627
 1107TIP3    H1 3198   5.146   2.652   1.587
 1107TIP3    H2 3199   5.049   2.607   1.693
 1108TIP3   OH2 3200   4.247   3.910  -0.281
 1108TIP3    H1 3201   4.171   3.914  -0.221
 1108TIP3    H2 3202   4.266   3.815  -0.283
 1109TIP3   OH2 3203   5.887   2.740   1.415
 1109TIP3    H1 3204   5.907   2.708   1.506
 1109TIP3    H2 3205   5.975   2.734   1.372
 1110TIP3   OH2 3206   5.830   4.292   0.906
 1110TIP3    H1 3207   5.749   4.264   0.858
 1110TIP3    H2 3208   5.813   4.388   0.912
 1111TIP3   OH2 3209   7.084   3.643   0.062
 1111TIP3    H1 3210   7.126   3.634   0.150
 1111TIP3    H2 3211   7.042   3.555   0.055
 1112TIP3   OH2 3212   6.387   3.559   0.422
 1112TIP3    H1 3213   6.419   3.491   0.485
 1112TIP3    H2 3214   6.469   3.609   0.407
 1113TIP3   OH2 3215   6.354   3.961   0.156
 1113TIP3    H1 3216   6.348   3.863   0.151
 1113TIP3    H2 3217   6.450   3.971   0.169
 1114TIP3   OH2 3218   6.060   3.168  -0.070
 1114TIP3    H1 3219   6.023   3.258  -0.059
 1114TIP3    H2 3220   5.977   3.119  -0.082
 1115TIP3   OH2 3221   6.135   3.462   0.100
 1115TIP3    H1 3222   6.179   3.383   0.139
 1115TIP3    H2 3223   6.202   3.490   0.036
 1116TIP3   OH2 3224   6.886   3.893   0.097
 1116TIP3    H1 3225   6.913   3.807   0.062
 1116TIP3    H2 3226   6.974   3.928   0.127
 1117TIP3   OH2 3227   7.305   3.389   0.136
 1117TIP3    H1 3228   7.344   3.306   0.170
 1117TIP3    H2 3229   7.305   3.368   0.041
 1118TIP3   OH2 3230   6.625   3.043   0.116
 1118TIP3    H1 3231   6.607   3.122   0.059
 1118TIP3    H2 3232   6.584   2.973   0.061
 1119TIP3   OH2 3233   6.272   3.248   0.203
 1119TIP3    H1 3234   6.356   3.231   0.250
 1119TIP3    H2 3235   6.285   3.192   0.124
 1120TIP3   OH2 3236   6.729   3.460   0.016
 1120TIP3    H1 3237   6.822   3.431   0.023
 1120TIP3    H2 3238   6.686   3.379  -0.017
 1121TIP3   OH2 3239   7.956   3.421   0.264
 1121TIP3    H1 3240   7.875   3.475   0.255
 1121TIP3    H2 3241   7.983   3.439   0.355
 1122TIP3   OH2 3242   6.638   3.034   0.535
 1122TIP3    H1 3243   6.577   3.070   0.468
 1122TIP3    H2 3244   6.586   3.051   0.616
 1123TIP3   OH2 3245   6.744   3.811   0.330
 1123TIP3    H1 3246   6.679   3.872   0.371
 1123TIP3    H2 3247   6.788   3.869   0.266
 1124TIP3   OH2 3248   6.502   3.153   0.327
 1124TIP3    H1 3249   6.567   3.224   0.345
 1124TIP3    H2 3250   6.549   3.107   0.253
 1125TIP3   OH2 3251   6.569   4.002   0.423
 1125TIP3    H1 3252   6.543   4.092   0.392
 1125TIP3    H2 3253   6.493   3.984   0.483
 1126TIP3   OH2 3254   7.691   3.115   0.256
 1126TIP3    H1 3255   7.598   3.137   0.240
 1126TIP3    H2 3256   7.730   3.134   0.169
 1127TIP3   OH2 3257   6.997   2.753   0.256
 1127TIP3    H1 3258   6.979   2.658   0.269
 1127TIP3    H2 3259   6.915   2.792   0.295
 1128TIP3   OH2 3260   7.620   4.138   0.248
 1128TIP3    H1 3261   7.634   4.081   0.171
 1128TIP3    H2 3262   7.599   4.223   0.205
 1129TIP3   OH2 3263   7.500   3.635   0.393
 1129TIP3    H1 3264   7.501   3.719   0.443
 1129TIP3    H2 3265   7.416   3.644   0.344
 1130TIP3   OH2 3266   6.469   3.543  -0.073
 1130TIP3    H1 3267   6.459   3.604  -0.150
 1130TIP3    H2 3268   6.564   3.523  -0.072
 1131TIP3   OH2 3269   6.641   4.009   0.025
 1131TIP3    H1 3270   6.597   3.930  -0.009
 1131TIP3    H2 3271   6.727   3.973   0.056
 1132TIP3   OH2 3272   6.636   3.567   0.255
 1132TIP3    H1 3273   6.668   3.541   0.166
 1132TIP3    H2 3274   6.681   3.652   0.270
 1133TIP3   OH2 3275   6.777   4.124   0.568
 1133TIP3    H1 3276   6.720   4.186   0.617
 1133TIP3    H2 3277   6.709   4.071   0.522
 1134TIP3   OH2 3278   6.532   3.682   0.671
 1134TIP3    H1 3279   6.536   3.767   0.718
 1134TIP3    H2 3280   6.437   3.661   0.679
 1135TIP3   OH2 3281   6.572   4.291   0.657
 1135TIP3    H1 3282   6.535   4.289   0.567
 1135TIP3    H2 3283   6.493   4.271   0.712
 1136TIP3   OH2 3284   6.148   3.821   0.606
 1136TIP3    H1 3285   6.094   3.792   0.531
 1136TIP3    H2 3286   6.189   3.737   0.635
 1137TIP3   OH2 3287   6.006   4.011   0.250
 1137TIP3    H1 3288   6.099   4.005   0.225
 1137TIP3    H2 3289   6.002   4.099   0.291
 1138TIP3   OH2 3290   7.869   4.452   0.296
 1138TIP3    H1 3291   7.889   4.360   0.321
 1138TIP3    H2 3292   7.794   4.472   0.355
 1139TIP3   OH2 3293   6.971   4.256   0.423
 1139TIP3    H1 3294   6.971   4.346   0.462
 1139TIP3    H2 3295   6.903   4.212   0.479
 1140TIP3   OH2 3296   7.754   3.594   0.572
 1140TIP3    H1 3297   7.680   3.607   0.512
 1140TIP3    H2 3298   7.772   3.498   0.561
 1141TIP3   OH2 3299   6.357   4.002   0.593
 1141TIP3    H1 3300   6.407   3.988   0.676
 1141TIP3    H2 3301   6.282   3.941   0.603
 1142TIP3   OH2 3302   6.753   2.829   0.377
 1142TIP3    H1 3303   6.664   2.797   0.350
 1142TIP3    H2 3304   6.728   2.911   0.422
 1143TIP3   OH2 3305   7.288   2.944   0.571
 1143TIP3    H1 3306   7.356   2.916   0.635
 1143TIP3    H2 3307   7.204   2.922   0.617
 1144TIP3   OH2 3308   7.527   3.372   0.488
 1144TIP3    H1 3309   7.481   3.368   0.575
 1144TIP3    H2 3310   7.503   3.461   0.456
 1145TIP3   OH2 3311   6.688   3.343   0.398
 1145TIP3    H1 3312   6.637   3.362   0.479
 1145TIP3    H2 3313   6.670   3.424   0.345
 1146TIP3   OH2 3314   6.552   3.241  -0.045
 1146TIP3    H1 3315   6.467   3.193  -0.062
 1146TIP3    H2 3316   6.589   3.253  -0.134
 1147TIP3   OH2 3317   7.235   3.595   0.724
 1147TIP3    H1 3318   7.212   3.522   0.785
 1147TIP3    H2 3319   7.329   3.609   0.746
 1148TIP3   OH2 3320   6.504   3.374   0.605
 1148TIP3    H1 3321   6.534   3.434   0.674
 1148TIP3    H2 3322   6.493   3.290   0.654
 1149TIP3   OH2 3323   6.096   2.902   0.185
 1149TIP3    H1 3324   6.176   2.926   0.238
 1149TIP3    H2 3325   6.132   2.859   0.106
 1150TIP3   OH2 3326   6.228   2.937  -0.315
 1150TIP3    H1 3327   6.253   3.031  -0.330
 1150TIP3    H2 3328   6.136   2.944  -0.288
 1151TIP3   OH2 3329   7.226   3.594   0.293
 1151TIP3    H1 3330   7.259   3.518   0.240
 1151TIP3    H2 3331   7.200   3.546   0.375
 1152TIP3   OH2 3332   6.879   2.977   0.024
 1152TIP3    H1 3333   6.800   3.020   0.060
 1152TIP3    H2 3334   6.950   3.039   0.047
 1153TIP3   OH2 3335   6.318   3.093  -0.039
 1153TIP3    H1 3336   6.220   3.098  -0.044
 1153TIP3    H2 3337   6.337   2.998  -0.046
 1154TIP3   OH2 3338   7.383   3.127   0.182
 1154TIP3    H1 3339   7.350   3.140   0.274
 1154TIP3    H2 3340   7.317   3.064   0.149
 1155TIP3   OH2 3341   7.560   4.806   0.381
 1155TIP3    H1 3342   7.515   4.860   0.314
 1155TIP3    H2 3343   7.624   4.869   0.416
 1156TIP3   OH2 3344   6.517   3.927   0.814
 1156TIP3    H1 3345   6.596   3.958   0.861
 1156TIP3    H2 3346   6.452   3.927   0.887
 1157TIP3   OH2 3347   6.993   3.378   0.068
 1157TIP3    H1 3348   7.028   3.307   0.012
 1157TIP3    H2 3349   6.999   3.338   0.157
 1158TIP3   OH2 3350   6.509   2.862  -0.056
 1158TIP3    H1 3351   6.470   2.786  -0.009
 1158TIP3    H2 3352   6.587   2.824  -0.098
 1159TIP3   OH2 3353   6.958   3.282   0.350
 1159TIP3    H1 3354   6.867   3.313   0.371
 1159TIP3    H2 3355   7.014   3.338   0.407
 1160TIP3   OH2 3356   7.086   3.983   0.450
 1160TIP3    H1 3357   7.119   3.959   0.537
 1160TIP3    H2 3358   7.057   4.074   0.463
 1161TIP3   OH2 3359   6.386   3.688   0.140
 1161TIP3    H1 3360   6.410   3.643   0.055
 1161TIP3    H2 3361   6.423   3.624   0.203
 1162TIP3   OH2 3362   6.265   3.614   0.743
 1162TIP3    H1 3363   6.290   3.599   0.837
 1162TIP3    H2 3364   6.200   3.543   0.729
 1163TIP3   OH2 3365   6.991   3.725   0.762
 1163TIP3    H1 3366   6.933   3.665   0.714
 1163TIP3    H2 3367   7.080   3.691   0.735
 1164TIP3   OH2 3368   7.247   4.232   0.352
 1164TIP3    H1 3369   7.152   4.244   0.367
 1164TIP3    H2 3370   7.284   4.290   0.422
 1165TIP3   OH2 3371   7.875   4.179   0.361
 1165TIP3    H1 3372   7.777   4.187   0.353
 1165TIP3    H2 3373   7.897   4.151   0.270
 1166TIP3   OH2 3374   6.756   4.315   0.233
 1166TIP3    H1 3375   6.783   4.391   0.177
 1166TIP3    H2 3376   6.838   4.296   0.282
 1167TIP3   OH2 3377   7.133   3.981   0.177
 1167TIP3    H1 3378   7.129   3.978   0.276
 1167TIP3    H2 3379   7.228   3.967   0.164
 1168TIP3   OH2 3380   6.478   3.118   0.750
 1168TIP3    H1 3381   6.382   3.121   0.763
 1168TIP3    H2 3382   6.506   3.056   0.821
 1169TIP3   OH2 3383   6.190   4.201   0.396
 1169TIP3    H1 3384   6.247   4.126   0.419
 1169TIP3    H2 3385   6.227   4.270   0.452
 1170TIP3   OH2 3386   7.311   3.184   0.438
 1170TIP3    H1 3387   7.394   3.219   0.475
 1170TIP3    H2 3388   7.299   3.100   0.488
 1171TIP3   OH2 3389   7.156   3.434   0.504
 1171TIP3    H1 3390   7.177   3.485   0.585
 1171TIP3    H2 3391   7.209   3.353   0.516
 1172TIP3   OH2 3392   7.795   3.330   0.489
 1172TIP3    H1 3393   7.697   3.325   0.492
 1172TIP3    H2 3394   7.812   3.296   0.399
 1173TIP3   OH2 3395   6.489   2.748   0.352
 1173TIP3    H1 3396   6.457   2.715   0.266
 1173TIP3    H2 3397   6.478   2.669   0.410
 1174TIP3   OH2 3398   6.187   4.509   0.804
 1174TIP3    H1 3399   6.272   4.513   0.853
 1174TIP3    H2 3400   6.170   4.413   0.805
 1175TIP3   OH2 3401   6.666   4.474   0.849
 1175TIP3    H1 3402   6.761   4.458   0.859
 1175TIP3    H2 3403   6.644   4.414   0.775
 1176TIP3   OH2 3404   7.310   4.378   0.577
 1176TIP3    H1 3405   7.300   4.310   0.647
 1176TIP3    H2 3406   7.386   4.430   0.610
 1177TIP3   OH2 3407   6.317   3.915   1.004
 1177TIP3    H1 3408   6.334   3.819   1.010
 1177TIP3    H2 3409   6.228   3.916   0.963
 1178TIP3   OH2 3410   6.924   3.999   0.777
 1178TIP3    H1 3411   6.883   4.014   0.690
 1178TIP3    H2 3412   6.956   3.907   0.771
 1179TIP3   OH2 3413   7.415   4.009   0.383
 1179TIP3    H1 3414   7.489   4.055   0.337
 1179TIP3    H2 3415   7.345   4.077   0.375
 1180TIP3   OH2 3416   6.435   3.649   0.985
 1180TIP3    H1 3417   6.509   3.590   0.966
 1180TIP3    H2 3418   6.459   3.681   1.075
 1181TIP3   OH2 3419   6.769   3.533   0.649
 1181TIP3    H1 3420   6.692   3.594   0.652
 1181TIP3    H2 3421   6.818   3.567   0.570
 1182TIP3   OH2 3422   7.285   3.935   0.780
 1182TIP3    H1 3423   7.370   3.916   0.739
 1182TIP3    H2 3424   7.283   3.870   0.853
 1183TIP3   OH2 3425   6.892   3.322   0.775
 1183TIP3    H1 3426   6.894   3.242   0.719
 1183TIP3    H2 3427   6.849   3.387   0.717
 1184TIP3   OH2 3428   6.896   3.110   0.579
 1184TIP3    H1 3429   6.923   3.146   0.493
 1184TIP3    H2 3430   6.803   3.085   0.562
 1185TIP3   OH2 3431   6.921   3.643   0.455
 1185TIP3    H1 3432   7.005   3.649   0.407
 1185TIP3    H2 3433   6.867   3.711   0.411
 1186TIP3   OH2 3434   7.505   3.612   0.836
 1186TIP3    H1 3435   7.552   3.527   0.846
 1186TIP3    H2 3436   7.575   3.669   0.801
 1187TIP3   OH2 3437   7.550   3.865   0.567
 1187TIP3    H1 3438   7.491   3.920   0.511
 1187TIP3    H2 3439   7.636   3.883   0.522
 1188TIP3   OH2 3440   6.770   3.435   1.004
 1188TIP3    H1 3441   6.702   3.366   1.018
 1188TIP3    H2 3442   6.806   3.408   0.917
 1189TIP3   OH2 3443   7.028   2.873   0.648
 1189TIP3    H1 3444   6.979   2.955   0.625
 1189TIP3    H2 3445   6.958   2.805   0.636
 1190TIP3   OH2 3446   7.154   3.378   0.864
 1190TIP3    H1 3447   7.144   3.365   0.960
 1190TIP3    H2 3448   7.064   3.352   0.835
 1191TIP3   OH2 3449   7.395   3.326   0.719
 1191TIP3    H1 3450   7.318   3.326   0.780
 1191TIP3    H2 3451   7.467   3.294   0.777
 1192TIP3   OH2 3452   7.623   3.266   0.871
 1192TIP3    H1 3453   7.635   3.171   0.889
 1192TIP3    H2 3454   7.618   3.305   0.961
 1193TIP3   OH2 3455   6.611   3.214   1.057
 1193TIP3    H1 3456   6.617   3.123   1.022
 1193TIP3    H2 3457   6.647   3.201   1.147
 1194TIP3   OH2 3458   7.123   2.882   0.905
 1194TIP3    H1 3459   7.190   2.812   0.900
 1194TIP3    H2 3460   7.083   2.876   0.816
 1195TIP3   OH2 3461   7.188   3.097   1.064
 1195TIP3    H1 3462   7.166   3.026   1.000
 1195TIP3    H2 3463   7.110   3.155   1.057
 1196TIP3   OH2 3464   5.928   4.180   0.001
 1196TIP3    H1 3465   5.913   4.101   0.055
 1196TIP3    H2 3466   5.982   4.235   0.060
 1197TIP3   OH2 3467   7.741   4.265   0.639
 1197TIP3    H1 3468   7.667   4.276   0.704
 1197TIP3    H2 3469   7.781   4.354   0.641
 1198TIP3   OH2 3470   6.123   3.586   0.353
 1198TIP3    H1 3471   6.123   3.552   0.261
 1198TIP3    H2 3472   6.220   3.585   0.371
 1199TIP3   OH2 3473   7.789   3.930   0.449
 1199TIP3    H1 3474   7.865   3.867   0.455
 1199TIP3    H2 3475   7.830   4.014   0.422
 1200TIP3   OH2 3476   7.968   3.737   0.500
 1200TIP3    H1 3477   7.892   3.682   0.530
 1200TIP3    H2 3478   8.041   3.671   0.510
 1201TIP3   OH2 3479   7.730   3.574   0.238
 1201TIP3    H1 3480   7.648   3.581   0.291
 1201TIP3    H2 3481   7.696   3.604   0.151
 1202TIP3   OH2 3482   6.344   3.267   1.030
 1202TIP3    H1 3483   6.441   3.260   1.030
 1202TIP3    H2 3484   6.320   3.181   1.070
 1203TIP3   OH2 3485   8.184   3.134   0.786
 1203TIP3    H1 3486   8.236   3.065   0.740
 1203TIP3    H2 3487   8.151   3.188   0.711
 1204TIP3   OH2 3488   6.305   2.956   0.358
 1204TIP3    H1 3489   6.368   2.882   0.369
 1204TIP3    H2 3490   6.367   3.032   0.356
 1205TIP3   OH2 3491   6.108   3.232   0.431
 1205TIP3    H1 3492   6.156   3.221   0.347
 1205TIP3    H2 3493   6.146   3.315   0.463
 1206TIP3   OH2 3494   8.049   3.273   0.596
 1206TIP3    H1 3495   7.960   3.310   0.610
 1206TIP3    H2 3496   8.027   3.202   0.532
 1207TIP3   OH2 3497   6.084   2.752  -0.063
 1207TIP3    H1 3498   5.992   2.735  -0.035
 1207TIP3    H2 3499   6.074   2.787  -0.152
 1208TIP3   OH2 3500   6.312   2.817   0.749
 1208TIP3    H1 3501   6.260   2.809   0.831
 1208TIP3    H2 3502   6.244   2.853   0.688
 1209TIP3   OH2 3503   6.351   4.239   0.822
 1209TIP3    H1 3504   6.259   4.212   0.807
 1209TIP3    H2 3505   6.361   4.226   0.917
 1210TIP3   OH2 3506   6.523   4.273   0.373
 1210TIP3    H1 3507   6.474   4.345   0.329
 1210TIP3    H2 3508   6.610   4.284   0.331
 1211TIP3   OH2 3509   6.971   4.517   0.512
 1211TIP3    H1 3510   7.011   4.515   0.602
 1211TIP3    H2 3511   7.041   4.566   0.463
 1212TIP3   OH2 3512   7.156   4.652   0.364
 1212TIP3    H1 3513   7.239   4.612   0.334
 1212TIP3    H2 3514   7.193   4.724   0.421
 1213TIP3   OH2 3515   7.947   3.035   0.478
 1213TIP3    H1 3516   7.858   3.031   0.439
 1213TIP3    H2 3517   7.979   2.943   0.463
 1214TIP3   OH2 3518   6.209   4.528   0.401
 1214TIP3    H1 3519   6.120   4.558   0.373
 1214TIP3    H2 3520   6.218   4.576   0.485
 1215TIP3   OH2 3521   6.433   4.522   0.246
 1215TIP3    H1 3522   6.352   4.531   0.302
 1215TIP3    H2 3523   6.394   4.524   0.158
 1216TIP3   OH2 3524   6.100   4.325   0.162
 1216TIP3    H1 3525   6.131   4.302   0.253
 1216TIP3    H2 3526   6.174   4.287   0.110
 1217TIP3   OH2 3527   6.301   4.210   0.030
 1217TIP3    H1 3528   6.317   4.117   0.057
 1217TIP3    H2 3529   6.393   4.244   0.023
 1218TIP3   OH2 3530   6.566   4.278   0.034
 1218TIP3    H1 3531   6.592   4.185   0.026
 1218TIP3    H2 3532   6.627   4.308   0.104
 1219TIP3   OH2 3533   7.165   2.958   0.107
 1219TIP3    H1 3534   7.097   2.900   0.146
 1219TIP3    H2 3535   7.226   2.892   0.068
 1220TIP3   OH2 3536   7.668   2.866   0.035
 1220TIP3    H1 3537   7.715   2.932  -0.019
 1220TIP3    H2 3538   7.577   2.878   0.007
 1221TIP3   OH2 3539   6.396   2.662   0.102
 1221TIP3    H1 3540   6.305   2.627   0.101
 1221TIP3    H2 3541   6.446   2.577   0.103
 1222TIP3   OH2 3542   6.207   2.521  -0.212
 1222TIP3    H1 3543   6.173   2.548  -0.299
 1222TIP3    H2 3544   6.167   2.585  -0.151
 1223TIP3   OH2 3545   6.848   2.687  -0.015
 1223TIP3    H1 3546   6.878   2.762  -0.070
 1223TIP3    H2 3547   6.860   2.727   0.072
 1224TIP3   OH2 3548   7.361   2.810  -0.011
 1224TIP3    H1 3549   7.329   2.762  -0.090
 1224TIP3    H2 3550   7.374   2.733   0.050
 1225TIP3   OH2 3551   6.609   2.939   0.996
 1225TIP3    H1 3552   6.576   2.867   1.053
 1225TIP3    H2 3553   6.704   2.939   1.021
 1226TIP3   OH2 3554   6.858   2.935   1.114
 1226TIP3    H1 3555   6.943   2.909   1.074
 1226TIP3    H2 3556   6.846   2.864   1.180
 1227TIP3   OH2 3557   7.682   2.996   0.901
 1227TIP3    H1 3558   7.702   2.964   0.992
 1227TIP3    H2 3559   7.771   2.990   0.859
 1228TIP3   OH2 3560   7.628   4.538   0.412
 1228TIP3    H1 3561   7.594   4.497   0.330
 1228TIP3    H2 3562   7.606   4.632   0.398
 1229TIP3   OH2 3563   8.359   4.125   0.340
 1229TIP3    H1 3564   8.403   4.189   0.399
 1229TIP3    H2 3565   8.279   4.106   0.392
 1230TIP3   OH2 3566   8.070   3.823   0.250
 1230TIP3    H1 3567   8.121   3.849   0.330
 1230TIP3    H2 3568   8.023   3.746   0.285
 1231TIP3   OH2 3569   8.217   3.279   0.262
 1231TIP3    H1 3570   8.191   3.372   0.255
 1231TIP3    H2 3571   8.286   3.278   0.331
 1232TIP3   OH2 3572   8.118   4.170   0.490
 1232TIP3    H1 3573   8.117   4.075   0.509
 1232TIP3    H2 3574   8.027   4.183   0.454
 1233TIP3   OH2 3575   8.228   3.895   0.475
 1233TIP3    H1 3576   8.301   3.835   0.458
 1233TIP3    H2 3577   8.251   3.929   0.564
 1234TIP3   OH2 3578   8.554   3.697   0.472
 1234TIP3    H1 3579   8.487   3.628   0.492
 1234TIP3    H2 3580   8.577   3.675   0.381
 1235TIP3   OH2 3581   8.403   3.480   0.554
 1235TIP3    H1 3582   8.419   3.403   0.497
 1235TIP3    H2 3583   8.437   3.449   0.641
 1236TIP3   OH2 3584   8.137   3.526   0.517
 1236TIP3    H1 3585   8.235   3.519   0.518
 1236TIP3    H2 3586   8.113   3.439   0.554
 1237TIP3   OH2 3587   8.066   3.064   0.222
 1237TIP3    H1 3588   8.037   3.070   0.315
 1237TIP3    H2 3589   8.103   3.155   0.210
 1238TIP3   OH2 3590   8.377   3.190   0.475
 1238TIP3    H1 3591   8.345   3.117   0.531
 1238TIP3    H2 3592   8.470   3.196   0.505
 1239TIP3   OH2 3593   8.613   3.198   0.599
 1239TIP3    H1 3594   8.710   3.203   0.585
 1239TIP3    H2 3595   8.610   3.125   0.664
 1240TIP3   OH2 3596   0.432   4.176   1.975
 1240TIP3    H1 3597   0.365   4.228   1.925
 1240TIP3    H2 3598   0.451   4.235   2.050
 1241TIP3   OH2 3599  -0.127   4.985   1.629
 1241TIP3    H1 3600  -0.222   4.978   1.638
 1241TIP3    H2 3601  -0.115   5.044   1.551
 1242TIP3   OH2 3602   0.084   4.912   1.938
 1242TIP3    H1 3603   0.076   4.836   1.877
 1242TIP3    H2 3604   0.071   4.988   1.877
 1243TIP3   OH2 3605   0.278   4.545   1.784
 1243TIP3    H1 3606   0.195   4.597   1.788
 1243TIP3    H2 3607   0.307   4.564   1.693
 1244TIP3   OH2 3608  -0.031   4.427   2.088
 1244TIP3    H1 3609  -0.036   4.509   2.143
 1244TIP3    H2 3610  -0.110   4.437   2.033
 1245TIP3   OH2 3611   0.322   5.254   1.981
 1245TIP3    H1 3612   0.320   5.158   1.995
 1245TIP3    H2 3613   0.240   5.280   2.030
 1246TIP3   OH2 3614  -0.555   5.028   2.126
 1246TIP3    H1 3615  -0.546   5.120   2.159
 1246TIP3    H2 3616  -0.651   5.020   2.126
 1247TIP3   OH2 3617   0.214   4.385   2.259
 1247TIP3    H1 3618   0.134   4.397   2.206
 1247TIP3    H2 3619   0.227   4.288   2.254
 1248TIP3   OH2 3620  -0.033   4.158   2.163
 1248TIP3    H1 3621  -0.060   4.156   2.258
 1248TIP3    H2 3622  -0.037   4.254   2.146
 1249TIP3   OH2 3623  -0.313   4.400   2.424
 1249TIP3    H1 3624  -0.342   4.320   2.471
 1249TIP3    H2 3625  -0.216   4.396   2.437
 1250TIP3   OH2 3626   0.009   5.601   2.102
 1250TIP3    H1 3627   0.004   5.622   2.006
 1250TIP3    H2 3628   0.087   5.653   2.129
 1251TIP3   OH2 3629   0.049   4.696   1.771
 1251TIP3    H1 3630   0.085   4.745   1.693
 1251TIP3    H2 3631  -0.043   4.685   1.745
 1252TIP3   OH2 3632  -0.429   4.786   2.123
 1252TIP3    H1 3633  -0.429   4.753   2.214
 1252TIP3    H2 3634  -0.481   4.868   2.133
 1253TIP3   OH2 3635  -0.553   4.524   2.477
 1253TIP3    H1 3636  -0.610   4.501   2.400
 1253TIP3    H2 3637  -0.466   4.489   2.447
 1254TIP3   OH2 3638  -0.299   5.087   2.019
 1254TIP3    H1 3639  -0.386   5.050   2.042
 1254TIP3    H2 3640  -0.268   5.110   2.110
 1255TIP3   OH2 3641   0.334   4.963   2.027
 1255TIP3    H1 3642   0.236   4.958   2.018
 1255TIP3    H2 3643   0.360   4.934   1.937
 1256TIP3   OH2 3644  -0.321   4.801   1.856
 1256TIP3    H1 3645  -0.356   4.816   1.946
 1256TIP3    H2 3646  -0.355   4.712   1.837
 1257TIP3   OH2 3647  -0.140   5.287   1.928
 1257TIP3    H1 3648  -0.198   5.213   1.958
 1257TIP3    H2 3649  -0.199   5.331   1.863
 1258TIP3   OH2 3650   0.239   4.116   2.180
 1258TIP3    H1 3651   0.142   4.110   2.169
 1258TIP3    H2 3652   0.270   4.112   2.088
 1259TIP3   OH2 3653  -0.229   5.165   2.268
 1259TIP3    H1 3654  -0.241   5.095   2.336
 1259TIP3    H2 3655  -0.157   5.219   2.307
 1260TIP3   OH2 3656  -0.607   4.794   2.453
 1260TIP3    H1 3657  -0.676   4.768   2.392
 1260TIP3    H2 3658  -0.574   4.706   2.481
 1261TIP3   OH2 3659  -0.119   4.788   2.078
 1261TIP3    H1 3660  -0.051   4.841   2.033
 1261TIP3    H2 3661  -0.200   4.837   2.056
 1262TIP3   OH2 3662  -0.262   4.717   2.473
 1262TIP3    H1 3663  -0.179   4.695   2.427
 1262TIP3    H2 3664  -0.266   4.647   2.541
 1263TIP3   OH2 3665  -0.036   4.414   2.535
 1263TIP3    H1 3666  -0.011   4.320   2.524
 1263TIP3    H2 3667   0.039   4.459   2.495
 1264TIP3   OH2 3668   0.004   4.647   2.266
 1264TIP3    H1 3669  -0.053   4.704   2.209
 1264TIP3    H2 3670   0.092   4.668   2.227
 1265TIP3   OH2 3671  -0.417   4.186   2.564
 1265TIP3    H1 3672  -0.400   4.163   2.658
 1265TIP3    H2 3673  -0.513   4.200   2.571
 1266TIP3   OH2 3674  -0.101   4.158   2.427
 1266TIP3    H1 3675  -0.180   4.122   2.470
 1266TIP3    H2 3676  -0.030   4.106   2.472
 1267TIP3   OH2 3677   0.098   4.046   2.571
 1267TIP3    H1 3678   0.098   3.950   2.589
 1267TIP3    H2 3679   0.086   4.086   2.660
 1268TIP3   OH2 3680   0.139   5.419   1.480
 1268TIP3    H1 3681   0.179   5.387   1.563
 1268TIP3    H2 3682   0.204   5.390   1.413
 1269TIP3   OH2 3683   0.163   5.385   1.767
 1269TIP3    H1 3684   0.112   5.302   1.756
 1269TIP3    H2 3685   0.234   5.352   1.824
 1270TIP3   OH2 3686   0.195   5.057   2.325
 1270TIP3    H1 3687   0.122   5.064   2.390
 1270TIP3    H2 3688   0.235   5.146   2.331
 1271TIP3   OH2 3689   0.193   4.823   1.581
 1271TIP3    H1 3690   0.250   4.760   1.532
 1271TIP3    H2 3691   0.195   4.901   1.522
 1272TIP3   OH2 3692   0.039   5.136   1.783
 1272TIP3    H1 3693  -0.031   5.182   1.834
 1272TIP3    H2 3694  -0.015   5.084   1.719
 1273TIP3   OH2 3695   0.241   4.717   2.152
 1273TIP3    H1 3696   0.314   4.652   2.144
 1273TIP3    H2 3697   0.270   4.788   2.093
 1274TIP3   OH2 3698   0.427   4.525   2.171
 1274TIP3    H1 3699   0.353   4.473   2.210
 1274TIP3    H2 3700   0.501   4.462   2.186
 1275TIP3   OH2 3701   0.180   4.326   1.927
 1275TIP3    H1 3702   0.114   4.375   1.978
 1275TIP3    H2 3703   0.218   4.396   1.870
 1276TIP3   OH2 3704   0.617   3.910   2.471
 1276TIP3    H1 3705   0.685   3.850   2.433
 1276TIP3    H2 3706   0.602   3.974   2.399
 1277TIP3   OH2 3707   0.503   4.063   2.277
 1277TIP3    H1 3708   0.416   4.097   2.306
 1277TIP3    H2 3709   0.475   3.991   2.218
 1278TIP3   OH2 3710  -0.548   5.281   2.211
 1278TIP3    H1 3711  -0.545   5.328   2.296
 1278TIP3    H2 3712  -0.517   5.349   2.149
 1279TIP3   OH2 3713  -0.370   5.431   2.051
 1279TIP3    H1 3714  -0.282   5.392   2.051
 1279TIP3    H2 3715  -0.354   5.507   2.111
 1280TIP3   OH2 3716   0.397   3.815   2.152
 1280TIP3    H1 3717   0.308   3.828   2.117
 1280TIP3    H2 3718   0.402   3.717   2.151
 1281TIP3   OH2 3719   0.132   3.771   2.591
 1281TIP3    H1 3720   0.159   3.745   2.682
 1281TIP3    H2 3721   0.219   3.774   2.545
 1282TIP3   OH2 3722   0.082   5.337   2.090
 1282TIP3    H1 3723   0.006   5.307   2.036
 1282TIP3    H2 3724   0.061   5.432   2.099
 1283TIP3   OH2 3725   1.362   4.727   0.873
 1283TIP3    H1 3726   1.329   4.815   0.846
 1283TIP3    H2 3727   1.289   4.672   0.838
 1284TIP3   OH2 3728   1.335   4.710   1.234
 1284TIP3    H1 3729   1.371   4.682   1.320
 1284TIP3    H2 3730   1.302   4.627   1.198
 1285TIP3   OH2 3731   0.640   4.608   1.599
 1285TIP3    H1 3732   0.667   4.531   1.654
 1285TIP3    H2 3733   0.720   4.662   1.606
 1286TIP3   OH2 3734   1.583   5.009   0.912
 1286TIP3    H1 3735   1.568   4.940   0.977
 1286TIP3    H2 3736   1.612   5.084   0.967
 1287TIP3   OH2 3737   0.610   5.011   1.323
 1287TIP3    H1 3738   0.599   4.914   1.327
 1287TIP3    H2 3739   0.707   5.019   1.322
 1288TIP3   OH2 3740   1.225   5.471   0.920
 1288TIP3    H1 3741   1.282   5.400   0.884
 1288TIP3    H2 3742   1.219   5.448   1.014
 1289TIP3   OH2 3743   1.141   4.932   1.278
 1289TIP3    H1 3744   1.183   4.855   1.236
 1289TIP3    H2 3745   1.222   4.980   1.303
 1290TIP3   OH2 3746   2.151   4.253   1.277
 1290TIP3    H1 3747   2.180   4.336   1.320
 1290TIP3    H2 3748   2.174   4.271   1.184
 1291TIP3   OH2 3749   1.552   4.436   1.313
 1291TIP3    H1 3750   1.595   4.350   1.330
 1291TIP3    H2 3751   1.519   4.422   1.222
 1292TIP3   OH2 3752   1.571   4.177   0.919
 1292TIP3    H1 3753   1.656   4.168   0.967
 1292TIP3    H2 3754   1.599   4.208   0.832
 1293TIP3   OH2 3755   0.975   4.488   1.176
 1293TIP3    H1 3756   1.071   4.477   1.195
 1293TIP3    H2 3757   0.951   4.396   1.158
 1294TIP3   OH2 3758   2.224   4.459   1.449
 1294TIP3    H1 3759   2.141   4.509   1.430
 1294TIP3    H2 3760   2.245   4.492   1.538
 1295TIP3   OH2 3761   0.880   4.071   1.714
 1295TIP3    H1 3762   0.821   4.114   1.648
 1295TIP3    H2 3763   0.831   4.094   1.796
 1296TIP3   OH2 3764   1.234   4.929   0.731
 1296TIP3    H1 3765   1.202   4.912   0.641
 1296TIP3    H2 3766   1.197   5.018   0.747
 1297TIP3   OH2 3767   0.991   4.853   1.507
 1297TIP3    H1 3768   0.928   4.919   1.545
 1297TIP3    H2 3769   1.035   4.906   1.437
 1298TIP3   OH2 3770   1.798   4.188   1.068
 1298TIP3    H1 3771   1.784   4.139   1.150
 1298TIP3    H2 3772   1.850   4.265   1.098
 1299TIP3   OH2 3773   0.754   4.194   1.513
 1299TIP3    H1 3774   0.822   4.263   1.504
 1299TIP3    H2 3775   0.771   4.133   1.439
 1300TIP3   OH2 3776   0.819   5.047   1.602
 1300TIP3    H1 3777   0.794   5.135   1.566
 1300TIP3    H2 3778   0.741   5.032   1.660
 1301TIP3   OH2 3779   1.654   5.252   1.081
 1301TIP3    H1 3780   1.564   5.244   1.119
 1301TIP3    H2 3781   1.647   5.339   1.035
 1302TIP3   OH2 3782   1.945   4.153   1.443
 1302TIP3    H1 3783   1.857   4.182   1.412
 1302TIP3    H2 3784   2.004   4.185   1.372
 1303TIP3   OH2 3785   1.265   3.817   1.427
 1303TIP3    H1 3786   1.245   3.723   1.443
 1303TIP3    H2 3787   1.183   3.858   1.462
 1304TIP3   OH2 3788   1.366   5.298   0.764
 1304TIP3    H1 3789   1.413   5.216   0.738
 1304TIP3    H2 3790   1.428   5.365   0.726
 1305TIP3   OH2 3791   1.495   5.083   0.660
 1305TIP3    H1 3792   1.475   5.003   0.609
 1305TIP3    H2 3793   1.531   5.046   0.743
 1306TIP3   OH2 3794   1.880   5.167   1.424
 1306TIP3    H1 3795   1.869   5.089   1.364
 1306TIP3    H2 3796   1.863   5.241   1.363
 1307TIP3   OH2 3797   1.196   4.594   0.703
 1307TIP3    H1 3798   1.110   4.634   0.678
 1307TIP3    H2 3799   1.251   4.622   0.627
 1308TIP3   OH2 3800   2.075   4.802   1.268
 1308TIP3    H1 3801   1.993   4.855   1.273
 1308TIP3    H2 3802   2.105   4.826   1.177
 1309TIP3   OH2 3803   1.523   4.649   0.664
 1309TIP3    H1 3804   1.476   4.678   0.746
 1309TIP3    H2 3805   1.606   4.614   0.704
 1310TIP3   OH2 3806   1.754   4.681   1.564
 1310TIP3    H1 3807   1.751   4.765   1.613
 1310TIP3    H2 3808   1.668   4.685   1.518
 1311TIP3   OH2 3809   0.776   4.639   1.068
 1311TIP3    H1 3810   0.726   4.557   1.045
 1311TIP3    H2 3811   0.857   4.598   1.106
 1312TIP3   OH2 3812   0.889   5.043   1.214
 1312TIP3    H1 3813   0.874   4.981   1.142
 1312TIP3    H2 3814   0.980   5.020   1.240
 1313TIP3   OH2 3815   0.885   4.615   1.418
 1313TIP3    H1 3816   0.930   4.594   1.334
 1313TIP3    H2 3817   0.929   4.699   1.445
 1314TIP3   OH2 3818   1.412   5.248   1.199
 1314TIP3    H1 3819   1.400   5.329   1.252
 1314TIP3    H2 3820   1.398   5.176   1.264
 1315TIP3   OH2 3821   1.025   5.167   1.748
 1315TIP3    H1 3822   0.966   5.231   1.793
 1315TIP3    H2 3823   0.958   5.115   1.698
 1316TIP3   OH2 3824   1.360   4.525   0.484
 1316TIP3    H1 3825   1.432   4.557   0.543
 1316TIP3    H2 3826   1.393   4.547   0.396
 1317TIP3   OH2 3827   0.780   4.727   1.846
 1317TIP3    H1 3828   0.784   4.813   1.893
 1317TIP3    H2 3829   0.686   4.706   1.856
 1318TIP3   OH2 3830   1.104   5.190   0.742
 1318TIP3    H1 3831   1.185   5.234   0.773
 1318TIP3    H2 3832   1.034   5.253   0.762
 1319TIP3   OH2 3833   0.820   5.337   1.834
 1319TIP3    H1 3834   0.786   5.335   1.742
 1319TIP3    H2 3835   0.740   5.316   1.886
 1320TIP3   OH2 3836   1.684   5.112   0.087
 1320TIP3    H1 3837   1.688   5.205   0.058
 1320TIP3    H2 3838   1.773   5.079   0.067
 1321TIP3   OH2 3839   0.399   4.867   1.782
 1321TIP3    H1 3840   0.337   4.842   1.711
 1321TIP3    H2 3841   0.437   4.780   1.808
 1322TIP3   OH2 3842   0.255   5.038   1.416
 1322TIP3    H1 3843   0.349   5.054   1.397
 1322TIP3    H2 3844   0.227   5.126   1.446
 1323TIP3   OH2 3845   2.118   5.511   1.469
 1323TIP3    H1 3846   2.116   5.414   1.483
 1323TIP3    H2 3847   2.034   5.536   1.515
 1324TIP3   OH2 3848   1.225   5.297   1.605
 1324TIP3    H1 3849   1.223   5.390   1.637
 1324TIP3    H2 3850   1.152   5.258   1.659
 1325TIP3   OH2 3851   1.252   5.368   0.513
 1325TIP3    H1 3852   1.187   5.388   0.581
 1325TIP3    H2 3853   1.318   5.319   0.564
 1326TIP3   OH2 3854   2.008   4.642   1.745
 1326TIP3    H1 3855   1.928   4.656   1.692
 1326TIP3    H2 3856   2.022   4.546   1.733
 1327TIP3   OH2 3857   0.605   5.049   1.770
 1327TIP3    H1 3858   0.655   5.032   1.853
 1327TIP3    H2 3859   0.530   4.986   1.778
 1328TIP3   OH2 3860   1.027   3.903   1.540
 1328TIP3    H1 3861   0.952   3.843   1.522
 1328TIP3    H2 3862   0.982   3.971   1.593
 1329TIP3   OH2 3863   1.532   3.992   1.752
 1329TIP3    H1 3864   1.579   3.964   1.832
 1329TIP3    H2 3865   1.439   3.975   1.779
 1330TIP3   OH2 3866   1.774   4.417   1.667
 1330TIP3    H1 3867   1.726   4.416   1.752
 1330TIP3    H2 3868   1.751   4.504   1.630
 1331TIP3   OH2 3869   0.942   4.395   1.569
 1331TIP3    H1 3870   0.884   4.404   1.648
 1331TIP3    H2 3871   0.917   4.475   1.519
 1332TIP3   OH2 3872   1.302   4.376   0.829
 1332TIP3    H1 3873   1.258   4.452   0.784
 1332TIP3    H2 3874   1.370   4.351   0.763
 1333TIP3   OH2 3875   1.484   4.639   1.900
 1333TIP3    H1 3876   1.461   4.567   1.963
 1333TIP3    H2 3877   1.577   4.654   1.922
 1334TIP3   OH2 3878   1.468   4.391   1.055
 1334TIP3    H1 3879   1.406   4.417   0.984
 1334TIP3    H2 3880   1.499   4.306   1.017
 1335TIP3   OH2 3881   0.761   4.422   1.776
 1335TIP3    H1 3882   0.779   4.478   1.854
 1335TIP3    H2 3883   0.733   4.338   1.817
 1336TIP3   OH2 3884   1.476   4.636   1.475
 1336TIP3    H1 3885   1.509   4.564   1.417
 1336TIP3    H2 3886   1.447   4.584   1.552
 1337TIP3   OH2 3887   1.158   4.124   1.162
 1337TIP3    H1 3888   1.083   4.089   1.212
 1337TIP3    H2 3889   1.233   4.104   1.221
 1338TIP3   OH2 3890   1.640   4.172   1.350
 1338TIP3    H1 3891   1.601   4.185   1.440
 1338TIP3    H2 3892   1.575   4.112   1.310
 1339TIP3   OH2 3893   1.808   5.861   1.568
 1339TIP3    H1 3894   1.805   5.885   1.474
 1339TIP3    H2 3895   1.886   5.911   1.599
 1340TIP3   OH2 3896   0.764   4.972   1.991
 1340TIP3    H1 3897   0.844   5.003   2.038
 1340TIP3    H2 3898   0.700   4.971   2.064
 1341TIP3   OH2 3899   1.232   4.431   1.248
 1341TIP3    H1 3900   1.293   4.379   1.193
 1341TIP3    H2 3901   1.241   4.386   1.334
 1342TIP3   OH2 3902   1.206   4.321   1.535
 1342TIP3    H1 3903   1.117   4.358   1.550
 1342TIP3    H2 3904   1.264   4.382   1.586
 1343TIP3   OH2 3905   0.954   4.701   0.646
 1343TIP3    H1 3906   0.881   4.638   0.643
 1343TIP3    H2 3907   0.937   4.749   0.732
 1344TIP3   OH2 3908   1.843   4.948   1.260
 1344TIP3    H1 3909   1.868   4.997   1.178
 1344TIP3    H2 3910   1.757   4.908   1.234
 1345TIP3   OH2 3911   1.340   5.030   1.628
 1345TIP3    H1 3912   1.364   5.010   1.719
 1345TIP3    H2 3913   1.304   5.120   1.633
 1346TIP3   OH2 3914   1.489   4.305   0.649
 1346TIP3    H1 3915   1.586   4.295   0.639
 1346TIP3    H2 3916   1.459   4.309   0.556
 1347TIP3   OH2 3917   0.634   4.731   1.313
 1347TIP3    H1 3918   0.675   4.707   1.228
 1347TIP3    H2 3919   0.682   4.674   1.376
 1348TIP3   OH2 3920   1.094   4.888   0.493
 1348TIP3    H1 3921   1.047   4.966   0.458
 1348TIP3    H2 3922   1.026   4.837   0.539
 1349TIP3   OH2 3923   0.514   4.656   1.919
 1349TIP3    H1 3924   0.535   4.641   2.013
 1349TIP3    H2 3925   0.448   4.586   1.901
 1350TIP3   OH2 3926   1.239   4.769   1.940
 1350TIP3    H1 3927   1.178   4.709   1.893
 1350TIP3    H2 3928   1.326   4.735   1.909
 1351TIP3   OH2 3929   1.503   5.287   1.524
 1351TIP3    H1 3930   1.406   5.289   1.535
 1351TIP3    H2 3931   1.530   5.341   1.602
 1352TIP3   OH2 3932   1.910   4.359   0.431
 1352TIP3    H1 3933   1.851   4.308   0.374
 1352TIP3    H2 3934   1.903   4.448   0.388
 1353TIP3   OH2 3935   2.130   5.220   1.512
 1353TIP3    H1 3936   2.032   5.214   1.504
 1353TIP3    H2 3937   2.156   5.191   1.422
 1354TIP3   OH2 3938   1.620   5.181   0.345
 1354TIP3    H1 3939   1.577   5.109   0.394
 1354TIP3    H2 3940   1.626   5.142   0.255
 1355TIP3   OH2 3941   1.608   4.811   1.179
 1355TIP3    H1 3942   1.515   4.786   1.190
 1355TIP3    H2 3943   1.643   4.731   1.133
 1356TIP3   OH2 3944   0.723   5.044   0.910
 1356TIP3    H1 3945   0.751   5.131   0.944
 1356TIP3    H2 3946   0.636   5.033   0.952
 1357TIP3   OH2 3947   0.873   4.813   0.874
 1357TIP3    H1 3948   0.829   4.900   0.885
 1357TIP3    H2 3949   0.837   4.763   0.950
 1358TIP3   OH2 3950   1.007   5.380   1.402
 1358TIP3    H1 3951   1.044   5.455   1.350
 1358TIP3    H2 3952   1.086   5.350   1.450
 1359TIP3   OH2 3953   1.393   5.018   1.359
 1359TIP3    H1 3954   1.384   5.015   1.456
 1359TIP3    H2 3955   1.473   4.965   1.345
 1360TIP3   OH2 3956   1.361   4.899   0.251
 1360TIP3    H1 3957   1.407   4.882   0.335
 1360TIP3    H2 3958   1.277   4.852   0.261
 1361TIP3   OH2 3959   1.643   5.551   1.410
 1361TIP3    H1 3960   1.563   5.496   1.399
 1361TIP3    H2 3961   1.630   5.616   1.337
 1362TIP3   OH2 3962   1.703   5.391   0.058
 1362TIP3    H1 3963   1.755   5.467   0.025
 1362TIP3    H2 3964   1.613   5.419   0.036
 1363TIP3   OH2 3965   0.727   4.157   1.929
 1363TIP3    H1 3966   0.630   4.160   1.940
 1363TIP3    H2 3967   0.754   4.102   2.004
 1364TIP3   OH2 3968   1.527   4.847   0.472
 1364TIP3    H1 3969   1.524   4.778   0.541
 1364TIP3    H2 3970   1.622   4.844   0.448
 1365TIP3   OH2 3971   0.443   5.246   1.566
 1365TIP3    H1 3972   0.492   5.168   1.597
 1365TIP3    H2 3973   0.480   5.315   1.623
 1366TIP3   OH2 3974   1.561   4.226   1.607
 1366TIP3    H1 3975   1.642   4.266   1.645
 1366TIP3    H2 3976   1.548   4.147   1.663
 1367TIP3   OH2 3977   1.216   4.123   0.878
 1367TIP3    H1 3978   1.241   4.215   0.855
 1367TIP3    H2 3979   1.171   4.139   0.963
 1368TIP3   OH2 3980   1.402   4.474   1.683
 1368TIP3    H1 3981   1.422   4.529   1.761
 1368TIP3    H2 3982   1.458   4.396   1.696
 1369TIP3   OH2 3983   1.331   3.901   0.989
 1369TIP3    H1 3984   1.313   3.923   1.081
 1369TIP3    H2 3985   1.326   3.990   0.949
 1370TIP3   OH2 3986   2.041   4.374   1.666
 1370TIP3    H1 3987   1.943   4.373   1.668
 1370TIP3    H2 3988   2.057   4.339   1.577
 1371TIP3   OH2 3989   1.694   4.570   1.053
 1371TIP3    H1 3990   1.618   4.510   1.063
 1371TIP3    H2 3991   1.765   4.522   1.100
 1372TIP3   OH2 3992   1.662   5.524   1.001
 1372TIP3    H1 3993   1.620   5.574   0.928
 1372TIP3    H2 3994   1.756   5.542   0.982
 1373TIP3   OH2 3995   0.435   5.553   1.980
 1373TIP3    H1 3996   0.521   5.553   2.029
 1373TIP3    H2 3997   0.414   5.458   1.979
 1374TIP3   OH2 3998   0.915   5.519   2.026
 1374TIP3    H1 3999   1.010   5.501   2.033
 1374TIP3    H2 4000   0.891   5.460   1.951
 1375TIP3   OH2 4001   1.555   5.425   1.758
 1375TIP3    H1 4002   1.546   5.354   1.826
 1375TIP3    H2 4003   1.632   5.475   1.789
 1376TIP3   OH2 4004   0.564   4.960   2.182
 1376TIP3    H1 4005   0.582   4.864   2.185
 1376TIP3    H2 4006   0.477   4.962   2.138
 1377TIP3   OH2 4007   1.173   5.045   1.954
 1377TIP3    H1 4008   1.130   5.061   1.868
 1377TIP3    H2 4009   1.203   4.952   1.946
 1378TIP3   OH2 4010   1.665   5.053   1.561
 1378TIP3    H1 4011   1.739   5.098   1.516
 1378TIP3    H2 4012   1.594   5.118   1.548
 1379TIP3   OH2 4013   0.683   4.694   2.162
 1379TIP3    H1 4014   0.756   4.635   2.143
 1379TIP3    H2 4015   0.708   4.726   2.252
 1380TIP3   OH2 4016   1.024   4.584   1.830
 1380TIP3    H1 4017   0.943   4.638   1.828
 1380TIP3    H2 4018   1.068   4.613   1.746
 1381TIP3   OH2 4019   1.534   4.980   1.958
 1381TIP3    H1 4020   1.615   4.957   1.911
 1381TIP3    H2 4021   1.532   4.914   2.029
 1382TIP3   OH2 4022   1.683   4.650   0.065
 1382TIP3    H1 4023   1.642   4.642  -0.023
 1382TIP3    H2 4024   1.655   4.740   0.088
 1383TIP3   OH2 4025   1.144   4.367   1.950
 1383TIP3    H1 4026   1.139   4.287   1.894
 1383TIP3    H2 4027   1.100   4.434   1.894
 1384TIP3   OH2 4028   1.140   4.152   1.757
 1384TIP3    H1 4029   1.167   4.193   1.672
 1384TIP3    H2 4030   1.046   4.128   1.739
 1385TIP3   OH2 4031   1.172   4.687   1.627
 1385TIP3    H1 4032   1.256   4.697   1.580
 1385TIP3    H2 4033   1.117   4.756   1.586
 1386TIP3   OH2 4034   1.753   4.660   2.010
 1386TIP3    H1 4035   1.804   4.579   2.024
 1386TIP3    H2 4036   1.820   4.720   1.975
 1387TIP3   OH2 4037   1.795   4.908   1.748
 1387TIP3    H1 4038   1.737   4.962   1.689
 1387TIP3    H2 4039   1.882   4.928   1.708
 1388TIP3   OH2 4040   1.022   4.478   2.181
 1388TIP3    H1 4041   0.952   4.411   2.196
 1388TIP3    H2 4042   1.054   4.453   2.093
 1389TIP3   OH2 4043   1.279   3.922   1.823
 1389TIP3    H1 4044   1.226   4.002   1.801
 1389TIP3    H2 4045   1.212   3.852   1.812
 1390TIP3   OH2 4046   1.403   4.421   2.041
 1390TIP3    H1 4047   1.386   4.410   2.137
 1390TIP3    H2 4048   1.314   4.397   2.007
 1391TIP3   OH2 4049   1.641   4.367   1.897
 1391TIP3    H1 4050   1.563   4.373   1.956
 1391TIP3    H2 4051   1.710   4.334   1.957
 1392TIP3   OH2 4052   1.862   4.292   2.056
 1392TIP3    H1 4053   1.917   4.224   2.094
 1392TIP3    H2 4054   1.854   4.356   2.130
 1393TIP3   OH2 4055   0.859   4.259   2.233
 1393TIP3    H1 4056   0.865   4.168   2.199
 1393TIP3    H2 4057   0.896   4.247   2.323
 1394TIP3   OH2 4058   1.377   3.933   2.080
 1394TIP3    H1 4059   1.436   3.855   2.080
 1394TIP3    H2 4060   1.334   3.925   1.993
 1395TIP3   OH2 4061   1.444   4.148   2.234
 1395TIP3    H1 4062   1.417   4.075   2.174
 1395TIP3    H2 4063   1.364   4.204   2.235
 1396TIP3   OH2 4064   1.915   5.616   0.958
 1396TIP3    H1 4065   1.941   5.649   1.045
 1396TIP3    H2 4066   1.977   5.661   0.899
 1397TIP3   OH2 4067   1.945   5.636   1.240
 1397TIP3    H1 4068   1.901   5.549   1.236
 1397TIP3    H2 4069   2.020   5.614   1.297
 1398TIP3   OH2 4070   1.991   5.313   1.813
 1398TIP3    H1 4071   1.918   5.321   1.877
 1398TIP3    H2 4072   2.032   5.402   1.818
 1399TIP3   OH2 4073   1.808   4.820   0.430
 1399TIP3    H1 4074   1.873   4.888   0.403
 1399TIP3    H2 4075   1.851   4.784   0.511
 1400TIP3   OH2 4076   1.935   4.692   0.637
 1400TIP3    H1 4077   1.870   4.650   0.697
 1400TIP3    H2 4078   2.000   4.731   0.699
 1401TIP3   OH2 4079   1.988   5.085   1.069
 1401TIP3    H1 4080   2.042   5.021   1.019
 1401TIP3    H2 4081   1.981   5.159   1.006
 1402TIP3   OH2 4082   1.820   5.385   1.264
 1402TIP3    H1 4083   1.749   5.428   1.316
 1402TIP3    H2 4084   1.770   5.337   1.195
 1403TIP3   OH2 4085   1.862   4.593   0.281
 1403TIP3    H1 4086   1.797   4.606   0.209
 1403TIP3    H2 4087   1.841   4.671   0.337
 1404TIP3   OH2 4088   1.751   4.547   0.784
 1404TIP3    H1 4089   1.757   4.450   0.779
 1404TIP3    H2 4090   1.736   4.562   0.880
 1405TIP3   OH2 4091   0.380   4.622   1.528
 1405TIP3    H1 4092   0.387   4.594   1.436
 1405TIP3    H2 4093   0.476   4.627   1.553
 1406TIP3   OH2 4094   2.037   4.974   1.640
 1406TIP3    H1 4095   2.110   4.908   1.631
 1406TIP3    H2 4096   2.064   5.044   1.578
 1407TIP3   OH2 4097   2.223   4.780   1.658
 1407TIP3    H1 4098   2.148   4.729   1.697
 1407TIP3    H2 4099   2.296   4.716   1.671
 1408TIP3   OH2 4100   1.760   4.265   0.676
 1408TIP3    H1 4101   1.797   4.177   0.696
 1408TIP3    H2 4102   1.823   4.297   0.609
 1409TIP3   OH2 4103   1.907   4.440   1.173
 1409TIP3    H1 4104   1.993   4.466   1.132
 1409TIP3    H2 4105   1.920   4.477   1.263
 1410TIP3   OH2 4106   1.975   4.584   1.407
 1410TIP3    H1 4107   1.897   4.619   1.453
 1410TIP3    H2 4108   2.007   4.664   1.360
 1411TIP3   OH2 4109   0.593   4.314   2.203
 1411TIP3    H1 4110   0.691   4.306   2.206
 1411TIP3    H2 4111   0.568   4.228   2.244
 1412TIP3   OH2 4112   2.422   4.172   1.962
 1412TIP3    H1 4113   2.483   4.107   1.920
 1412TIP3    H2 4114   2.399   4.229   1.886
 1413TIP3   OH2 4115   1.852   4.006   0.715
 1413TIP3    H1 4116   1.904   4.007   0.799
 1413TIP3    H2 4117   1.822   3.914   0.715
 1414TIP3   OH2 4118   0.435   4.306   1.638
 1414TIP3    H1 4119   0.389   4.243   1.580
 1414TIP3    H2 4120   0.393   4.389   1.616
 1415TIP3   OH2 4121   2.298   4.315   1.766
 1415TIP3    H1 4122   2.210   4.354   1.784
 1415TIP3    H2 4123   2.273   4.242   1.707
 1416TIP3   OH2 4124   1.999   3.939   0.346
 1416TIP3    H1 4125   2.035   3.892   0.268
 1416TIP3    H2 4126   2.052   4.021   0.343
 1417TIP3   OH2 4127   1.516   5.480   0.629
 1417TIP3    H1 4128   1.558   5.464   0.542
 1417TIP3    H2 4129   1.573   5.549   0.668
 1418TIP3   OH2 4130   0.553   3.878   1.919
 1418TIP3    H1 4131   0.515   3.848   2.004
 1418TIP3    H2 4132   0.494   3.953   1.900
 1419TIP3   OH2 4133   0.600   5.286   2.000
 1419TIP3    H1 4134   0.508   5.259   1.983
 1419TIP3    H2 4135   0.609   5.268   2.094
 1420TIP3   OH2 4136   0.780   5.317   1.549
 1420TIP3    H1 4137   0.731   5.392   1.508
 1420TIP3    H2 4138   0.865   5.330   1.502
 1421TIP3   OH2 4139   1.223   5.563   1.686
 1421TIP3    H1 4140   1.265   5.564   1.775
 1421TIP3    H2 4141   1.289   5.614   1.634
 1422TIP3   OH2 4142   1.402   5.714   1.544
 1422TIP3    H1 4143   1.473   5.663   1.503
 1422TIP3    H2 4144   1.453   5.772   1.605
 1423TIP3   OH2 4145   2.197   4.077   1.644
 1423TIP3    H1 4146   2.107   4.071   1.607
 1423TIP3    H2 4147   2.229   3.985   1.631
 1424TIP3   OH2 4148   0.467   5.574   1.581
 1424TIP3    H1 4149   0.389   5.627   1.556
 1424TIP3    H2 4150   0.483   5.606   1.671
 1425TIP3   OH2 4151   0.696   5.552   1.426
 1425TIP3    H1 4152   0.611   5.564   1.473
 1425TIP3    H2 4153   0.674   5.584   1.337
 1426TIP3   OH2 4154   1.129   5.581   1.235
 1426TIP3    H1 4155   1.050   5.595   1.177
 1426TIP3    H2 4156   1.139   5.671   1.271
 1427TIP3   OH2 4157   1.393   5.521   1.280
 1427TIP3    H1 4158   1.298   5.536   1.264
 1427TIP3    H2 4159   1.432   5.598   1.236
 1428TIP3   OH2 4160   1.596   5.717   1.194
 1428TIP3    H1 4161   1.579   5.801   1.147
 1428TIP3    H2 4162   1.620   5.656   1.120
 1429TIP3   OH2 4163   0.360   5.363   1.327
 1429TIP3    H1 4164   0.403   5.334   1.410
 1429TIP3    H2 4165   0.426   5.329   1.262
 1430TIP3   OH2 4166   0.551   5.241   1.176
 1430TIP3    H1 4167   0.570   5.159   1.227
 1430TIP3    H2 4168   0.641   5.280   1.169
 1431TIP3   OH2 4169   0.815   5.312   1.181
 1431TIP3    H1 4170   0.858   5.225   1.192
 1431TIP3    H2 4171   0.861   5.365   1.247
 1432TIP3   OH2 4172   1.395   3.994   1.259
 1432TIP3    H1 4173   1.358   3.928   1.321
 1432TIP3    H2 4174   1.470   3.946   1.220
 1433TIP3   OH2 4175   1.928   3.876   1.171
 1433TIP3    H1 4176   1.963   3.928   1.096
 1433TIP3    H2 4177   1.832   3.892   1.163
 1434TIP3   OH2 4178   2.018   3.975   0.931
 1434TIP3    H1 4179   2.091   3.922   0.893
 1434TIP3    H2 4180   2.054   4.066   0.920
 1435TIP3   OH2 4181   1.648   3.885   1.149
 1435TIP3    H1 4182   1.631   3.851   1.061
 1435TIP3    H2 4183   1.635   3.803   1.204
 1436TIP3   OH2 4184   1.640   5.447   0.381
 1436TIP3    H1 4185   1.640   5.348   0.381
 1436TIP3    H2 4186   1.602   5.461   0.293
 1437TIP3   OH2 4187   0.859   3.982   2.173
 1437TIP3    H1 4188   0.825   3.910   2.229
 1437TIP3    H2 4189   0.953   3.983   2.201
 1438TIP3   OH2 4190   1.108   3.977   2.294
 1438TIP3    H1 4191   1.189   3.941   2.255
 1438TIP3    H2 4192   1.090   3.911   2.365
 1439TIP3   OH2 4193   1.872   5.593   1.570
 1439TIP3    H1 4194   1.792   5.560   1.522
 1439TIP3    H2 4195   1.852   5.688   1.574
 1440TIP3   OH2 4196   3.135   4.970   0.339
 1440TIP3    H1 4197   3.105   5.059   0.313
 1440TIP3    H2 4198   3.063   4.915   0.304
 1441TIP3   OH2 4199   3.125   4.971   0.724
 1441TIP3    H1 4200   3.166   4.929   0.802
 1441TIP3    H2 4201   3.100   4.893   0.672
 1442TIP3   OH2 4202   2.435   4.861   1.085
 1442TIP3    H1 4203   2.467   4.793   1.148
 1442TIP3    H2 4204   2.515   4.913   1.072
 1443TIP3   OH2 4205   3.378   5.270   0.397
 1443TIP3    H1 4206   3.368   5.193   0.455
 1443TIP3    H2 4207   3.409   5.338   0.458
 1444TIP3   OH2 4208   2.408   5.270   0.809
 1444TIP3    H1 4209   2.398   5.172   0.810
 1444TIP3    H2 4210   2.505   5.277   0.801
 1445TIP3   OH2 4211   2.114   4.475   0.592
 1445TIP3    H1 4212   2.067   4.559   0.607
 1445TIP3    H2 4213   2.041   4.420   0.559
 1446TIP3   OH2 4214   2.173   4.760   0.764
 1446TIP3    H1 4215   2.223   4.684   0.802
 1446TIP3    H2 4216   2.234   4.790   0.695
 1447TIP3   OH2 4217   3.030   5.730   0.415
 1447TIP3    H1 4218   3.074   5.658   0.364
 1447TIP3    H2 4219   3.020   5.689   0.501
 1448TIP3   OH2 4220   2.935   5.191   0.767
 1448TIP3    H1 4221   2.971   5.110   0.726
 1448TIP3    H2 4222   3.019   5.237   0.785
 1449TIP3   OH2 4223   3.951   4.509   0.766
 1449TIP3    H1 4224   3.980   4.595   0.803
 1449TIP3    H2 4225   3.957   4.526   0.671
 1450TIP3   OH2 4226   3.338   4.691   0.806
 1450TIP3    H1 4227   3.390   4.609   0.818
 1450TIP3    H2 4228   3.324   4.689   0.709
 1451TIP3   OH2 4229   2.681   4.352   0.766
 1451TIP3    H1 4230   2.666   4.424   0.702
 1451TIP3    H2 4231   2.635   4.278   0.720
 1452TIP3   OH2 4232   2.319   4.553   0.871
 1452TIP3    H1 4233   2.402   4.533   0.918
 1452TIP3    H2 4234   2.332   4.498   0.791
 1453TIP3   OH2 4235   2.760   4.752   0.666
 1453TIP3    H1 4236   2.855   4.727   0.677
 1453TIP3    H2 4237   2.722   4.668   0.633
 1454TIP3   OH2 4238   4.027   4.720   0.934
 1454TIP3    H1 4239   3.943   4.767   0.915
 1454TIP3    H2 4240   4.035   4.739   1.029
 1455TIP3   OH2 4241   2.681   4.334   1.198
 1455TIP3    H1 4242   2.622   4.371   1.129
 1455TIP3    H2 4243   2.629   4.354   1.279
 1456TIP3   OH2 4244   3.029   5.190   0.208
 1456TIP3    H1 4245   2.987   5.166   0.124
 1456TIP3    H2 4246   2.982   5.272   0.230
 1457TIP3   OH2 4247   2.789   5.111   0.993
 1457TIP3    H1 4248   2.725   5.176   1.029
 1457TIP3    H2 4249   2.829   5.160   0.918
 1458TIP3   OH2 4250   2.552   4.451   0.984
 1458TIP3    H1 4251   2.615   4.523   1.005
 1458TIP3    H2 4252   2.600   4.409   0.908
 1459TIP3   OH2 4253   2.617   5.304   1.091
 1459TIP3    H1 4254   2.589   5.389   1.051
 1459TIP3    H2 4255   2.538   5.287   1.148
 1460TIP3   OH2 4256   2.011   4.993   0.331
 1460TIP3    H1 4257   1.971   5.015   0.245
 1460TIP3    H2 4258   2.040   5.080   0.364
 1461TIP3   OH2 4259   3.452   5.511   0.570
 1461TIP3    H1 4260   3.361   5.501   0.605
 1461TIP3    H2 4261   3.444   5.595   0.521
 1462TIP3   OH2 4262   3.738   4.411   0.928
 1462TIP3    H1 4263   3.649   4.433   0.894
 1462TIP3    H2 4264   3.795   4.441   0.855
 1463TIP3   OH2 4265   3.039   4.053   0.912
 1463TIP3    H1 4266   3.025   3.958   0.929
 1463TIP3    H2 4267   2.961   4.091   0.958
 1464TIP3   OH2 4268   3.150   5.556   0.240
 1464TIP3    H1 4269   3.199   5.472   0.222
 1464TIP3    H2 4270   3.213   5.620   0.201
 1465TIP3   OH2 4271   3.295   5.342   0.143
 1465TIP3    H1 4272   3.261   5.260   0.105
 1465TIP3    H2 4273   3.330   5.309   0.229
 1466TIP3   OH2 4274   3.673   5.426   0.910
 1466TIP3    H1 4275   3.666   5.347   0.851
 1466TIP3    H2 4276   3.660   5.499   0.846
 1467TIP3   OH2 4277   2.968   4.822   0.168
 1467TIP3    H1 4278   2.889   4.871   0.140
 1467TIP3    H2 4279   3.018   4.812   0.084
 1468TIP3   OH2 4280   2.920   4.592  -0.100
 1468TIP3    H1 4281   2.993   4.647  -0.065
 1468TIP3    H2 4282   2.968   4.516  -0.133
 1469TIP3   OH2 4283   3.871   5.064   0.757
 1469TIP3    H1 4284   3.787   5.114   0.760
 1469TIP3    H2 4285   3.899   5.081   0.665
 1470TIP3   OH2 4286   3.318   4.896   0.147
 1470TIP3    H1 4287   3.264   4.923   0.225
 1470TIP3    H2 4288   3.373   4.827   0.193
 1471TIP3   OH2 4289   3.550   4.937   1.050
 1471TIP3    H1 4290   3.543   5.020   1.100
 1471TIP3    H2 4291   3.464   4.937   1.003
 1472TIP3   OH2 4292   2.548   4.896   0.556
 1472TIP3    H1 4293   2.508   4.838   0.488
 1472TIP3    H2 4294   2.625   4.843   0.586
 1473TIP3   OH2 4295   2.677   5.308   0.704
 1473TIP3    H1 4296   2.655   5.267   0.619
 1473TIP3    H2 4297   2.767   5.273   0.721
 1474TIP3   OH2 4298   2.681   4.869   0.910
 1474TIP3    H1 4299   2.717   4.844   0.822
 1474TIP3    H2 4300   2.727   4.953   0.928
 1475TIP3   OH2 4301   3.209   5.508   0.686
 1475TIP3    H1 4302   3.191   5.586   0.741
 1475TIP3    H2 4303   3.196   5.432   0.746
 1476TIP3   OH2 4304   2.820   5.424   1.233
 1476TIP3    H1 4305   2.761   5.487   1.279
 1476TIP3    H2 4306   2.754   5.371   1.184
 1477TIP3   OH2 4307   3.151   4.761  -0.031
 1477TIP3    H1 4308   3.217   4.813   0.020
 1477TIP3    H2 4309   3.179   4.782  -0.124
 1478TIP3   OH2 4310   2.577   4.982   1.336
 1478TIP3    H1 4311   2.580   5.069   1.381
 1478TIP3    H2 4312   2.481   4.962   1.342
 1479TIP3   OH2 4313   2.897   5.438   0.247
 1479TIP3    H1 4314   2.977   5.492   0.258
 1479TIP3    H2 4315   2.838   5.496   0.197
 1480TIP3   OH2 4316   2.616   5.594   1.321
 1480TIP3    H1 4317   2.581   5.591   1.230
 1480TIP3    H2 4318   2.537   5.572   1.375
 1481TIP3   OH2 4319   3.674   3.998   0.011
 1481TIP3    H1 4320   3.593   4.016   0.063
 1481TIP3    H2 4321   3.686   4.083  -0.035
 1482TIP3   OH2 4322   2.416   4.740   0.357
 1482TIP3    H1 4323   2.347   4.785   0.303
 1482TIP3    H2 4324   2.374   4.655   0.375
 1483TIP3   OH2 4325   2.195   5.124   1.267
 1483TIP3    H1 4326   2.129   5.101   1.198
 1483TIP3    H2 4327   2.232   5.037   1.292
 1484TIP3   OH2 4328   2.049   5.315   0.902
 1484TIP3    H1 4329   2.145   5.310   0.891
 1484TIP3    H2 4330   2.039   5.396   0.955
 1485TIP3   OH2 4331   3.906   5.767   0.956
 1485TIP3    H1 4332   3.912   5.670   0.966
 1485TIP3    H2 4333   3.825   5.784   1.008
 1486TIP3   OH2 4334   3.017   5.553   1.094
 1486TIP3    H1 4335   3.013   5.647   1.124
 1486TIP3    H2 4336   2.945   5.513   1.147
 1487TIP3   OH2 4337   2.780   5.683   0.041
 1487TIP3    H1 4338   2.735   5.663  -0.043
 1487TIP3    H2 4339   2.751   5.774   0.060
 1488TIP3   OH2 4340   2.217   5.533   0.426
 1488TIP3    H1 4341   2.265   5.522   0.512
 1488TIP3    H2 4342   2.163   5.452   0.426
 1489TIP3   OH2 4343   2.977   5.593  -0.302
 1489TIP3    H1 4344   3.021   5.517  -0.342
 1489TIP3    H2 4345   3.011   5.591  -0.210
 1490TIP3   OH2 4346   3.035   5.624  -0.036
 1490TIP3    H1 4347   2.943   5.635  -0.002
 1490TIP3    H2 4348   3.078   5.580   0.040
 1491TIP3   OH2 4349   3.801   4.898   1.230
 1491TIP3    H1 4350   3.724   4.908   1.172
 1491TIP3    H2 4351   3.820   4.803   1.221
 1492TIP3   OH2 4352   2.401   5.307   1.257
 1492TIP3    H1 4353   2.450   5.289   1.340
 1492TIP3    H2 4354   2.326   5.243   1.264
 1493TIP3   OH2 4355   2.799   4.128   1.041
 1493TIP3    H1 4356   2.709   4.099   1.015
 1493TIP3    H2 4357   2.776   4.213   1.085
 1494TIP3   OH2 4358   3.334   4.245   1.234
 1494TIP3    H1 4359   3.402   4.217   1.299
 1494TIP3    H2 4360   3.250   4.224   1.281
 1495TIP3   OH2 4361   3.575   4.674   1.155
 1495TIP3    H1 4362   3.524   4.671   1.239
 1495TIP3    H2 4363   3.547   4.759   1.116
 1496TIP3   OH2 4364   3.227   4.809  -0.289
 1496TIP3    H1 4365   3.201   4.797  -0.381
 1496TIP3    H2 4366   3.313   4.855  -0.301
 1497TIP3   OH2 4367   2.944   4.203   0.014
 1497TIP3    H1 4368   2.916   4.190   0.106
 1497TIP3    H2 4369   2.926   4.117  -0.025
 1498TIP3   OH2 4370   2.729   4.646   1.058
 1498TIP3    H1 4371   2.680   4.667   1.140
 1498TIP3    H2 4372   2.713   4.727   1.005
 1499TIP3   OH2 4373   2.614   4.533   0.574
 1499TIP3    H1 4374   2.522   4.503   0.591
 1499TIP3    H2 4375   2.630   4.491   0.487
 1500TIP3   OH2 4376   3.093   4.608   0.293
 1500TIP3    H1 4377   3.052   4.686   0.251
 1500TIP3    H2 4378   3.172   4.593   0.237
 1501TIP3   OH2 4379   3.280   4.899   1.391
 1501TIP3    H1 4380   3.257   4.824   1.450
 1501TIP3    H2 4381   3.376   4.907   1.410
 1502TIP3   OH2 4382   3.243   4.630   0.549
 1502TIP3    H1 4383   3.197   4.662   0.469
 1502TIP3    H2 4384   3.325   4.600   0.504
 1503TIP3   OH2 4385   2.549   4.676   1.269
 1503TIP3    H1 4386   2.580   4.737   1.337
 1503TIP3    H2 4387   2.539   4.593   1.319
 1504TIP3   OH2 4388   2.580   4.123  -0.021
 1504TIP3    H1 4389   2.601   4.129   0.074
 1504TIP3    H2 4390   2.524   4.199  -0.033
 1505TIP3   OH2 4391   2.140   4.201   0.853
 1505TIP3    H1 4392   2.219   4.230   0.903
 1505TIP3    H2 4393   2.176   4.167   0.770
 1506TIP3   OH2 4394   2.124   4.185   0.367
 1506TIP3    H1 4395   2.173   4.221   0.290
 1506TIP3    H2 4396   2.069   4.262   0.390
 1507TIP3   OH2 4397   3.275   4.895   0.966
 1507TIP3    H1 4398   3.304   4.823   0.905
 1507TIP3    H2 4399   3.245   4.841   1.042
 1508TIP3   OH2 4400   2.938   4.352   0.634
 1508TIP3    H1 4401   2.862   4.352   0.695
 1508TIP3    H2 4402   3.014   4.353   0.695
 1509TIP3   OH2 4403   2.377   4.409   0.643
 1509TIP3    H1 4404   2.282   4.414   0.616
 1509TIP3    H2 4405   2.402   4.318   0.620
 1510TIP3   OH2 4406   2.647   4.405   0.336
 1510TIP3    H1 4407   2.743   4.418   0.320
 1510TIP3    H2 4408   2.606   4.427   0.249
 1511TIP3   OH2 4409   3.441   4.432   0.852
 1511TIP3    H1 4410   3.387   4.442   0.932
 1511TIP3    H2 4411   3.386   4.376   0.796
 1512TIP3   OH2 4412   2.490   4.432   0.112
 1512TIP3    H1 4413   2.397   4.415   0.090
 1512TIP3    H2 4414   2.526   4.476   0.033
 1513TIP3   OH2 4415   3.605   6.113   1.058
 1513TIP3    H1 4416   3.603   6.136   0.963
 1513TIP3    H2 4417   3.686   6.160   1.087
 1514TIP3   OH2 4418   2.561   5.229   1.477
 1514TIP3    H1 4419   2.640   5.259   1.525
 1514TIP3    H2 4420   2.496   5.228   1.550
 1515TIP3   OH2 4421   3.027   4.679   0.726
 1515TIP3    H1 4422   3.101   4.649   0.668
 1515TIP3    H2 4423   3.049   4.635   0.809
 1516TIP3   OH2 4424   2.547   4.170   0.610
 1516TIP3    H1 4425   2.515   4.089   0.655
 1516TIP3    H2 4426   2.603   4.133   0.540
 1517TIP3   OH2 4427   3.000   4.571   1.031
 1517TIP3    H1 4428   2.913   4.613   1.037
 1517TIP3    H2 4429   3.060   4.636   1.073
 1518TIP3   OH2 4430   2.737   4.973   0.113
 1518TIP3    H1 4431   2.665   4.907   0.105
 1518TIP3    H2 4432   2.723   5.005   0.205
 1519TIP3   OH2 4433   3.636   5.209   0.748
 1519TIP3    H1 4434   3.663   5.254   0.664
 1519TIP3    H2 4435   3.553   5.164   0.722
 1520TIP3   OH2 4436   3.209   4.273  -0.021
 1520TIP3    H1 4437   3.111   4.266  -0.022
 1520TIP3    H2 4438   3.226   4.369  -0.006
 1521TIP3   OH2 4439   3.153   5.297   1.114
 1521TIP3    H1 4440   3.154   5.256   1.202
 1521TIP3    H2 4441   3.094   5.373   1.125
 1522TIP3   OH2 4442   3.275   4.522   0.071
 1522TIP3    H1 4443   3.350   4.546   0.132
 1522TIP3    H2 4444   3.261   4.607   0.027
 1523TIP3   OH2 4445   2.430   4.991   0.792
 1523TIP3    H1 4446   2.469   4.964   0.707
 1523TIP3    H2 4447   2.473   4.929   0.853
 1524TIP3   OH2 4448   2.883   5.121  -0.070
 1524TIP3    H1 4449   2.841   5.208  -0.054
 1524TIP3    H2 4450   2.831   5.065  -0.008
 1525TIP3   OH2 4451   2.310   4.913   1.406
 1525TIP3    H1 4452   2.332   4.898   1.500
 1525TIP3    H2 4453   2.242   4.845   1.390
 1526TIP3   OH2 4454   3.037   5.028   1.425
 1526TIP3    H1 4455   2.978   4.969   1.375
 1526TIP3    H2 4456   3.125   4.992   1.400
 1527TIP3   OH2 4457   3.296   5.562   1.018
 1527TIP3    H1 4458   3.207   5.537   0.990
 1527TIP3    H2 4459   3.281   5.569   1.113
 1528TIP3   OH2 4460   3.729   4.619  -0.097
 1528TIP3    H1 4461   3.655   4.573  -0.142
 1528TIP3    H2 4462   3.714   4.709  -0.132
 1529TIP3   OH2 4463   3.924   5.479   0.998
 1529TIP3    H1 4464   3.827   5.469   0.986
 1529TIP3    H2 4465   3.954   5.448   0.909
 1530TIP3   OH2 4466   3.415   5.434  -0.183
 1530TIP3    H1 4467   3.382   5.380  -0.109
 1530TIP3    H2 4468   3.403   5.375  -0.258
 1531TIP3   OH2 4469   3.400   5.072   0.674
 1531TIP3    H1 4470   3.307   5.045   0.678
 1531TIP3    H2 4471   3.438   4.989   0.636
 1532TIP3   OH2 4472   2.531   5.296   0.421
 1532TIP3    H1 4473   2.534   5.376   0.365
 1532TIP3    H2 4474   2.437   5.279   0.425
 1533TIP3   OH2 4475   2.096   4.600   0.126
 1533TIP3    H1 4476   2.141   4.686   0.142
 1533TIP3    H2 4477   2.016   4.609   0.181
 1534TIP3   OH2 4478   2.669   5.061   0.361
 1534TIP3    H1 4479   2.635   5.151   0.380
 1534TIP3    H2 4480   2.635   5.011   0.436
 1535TIP3   OH2 4481   2.800   5.639   0.886
 1535TIP3    H1 4482   2.839   5.712   0.834
 1535TIP3    H2 4483   2.877   5.605   0.933
 1536TIP3   OH2 4484   2.451   5.534   0.271
 1536TIP3    H1 4485   2.365   5.543   0.316
 1536TIP3    H2 4486   2.483   5.627   0.273
 1537TIP3   OH2 4487   3.197   5.281   0.845
 1537TIP3    H1 4488   3.187   5.268   0.942
 1537TIP3    H2 4489   3.263   5.213   0.822
 1538TIP3   OH2 4490   3.153   5.148  -0.263
 1538TIP3    H1 4491   3.214   5.128  -0.189
 1538TIP3    H2 4492   3.068   5.142  -0.219
 1539TIP3   OH2 4493   3.434   5.812   0.898
 1539TIP3    H1 4494   3.356   5.754   0.887
 1539TIP3    H2 4495   3.422   5.873   0.822
 1540TIP3   OH2 4496   2.524   4.419   1.415
 1540TIP3    H1 4497   2.427   4.420   1.427
 1540TIP3    H2 4498   2.552   4.358   1.485
 1541TIP3   OH2 4499   3.323   5.099  -0.047
 1541TIP3    H1 4500   3.316   5.031   0.023
 1541TIP3    H2 4501   3.420   5.097  -0.061
 1542TIP3   OH2 4502   2.239   5.502   1.046
 1542TIP3    H1 4503   2.291   5.426   1.076
 1542TIP3    H2 4504   2.268   5.571   1.108
 1543TIP3   OH2 4505   2.524   5.145  -0.277
 1543TIP3    H1 4506   2.593   5.079  -0.296
 1543TIP3    H2 4507   2.505   5.133  -0.182
 1544TIP3   OH2 4508   2.478   5.151   0.002
 1544TIP3    H1 4509   2.551   5.126   0.061
 1544TIP3    H2 4510   2.481   5.249   0.007
 1545TIP3   OH2 4511   2.211   4.847   0.204
 1545TIP3    H1 4512   2.145   4.893   0.260
 1545TIP3    H2 4513   2.227   4.915   0.136
 1546TIP3   OH2 4514   3.348   4.493   1.110
 1546TIP3    H1 4515   3.439   4.519   1.128
 1546TIP3    H2 4516   3.342   4.406   1.155
 1547TIP3   OH2 4517   3.238   4.249   0.255
 1547TIP3    H1 4518   3.225   4.253   0.158
 1547TIP3    H2 4519   3.289   4.330   0.269
 1548TIP3   OH2 4520   2.746   5.352  -0.040
 1548TIP3    H1 4521   2.659   5.386  -0.011
 1548TIP3    H2 4522   2.744   5.372  -0.135
 1549TIP3   OH2 4523   2.921   4.410   0.362
 1549TIP3    H1 4524   2.989   4.479   0.339
 1549TIP3    H2 4525   2.935   4.403   0.459
 1550TIP3   OH2 4526   3.196   4.731   1.169
 1550TIP3    H1 4527   3.224   4.777   1.251
 1550TIP3    H2 4528   3.251   4.650   1.171
 1551TIP3   OH2 4529   3.078   4.140   0.459
 1551TIP3    H1 4530   3.077   4.210   0.527
 1551TIP3    H2 4531   3.137   4.181   0.392
 1552TIP3   OH2 4532   2.483   5.422   0.018
 1552TIP3    H1 4533   2.458   5.494  -0.045
 1552TIP3    H2 4534   2.469   5.467   0.105
 1553TIP3   OH2 4535   2.590   4.139   0.256
 1553TIP3    H1 4536   2.585   4.229   0.293
 1553TIP3    H2 4537   2.686   4.122   0.268
 1554TIP3   OH2 4538   3.841   4.631   1.148
 1554TIP3    H1 4539   3.743   4.631   1.157
 1554TIP3    H2 4540   3.848   4.589   1.061
 1555TIP3   OH2 4541   3.483   4.835   0.567
 1555TIP3    H1 4542   3.461   4.781   0.488
 1555TIP3    H2 4543   3.561   4.786   0.601
 1556TIP3   OH2 4544   2.205   5.063   0.011
 1556TIP3    H1 4545   2.279   5.125   0.020
 1556TIP3    H2 4546   2.247   5.000  -0.052
 1557TIP3   OH2 4547   2.167   4.339   0.135
 1557TIP3    H1 4548   2.146   4.435   0.128
 1557TIP3    H2 4549   2.096   4.300   0.082
 1558TIP3   OH2 4550   3.458   5.783   0.491
 1558TIP3    H1 4551   3.413   5.830   0.417
 1558TIP3    H2 4552   3.551   5.803   0.469
 1559TIP3   OH2 4553   2.533   4.050   1.017
 1559TIP3    H1 4554   2.503   4.017   0.929
 1559TIP3    H2 4555   2.523   3.971   1.073
 1560TIP3   OH2 4556   2.080   5.273   0.403
 1560TIP3    H1 4557   2.004   5.298   0.457
 1560TIP3    H2 4558   2.051   5.307   0.315
 1561TIP3   OH2 4559   2.230   5.810   1.467
 1561TIP3    H1 4560   2.316   5.809   1.514
 1561TIP3    H2 4561   2.208   5.715   1.466
 1562TIP3   OH2 4562   2.712   5.776   1.511
 1562TIP3    H1 4563   2.805   5.751   1.521
 1562TIP3    H2 4564   2.685   5.717   1.437
 1563TIP3   OH2 4565   2.710   5.345  -0.315
 1563TIP3    H1 4566   2.631   5.287  -0.310
 1563TIP3    H2 4567   2.746   5.318  -0.400
 1564TIP3   OH2 4568   2.360   5.216   1.668
 1564TIP3    H1 4569   2.377   5.120   1.672
 1564TIP3    H2 4570   2.273   5.219   1.624
 1565TIP3   OH2 4571   2.344   4.873  -0.121
 1565TIP3    H1 4572   2.410   4.839  -0.058
 1565TIP3    H2 4573   2.390   4.868  -0.206
 1566TIP3   OH2 4574   2.971   5.302   1.440
 1566TIP3    H1 4575   2.924   5.315   1.355
 1566TIP3    H2 4576   3.000   5.208   1.435
 1567TIP3   OH2 4577   2.797   5.033  -0.321
 1567TIP3    H1 4578   2.829   5.084  -0.244
 1567TIP3    H2 4579   2.856   4.957  -0.318
 1568TIP3   OH2 4580   3.466   5.316   1.060
 1568TIP3    H1 4581   3.534   5.355   1.001
 1568TIP3    H2 4582   3.385   5.357   1.026
 1569TIP3   OH2 4583   2.479   4.949   1.650
 1569TIP3    H1 4584   2.555   4.894   1.627
 1569TIP3    H2 4585   2.505   4.982   1.739
 1570TIP3   OH2 4586   2.543   4.771   0.079
 1570TIP3    H1 4587   2.521   4.735   0.167
 1570TIP3    H2 4588   2.582   4.694   0.034
 1571TIP3   OH2 4589   2.814   4.835   1.311
 1571TIP3    H1 4590   2.737   4.896   1.314
 1571TIP3    H2 4591   2.864   4.869   1.234
 1572TIP3   OH2 4592   2.645   4.562  -0.079
 1572TIP3    H1 4593   2.643   4.524  -0.168
 1572TIP3    H2 4594   2.742   4.578  -0.071
 1573TIP3   OH2 4595   3.337   5.247   1.442
 1573TIP3    H1 4596   3.413   5.211   1.395
 1573TIP3    H2 4597   3.325   5.181   1.513
 1574TIP3   OH2 4598   3.468   4.919  -0.371
 1574TIP3    H1 4599   3.486   4.877  -0.459
 1574TIP3    H2 4600   3.478   5.012  -0.396
 1575TIP3   OH2 4601   2.936   4.622   1.439
 1575TIP3    H1 4602   2.939   4.542   1.383
 1575TIP3    H2 4603   2.894   4.688   1.379
 1576TIP3   OH2 4604   2.940   4.408   1.248
 1576TIP3    H1 4605   2.969   4.450   1.165
 1576TIP3    H2 4606   2.847   4.385   1.227
 1577TIP3   OH2 4607   2.969   4.950   1.122
 1577TIP3    H1 4608   3.048   4.944   1.068
 1577TIP3    H2 4609   2.913   5.013   1.072
 1578TIP3   OH2 4610   3.552   4.914   1.500
 1578TIP3    H1 4611   3.593   4.826   1.509
 1578TIP3    H2 4612   3.624   4.965   1.461
 1579TIP3   OH2 4613   3.593   5.167   1.242
 1579TIP3    H1 4614   3.537   5.220   1.180
 1579TIP3    H2 4615   3.681   5.180   1.199
 1580TIP3   OH2 4616   2.814   4.736   1.668
 1580TIP3    H1 4617   2.746   4.667   1.681
 1580TIP3    H2 4618   2.851   4.710   1.581
 1581TIP3   OH2 4619   3.073   4.174   1.312
 1581TIP3    H1 4620   3.025   4.256   1.289
 1581TIP3    H2 4621   3.004   4.106   1.299
 1582TIP3   OH2 4622   3.197   4.680   1.528
 1582TIP3    H1 4623   3.187   4.666   1.624
 1582TIP3    H2 4624   3.108   4.653   1.498
 1583TIP3   OH2 4625   3.441   4.636   1.387
 1583TIP3    H1 4626   3.363   4.628   1.446
 1583TIP3    H2 4627   3.513   4.599   1.442
 1584TIP3   OH2 4628   3.668   4.567   1.535
 1584TIP3    H1 4629   3.680   4.472   1.553
 1584TIP3    H2 4630   3.664   4.606   1.626
 1585TIP3   OH2 4631   2.654   4.516   1.721
 1585TIP3    H1 4632   2.663   4.425   1.685
 1585TIP3    H2 4633   2.692   4.502   1.811
 1586TIP3   OH2 4634   3.167   4.183   1.570
 1586TIP3    H1 4635   3.235   4.113   1.564
 1586TIP3    H2 4636   3.128   4.178   1.480
 1587TIP3   OH2 4637   3.233   4.398   1.728
 1587TIP3    H1 4638   3.211   4.327   1.664
 1587TIP3    H2 4639   3.154   4.457   1.720
 1588TIP3   OH2 4640   2.450   5.623  -0.166
 1588TIP3    H1 4641   2.544   5.625  -0.195
 1588TIP3    H2 4642   2.404   5.660  -0.241
 1589TIP3   OH2 4643   1.941   5.007   0.059
 1589TIP3    H1 4644   2.032   5.039   0.036
 1589TIP3    H2 4645   1.935   4.928   0.004
 1590TIP3   OH2 4646   1.843   5.623   0.457
 1590TIP3    H1 4647   1.777   5.558   0.424
 1590TIP3    H2 4648   1.891   5.568   0.523
 1591TIP3   OH2 4649   1.981   5.477   0.645
 1591TIP3    H1 4650   1.971   5.401   0.704
 1591TIP3    H2 4651   2.034   5.536   0.702
 1592TIP3   OH2 4652   3.708   5.882   0.445
 1592TIP3    H1 4653   3.743   5.908   0.531
 1592TIP3    H2 4654   3.779   5.908   0.384
 1593TIP3   OH2 4655   3.742   5.894   0.730
 1593TIP3    H1 4656   3.699   5.807   0.722
 1593TIP3    H2 4657   3.819   5.869   0.783
 1594TIP3   OH2 4658   3.764   5.592   1.297
 1594TIP3    H1 4659   3.765   5.567   1.391
 1594TIP3    H2 4660   3.826   5.669   1.298
 1595TIP3   OH2 4661   3.604   5.086  -0.068
 1595TIP3    H1 4662   3.685   5.134  -0.091
 1595TIP3    H2 4663   3.633   5.040   0.014
 1596TIP3   OH2 4664   3.725   4.951   0.134
 1596TIP3    H1 4665   3.675   4.898   0.198
 1596TIP3    H2 4666   3.799   4.986   0.189
 1597TIP3   OH2 4667   3.784   5.341   0.556
 1597TIP3    H1 4668   3.839   5.275   0.508
 1597TIP3    H2 4669   3.779   5.414   0.491
 1598TIP3   OH2 4670   3.617   5.644   0.749
 1598TIP3    H1 4671   3.542   5.682   0.798
 1598TIP3    H2 4672   3.571   5.593   0.678
 1599TIP3   OH2 4673   3.675   4.860  -0.211
 1599TIP3    H1 4674   3.594   4.858  -0.267
 1599TIP3    H2 4675   3.650   4.933  -0.152
 1600TIP3   OH2 4676   3.544   4.540  -0.288
 1600TIP3    H1 4677   3.468   4.565  -0.342
 1600TIP3    H2 4678   3.523   4.445  -0.271
 1601TIP3   OH2 4679   2.171   4.879   1.017
 1601TIP3    H1 4680   2.170   4.848   0.924
 1601TIP3    H2 4681   2.268   4.882   1.033
 1602TIP3   OH2 4682   3.834   5.231   1.128
 1602TIP3    H1 4683   3.904   5.162   1.121
 1602TIP3    H2 4684   3.863   5.295   1.060
 1603TIP3   OH2 4685   4.018   5.038   1.150
 1603TIP3    H1 4686   3.943   4.983   1.183
 1603TIP3    H2 4687   4.091   4.974   1.161
 1604TIP3   OH2 4688   3.482   4.280  -0.259
 1604TIP3    H1 4689   3.568   4.240  -0.234
 1604TIP3    H2 4690   3.420   4.211  -0.236
 1605TIP3   OH2 4691   3.707   4.718   0.669
 1605TIP3    H1 4692   3.793   4.732   0.625
 1605TIP3    H2 4693   3.729   4.744   0.760
 1606TIP3   OH2 4694   3.781   4.847   0.905
 1606TIP3    H1 4695   3.696   4.876   0.942
 1606TIP3    H2 4696   3.808   4.925   0.852
 1607TIP3   OH2 4697   2.387   4.567   1.690
 1607TIP3    H1 4698   2.485   4.561   1.692
 1607TIP3    H2 4699   2.365   4.481   1.732
 1608TIP3   OH2 4700   4.222   4.431   1.448
 1608TIP3    H1 4701   4.281   4.365   1.404
 1608TIP3    H2 4702   4.195   4.487   1.372
 1609TIP3   OH2 4703   3.678   4.246   0.185
 1609TIP3    H1 4704   3.695   4.264   0.278
 1609TIP3    H2 4705   3.600   4.187   0.190
 1610TIP3   OH2 4706   2.350   4.259   1.025
 1610TIP3    H1 4707   2.413   4.184   1.033
 1610TIP3    H2 4708   2.412   4.333   1.017
 1611TIP3   OH2 4709   2.153   4.533   1.096
 1611TIP3    H1 4710   2.201   4.524   1.012
 1611TIP3    H2 4711   2.183   4.620   1.125
 1612TIP3   OH2 4712   4.094   4.572   1.254
 1612TIP3    H1 4713   4.006   4.610   1.271
 1612TIP3    H2 4714   4.068   4.499   1.195
 1613TIP3   OH2 4715   3.741   4.206  -0.181
 1613TIP3    H1 4716   3.796   4.148  -0.236
 1613TIP3    H2 4717   3.798   4.285  -0.172
 1614TIP3   OH2 4718   2.139   4.055   0.607
 1614TIP3    H1 4719   2.044   4.038   0.618
 1614TIP3    H2 4720   2.143   4.103   0.522
 1615TIP3   OH2 4721   3.308   5.731   0.109
 1615TIP3    H1 4722   3.352   5.719   0.023
 1615TIP3    H2 4723   3.352   5.810   0.143
 1616TIP3   OH2 4724   2.356   4.117   1.411
 1616TIP3    H1 4725   2.305   4.112   1.494
 1616TIP3    H2 4726   2.290   4.154   1.350
 1617TIP3   OH2 4727   2.397   5.542   1.488
 1617TIP3    H1 4728   2.305   5.516   1.470
 1617TIP3    H2 4729   2.404   5.524   1.582
 1618TIP3   OH2 4730   2.574   5.575   1.036
 1618TIP3    H1 4731   2.524   5.650   0.997
 1618TIP3    H2 4732   2.659   5.589   0.990
 1619TIP3   OH2 4733   3.019   5.818   1.174
 1619TIP3    H1 4734   3.063   5.818   1.261
 1619TIP3    H2 4735   3.082   5.872   1.121
 1620TIP3   OH2 4736   3.198   5.970   1.034
 1620TIP3    H1 4737   3.266   5.927   0.980
 1620TIP3    H2 4738   3.253   6.027   1.092
 1621TIP3   OH2 4739   3.992   4.335   1.132
 1621TIP3    H1 4740   3.902   4.330   1.096
 1621TIP3    H2 4741   4.023   4.242   1.119
 1622TIP3   OH2 4742   2.252   5.833   1.058
 1622TIP3    H1 4743   2.163   5.866   1.035
 1622TIP3    H2 4744   2.260   5.867   1.148
 1623TIP3   OH2 4745   2.488   5.812   0.916
 1623TIP3    H1 4746   2.401   5.824   0.962
 1623TIP3    H2 4747   2.467   5.844   0.826
 1624TIP3   OH2 4748   2.913   5.839   0.715
 1624TIP3    H1 4749   2.845   5.858   0.648
 1624TIP3    H2 4750   2.925   5.927   0.755
 1625TIP3   OH2 4751   3.181   5.781   0.769
 1625TIP3    H1 4752   3.086   5.796   0.748
 1625TIP3    H2 4753   3.222   5.853   0.718
 1626TIP3   OH2 4754   3.392   5.973   0.681
 1626TIP3    H1 4755   3.374   6.057   0.633
 1626TIP3    H2 4756   3.417   5.913   0.608
 1627TIP3   OH2 4757   2.162   5.627   0.804
 1627TIP3    H1 4758   2.189   5.600   0.895
 1627TIP3    H2 4759   2.234   5.583   0.753
 1628TIP3   OH2 4760   2.355   5.498   0.661
 1628TIP3    H1 4761   2.371   5.413   0.709
 1628TIP3    H2 4762   2.446   5.534   0.656
 1629TIP3   OH2 4763   2.621   5.593   0.662
 1629TIP3    H1 4764   2.653   5.502   0.648
 1629TIP3    H2 4765   2.665   5.613   0.747
 1630TIP3   OH2 4766   3.188   4.245   0.742
 1630TIP3    H1 4767   3.154   4.173   0.798
 1630TIP3    H2 4768   3.269   4.206   0.703
 1631TIP3   OH2 4769   3.719   4.128   0.659
 1631TIP3    H1 4770   3.761   4.180   0.586
 1631TIP3    H2 4771   3.628   4.163   0.657
 1632TIP3   OH2 4772   3.821   4.236   0.432
 1632TIP3    H1 4773   3.885   4.184   0.381
 1632TIP3    H2 4774   3.851   4.327   0.408
 1633TIP3   OH2 4775   2.446   3.958   0.769
 1633TIP3    H1 4776   2.354   3.926   0.763
 1633TIP3    H2 4777   2.496   3.873   0.764
 1634TIP3   OH2 4778   2.261   3.815   0.422
 1634TIP3    H1 4779   2.291   3.872   0.349
 1634TIP3    H2 4780   2.207   3.877   0.474
 1635TIP3   OH2 4781   2.889   3.991   0.648
 1635TIP3    H1 4782   2.946   4.039   0.586
 1635TIP3    H2 4783   2.916   4.029   0.733
 1636TIP3   OH2 4784   3.425   4.136   0.636
 1636TIP3    H1 4785   3.440   4.103   0.546
 1636TIP3    H2 4786   3.415   4.052   0.686
 1637TIP3   OH2 4787   3.470   4.055   0.195
 1637TIP3    H1 4788   3.382   4.095   0.191
 1637TIP3    H2 4789   3.452   3.971   0.242
 1638TIP3   OH2 4790   1.951   5.382   0.197
 1638TIP3    H1 4791   1.864   5.350   0.168
 1638TIP3    H2 4792   1.945   5.475   0.169
 1639TIP3   OH2 4793   2.352   3.982   0.216
 1639TIP3    H1 4794   2.388   3.917   0.155
 1639TIP3    H2 4795   2.428   4.042   0.229
 1640TIP3   OH2 4796   2.865   4.159   0.278
 1640TIP3    H1 4797   2.928   4.117   0.338
 1640TIP3    H2 4798   2.882   4.253   0.302
 1641TIP3   OH2 4799   2.712   5.605  -0.235
 1641TIP3    H1 4800   2.805   5.619  -0.263
 1641TIP3    H2 4801   2.698   5.519  -0.279
 1642TIP3   OH2 4802   3.439   5.703  -0.139
 1642TIP3    H1 4803   3.433   5.605  -0.151
 1642TIP3    H2 4804   3.366   5.734  -0.193
 1643TIP3   OH2 4805   2.653   4.238   1.659
 1643TIP3    H1 4806   2.622   4.167   1.717
 1643TIP3    H2 4807   2.748   4.240   1.684
 1644TIP3   OH2 4808   2.902   4.236   1.777
 1644TIP3    H1 4809   2.987   4.211   1.737
 1644TIP3    H2 4810   2.891   4.166   1.844
 1645TIP3   OH2 4811   2.037   5.454  -0.147
 1645TIP3    H1 4812   2.014   5.468  -0.054
 1645TIP3    H2 4813   2.111   5.393  -0.143
 1646TIP3   OH2 4814   3.728   4.297   1.565
 1646TIP3    H1 4815   3.748   4.266   1.656
 1646TIP3    H2 4816   3.816   4.292   1.522
 1647TIP3   OH2 4817   3.645   5.833   1.074
 1647TIP3    H1 4818   3.576   5.820   1.005
 1647TIP3    H2 4819   3.646   5.930   1.079
 1648TIP3   OH2 4820   4.914   5.224   0.211
 1648TIP3    H1 4821   4.960   5.197   0.293
 1648TIP3    H2 4822   4.888   5.139   0.173
 1649TIP3   OH2 4823   4.230   5.118   0.572
 1649TIP3    H1 4824   4.263   5.050   0.634
 1649TIP3    H2 4825   4.311   5.170   0.558
 1650TIP3   OH2 4826   4.202   5.526   0.300
 1650TIP3    H1 4827   4.194   5.429   0.299
 1650TIP3    H2 4828   4.299   5.535   0.288
 1651TIP3   OH2 4829   3.912   4.735   0.084
 1651TIP3    H1 4830   3.854   4.813   0.090
 1651TIP3    H2 4831   3.847   4.668   0.057
 1652TIP3   OH2 4832   3.969   5.018   0.249
 1652TIP3    H1 4833   4.015   4.940   0.288
 1652TIP3    H2 4834   4.031   5.044   0.179
 1653TIP3   OH2 4835   4.732   5.446   0.251
 1653TIP3    H1 4836   4.772   5.364   0.216
 1653TIP3    H2 4837   4.815   5.492   0.275
 1654TIP3   OH2 4838   5.744   4.760   0.260
 1654TIP3    H1 4839   5.766   4.844   0.306
 1654TIP3    H2 4840   5.782   4.778   0.172
 1655TIP3   OH2 4841   5.140   4.947   0.294
 1655TIP3    H1 4842   5.186   4.861   0.305
 1655TIP3    H2 4843   5.118   4.946   0.200
 1656TIP3   OH2 4844   4.483   4.609   0.251
 1656TIP3    H1 4845   4.461   4.680   0.188
 1656TIP3    H2 4846   4.435   4.534   0.208
 1657TIP3   OH2 4847   5.126   4.683  -0.055
 1657TIP3    H1 4848   5.196   4.664   0.009
 1657TIP3    H2 4849   5.185   4.681  -0.134
 1658TIP3   OH2 4850   4.115   4.812   0.356
 1658TIP3    H1 4851   4.197   4.789   0.404
 1658TIP3    H2 4852   4.123   4.754   0.278
 1659TIP3   OH2 4853   4.554   5.007   0.151
 1659TIP3    H1 4854   4.648   4.981   0.165
 1659TIP3    H2 4855   4.516   4.923   0.118
 1660TIP3   OH2 4856   5.812   4.969   0.426
 1660TIP3    H1 4857   5.731   5.021   0.408
 1660TIP3    H2 4858   5.844   5.011   0.508
 1661TIP3   OH2 4859   4.478   4.591   0.685
 1661TIP3    H1 4860   4.418   4.628   0.617
 1661TIP3    H2 4861   4.425   4.609   0.766
 1662TIP3   OH2 4862   4.584   5.367   0.480
 1662TIP3    H1 4863   4.521   5.432   0.518
 1662TIP3    H2 4864   4.626   5.418   0.408
 1663TIP3   OH2 4865   5.394   4.710   0.065
 1663TIP3    H1 4866   5.388   4.659   0.146
 1663TIP3    H2 4867   5.437   4.793   0.095
 1664TIP3   OH2 4868   4.350   4.707   0.469
 1664TIP3    H1 4869   4.412   4.780   0.491
 1664TIP3    H2 4870   4.398   4.666   0.394
 1665TIP3   OH2 4871   4.412   5.560   0.579
 1665TIP3    H1 4872   4.385   5.644   0.537
 1665TIP3    H2 4873   4.333   5.545   0.636
 1666TIP3   OH2 4874   3.807   5.247  -0.182
 1666TIP3    H1 4875   3.727   5.270  -0.230
 1666TIP3    H2 4876   3.817   5.319  -0.117
 1667TIP3   OH2 4877   5.223   5.792   0.087
 1667TIP3    H1 4878   5.136   5.758   0.119
 1667TIP3    H2 4879   5.192   5.852   0.017
 1668TIP3   OH2 4880   5.535   4.666   0.425
 1668TIP3    H1 4881   5.447   4.695   0.394
 1668TIP3    H2 4882   5.593   4.697   0.352
 1669TIP3   OH2 4883   4.839   4.308   0.404
 1669TIP3    H1 4884   4.819   4.213   0.419
 1669TIP3    H2 4885   4.761   4.349   0.447
 1670TIP3   OH2 4886   5.470   5.681   0.397
 1670TIP3    H1 4887   5.474   5.602   0.340
 1670TIP3    H2 4888   5.463   5.754   0.333
 1671TIP3   OH2 4889   5.671   5.308   0.271
 1671TIP3    H1 4890   5.591   5.366   0.273
 1671TIP3    H2 4891   5.688   5.305   0.175
 1672TIP3   OH2 4892   5.345   5.194   0.537
 1672TIP3    H1 4893   5.342   5.277   0.588
 1672TIP3    H2 4894   5.262   5.202   0.486
 1673TIP3   OH2 4895   4.345   5.156   0.045
 1673TIP3    H1 4896   4.300   5.097  -0.020
 1673TIP3    H2 4897   4.421   5.102   0.072
 1674TIP3   OH2 4898   4.470   5.566   0.194
 1674TIP3    H1 4899   4.444   5.531   0.107
 1674TIP3    H2 4900   4.559   5.527   0.207
 1675TIP3   OH2 4901   4.479   5.125   0.398
 1675TIP3    H1 4902   4.512   5.103   0.308
 1675TIP3    H2 4903   4.523   5.210   0.417
 1676TIP3   OH2 4904   4.971   5.758   0.183
 1676TIP3    H1 4905   4.974   5.836   0.241
 1676TIP3    H2 4906   4.971   5.684   0.246
 1677TIP3   OH2 4907   4.618   5.681   0.719
 1677TIP3    H1 4908   4.561   5.744   0.767
 1677TIP3    H2 4909   4.551   5.628   0.672
 1678TIP3   OH2 4910   4.373   5.238   0.823
 1678TIP3    H1 4911   4.377   5.325   0.868
 1678TIP3    H2 4912   4.277   5.219   0.830
 1679TIP3   OH2 4913   4.412   5.849   0.807
 1679TIP3    H1 4914   4.378   5.845   0.715
 1679TIP3    H2 4915   4.332   5.830   0.860
 1680TIP3   OH2 4916   4.203   4.994  -0.130
 1680TIP3    H1 4917   4.147   5.033  -0.200
 1680TIP3    H2 4918   4.157   4.912  -0.112
 1681TIP3   OH2 4919   3.990   5.381   0.755
 1681TIP3    H1 4920   3.927   5.357   0.684
 1681TIP3    H2 4921   4.028   5.293   0.780
 1682TIP3   OH2 4922   3.847   5.570   0.389
 1682TIP3    H1 4923   3.942   5.559   0.372
 1682TIP3    H2 4924   3.846   5.650   0.444
 1683TIP3   OH2 4925   5.706   6.020   0.448
 1683TIP3    H1 4926   5.705   5.924   0.466
 1683TIP3    H2 4927   5.623   6.047   0.492
 1684TIP3   OH2 4928   4.816   5.812   0.577
 1684TIP3    H1 4929   4.816   5.904   0.610
 1684TIP3    H2 4930   4.745   5.772   0.632
 1685TIP3   OH2 4931   4.006   5.789  -0.084
 1685TIP3    H1 4932   4.072   5.782  -0.011
 1685TIP3    H2 4933   3.955   5.707  -0.066
 1686TIP3   OH2 4934   5.598   5.152   0.719
 1686TIP3    H1 4935   5.518   5.166   0.668
 1686TIP3    H2 4936   5.612   5.056   0.710
 1687TIP3   OH2 4937   4.196   5.564   0.746
 1687TIP3    H1 4938   4.247   5.545   0.827
 1687TIP3    H2 4939   4.123   5.499   0.752
 1688TIP3   OH2 4940   4.597   4.387   0.526
 1688TIP3    H1 4941   4.508   4.355   0.500
 1688TIP3    H2 4942   4.571   4.469   0.572
 1689TIP3   OH2 4943   5.129   4.498   0.721
 1689TIP3    H1 4944   5.193   4.477   0.792
 1689TIP3    H2 4945   5.043   4.482   0.765
 1690TIP3   OH2 4946   5.368   4.930   0.639
 1690TIP3    H1 4947   5.320   4.928   0.726
 1690TIP3    H2 4948   5.342   5.018   0.604
 1691TIP3   OH2 4949   4.528   4.902   0.545
 1691TIP3    H1 4950   4.477   4.922   0.627
 1691TIP3    H2 4951   4.512   4.983   0.492
 1692TIP3   OH2 4952   4.411   4.785   0.057
 1692TIP3    H1 4953   4.318   4.760   0.078
 1692TIP3    H2 4954   4.420   4.746  -0.032
 1693TIP3   OH2 4955   5.076   5.152   0.873
 1693TIP3    H1 4956   5.054   5.080   0.936
 1693TIP3    H2 4957   5.169   5.168   0.896
 1694TIP3   OH2 4958   5.049   4.932   0.033
 1694TIP3    H1 4959   5.023   4.978  -0.049
 1694TIP3    H2 4960   5.070   4.842  -0.002
 1695TIP3   OH2 4961   4.346   4.932   0.754
 1695TIP3    H1 4962   4.376   4.993   0.823
 1695TIP3    H2 4963   4.332   4.849   0.804
 1696TIP3   OH2 4964   3.944   4.454   0.333
 1696TIP3    H1 4965   4.023   4.480   0.384
 1696TIP3    H2 4966   3.978   4.414   0.251
 1697TIP3   OH2 4967   3.915   4.431  -0.147
 1697TIP3    H1 4968   3.967   4.468  -0.220
 1697TIP3    H2 4969   3.855   4.506  -0.126
 1698TIP3   OH2 4970   5.060   5.150   0.450
 1698TIP3    H1 4971   5.098   5.079   0.393
 1698TIP3    H2 4972   5.036   5.098   0.529
 1699TIP3   OH2 4973   4.741   4.600   0.129
 1699TIP3    H1 4974   4.657   4.604   0.179
 1699TIP3    H2 4975   4.806   4.613   0.200
 1700TIP3   OH2 4976   4.173   4.667   0.127
 1700TIP3    H1 4977   4.077   4.675   0.104
 1700TIP3    H2 4978   4.192   4.573   0.107
 1701TIP3   OH2 4979   4.440   4.667  -0.194
 1701TIP3    H1 4980   4.538   4.675  -0.182
 1701TIP3    H2 4981   4.425   4.720  -0.273
 1702TIP3   OH2 4982   5.233   4.682   0.326
 1702TIP3    H1 4983   5.196   4.698   0.416
 1702TIP3    H2 4984   5.163   4.626   0.288
 1703TIP3   OH2 4985   5.400   6.372   0.572
 1703TIP3    H1 4986   5.398   6.386   0.474
 1703TIP3    H2 4987   5.472   6.433   0.596
 1704TIP3   OH2 4988   4.355   5.486   0.965
 1704TIP3    H1 4989   4.437   5.515   1.010
 1704TIP3    H2 4990   4.294   5.485   1.041
 1705TIP3   OH2 4991   4.819   4.934   0.217
 1705TIP3    H1 4992   4.899   4.911   0.167
 1705TIP3    H2 4993   4.835   4.895   0.304
 1706TIP3   OH2 4994   4.350   4.424   0.099
 1706TIP3    H1 4995   4.310   4.346   0.144
 1706TIP3    H2 4996   4.397   4.382   0.026
 1707TIP3   OH2 4997   4.798   4.832   0.512
 1707TIP3    H1 4998   4.709   4.870   0.523
 1707TIP3    H2 4999   4.856   4.895   0.560
 1708TIP3   OH2 5000   5.443   5.449   0.235
 1708TIP3    H1 5001   5.434   5.523   0.171
 1708TIP3    H2 5002   5.353   5.406   0.229
 1709TIP3   OH2 5003   4.939   5.547   0.601
 1709TIP3    H1 5004   4.958   5.521   0.692
 1709TIP3    H2 5005   4.895   5.633   0.610
 1710TIP3   OH2 5006   4.225   5.248   0.280
 1710TIP3    H1 5007   4.264   5.223   0.194
 1710TIP3    H2 5008   4.267   5.184   0.339
 1711TIP3   OH2 5009   4.105   5.171   0.895
 1711TIP3    H1 5010   4.128   5.153   0.988
 1711TIP3    H2 5011   4.039   5.102   0.876
 1712TIP3   OH2 5012   4.833   5.282   0.913
 1712TIP3    H1 5013   4.774   5.224   0.862
 1712TIP3    H2 5014   4.921   5.250   0.885
 1713TIP3   OH2 5015   5.091   5.812   0.489
 1713TIP3    H1 5016   4.996   5.803   0.510
 1713TIP3    H2 5017   5.123   5.857   0.570
 1714TIP3   OH2 5018   5.718   5.736   0.493
 1714TIP3    H1 5019   5.619   5.731   0.492
 1714TIP3    H2 5020   5.737   5.705   0.402
 1715TIP3   OH2 5021   5.206   5.316   0.201
 1715TIP3    H1 5022   5.112   5.307   0.178
 1715TIP3    H2 5023   5.242   5.244   0.144
 1716TIP3   OH2 5024   4.340   5.563  -0.076
 1716TIP3    H1 5025   4.350   5.653  -0.114
 1716TIP3    H2 5026   4.265   5.530  -0.131
 1717TIP3   OH2 5027   3.875   4.855  -0.394
 1717TIP3    H1 5028   3.922   4.936  -0.366
 1717TIP3    H2 5029   3.800   4.855  -0.331
 1718TIP3   OH2 5030   4.489   5.330  -0.126
 1718TIP3    H1 5031   4.442   5.414  -0.117
 1718TIP3    H2 5032   4.437   5.273  -0.067
 1719TIP3   OH2 5033   4.597   5.895   0.373
 1719TIP3    H1 5034   4.639   5.967   0.323
 1719TIP3    H2 5035   4.672   5.860   0.423
 1720TIP3   OH2 5036   4.991   5.527   0.333
 1720TIP3    H1 5037   4.980   5.526   0.431
 1720TIP3    H2 5038   5.069   5.470   0.323
 1721TIP3   OH2 5039   5.224   6.068   0.398
 1721TIP3    H1 5040   5.147   6.007   0.390
 1721TIP3    H2 5041   5.207   6.128   0.324
 1722TIP3   OH2 5042   4.318   4.675   0.900
 1722TIP3    H1 5043   4.221   4.680   0.911
 1722TIP3    H2 5044   4.343   4.614   0.971
 1723TIP3   OH2 5045   4.032   5.761   0.536
 1723TIP3    H1 5046   4.085   5.682   0.554
 1723TIP3    H2 5047   4.072   5.823   0.598
 1724TIP3   OH2 5048   3.999   5.080  -0.301
 1724TIP3    H1 5049   3.940   5.137  -0.248
 1724TIP3    H2 5050   4.040   5.145  -0.363
 1725TIP3   OH2 5051   5.155   4.737   0.583
 1725TIP3    H1 5052   5.233   4.778   0.624
 1725TIP3    H2 5053   5.141   4.657   0.638
 1726TIP3   OH2 5054   4.705   4.680  -0.135
 1726TIP3    H1 5055   4.783   4.723  -0.174
 1726TIP3    H2 5056   4.728   4.672  -0.040
 1727TIP3   OH2 5057   4.993   4.987   0.659
 1727TIP3    H1 5058   5.015   5.043   0.736
 1727TIP3    H2 5059   5.050   4.910   0.673
 1728TIP3   OH2 5060   4.885   4.414  -0.042
 1728TIP3    H1 5061   4.852   4.480   0.022
 1728TIP3    H2 5062   4.965   4.458  -0.073
 1729TIP3   OH2 5063   4.377   4.391  -0.245
 1729TIP3    H1 5064   4.370   4.483  -0.213
 1729TIP3    H2 5065   4.467   4.368  -0.214
 1730TIP3   OH2 5066   5.633   4.884   0.642
 1730TIP3    H1 5067   5.535   4.882   0.645
 1730TIP3    H2 5068   5.649   4.862   0.550
 1731TIP3   OH2 5069   5.298   5.100   0.057
 1731TIP3    H1 5070   5.222   5.047   0.028
 1731TIP3    H2 5071   5.365   5.032   0.077
 1732TIP3   OH2 5072   3.953   4.591  -0.387
 1732TIP3    H1 5073   3.921   4.683  -0.391
 1732TIP3    H2 5074   3.874   4.542  -0.412
 1733TIP3   OH2 5075   4.335   4.305   0.502
 1733TIP3    H1 5076   4.300   4.274   0.415
 1733TIP3    H2 5077   4.320   4.227   0.559
 1734TIP3   OH2 5078   3.859   5.550  -0.076
 1734TIP3    H1 5079   3.772   5.588  -0.066
 1734TIP3    H2 5080   3.869   5.539  -0.173
 1735TIP3   OH2 5081   4.028   6.068   0.954
 1735TIP3    H1 5082   4.114   6.070   1.002
 1735TIP3    H2 5083   4.011   5.972   0.953
 1736TIP3   OH2 5084   4.504   6.035   0.996
 1736TIP3    H1 5085   4.598   6.018   1.011
 1736TIP3    H2 5086   4.486   5.973   0.923
 1737TIP3   OH2 5087   5.150   5.934   0.728
 1737TIP3    H1 5088   5.140   5.866   0.799
 1737TIP3    H2 5089   5.225   5.987   0.761
 1738TIP3   OH2 5090   4.153   5.468   1.156
 1738TIP3    H1 5091   4.176   5.373   1.156
 1738TIP3    H2 5092   4.070   5.469   1.104
 1739TIP3   OH2 5093   4.765   5.557   0.928
 1739TIP3    H1 5094   4.724   5.573   0.841
 1739TIP3    H2 5095   4.797   5.465   0.921
 1740TIP3   OH2 5096   5.258   5.564   0.535
 1740TIP3    H1 5097   5.329   5.614   0.491
 1740TIP3    H2 5098   5.182   5.624   0.522
 1741TIP3   OH2 5099   4.274   5.208   1.137
 1741TIP3    H1 5100   4.349   5.151   1.114
 1741TIP3    H2 5101   4.301   5.239   1.226
 1742TIP3   OH2 5102   4.611   5.091   0.798
 1742TIP3    H1 5103   4.534   5.152   0.801
 1742TIP3    H2 5104   4.660   5.125   0.719
 1743TIP3   OH2 5105   5.126   5.492   0.931
 1743TIP3    H1 5106   5.210   5.473   0.888
 1743TIP3    H2 5107   5.124   5.428   1.004
 1744TIP3   OH2 5108   4.734   4.880   0.925
 1744TIP3    H1 5109   4.734   4.800   0.869
 1744TIP3    H2 5110   4.691   4.946   0.867
 1745TIP3   OH2 5111   4.737   4.664   0.732
 1745TIP3    H1 5112   4.764   4.708   0.648
 1745TIP3    H2 5113   4.643   4.642   0.713
 1746TIP3   OH2 5114   4.765   5.202   0.605
 1746TIP3    H1 5115   4.847   5.208   0.555
 1746TIP3    H2 5116   4.709   5.269   0.560
 1747TIP3   OH2 5117   5.346   5.169   0.986
 1747TIP3    H1 5118   5.397   5.088   0.998
 1747TIP3    H2 5119   5.414   5.230   0.952
 1748TIP3   OH2 5120   5.389   5.420   0.721
 1748TIP3    H1 5121   5.331   5.474   0.662
 1748TIP3    H2 5122   5.476   5.440   0.680
 1749TIP3   OH2 5123   4.611   4.992   1.153
 1749TIP3    H1 5124   4.543   4.923   1.168
 1749TIP3    H2 5125   4.647   4.966   1.066
 1750TIP3   OH2 5126   4.869   4.429   0.796
 1750TIP3    H1 5127   4.821   4.512   0.775
 1750TIP3    H2 5128   4.798   4.363   0.786
 1751TIP3   OH2 5129   4.996   4.934   1.014
 1751TIP3    H1 5130   4.984   4.924   1.111
 1751TIP3    H2 5131   4.906   4.910   0.984
 1752TIP3   OH2 5132   5.233   4.879   0.868
 1752TIP3    H1 5133   5.158   4.885   0.930
 1752TIP3    H2 5134   5.306   4.852   0.927
 1753TIP3   OH2 5135   5.462   4.823   1.021
 1753TIP3    H1 5136   5.475   4.728   1.042
 1753TIP3    H2 5137   5.457   4.864   1.110
 1754TIP3   OH2 5138   4.451   4.772   1.207
 1754TIP3    H1 5139   4.457   4.681   1.172
 1754TIP3    H2 5140   4.487   4.759   1.297
 1755TIP3   OH2 5141   4.964   4.440   1.054
 1755TIP3    H1 5142   5.031   4.369   1.049
 1755TIP3    H2 5143   4.923   4.434   0.966
 1756TIP3   OH2 5144   5.028   4.654   1.215
 1756TIP3    H1 5145   5.006   4.584   1.150
 1756TIP3    H2 5146   4.951   4.714   1.209
 1757TIP3   OH2 5147   3.634   5.882  -0.055
 1757TIP3    H1 5148   3.573   5.815  -0.093
 1757TIP3    H2 5149   3.681   5.830   0.014
 1758TIP3   OH2 5150   3.765   5.743   0.139
 1758TIP3    H1 5151   3.769   5.659   0.187
 1758TIP3    H2 5152   3.827   5.797   0.192
 1759TIP3   OH2 5153   5.560   6.138   0.218
 1759TIP3    H1 5154   5.515   6.051   0.230
 1759TIP3    H2 5155   5.630   6.129   0.284
 1760TIP3   OH2 5156   5.582   5.826   0.785
 1760TIP3    H1 5157   5.510   5.834   0.850
 1760TIP3    H2 5158   5.624   5.914   0.790
 1761TIP3   OH2 5159   5.405   5.911   0.252
 1761TIP3    H1 5160   5.343   5.949   0.317
 1761TIP3    H2 5161   5.343   5.862   0.193
 1762TIP3   OH2 5162   3.967   5.138   0.502
 1762TIP3    H1 5163   3.966   5.107   0.409
 1762TIP3    H2 5164   4.064   5.140   0.519
 1763TIP3   OH2 5165   5.630   5.488   0.611
 1763TIP3    H1 5166   5.701   5.420   0.604
 1763TIP3    H2 5167   5.664   5.559   0.554
 1764TIP3   OH2 5168   5.812   5.293   0.635
 1764TIP3    H1 5169   5.739   5.240   0.673
 1764TIP3    H2 5170   5.886   5.230   0.644
 1765TIP3   OH2 5171   5.511   4.948   0.148
 1765TIP3    H1 5172   5.593   4.981   0.106
 1765TIP3    H2 5173   5.520   4.988   0.237
 1766TIP3   OH2 5174   5.562   5.087   0.386
 1766TIP3    H1 5175   5.482   5.121   0.432
 1766TIP3    H2 5176   5.599   5.171   0.350
 1767TIP3   OH2 5177   4.184   4.827   1.184
 1767TIP3    H1 5178   4.282   4.819   1.182
 1767TIP3    H2 5179   4.161   4.740   1.222
 1768TIP3   OH2 5180   6.019   4.686   0.936
 1768TIP3    H1 5181   6.077   4.621   0.891
 1768TIP3    H2 5182   5.990   4.743   0.862
 1769TIP3   OH2 5183   4.151   4.514   0.506
 1769TIP3    H1 5184   4.214   4.439   0.518
 1769TIP3    H2 5185   4.212   4.589   0.503
 1770TIP3   OH2 5186   3.959   4.788   0.588
 1770TIP3    H1 5187   3.997   4.772   0.500
 1770TIP3    H2 5188   3.991   4.878   0.606
 1771TIP3   OH2 5189   5.891   4.828   0.745
 1771TIP3    H1 5190   5.805   4.870   0.767
 1771TIP3    H2 5191   5.859   4.758   0.684
 1772TIP3   OH2 5192   3.937   4.294   0.087
 1772TIP3    H1 5193   3.843   4.281   0.114
 1772TIP3    H2 5194   3.927   4.350   0.007
 1773TIP3   OH2 5195   4.154   4.371   0.898
 1773TIP3    H1 5196   4.102   4.367   0.980
 1773TIP3    H2 5197   4.089   4.411   0.838
 1774TIP3   OH2 5198   4.190   5.803   0.974
 1774TIP3    H1 5199   4.100   5.770   0.961
 1774TIP3    H2 5200   4.207   5.783   1.067
 1775TIP3   OH2 5201   4.368   5.832   0.522
 1775TIP3    H1 5202   4.323   5.909   0.482
 1775TIP3    H2 5203   4.455   5.842   0.478
 1776TIP3   OH2 5204   4.815   6.077   0.659
 1776TIP3    H1 5205   4.856   6.076   0.748
 1776TIP3    H2 5206   4.881   6.129   0.608
 1777TIP3   OH2 5207   4.995   6.229   0.519
 1777TIP3    H1 5208   5.068   6.176   0.486
 1777TIP3    H2 5209   5.043   6.289   0.581
 1778TIP3   OH2 5210   5.789   4.599   0.619
 1778TIP3    H1 5211   5.701   4.601   0.579
 1778TIP3    H2 5212   5.816   4.505   0.608
 1779TIP3   OH2 5213   4.047   6.096   0.540
 1779TIP3    H1 5214   3.956   6.128   0.524
 1779TIP3    H2 5215   4.059   6.121   0.632
 1780TIP3   OH2 5216   4.284   6.068   0.403
 1780TIP3    H1 5217   4.197   6.082   0.446
 1780TIP3    H2 5218   4.265   6.095   0.311
 1781TIP3   OH2 5219   4.716   6.097   0.199
 1781TIP3    H1 5220   4.638   6.114   0.142
 1781TIP3    H2 5221   4.727   6.183   0.243
 1782TIP3   OH2 5222   4.988   6.049   0.239
 1782TIP3    H1 5223   4.891   6.053   0.229
 1782TIP3    H2 5224   5.017   6.115   0.174
 1783TIP3   OH2 5225   3.957   5.884   0.294
 1783TIP3    H1 5226   3.987   5.857   0.383
 1783TIP3    H2 5227   4.028   5.841   0.240
 1784TIP3   OH2 5228   4.152   5.759   0.150
 1784TIP3    H1 5229   4.167   5.671   0.190
 1784TIP3    H2 5230   4.245   5.791   0.142
 1785TIP3   OH2 5231   4.420   5.852   0.148
 1785TIP3    H1 5232   4.448   5.760   0.131
 1785TIP3    H2 5233   4.465   5.867   0.233
 1786TIP3   OH2 5234   5.001   4.504   0.243
 1786TIP3    H1 5235   4.954   4.433   0.291
 1786TIP3    H2 5236   5.070   4.457   0.194
 1787TIP3   OH2 5237   5.512   4.409   0.176
 1787TIP3    H1 5238   5.556   4.431   0.091
 1787TIP3    H2 5239   5.419   4.410   0.150
 1788TIP3   OH2 5240   5.628   4.445  -0.082
 1788TIP3    H1 5241   5.724   4.429  -0.084
 1788TIP3    H2 5242   5.628   4.542  -0.095
 1789TIP3   OH2 5243   4.242   4.216   0.255
 1789TIP3    H1 5244   4.150   4.183   0.253
 1789TIP3    H2 5245   4.291   4.131   0.250
 1790TIP3   OH2 5246   4.021   4.083  -0.099
 1790TIP3    H1 5247   4.056   4.144  -0.167
 1790TIP3    H2 5248   3.994   4.147  -0.030
 1791TIP3   OH2 5249   4.682   4.244   0.139
 1791TIP3    H1 5250   4.741   4.293   0.081
 1791TIP3    H2 5251   4.697   4.287   0.225
 1792TIP3   OH2 5252   5.232   4.393   0.111
 1792TIP3    H1 5253   5.237   4.356   0.022
 1792TIP3    H2 5254   5.219   4.312   0.166
 1793TIP3   OH2 5255   4.136   4.258  -0.305
 1793TIP3    H1 5256   4.162   4.179  -0.353
 1793TIP3    H2 5257   4.222   4.304  -0.289
 1794TIP3   OH2 5258   4.636   4.406  -0.175
 1794TIP3    H1 5259   4.715   4.369  -0.132
 1794TIP3    H2 5260   4.661   4.500  -0.180
 1795TIP3   OH2 5261   4.450   4.495   1.146
 1795TIP3    H1 5262   4.417   4.424   1.204
 1795TIP3    H2 5263   4.544   4.497   1.172
 1796TIP3   OH2 5264   4.699   4.492   1.264
 1796TIP3    H1 5265   4.784   4.467   1.226
 1796TIP3    H2 5266   4.686   4.422   1.331
 1797TIP3   OH2 5267   5.523   4.552   1.052
 1797TIP3    H1 5268   5.543   4.523   1.144
 1797TIP3    H2 5269   5.611   4.549   1.011
 1798TIP3   OH2 5270   5.464   6.106   0.544
 1798TIP3    H1 5271   5.378   6.081   0.504
 1798TIP3    H2 5272   5.450   6.203   0.554
 1799TIP3   OH2 5273   6.249   4.840   0.164
 1799TIP3    H1 5274   6.280   4.922   0.120
 1799TIP3    H2 5275   6.200   4.875   0.243
 1800TIP3   OH2 5276   6.176   5.483   0.324
 1800TIP3    H1 5277   6.184   5.574   0.359
 1800TIP3    H2 5278   6.079   5.473   0.322
 1801TIP3   OH2 5279   5.768   5.632   0.251
 1801TIP3    H1 5280   5.765   5.627   0.154
 1801TIP3    H2 5281   5.812   5.549   0.278
 1802TIP3   OH2 5282   6.016   5.760   0.254
 1802TIP3    H1 5283   6.074   5.763   0.333
 1802TIP3    H2 5284   5.938   5.713   0.286
 1803TIP3   OH2 5285   6.916   4.767   0.225
 1803TIP3    H1 5286   6.992   4.752   0.283
 1803TIP3    H2 5287   6.840   4.756   0.284
 1804TIP3   OH2 5288   6.881   5.417   0.415
 1804TIP3    H1 5289   6.866   5.322   0.436
 1804TIP3    H2 5290   6.966   5.416   0.370
 1805TIP3   OH2 5291   6.099   5.188   0.262
 1805TIP3    H1 5292   6.166   5.255   0.279
 1805TIP3    H2 5293   6.131   5.110   0.310
 1806TIP3   OH2 5294   6.167   5.731   0.478
 1806TIP3    H1 5295   6.242   5.767   0.528
 1806TIP3    H2 5296   6.095   5.740   0.544
 1807TIP3   OH2 5297   5.902   5.437   0.384
 1807TIP3    H1 5298   5.937   5.422   0.474
 1807TIP3    H2 5299   5.843   5.361   0.373
 1808TIP3   OH2 5300   6.623   5.507   0.439
 1808TIP3    H1 5301   6.571   5.489   0.359
 1808TIP3    H2 5302   6.714   5.484   0.410
 1809TIP3   OH2 5303   6.123   4.926   0.393
 1809TIP3    H1 5304   6.028   4.943   0.406
 1809TIP3    H2 5305   6.144   4.868   0.468
 1810TIP3   OH2 5306   6.081   4.545  -0.011
 1810TIP3    H1 5307   6.076   4.497  -0.095
 1810TIP3    H2 5308   6.088   4.473   0.054
 1811TIP3   OH2 5309   5.818   6.299   0.439
 1811TIP3    H1 5310   5.905   6.313   0.482
 1811TIP3    H2 5311   5.801   6.205   0.457
 1812TIP3   OH2 5312   6.335   6.288   0.474
 1812TIP3    H1 5313   6.397   6.219   0.502
 1812TIP3    H2 5314   6.318   6.260   0.383
 1813TIP3   OH2 5315   5.949   5.728   0.648
 1813TIP3    H1 5316   5.966   5.632   0.648
 1813TIP3    H2 5317   5.862   5.732   0.604
 1814TIP3   OH2 5318   6.562   5.775   0.460
 1814TIP3    H1 5319   6.521   5.783   0.372
 1814TIP3    H2 5320   6.587   5.680   0.462
 1815TIP3   OH2 5321   6.066   5.460   0.624
 1815TIP3    H1 5322   6.146   5.418   0.591
 1815TIP3    H2 5323   6.095   5.493   0.712
 1816TIP3   OH2 5324   6.394   5.332   0.275
 1816TIP3    H1 5325   6.322   5.392   0.303
 1816TIP3    H2 5326   6.431   5.387   0.204
 1817TIP3   OH2 5327   6.954   5.732   0.448
 1817TIP3    H1 5328   7.045   5.731   0.415
 1817TIP3    H2 5329   6.953   5.660   0.513
 1818TIP3   OH2 5330   6.529   5.147   0.425
 1818TIP3    H1 5331   6.522   5.061   0.378
 1818TIP3    H2 5332   6.485   5.208   0.362
 1819TIP3   OH2 5333   6.516   4.913   0.271
 1819TIP3    H1 5334   6.544   4.957   0.189
 1819TIP3    H2 5335   6.424   4.892   0.248
 1820TIP3   OH2 5336   7.170   5.432   0.490
 1820TIP3    H1 5337   7.195   5.340   0.477
 1820TIP3    H2 5338   7.212   5.475   0.414
 1821TIP3   OH2 5339   6.406   5.252   0.650
 1821TIP3    H1 5340   6.336   5.184   0.657
 1821TIP3    H2 5341   6.444   5.232   0.562
 1822TIP3   OH2 5342   6.653   4.679   0.297
 1822TIP3    H1 5343   6.609   4.768   0.298
 1822TIP3    H2 5344   6.574   4.620   0.289
 1823TIP3   OH2 5345   6.796   5.169   0.500
 1823TIP3    H1 5346   6.783   5.173   0.596
 1823TIP3    H2 5347   6.703   5.161   0.470
 1824TIP3   OH2 5348   7.026   5.127   0.349
 1824TIP3    H1 5349   6.952   5.131   0.412
 1824TIP3    H2 5350   7.102   5.103   0.404
 1825TIP3   OH2 5351   7.276   5.088   0.514
 1825TIP3    H1 5352   7.271   4.991   0.526
 1825TIP3    H2 5353   7.259   5.121   0.605
 1826TIP3   OH2 5354   6.244   5.029   0.695
 1826TIP3    H1 5355   6.257   4.940   0.658
 1826TIP3    H2 5356   6.281   5.017   0.785
 1827TIP3   OH2 5357   6.761   4.695   0.548
 1827TIP3    H1 5358   6.829   4.625   0.544
 1827TIP3    H2 5359   6.717   4.682   0.462
 1828TIP3   OH2 5360   6.823   4.911   0.706
 1828TIP3    H1 5361   6.801   4.842   0.640
 1828TIP3    H2 5362   6.747   4.973   0.697
 1829TIP3   OH2 5363   5.976   5.076   0.656
 1829TIP3    H1 5364   6.074   5.075   0.662
 1829TIP3    H2 5365   5.955   4.994   0.705
 1830TIP3   OH2 5366   5.938   4.804   0.056
 1830TIP3    H1 5367   6.006   4.739   0.083
 1830TIP3    H2 5368   5.992   4.880   0.025
 1831TIP3   OH2 5369   5.756   5.050   0.061
 1831TIP3    H1 5370   5.829   4.989   0.046
 1831TIP3    H2 5371   5.805   5.133   0.072
 1832TIP3   OH2 5372   5.948   4.620   0.383
 1832TIP3    H1 5373   5.904   4.626   0.470
 1832TIP3    H2 5374   5.882   4.665   0.327
 1833TIP3   OH2 5375   5.981   6.042   0.460
 1833TIP3    H1 5376   5.888   6.017   0.454
 1833TIP3    H2 5377   6.000   6.035   0.554
 1834TIP3   OH2 5378   6.246   4.745   0.628
 1834TIP3    H1 5379   6.213   4.679   0.691
 1834TIP3    H2 5380   6.340   4.750   0.656
 1835TIP3   OH2 5381   6.493   4.747   0.749
 1835TIP3    H1 5382   6.582   4.728   0.715
 1835TIP3    H2 5383   6.482   4.677   0.816
 1836TIP3   OH2 5384   7.304   4.806   0.549
 1836TIP3    H1 5385   7.335   4.777   0.638
 1836TIP3    H2 5386   7.387   4.810   0.499
 1837TIP3   OH2 5387  -0.229   5.872   2.232
 1837TIP3    H1 5388  -0.258   5.779   2.234
 1837TIP3    H2 5389  -0.283   5.915   2.300
 1838TIP3   OH2 5390   0.271   5.731   2.114
 1838TIP3    H1 5391   0.327   5.664   2.070
 1838TIP3    H2 5392   0.243   5.787   2.038
 1839TIP3   OH2 5393   0.131   5.876   1.932
 1839TIP3    H1 5394   0.063   5.916   1.991
 1839TIP3    H2 5395   0.086   5.799   1.893
 1840TIP3   OH2 5396   0.043   5.632   1.826
 1840TIP3    H1 5397  -0.007   5.637   1.741
 1840TIP3    H2 5398   0.081   5.543   1.816
 1841TIP3   OH2 5399  -0.239   5.593   2.232
 1841TIP3    H1 5400  -0.218   5.565   2.323
 1841TIP3    H2 5401  -0.150   5.596   2.191
 1842TIP3   OH2 5402   1.795   6.065   0.917
 1842TIP3    H1 5403   1.822   6.148   0.961
 1842TIP3    H2 5404   1.809   6.089   0.823
 1843TIP3   OH2 5405   1.132   6.239   0.963
 1843TIP3    H1 5406   1.179   6.157   0.989
 1843TIP3    H2 5407   1.186   6.266   0.886
 1844TIP3   OH2 5408   1.863   6.275   1.084
 1844TIP3    H1 5409   1.780   6.323   1.065
 1844TIP3    H2 5410   1.877   6.300   1.177
 1845TIP3   OH2 5411   0.535   5.887   1.364
 1845TIP3    H1 5412   0.460   5.859   1.309
 1845TIP3    H2 5413   0.490   5.907   1.449
 1846TIP3   OH2 5414   1.425   6.007   0.710
 1846TIP3    H1 5415   1.419   5.949   0.787
 1846TIP3    H2 5416   1.487   6.076   0.739
 1847TIP3   OH2 5417   1.582   5.970   1.081
 1847TIP3    H1 5418   1.494   5.997   1.050
 1847TIP3    H2 5419   1.641   5.999   1.008
 1848TIP3   OH2 5420   0.899   5.624   1.095
 1848TIP3    H1 5421   0.865   5.563   1.025
 1848TIP3    H2 5422   0.813   5.658   1.127
 1849TIP3   OH2 5423   1.514   6.988   1.067
 1849TIP3    H1 5424   1.512   6.919   0.998
 1849TIP3    H2 5425   1.475   7.065   1.019
 1850TIP3   OH2 5426   1.713   6.616   0.904
 1850TIP3    H1 5427   1.637   6.676   0.913
 1850TIP3    H2 5428   1.741   6.639   0.813
 1851TIP3   OH2 5429   1.402   6.498   1.201
 1851TIP3    H1 5430   1.395   6.578   1.257
 1851TIP3    H2 5431   1.311   6.493   1.165
 1852TIP3   OH2 5432   1.767   7.322   1.120
 1852TIP3    H1 5433   1.757   7.225   1.129
 1852TIP3    H2 5434   1.678   7.352   1.148
 1853TIP3   OH2 5435   1.645   6.457   1.380
 1853TIP3    H1 5436   1.564   6.468   1.328
 1853TIP3    H2 5437   1.660   6.361   1.372
 1854TIP3   OH2 5438   0.635   5.684   1.190
 1854TIP3    H1 5439   0.550   5.663   1.149
 1854TIP3    H2 5440   0.619   5.775   1.222
 1855TIP3   OH2 5441   1.175   5.809   1.387
 1855TIP3    H1 5442   1.241   5.778   1.451
 1855TIP3    H2 5443   1.090   5.782   1.429
 1856TIP3   OH2 5444   1.415   6.232   1.305
 1856TIP3    H1 5445   1.366   6.228   1.390
 1856TIP3    H2 5446   1.388   6.319   1.269
 1857TIP3   OH2 5447   1.122   6.455   1.542
 1857TIP3    H1 5448   1.101   6.380   1.603
 1857TIP3    H2 5449   1.216   6.469   1.564
 1858TIP3   OH2 5450   1.144   6.457   1.125
 1858TIP3    H1 5451   1.135   6.384   1.062
 1858TIP3    H2 5452   1.093   6.419   1.200
 1859TIP3   OH2 5453   1.271   5.991   0.991
 1859TIP3    H1 5454   1.239   5.997   1.083
 1859TIP3    H2 5455   1.207   5.925   0.956
 1860TIP3   OH2 5456   0.879   6.054   1.183
 1860TIP3    H1 5457   0.822   6.133   1.200
 1860TIP3    H2 5458   0.968   6.092   1.183
 1861TIP3   OH2 5459   1.485   6.777   0.887
 1861TIP3    H1 5460   1.502   6.804   0.795
 1861TIP3    H2 5461   1.421   6.705   0.875
 1862TIP3   OH2 5462   0.882   6.585   1.571
 1862TIP3    H1 5463   0.832   6.513   1.530
 1862TIP3    H2 5464   0.975   6.557   1.553
 1863TIP3   OH2 5465   1.768   7.028   1.147
 1863TIP3    H1 5466   1.669   7.028   1.140
 1863TIP3    H2 5467   1.791   7.001   1.056
 1864TIP3   OH2 5468   0.409   5.944   1.596
 1864TIP3    H1 5469   0.313   5.937   1.610
 1864TIP3    H2 5470   0.442   5.884   1.666
 1865TIP3   OH2 5471   1.192   6.048   1.251
 1865TIP3    H1 5472   1.277   6.078   1.286
 1865TIP3    H2 5473   1.179   5.964   1.299
 1866TIP3   OH2 5474   1.044   6.299   1.324
 1866TIP3    H1 5475   1.072   6.347   1.404
 1866TIP3    H2 5476   1.095   6.217   1.330
 1867TIP3   OH2 5477   1.681   6.189   1.300
 1867TIP3    H1 5478   1.583   6.188   1.309
 1867TIP3    H2 5479   1.690   6.146   1.214
 1868TIP3   OH2 5480   1.312   6.313   0.764
 1868TIP3    H1 5481   1.335   6.349   0.675
 1868TIP3    H2 5482   1.403   6.287   0.791
 1869TIP3   OH2 5483   1.218   7.245   1.397
 1869TIP3    H1 5484   1.187   7.179   1.463
 1869TIP3    H2 5485   1.285   7.295   1.447
 1870TIP3   OH2 5486   0.813   6.858   1.597
 1870TIP3    H1 5487   0.759   6.855   1.517
 1870TIP3    H2 5488   0.856   6.769   1.595
 1871TIP3   OH2 5489   1.304   6.875   1.203
 1871TIP3    H1 5490   1.383   6.924   1.171
 1871TIP3    H2 5491   1.255   6.943   1.252
 1872TIP3   OH2 5492   0.457   6.545   1.837
 1872TIP3    H1 5493   0.374   6.618   1.806
 1872TIP3    H2 5494   0.413   6.521   1.926
 1873TIP3   OH2 5495   1.171   6.788   1.601
 1873TIP3    H1 5496   1.257   6.775   1.561
 1873TIP3    H2 5497   1.171   6.723   1.673
 1874TIP3   OH2 5498   0.777   6.183   1.576
 1874TIP3    H1 5499   0.786   6.088   1.552
 1874TIP3    H2 5500   0.754   6.218   1.490
 1875TIP3   OH2 5501   0.790   5.956   1.420
 1875TIP3    H1 5502   0.825   5.985   1.332
 1875TIP3    H2 5503   0.696   5.936   1.396
 1876TIP3   OH2 5504   1.391   6.471   1.650
 1876TIP3    H1 5505   1.438   6.387   1.660
 1876TIP3    H2 5506   1.462   6.528   1.616
 1877TIP3   OH2 5507   1.435   6.718   1.384
 1877TIP3    H1 5508   1.377   6.771   1.325
 1877TIP3    H2 5509   1.523   6.739   1.344
 1878TIP3   OH2 5510   0.673   6.288   1.816
 1878TIP3    H1 5511   0.586   6.245   1.831
 1878TIP3    H2 5512   0.695   6.257   1.726
 1879TIP3   OH2 5513   0.921   5.723   1.465
 1879TIP3    H1 5514   0.871   5.806   1.448
 1879TIP3    H2 5515   0.851   5.656   1.447
 1880TIP3   OH2 5516   1.040   6.236   1.680
 1880TIP3    H1 5517   1.029   6.225   1.776
 1880TIP3    H2 5518   0.949   6.212   1.651
 1881TIP3   OH2 5519   1.281   6.187   1.534
 1881TIP3    H1 5520   1.204   6.185   1.594
 1881TIP3    H2 5521   1.353   6.154   1.591
 1882TIP3   OH2 5522   1.510   6.126   1.685
 1882TIP3    H1 5523   1.521   6.030   1.703
 1882TIP3    H2 5524   1.504   6.164   1.774
 1883TIP3   OH2 5525   0.498   6.076   1.880
 1883TIP3    H1 5526   0.512   5.990   1.837
 1883TIP3    H2 5527   0.539   6.061   1.968
 1884TIP3   OH2 5528   1.008   5.740   1.722
 1884TIP3    H1 5529   1.076   5.670   1.716
 1884TIP3    H2 5530   0.969   5.734   1.633
 1885TIP3   OH2 5531   1.074   5.956   1.878
 1885TIP3    H1 5532   1.051   5.884   1.815
 1885TIP3    H2 5533   0.996   6.014   1.873
 1886TIP3   OH2 5534   1.627   7.126   1.447
 1886TIP3    H1 5535   1.556   7.133   1.514
 1886TIP3    H2 5536   1.669   7.214   1.453
 1887TIP3   OH2 5537   1.674   6.789   1.274
 1887TIP3    H1 5538   1.747   6.722   1.267
 1887TIP3    H2 5539   1.706   6.861   1.218
 1888TIP3   OH2 5540   1.860   6.595   1.294
 1888TIP3    H1 5541   1.785   6.544   1.332
 1888TIP3    H2 5542   1.933   6.531   1.308
 1889TIP3   OH2 5543   1.567   6.240   0.816
 1889TIP3    H1 5544   1.649   6.272   0.772
 1889TIP3    H2 5545   1.581   6.282   0.904
 1890TIP3   OH2 5546   1.614   6.396   1.039
 1890TIP3    H1 5547   1.538   6.430   1.091
 1890TIP3    H2 5548   1.646   6.477   0.994
 1891TIP3   OH2 5549   0.240   6.093   1.797
 1891TIP3    H1 5550   0.333   6.109   1.824
 1891TIP3    H2 5551   0.205   6.049   1.877
 1892TIP3   OH2 5552   2.065   5.989   1.599
 1892TIP3    H1 5553   2.122   5.923   1.555
 1892TIP3    H2 5554   2.036   6.045   1.523
 1893TIP3   OH2 5555   1.501   5.814   0.346
 1893TIP3    H1 5556   1.544   5.816   0.433
 1893TIP3    H2 5557   1.434   5.747   0.360
 1894TIP3   OH2 5558   1.936   6.129   1.405
 1894TIP3    H1 5559   1.849   6.169   1.426
 1894TIP3    H2 5560   1.907   6.057   1.346
 1895TIP3   OH2 5561   0.219   5.721   1.570
 1895TIP3    H1 5562   0.187   5.661   1.639
 1895TIP3    H2 5563   0.148   5.712   1.505
 1896TIP3   OH2 5564   1.834   5.892   1.282
 1896TIP3    H1 5565   1.743   5.885   1.249
 1896TIP3    H2 5566   1.865   5.799   1.269
 1897TIP3   OH2 5567   1.074   5.813   0.923
 1897TIP3    H1 5568   0.998   5.772   0.966
 1897TIP3    H2 5569   1.094   5.749   0.853
 1898TIP3   OH2 5570   1.569   5.698   0.812
 1898TIP3    H1 5571   1.601   5.748   0.735
 1898TIP3    H2 5572   1.472   5.704   0.801
 1899TIP3   OH2 5573   1.659   5.796   0.571
 1899TIP3    H1 5574   1.731   5.742   0.532
 1899TIP3    H2 5575   1.692   5.887   0.557
 1900TIP3   OH2 5576   1.298   5.684   0.769
 1900TIP3    H1 5577   1.293   5.633   0.687
 1900TIP3    H2 5578   1.269   5.616   0.834
 1901TIP3   OH2 5579   0.496   5.785   1.807
 1901TIP3    H1 5580   0.463   5.720   1.871
 1901TIP3    H2 5581   0.590   5.792   1.836
 1902TIP3   OH2 5582   0.743   5.793   1.926
 1902TIP3    H1 5583   0.828   5.769   1.886
 1902TIP3    H2 5584   0.732   5.723   1.993
 1903TIP3   OH2 5585   1.569   5.855   1.715
 1903TIP3    H1 5586   1.588   5.824   1.807
 1903TIP3    H2 5587   1.657   5.850   1.673
 1904TIP3   OH2 5588   1.513   7.408   1.203
 1904TIP3    H1 5589   1.440   7.353   1.172
 1904TIP3    H2 5590   1.472   7.496   1.209
 1905TIP3   OH2 5591   2.761   6.779   0.015
 1905TIP3    H1 5592   2.738   6.872  -0.001
 1905TIP3    H2 5593   2.694   6.734  -0.039
 1906TIP3   OH2 5594   2.775   6.784   0.357
 1906TIP3    H1 5595   2.802   6.744   0.441
 1906TIP3    H2 5596   2.734   6.709   0.310
 1907TIP3   OH2 5597   2.090   6.666   0.718
 1907TIP3    H1 5598   2.117   6.600   0.785
 1907TIP3    H2 5599   2.164   6.729   0.722
 1908TIP3   OH2 5600   3.042   7.056   0.037
 1908TIP3    H1 5601   3.005   7.001   0.107
 1908TIP3    H2 5602   3.046   7.143   0.080
 1909TIP3   OH2 5603   2.047   7.062   0.483
 1909TIP3    H1 5604   2.075   6.968   0.495
 1909TIP3    H2 5605   2.131   7.099   0.450
 1910TIP3   OH2 5606   1.841   6.601   0.413
 1910TIP3    H1 5607   1.876   6.518   0.450
 1910TIP3    H2 5608   1.867   6.595   0.320
 1911TIP3   OH2 5609   2.693   7.541   0.044
 1911TIP3    H1 5610   2.726   7.452   0.030
 1911TIP3    H2 5611   2.660   7.533   0.135
 1912TIP3   OH2 5612   2.577   7.005   0.405
 1912TIP3    H1 5613   2.612   6.929   0.355
 1912TIP3    H2 5614   2.662   7.047   0.428
 1913TIP3   OH2 5615   3.580   6.323   0.405
 1913TIP3    H1 5616   3.601   6.407   0.448
 1913TIP3    H2 5617   3.596   6.341   0.312
 1914TIP3   OH2 5618   2.982   6.503   0.440
 1914TIP3    H1 5619   3.023   6.416   0.458
 1914TIP3    H2 5620   2.949   6.489   0.349
 1915TIP3   OH2 5621   2.323   6.166   0.403
 1915TIP3    H1 5622   2.303   6.239   0.340
 1915TIP3    H2 5623   2.277   6.092   0.358
 1916TIP3   OH2 5624   3.012   6.255   0.031
 1916TIP3    H1 5625   3.089   6.237   0.089
 1916TIP3    H2 5626   3.059   6.290  -0.048
 1917TIP3   OH2 5627   1.957   6.366   0.501
 1917TIP3    H1 5628   2.038   6.348   0.554
 1917TIP3    H2 5629   1.976   6.310   0.423
 1918TIP3   OH2 5630   2.404   6.563   0.303
 1918TIP3    H1 5631   2.498   6.536   0.316
 1918TIP3    H2 5632   2.365   6.481   0.267
 1919TIP3   OH2 5633   3.660   6.546   0.552
 1919TIP3    H1 5634   3.571   6.587   0.545
 1919TIP3    H2 5635   3.669   6.548   0.649
 1920TIP3   OH2 5636   2.319   6.149   0.835
 1920TIP3    H1 5637   2.259   6.187   0.768
 1920TIP3    H2 5638   2.267   6.167   0.916
 1921TIP3   OH2 5639   2.672   7.015  -0.095
 1921TIP3    H1 5640   2.692   6.968  -0.179
 1921TIP3    H2 5641   2.607   7.082  -0.121
 1922TIP3   OH2 5642   2.427   6.925   0.632
 1922TIP3    H1 5643   2.362   6.989   0.668
 1922TIP3    H2 5644   2.464   6.975   0.557
 1923TIP3   OH2 5645   3.232   6.259   0.196
 1923TIP3    H1 5646   3.216   6.206   0.275
 1923TIP3    H2 5647   3.279   6.336   0.230
 1924TIP3   OH2 5648   2.189   6.265   0.620
 1924TIP3    H1 5649   2.250   6.338   0.644
 1924TIP3    H2 5650   2.239   6.224   0.546
 1925TIP3   OH2 5651   2.255   7.115   0.733
 1925TIP3    H1 5652   2.226   7.194   0.685
 1925TIP3    H2 5653   2.176   7.101   0.789
 1926TIP3   OH2 5654   3.091   7.326   0.204
 1926TIP3    H1 5655   3.003   7.309   0.245
 1926TIP3    H2 5656   3.076   7.416   0.169
 1927TIP3   OH2 5657   3.376   6.229   0.573
 1927TIP3    H1 5658   3.286   6.250   0.541
 1927TIP3    H2 5659   3.432   6.253   0.496
 1928TIP3   OH2 5660   2.676   5.868   0.549
 1928TIP3    H1 5661   2.662   5.773   0.566
 1928TIP3    H2 5662   2.598   5.906   0.596
 1929TIP3   OH2 5663   3.313   7.237   0.548
 1929TIP3    H1 5664   3.301   7.159   0.490
 1929TIP3    H2 5665   3.296   7.311   0.487
 1930TIP3   OH2 5666   2.611   6.630  -0.184
 1930TIP3    H1 5667   2.518   6.658  -0.190
 1930TIP3    H2 5668   2.634   6.621  -0.277
 1931TIP3   OH2 5669   3.505   6.868   0.384
 1931TIP3    H1 5670   3.424   6.922   0.394
 1931TIP3    H2 5671   3.537   6.901   0.297
 1932TIP3   OH2 5672   2.920   6.651  -0.164
 1932TIP3    H1 5673   2.890   6.697  -0.083
 1932TIP3    H2 5674   3.017   6.661  -0.160
 1933TIP3   OH2 5675   3.189   6.752   0.687
 1933TIP3    H1 5676   3.185   6.836   0.736
 1933TIP3    H2 5677   3.102   6.755   0.642
 1934TIP3   OH2 5678   2.191   6.701   0.209
 1934TIP3    H1 5679   2.174   6.656   0.125
 1934TIP3    H2 5680   2.275   6.658   0.235
 1935TIP3   OH2 5681   2.311   7.086   0.379
 1935TIP3    H1 5682   2.299   7.095   0.283
 1935TIP3    H2 5683   2.407   7.066   0.384
 1936TIP3   OH2 5684   2.339   6.676   0.550
 1936TIP3    H1 5685   2.365   6.659   0.458
 1936TIP3    H2 5686   2.371   6.768   0.566
 1937TIP3   OH2 5687   2.849   7.319   0.321
 1937TIP3    H1 5688   2.836   7.398   0.377
 1937TIP3    H2 5689   2.835   7.245   0.384
 1938TIP3   OH2 5690   2.459   7.240   0.871
 1938TIP3    H1 5691   2.399   7.302   0.918
 1938TIP3    H2 5692   2.393   7.186   0.822
 1939TIP3   OH2 5693   2.213   6.795   0.971
 1939TIP3    H1 5694   2.218   6.883   1.015
 1939TIP3    H2 5695   2.118   6.776   0.983
 1940TIP3   OH2 5696   2.254   7.409   0.960
 1940TIP3    H1 5697   2.218   7.404   0.869
 1940TIP3    H2 5698   2.175   7.386   1.014
 1941TIP3   OH2 5699   1.834   6.929   0.900
 1941TIP3    H1 5700   1.810   6.895   0.812
 1941TIP3    H2 5701   1.876   6.849   0.939
 1942TIP3   OH2 5702   3.549   7.581   0.594
 1942TIP3    H1 5703   3.549   7.485   0.607
 1942TIP3    H2 5704   3.466   7.605   0.640
 1943TIP3   OH2 5705   2.658   7.369   0.731
 1943TIP3    H1 5706   2.657   7.461   0.766
 1943TIP3    H2 5707   2.587   7.328   0.785
 1944TIP3   OH2 5708   3.442   6.714   0.867
 1944TIP3    H1 5709   3.358   6.727   0.820
 1944TIP3    H2 5710   3.456   6.618   0.856
 1945TIP3   OH2 5711   2.038   7.119   0.896
 1945TIP3    H1 5712   2.087   7.102   0.979
 1945TIP3    H2 5713   1.962   7.057   0.904
 1946TIP3   OH2 5714   2.436   5.945   0.677
 1946TIP3    H1 5715   2.347   5.913   0.652
 1946TIP3    H2 5716   2.411   6.027   0.724
 1947TIP3   OH2 5717   2.968   6.060   0.872
 1947TIP3    H1 5718   3.034   6.033   0.939
 1947TIP3    H2 5719   2.883   6.040   0.916
 1948TIP3   OH2 5720   3.214   6.492   0.794
 1948TIP3    H1 5721   3.162   6.485   0.878
 1948TIP3    H2 5722   3.183   6.576   0.757
 1949TIP3   OH2 5723   2.608   5.987  -0.359
 1949TIP3    H1 5724   2.575   6.008  -0.270
 1949TIP3    H2 5725   2.561   5.906  -0.378
 1950TIP3   OH2 5726   2.369   6.455   0.699
 1950TIP3    H1 5727   2.319   6.478   0.780
 1950TIP3    H2 5728   2.357   6.537   0.645
 1951TIP3   OH2 5729   2.249   6.344   0.212
 1951TIP3    H1 5730   2.155   6.320   0.222
 1951TIP3    H2 5731   2.267   6.308   0.123
 1952TIP3   OH2 5732   2.743   6.427  -0.060
 1952TIP3    H1 5733   2.690   6.502  -0.096
 1952TIP3    H2 5734   2.815   6.425  -0.125
 1953TIP3   OH2 5735   2.917   6.710   1.024
 1953TIP3    H1 5736   2.894   6.638   1.086
 1953TIP3    H2 5737   3.011   6.724   1.047
 1954TIP3   OH2 5738   2.902   6.461   0.178
 1954TIP3    H1 5739   2.841   6.490   0.108
 1954TIP3    H2 5740   2.934   6.379   0.135
 1955TIP3   OH2 5741   2.190   6.487   0.909
 1955TIP3    H1 5742   2.214   6.550   0.979
 1955TIP3    H2 5743   2.176   6.405   0.960
 1956TIP3   OH2 5744   2.254   5.991  -0.369
 1956TIP3    H1 5745   2.260   5.965  -0.275
 1956TIP3    H2 5746   2.164   5.960  -0.388
 1957TIP3   OH2 5747   1.775   6.028   0.477
 1957TIP3    H1 5748   1.855   6.045   0.533
 1957TIP3    H2 5749   1.810   5.978   0.402
 1958TIP3   OH2 5750   2.916   6.707   0.603
 1958TIP3    H1 5751   2.945   6.634   0.543
 1958TIP3    H2 5752   2.883   6.655   0.679
 1959TIP3   OH2 5753   2.580   6.169   0.274
 1959TIP3    H1 5754   2.499   6.166   0.328
 1959TIP3    H2 5755   2.649   6.167   0.342
 1960TIP3   OH2 5756   2.008   6.209   0.275
 1960TIP3    H1 5757   1.919   6.174   0.263
 1960TIP3    H2 5758   2.062   6.128   0.261
 1961TIP3   OH2 5759   2.286   6.213  -0.027
 1961TIP3    H1 5760   2.383   6.224  -0.032
 1961TIP3    H2 5761   2.256   6.262  -0.106
 1962TIP3   OH2 5762   3.075   6.242   0.474
 1962TIP3    H1 5763   3.038   6.254   0.565
 1962TIP3    H2 5764   3.009   6.182   0.436
 1963TIP3   OH2 5765   3.240   7.934   0.693
 1963TIP3    H1 5766   3.234   7.955   0.598
 1963TIP3    H2 5767   3.322   7.980   0.718
 1964TIP3   OH2 5768   2.199   7.041   1.115
 1964TIP3    H1 5769   2.278   7.073   1.162
 1964TIP3    H2 5770   2.133   7.042   1.188
 1965TIP3   OH2 5771   2.666   6.495   0.370
 1965TIP3    H1 5772   2.736   6.453   0.317
 1965TIP3    H2 5773   2.676   6.451   0.457
 1966TIP3   OH2 5774   2.180   5.989   0.247
 1966TIP3    H1 5775   2.151   5.906   0.292
 1966TIP3    H2 5776   2.223   5.954   0.168
 1967TIP3   OH2 5777   2.639   6.391   0.660
 1967TIP3    H1 5778   2.549   6.427   0.673
 1967TIP3    H2 5779   2.696   6.454   0.710
 1968TIP3   OH2 5780   3.274   7.015   0.388
 1968TIP3    H1 5781   3.299   7.062   0.305
 1968TIP3    H2 5782   3.186   6.977   0.364
 1969TIP3   OH2 5783   2.782   7.105   0.750
 1969TIP3    H1 5784   2.796   7.077   0.841
 1969TIP3    H2 5785   2.735   7.190   0.760
 1970TIP3   OH2 5786   2.094   6.795   0.449
 1970TIP3    H1 5787   2.125   6.765   0.361
 1970TIP3    H2 5788   2.126   6.724   0.507
 1971TIP3   OH2 5789   1.949   6.726   1.044
 1971TIP3    H1 5790   1.969   6.711   1.138
 1971TIP3    H2 5791   1.882   6.658   1.026
 1972TIP3   OH2 5792   2.673   6.841   1.063
 1972TIP3    H1 5793   2.614   6.783   1.013
 1972TIP3    H2 5794   2.761   6.807   1.035
 1973TIP3   OH2 5795   2.936   7.368   0.643
 1973TIP3    H1 5796   2.841   7.359   0.658
 1973TIP3    H2 5797   2.963   7.416   0.724
 1974TIP3   OH2 5798   3.563   7.290   0.637
 1974TIP3    H1 5799   3.465   7.285   0.629
 1974TIP3    H2 5800   3.589   7.261   0.547
 1975TIP3   OH2 5801   3.036   6.888   0.309
 1975TIP3    H1 5802   2.942   6.861   0.320
 1975TIP3    H2 5803   3.072   6.806   0.271
 1976TIP3   OH2 5804   2.321   6.874   0.030
 1976TIP3    H1 5805   2.292   6.966   0.022
 1976TIP3    H2 5806   2.273   6.841   0.108
 1977TIP3   OH2 5807   2.453   7.454   0.557
 1977TIP3    H1 5808   2.496   7.520   0.499
 1977TIP3    H2 5809   2.531   7.418   0.604
 1978TIP3   OH2 5810   2.832   7.091   0.481
 1978TIP3    H1 5811   2.821   7.088   0.579
 1978TIP3    H2 5812   2.906   7.030   0.468
 1979TIP3   OH2 5813   3.077   7.621   0.536
 1979TIP3    H1 5814   3.000   7.561   0.530
 1979TIP3    H2 5815   3.057   7.686   0.465
 1980TIP3   OH2 5816   2.160   6.232   1.051
 1980TIP3    H1 5817   2.063   6.236   1.064
 1980TIP3    H2 5818   2.187   6.171   1.122
 1981TIP3   OH2 5819   1.857   7.306   0.693
 1981TIP3    H1 5820   1.917   7.230   0.701
 1981TIP3    H2 5821   1.895   7.364   0.760
 1982TIP3   OH2 5822   2.998   6.296   0.732
 1982TIP3    H1 5823   3.076   6.333   0.775
 1982TIP3    H2 5824   2.981   6.215   0.785
 1983TIP3   OH2 5825   2.847   6.073  -0.106
 1983TIP3    H1 5826   2.852   6.093  -0.201
 1983TIP3    H2 5827   2.910   6.137  -0.069
 1984TIP3   OH2 5828   2.559   6.227   0.001
 1984TIP3    H1 5829   2.629   6.291  -0.024
 1984TIP3    H2 5830   2.573   6.220   0.098
 1985TIP3   OH2 5831   2.835   6.545   0.808
 1985TIP3    H1 5832   2.855   6.600   0.886
 1985TIP3    H2 5833   2.890   6.467   0.822
 1986TIP3   OH2 5834   2.714   5.955   0.101
 1986TIP3    H1 5835   2.705   6.033   0.158
 1986TIP3    H2 5836   2.767   5.994   0.027
 1987TIP3   OH2 5837   2.232   5.948  -0.085
 1987TIP3    H1 5838   2.231   6.042  -0.060
 1987TIP3    H2 5839   2.329   5.931  -0.082
 1988TIP3   OH2 5840   3.477   6.445   0.772
 1988TIP3    H1 5841   3.381   6.451   0.791
 1988TIP3    H2 5842   3.473   6.384   0.697
 1989TIP3   OH2 5843   3.119   6.642   0.209
 1989TIP3    H1 5844   3.043   6.581   0.206
 1989TIP3    H2 5845   3.190   6.586   0.247
 1990TIP3   OH2 5846   3.105   7.605   0.153
 1990TIP3    H1 5847   3.063   7.586   0.066
 1990TIP3    H2 5848   3.195   7.632   0.124
 1991TIP3   OH2 5849   2.173   5.863   0.653
 1991TIP3    H1 5850   2.141   5.830   0.567
 1991TIP3    H2 5851   2.162   5.785   0.711
 1992TIP3   OH2 5852   1.864   7.606   1.112
 1992TIP3    H1 5853   1.950   7.599   1.158
 1992TIP3    H2 5854   1.838   7.512   1.106
 1993TIP3   OH2 5855   2.352   7.592   1.147
 1993TIP3    H1 5856   2.445   7.565   1.155
 1993TIP3    H2 5857   2.323   7.532   1.075
 1994TIP3   OH2 5858   2.989   7.496   0.882
 1994TIP3    H1 5859   2.978   7.424   0.949
 1994TIP3    H2 5860   3.067   7.544   0.915
 1995TIP3   OH2 5861   1.997   7.031   1.305
 1995TIP3    H1 5862   2.015   6.935   1.309
 1995TIP3    H2 5863   1.910   7.033   1.261
 1996TIP3   OH2 5864   2.607   7.116   1.077
 1996TIP3    H1 5865   2.562   7.130   0.992
 1996TIP3    H2 5866   2.637   7.023   1.071
 1997TIP3   OH2 5867   3.099   7.122   0.686
 1997TIP3    H1 5868   3.171   7.171   0.641
 1997TIP3    H2 5869   3.025   7.183   0.672
 1998TIP3   OH2 5870   2.116   6.764   1.287
 1998TIP3    H1 5871   2.191   6.707   1.267
 1998TIP3    H2 5872   2.141   6.797   1.376
 1999TIP3   OH2 5873   2.453   6.651   0.949
 1999TIP3    H1 5874   2.374   6.710   0.951
 1999TIP3    H2 5875   2.501   6.684   0.870
 2000TIP3   OH2 5876   2.968   7.052   1.082
 2000TIP3    H1 5877   3.050   7.028   1.036
 2000TIP3    H2 5878   2.965   6.985   1.154
 2001TIP3   OH2 5879   2.575   6.438   1.075
 2001TIP3    H1 5880   2.575   6.358   1.019
 2001TIP3    H2 5881   2.532   6.504   1.017
 2002TIP3   OH2 5882   2.578   6.223   0.882
 2002TIP3    H1 5883   2.605   6.265   0.797
 2002TIP3    H2 5884   2.484   6.201   0.863
 2003TIP3   OH2 5885   2.607   6.762   0.757
 2003TIP3    H1 5886   2.687   6.767   0.704
 2003TIP3    H2 5887   2.548   6.827   0.712
 2004TIP3   OH2 5888   3.186   6.727   1.136
 2004TIP3    H1 5889   3.235   6.645   1.150
 2004TIP3    H2 5890   3.256   6.786   1.103
 2005TIP3   OH2 5891   3.229   6.978   0.872
 2005TIP3    H1 5892   3.171   7.032   0.814
 2005TIP3    H2 5893   3.317   6.998   0.832
 2006TIP3   OH2 5894   2.454   6.549   1.305
 2006TIP3    H1 5895   2.384   6.482   1.319
 2006TIP3    H2 5896   2.488   6.524   1.217
 2007TIP3   OH2 5897   2.710   5.988   0.948
 2007TIP3    H1 5898   2.661   6.071   0.925
 2007TIP3    H2 5899   2.640   5.921   0.936
 2008TIP3   OH2 5900   2.836   6.493   1.165
 2008TIP3    H1 5901   2.824   6.481   1.261
 2008TIP3    H2 5902   2.746   6.468   1.134
 2009TIP3   OH2 5903   3.074   6.439   1.019
 2009TIP3    H1 5904   2.998   6.442   1.080
 2009TIP3    H2 5905   3.147   6.409   1.077
 2010TIP3   OH2 5906   3.303   6.380   1.171
 2010TIP3    H1 5907   3.315   6.285   1.193
 2010TIP3    H2 5908   3.298   6.422   1.259
 2011TIP3   OH2 5909   2.292   6.330   1.357
 2011TIP3    H1 5910   2.298   6.239   1.323
 2011TIP3    H2 5911   2.328   6.317   1.448
 2012TIP3   OH2 5912   2.805   5.998   1.206
 2012TIP3    H1 5913   2.870   5.926   1.199
 2012TIP3    H2 5914   2.763   5.993   1.117
 2013TIP3   OH2 5915   2.870   6.212   1.365
 2013TIP3    H1 5916   2.847   6.142   1.300
 2013TIP3    H2 5917   2.792   6.272   1.359
 2014TIP3   OH2 5918   3.353   7.702   0.090
 2014TIP3    H1 5919   3.386   7.715   0.181
 2014TIP3    H2 5920   3.433   7.714   0.037
 2015TIP3   OH2 5921   3.378   7.707   0.368
 2015TIP3    H1 5922   3.335   7.619   0.367
 2015TIP3    H2 5923   3.457   7.685   0.420
 2016TIP3   OH2 5924   3.423   7.386   0.936
 2016TIP3    H1 5925   3.352   7.392   1.002
 2016TIP3    H2 5926   3.466   7.474   0.945
 2017TIP3   OH2 5927   3.426   7.144   0.199
 2017TIP3    H1 5928   3.468   7.086   0.133
 2017TIP3    H2 5929   3.434   7.231   0.156
 2018TIP3   OH2 5930   3.255   7.456   0.391
 2018TIP3    H1 5931   3.184   7.499   0.442
 2018TIP3    H2 5932   3.204   7.409   0.321
 2019TIP3   OH2 5933   3.191   6.612  -0.051
 2019TIP3    H1 5934   3.188   6.515  -0.057
 2019TIP3    H2 5935   3.165   6.630   0.041
 2020TIP3   OH2 5936   1.831   6.733   0.676
 2020TIP3    H1 5937   1.806   6.693   0.591
 2020TIP3    H2 5938   1.927   6.714   0.678
 2021TIP3   OH2 5939   3.471   7.045   0.764
 2021TIP3    H1 5940   3.544   6.979   0.754
 2021TIP3    H2 5941   3.500   7.116   0.705
 2022TIP3   OH2 5942   3.656   6.849   0.776
 2022TIP3    H1 5943   3.583   6.799   0.817
 2022TIP3    H2 5944   3.730   6.786   0.790
 2023TIP3   OH2 5945   3.178   6.339  -0.162
 2023TIP3    H1 5946   3.219   6.249  -0.170
 2023TIP3    H2 5947   3.232   6.388  -0.226
 2024TIP3   OH2 5948   3.349   6.508   0.298
 2024TIP3    H1 5949   3.433   6.540   0.260
 2024TIP3    H2 5950   3.354   6.548   0.387
 2025TIP3   OH2 5951   3.406   6.654   0.526
 2025TIP3    H1 5952   3.329   6.685   0.580
 2025TIP3    H2 5953   3.435   6.738   0.484
 2026TIP3   OH2 5954   2.025   6.382   1.329
 2026TIP3    H1 5955   2.123   6.375   1.330
 2026TIP3    H2 5956   2.001   6.297   1.370
 2027TIP3   OH2 5957   3.852   6.239   1.083
 2027TIP3    H1 5958   3.916   6.177   1.043
 2027TIP3    H2 5959   3.833   6.300   1.009
 2028TIP3   OH2 5960   3.287   6.089  -0.156
 2028TIP3    H1 5961   3.337   6.071  -0.073
 2028TIP3    H2 5962   3.225   6.013  -0.153
 2029TIP3   OH2 5963   1.987   6.069   0.651
 2029TIP3    H1 5964   2.051   5.996   0.666
 2029TIP3    H2 5965   2.046   6.146   0.653
 2030TIP3   OH2 5966   1.804   6.346   0.735
 2030TIP3    H1 5967   1.849   6.345   0.648
 2030TIP3    H2 5968   1.815   6.439   0.760
 2031TIP3   OH2 5969   3.733   6.388   0.887
 2031TIP3    H1 5970   3.649   6.426   0.918
 2031TIP3    H2 5971   3.700   6.313   0.835
 2032TIP3   OH2 5972   1.760   5.887   0.233
 2032TIP3    H1 5973   1.669   5.858   0.255
 2032TIP3    H2 5974   1.760   5.882   0.136
 2033TIP3   OH2 5975   1.996   5.929   1.050
 2033TIP3    H1 5976   1.944   5.923   1.132
 2033TIP3    H2 5977   1.929   5.967   0.989
 2034TIP3   OH2 5978   2.039   7.355   1.128
 2034TIP3    H1 5979   1.946   7.332   1.110
 2034TIP3    H2 5980   2.045   7.337   1.222
 2035TIP3   OH2 5981   2.207   7.389   0.680
 2035TIP3    H1 5982   2.157   7.455   0.628
 2035TIP3    H2 5983   2.297   7.407   0.646
 2036TIP3   OH2 5984   2.656   7.635   0.811
 2036TIP3    H1 5985   2.698   7.633   0.900
 2036TIP3    H2 5986   2.724   7.683   0.760
 2037TIP3   OH2 5987   2.838   7.783   0.670
 2037TIP3    H1 5988   2.909   7.731   0.629
 2037TIP3    H2 5989   2.889   7.841   0.731
 2038TIP3   OH2 5990   3.630   6.148   0.769
 2038TIP3    H1 5991   3.539   6.138   0.737
 2038TIP3    H2 5992   3.663   6.056   0.758
 2039TIP3   OH2 5993   2.562   7.653   0.358
 2039TIP3    H1 5994   2.482   7.657   0.303
 2039TIP3    H2 5995   2.567   7.746   0.388
 2040TIP3   OH2 5996   2.824   7.592   0.403
 2040TIP3    H1 5997   2.729   7.608   0.389
 2040TIP3    H2 5998   2.864   7.672   0.365
 2041TIP3   OH2 5999   3.020   7.792   0.328
 2041TIP3    H1 6000   3.020   7.877   0.280
 2041TIP3    H2 6001   3.051   7.729   0.259
 2042TIP3   OH2 6002   2.317   7.480   0.330
 2042TIP3    H1 6003   2.325   7.403   0.271
 2042TIP3    H2 6004   2.352   7.442   0.413
 2043TIP3   OH2 6005   2.837   6.064   0.391
 2043TIP3    H1 6006   2.793   5.993   0.440
 2043TIP3    H2 6007   2.905   6.016   0.340
 2044TIP3   OH2 6008   3.353   5.952   0.305
 2044TIP3    H1 6009   3.389   5.996   0.225
 2044TIP3    H2 6010   3.257   5.961   0.291
 2045TIP3   OH2 6011   3.447   6.038   0.065
 2045TIP3    H1 6012   3.517   5.985   0.022
 2045TIP3    H2 6013   3.486   6.128   0.057
 2046TIP3   OH2 6014   2.083   5.772   0.405
 2046TIP3    H1 6015   1.992   5.736   0.405
 2046TIP3    H2 6016   2.135   5.689   0.401
 2047TIP3   OH2 6017   1.887   5.618   0.079
 2047TIP3    H1 6018   1.887   5.682   0.004
 2047TIP3    H2 6019   1.829   5.665   0.140
 2048TIP3   OH2 6020   2.526   5.806   0.285
 2048TIP3    H1 6021   2.585   5.853   0.224
 2048TIP3    H2 6022   2.552   5.842   0.370
 2049TIP3   OH2 6023   3.077   5.951   0.266
 2049TIP3    H1 6024   3.071   5.919   0.175
 2049TIP3    H2 6025   3.061   5.869   0.318
 2050TIP3   OH2 6026   3.123   5.876  -0.121
 2050TIP3    H1 6027   3.070   5.884  -0.204
 2050TIP3    H2 6028   3.092   5.789  -0.087
 2051TIP3   OH2 6029   2.077   5.797  -0.278
 2051TIP3    H1 6030   2.054   5.707  -0.253
 2051TIP3    H2 6031   2.101   5.838  -0.192
 2052TIP3   OH2 6032   2.505   5.973  -0.087
 2052TIP3    H1 6033   2.569   5.929  -0.028
 2052TIP3    H2 6034   2.524   6.066  -0.064
 2053TIP3   OH2 6035   2.291   6.054   1.296
 2053TIP3    H1 6036   2.258   5.983   1.353
 2053TIP3    H2 6037   2.386   6.054   1.322
 2054TIP3   OH2 6038   2.540   6.050   1.415
 2054TIP3    H1 6039   2.624   6.023   1.376
 2054TIP3    H2 6040   2.526   5.980   1.482
 2055TIP3   OH2 6041   3.369   6.107   1.206
 2055TIP3    H1 6042   3.394   6.079   1.297
 2055TIP3    H2 6043   3.455   6.110   1.161
 2056TIP3   OH2 6044   3.303   7.664   0.698
 2056TIP3    H1 6045   3.225   7.631   0.648
 2056TIP3    H2 6046   3.284   7.759   0.698
 2057TIP3   OH2 6047   3.875   6.928   0.204
 2057TIP3    H1 6048   3.915   6.909   0.290
 2057TIP3    H2 6049   3.923   7.008   0.177
 2058TIP3   OH2 6050   3.740   6.598  -0.013
 2058TIP3    H1 6051   3.834   6.613   0.009
 2058TIP3    H2 6052   3.748   6.566  -0.104
 2059TIP3   OH2 6053   4.120   6.392   0.319
 2059TIP3    H1 6054   4.069   6.433   0.247
 2059TIP3    H2 6055   4.062   6.402   0.397
 2060TIP3   OH2 6056   3.995   6.516   0.100
 2060TIP3    H1 6057   4.059   6.584   0.132
 2060TIP3    H2 6058   4.029   6.502   0.009
 2061TIP3   OH2 6059   4.051   7.307   0.255
 2061TIP3    H1 6060   4.035   7.372   0.185
 2061TIP3    H2 6061   3.972   7.324   0.310
 2062TIP3   OH2 6062   4.481   6.114   0.055
 2062TIP3    H1 6063   4.456   6.022   0.077
 2062TIP3    H2 6064   4.397   6.161   0.076
 2063TIP3   OH2 6065   4.230   7.455   0.419
 2063TIP3    H1 6066   4.211   7.548   0.404
 2063TIP3    H2 6067   4.180   7.411   0.347
 2064TIP3   OH2 6068   3.998   7.041   0.459
 2064TIP3    H1 6069   4.015   7.132   0.490
 2064TIP3    H2 6070   3.903   7.033   0.483
 2065TIP3   OH2 6071   4.034   7.684   0.440
 2065TIP3    H1 6072   4.003   7.642   0.359
 2065TIP3    H2 6073   3.965   7.657   0.504
 2066TIP3   OH2 6074   3.628   7.192   0.392
 2066TIP3    H1 6075   3.561   7.167   0.325
 2066TIP3    H2 6076   3.664   7.106   0.421
 2067TIP3   OH2 6077   3.527   7.375   0.084
 2067TIP3    H1 6078   3.614   7.361   0.043
 2067TIP3    H2 6079   3.549   7.452   0.141
 2068TIP3   OH2 6080   5.262   6.996   0.359
 2068TIP3    H1 6081   5.173   7.004   0.322
 2068TIP3    H2 6082   5.280   6.902   0.349
 2069TIP3   OH2 6083   3.824   7.387   0.390
 2069TIP3    H1 6084   3.875   7.368   0.472
 2069TIP3    H2 6085   3.752   7.320   0.395
 2070TIP3   OH2 6086   4.229   6.195   0.160
 2070TIP3    H1 6087   4.138   6.167   0.139
 2070TIP3    H2 6088   4.210   6.274   0.213
 2071TIP3   OH2 6089   4.768   6.315   0.357
 2071TIP3    H1 6090   4.838   6.291   0.421
 2071TIP3    H2 6091   4.685   6.293   0.405
 2072TIP3   OH2 6092   5.000   6.711   0.284
 2072TIP3    H1 6093   4.976   6.695   0.378
 2072TIP3    H2 6094   4.921   6.759   0.255
 2073TIP3   OH2 6095   4.157   6.693   0.224
 2073TIP3    H1 6096   4.161   6.755   0.299
 2073TIP3    H2 6097   4.138   6.752   0.148
 2074TIP3   OH2 6098   4.712   6.965   0.506
 2074TIP3    H1 6099   4.692   6.892   0.569
 2074TIP3    H2 6100   4.806   6.981   0.528
 2075TIP3   OH2 6101   3.955   6.744   0.434
 2075TIP3    H1 6102   3.997   6.829   0.455
 2075TIP3    H2 6103   3.998   6.687   0.499
 2076TIP3   OH2 6104   3.607   6.250   0.008
 2076TIP3    H1 6105   3.660   6.302   0.071
 2076TIP3    H2 6106   3.676   6.205  -0.042
 2077TIP3   OH2 6107   3.989   7.295   0.598
 2077TIP3    H1 6108   4.073   7.330   0.635
 2077TIP3    H2 6109   3.933   7.297   0.678
 2078TIP3   OH2 6110   4.449   6.619   0.180
 2078TIP3    H1 6111   4.372   6.677   0.169
 2078TIP3    H2 6112   4.518   6.683   0.207
 2079TIP3   OH2 6113   4.531   7.298   0.277
 2079TIP3    H1 6114   4.560   7.294   0.369
 2079TIP3    H2 6115   4.554   7.390   0.256
 2080TIP3   OH2 6116   3.739   6.982   0.533
 2080TIP3    H1 6117   3.768   6.971   0.626
 2080TIP3    H2 6118   3.672   6.912   0.526
 2081TIP3   OH2 6119   4.472   7.092   0.550
 2081TIP3    H1 6120   4.429   7.058   0.470
 2081TIP3    H2 6121   4.564   7.061   0.534
 2082TIP3   OH2 6122   3.944   6.475   0.534
 2082TIP3    H1 6123   3.865   6.494   0.588
 2082TIP3    H2 6124   3.995   6.421   0.597
 2083TIP3   OH2 6125   3.669   7.568   0.206
 2083TIP3    H1 6126   3.740   7.514   0.245
 2083TIP3    H2 6127   3.704   7.658   0.217
 2084TIP3   OH2 6128   4.771   6.563   0.238
 2084TIP3    H1 6129   4.867   6.576   0.238
 2084TIP3    H2 6130   4.764   6.473   0.274
 2085TIP3   OH2 6131   4.637   6.804   0.285
 2085TIP3    H1 6132   4.660   6.860   0.362
 2085TIP3    H2 6133   4.684   6.721   0.307
 2086TIP3   OH2 6134   3.958   6.125   0.148
 2086TIP3    H1 6135   3.930   6.090   0.061
 2086TIP3    H2 6136   3.955   6.044   0.203
 2087TIP3   OH2 6137   3.663   7.879   0.601
 2087TIP3    H1 6138   3.751   7.877   0.644
 2087TIP3    H2 6139   3.645   7.784   0.591
 2088TIP3   OH2 6140   4.142   7.849   0.637
 2088TIP3    H1 6141   4.238   7.831   0.643
 2088TIP3    H2 6142   4.119   7.795   0.558
 2089TIP3   OH2 6143   4.778   7.723   0.357
 2089TIP3    H1 6144   4.766   7.675   0.442
 2089TIP3    H2 6145   4.853   7.782   0.375
 2090TIP3   OH2 6146   3.793   7.289   0.795
 2090TIP3    H1 6147   3.811   7.193   0.800
 2090TIP3    H2 6148   3.706   7.290   0.750
 2091TIP3   OH2 6149   4.421   7.368   0.582
 2091TIP3    H1 6150   4.359   7.388   0.507
 2091TIP3    H2 6151   4.440   7.273   0.569
 2092TIP3   OH2 6152   3.913   7.016   0.772
 2092TIP3    H1 6153   3.992   6.964   0.755
 2092TIP3    H2 6154   3.935   7.052   0.861
 2093TIP3   OH2 6155   4.220   6.882   0.417
 2093TIP3    H1 6156   4.163   6.957   0.445
 2093TIP3    H2 6157   4.289   6.931   0.366
 2094TIP3   OH2 6158   4.762   7.293   0.563
 2094TIP3    H1 6159   4.855   7.286   0.536
 2094TIP3    H2 6160   4.760   7.234   0.641
 2095TIP3   OH2 6161   4.365   6.694   0.567
 2095TIP3    H1 6162   4.372   6.609   0.517
 2095TIP3    H2 6163   4.323   6.753   0.501
 2096TIP3   OH2 6164   4.369   6.472   0.395
 2096TIP3    H1 6165   4.405   6.515   0.314
 2096TIP3    H2 6166   4.279   6.446   0.364
 2097TIP3   OH2 6167   4.405   7.024   0.284
 2097TIP3    H1 6168   4.457   6.969   0.223
 2097TIP3    H2 6169   4.416   7.114   0.247
 2098TIP3   OH2 6170   4.982   6.983   0.627
 2098TIP3    H1 6171   5.031   6.899   0.638
 2098TIP3    H2 6172   5.050   7.039   0.587
 2099TIP3   OH2 6173   5.024   7.217   0.372
 2099TIP3    H1 6174   4.955   7.227   0.305
 2099TIP3    H2 6175   5.091   7.280   0.337
 2100TIP3   OH2 6176   4.241   6.811   0.787
 2100TIP3    H1 6177   4.177   6.739   0.805
 2100TIP3    H2 6178   4.285   6.779   0.706
 2101TIP3   OH2 6179   4.510   6.239   0.435
 2101TIP3    H1 6180   4.459   6.321   0.422
 2101TIP3    H2 6181   4.440   6.171   0.423
 2102TIP3   OH2 6182   4.629   6.752   0.654
 2102TIP3    H1 6183   4.626   6.740   0.751
 2102TIP3    H2 6184   4.539   6.725   0.630
 2103TIP3   OH2 6185   4.870   6.696   0.519
 2103TIP3    H1 6186   4.793   6.700   0.579
 2103TIP3    H2 6187   4.943   6.668   0.579
 2104TIP3   OH2 6188   5.098   6.637   0.661
 2104TIP3    H1 6189   5.112   6.541   0.679
 2104TIP3    H2 6190   5.098   6.676   0.751
 2105TIP3   OH2 6191   4.089   6.585   0.843
 2105TIP3    H1 6192   4.098   6.492   0.815
 2105TIP3    H2 6193   4.127   6.579   0.934
 2106TIP3   OH2 6194   4.600   6.254   0.694
 2106TIP3    H1 6195   4.669   6.185   0.691
 2106TIP3    H2 6196   4.563   6.245   0.603
 2107TIP3   OH2 6197   4.666   6.470   0.850
 2107TIP3    H1 6198   4.644   6.398   0.787
 2107TIP3    H2 6199   4.587   6.528   0.844
 2108TIP3   OH2 6200   5.211   7.657   0.467
 2108TIP3    H1 6201   5.134   7.671   0.527
 2108TIP3    H2 6202   5.230   7.746   0.437
 2109TIP3   OH2 6203   3.614   6.931   0.135
 2109TIP3    H1 6204   3.620   6.939   0.039
 2109TIP3    H2 6205   3.710   6.933   0.159
 2110TIP3   OH2 6206   3.825   6.634   0.801
 2110TIP3    H1 6207   3.921   6.632   0.818
 2110TIP3    H2 6208   3.798   6.553   0.851
 2111TIP3   OH2 6209   5.686   6.492   0.589
 2111TIP3    H1 6210   5.729   6.431   0.526
 2111TIP3    H2 6211   5.629   6.546   0.529
 2112TIP3   OH2 6212   3.799   6.348   0.189
 2112TIP3    H1 6213   3.846   6.262   0.189
 2112TIP3    H2 6214   3.858   6.398   0.129
 2113TIP3   OH2 6215   3.623   6.614   0.234
 2113TIP3    H1 6216   3.647   6.608   0.138
 2113TIP3    H2 6217   3.591   6.706   0.239
 2114TIP3   OH2 6218   5.505   6.634   0.453
 2114TIP3    H1 6219   5.415   6.663   0.430
 2114TIP3    H2 6220   5.544   6.631   0.363
 2115TIP3   OH2 6221   3.790   6.194   0.538
 2115TIP3    H1 6222   3.741   6.180   0.621
 2115TIP3    H2 6223   3.717   6.220   0.478
 2116TIP3   OH2 6224   3.829   7.616   0.615
 2116TIP3    H1 6225   3.738   7.586   0.597
 2116TIP3    H2 6226   3.839   7.594   0.709
 2117TIP3   OH2 6227   5.416   6.379   0.305
 2117TIP3    H1 6228   5.368   6.422   0.234
 2117TIP3    H2 6229   5.484   6.328   0.258
 2118TIP3   OH2 6230   3.662   7.893   0.163
 2118TIP3    H1 6231   3.578   7.942   0.162
 2118TIP3    H2 6232   3.709   7.936   0.236
 2119TIP3   OH2 6233   3.870   6.029  -0.090
 2119TIP3    H1 6234   3.783   5.989  -0.110
 2119TIP3    H2 6235   3.927   5.952  -0.107
 2120TIP3   OH2 6236   4.089   6.311   0.779
 2120TIP3    H1 6237   4.055   6.241   0.837
 2120TIP3    H2 6238   4.184   6.311   0.805
 2121TIP3   OH2 6239   4.335   6.304   0.899
 2121TIP3    H1 6240   4.423   6.281   0.862
 2121TIP3    H2 6241   4.326   6.236   0.968
 2122TIP3   OH2 6242   5.155   6.367   0.694
 2122TIP3    H1 6243   5.175   6.337   0.785
 2122TIP3    H2 6244   5.245   6.365   0.654
 2123TIP3   OH2 6245   6.133   6.581   0.413
 2123TIP3    H1 6246   6.192   6.546   0.346
 2123TIP3    H2 6247   6.102   6.499   0.458
 2124TIP3   OH2 6248   1.732   7.829   1.199
 2124TIP3    H1 6249   1.776   7.743   1.186
 2124TIP3    H2 6250   1.656   7.820   1.139
 2125TIP3   OH2 6251   3.215   8.354   0.247
 2125TIP3    H1 6252   3.266   8.402   0.178
 2125TIP3    H2 6253   3.281   8.356   0.318
 2126TIP3   OH2 6254   3.043   8.055   0.234
 2126TIP3    H1 6255   2.960   8.099   0.254
 2126TIP3    H2 6256   3.031   8.037   0.138
 2127TIP3   OH2 6257   3.085   8.527   0.555
 2127TIP3    H1 6258   3.045   8.535   0.466
 2127TIP3    H2 6259   3.096   8.430   0.561
 2128TIP3   OH2 6260   2.615   7.876   0.521
 2128TIP3    H1 6261   2.684   7.843   0.582
 2128TIP3    H2 6262   2.532   7.853   0.567
 2129TIP3   OH2 6263   2.855   8.330   0.434
 2129TIP3    H1 6264   2.818   8.302   0.521
 2129TIP3    H2 6265   2.777   8.373   0.398
 2130TIP3   OH2 6266   2.599   8.559   0.739
 2130TIP3    H1 6267   2.555   8.473   0.752
 2130TIP3    H2 6268   2.693   8.533   0.732
 2131TIP3   OH2 6269   2.653   8.110   0.365
 2131TIP3    H1 6270   2.698   8.137   0.446
 2131TIP3    H2 6271   2.615   8.024   0.394
 2132TIP3   OH2 6272   3.106   8.243   0.476
 2132TIP3    H1 6273   3.010   8.256   0.470
 2132TIP3    H2 6274   3.129   8.238   0.382
 2133TIP3   OH2 6275   2.877   8.549   0.766
 2133TIP3    H1 6276   2.894   8.461   0.803
 2133TIP3    H2 6277   2.958   8.562   0.713
 2134TIP3   OH2 6278   2.344   7.815   0.588
 2134TIP3    H1 6279   2.306   7.881   0.528
 2134TIP3    H2 6280   2.282   7.740   0.575
 2135TIP3   OH2 6281   2.487   8.310   0.803
 2135TIP3    H1 6282   2.489   8.307   0.901
 2135TIP3    H2 6283   2.394   8.288   0.789
 2136TIP3   OH2 6284   2.723   8.259   0.655
 2136TIP3    H1 6285   2.640   8.260   0.707
 2136TIP3    H2 6286   2.789   8.226   0.721
 2137TIP3   OH2 6287   2.946   8.198   0.813
 2137TIP3    H1 6288   2.957   8.102   0.830
 2137TIP3    H2 6289   2.940   8.236   0.903
 2138TIP3   OH2 6290   2.041   8.187   0.992
 2138TIP3    H1 6291   1.979   8.133   0.940
 2138TIP3    H2 6292   2.019   8.155   1.082
 2139TIP3   OH2 6293   2.446   7.817   0.844
 2139TIP3    H1 6294   2.509   7.743   0.839
 2139TIP3    H2 6295   2.402   7.810   0.757
 2140TIP3   OH2 6296   2.506   8.031   1.002
 2140TIP3    H1 6297   2.487   7.956   0.940
 2140TIP3    H2 6298   2.426   8.086   0.993
 2141TIP3   OH2 6299   3.284   8.674   0.434
 2141TIP3    H1 6300   3.213   8.621   0.472
 2141TIP3    H2 6301   3.361   8.614   0.448
 2142TIP3   OH2 6302   3.024   8.589   0.297
 2142TIP3    H1 6303   2.993   8.508   0.253
 2142TIP3    H2 6304   3.090   8.621   0.233
 2143TIP3   OH2 6305   3.491   8.055   0.726
 2143TIP3    H1 6306   3.553   7.991   0.683
 2143TIP3    H2 6307   3.473   8.116   0.651
 2144TIP3   OH2 6308   3.370   8.204   0.529
 2144TIP3    H1 6309   3.276   8.228   0.546
 2144TIP3    H2 6310   3.356   8.123   0.475
 2145TIP3   OH2 6311   3.274   7.966   0.409
 2145TIP3    H1 6312   3.184   7.971   0.372
 2145TIP3    H2 6313   3.297   7.871   0.397
 2146TIP3   OH2 6314   1.983   7.757   0.909
 2146TIP3    H1 6315   1.937   7.719   0.986
 2146TIP3    H2 6316   2.044   7.820   0.952
 2147TIP3   OH2 6317   2.186   7.877   1.067
 2147TIP3    H1 6318   2.265   7.842   1.023
 2147TIP3    H2 6319   2.166   7.805   1.130
 2148TIP3   OH2 6320   3.003   7.927   0.841
 2148TIP3    H1 6321   3.024   7.894   0.931
 2148TIP3    H2 6322   3.090   7.921   0.797
 2149TIP3   OH2 6323   3.568   8.801   0.423
 2149TIP3    H1 6324   3.621   8.733   0.466
 2149TIP3    H2 6325   3.562   8.871   0.492
 2150TIP3   OH2 6326   3.849   8.635   0.399
 2150TIP3    H1 6327   3.800   8.554   0.427
 2150TIP3    H2 6328   3.913   8.597   0.337
 2151TIP3   OH2 6329   3.726   8.406   0.489
 2151TIP3    H1 6330   3.731   8.326   0.433
 2151TIP3    H2 6331   3.761   8.373   0.574
 2152TIP3   OH2 6332   4.275   8.266   0.473
 2152TIP3    H1 6333   4.248   8.232   0.386
 2152TIP3    H2 6334   4.222   8.347   0.478
 2153TIP3   OH2 6335   3.454   8.462   0.462
 2153TIP3    H1 6336   3.551   8.452   0.450
 2153TIP3    H2 6337   3.434   8.373   0.498
 2154TIP3   OH2 6338   3.411   8.008   0.165
 2154TIP3    H1 6339   3.373   7.989   0.252
 2154TIP3    H2 6340   3.349   8.072   0.129
 2155TIP3   OH2 6341   3.719   8.114   0.430
 2155TIP3    H1 6342   3.698   8.039   0.487
 2155TIP3    H2 6343   3.815   8.125   0.448
 2156TIP3   OH2 6344   3.968   8.130   0.549
 2156TIP3    H1 6345   4.046   8.114   0.493
 2156TIP3    H2 6346   3.968   8.051   0.606
 2157TIP3   OH2 6347   1.637  -0.094   4.791
 2157TIP3    H1 6348   1.570  -0.158   4.762
 2157TIP3    H2 6349   1.607  -0.012   4.746
 2158TIP3   OH2 6350   1.855   0.255   4.851
 2158TIP3    H1 6351   1.854   0.159   4.867
 2158TIP3    H2 6352   1.772   0.282   4.896
 2159TIP3   OH2 6353   1.542   0.605   4.946
 2159TIP3    H1 6354   1.539   0.629   4.851
 2159TIP3    H2 6355   1.617   0.659   4.977
 2160TIP3   OH2 6356   1.876  -0.032   4.894
 2160TIP3    H1 6357   1.778  -0.040   4.886
 2160TIP3    H2 6358   1.900  -0.061   4.803
 2161TIP3   OH2 6359   1.386   0.293   4.782
 2161TIP3    H1 6360   1.302   0.250   4.799
 2161TIP3    H2 6361   1.364   0.362   4.715
 2162TIP3   OH2 6362   1.359   0.150   5.101
 2162TIP3    H1 6363   1.268   0.146   5.138
 2162TIP3    H2 6364   1.400   0.215   5.160
 2163TIP3   OH2 6365   1.640   0.361   4.328
 2163TIP3    H1 6366   1.666   0.397   4.414
 2163TIP3    H2 6367   1.710   0.396   4.270
 2164TIP3   OH2 6368   1.680   0.381   4.617
 2164TIP3    H1 6369   1.645   0.290   4.614
 2164TIP3    H2 6370   1.760   0.367   4.669
 2165TIP3   OH2 6371   1.745   0.054   5.184
 2165TIP3    H1 6372   1.668   0.059   5.244
 2165TIP3    H2 6373   1.778   0.146   5.189
 2166TIP3   OH2 6374   1.554   0.127   4.648
 2166TIP3    H1 6375   1.497   0.184   4.704
 2166TIP3    H2 6376   1.494   0.104   4.575
 2167TIP3   OH2 6377   1.781  -0.280   5.018
 2167TIP3    H1 6378   1.846  -0.352   5.004
 2167TIP3    H2 6379   1.807  -0.213   4.952
 2168TIP3   OH2 6380   1.949  -0.497   5.027
 2168TIP3    H1 6381   1.895  -0.562   5.073
 2168TIP3    H2 6382   2.039  -0.516   5.059
 2169TIP3   OH2 6383   1.140   0.469   4.909
 2169TIP3    H1 6384   1.207   0.401   4.908
 2169TIP3    H2 6385   1.176   0.528   4.978
 2170TIP3   OH2 6386   1.345   0.461   4.569
 2170TIP3    H1 6387   1.313   0.549   4.540
 2170TIP3    H2 6388   1.374   0.425   4.484
 2171TIP3   OH2 6389   1.612   0.338   4.954
 2171TIP3    H1 6390   1.532   0.299   4.913
 2171TIP3    H2 6391   1.588   0.432   4.953
 2172TIP3   OH2 6392   2.945  -0.277   3.752
 2172TIP3    H1 6393   2.938  -0.187   3.713
 2172TIP3    H2 6394   2.852  -0.302   3.749
 2173TIP3   OH2 6395   2.863  -0.298   4.098
 2173TIP3    H1 6396   2.905  -0.299   4.185
 2173TIP3    H2 6397   2.831  -0.391   4.093
 2174TIP3   OH2 6398   2.170  -0.403   4.448
 2174TIP3    H1 6399   2.202  -0.461   4.519
 2174TIP3    H2 6400   2.246  -0.344   4.436
 2175TIP3   OH2 6401   3.159   0.005   3.793
 2175TIP3    H1 6402   3.110  -0.057   3.848
 2175TIP3    H2 6403   3.151   0.088   3.843
 2176TIP3   OH2 6404   2.166   0.023   4.215
 2176TIP3    H1 6405   2.152  -0.069   4.192
 2176TIP3    H2 6406   2.262   0.033   4.200
 2177TIP3   OH2 6407   2.763   0.479   3.795
 2177TIP3    H1 6408   2.805   0.405   3.745
 2177TIP3    H2 6409   2.755   0.441   3.883
 2178TIP3   OH2 6410   2.673  -0.072   4.140
 2178TIP3    H1 6411   2.718  -0.149   4.101
 2178TIP3    H2 6412   2.753  -0.024   4.170
 2179TIP3   OH2 6413   3.099  -0.554   4.177
 2179TIP3    H1 6414   3.113  -0.639   4.220
 2179TIP3    H2 6415   3.049  -0.578   4.096
 2180TIP3   OH2 6416   3.732  -0.561   4.331
 2180TIP3    H1 6417   3.668  -0.491   4.310
 2180TIP3    H2 6418   3.777  -0.527   4.410
 2181TIP3   OH2 6419   8.229   5.557   9.186
 2181TIP3    H1 6420   8.321   5.552   9.154
 2181TIP3    H2 6421   8.227   5.651   9.211
 2182TIP3   OH2 6422   2.521  -0.148   4.375
 2182TIP3    H1 6423   2.460  -0.083   4.417
 2182TIP3    H2 6424   2.567  -0.092   4.310
 2183TIP3   OH2 6425   2.348   0.045   4.465
 2183TIP3    H1 6426   2.325   0.133   4.428
 2183TIP3    H2 6427   2.272   0.033   4.526
 2184TIP3   OH2 6428   3.190   0.258   3.950
 2184TIP3    H1 6429   3.102   0.247   3.993
 2184TIP3    H2 6430   3.176   0.343   3.904
 2185TIP3   OH2 6431   2.881   0.296   3.629
 2185TIP3    H1 6432   2.916   0.206   3.618
 2185TIP3    H2 6433   2.948   0.350   3.580
 2186TIP3   OH2 6434   3.141   0.102   3.510
 2186TIP3    H1 6435   3.070   0.046   3.472
 2186TIP3    H2 6436   3.141   0.068   3.601
 2187TIP3   OH2 6437   3.419   0.170   4.287
 2187TIP3    H1 6438   3.399   0.091   4.233
 2187TIP3    H2 6439   3.395   0.243   4.226
 2188TIP3   OH2 6440   3.610  -0.197   4.136
 2188TIP3    H1 6441   3.526  -0.146   4.143
 2188TIP3    H2 6442   3.637  -0.173   4.045
 2189TIP3   OH2 6443   3.074  -0.351   3.514
 2189TIP3    H1 6444   3.038  -0.284   3.575
 2189TIP3    H2 6445   3.148  -0.385   3.567
 2190TIP3   OH2 6446   3.284  -0.312   4.426
 2190TIP3    H1 6447   3.284  -0.226   4.471
 2190TIP3    H2 6448   3.202  -0.303   4.374
 2191TIP3   OH2 6449   2.416   0.044   4.087
 2191TIP3    H1 6450   2.408   0.005   4.000
 2191TIP3    H2 6451   2.508   0.020   4.112
 2192TIP3   OH2 6452   2.428  -0.393   4.292
 2192TIP3    H1 6453   2.468  -0.407   4.206
 2192TIP3    H2 6454   2.464  -0.306   4.319
 2193TIP3   OH2 6455   2.953   0.247   4.073
 2193TIP3    H1 6456   2.930   0.328   4.123
 2193TIP3    H2 6457   2.928   0.176   4.135
 2194TIP3   OH2 6458   2.543   0.145   4.637
 2194TIP3    H1 6459   2.499   0.228   4.664
 2194TIP3    H2 6460   2.478   0.108   4.574
 2195TIP3   OH2 6461   2.304  -0.269   4.710
 2195TIP3    H1 6462   2.313  -0.184   4.758
 2195TIP3    H2 6463   2.208  -0.283   4.715
 2196TIP3   OH2 6464   2.597   0.193   3.621
 2196TIP3    H1 6465   2.691   0.211   3.639
 2196TIP3    H2 6466   2.566   0.277   3.583
 2197TIP3   OH2 6467   2.350   0.345   4.698
 2197TIP3    H1 6468   2.318   0.339   4.606
 2197TIP3    H2 6469   2.271   0.319   4.750
 2198TIP3   OH2 6470   3.218   0.118   2.931
 2198TIP3    H1 6471   3.223   0.206   2.971
 2198TIP3    H2 6472   3.302   0.077   2.955
 2199TIP3   OH2 6473   1.940  -0.134   4.650
 2199TIP3    H1 6474   1.893  -0.155   4.568
 2199TIP3    H2 6475   1.972  -0.222   4.681
 2200TIP3   OH2 6476   7.459   5.699   9.957
 2200TIP3    H1 6477   7.546   5.728   9.926
 2200TIP3    H2 6478   7.422   5.782   9.991
 2201TIP3   OH2 6479   3.652   0.511   4.335
 2201TIP3    H1 6480   3.650   0.415   4.352
 2201TIP3    H2 6481   3.569   0.538   4.380
 2202TIP3   OH2 6482   2.512   0.429   3.426
 2202TIP3    H1 6483   2.444   0.409   3.361
 2202TIP3    H2 6484   2.491   0.521   3.451
 2203TIP3   OH2 6485   2.771   0.393   3.342
 2203TIP3    H1 6486   2.678   0.394   3.373
 2203TIP3    H2 6487   2.811   0.328   3.400
 2204TIP3   OH2 6488   3.545  -0.361   4.627
 2204TIP3    H1 6489   3.471  -0.319   4.581
 2204TIP3    H2 6490   3.558  -0.443   4.579
 2205TIP3   OH2 6491   2.140   0.052   4.638
 2205TIP3    H1 6492   2.191   0.036   4.721
 2205TIP3    H2 6493   2.065  -0.009   4.648
 2206TIP3   OH2 6494   3.201  -0.502   4.611
 2206TIP3    H1 6495   3.269  -0.572   4.610
 2206TIP3    H2 6496   3.233  -0.438   4.545
 2207TIP3   OH2 6497   2.480  -0.619   4.448
 2207TIP3    H1 6498   2.411  -0.602   4.515
 2207TIP3    H2 6499   2.459  -0.547   4.384
 2208TIP3   OH2 6500   3.020  -0.311   4.728
 2208TIP3    H1 6501   3.009  -0.355   4.815
 2208TIP3    H2 6502   3.117  -0.308   4.724
 2209TIP3   OH2 6503   2.999  -0.615   3.918
 2209TIP3    H1 6504   2.961  -0.550   3.857
 2209TIP3    H2 6505   3.051  -0.671   3.858
 2210TIP3   OH2 6506   2.289  -0.574   4.644
 2210TIP3    H1 6507   2.316  -0.508   4.710
 2210TIP3    H2 6508   2.255  -0.646   4.698
 2211TIP3   OH2 6509   3.007  -0.357   4.342
 2211TIP3    H1 6510   3.039  -0.429   4.283
 2211TIP3    H2 6511   2.985  -0.407   4.423
 2212TIP3   OH2 6512   3.342   0.860   4.434
 2212TIP3    H1 6513   3.336   0.888   4.341
 2212TIP3    H2 6514   3.415   0.914   4.467
 2213TIP3   OH2 6515   2.297  -0.033   4.857
 2213TIP3    H1 6516   2.379   0.001   4.898
 2213TIP3    H2 6517   2.235  -0.023   4.932
 2214TIP3   OH2 6518   2.794  -0.562   4.134
 2214TIP3    H1 6519   2.824  -0.623   4.066
 2214TIP3    H2 6520   2.771  -0.621   4.208
 2215TIP3   OH2 6521   2.743  -0.694   4.424
 2215TIP3    H1 6522   2.654  -0.654   4.426
 2215TIP3    H2 6523   2.797  -0.628   4.472
 2216TIP3   OH2 6524   3.378  -0.054   4.126
 2216TIP3    H1 6525   3.396  -0.002   4.046
 2216TIP3    H2 6526   3.290  -0.093   4.106
 2217TIP3   OH2 6527   2.042  -0.346   4.793
 2217TIP3    H1 6528   2.087  -0.340   4.880
 2217TIP3    H2 6529   1.989  -0.426   4.807
 2218TIP3   OH2 6530   2.769  -0.241   4.812
 2218TIP3    H1 6531   2.707  -0.285   4.752
 2218TIP3    H2 6532   2.854  -0.249   4.765
 2219TIP3   OH2 6533   3.666   0.219   4.379
 2219TIP3    H1 6534   3.568   0.216   4.370
 2219TIP3    H2 6535   3.691   0.191   4.288
 2220TIP3   OH2 6536   3.155   0.178   3.202
 2220TIP3    H1 6537   3.127   0.125   3.279
 2220TIP3    H2 6538   3.136   0.116   3.131
 2221TIP3   OH2 6539   3.145  -0.193   4.050
 2221TIP3    H1 6540   3.050  -0.213   4.056
 2221TIP3    H2 6541   3.176  -0.267   3.995
 2222TIP3   OH2 6542   2.537   0.383   4.265
 2222TIP3    H1 6543   2.578   0.458   4.218
 2222TIP3    H2 6544   2.608   0.359   4.327
 2223TIP3   OH2 6545   2.921   0.006   4.220
 2223TIP3    H1 6546   2.921   0.059   4.304
 2223TIP3    H2 6547   3.009  -0.032   4.223
 2224TIP3   OH2 6548   3.178   0.546   4.271
 2224TIP3    H1 6549   3.094   0.497   4.271
 2224TIP3    H2 6550   3.160   0.615   4.204
 2225TIP3   OH2 6551   3.244   0.395   2.933
 2225TIP3    H1 6552   3.284   0.475   2.893
 2225TIP3    H2 6553   3.160   0.435   2.967
 2226TIP3   OH2 6554   8.692   5.593   8.964
 2226TIP3    H1 6555   8.646   5.522   9.010
 2226TIP3    H2 6556   8.750   5.543   8.903
 2227TIP3   OH2 6557   1.975   0.253   4.430
 2227TIP3    H1 6558   2.030   0.177   4.456
 2227TIP3    H2 6559   2.011   0.322   4.487
 2228TIP3   OH2 6560   2.927  -0.534   4.580
 2228TIP3    H1 6561   2.935  -0.451   4.631
 2228TIP3    H2 6562   3.020  -0.562   4.583
 2229TIP3   OH2 6563   3.231  -0.433   3.911
 2229TIP3    H1 6564   3.158  -0.486   3.946
 2229TIP3    H2 6565   3.307  -0.471   3.961
 2230TIP3   OH2 6566   3.199   0.528   3.867
 2230TIP3    H1 6567   3.153   0.573   3.793
 2230TIP3    H2 6568   3.292   0.541   3.842
 2231TIP3   OH2 6569   1.966   0.546   4.856
 2231TIP3    H1 6570   2.055   0.543   4.897
 2231TIP3    H2 6571   1.947   0.451   4.847
 2232TIP3   OH2 6572   2.449   0.518   4.891
 2232TIP3    H1 6573   2.544   0.499   4.900
 2232TIP3    H2 6574   2.426   0.461   4.815
 2233TIP3   OH2 6575   3.071   0.466   4.629
 2233TIP3    H1 6576   3.049   0.371   4.623
 2233TIP3    H2 6577   3.159   0.464   4.668
 2234TIP3   OH2 6578   2.102  -0.032   5.050
 2234TIP3    H1 6579   2.112  -0.128   5.065
 2234TIP3    H2 6580   2.014  -0.028   5.006
 2235TIP3   OH2 6581   2.706   0.048   4.831
 2235TIP3    H1 6582   2.667   0.071   4.744
 2235TIP3    H2 6583   2.752  -0.035   4.812
 2236TIP3   OH2 6584   3.212   0.025   4.419
 2236TIP3    H1 6585   3.264   0.099   4.384
 2236TIP3    H2 6586   3.127   0.073   4.439
 2237TIP3   OH2 6587   2.207  -0.324   5.030
 2237TIP3    H1 6588   2.293  -0.360   5.005
 2237TIP3    H2 6589   2.230  -0.284   5.117
 2238TIP3   OH2 6590   2.549  -0.387   4.673
 2238TIP3    H1 6591   2.468  -0.331   4.672
 2238TIP3    H2 6592   2.596  -0.359   4.590
 2239TIP3   OH2 6593   3.059  -0.017   4.845
 2239TIP3    H1 6594   3.128  -0.036   4.780
 2239TIP3    H2 6595   3.068  -0.088   4.909
 2240TIP3   OH2 6596   2.609  -0.597   4.819
 2240TIP3    H1 6597   2.666  -0.642   4.756
 2240TIP3    H2 6598   2.583  -0.517   4.766
 2241TIP3   OH2 6599   2.720  -0.306   4.477
 2241TIP3    H1 6600   2.801  -0.290   4.427
 2241TIP3    H2 6601   2.660  -0.238   4.441
 2242TIP3   OH2 6602   3.288  -0.330   4.879
 2242TIP3    H1 6603   3.336  -0.413   4.886
 2242TIP3    H2 6604   3.356  -0.266   4.853
 2243TIP3   OH2 6605   3.338  -0.101   4.616
 2243TIP3    H1 6606   3.274  -0.049   4.560
 2243TIP3    H2 6607   3.422  -0.071   4.574
 2244TIP3   OH2 6608   2.518  -0.494   5.059
 2244TIP3    H1 6609   2.452  -0.565   5.060
 2244TIP3    H2 6610   2.566  -0.517   4.977
 2245TIP3   OH2 6611   2.990  -0.467   4.940
 2245TIP3    H1 6612   2.947  -0.491   5.024
 2245TIP3    H2 6613   2.999  -0.553   4.895
 2246TIP3   OH2 6614   3.465   0.608   3.822
 2246TIP3    H1 6615   3.471   0.636   3.916
 2246TIP3    H2 6616   3.479   0.692   3.776
 2247TIP3   OH2 6617   3.481   0.632   4.100
 2247TIP3    H1 6618   3.434   0.546   4.104
 2247TIP3    H2 6619   3.546   0.618   4.171
 2248TIP3   OH2 6620   3.527   0.312   4.679
 2248TIP3    H1 6621   3.453   0.320   4.742
 2248TIP3    H2 6622   3.566   0.402   4.684
 2249TIP3   OH2 6623   3.382  -0.201   3.265
 2249TIP3    H1 6624   3.424  -0.114   3.278
 2249TIP3    H2 6625   3.382  -0.236   3.355
 2250TIP3   OH2 6626   3.476  -0.309   3.508
 2250TIP3    H1 6627   3.407  -0.346   3.568
 2250TIP3    H2 6628   3.532  -0.258   3.569
 2251TIP3   OH2 6629   3.529   0.091   3.940
 2251TIP3    H1 6630   3.573   0.022   3.887
 2251TIP3    H2 6631   3.494   0.152   3.873
 2252TIP3   OH2 6632   3.355   0.388   4.128
 2252TIP3    H1 6633   3.286   0.432   4.182
 2252TIP3    H2 6634   3.301   0.341   4.062
 2253TIP3   OH2 6635   3.291  -0.464   3.645
 2253TIP3    H1 6636   3.281  -0.560   3.655
 2253TIP3    H2 6637   3.272  -0.435   3.737
 2254TIP3   OH2 6638   3.576  -0.031   4.505
 2254TIP3    H1 6639   3.650  -0.093   4.488
 2254TIP3    H2 6640   3.596   0.043   4.445
 2255TIP3   OH2 6641   3.761  -0.233   4.513
 2255TIP3    H1 6642   3.692  -0.277   4.567
 2255TIP3    H2 6643   3.842  -0.271   4.551
 2256TIP3   OH2 6644   3.447  -0.531   4.045
 2256TIP3    H1 6645   3.536  -0.519   4.007
 2256TIP3    H2 6646   3.462  -0.505   4.137
 2257TIP3   OH2 6647   3.507  -0.405   4.291
 2257TIP3    H1 6648   3.423  -0.365   4.323
 2257TIP3    H2 6649   3.541  -0.333   4.235
 2258TIP3   OH2 6650   3.041   0.473   3.487
 2258TIP3    H1 6651   3.088   0.463   3.402
 2258TIP3    H2 6652   3.086   0.549   3.527
 2259TIP3   OH2 6653   2.133   0.284   4.866
 2259TIP3    H1 6654   2.040   0.258   4.851
 2259TIP3    H2 6655   2.143   0.270   4.961
 2260TIP3   OH2 6656   2.309   0.317   4.414
 2260TIP3    H1 6657   2.262   0.394   4.376
 2260TIP3    H2 6658   2.396   0.332   4.371
 2261TIP3   OH2 6659   2.748   0.588   4.557
 2261TIP3    H1 6660   2.793   0.555   4.637
 2261TIP3    H2 6661   2.824   0.607   4.500
 2262TIP3   OH2 6662   2.941   0.720   4.400
 2262TIP3    H1 6663   3.010   0.653   4.387
 2262TIP3    H2 6664   2.983   0.776   4.468
 2263TIP3   OH2 6665   1.990   0.579   4.443
 2263TIP3    H1 6666   1.899   0.606   4.419
 2263TIP3    H2 6667   2.004   0.634   4.522
 2264TIP3   OH2 6668   2.223   0.553   4.296
 2264TIP3    H1 6669   2.138   0.567   4.343
 2264TIP3    H2 6670   2.203   0.588   4.207
 2265TIP3   OH2 6671   2.650   0.585   4.094
 2265TIP3    H1 6672   2.580   0.606   4.029
 2265TIP3    H2 6673   2.662   0.671   4.138
 2266TIP3   OH2 6674   2.919   0.524   4.138
 2266TIP3    H1 6675   2.823   0.538   4.126
 2266TIP3    H2 6676   2.954   0.610   4.109
 2267TIP3   OH2 6677   3.137   0.720   4.062
 2267TIP3    H1 6678   3.115   0.803   4.014
 2267TIP3    H2 6679   3.151   0.657   3.988
 2268TIP3   OH2 6680   1.909   0.377   4.193
 2268TIP3    H1 6681   1.923   0.350   4.286
 2268TIP3    H2 6682   1.988   0.334   4.153
 2269TIP3   OH2 6683   2.107   0.247   4.066
 2269TIP3    H1 6684   2.127   0.162   4.110
 2269TIP3    H2 6685   2.196   0.282   4.047
 2270TIP3   OH2 6686   2.370   0.346   4.040
 2270TIP3    H1 6687   2.403   0.256   4.022
 2270TIP3    H2 6688   2.412   0.363   4.127
 2271TIP3   OH2 6689   3.184   0.448   3.247
 2271TIP3    H1 6690   3.174   0.350   3.237
 2271TIP3    H2 6691   3.131   0.480   3.172
 2272TIP3   OH2 6692   3.408   0.592   4.432
 2272TIP3    H1 6693   3.325   0.558   4.391
 2272TIP3    H2 6694   3.384   0.687   4.442
 2273TIP3   OH2 6695   4.673  -0.032   3.200
 2273TIP3    H1 6696   4.645   0.060   3.184
 2273TIP3    H2 6697   4.592  -0.080   3.177
 2274TIP3   OH2 6698   4.666  -0.036   3.586
 2274TIP3    H1 6699   4.702  -0.060   3.673
 2274TIP3    H2 6700   4.625  -0.120   3.559
 2275TIP3   OH2 6701   3.971  -0.136   3.944
 2275TIP3    H1 6702   4.000  -0.203   4.009
 2275TIP3    H2 6703   4.049  -0.080   3.941
 2276TIP3   OH2 6704   4.911   0.269   3.266
 2276TIP3    H1 6705   4.900   0.200   3.332
 2276TIP3    H2 6706   4.941   0.344   3.320
 2277TIP3   OH2 6707   3.977   0.284   3.721
 2277TIP3    H1 6708   3.937   0.195   3.709
 2277TIP3    H2 6709   4.053   0.274   3.660
 2278TIP3   OH2 6710   3.639  -0.528   3.455
 2278TIP3    H1 6711   3.601  -0.438   3.468
 2278TIP3    H2 6712   3.558  -0.580   3.461
 2279TIP3   OH2 6713   3.717  -0.235   3.634
 2279TIP3    H1 6714   3.764  -0.313   3.671
 2279TIP3    H2 6715   3.772  -0.215   3.556
 2280TIP3   OH2 6716   4.558   0.726   3.281
 2280TIP3    H1 6717   4.607   0.656   3.232
 2280TIP3    H2 6718   4.564   0.695   3.372
 2281TIP3   OH2 6719   4.468   0.193   3.634
 2281TIP3    H1 6720   4.504   0.114   3.589
 2281TIP3    H2 6721   4.553   0.237   3.656
 2282TIP3   OH2 6722   4.886  -0.291   3.665
 2282TIP3    H1 6723   4.905  -0.372   3.716
 2282TIP3    H2 6724   4.855  -0.326   3.579
 2283TIP3   OH2 6725   3.853  -0.449   3.737
 2283TIP3    H1 6726   3.933  -0.474   3.788
 2283TIP3    H2 6727   3.870  -0.503   3.657
 2284TIP3   OH2 6728   4.294  -0.245   3.532
 2284TIP3    H1 6729   4.385  -0.279   3.548
 2284TIP3    H2 6730   4.249  -0.328   3.503
 2285TIP3   OH2 6731   5.532  -0.301   3.809
 2285TIP3    H1 6732   5.460  -0.236   3.798
 2285TIP3    H2 6733   5.563  -0.285   3.900
 2286TIP3   OH2 6734   4.570   0.194   3.066
 2286TIP3    H1 6735   4.515   0.165   2.992
 2286TIP3    H2 6736   4.522   0.275   3.094
 2287TIP3   OH2 6737   4.320   0.114   3.861
 2287TIP3    H1 6738   4.263   0.181   3.902
 2287TIP3    H2 6739   4.365   0.163   3.789
 2288TIP3   OH2 6740   4.091  -0.541   3.834
 2288TIP3    H1 6741   4.155  -0.472   3.862
 2288TIP3    H2 6742   4.137  -0.583   3.760
 2289TIP3   OH2 6743   4.137   0.317   3.945
 2289TIP3    H1 6744   4.070   0.291   3.877
 2289TIP3    H2 6745   4.083   0.301   4.026
 2290TIP3   OH2 6746   3.562   0.007   3.202
 2290TIP3    H1 6747   3.502   0.017   3.126
 2290TIP3    H2 6748   3.571   0.099   3.235
 2291TIP3   OH2 6749   4.981   0.509   3.431
 2291TIP3    H1 6750   4.892   0.502   3.471
 2291TIP3    H2 6751   4.975   0.597   3.389
 2292TIP3   OH2 6752   4.686   0.556   3.106
 2292TIP3    H1 6753   4.739   0.475   3.086
 2292TIP3    H2 6754   4.744   0.624   3.065
 2293TIP3   OH2 6755   4.831   0.337   3.010
 2293TIP3    H1 6756   4.767   0.266   2.995
 2293TIP3    H2 6757   4.869   0.309   3.097
 2294TIP3   OH2 6758   5.209   0.425   3.777
 2294TIP3    H1 6759   5.199   0.347   3.718
 2294TIP3    H2 6760   5.193   0.499   3.716
 2295TIP3   OH2 6761   4.500  -0.184   3.032
 2295TIP3    H1 6762   4.416  -0.136   3.017
 2295TIP3    H2 6763   4.540  -0.183   2.944
 2296TIP3   OH2 6764   4.455  -0.378   2.766
 2296TIP3    H1 6765   4.539  -0.353   2.810
 2296TIP3    H2 6766   4.479  -0.464   2.727
 2297TIP3   OH2 6767   5.405   0.061   3.621
 2297TIP3    H1 6768   5.322   0.112   3.627
 2297TIP3    H2 6769   5.433   0.083   3.530
 2298TIP3   OH2 6770   4.849  -0.101   3.007
 2298TIP3    H1 6771   4.794  -0.075   3.084
 2298TIP3    H2 6772   4.932  -0.128   3.052
 2299TIP3   OH2 6773   5.086  -0.053   3.919
 2299TIP3    H1 6774   5.081   0.032   3.967
 2299TIP3    H2 6775   5.002  -0.050   3.868
 2300TIP3   OH2 6776   4.084  -0.101   3.421
 2300TIP3    H1 6777   4.043  -0.161   3.355
 2300TIP3    H2 6778   4.158  -0.157   3.453
 2301TIP3   OH2 6779   4.209   0.307   3.585
 2301TIP3    H1 6780   4.190   0.279   3.494
 2301TIP3    H2 6781   4.300   0.273   3.597
 2302TIP3   OH2 6782   4.224  -0.136   3.780
 2302TIP3    H1 6783   4.253  -0.157   3.689
 2302TIP3    H2 6784   4.265  -0.049   3.796
 2303TIP3   OH2 6785   4.740   0.506   3.553
 2303TIP3    H1 6786   4.729   0.587   3.607
 2303TIP3    H2 6787   4.728   0.434   3.617
 2304TIP3   OH2 6788   4.354   0.430   4.097
 2304TIP3    H1 6789   4.301   0.490   4.154
 2304TIP3    H2 6790   4.284   0.380   4.052
 2305TIP3   OH2 6791   4.703  -0.252   2.833
 2305TIP3    H1 6792   4.756  -0.193   2.891
 2305TIP3    H2 6793   4.713  -0.208   2.746
 2306TIP3   OH2 6794   4.100  -0.003   4.190
 2306TIP3    H1 6795   4.106   0.076   4.248
 2306TIP3    H2 6796   4.008  -0.031   4.209
 2307TIP3   OH2 6797   4.432   0.438   3.106
 2307TIP3    H1 6798   4.511   0.492   3.124
 2307TIP3    H2 6799   4.371   0.502   3.068
 2308TIP3   OH2 6800   4.142   0.590   4.191
 2308TIP3    H1 6801   4.083   0.574   4.117
 2308TIP3    H2 6802   4.077   0.577   4.265
 2309TIP3   OH2 6803   3.958  -0.253   3.222
 2309TIP3    H1 6804   3.889  -0.201   3.175
 2309TIP3    H2 6805   3.915  -0.337   3.239
 2310TIP3   OH2 6806   5.001   0.360   2.424
 2310TIP3    H1 6807   5.006   0.457   2.413
 2310TIP3    H2 6808   5.096   0.336   2.413
 2311TIP3   OH2 6809   3.731   0.126   4.131
 2311TIP3    H1 6810   3.659   0.106   4.068
 2311TIP3    H2 6811   3.764   0.037   4.155
 2312TIP3   OH2 6812   3.581   0.329   3.753
 2312TIP3    H1 6813   3.674   0.319   3.780
 2312TIP3    H2 6814   3.548   0.398   3.812
 2313TIP3   OH2 6815   5.447   0.768   3.821
 2313TIP3    H1 6816   5.446   0.672   3.837
 2313TIP3    H2 6817   5.364   0.794   3.867
 2314TIP3   OH2 6818   4.551   0.558   3.953
 2314TIP3    H1 6819   4.552   0.650   3.987
 2314TIP3    H2 6820   4.484   0.517   4.013
 2315TIP3   OH2 6821   4.313   0.684   2.910
 2315TIP3    H1 6822   4.267   0.667   2.826
 2315TIP3    H2 6823   4.282   0.774   2.933
 2316TIP3   OH2 6824   3.751   0.531   3.288
 2316TIP3    H1 6825   3.775   0.509   3.379
 2316TIP3    H2 6826   3.688   0.459   3.269
 2317TIP3   OH2 6827   4.515   0.586   2.550
 2317TIP3    H1 6828   4.573   0.515   2.514
 2317TIP3    H2 6829   4.549   0.596   2.641
 2318TIP3   OH2 6830   4.565   0.632   2.819
 2318TIP3    H1 6831   4.476   0.642   2.861
 2318TIP3    H2 6832   4.616   0.596   2.893
 2319TIP3   OH2 6833   5.340  -0.093   4.105
 2319TIP3    H1 6834   5.264  -0.072   4.048
 2319TIP3    H2 6835   5.345  -0.190   4.100
 2320TIP3   OH2 6836   3.936   0.307   4.125
 2320TIP3    H1 6837   3.980   0.293   4.211
 2320TIP3    H2 6838   3.861   0.243   4.131
 2321TIP3   OH2 6839   5.003  -0.261   4.086
 2321TIP3    H1 6840   5.060  -0.273   4.165
 2321TIP3    H2 6841   5.042  -0.186   4.038
 2322TIP3   OH2 6842   4.742  -0.186   2.558
 2322TIP3    H1 6843   4.774  -0.262   2.509
 2322TIP3    H2 6844   4.819  -0.127   2.558
 2323TIP3   OH2 6845   4.270  -0.358   3.932
 2323TIP3    H1 6846   4.212  -0.335   4.008
 2323TIP3    H2 6847   4.257  -0.279   3.875
 2324TIP3   OH2 6848   4.132  -0.443   3.435
 2324TIP3    H1 6849   4.057  -0.497   3.466
 2324TIP3    H2 6850   4.159  -0.493   3.355
 2325TIP3   OH2 6851   4.645  -0.377   3.165
 2325TIP3    H1 6852   4.589  -0.306   3.126
 2325TIP3    H2 6853   4.688  -0.414   3.086
 2326TIP3   OH2 6854   4.819  -0.056   4.215
 2326TIP3    H1 6855   4.800  -0.109   4.297
 2326TIP3    H2 6856   4.915  -0.050   4.224
 2327TIP3   OH2 6857   4.800  -0.355   3.406
 2327TIP3    H1 6858   4.741  -0.324   3.335
 2327TIP3    H2 6859   4.832  -0.437   3.368
 2328TIP3   OH2 6860   4.085  -0.314   4.131
 2328TIP3    H1 6861   4.106  -0.261   4.209
 2328TIP3    H2 6862   4.043  -0.392   4.170
 2329TIP3   OH2 6863   4.800  -0.101   3.834
 2329TIP3    H1 6864   4.836  -0.170   3.774
 2329TIP3    H2 6865   4.785  -0.153   3.915
 2330TIP3   OH2 6866   3.903  -0.591   3.505
 2330TIP3    H1 6867   3.811  -0.573   3.478
 2330TIP3    H2 6868   3.911  -0.687   3.491
 2331TIP3   OH2 6869   4.198  -0.579   3.206
 2331TIP3    H1 6870   4.284  -0.595   3.165
 2331TIP3    H2 6871   4.137  -0.572   3.129
 2332TIP3   OH2 6872   4.027  -0.541   2.994
 2332TIP3    H1 6873   3.950  -0.586   2.958
 2332TIP3    H2 6874   4.075  -0.516   2.912
 2333TIP3   OH2 6875   5.137   1.119   3.922
 2333TIP3    H1 6876   5.135   1.144   3.828
 2333TIP3    H2 6877   5.214   1.169   3.954
 2334TIP3   OH2 6878   4.096   0.232   4.344
 2334TIP3    H1 6879   4.175   0.260   4.394
 2334TIP3    H2 6880   4.030   0.230   4.417
 2335TIP3   OH2 6881   4.562  -0.312   3.604
 2335TIP3    H1 6882   4.622  -0.368   3.552
 2335TIP3    H2 6883   4.559  -0.360   3.689
 2336TIP3   OH2 6884   4.538  -0.430   3.904
 2336TIP3    H1 6885   4.451  -0.387   3.912
 2336TIP3    H2 6886   4.596  -0.372   3.956
 2337TIP3   OH2 6887   4.273  -0.031   2.984
 2337TIP3    H1 6888   4.198  -0.095   2.973
 2337TIP3    H2 6889   4.254   0.004   3.074
 2338TIP3   OH2 6890   5.172   0.206   3.612
 2338TIP3    H1 6891   5.198   0.255   3.531
 2338TIP3    H2 6892   5.087   0.166   3.587
 2339TIP3   OH2 6893   4.669   0.287   3.980
 2339TIP3    H1 6894   4.698   0.263   4.069
 2339TIP3    H2 6895   4.634   0.377   3.992
 2340TIP3   OH2 6896   4.794  -0.498   2.931
 2340TIP3    H1 6897   4.890  -0.487   2.949
 2340TIP3    H2 6898   4.772  -0.413   2.889
 2341TIP3   OH2 6899   3.971   0.005   3.659
 2341TIP3    H1 6900   4.005  -0.030   3.575
 2341TIP3    H2 6901   3.994  -0.066   3.721
 2342TIP3   OH2 6902   4.414   0.118   2.803
 2342TIP3    H1 6903   4.369   0.205   2.809
 2342TIP3    H2 6904   4.360   0.064   2.864
 2343TIP3   OH2 6905   3.845  -0.089   4.270
 2343TIP3    H1 6906   3.866  -0.103   4.364
 2343TIP3    H2 6907   3.772  -0.152   4.256
 2344TIP3   OH2 6908   4.565   0.032   4.289
 2344TIP3    H1 6909   4.505  -0.030   4.244
 2344TIP3    H2 6910   4.652   0.008   4.249
 2345TIP3   OH2 6911   4.830   0.548   3.874
 2345TIP3    H1 6912   4.734   0.548   3.887
 2345TIP3    H2 6913   4.860   0.598   3.953
 2346TIP3   OH2 6914   5.242  -0.385   2.781
 2346TIP3    H1 6915   5.176  -0.429   2.724
 2346TIP3    H2 6916   5.243  -0.297   2.738
 2347TIP3   OH2 6917   5.459   0.476   3.866
 2347TIP3    H1 6918   5.361   0.471   3.858
 2347TIP3    H2 6919   5.485   0.448   3.776
 2348TIP3   OH2 6920   4.936   0.440   2.689
 2348TIP3    H1 6921   4.917   0.375   2.759
 2348TIP3    H2 6922   4.955   0.386   2.611
 2349TIP3   OH2 6923   4.937   0.070   3.529
 2349TIP3    H1 6924   4.844   0.042   3.544
 2349TIP3    H2 6925   4.973  -0.011   3.487
 2350TIP3   OH2 6926   4.062   0.298   3.289
 2350TIP3    H1 6927   4.063   0.377   3.232
 2350TIP3    H2 6928   3.970   0.271   3.283
 2351TIP3   OH2 6929   3.680  -0.357   3.013
 2351TIP3    H1 6930   3.726  -0.273   3.032
 2351TIP3    H2 6931   3.604  -0.351   3.073
 2352TIP3   OH2 6932   4.204   0.064   3.227
 2352TIP3    H1 6933   4.169   0.153   3.251
 2352TIP3    H2 6934   4.169   0.010   3.301
 2353TIP3   OH2 6935   4.304   0.637   3.753
 2353TIP3    H1 6936   4.350   0.707   3.701
 2353TIP3    H2 6937   4.379   0.607   3.808
 2354TIP3   OH2 6938   3.987   0.535   3.137
 2354TIP3    H1 6939   3.899   0.545   3.180
 2354TIP3    H2 6940   4.019   0.627   3.140
 2355TIP3   OH2 6941   4.722   0.275   3.711
 2355TIP3    H1 6942   4.712   0.274   3.809
 2355TIP3    H2 6943   4.803   0.223   3.701
 2356TIP3   OH2 6944   4.697   0.155   2.594
 2356TIP3    H1 6945   4.747   0.134   2.676
 2356TIP3    H2 6946   4.606   0.143   2.624
 2357TIP3   OH2 6947   4.971   0.807   3.763
 2357TIP3    H1 6948   4.893   0.750   3.756
 2357TIP3    H2 6949   4.955   0.872   3.690
 2358TIP3   OH2 6950   5.033   0.638   2.414
 2358TIP3    H1 6951   5.072   0.710   2.361
 2358TIP3    H2 6952   4.955   0.686   2.449
 2359TIP3   OH2 6953   4.859   0.084   2.800
 2359TIP3    H1 6954   4.847   0.032   2.882
 2359TIP3    H2 6955   4.956   0.097   2.801
 2360TIP3   OH2 6956   3.838   0.510   3.903
 2360TIP3    H1 6957   3.834   0.435   3.965
 2360TIP3    H2 6958   3.803   0.583   3.957
 2361TIP3   OH2 6959   4.067   0.146   2.594
 2361TIP3    H1 6960   4.071   0.051   2.568
 2361TIP3    H2 6961   4.047   0.138   2.689
 2362TIP3   OH2 6962   4.012   0.153   2.863
 2362TIP3    H1 6963   4.075   0.124   2.930
 2362TIP3    H2 6964   4.014   0.251   2.874
 2363TIP3   OH2 6965   3.768  -0.115   3.080
 2363TIP3    H1 6966   3.700  -0.073   3.137
 2363TIP3    H2 6967   3.771  -0.050   3.007
 2364TIP3   OH2 6968   4.275   0.351   2.813
 2364TIP3    H1 6969   4.188   0.377   2.850
 2364TIP3    H2 6970   4.292   0.427   2.756
 2365TIP3   OH2 6971   4.488  -0.595   3.232
 2365TIP3    H1 6972   4.529  -0.508   3.215
 2365TIP3    H2 6973   4.443  -0.580   3.317
 2366TIP3   OH2 6974   4.723  -0.275   4.059
 2366TIP3    H1 6975   4.738  -0.200   4.119
 2366TIP3    H2 6976   4.814  -0.312   4.057
 2367TIP3   OH2 6977   4.017   0.425   2.883
 2367TIP3    H1 6978   3.989   0.494   2.819
 2367TIP3    H2 6979   4.001   0.469   2.969
 2368TIP3   OH2 6980   5.023  -0.169   3.403
 2368TIP3    H1 6981   4.950  -0.230   3.425
 2368TIP3    H2 6982   5.098  -0.210   3.452
 2369TIP3   OH2 6983   3.733   0.066   2.869
 2369TIP3    H1 6984   3.798   0.138   2.872
 2369TIP3    H2 6985   3.781   0.004   2.809
 2370TIP3   OH2 6986   4.991   0.781   3.354
 2370TIP3    H1 6987   4.949   0.828   3.279
 2370TIP3    H2 6988   5.085   0.801   3.335
 2371TIP3   OH2 6989   3.609   0.282   3.265
 2371TIP3    H1 6990   3.537   0.302   3.326
 2371TIP3    H2 6991   3.573   0.316   3.180
 2372TIP3   OH2 6992   3.763   0.811   4.333
 2372TIP3    H1 6993   3.848   0.811   4.383
 2372TIP3    H2 6994   3.739   0.717   4.336
 2373TIP3   OH2 6995   4.247   0.779   4.377
 2373TIP3    H1 6996   4.341   0.758   4.392
 2373TIP3    H2 6997   4.226   0.720   4.302
 2374TIP3   OH2 6998   4.226   0.352   2.504
 2374TIP3    H1 6999   4.171   0.281   2.545
 2374TIP3    H2 7000   4.301   0.300   2.471
 2375TIP3   OH2 7001   4.888   0.679   4.107
 2375TIP3    H1 7002   4.875   0.611   4.178
 2375TIP3    H2 7003   4.962   0.731   4.142
 2376TIP3   OH2 7004   4.661   0.393   2.418
 2376TIP3    H1 7005   4.721   0.344   2.477
 2376TIP3    H2 7006   4.714   0.399   2.336
 2377TIP3   OH2 7007   3.896   0.218   4.532
 2377TIP3    H1 7008   3.909   0.123   4.545
 2377TIP3    H2 7009   3.807   0.221   4.492
 2378TIP3   OH2 7010   3.875  -0.131   2.744
 2378TIP3    H1 7011   3.937  -0.160   2.814
 2378TIP3    H2 7012   3.933  -0.131   2.666
 2379TIP3   OH2 7013   4.505   0.303   4.308
 2379TIP3    H1 7014   4.465   0.313   4.220
 2379TIP3    H2 7015   4.536   0.210   4.306
 2380TIP3   OH2 7016   4.391   0.063   2.535
 2380TIP3    H1 7017   4.385   0.077   2.631
 2380TIP3    H2 7018   4.366  -0.031   2.527
 2381TIP3   OH2 7019   4.993   0.310   3.911
 2381TIP3    H1 7020   5.068   0.357   3.869
 2381TIP3    H2 7021   4.922   0.376   3.901
 2382TIP3   OH2 7022   4.013  -0.057   4.517
 2382TIP3    H1 7023   4.090  -0.112   4.501
 2382TIP3    H2 7024   4.036  -0.021   4.606
 2383TIP3   OH2 7025   4.076  -0.225   2.948
 2383TIP3    H1 7026   4.053  -0.262   3.035
 2383TIP3    H2 7027   4.111  -0.304   2.902
 2384TIP3   OH2 7028   4.348  -0.124   4.162
 2384TIP3    H1 7029   4.264  -0.073   4.160
 2384TIP3    H2 7030   4.393  -0.097   4.079
 2385TIP3   OH2 7031   4.180  -0.432   2.788
 2385TIP3    H1 7032   4.172  -0.490   2.711
 2385TIP3    H2 7033   4.276  -0.410   2.787
 2386TIP3   OH2 7034   4.865   0.242   4.314
 2386TIP3    H1 7035   4.947   0.215   4.271
 2386TIP3    H2 7036   4.858   0.176   4.385
 2387TIP3   OH2 7037   4.979  -0.120   2.405
 2387TIP3    H1 7038   5.052  -0.169   2.363
 2387TIP3    H2 7039   5.012  -0.028   2.408
 2388TIP3   OH2 7040   4.399  -0.338   4.310
 2388TIP3    H1 7041   4.456  -0.396   4.258
 2388TIP3    H2 7042   4.382  -0.262   4.248
 2389TIP3   OH2 7043   4.516  -0.050   3.962
 2389TIP3    H1 7044   4.600  -0.040   3.916
 2389TIP3    H2 7045   4.461   0.020   3.922
 2390TIP3   OH2 7046   5.080  -0.075   4.360
 2390TIP3    H1 7047   5.113  -0.167   4.368
 2390TIP3    H2 7048   5.162  -0.027   4.344
 2391TIP3   OH2 7049   5.126   0.166   4.097
 2391TIP3    H1 7050   5.067   0.221   4.040
 2391TIP3    H2 7051   5.214   0.187   4.058
 2392TIP3   OH2 7052   4.317  -0.234   4.546
 2392TIP3    H1 7053   4.250  -0.304   4.550
 2392TIP3    H2 7054   4.363  -0.262   4.464
 2393TIP3   OH2 7055   4.769  -0.221   4.416
 2393TIP3    H1 7056   4.761  -0.236   4.512
 2393TIP3    H2 7057   4.815  -0.303   4.387
 2394TIP3   OH2 7058   3.986   0.622   2.692
 2394TIP3    H1 7059   4.081   0.625   2.673
 2394TIP3    H2 7060   3.953   0.675   2.617
 2395TIP3   OH2 7061   3.472   0.005   2.933
 2395TIP3    H1 7062   3.560   0.038   2.905
 2395TIP3    H2 7063   3.443  -0.045   2.857
 2396TIP3   OH2 7064   3.385   0.620   3.321
 2396TIP3    H1 7065   3.314   0.561   3.288
 2396TIP3    H2 7066   3.426   0.562   3.389
 2397TIP3   OH2 7067   3.520   0.473   3.511
 2397TIP3    H1 7068   3.499   0.397   3.568
 2397TIP3    H2 7069   3.545   0.538   3.579
 2398TIP3   OH2 7070   5.244   0.873   3.311
 2398TIP3    H1 7071   5.269   0.905   3.399
 2398TIP3    H2 7072   5.306   0.921   3.253
 2399TIP3   OH2 7073   5.274   0.893   3.592
 2399TIP3    H1 7074   5.231   0.806   3.589
 2399TIP3    H2 7075   5.348   0.873   3.652
 2400TIP3   OH2 7076   5.319   0.570   4.166
 2400TIP3    H1 7077   5.247   0.578   4.231
 2400TIP3    H2 7078   5.360   0.658   4.171
 2401TIP3   OH2 7079   5.140   0.080   2.782
 2401TIP3    H1 7080   5.207   0.148   2.759
 2401TIP3    H2 7081   5.179   0.044   2.865
 2402TIP3   OH2 7082   5.263  -0.051   2.988
 2402TIP3    H1 7083   5.200  -0.092   3.051
 2402TIP3    H2 7084   5.331  -0.014   3.047
 2403TIP3   OH2 7085   5.316   0.342   3.420
 2403TIP3    H1 7086   5.373   0.279   3.372
 2403TIP3    H2 7087   5.310   0.417   3.357
 2404TIP3   OH2 7088   5.149   0.643   3.616
 2404TIP3    H1 7089   5.079   0.685   3.670
 2404TIP3    H2 7090   5.097   0.595   3.548
 2405TIP3   OH2 7091   5.198  -0.144   2.633
 2405TIP3    H1 7092   5.113  -0.143   2.587
 2405TIP3    H2 7093   5.186  -0.068   2.693
 2406TIP3   OH2 7094   5.066  -0.466   2.583
 2406TIP3    H1 7095   5.058  -0.421   2.497
 2406TIP3    H2 7096   5.049  -0.558   2.559
 2407TIP3   OH2 7097   5.078  -0.194   3.138
 2407TIP3    H1 7098   5.091  -0.289   3.146
 2407TIP3    H2 7099   5.062  -0.170   3.232
 2408TIP3   OH2 7100   3.705  -0.124   3.885
 2408TIP3    H1 7101   3.703  -0.153   3.792
 2408TIP3    H2 7102   3.802  -0.120   3.901
 2409TIP3   OH2 7103   5.371   0.228   3.992
 2409TIP3    H1 7104   5.443   0.162   3.980
 2409TIP3    H2 7105   5.399   0.300   3.933
 2410TIP3   OH2 7106   5.559   0.030   4.001
 2410TIP3    H1 7107   5.488  -0.021   4.046
 2410TIP3    H2 7108   5.638  -0.013   4.037
 2411TIP3   OH2 7109   5.060  -0.481   2.981
 2411TIP3    H1 7110   5.105  -0.515   3.062
 2411TIP3    H2 7111   5.134  -0.440   2.932
 2412TIP3   OH2 7112   5.239  -0.274   3.528
 2412TIP3    H1 7113   5.329  -0.260   3.492
 2412TIP3    H2 7114   5.255  -0.255   3.622
 2413TIP3   OH2 7115   5.306  -0.150   3.772
 2413TIP3    H1 7116   5.223  -0.114   3.811
 2413TIP3    H2 7117   5.338  -0.074   3.719
 2414TIP3   OH2 7118   3.699  -0.463   3.966
 2414TIP3    H1 7119   3.744  -0.471   3.879
 2414TIP3    H2 7120   3.715  -0.371   3.988
 2415TIP3   OH2 7121   4.828   0.738   2.968
 2415TIP3    H1 7122   4.882   0.728   2.887
 2415TIP3    H2 7123   4.877   0.807   3.016
 2416TIP3   OH2 7124   3.931   0.539   4.358
 2416TIP3    H1 7125   3.837   0.518   4.342
 2416TIP3    H2 7126   3.938   0.525   4.453
 2417TIP3   OH2 7127   4.552   0.822   4.037
 2417TIP3    H1 7128   4.592   0.820   4.127
 2417TIP3    H2 7129   4.620   0.872   3.987
 2418TIP3   OH2 7130   4.733   0.972   3.896
 2418TIP3    H1 7131   4.806   0.921   3.860
 2418TIP3    H2 7132   4.782   1.031   3.959
 2419TIP3   OH2 7133   3.778   0.808   3.935
 2419TIP3    H1 7134   3.696   0.851   3.903
 2419TIP3    H2 7135   3.801   0.867   4.008
 2420TIP3   OH2 7136   4.441   0.840   3.583
 2420TIP3    H1 7137   4.381   0.872   3.513
 2420TIP3    H2 7138   4.461   0.924   3.630
 2421TIP3   OH2 7139   4.714   0.780   3.628
 2421TIP3    H1 7140   4.619   0.798   3.612
 2421TIP3    H2 7141   4.756   0.860   3.591
 2422TIP3   OH2 7142   4.921   0.972   3.547
 2422TIP3    H1 7143   4.907   1.058   3.501
 2422TIP3    H2 7144   4.947   0.913   3.473
 2423TIP3   OH2 7145   3.715   0.633   3.662
 2423TIP3    H1 7146   3.722   0.635   3.759
 2423TIP3    H2 7147   3.755   0.548   3.642
 2424TIP3   OH2 7148   3.488   0.399   3.058
 2424TIP3    H1 7149   3.401   0.364   3.028
 2424TIP3    H2 7150   3.472   0.494   3.044
 2425TIP3   OH2 7151   4.256   0.587   2.645
 2425TIP3    H1 7152   4.343   0.612   2.607
 2425TIP3    H2 7153   4.233   0.513   2.584
 2426TIP3   OH2 7154   4.975   0.706   2.735
 2426TIP3    H1 7155   4.963   0.610   2.720
 2426TIP3    H2 7156   4.929   0.742   2.656
 2427TIP3   OH2 7157   3.561   0.430   2.698
 2427TIP3    H1 7158   3.548   0.453   2.791
 2427TIP3    H2 7159   3.648   0.384   2.698
 2428TIP3   OH2 7160   5.202   0.851   3.922
 2428TIP3    H1 7161   5.122   0.818   3.876
 2428TIP3    H2 7162   5.181   0.946   3.928
 2429TIP3   OH2 7163   6.466   0.225   2.696
 2429TIP3    H1 7164   6.439   0.316   2.673
 2429TIP3    H2 7165   6.387   0.176   2.667
 2430TIP3   OH2 7166   6.462   0.222   3.072
 2430TIP3    H1 7167   6.497   0.194   3.159
 2430TIP3    H2 7168   6.422   0.140   3.040
 2431TIP3   OH2 7169   5.764   0.120   3.435
 2431TIP3    H1 7170   5.797   0.054   3.498
 2431TIP3    H2 7171   5.841   0.178   3.428
 2432TIP3   OH2 7172   6.705   0.525   2.753
 2432TIP3    H1 7173   6.698   0.455   2.819
 2432TIP3    H2 7174   6.738   0.599   2.806
 2433TIP3   OH2 7175   5.736   0.526   3.159
 2433TIP3    H1 7176   5.727   0.429   3.162
 2433TIP3    H2 7177   5.833   0.535   3.158
 2434TIP3   OH2 7178   5.437  -0.281   2.952
 2434TIP3    H1 7179   5.393  -0.196   2.970
 2434TIP3    H2 7180   5.370  -0.326   2.897
 2435TIP3   OH2 7181   5.503   0.013   3.113
 2435TIP3    H1 7182   5.552  -0.061   3.155
 2435TIP3    H2 7183   5.570   0.051   3.054
 2436TIP3   OH2 7184   6.355   0.985   2.767
 2436TIP3    H1 7185   6.404   0.915   2.719
 2436TIP3    H2 7186   6.354   0.950   2.857
 2437TIP3   OH2 7187   6.264   0.448   3.119
 2437TIP3    H1 7188   6.303   0.370   3.075
 2437TIP3    H2 7189   6.348   0.494   3.143
 2438TIP3   OH2 7190   6.676  -0.042   3.154
 2438TIP3    H1 7191   6.714  -0.127   3.181
 2438TIP3    H2 7192   6.648  -0.060   3.062
 2439TIP3   OH2 7193   5.649  -0.190   3.223
 2439TIP3    H1 7194   5.730  -0.214   3.274
 2439TIP3    H2 7195   5.667  -0.244   3.143
 2440TIP3   OH2 7196   6.090   0.011   3.020
 2440TIP3    H1 7197   6.181  -0.021   3.035
 2440TIP3    H2 7198   6.045  -0.072   2.990
 2441TIP3   OH2 7199   7.321  -0.051   3.307
 2441TIP3    H1 7200   7.262   0.023   3.285
 2441TIP3    H2 7201   7.374  -0.016   3.381
 2442TIP3   OH2 7202   6.355   0.442   2.562
 2442TIP3    H1 7203   6.312   0.425   2.477
 2442TIP3    H2 7204   6.316   0.529   2.586
 2443TIP3   OH2 7205   6.117   0.368   3.347
 2443TIP3    H1 7206   6.054   0.433   3.385
 2443TIP3    H2 7207   6.159   0.420   3.275
 2444TIP3   OH2 7208   5.887  -0.282   3.319
 2444TIP3    H1 7209   5.951  -0.215   3.348
 2444TIP3    H2 7210   5.935  -0.328   3.249
 2445TIP3   OH2 7211   5.944   0.561   3.443
 2445TIP3    H1 7212   5.919   0.648   3.406
 2445TIP3    H2 7213   5.867   0.545   3.501
 2446TIP3   OH2 7214   5.340   0.254   2.681
 2446TIP3    H1 7215   5.302   0.285   2.598
 2446TIP3    H2 7216   5.372   0.338   2.721
 2447TIP3   OH2 7217   6.779   0.767   2.921
 2447TIP3    H1 7218   6.688   0.759   2.959
 2447TIP3    H2 7219   6.773   0.853   2.875
 2448TIP3   OH2 7220   6.480   0.814   2.593
 2448TIP3    H1 7221   6.531   0.733   2.572
 2448TIP3    H2 7222   6.540   0.881   2.553
 2449TIP3   OH2 7223   6.621   0.599   2.501
 2449TIP3    H1 7224   6.593   0.517   2.459
 2449TIP3    H2 7225   6.658   0.566   2.586
 2450TIP3   OH2 7226   7.005   0.681   3.264
 2450TIP3    H1 7227   6.995   0.604   3.204
 2450TIP3    H2 7228   6.989   0.756   3.203
 2451TIP3   OH2 7229   6.296   0.074   2.523
 2451TIP3    H1 7230   6.211   0.122   2.509
 2451TIP3    H2 7231   6.334   0.080   2.434
 2452TIP3   OH2 7232   6.253  -0.068   2.252
 2452TIP3    H1 7233   6.336  -0.072   2.303
 2452TIP3    H2 7234   6.259  -0.150   2.200
 2453TIP3   OH2 7235   7.201   0.314   3.109
 2453TIP3    H1 7236   7.118   0.368   3.114
 2453TIP3    H2 7237   7.231   0.339   3.019
 2454TIP3   OH2 7238   6.647   0.158   2.506
 2454TIP3    H1 7239   6.596   0.184   2.587
 2454TIP3    H2 7240   6.733   0.131   2.547
 2455TIP3   OH2 7241   6.875   0.201   3.400
 2455TIP3    H1 7242   6.874   0.285   3.449
 2455TIP3    H2 7243   6.791   0.210   3.350
 2456TIP3   OH2 7244   5.880   0.155   2.908
 2456TIP3    H1 7245   5.839   0.095   2.841
 2456TIP3    H2 7246   5.955   0.099   2.940
 2457TIP3   OH2 7247   6.008   0.567   3.057
 2457TIP3    H1 7248   5.988   0.520   2.974
 2457TIP3    H2 7249   6.098   0.534   3.077
 2458TIP3   OH2 7250   6.015   0.122   3.265
 2458TIP3    H1 7251   6.048   0.100   3.176
 2458TIP3    H2 7252   6.059   0.208   3.284
 2459TIP3   OH2 7253   6.536   0.764   3.040
 2459TIP3    H1 7254   6.525   0.843   3.096
 2459TIP3    H2 7255   6.524   0.690   3.103
 2460TIP3   OH2 7256   6.150   0.683   3.586
 2460TIP3    H1 7257   6.091   0.745   3.634
 2460TIP3    H2 7258   6.083   0.630   3.538
 2461TIP3   OH2 7259   6.505   0.041   2.317
 2461TIP3    H1 7260   6.557   0.076   2.394
 2461TIP3    H2 7261   6.496   0.123   2.266
 2462TIP3   OH2 7262   5.897   0.250   3.680
 2462TIP3    H1 7263   5.903   0.332   3.733
 2462TIP3    H2 7264   5.804   0.225   3.697
 2463TIP3   OH2 7265   6.228   0.696   2.587
 2463TIP3    H1 7266   6.309   0.746   2.608
 2463TIP3    H2 7267   6.167   0.765   2.560
 2464TIP3   OH2 7268   5.945   0.852   3.675
 2464TIP3    H1 7269   5.910   0.848   3.584
 2464TIP3    H2 7270   5.865   0.830   3.728
 2465TIP3   OH2 7271   5.746   0.004   2.707
 2465TIP3    H1 7272   5.671   0.037   2.655
 2465TIP3    H2 7273   5.718  -0.085   2.733
 2466TIP3   OH2 7274   6.799   0.621   1.914
 2466TIP3    H1 7275   6.803   0.718   1.901
 2466TIP3    H2 7276   6.884   0.593   1.874
 2467TIP3   OH2 7277   5.524   0.381   3.621
 2467TIP3    H1 7278   5.459   0.357   3.552
 2467TIP3    H2 7279   5.562   0.294   3.646
 2468TIP3   OH2 7280   5.378   0.574   3.252
 2468TIP3    H1 7281   5.474   0.569   3.245
 2468TIP3    H2 7282   5.368   0.653   3.308
 2469TIP3   OH2 7283   7.242   1.025   3.310
 2469TIP3    H1 7284   7.241   0.928   3.322
 2469TIP3    H2 7285   7.159   1.049   3.355
 2470TIP3   OH2 7286   6.348   0.812   3.444
 2470TIP3    H1 7287   6.347   0.905   3.477
 2470TIP3    H2 7288   6.277   0.772   3.498
 2471TIP3   OH2 7289   6.105   0.939   2.396
 2471TIP3    H1 7290   6.061   0.926   2.311
 2471TIP3    H2 7291   6.078   1.030   2.421
 2472TIP3   OH2 7292   5.547   0.790   2.780
 2472TIP3    H1 7293   5.597   0.781   2.864
 2472TIP3    H2 7294   5.485   0.715   2.788
 2473TIP3   OH2 7295   6.307   0.842   2.040
 2473TIP3    H1 7296   6.367   0.775   2.000
 2473TIP3    H2 7297   6.346   0.853   2.129
 2474TIP3   OH2 7298   6.360   0.890   2.308
 2474TIP3    H1 7299   6.274   0.899   2.354
 2474TIP3    H2 7300   6.416   0.853   2.378
 2475TIP3   OH2 7301   7.136   0.152   3.600
 2475TIP3    H1 7302   7.064   0.185   3.544
 2475TIP3    H2 7303   7.157   0.066   3.561
 2476TIP3   OH2 7304   5.730   0.565   3.610
 2476TIP3    H1 7305   5.780   0.548   3.693
 2476TIP3    H2 7306   5.656   0.501   3.618
 2477TIP3   OH2 7307   6.800   0.016   3.594
 2477TIP3    H1 7308   6.852  -0.065   3.580
 2477TIP3    H2 7309   6.825   0.072   3.518
 2478TIP3   OH2 7310   6.066  -0.100   3.418
 2478TIP3    H1 7311   6.008  -0.077   3.494
 2478TIP3    H2 7312   6.051  -0.021   3.361
 2479TIP3   OH2 7313   5.927  -0.185   2.918
 2479TIP3    H1 7314   5.854  -0.240   2.953
 2479TIP3    H2 7315   5.954  -0.237   2.839
 2480TIP3   OH2 7316   6.434  -0.118   2.664
 2480TIP3    H1 7317   6.382  -0.047   2.621
 2480TIP3    H2 7318   6.484  -0.155   2.588
 2481TIP3   OH2 7319   6.611   0.207   3.704
 2481TIP3    H1 7320   6.596   0.154   3.786
 2481TIP3    H2 7321   6.707   0.197   3.697
 2482TIP3   OH2 7322   6.597  -0.095   2.894
 2482TIP3    H1 7323   6.536  -0.071   2.821
 2482TIP3    H2 7324   6.635  -0.177   2.859
 2483TIP3   OH2 7325   5.881  -0.059   3.618
 2483TIP3    H1 7326   5.904  -0.004   3.695
 2483TIP3    H2 7327   5.841  -0.137   3.659
 2484TIP3   OH2 7328   6.599   0.155   3.321
 2484TIP3    H1 7329   6.630   0.083   3.261
 2484TIP3    H2 7330   6.573   0.103   3.400
 2485TIP3   OH2 7331   5.701  -0.335   2.994
 2485TIP3    H1 7332   5.606  -0.320   2.972
 2485TIP3    H2 7333   5.710  -0.430   2.981
 2486TIP3   OH2 7334   5.986  -0.322   2.688
 2486TIP3    H1 7335   6.078  -0.335   2.659
 2486TIP3    H2 7336   5.935  -0.324   2.606
 2487TIP3   OH2 7337   5.804  -0.303   2.464
 2487TIP3    H1 7338   5.732  -0.344   2.415
 2487TIP3    H2 7339   5.853  -0.257   2.394
 2488TIP3   OH2 7340   6.933   1.377   3.408
 2488TIP3    H1 7341   6.931   1.398   3.313
 2488TIP3    H2 7342   7.013   1.425   3.437
 2489TIP3   OH2 7343   5.890   0.488   3.831
 2489TIP3    H1 7344   5.970   0.516   3.878
 2489TIP3    H2 7345   5.826   0.486   3.905
 2490TIP3   OH2 7346   6.357  -0.057   3.089
 2490TIP3    H1 7347   6.421  -0.107   3.036
 2490TIP3    H2 7348   6.356  -0.108   3.171
 2491TIP3   OH2 7349   6.333  -0.175   3.398
 2491TIP3    H1 7350   6.246  -0.131   3.398
 2491TIP3    H2 7351   6.390  -0.112   3.446
 2492TIP3   OH2 7352   6.069   0.228   2.468
 2492TIP3    H1 7353   5.994   0.166   2.459
 2492TIP3    H2 7354   6.053   0.264   2.559
 2493TIP3   OH2 7355   6.969   0.462   3.100
 2493TIP3    H1 7356   6.995   0.511   3.019
 2493TIP3    H2 7357   6.883   0.422   3.073
 2494TIP3   OH2 7358   6.469   0.545   3.466
 2494TIP3    H1 7359   6.490   0.521   3.557
 2494TIP3    H2 7360   6.429   0.633   3.476
 2495TIP3   OH2 7361   6.583  -0.202   2.450
 2495TIP3    H1 7362   6.678  -0.217   2.473
 2495TIP3    H2 7363   6.586  -0.120   2.399
 2496TIP3   OH2 7364   5.758   0.245   3.144
 2496TIP3    H1 7365   5.801   0.219   3.060
 2496TIP3    H2 7366   5.801   0.185   3.208
 2497TIP3   OH2 7367   6.212   0.375   2.281
 2497TIP3    H1 7368   6.165   0.461   2.290
 2497TIP3    H2 7369   6.162   0.321   2.346
 2498TIP3   OH2 7370   5.640   0.170   3.759
 2498TIP3    H1 7371   5.664   0.155   3.852
 2498TIP3    H2 7372   5.571   0.103   3.745
 2499TIP3   OH2 7373   6.358   0.289   3.776
 2499TIP3    H1 7374   6.298   0.227   3.731
 2499TIP3    H2 7375   6.445   0.266   3.736
 2500TIP3   OH2 7376   6.628   0.806   3.362
 2500TIP3    H1 7377   6.531   0.803   3.374
 2500TIP3    H2 7378   6.655   0.857   3.441
 2501TIP3   OH2 7379   7.255   0.732   3.354
 2501TIP3    H1 7380   7.157   0.728   3.343
 2501TIP3    H2 7381   7.282   0.704   3.263
 2502TIP3   OH2 7382   6.719   0.694   2.174
 2502TIP3    H1 7383   6.734   0.629   2.244
 2502TIP3    H2 7384   6.762   0.654   2.097
 2503TIP3   OH2 7385   6.733   0.325   3.020
 2503TIP3    H1 7386   6.640   0.298   3.030
 2503TIP3    H2 7387   6.769   0.246   2.974
 2504TIP3   OH2 7388   5.860   0.551   2.767
 2504TIP3    H1 7389   5.861   0.634   2.716
 2504TIP3    H2 7390   5.766   0.540   2.783
 2505TIP3   OH2 7391   5.428  -0.148   2.476
 2505TIP3    H1 7392   5.476  -0.064   2.493
 2505TIP3    H2 7393   5.351  -0.137   2.535
 2506TIP3   OH2 7394   6.000   0.318   2.713
 2506TIP3    H1 7395   5.963   0.407   2.733
 2506TIP3    H2 7396   5.966   0.267   2.788
 2507TIP3   OH2 7397   6.130   0.896   3.239
 2507TIP3    H1 7398   6.172   0.969   3.189
 2507TIP3    H2 7399   6.207   0.862   3.289
 2508TIP3   OH2 7400   5.780   0.792   2.622
 2508TIP3    H1 7401   5.695   0.800   2.668
 2508TIP3    H2 7402   5.812   0.885   2.626
 2509TIP3   OH2 7403   6.519   0.532   3.197
 2509TIP3    H1 7404   6.510   0.530   3.295
 2509TIP3    H2 7405   6.598   0.479   3.184
 2510TIP3   OH2 7406   6.454   0.406   2.113
 2510TIP3    H1 7407   6.520   0.393   2.186
 2510TIP3    H2 7408   6.371   0.408   2.163
 2511TIP3   OH2 7409   6.766   1.067   3.251
 2511TIP3    H1 7410   6.689   1.008   3.242
 2511TIP3    H2 7411   6.752   1.130   3.177
 2512TIP3   OH2 7412   6.830   0.900   1.898
 2512TIP3    H1 7413   6.875   0.977   1.859
 2512TIP3    H2 7414   6.749   0.945   1.930
 2513TIP3   OH2 7415   6.638   0.343   2.301
 2513TIP3    H1 7416   6.646   0.289   2.382
 2513TIP3    H2 7417   6.734   0.352   2.279
 2514TIP3   OH2 7418   5.569   0.759   3.399
 2514TIP3    H1 7419   5.622   0.685   3.432
 2514TIP3    H2 7420   5.595   0.829   3.460
 2515TIP3   OH2 7421   5.852   0.414   2.078
 2515TIP3    H1 7422   5.867   0.322   2.049
 2515TIP3    H2 7423   5.839   0.401   2.174
 2516TIP3   OH2 7424   5.805   0.408   2.351
 2516TIP3    H1 7425   5.871   0.380   2.416
 2516TIP3    H2 7426   5.807   0.506   2.362
 2517TIP3   OH2 7427   5.533   0.099   2.554
 2517TIP3    H1 7428   5.473   0.147   2.613
 2517TIP3    H2 7429   5.556   0.170   2.491
 2518TIP3   OH2 7430   6.069   0.606   2.287
 2518TIP3    H1 7431   5.984   0.627   2.329
 2518TIP3    H2 7432   6.093   0.693   2.252
 2519TIP3   OH2 7433   6.273  -0.334   2.714
 2519TIP3    H1 7434   6.321  -0.250   2.700
 2519TIP3    H2 7435   6.244  -0.326   2.806
 2520TIP3   OH2 7436   6.521  -0.015   3.543
 2520TIP3    H1 7437   6.533   0.061   3.604
 2520TIP3    H2 7438   6.609  -0.056   3.551
 2521TIP3   OH2 7439   5.813   0.680   2.370
 2521TIP3    H1 7440   5.784   0.750   2.307
 2521TIP3    H2 7441   5.798   0.724   2.456
 2522TIP3   OH2 7442   6.818   0.088   2.893
 2522TIP3    H1 7443   6.747   0.022   2.906
 2522TIP3    H2 7444   6.893   0.046   2.940
 2523TIP3   OH2 7445   5.529   0.315   2.362
 2523TIP3    H1 7446   5.593   0.387   2.372
 2523TIP3    H2 7447   5.578   0.260   2.296
 2524TIP3   OH2 7448   5.453  -0.432   2.495
 2524TIP3    H1 7449   5.492  -0.342   2.493
 2524TIP3    H2 7450   5.364  -0.411   2.526
 2525TIP3   OH2 7451   6.787   1.039   2.842
 2525TIP3    H1 7452   6.745   1.087   2.767
 2525TIP3    H2 7453   6.881   1.058   2.823
 2526TIP3   OH2 7454   5.400   0.520   2.749
 2526TIP3    H1 7455   5.334   0.557   2.809
 2526TIP3    H2 7456   5.376   0.566   2.665
 2527TIP3   OH2 7457   5.559   1.068   3.819
 2527TIP3    H1 7458   5.645   1.066   3.867
 2527TIP3    H2 7459   5.537   0.973   3.819
 2528TIP3   OH2 7460   6.044   1.035   3.862
 2528TIP3    H1 7461   6.136   1.009   3.873
 2528TIP3    H2 7462   6.016   0.976   3.790
 2529TIP3   OH2 7463   6.035   0.585   1.965
 2529TIP3    H1 7464   5.961   0.536   2.007
 2529TIP3    H2 7465   6.108   0.545   2.015
 2530TIP3   OH2 7466   6.679   0.940   3.598
 2530TIP3    H1 7467   6.670   0.869   3.666
 2530TIP3    H2 7468   6.758   0.989   3.629
 2531TIP3   OH2 7469   6.454   0.658   1.909
 2531TIP3    H1 7470   6.510   0.601   1.963
 2531TIP3    H2 7471   6.504   0.662   1.825
 2532TIP3   OH2 7472   5.690   0.475   4.021
 2532TIP3    H1 7473   5.708   0.379   4.029
 2532TIP3    H2 7474   5.602   0.476   3.978
 2533TIP3   OH2 7475   5.668   0.124   2.217
 2533TIP3    H1 7476   5.725   0.096   2.291
 2533TIP3    H2 7477   5.734   0.127   2.145
 2534TIP3   OH2 7478   6.299   0.561   3.794
 2534TIP3    H1 7479   6.256   0.573   3.708
 2534TIP3    H2 7480   6.328   0.467   3.791
 2535TIP3   OH2 7481   6.152   0.326   2.011
 2535TIP3    H1 7482   6.172   0.338   2.106
 2535TIP3    H2 7483   6.148   0.229   2.006
 2536TIP3   OH2 7484   6.791   0.566   3.401
 2536TIP3    H1 7485   6.864   0.613   3.355
 2536TIP3    H2 7486   6.719   0.630   3.389
 2537TIP3   OH2 7487   5.810   0.203   4.003
 2537TIP3    H1 7488   5.885   0.145   3.986
 2537TIP3    H2 7489   5.833   0.236   4.093
 2538TIP3   OH2 7490   5.866   0.040   2.440
 2538TIP3    H1 7491   5.848   0.002   2.528
 2538TIP3    H2 7492   5.904  -0.037   2.392
 2539TIP3   OH2 7493   6.144   0.131   3.647
 2539TIP3    H1 7494   6.061   0.183   3.647
 2539TIP3    H2 7495   6.189   0.160   3.564
 2540TIP3   OH2 7496   5.971  -0.161   2.287
 2540TIP3    H1 7497   5.964  -0.244   2.234
 2540TIP3    H2 7498   6.055  -0.124   2.256
 2541TIP3   OH2 7499   6.663   0.501   3.803
 2541TIP3    H1 7500   6.738   0.467   3.753
 2541TIP3    H2 7501   6.654   0.433   3.872
 2542TIP3   OH2 7502   6.202  -0.078   3.799
 2542TIP3    H1 7503   6.245  -0.144   3.743
 2542TIP3    H2 7504   6.181  -0.005   3.735
 2543TIP3   OH2 7505   6.313   0.209   3.448
 2543TIP3    H1 7506   6.395   0.222   3.399
 2543TIP3    H2 7507   6.255   0.277   3.411
 2544TIP3   OH2 7508   6.882   0.182   3.859
 2544TIP3    H1 7509   6.920   0.093   3.856
 2544TIP3    H2 7510   6.952   0.236   3.821
 2545TIP3   OH2 7511   6.923   0.421   3.585
 2545TIP3    H1 7512   6.864   0.476   3.529
 2545TIP3    H2 7513   7.010   0.444   3.546
 2546TIP3   OH2 7514   6.111   0.024   4.033
 2546TIP3    H1 7515   6.047  -0.049   4.040
 2546TIP3    H2 7516   6.158  -0.004   3.952
 2547TIP3   OH2 7517   6.571   0.040   3.905
 2547TIP3    H1 7518   6.550   0.020   3.998
 2547TIP3    H2 7519   6.606  -0.046   3.874
 2548TIP3   OH2 7520   5.781   0.880   2.180
 2548TIP3    H1 7521   5.877   0.880   2.163
 2548TIP3    H2 7522   5.751   0.934   2.104
 2549TIP3   OH2 7523   5.262   0.264   2.396
 2549TIP3    H1 7524   5.356   0.290   2.386
 2549TIP3    H2 7525   5.263   0.174   2.359
 2550TIP3   OH2 7526   5.179   0.877   2.811
 2550TIP3    H1 7527   5.110   0.816   2.776
 2550TIP3    H2 7528   5.222   0.820   2.878
 2551TIP3   OH2 7529   5.316   0.727   2.997
 2551TIP3    H1 7530   5.303   0.657   3.062
 2551TIP3    H2 7531   5.365   0.792   3.052
 2552TIP3   OH2 7532   7.039   1.133   2.799
 2552TIP3    H1 7533   7.074   1.168   2.882
 2552TIP3    H2 7534   7.100   1.169   2.733
 2553TIP3   OH2 7535   7.069   1.153   3.084
 2553TIP3    H1 7536   7.027   1.065   3.075
 2553TIP3    H2 7537   7.148   1.127   3.135
 2554TIP3   OH2 7538   7.116   0.827   3.654
 2554TIP3    H1 7539   7.043   0.835   3.718
 2554TIP3    H2 7540   7.157   0.916   3.658
 2555TIP3   OH2 7541   6.909   0.348   2.282
 2555TIP3    H1 7542   6.972   0.416   2.249
 2555TIP3    H2 7543   6.967   0.296   2.341
 2556TIP3   OH2 7544   7.056   0.201   2.475
 2556TIP3    H1 7545   6.993   0.161   2.537
 2556TIP3    H2 7546   7.125   0.238   2.534
 2557TIP3   OH2 7547   7.113   0.598   2.909
 2557TIP3    H1 7548   7.167   0.535   2.858
 2557TIP3    H2 7549   7.111   0.676   2.849
 2558TIP3   OH2 7550   6.946   0.899   3.105
 2558TIP3    H1 7551   6.874   0.942   3.155
 2558TIP3    H2 7552   6.897   0.851   3.035
 2559TIP3   OH2 7553   6.872   0.059   2.626
 2559TIP3    H1 7554   6.890  -0.036   2.624
 2559TIP3    H2 7555   6.859   0.076   2.722
 2560TIP3   OH2 7556   5.500   0.139   3.367
 2560TIP3    H1 7557   5.500   0.107   3.275
 2560TIP3    H2 7558   5.597   0.141   3.386
 2561TIP3   OH2 7559   7.168   0.483   3.480
 2561TIP3    H1 7560   7.240   0.418   3.465
 2561TIP3    H2 7561   7.192   0.555   3.418
 2562TIP3   OH2 7562   7.353   0.282   3.491
 2562TIP3    H1 7563   7.286   0.232   3.542
 2562TIP3    H2 7564   7.435   0.242   3.522
 2563TIP3   OH2 7565   7.036  -0.012   3.018
 2563TIP3    H1 7566   7.125  -0.003   2.978
 2563TIP3    H2 7567   7.057   0.005   3.111
 2564TIP3   OH2 7568   7.099   0.109   3.266
 2564TIP3    H1 7569   7.015   0.150   3.296
 2564TIP3    H2 7570   7.135   0.179   3.207
 2565TIP3   OH2 7571   5.489  -0.205   3.446
 2565TIP3    H1 7572   5.540  -0.212   3.363
 2565TIP3    H2 7573   5.519  -0.120   3.480
 2566TIP3   OH2 7574   6.622   0.998   2.455
 2566TIP3    H1 7575   6.674   0.981   2.373
 2566TIP3    H2 7576   6.680   1.061   2.500
 2567TIP3   OH2 7577   5.725   0.801   3.842
 2567TIP3    H1 7578   5.633   0.774   3.825
 2567TIP3    H2 7579   5.736   0.780   3.935
 2568TIP3   OH2 7580   5.903   0.832   3.388
 2568TIP3    H1 7581   5.855   0.908   3.350
 2568TIP3    H2 7582   5.989   0.846   3.344
 2569TIP3   OH2 7583   6.349   1.078   3.527
 2569TIP3    H1 7584   6.391   1.077   3.615
 2569TIP3    H2 7585   6.415   1.128   3.475
 2570TIP3   OH2 7586   6.527   1.229   3.384
 2570TIP3    H1 7587   6.598   1.178   3.342
 2570TIP3    H2 7588   6.580   1.286   3.445
 2571TIP3   OH2 7589   5.580   1.090   3.410
 2571TIP3    H1 7590   5.491   1.125   3.388
 2571TIP3    H2 7591   5.589   1.123   3.501
 2572TIP3   OH2 7592   5.816   1.069   3.269
 2572TIP3    H1 7593   5.730   1.082   3.315
 2572TIP3    H2 7594   5.796   1.102   3.180
 2573TIP3   OH2 7595   6.242   1.098   3.067
 2573TIP3    H1 7596   6.173   1.119   3.001
 2573TIP3    H2 7597   6.255   1.186   3.110
 2574TIP3   OH2 7598   6.511   1.038   3.119
 2574TIP3    H1 7599   6.417   1.054   3.099
 2574TIP3    H2 7600   6.554   1.113   3.075
 2575TIP3   OH2 7601   6.718   1.230   3.034
 2575TIP3    H1 7602   6.704   1.314   2.986
 2575TIP3    H2 7603   6.745   1.170   2.960
 2576TIP3   OH2 7604   5.491   0.884   3.156
 2576TIP3    H1 7605   5.517   0.858   3.247
 2576TIP3    H2 7606   5.564   0.841   3.106
 2577TIP3   OH2 7607   5.686   0.755   3.012
 2577TIP3    H1 7608   5.701   0.671   3.062
 2577TIP3    H2 7609   5.776   0.792   3.011
 2578TIP3   OH2 7610   5.951   0.850   3.017
 2578TIP3    H1 7611   5.983   0.758   3.006
 2578TIP3    H2 7612   5.995   0.873   3.100
 2579TIP3   OH2 7613   5.279   0.654   2.547
 2579TIP3    H1 7614   5.192   0.625   2.513
 2579TIP3    H2 7615   5.270   0.750   2.532
 2580TIP3   OH2 7616   6.049   0.840   2.127
 2580TIP3    H1 7617   6.140   0.863   2.096
 2580TIP3    H2 7618   6.027   0.774   2.059
 2581TIP3   OH2 7619   6.766   0.959   2.222
 2581TIP3    H1 7620   6.752   0.862   2.206
 2581TIP3    H2 7621   6.725   0.996   2.141
 2582TIP3   OH2 7622   5.353   0.677   2.188
 2582TIP3    H1 7623   5.354   0.711   2.278
 2582TIP3    H2 7624   5.443   0.640   2.178
 2583TIP3   OH2 7625   6.995   1.107   3.413
 2583TIP3    H1 7626   6.918   1.075   3.362
 2583TIP3    H2 7627   6.977   1.203   3.414
 2584TIP3   OH2 7628   8.230   0.480   2.561
 2584TIP3    H1 7629   8.283   0.452   2.638
 2584TIP3    H2 7630   8.214   0.399   2.512
 2585TIP3   OH2 7631   7.560   0.375   2.923
 2585TIP3    H1 7632   7.595   0.309   2.987
 2585TIP3    H2 7633   7.632   0.440   2.923
 2586TIP3   OH2 7634   7.515   0.774   2.698
 2586TIP3    H1 7635   7.522   0.677   2.682
 2586TIP3    H2 7636   7.570   0.810   2.627
 2587TIP3   OH2 7637   7.298   0.276   2.602
 2587TIP3    H1 7638   7.360   0.214   2.647
 2587TIP3    H2 7639   7.352   0.308   2.529
 2588TIP3   OH2 7640   8.148   1.252   2.253
 2588TIP3    H1 7641   8.213   1.185   2.221
 2588TIP3    H2 7642   8.140   1.229   2.346
 2589TIP3   OH2 7643   7.461   0.098   2.729
 2589TIP3    H1 7644   7.542   0.066   2.775
 2589TIP3    H2 7645   7.458   0.033   2.656
 2590TIP3   OH2 7646   7.910   0.626   2.839
 2590TIP3    H1 7647   7.836   0.677   2.879
 2590TIP3    H2 7648   7.967   0.699   2.812
 2591TIP3   OH2 7649   7.684  -0.024   2.806
 2591TIP3    H1 7650   7.753   0.026   2.853
 2591TIP3    H2 7651   7.731  -0.106   2.784
 2592TIP3   OH2 7652   7.741   0.817   2.934
 2592TIP3    H1 7653   7.710   0.897   2.888
 2592TIP3    H2 7654   7.662   0.800   2.990
 2593TIP3   OH2 7655   7.083   0.544   2.187
 2593TIP3    H1 7656   7.143   0.509   2.119
 2593TIP3    H2 7657   7.140   0.611   2.229
 2594TIP3   OH2 7658   8.548   1.025   2.419
 2594TIP3    H1 7659   8.453   1.021   2.433
 2594TIP3    H2 7660   8.560   1.111   2.374
 2595TIP3   OH2 7661   8.340   1.094   2.148
 2595TIP3    H1 7662   8.348   1.003   2.114
 2595TIP3    H2 7663   8.377   1.145   2.073
 2596TIP3   OH2 7664   8.671   0.459   2.874
 2596TIP3    H1 7665   8.687   0.523   2.945
 2596TIP3    H2 7666   8.586   0.488   2.839
 2597TIP3   OH2 7667   7.667   0.431   2.413
 2597TIP3    H1 7668   7.616   0.416   2.331
 2597TIP3    H2 7669   7.741   0.369   2.398
 2598TIP3   OH2 7670   7.817   0.380   2.754
 2598TIP3    H1 7671   7.841   0.372   2.661
 2598TIP3    H2 7672   7.853   0.468   2.778
 2599TIP3   OH2 7673   8.254   1.019   2.539
 2599TIP3    H1 7674   8.296   1.101   2.572
 2599TIP3    H2 7675   8.299   0.950   2.593
 2600TIP3   OH2 7676   7.947   0.941   3.072
 2600TIP3    H1 7677   7.890   1.004   3.121
 2600TIP3    H2 7678   7.877   0.889   3.026
 2601TIP3   OH2 7679   7.694   0.508   3.165
 2601TIP3    H1 7680   7.699   0.590   3.219
 2601TIP3    H2 7681   7.601   0.482   3.181
 2602TIP3   OH2 7682   7.986   0.994   2.148
 2602TIP3    H1 7683   8.073   1.009   2.107
 2602TIP3    H2 7684   7.926   1.037   2.086
 2603TIP3   OH2 7685   7.742   1.110   3.161
 2603TIP3    H1 7686   7.709   1.106   3.069
 2603TIP3    H2 7687   7.661   1.087   3.213
 2604TIP3   OH2 7688   7.319   0.639   3.108
 2604TIP3    H1 7689   7.257   0.618   3.036
 2604TIP3    H2 7690   7.358   0.551   3.129
 2605TIP3   OH2 7691   7.178   0.825   2.748
 2605TIP3    H1 7692   7.273   0.818   2.730
 2605TIP3    H2 7693   7.172   0.910   2.794
 2606TIP3   OH2 7694   8.144   1.072   2.930
 2606TIP3    H1 7695   8.146   1.163   2.968
 2606TIP3    H2 7696   8.075   1.030   2.987
 2607TIP3   OH2 7697   7.899   1.196   1.888
 2607TIP3    H1 7698   7.841   1.176   1.813
 2607TIP3    H2 7699   7.879   1.290   1.907
 2608TIP3   OH2 7700   7.340   1.054   2.283
 2608TIP3    H1 7701   7.434   1.042   2.306
 2608TIP3    H2 7702   7.307   0.962   2.287
 2609TIP3   OH2 7703   8.159   1.153   1.827
 2609TIP3    H1 7704   8.066   1.171   1.851
 2609TIP3    H2 7705   8.151   1.067   1.783
 2610TIP3   OH2 7706   7.527   0.821   3.100
 2610TIP3    H1 7707   7.577   0.800   3.182
 2610TIP3    H2 7708   7.452   0.757   3.105
 2611TIP3   OH2 7709   7.857   0.158   2.907
 2611TIP3    H1 7710   7.800   0.183   2.983
 2611TIP3    H2 7711   7.845   0.237   2.849
 2612TIP3   OH2 7712   8.418   0.444   3.184
 2612TIP3    H1 7713   8.395   0.398   3.268
 2612TIP3    H2 7714   8.510   0.468   3.205
 2613TIP3   OH2 7715   7.674   0.199   3.109
 2613TIP3    H1 7716   7.702   0.248   3.187
 2613TIP3    H2 7717   7.645   0.114   3.145
 2614TIP3   OH2 7718   8.381   0.399   2.791
 2614TIP3    H1 7719   8.449   0.336   2.764
 2614TIP3    H2 7720   8.358   0.362   2.879
 2615TIP3   OH2 7721   8.720   1.638   2.894
 2615TIP3    H1 7722   8.725   1.657   2.798
 2615TIP3    H2 7723   8.797   1.688   2.926
 2616TIP3   OH2 7724   7.687   0.742   3.320
 2616TIP3    H1 7725   7.768   0.771   3.366
 2616TIP3    H2 7726   7.623   0.743   3.394
 2617TIP3   OH2 7727   8.112   0.063   2.933
 2617TIP3    H1 7728   8.037   0.113   2.894
 2617TIP3    H2 7729   8.182   0.130   2.934
 2618TIP3   OH2 7730   8.254   0.795   2.958
 2618TIP3    H1 7731   8.289   0.775   3.046
 2618TIP3    H2 7732   8.230   0.889   2.966
 2619TIP3   OH2 7733   7.548   0.502   2.648
 2619TIP3    H1 7734   7.588   0.481   2.561
 2619TIP3    H2 7735   7.585   0.433   2.704
 2620TIP3   OH2 7736   7.436   0.427   3.246
 2620TIP3    H1 7737   7.462   0.411   3.339
 2620TIP3    H2 7738   7.368   0.360   3.231
 2621TIP3   OH2 7739   8.161   0.543   3.262
 2621TIP3    H1 7740   8.097   0.485   3.218
 2621TIP3    H2 7741   8.245   0.519   3.219
 2622TIP3   OH2 7742   8.422   1.055   2.854
 2622TIP3    H1 7743   8.325   1.062   2.864
 2622TIP3    H2 7744   8.452   1.112   2.928
 2623TIP3   OH2 7745   7.838   0.587   2.248
 2623TIP3    H1 7746   7.811   0.668   2.203
 2623TIP3    H2 7747   7.762   0.564   2.303
 2624TIP3   OH2 7748   7.962   1.114   2.706
 2624TIP3    H1 7749   7.960   1.208   2.677
 2624TIP3    H2 7750   8.022   1.118   2.783
 2625TIP3   OH2 7751   8.327   0.803   2.689
 2625TIP3    H1 7752   8.307   0.790   2.784
 2625TIP3    H2 7753   8.386   0.728   2.671
 2626TIP3   OH2 7754   8.551   1.320   2.736
 2626TIP3    H1 7755   8.470   1.269   2.717
 2626TIP3    H2 7756   8.548   1.386   2.663
 2627TIP3   OH2 7757   7.361   1.019   2.887
 2627TIP3    H1 7758   7.415   0.940   2.901
 2627TIP3    H2 7759   7.400   1.080   2.951
 2628TIP3   OH2 7760   8.335   0.244   3.013
 2628TIP3    H1 7761   8.353   0.314   3.079
 2628TIP3    H2 7762   8.379   0.167   3.053
 2629TIP3   OH2 7763   7.536   0.952   1.850
 2629TIP3    H1 7764   7.557   1.027   1.792
 2629TIP3    H2 7765   7.593   0.966   1.926
 2630TIP3   OH2 7766   8.603   1.298   2.336
 2630TIP3    H1 7767   8.561   1.346   2.261
 2630TIP3    H2 7768   8.680   1.255   2.293
 2631TIP3   OH2 7769   7.207   0.796   2.249
 2631TIP3    H1 7770   7.120   0.824   2.279
 2631TIP3    H2 7771   7.202   0.823   2.155
 2632TIP3   OH2 7772   7.355   1.324   3.310
 2632TIP3    H1 7773   7.442   1.322   3.355
 2632TIP3    H2 7774   7.335   1.229   3.305
 2633TIP3   OH2 7775   7.837   1.291   3.352
 2633TIP3    H1 7776   7.931   1.270   3.362
 2633TIP3    H2 7777   7.812   1.232   3.278
 2634TIP3   OH2 7778   8.475   1.196   3.085
 2634TIP3    H1 7779   8.466   1.124   3.152
 2634TIP3    H2 7780   8.552   1.245   3.119
 2635TIP3   OH2 7781   7.485   0.732   3.510
 2635TIP3    H1 7782   7.504   0.636   3.515
 2635TIP3    H2 7783   7.398   0.733   3.464
 2636TIP3   OH2 7784   8.093   0.816   3.283
 2636TIP3    H1 7785   8.054   0.829   3.195
 2636TIP3    H2 7786   8.127   0.724   3.278
 2637TIP3   OH2 7787   8.591   0.828   2.881
 2637TIP3    H1 7788   8.648   0.867   2.814
 2637TIP3    H2 7789   8.515   0.890   2.877
 2638TIP3   OH2 7790   7.604   0.457   3.491
 2638TIP3    H1 7791   7.682   0.403   3.471
 2638TIP3    H2 7792   7.629   0.490   3.580
 2639TIP3   OH2 7793   7.943   0.390   3.138
 2639TIP3    H1 7794   7.858   0.439   3.135
 2639TIP3    H2 7795   7.986   0.415   3.053
 2640TIP3   OH2 7796   8.454   0.750   3.284
 2640TIP3    H1 7797   8.543   0.734   3.252
 2640TIP3    H2 7798   8.449   0.690   3.360
 2641TIP3   OH2 7799   7.979   0.168   3.278
 2641TIP3    H1 7800   8.052   0.118   3.240
 2641TIP3    H2 7801   7.972   0.247   3.219
 2642TIP3   OH2 7802   8.109   0.462   2.936
 2642TIP3    H1 7803   8.188   0.470   2.882
 2642TIP3    H2 7804   8.050   0.529   2.896
 2643TIP3   OH2 7805   8.675   0.433   3.335
 2643TIP3    H1 7806   8.725   0.351   3.340
 2643TIP3    H2 7807   8.744   0.500   3.322
 2644TIP3   OH2 7808   8.737   0.686   3.062
 2644TIP3    H1 7809   8.671   0.736   3.008
 2644TIP3    H2 7810   8.819   0.710   3.015
 2645TIP3   OH2 7811   7.909   0.280   3.518
 2645TIP3    H1 7812   7.842   0.209   3.524
 2645TIP3    H2 7813   7.952   0.252   3.435
 2646TIP3   OH2 7814   8.354   0.289   3.389
 2646TIP3    H1 7815   8.353   0.287   3.487
 2646TIP3    H2 7816   8.400   0.205   3.368
 2647TIP3   OH2 7817   7.590   1.157   1.670
 2647TIP3    H1 7818   7.646   1.235   1.683
 2647TIP3    H2 7819   7.537   1.190   1.595
 2648TIP3   OH2 7820   6.968   1.135   2.298
 2648TIP3    H1 7821   6.903   1.069   2.264
 2648TIP3    H2 7822   7.015   1.082   2.365
 2649TIP3   OH2 7823   7.095   0.994   2.493
 2649TIP3    H1 7824   7.100   0.912   2.543
 2649TIP3    H2 7825   7.163   1.048   2.538
 2650TIP3   OH2 7826   8.720   1.111   2.626
 2650TIP3    H1 7827   8.658   1.177   2.662
 2650TIP3    H2 7828   8.667   1.070   2.554
 2651TIP3   OH2 7829   7.295   0.390   2.859
 2651TIP3    H1 7830   7.292   0.364   2.764
 2651TIP3    H2 7831   7.393   0.394   2.873
 2652TIP3   OH2 7832   7.289   0.053   2.939
 2652TIP3    H1 7833   7.344   0.050   2.859
 2652TIP3    H2 7834   7.306   0.144   2.968
 2653TIP3   OH2 7835   8.453   1.235   1.939
 2653TIP3    H1 7836   8.457   1.234   1.842
 2653TIP3    H2 7837   8.462   1.330   1.958
 2654TIP3   OH2 7838   7.521   1.060   3.327
 2654TIP3    H1 7839   7.430   1.030   3.310
 2654TIP3    H2 7840   7.532   1.037   3.420
 2655TIP3   OH2 7841   7.702   1.090   2.874
 2655TIP3    H1 7842   7.653   1.164   2.833
 2655TIP3    H2 7843   7.781   1.091   2.818
 2656TIP3   OH2 7844   8.145   1.335   3.013
 2656TIP3    H1 7845   8.187   1.335   3.102
 2656TIP3    H2 7846   8.212   1.385   2.961
 2657TIP3   OH2 7847   8.325   1.484   2.870
 2657TIP3    H1 7848   8.399   1.435   2.830
 2657TIP3    H2 7849   8.374   1.543   2.932
 2658TIP3   OH2 7850   7.377   1.349   2.897
 2658TIP3    H1 7851   7.288   1.382   2.873
 2658TIP3    H2 7852   7.383   1.381   2.987
 2659TIP3   OH2 7853   7.616   1.328   2.759
 2659TIP3    H1 7854   7.528   1.340   2.801
 2659TIP3    H2 7855   7.597   1.353   2.666
 2660TIP3   OH2 7856   8.041   1.351   2.551
 2660TIP3    H1 7857   7.965   1.370   2.491
 2660TIP3    H2 7858   8.053   1.439   2.593
 2661TIP3   OH2 7859   8.309   1.287   2.597
 2661TIP3    H1 7860   8.216   1.312   2.584
 2661TIP3    H2 7861   8.355   1.366   2.562
 2662TIP3   OH2 7862   8.503   1.479   2.522
 2662TIP3    H1 7863   8.490   1.568   2.480
 2662TIP3    H2 7864   8.541   1.428   2.448
 2663TIP3   OH2 7865   7.296   1.133   2.638
 2663TIP3    H1 7866   7.320   1.108   2.730
 2663TIP3    H2 7867   7.376   1.102   2.592
 2664TIP3   OH2 7868   7.074   0.906   2.033
 2664TIP3    H1 7869   6.986   0.881   1.999
 2664TIP3    H2 7870   7.069   1.002   2.028
 2665TIP3   OH2 7871   7.171   0.965   1.698
 2665TIP3    H1 7872   7.153   0.997   1.787
 2665TIP3    H2 7873   7.247   0.906   1.713
 2666TIP3   OH2 7874   8.760   1.367   2.910
 2666TIP3    H1 7875   8.693   1.330   2.848
 2666TIP3    H2 7876   8.741   1.462   2.900
 2667TIP3   OH2 7877   0.994   1.554   3.926
 2667TIP3    H1 7878   0.911   1.505   3.943
 2667TIP3    H2 7879   0.993   1.624   3.993
 2668TIP3   OH2 7880   0.607   2.033   3.945
 2668TIP3    H1 7881   0.653   1.961   3.896
 2668TIP3    H2 7882   0.591   1.990   4.030
 2669TIP3   OH2 7883   0.519   1.482   4.312
 2669TIP3    H1 7884   0.531   1.452   4.221
 2669TIP3    H2 7885   0.607   1.522   4.329
 2670TIP3   OH2 7886   1.525   0.811   4.296
 2670TIP3    H1 7887   1.554   0.894   4.339
 2670TIP3    H2 7888   1.550   0.828   4.203
 2671TIP3   OH2 7889   1.596   1.017   4.470
 2671TIP3    H1 7890   1.516   1.070   4.451
 2671TIP3    H2 7891   1.630   1.061   4.550
 2672TIP3   OH2 7892   0.371   1.414   4.537
 2672TIP3    H1 7893   0.304   1.482   4.558
 2672TIP3    H2 7894   0.413   1.448   4.455
 2673TIP3   OH2 7895   0.189   1.611   4.622
 2673TIP3    H1 7896   0.165   1.699   4.587
 2673TIP3    H2 7897   0.110   1.589   4.675
 2674TIP3   OH2 7898   1.032   1.819   4.103
 2674TIP3    H1 7899   0.941   1.806   4.139
 2674TIP3    H2 7900   1.020   1.904   4.056
 2675TIP3   OH2 7901   1.319   0.709   4.456
 2675TIP3    H1 7902   1.244   0.768   4.443
 2675TIP3    H2 7903   1.382   0.740   4.388
 2676TIP3   OH2 7904   0.751   1.858   3.790
 2676TIP3    H1 7905   0.822   1.794   3.786
 2676TIP3    H2 7906   0.781   1.924   3.723
 2677TIP3   OH2 7907   1.253   1.727   4.440
 2677TIP3    H1 7908   1.244   1.648   4.381
 2677TIP3    H2 7909   1.237   1.800   4.377
 2678TIP3   OH2 7910   1.449   1.361   4.284
 2678TIP3    H1 7911   1.366   1.414   4.290
 2678TIP3    H2 7912   1.479   1.385   4.194
 2679TIP3   OH2 7913   1.136   1.243   4.582
 2679TIP3    H1 7914   1.128   1.329   4.627
 2679TIP3    H2 7915   1.047   1.240   4.538
 2680TIP3   OH2 7916   0.789   1.811   4.218
 2680TIP3    H1 7917   0.772   1.885   4.278
 2680TIP3    H2 7918   0.774   1.732   4.276
 2681TIP3   OH2 7919   0.399   1.726   4.766
 2681TIP3    H1 7920   0.337   1.790   4.807
 2681TIP3    H2 7921   0.336   1.672   4.713
 2682TIP3   OH2 7922   0.151   1.286   4.855
 2682TIP3    H1 7923   0.150   1.372   4.900
 2682TIP3    H2 7924   0.057   1.271   4.835
 2683TIP3   OH2 7925   0.192   1.895   4.852
 2683TIP3    H1 7926   0.160   1.899   4.759
 2683TIP3    H2 7927   0.110   1.876   4.902
 2684TIP3   OH2 7928   1.483   2.071   4.486
 2684TIP3    H1 7929   1.489   1.974   4.497
 2684TIP3    H2 7930   1.403   2.090   4.538
 2685TIP3   OH2 7931   0.598   1.855   4.624
 2685TIP3    H1 7932   0.595   1.949   4.653
 2685TIP3    H2 7933   0.525   1.816   4.676
 2686TIP3   OH2 7934   1.380   1.200   4.762
 2686TIP3    H1 7935   1.301   1.213   4.707
 2686TIP3    H2 7936   1.394   1.104   4.753
 2687TIP3   OH2 7937  -0.029   1.589   4.793
 2687TIP3    H1 7938   0.032   1.589   4.870
 2687TIP3    H2 7939  -0.106   1.544   4.831
 2688TIP3   OH2 7940   0.913   0.557   4.773
 2688TIP3    H1 7941   0.993   0.524   4.819
 2688TIP3    H2 7942   0.843   0.534   4.834
 2689TIP3   OH2 7943   1.156   0.977   4.679
 2689TIP3    H1 7944   1.105   0.971   4.763
 2689TIP3    H2 7945   1.126   1.063   4.644
 2690TIP3   OH2 7946   0.860   1.211   4.931
 2690TIP3    H1 7947   0.843   1.131   4.985
 2690TIP3    H2 7948   0.957   1.215   4.937
 2691TIP3   OH2 7949   0.879   1.204   4.495
 2691TIP3    H1 7950   0.869   1.141   4.423
 2691TIP3    H2 7951   0.842   1.154   4.571
 2692TIP3   OH2 7952   1.175   2.424   4.581
 2692TIP3    H1 7953   1.177   2.444   4.486
 2692TIP3    H2 7954   1.259   2.466   4.610
 2693TIP3   OH2 7955   0.141   1.542   5.008
 2693TIP3    H1 7956   0.228   1.581   5.025
 2693TIP3    H2 7957   0.122   1.509   5.097
 2694TIP3   OH2 7958   1.220   1.510   4.277
 2694TIP3    H1 7959   1.240   1.557   4.194
 2694TIP3    H2 7960   1.132   1.470   4.258
 2695TIP3   OH2 7961   0.731   1.598   4.641
 2695TIP3    H1 7962   0.727   1.558   4.728
 2695TIP3    H2 7963   0.677   1.679   4.650
 2696TIP3   OH2 7964   0.610   1.330   4.959
 2696TIP3    H1 7965   0.549   1.274   4.907
 2696TIP3    H2 7966   0.697   1.295   4.928
 2697TIP3   OH2 7967   0.878   1.860   4.537
 2697TIP3    H1 7968   0.783   1.842   4.548
 2697TIP3    H2 7969   0.898   1.908   4.619
 2698TIP3   OH2 7970   1.502   1.780   4.528
 2698TIP3    H1 7971   1.405   1.772   4.518
 2698TIP3    H2 7972   1.531   1.750   4.439
 2699TIP3   OH2 7973   0.983   1.378   4.230
 2699TIP3    H1 7974   0.894   1.375   4.191
 2699TIP3    H2 7975   1.012   1.286   4.213
 2700TIP3   OH2 7976   0.381   1.936   4.424
 2700TIP3    H1 7977   0.414   2.009   4.368
 2700TIP3    H2 7978   0.464   1.904   4.463
 2701TIP3   OH2 7979   0.778   1.576   4.372
 2701TIP3    H1 7980   0.769   1.573   4.470
 2701TIP3    H2 7981   0.857   1.522   4.359
 2702TIP3   OH2 7982   1.015   2.115   4.430
 2702TIP3    H1 7983   0.939   2.054   4.421
 2702TIP3    H2 7984   1.000   2.175   4.354
 2703TIP3   OH2 7985  -0.197   1.792   4.618
 2703TIP3    H1 7986  -0.125   1.728   4.624
 2703TIP3    H2 7987  -0.151   1.876   4.628
 2704TIP3   OH2 7988   0.926   0.796   4.633
 2704TIP3    H1 7989   1.016   0.822   4.656
 2704TIP3    H2 7990   0.918   0.707   4.673
 2705TIP3   OH2 7991   0.795   1.049   4.696
 2705TIP3    H1 7992   0.798   1.083   4.787
 2705TIP3    H2 7993   0.825   0.957   4.704
 2706TIP3   OH2 7994   1.422   0.931   4.690
 2706TIP3    H1 7995   1.323   0.930   4.689
 2706TIP3    H2 7996   1.441   0.913   4.597
 2707TIP3   OH2 7997   1.040   1.118   4.166
 2707TIP3    H1 7998   0.999   1.059   4.101
 2707TIP3    H2 7999   1.131   1.080   4.171
 2708TIP3   OH2 8000   1.035   2.088   4.019
 2708TIP3    H1 8001   0.993   2.136   3.945
 2708TIP3    H2 8002   1.129   2.106   3.998
 2709TIP3   OH2 8003  -0.177   2.122   4.980
 2709TIP3    H1 8004  -0.100   2.127   5.040
 2709TIP3    H2 8005  -0.201   2.029   4.989
 2710TIP3   OH2 8006   0.290   2.077   5.043
 2710TIP3    H1 8007   0.384   2.058   5.049
 2710TIP3    H2 8008   0.264   2.020   4.968
 2711TIP3   OH2 8009   0.922   1.989   4.781
 2711TIP3    H1 8010   0.916   1.912   4.843
 2711TIP3    H2 8011   1.011   2.023   4.801
 2712TIP3   OH2 8012   0.546   1.602   4.970
 2712TIP3    H1 8013   0.505   1.618   4.883
 2712TIP3    H2 8014   0.576   1.509   4.963
 2713TIP3   OH2 8015   1.043   1.612   4.583
 2713TIP3    H1 8016   1.113   1.659   4.533
 2713TIP3    H2 8017   0.966   1.669   4.566
 2714TIP3   OH2 8018   0.399   1.151   4.855
 2714TIP3    H1 8019   0.311   1.191   4.844
 2714TIP3    H2 8020   0.442   1.174   4.769
 2715TIP3   OH2 8021   0.915   1.542   4.979
 2715TIP3    H1 8022   0.984   1.510   4.919
 2715TIP3    H2 8023   0.907   1.467   5.041
 2716TIP3   OH2 8024   0.548   0.941   4.959
 2716TIP3    H1 8025   0.494   0.872   4.916
 2716TIP3    H2 8026   0.495   1.019   4.933
 2717TIP3   OH2 8027   0.554   1.257   4.659
 2717TIP3    H1 8028   0.626   1.248   4.596
 2717TIP3    H2 8029   0.491   1.316   4.610
 2718TIP3   OH2 8030   1.133   1.217   5.033
 2718TIP3    H1 8031   1.175   1.130   5.032
 2718TIP3    H2 8032   1.201   1.272   4.990
 2719TIP3   OH2 8033   1.170   1.471   4.773
 2719TIP3    H1 8034   1.113   1.522   4.710
 2719TIP3    H2 8035   1.257   1.486   4.731
 2720TIP3   OH2 8036   0.797   0.981   5.060
 2720TIP3    H1 8037   0.786   0.981   5.156
 2720TIP3    H2 8038   0.706   0.963   5.027
 2721TIP3   OH2 8039   1.027   0.937   4.913
 2721TIP3    H1 8040   0.948   0.936   4.970
 2721TIP3    H2 8041   1.097   0.900   4.971
 2722TIP3   OH2 8042   1.251   0.871   5.068
 2722TIP3    H1 8043   1.260   0.775   5.085
 2722TIP3    H2 8044   1.243   0.909   5.158
 2723TIP3   OH2 8045   1.288   2.178   3.974
 2723TIP3    H1 8046   1.318   2.211   4.061
 2723TIP3    H2 8047   1.352   2.217   3.913
 2724TIP3   OH2 8048   1.319   2.197   4.260
 2724TIP3    H1 8049   1.274   2.110   4.253
 2724TIP3    H2 8050   1.396   2.170   4.312
 2725TIP3   OH2 8051   1.365   1.876   4.829
 2725TIP3    H1 8052   1.295   1.883   4.895
 2725TIP3    H2 8053   1.413   1.961   4.836
 2726TIP3   OH2 8054   1.317   1.251   3.637
 2726TIP3    H1 8055   1.254   1.215   3.700
 2726TIP3    H2 8056   1.388   1.286   3.695
 2727TIP3   OH2 8057   1.368   1.647   4.088
 2727TIP3    H1 8058   1.416   1.581   4.036
 2727TIP3    H2 8059   1.347   1.715   4.022
 2728TIP3   OH2 8060   1.196   1.948   4.282
 2728TIP3    H1 8061   1.123   1.985   4.334
 2728TIP3    H2 8062   1.148   1.898   4.212
 2729TIP3   OH2 8063   1.411   1.533   4.659
 2729TIP3    H1 8064   1.483   1.466   4.649
 2729TIP3    H2 8065   1.438   1.601   4.595
 2730TIP3   OH2 8066   1.595   1.337   4.673
 2730TIP3    H1 8067   1.523   1.284   4.712
 2730TIP3    H2 8068   1.672   1.279   4.689
 2731TIP3   OH2 8069   1.287   1.006   4.193
 2731TIP3    H1 8070   1.372   1.028   4.149
 2731TIP3    H2 8071   1.305   1.042   4.282
 2732TIP3   OH2 8072   1.351   1.145   4.426
 2732TIP3    H1 8073   1.272   1.180   4.473
 2732TIP3    H2 8074   1.382   1.225   4.378
 2733TIP3   OH2 8075   1.815   0.733   4.982
 2733TIP3    H1 8076   1.866   0.666   4.931
 2733TIP3    H2 8077   1.777   0.786   4.909
 2734TIP3   OH2 8078   1.671   0.869   4.798
 2734TIP3    H1 8079   1.583   0.911   4.804
 2734TIP3    H2 8080   1.651   0.802   4.730
 2735TIP3   OH2 8081   0.862   2.057   3.630
 2735TIP3    H1 8082   0.909   2.026   3.551
 2735TIP3    H2 8083   0.928   2.112   3.673
 2736TIP3   OH2 8084  -0.037   1.839   5.017
 2736TIP3    H1 8085  -0.115   1.783   5.004
 2736TIP3    H2 8086  -0.025   1.837   5.113
 2737TIP3   OH2 8087   0.150   1.880   4.567
 2737TIP3    H1 8088   0.106   1.958   4.526
 2737TIP3    H2 8089   0.237   1.891   4.522
 2738TIP3   OH2 8090   0.596   2.122   4.704
 2738TIP3    H1 8091   0.640   2.123   4.791
 2738TIP3    H2 8092   0.661   2.171   4.649
 2739TIP3   OH2 8093   0.774   2.273   4.563
 2739TIP3    H1 8094   0.839   2.222   4.512
 2739TIP3    H2 8095   0.832   2.329   4.618
 2740TIP3   OH2 8096   1.573   0.636   4.662
 2740TIP3    H1 8097   1.483   0.633   4.627
 2740TIP3    H2 8098   1.603   0.543   4.647
 2741TIP3   OH2 8099  -0.171   2.140   4.586
 2741TIP3    H1 8100  -0.263   2.169   4.569
 2741TIP3    H2 8101  -0.160   2.167   4.678
 2742TIP3   OH2 8102   0.069   2.118   4.452
 2742TIP3    H1 8103  -0.020   2.132   4.490
 2742TIP3    H2 8104   0.054   2.136   4.357
 2743TIP3   OH2 8105   0.491   2.140   4.248
 2743TIP3    H1 8106   0.420   2.157   4.183
 2743TIP3    H2 8107   0.504   2.229   4.285
 2744TIP3   OH2 8108   0.760   2.087   4.302
 2744TIP3    H1 8109   0.665   2.097   4.278
 2744TIP3    H2 8110   0.801   2.155   4.247
 2745TIP3   OH2 8111   0.970   2.276   4.211
 2745TIP3    H1 8112   0.953   2.359   4.162
 2745TIP3    H2 8113   0.994   2.215   4.138
 2746TIP3   OH2 8114   0.195   1.938   4.198
 2746TIP3    H1 8115   0.200   1.865   4.132
 2746TIP3    H2 8116   0.249   1.906   4.271
 2747TIP3   OH2 8117   1.007   2.003   3.386
 2747TIP3    H1 8118   0.991   1.909   3.368
 2747TIP3    H2 8119   0.965   2.045   3.309
 2748TIP3   OH2 8120   1.303   0.600   5.097
 2748TIP3    H1 8121   1.326   0.568   5.187
 2748TIP3    H2 8122   1.389   0.593   5.051
 2749TIP3   OH2 8123   1.231   2.154   4.605
 2749TIP3    H1 8124   1.161   2.122   4.544
 2749TIP3    H2 8125   1.223   2.250   4.590
 2750TIP3   OH2 8126   2.516   1.526   3.355
 2750TIP3    H1 8127   2.486   1.618   3.336
 2750TIP3    H2 8128   2.440   1.476   3.318
 2751TIP3   OH2 8129   2.512   1.523   3.734
 2751TIP3    H1 8130   2.542   1.496   3.823
 2751TIP3    H2 8131   2.468   1.442   3.703
 2752TIP3   OH2 8132   1.812   1.417   4.097
 2752TIP3    H1 8133   1.840   1.351   4.163
 2752TIP3    H2 8134   1.885   1.480   4.102
 2753TIP3   OH2 8135   2.755   1.826   3.415
 2753TIP3    H1 8136   2.737   1.758   3.482
 2753TIP3    H2 8137   2.781   1.902   3.470
 2754TIP3   OH2 8138   1.780   1.830   3.824
 2754TIP3    H1 8139   1.771   1.732   3.826
 2754TIP3    H2 8140   1.877   1.838   3.824
 2755TIP3   OH2 8141   1.549   1.320   3.781
 2755TIP3    H1 8142   1.599   1.245   3.819
 2755TIP3    H2 8143   1.600   1.340   3.701
 2756TIP3   OH2 8144   2.400   2.288   3.426
 2756TIP3    H1 8145   2.449   2.214   3.385
 2756TIP3    H2 8146   2.391   2.258   3.518
 2757TIP3   OH2 8147   2.310   1.750   3.781
 2757TIP3    H1 8148   2.348   1.673   3.735
 2757TIP3    H2 8149   2.393   1.795   3.806
 2758TIP3   OH2 8150   3.326   1.070   3.780
 2758TIP3    H1 8151   3.350   1.153   3.827
 2758TIP3    H2 8152   3.337   1.098   3.688
 2759TIP3   OH2 8153   2.726   1.252   3.814
 2759TIP3    H1 8154   2.763   1.165   3.835
 2759TIP3    H2 8155   2.690   1.237   3.724
 2760TIP3   OH2 8156   2.062   0.913   3.782
 2760TIP3    H1 8157   2.036   0.983   3.719
 2760TIP3    H2 8158   2.016   0.835   3.744
 2761TIP3   OH2 8159   2.753   1.000   3.404
 2761TIP3    H1 8160   2.826   0.984   3.468
 2761TIP3    H2 8161   2.803   1.037   3.330
 2762TIP3   OH2 8162   1.695   1.114   3.889
 2762TIP3    H1 8163   1.776   1.095   3.939
 2762TIP3    H2 8164   1.710   1.056   3.811
 2763TIP3   OH2 8165   2.135   1.311   3.675
 2763TIP3    H1 8166   2.227   1.285   3.693
 2763TIP3    H2 8167   2.095   1.226   3.649
 2764TIP3   OH2 8168   3.394   1.277   3.950
 2764TIP3    H1 8169   3.309   1.325   3.935
 2764TIP3    H2 8170   3.417   1.310   4.038
 2765TIP3   OH2 8171   2.053   0.891   4.214
 2765TIP3    H1 8172   1.993   0.930   4.148
 2765TIP3    H2 8173   2.003   0.909   4.296
 2766TIP3   OH2 8174   2.410   1.749   3.222
 2766TIP3    H1 8175   2.363   1.720   3.143
 2766TIP3    H2 8176   2.362   1.832   3.242
 2767TIP3   OH2 8177   2.162   1.669   4.011
 2767TIP3    H1 8178   2.098   1.733   4.049
 2767TIP3    H2 8179   2.203   1.723   3.940
 2768TIP3   OH2 8180   2.967   1.002   3.574
 2768TIP3    H1 8181   2.946   0.957   3.657
 2768TIP3    H2 8182   3.015   1.081   3.605
 2769TIP3   OH2 8183   1.926   1.010   3.999
 2769TIP3    H1 8184   1.987   1.083   4.024
 2769TIP3    H2 8185   1.977   0.970   3.926
 2770TIP3   OH2 8186   1.988   1.862   4.106
 2770TIP3    H1 8187   1.963   1.949   4.069
 2770TIP3    H2 8188   1.911   1.847   4.164
 2771TIP3   OH2 8189   1.396   1.561   3.351
 2771TIP3    H1 8190   1.347   1.590   3.273
 2771TIP3    H2 8191   1.427   1.646   3.388
 2772TIP3   OH2 8192   2.826   2.067   3.582
 2772TIP3    H1 8193   2.736   2.059   3.623
 2772TIP3    H2 8194   2.818   2.154   3.538
 2773TIP3   OH2 8195   3.114   0.970   3.944
 2773TIP3    H1 8196   3.025   0.999   3.918
 2773TIP3    H2 8197   3.170   1.003   3.871
 2774TIP3   OH2 8198   2.414   0.613   3.928
 2774TIP3    H1 8199   2.402   0.519   3.950
 2774TIP3    H2 8200   2.336   0.652   3.973
 2775TIP3   OH2 8201   2.528   2.111   3.259
 2775TIP3    H1 8202   2.581   2.031   3.235
 2775TIP3    H2 8203   2.585   2.180   3.217
 2776TIP3   OH2 8204   2.673   1.897   3.161
 2776TIP3    H1 8205   2.622   1.821   3.133
 2776TIP3    H2 8206   2.709   1.866   3.247
 2777TIP3   OH2 8207   3.055   1.982   3.928
 2777TIP3    H1 8208   3.040   1.904   3.870
 2777TIP3    H2 8209   3.032   2.056   3.867
 2778TIP3   OH2 8210   2.346   1.387   3.187
 2778TIP3    H1 8211   2.257   1.417   3.164
 2778TIP3    H2 8212   2.385   1.372   3.100
 2779TIP3   OH2 8213   2.329   1.135   3.001
 2779TIP3    H1 8214   2.402   1.200   2.997
 2779TIP3    H2 8215   2.352   1.078   2.926
 2780TIP3   OH2 8216   3.248   1.620   3.771
 2780TIP3    H1 8217   3.163   1.670   3.777
 2780TIP3    H2 8218   3.275   1.644   3.680
 2781TIP3   OH2 8219   2.693   1.465   3.158
 2781TIP3    H1 8220   2.636   1.487   3.236
 2781TIP3    H2 8221   2.774   1.435   3.204
 2782TIP3   OH2 8222   2.925   1.498   4.066
 2782TIP3    H1 8223   2.921   1.582   4.115
 2782TIP3    H2 8224   2.837   1.500   4.022
 2783TIP3   OH2 8225   1.923   1.452   3.569
 2783TIP3    H1 8226   1.886   1.390   3.503
 2783TIP3    H2 8227   2.001   1.402   3.602
 2784TIP3   OH2 8228   2.054   1.869   3.720
 2784TIP3    H1 8229   2.032   1.821   3.639
 2784TIP3    H2 8230   2.144   1.836   3.739
 2785TIP3   OH2 8231   2.064   1.425   3.926
 2785TIP3    H1 8232   2.095   1.409   3.835
 2785TIP3    H2 8233   2.102   1.513   3.948
 2786TIP3   OH2 8234   2.586   2.064   3.704
 2786TIP3    H1 8235   2.569   2.144   3.757
 2786TIP3    H2 8236   2.569   1.992   3.768
 2787TIP3   OH2 8237   2.195   1.982   4.249
 2787TIP3    H1 8238   2.138   2.045   4.298
 2787TIP3    H2 8239   2.127   1.930   4.202
 2788TIP3   OH2 8240   2.541   1.312   2.990
 2788TIP3    H1 8241   2.597   1.376   3.039
 2788TIP3    H2 8242   2.560   1.338   2.897
 2789TIP3   OH2 8243   1.948   1.545   4.345
 2789TIP3    H1 8244   1.954   1.629   4.395
 2789TIP3    H2 8245   1.854   1.522   4.362
 2790TIP3   OH2 8246   2.270   2.000   3.242
 2790TIP3    H1 8247   2.351   2.046   3.271
 2790TIP3    H2 8248   2.208   2.074   3.233
 2791TIP3   OH2 8249   1.990   2.150   4.337
 2791TIP3    H1 8250   1.954   2.147   4.246
 2791TIP3    H2 8251   1.911   2.132   4.392
 2792TIP3   OH2 8252   3.046   0.558   3.030
 2792TIP3    H1 8253   2.964   0.571   3.082
 2792TIP3    H2 8254   3.053   0.645   2.985
 2793TIP3   OH2 8255   1.793   1.282   3.364
 2793TIP3    H1 8256   1.726   1.349   3.334
 2793TIP3    H2 8257   1.735   1.215   3.405
 2794TIP3   OH2 8258   2.843   1.924   2.576
 2794TIP3    H1 8259   2.851   2.021   2.565
 2794TIP3    H2 8260   2.937   1.896   2.565
 2795TIP3   OH2 8261   1.570   1.684   4.284
 2795TIP3    H1 8262   1.503   1.662   4.216
 2795TIP3    H2 8263   1.605   1.596   4.308
 2796TIP3   OH2 8264   1.422   1.882   3.908
 2796TIP3    H1 8265   1.518   1.868   3.906
 2796TIP3    H2 8266   1.414   1.956   3.970
 2797TIP3   OH2 8267   3.289   2.324   3.984
 2797TIP3    H1 8268   3.281   2.226   3.988
 2797TIP3    H2 8269   3.200   2.350   4.018
 2798TIP3   OH2 8270   2.394   2.113   4.107
 2798TIP3    H1 8271   2.392   2.205   4.141
 2798TIP3    H2 8272   2.322   2.073   4.162
 2799TIP3   OH2 8273   2.150   2.241   3.059
 2799TIP3    H1 8274   2.108   2.230   2.971
 2799TIP3    H2 8275   2.118   2.330   3.086
 2800TIP3   OH2 8276   1.591   2.090   3.441
 2800TIP3    H1 8277   1.640   2.082   3.526
 2800TIP3    H2 8278   1.535   2.011   3.445
 2801TIP3   OH2 8279   2.356   2.142   2.699
 2801TIP3    H1 8280   2.417   2.072   2.666
 2801TIP3    H2 8281   2.388   2.153   2.792
 2802TIP3   OH2 8282   2.404   2.191   2.969
 2802TIP3    H1 8283   2.316   2.200   3.012
 2802TIP3    H2 8284   2.457   2.156   3.043
 2803TIP3   OH2 8285   3.175   1.461   4.238
 2803TIP3    H1 8286   3.092   1.468   4.189
 2803TIP3    H2 8287   3.191   1.365   4.238
 2804TIP3   OH2 8288   1.774   1.867   4.274
 2804TIP3    H1 8289   1.826   1.848   4.355
 2804TIP3    H2 8290   1.701   1.802   4.281
 2805TIP3   OH2 8291   2.173   0.689   4.057
 2805TIP3    H1 8292   2.084   0.658   4.031
 2805TIP3    H2 8293   2.148   0.771   4.104
 2806TIP3   OH2 8294   2.706   0.804   4.253
 2806TIP3    H1 8295   2.776   0.776   4.316
 2806TIP3    H2 8296   2.623   0.782   4.300
 2807TIP3   OH2 8297   2.951   1.236   4.172
 2807TIP3    H1 8298   2.900   1.230   4.256
 2807TIP3    H2 8299   2.920   1.320   4.134
 2808TIP3   OH2 8300   2.614   1.364   2.727
 2808TIP3    H1 8301   2.583   1.349   2.635
 2808TIP3    H2 8302   2.693   1.418   2.712
 2809TIP3   OH2 8303   2.105   1.204   4.076
 2809TIP3    H1 8304   2.056   1.225   4.158
 2809TIP3    H2 8305   2.089   1.285   4.023
 2810TIP3   OH2 8306   1.986   1.091   3.592
 2810TIP3    H1 8307   1.891   1.069   3.602
 2810TIP3    H2 8308   2.005   1.051   3.504
 2811TIP3   OH2 8309   2.485   1.184   3.316
 2811TIP3    H1 8310   2.428   1.254   3.276
 2811TIP3    H2 8311   2.529   1.148   3.237
 2812TIP3   OH2 8312   2.653   1.457   4.402
 2812TIP3    H1 8313   2.629   1.384   4.464
 2812TIP3    H2 8314   2.745   1.471   4.426
 2813TIP3   OH2 8315   2.638   1.206   3.556
 2813TIP3    H1 8316   2.578   1.237   3.485
 2813TIP3    H2 8317   2.669   1.123   3.513
 2814TIP3   OH2 8318   1.925   1.233   4.286
 2814TIP3    H1 8319   1.957   1.294   4.354
 2814TIP3    H2 8320   1.913   1.151   4.337
 2815TIP3   OH2 8321   2.652   1.453   3.978
 2815TIP3    H1 8322   2.682   1.381   3.919
 2815TIP3    H2 8323   2.621   1.401   4.055
 2816TIP3   OH2 8324   2.319   0.917   3.652
 2816TIP3    H1 8325   2.236   0.913   3.704
 2816TIP3    H2 8326   2.386   0.911   3.722
 2817TIP3   OH2 8327   1.749   0.961   3.667
 2817TIP3    H1 8328   1.660   0.964   3.628
 2817TIP3    H2 8329   1.780   0.874   3.640
 2818TIP3   OH2 8330   2.052   0.981   3.356
 2818TIP3    H1 8331   2.149   0.983   3.345
 2818TIP3    H2 8332   2.020   1.021   3.274
 2819TIP3   OH2 8333   2.808   0.987   3.850
 2819TIP3    H1 8334   2.777   0.999   3.942
 2819TIP3    H2 8335   2.740   0.926   3.816
 2820TIP3   OH2 8336   2.979   2.678   4.071
 2820TIP3    H1 8337   2.976   2.694   3.974
 2820TIP3    H2 8338   3.056   2.733   4.095
 2821TIP3   OH2 8339   1.935   1.788   4.490
 2821TIP3    H1 8340   2.016   1.812   4.540
 2821TIP3    H2 8341   1.871   1.785   4.564
 2822TIP3   OH2 8342   2.399   1.243   3.751
 2822TIP3    H1 8343   2.469   1.197   3.702
 2822TIP3    H2 8344   2.404   1.201   3.839
 2823TIP3   OH2 8345   1.948   0.707   3.638
 2823TIP3    H1 8346   1.967   0.616   3.665
 2823TIP3    H2 8347   2.008   0.714   3.562
 2824TIP3   OH2 8348   2.375   1.141   4.035
 2824TIP3    H1 8349   2.285   1.174   4.053
 2824TIP3    H2 8350   2.431   1.199   4.089
 2825TIP3   OH2 8351   2.104   1.551   3.130
 2825TIP3    H1 8352   2.063   1.462   3.136
 2825TIP3    H2 8353   2.097   1.580   3.224
 2826TIP3   OH2 8354   3.014   1.763   3.764
 2826TIP3    H1 8355   3.036   1.813   3.682
 2826TIP3    H2 8356   2.927   1.723   3.740
 2827TIP3   OH2 8357   2.556   0.839   2.983
 2827TIP3    H1 8358   2.462   0.850   3.000
 2827TIP3    H2 8359   2.590   0.929   2.999
 2828TIP3   OH2 8360   2.517   1.849   4.131
 2828TIP3    H1 8361   2.528   1.823   4.223
 2828TIP3    H2 8362   2.472   1.935   4.139
 2829TIP3   OH2 8363   2.645   1.076   3.093
 2829TIP3    H1 8364   2.739   1.092   3.114
 2829TIP3    H2 8365   2.621   1.155   3.040
 2830TIP3   OH2 8366   1.808   1.553   3.811
 2830TIP3    H1 8367   1.844   1.520   3.726
 2830TIP3    H2 8368   1.841   1.488   3.874
 2831TIP3   OH2 8369   2.261   1.696   2.964
 2831TIP3    H1 8370   2.205   1.777   2.972
 2831TIP3    H2 8371   2.209   1.633   3.019
 2832TIP3   OH2 8372   1.686   1.472   4.423
 2832TIP3    H1 8373   1.713   1.459   4.517
 2832TIP3    H2 8374   1.618   1.404   4.412
 2833TIP3   OH2 8375   2.407   1.585   4.445
 2833TIP3    H1 8376   2.347   1.523   4.401
 2833TIP3    H2 8377   2.494   1.552   4.415
 2834TIP3   OH2 8378   2.673   2.106   4.024
 2834TIP3    H1 8379   2.577   2.103   4.037
 2834TIP3    H2 8380   2.700   2.157   4.103
 2835TIP3   OH2 8381   3.087   1.177   2.936
 2835TIP3    H1 8382   3.022   1.132   2.877
 2835TIP3    H2 8383   3.081   1.266   2.896
 2836TIP3   OH2 8384   3.304   2.037   4.017
 2836TIP3    H1 8385   3.207   2.029   4.009
 2836TIP3    H2 8386   3.330   2.006   3.927
 2837TIP3   OH2 8387   2.783   1.998   2.843
 2837TIP3    H1 8388   2.756   1.931   2.908
 2837TIP3    H2 8389   2.794   1.947   2.761
 2838TIP3   OH2 8390   2.779   1.626   3.681
 2838TIP3    H1 8391   2.686   1.601   3.695
 2838TIP3    H2 8392   2.812   1.546   3.636
 2839TIP3   OH2 8393   1.903   1.851   3.428
 2839TIP3    H1 8394   1.900   1.936   3.378
 2839TIP3    H2 8395   1.810   1.839   3.448
 2840TIP3   OH2 8396   2.049   1.623   3.384
 2840TIP3    H1 8397   2.007   1.711   3.399
 2840TIP3    H2 8398   2.010   1.571   3.456
 2841TIP3   OH2 8399   2.175   2.198   3.903
 2841TIP3    H1 8400   2.215   2.271   3.852
 2841TIP3    H2 8401   2.251   2.165   3.954
 2842TIP3   OH2 8402   1.832   2.087   3.293
 2842TIP3    H1 8403   1.744   2.099   3.332
 2842TIP3    H2 8404   1.865   2.179   3.290
 2843TIP3   OH2 8405   2.564   1.832   3.862
 2843TIP3    H1 8406   2.553   1.833   3.960
 2843TIP3    H2 8407   2.643   1.778   3.852
 2844TIP3   OH2 8408   2.539   1.721   2.744
 2844TIP3    H1 8409   2.593   1.698   2.823
 2844TIP3    H2 8410   2.451   1.694   2.774
 2845TIP3   OH2 8411   2.815   2.364   3.912
 2845TIP3    H1 8412   2.736   2.308   3.907
 2845TIP3    H2 8413   2.797   2.429   3.841
 2846TIP3   OH2 8414   2.877   2.200   2.564
 2846TIP3    H1 8415   2.915   2.274   2.514
 2846TIP3    H2 8416   2.797   2.245   2.599
 2847TIP3   OH2 8417   1.903   0.976   4.433
 2847TIP3    H1 8418   1.807   0.978   4.450
 2847TIP3    H2 8419   1.935   0.924   4.508
 2848TIP3   OH2 8420   2.698   1.654   2.956
 2848TIP3    H1 8421   2.687   1.594   3.032
 2848TIP3    H2 8422   2.796   1.656   2.949
 2849TIP3   OH2 8423   1.612   2.060   4.065
 2849TIP3    H1 8424   1.664   1.985   4.095
 2849TIP3    H2 8425   1.645   2.130   4.123
 2850TIP3   OH2 8426   1.877   1.714   2.750
 2850TIP3    H1 8427   1.922   1.642   2.703
 2850TIP3    H2 8428   1.886   1.690   2.844
 2851TIP3   OH2 8429   1.868   1.710   3.026
 2851TIP3    H1 8430   1.929   1.655   3.079
 2851TIP3    H2 8431   1.904   1.798   3.043
 2852TIP3   OH2 8432   1.612   1.439   3.239
 2852TIP3    H1 8433   1.535   1.459   3.296
 2852TIP3    H2 8434   1.592   1.502   3.168
 2853TIP3   OH2 8435   2.738   1.036   4.108
 2853TIP3    H1 8436   2.813   1.075   4.156
 2853TIP3    H2 8437   2.718   0.957   4.162
 2854TIP3   OH2 8438   2.613   0.796   3.272
 2854TIP3    H1 8439   2.600   0.827   3.181
 2854TIP3    H2 8440   2.654   0.874   3.314
 2855TIP3   OH2 8441   2.093   1.914   2.965
 2855TIP3    H1 8442   2.072   1.970   3.041
 2855TIP3    H2 8443   2.120   1.983   2.901
 2856TIP3   OH2 8444   2.324   0.971   3.381
 2856TIP3    H1 8445   2.384   1.047   3.365
 2856TIP3    H2 8446   2.323   0.967   3.479
 2857TIP3   OH2 8447   2.575   1.291   4.184
 2857TIP3    H1 8448   2.586   1.346   4.264
 2857TIP3    H2 8449   2.625   1.211   4.206
 2858TIP3   OH2 8450   2.458   0.698   3.486
 2858TIP3    H1 8451   2.444   0.777   3.542
 2858TIP3    H2 8452   2.513   0.736   3.414
 2859TIP3   OH2 8453   3.215   1.186   4.170
 2859TIP3    H1 8454   3.117   1.188   4.178
 2859TIP3    H2 8455   3.223   1.151   4.080
 2860TIP3   OH2 8456   2.865   1.384   3.555
 2860TIP3    H1 8457   2.787   1.327   3.568
 2860TIP3    H2 8458   2.934   1.335   3.605
 2861TIP3   OH2 8459   1.595   1.663   3.049
 2861TIP3    H1 8460   1.683   1.705   3.055
 2861TIP3    H2 8461   1.609   1.594   2.983
 2862TIP3   OH2 8462   2.834   2.337   3.504
 2862TIP3    H1 8463   2.791   2.384   3.429
 2862TIP3    H2 8464   2.928   2.357   3.483
 2863TIP3   OH2 8465   1.909   0.600   4.029
 2863TIP3    H1 8466   1.874   0.548   3.956
 2863TIP3    H2 8467   1.905   0.534   4.101
 2864TIP3   OH2 8468   1.448   1.832   3.414
 2864TIP3    H1 8469   1.377   1.862   3.472
 2864TIP3    H2 8470   1.418   1.868   3.327
 2865TIP3   OH2 8471   1.601   2.364   4.486
 2865TIP3    H1 8472   1.686   2.342   4.529
 2865TIP3    H2 8473   1.566   2.274   4.475
 2866TIP3   OH2 8474   2.096   2.365   4.485
 2866TIP3    H1 8475   2.164   2.325   4.540
 2866TIP3    H2 8476   2.068   2.288   4.432
 2867TIP3   OH2 8477   2.070   1.906   2.650
 2867TIP3    H1 8478   2.021   1.847   2.710
 2867TIP3    H2 8479   2.155   1.860   2.642
 2868TIP3   OH2 8480   2.729   2.238   4.257
 2868TIP3    H1 8481   2.716   2.169   4.326
 2868TIP3    H2 8482   2.800   2.293   4.295
 2869TIP3   OH2 8483   2.505   1.950   2.568
 2869TIP3    H1 8484   2.551   1.889   2.628
 2869TIP3    H2 8485   2.564   1.952   2.490
 2870TIP3   OH2 8486   1.738   1.776   4.679
 2870TIP3    H1 8487   1.756   1.682   4.696
 2870TIP3    H2 8488   1.649   1.773   4.639
 2871TIP3   OH2 8489   2.352   1.863   4.452
 2871TIP3    H1 8490   2.300   1.876   4.371
 2871TIP3    H2 8491   2.375   1.768   4.450
 2872TIP3   OH2 8492   2.234   1.646   2.700
 2872TIP3    H1 8493   2.244   1.664   2.796
 2872TIP3    H2 8494   2.233   1.548   2.705
 2873TIP3   OH2 8495   2.836   1.866   4.063
 2873TIP3    H1 8496   2.907   1.917   4.019
 2873TIP3    H2 8497   2.761   1.927   4.054
 2874TIP3   OH2 8498   1.857   1.498   4.667
 2874TIP3    H1 8499   1.930   1.435   4.662
 2874TIP3    H2 8500   1.875   1.536   4.756
 2875TIP3   OH2 8501   1.998   1.306   3.158
 2875TIP3    H1 8502   1.938   1.295   3.234
 2875TIP3    H2 8503   1.953   1.253   3.090
 2876TIP3   OH2 8504   2.187   1.396   4.331
 2876TIP3    H1 8505   2.110   1.456   4.332
 2876TIP3    H2 8506   2.236   1.426   4.251
 2877TIP3   OH2 8507   2.707   1.797   4.461
 2877TIP3    H1 8508   2.785   1.768   4.413
 2877TIP3    H2 8509   2.699   1.730   4.531
 2878TIP3   OH2 8510   2.851   1.465   2.611
 2878TIP3    H1 8511   2.825   1.419   2.530
 2878TIP3    H2 8512   2.817   1.555   2.589
 2879TIP3   OH2 8513   2.338   1.178   4.445
 2879TIP3    H1 8514   2.315   1.100   4.393
 2879TIP3    H2 8515   2.273   1.244   4.415
 2880TIP3   OH2 8516   2.314   0.961   4.253
 2880TIP3    H1 8517   2.339   1.007   4.171
 2880TIP3    H2 8518   2.219   0.941   4.238
 2881TIP3   OH2 8519   2.342   1.503   4.133
 2881TIP3    H1 8520   2.424   1.513   4.083
 2881TIP3    H2 8521   2.284   1.570   4.091
 2882TIP3   OH2 8522   2.935   1.471   4.523
 2882TIP3    H1 8523   2.977   1.384   4.516
 2882TIP3    H2 8524   2.996   1.527   4.473
 2883TIP3   OH2 8525   2.964   1.725   4.254
 2883TIP3    H1 8526   2.906   1.777   4.193
 2883TIP3    H2 8527   3.051   1.741   4.211
 2884TIP3   OH2 8528   2.448   0.731   4.329
 2884TIP3    H1 8529   2.399   0.813   4.304
 2884TIP3    H2 8530   2.377   0.663   4.319
 2885TIP3   OH2 8531   2.582   1.239   4.545
 2885TIP3    H1 8532   2.566   1.243   4.640
 2885TIP3    H2 8533   2.493   1.213   4.512
 2886TIP3   OH2 8534   2.815   1.187   4.399
 2886TIP3    H1 8535   2.736   1.189   4.458
 2886TIP3    H2 8536   2.884   1.152   4.458
 2887TIP3   OH2 8537   3.048   1.129   4.554
 2887TIP3    H1 8538   3.057   1.032   4.568
 2887TIP3    H2 8539   3.040   1.163   4.645
 2888TIP3   OH2 8540   2.535   0.750   4.590
 2888TIP3    H1 8541   2.608   0.685   4.586
 2888TIP3    H2 8542   2.498   0.739   4.500
 2889TIP3   OH2 8543   2.588   0.968   4.743
 2889TIP3    H1 8544   2.586   0.888   4.685
 2889TIP3    H2 8545   2.500   1.003   4.726
 2890TIP3   OH2 8546   1.215   2.172   3.474
 2890TIP3    H1 8547   1.150   2.107   3.439
 2890TIP3    H2 8548   1.263   2.118   3.541
 2891TIP3   OH2 8549   1.357   2.029   3.662
 2891TIP3    H1 8550   1.351   1.957   3.727
 2891TIP3    H2 8551   1.409   2.093   3.714
 2892TIP3   OH2 8552   3.088   2.426   3.459
 2892TIP3    H1 8553   3.106   2.461   3.548
 2892TIP3    H2 8554   3.138   2.487   3.403
 2893TIP3   OH2 8555   3.113   2.446   3.737
 2893TIP3    H1 8556   3.072   2.357   3.737
 2893TIP3    H2 8557   3.187   2.431   3.797
 2894TIP3   OH2 8558   3.158   2.133   4.320
 2894TIP3    H1 8559   3.087   2.132   4.387
 2894TIP3    H2 8560   3.197   2.222   4.334
 2895TIP3   OH2 8561   2.979   1.641   2.936
 2895TIP3    H1 8562   3.047   1.706   2.910
 2895TIP3    H2 8563   3.020   1.602   3.017
 2896TIP3   OH2 8564   3.105   1.507   3.139
 2896TIP3    H1 8565   3.039   1.465   3.198
 2896TIP3    H2 8566   3.168   1.547   3.203
 2897TIP3   OH2 8567   3.161   1.902   3.574
 2897TIP3    H1 8568   3.213   1.838   3.521
 2897TIP3    H2 8569   3.150   1.976   3.512
 2898TIP3   OH2 8570   2.990   2.198   3.769
 2898TIP3    H1 8571   2.920   2.244   3.819
 2898TIP3    H2 8572   2.939   2.152   3.699
 2899TIP3   OH2 8573   3.048   1.415   2.792
 2899TIP3    H1 8574   2.975   1.423   2.725
 2899TIP3    H2 8575   3.023   1.490   2.849
 2900TIP3   OH2 8576   2.916   1.090   2.746
 2900TIP3    H1 8577   2.895   1.131   2.661
 2900TIP3    H2 8578   2.888   0.997   2.731
 2901TIP3   OH2 8579   2.921   1.364   3.286
 2901TIP3    H1 8580   2.925   1.267   3.283
 2901TIP3    H2 8581   2.905   1.380   3.382
 2902TIP3   OH2 8582   1.546   1.435   4.034
 2902TIP3    H1 8583   1.542   1.406   3.941
 2902TIP3    H2 8584   1.643   1.438   4.049
 2903TIP3   OH2 8585   3.205   1.788   4.141
 2903TIP3    H1 8586   3.277   1.721   4.134
 2903TIP3    H2 8587   3.234   1.856   4.079
 2904TIP3   OH2 8588   3.395   1.597   4.154
 2904TIP3    H1 8589   3.321   1.551   4.199
 2904TIP3    H2 8590   3.467   1.533   4.172
 2905TIP3   OH2 8591   2.856   0.823   2.736
 2905TIP3    H1 8592   2.941   0.801   2.780
 2905TIP3    H2 8593   2.791   0.779   2.793
 2906TIP3   OH2 8594   2.916   1.081   3.184
 2906TIP3    H1 8595   2.956   0.992   3.199
 2906TIP3    H2 8596   2.974   1.115   3.114
 2907TIP3   OH2 8597   3.078   1.252   3.677
 2907TIP3    H1 8598   3.163   1.281   3.637
 2907TIP3    H2 8599   3.088   1.291   3.766
 2908TIP3   OH2 8600   3.144   1.399   3.907
 2908TIP3    H1 8601   3.067   1.432   3.958
 2908TIP3    H2 8602   3.176   1.481   3.865
 2909TIP3   OH2 8603   1.765   1.118   4.696
 2909TIP3    H1 8604   1.857   1.140   4.720
 2909TIP3    H2 8605   1.750   1.037   4.749
 2910TIP3   OH2 8606   3.604   0.995   4.467
 2910TIP3    H1 8607   3.656   0.926   4.421
 2910TIP3    H2 8608   3.568   1.047   4.392
 2911TIP3   OH2 8609   3.027   0.829   3.217
 2911TIP3    H1 8610   3.070   0.814   3.304
 2911TIP3    H2 8611   2.963   0.755   3.216
 2912TIP3   OH2 8612   1.725   0.816   4.058
 2912TIP3    H1 8613   1.788   0.741   4.055
 2912TIP3    H2 8614   1.783   0.891   4.038
 2913TIP3   OH2 8615   1.532   1.094   4.114
 2913TIP3    H1 8616   1.581   1.086   4.030
 2913TIP3    H2 8617   1.557   1.183   4.142
 2914TIP3   OH2 8618   3.465   1.127   4.277
 2914TIP3    H1 8619   3.378   1.171   4.289
 2914TIP3    H2 8620   3.438   1.057   4.214
 2915TIP3   OH2 8621   3.105   0.774   2.850
 2915TIP3    H1 8622   3.149   0.702   2.800
 2915TIP3    H2 8623   3.173   0.845   2.848
 2916TIP3   OH2 8624   2.669   2.293   3.117
 2916TIP3    H1 8625   2.724   2.285   3.038
 2916TIP3    H2 8626   2.714   2.364   3.167
 2917TIP3   OH2 8627   1.729   0.668   4.425
 2917TIP3    H1 8628   1.682   0.671   4.510
 2917TIP3    H2 8629   1.664   0.712   4.366
 2918TIP3   OH2 8630   1.766   2.114   4.501
 2918TIP3    H1 8631   1.678   2.074   4.491
 2918TIP3    H2 8632   1.789   2.091   4.593
 2919TIP3   OH2 8633   1.947   2.133   4.051
 2919TIP3    H1 8634   1.899   2.209   4.012
 2919TIP3    H2 8635   2.033   2.146   4.006
 2920TIP3   OH2 8636   2.393   2.378   4.190
 2920TIP3    H1 8637   2.433   2.378   4.280
 2920TIP3    H2 8638   2.459   2.430   4.140
 2921TIP3   OH2 8639   2.569   2.532   4.045
 2921TIP3    H1 8640   2.639   2.479   4.004
 2921TIP3    H2 8641   2.623   2.587   4.107
 2922TIP3   OH2 8642   3.369   0.894   4.144
 2922TIP3    H1 8643   3.276   0.891   4.117
 2922TIP3    H2 8644   3.394   0.799   4.133
 2923TIP3   OH2 8645   1.625   2.391   4.074
 2923TIP3    H1 8646   1.537   2.426   4.050
 2923TIP3    H2 8647   1.633   2.424   4.164
 2924TIP3   OH2 8648   1.862   2.370   3.933
 2924TIP3    H1 8649   1.775   2.383   3.977
 2924TIP3    H2 8650   1.842   2.403   3.843
 2925TIP3   OH2 8651   2.290   2.400   3.730
 2925TIP3    H1 8652   2.218   2.416   3.665
 2925TIP3    H2 8653   2.299   2.489   3.769
 2926TIP3   OH2 8654   2.556   2.337   3.782
 2926TIP3    H1 8655   2.462   2.355   3.763
 2926TIP3    H2 8656   2.600   2.413   3.739
 2927TIP3   OH2 8657   2.756   2.523   3.696
 2927TIP3    H1 8658   2.746   2.610   3.650
 2927TIP3    H2 8659   2.785   2.466   3.622
 2928TIP3   OH2 8660   1.535   2.185   3.820
 2928TIP3    H1 8661   1.562   2.158   3.910
 2928TIP3    H2 8662   1.607   2.143   3.768
 2929TIP3   OH2 8663   1.729   2.057   3.676
 2929TIP3    H1 8664   1.744   1.973   3.725
 2929TIP3    H2 8665   1.820   2.094   3.673
 2930TIP3   OH2 8666   1.994   2.148   3.681
 2930TIP3    H1 8667   2.026   2.056   3.673
 2930TIP3    H2 8668   2.039   2.174   3.763
 2931TIP3   OH2 8669   2.573   0.808   3.768
 2931TIP3    H1 8670   2.527   0.740   3.822
 2931TIP3    H2 8671   2.641   0.756   3.723
 2932TIP3   OH2 8672   3.099   0.689   3.672
 2932TIP3    H1 8673   3.130   0.742   3.596
 2932TIP3    H2 8674   3.002   0.703   3.668
 2933TIP3   OH2 8675   3.193   0.788   3.435
 2933TIP3    H1 8676   3.266   0.739   3.393
 2933TIP3    H2 8677   3.223   0.881   3.421
 2934TIP3   OH2 8678   2.243   0.579   3.651
 2934TIP3    H1 8679   2.320   0.614   3.604
 2934TIP3    H2 8680   2.276   0.573   3.742
 2935TIP3   OH2 8681   2.820   0.694   3.645
 2935TIP3    H1 8682   2.808   0.654   3.558
 2935TIP3    H2 8683   2.802   0.617   3.704
 2936TIP3   OH2 8684   2.845   0.618   3.208
 2936TIP3    H1 8685   2.756   0.656   3.213
 2936TIP3    H2 8686   2.829   0.532   3.255
 2937TIP3   OH2 8687   1.315   1.946   3.208
 2937TIP3    H1 8688   1.233   1.911   3.169
 2937TIP3    H2 8689   1.309   2.039   3.178
 2938TIP3   OH2 8690   2.239   0.724   3.307
 2938TIP3    H1 8691   2.296   0.675   3.368
 2938TIP3    H2 8692   2.274   0.814   3.320
 2939TIP3   OH2 8693   2.100   2.142   2.799
 2939TIP3    H1 8694   2.184   2.166   2.757
 2939TIP3    H2 8695   2.063   2.082   2.732
 2940TIP3   OH2 8696   2.818   2.265   2.885
 2940TIP3    H1 8697   2.807   2.168   2.873
 2940TIP3    H2 8698   2.770   2.299   2.807
 2941TIP3   OH2 8699   2.018   0.776   4.660
 2941TIP3    H1 8700   2.000   0.715   4.733
 2941TIP3    H2 8701   2.105   0.812   4.687
 2942TIP3   OH2 8702   2.271   0.791   4.788
 2942TIP3    H1 8703   2.353   0.771   4.741
 2942TIP3    H2 8704   2.266   0.718   4.852
 2943TIP3   OH2 8705   1.448   2.032   2.901
 2943TIP3    H1 8706   1.374   2.038   2.964
 2943TIP3    H2 8707   1.465   1.936   2.899
 2944TIP3   OH2 8708   3.101   0.859   4.583
 2944TIP3    H1 8709   3.116   0.822   4.673
 2944TIP3    H2 8710   3.188   0.846   4.542
 2945TIP3   OH2 8711   3.042   2.409   4.076
 2945TIP3    H1 8712   2.963   2.377   4.027
 2945TIP3    H2 8713   3.022   2.505   4.078
 2946TIP3   OH2 8714   4.308   1.780   2.839
 2946TIP3    H1 8715   4.281   1.872   2.820
 2946TIP3    H2 8716   4.230   1.732   2.808
 2947TIP3   OH2 8717   4.310   1.779   3.219
 2947TIP3    H1 8718   4.338   1.753   3.309
 2947TIP3    H2 8719   4.263   1.699   3.189
 2948TIP3   OH2 8720   3.608   1.675   3.584
 2948TIP3    H1 8721   3.638   1.608   3.648
 2948TIP3    H2 8722   3.681   1.738   3.588
 2949TIP3   OH2 8723   4.551   2.081   2.903
 2949TIP3    H1 8724   4.535   2.015   2.971
 2949TIP3    H2 8725   4.577   2.158   2.956
 2950TIP3   OH2 8726   3.578   2.086   3.311
 2950TIP3    H1 8727   3.567   1.988   3.313
 2950TIP3    H2 8728   3.675   2.093   3.308
 2951TIP3   OH2 8729   3.286   1.291   3.097
 2951TIP3    H1 8730   3.236   1.373   3.113
 2951TIP3    H2 8731   3.215   1.236   3.060
 2952TIP3   OH2 8732   3.344   1.577   3.267
 2952TIP3    H1 8733   3.393   1.501   3.305
 2952TIP3    H2 8734   3.403   1.606   3.197
 2953TIP3   OH2 8735   4.198   2.545   2.917
 2953TIP3    H1 8736   4.246   2.472   2.872
 2953TIP3    H2 8737   4.190   2.510   3.007
 2954TIP3   OH2 8738   4.105   2.006   3.269
 2954TIP3    H1 8739   4.144   1.931   3.220
 2954TIP3    H2 8740   4.188   2.051   3.294
 2955TIP3   OH2 8741   5.119   1.327   3.267
 2955TIP3    H1 8742   5.146   1.409   3.312
 2955TIP3    H2 8743   5.138   1.348   3.174
 2956TIP3   OH2 8744   4.518   1.507   3.302
 2956TIP3    H1 8745   4.560   1.421   3.322
 2956TIP3    H2 8746   4.487   1.493   3.211
 2957TIP3   OH2 8747   3.858   1.167   3.267
 2957TIP3    H1 8748   3.834   1.241   3.206
 2957TIP3    H2 8749   3.807   1.094   3.224
 2958TIP3   OH2 8750   4.550   1.256   2.890
 2958TIP3    H1 8751   4.623   1.242   2.955
 2958TIP3    H2 8752   4.599   1.294   2.816
 2959TIP3   OH2 8753   3.489   1.370   3.375
 2959TIP3    H1 8754   3.572   1.350   3.422
 2959TIP3    H2 8755   3.501   1.314   3.296
 2960TIP3   OH2 8756   3.931   1.568   3.162
 2960TIP3    H1 8757   4.024   1.540   3.179
 2960TIP3    H2 8758   3.890   1.483   3.133
 2961TIP3   OH2 8759   5.191   1.534   3.437
 2961TIP3    H1 8760   5.108   1.582   3.417
 2961TIP3    H2 8761   5.204   1.558   3.530
 2962TIP3   OH2 8762   3.853   1.148   3.702
 2962TIP3    H1 8763   3.794   1.185   3.633
 2962TIP3    H2 8764   3.800   1.167   3.782
 2963TIP3   OH2 8765   4.202   2.003   2.708
 2963TIP3    H1 8766   4.156   1.981   2.626
 2963TIP3    H2 8767   4.157   2.087   2.733
 2964TIP3   OH2 8768   3.957   1.926   3.498
 2964TIP3    H1 8769   3.894   1.991   3.536
 2964TIP3    H2 8770   3.999   1.978   3.427
 2965TIP3   OH2 8771   4.761   1.259   3.063
 2965TIP3    H1 8772   4.744   1.217   3.148
 2965TIP3    H2 8773   4.813   1.337   3.088
 2966TIP3   OH2 8774   3.723   1.266   3.486
 2966TIP3    H1 8775   3.784   1.340   3.509
 2966TIP3    H2 8776   3.774   1.225   3.412
 2967TIP3   OH2 8777   3.785   2.119   3.594
 2967TIP3    H1 8778   3.760   2.206   3.556
 2967TIP3    H2 8779   3.706   2.104   3.651
 2968TIP3   OH2 8780   3.184   1.810   2.831
 2968TIP3    H1 8781   3.139   1.837   2.749
 2968TIP3    H2 8782   3.212   1.896   2.868
 2969TIP3   OH2 8783   4.621   2.324   3.069
 2969TIP3    H1 8784   4.532   2.316   3.109
 2969TIP3    H2 8785   4.613   2.411   3.025
 2970TIP3   OH2 8786   4.912   1.225   3.432
 2970TIP3    H1 8787   4.824   1.256   3.405
 2970TIP3    H2 8788   4.970   1.258   3.360
 2971TIP3   OH2 8789   4.218   0.890   3.411
 2971TIP3    H1 8790   4.208   0.794   3.410
 2971TIP3    H2 8791   4.137   0.918   3.459
 2972TIP3   OH2 8792   4.324   2.371   2.746
 2972TIP3    H1 8793   4.375   2.290   2.723
 2972TIP3    H2 8794   4.382   2.438   2.703
 2973TIP3   OH2 8795   4.466   2.156   2.650
 2973TIP3    H1 8796   4.421   2.078   2.616
 2973TIP3    H2 8797   4.503   2.122   2.735
 2974TIP3   OH2 8798   4.848   2.238   3.415
 2974TIP3    H1 8799   4.836   2.161   3.355
 2974TIP3    H2 8800   4.828   2.314   3.355
 2975TIP3   OH2 8801   4.137   1.631   2.671
 2975TIP3    H1 8802   4.056   1.682   2.651
 2975TIP3    H2 8803   4.183   1.631   2.585
 2976TIP3   OH2 8804   4.097   1.417   2.388
 2976TIP3    H1 8805   4.165   1.467   2.437
 2976TIP3    H2 8806   4.154   1.354   2.340
 2977TIP3   OH2 8807   5.043   1.875   3.259
 2977TIP3    H1 8808   4.960   1.927   3.264
 2977TIP3    H2 8809   5.071   1.899   3.168
 2978TIP3   OH2 8810   4.485   1.714   2.643
 2978TIP3    H1 8811   4.430   1.740   2.720
 2978TIP3    H2 8812   4.568   1.689   2.688
 2979TIP3   OH2 8813   4.721   1.754   3.554
 2979TIP3    H1 8814   4.718   1.838   3.604
 2979TIP3    H2 8815   4.634   1.758   3.509
 2980TIP3   OH2 8816   3.718   1.712   3.058
 2980TIP3    H1 8817   3.677   1.654   2.990
 2980TIP3    H2 8818   3.795   1.659   3.087
 2981TIP3   OH2 8819   3.849   2.126   3.207
 2981TIP3    H1 8820   3.827   2.081   3.124
 2981TIP3    H2 8821   3.938   2.092   3.226
 2982TIP3   OH2 8822   3.861   1.682   3.413
 2982TIP3    H1 8823   3.891   1.666   3.321
 2982TIP3    H2 8824   3.899   1.769   3.434
 2983TIP3   OH2 8825   4.381   2.321   3.191
 2983TIP3    H1 8826   4.365   2.401   3.243
 2983TIP3    H2 8827   4.365   2.249   3.255
 2984TIP3   OH2 8828   3.992   2.238   3.736
 2984TIP3    H1 8829   3.934   2.302   3.783
 2984TIP3    H2 8830   3.924   2.187   3.688
 2985TIP3   OH2 8831   4.328   1.570   2.469
 2985TIP3    H1 8832   4.386   1.631   2.521
 2985TIP3    H2 8833   4.353   1.596   2.377
 2986TIP3   OH2 8834   3.745   1.795   3.837
 2986TIP3    H1 8835   3.751   1.883   3.881
 2986TIP3    H2 8836   3.649   1.776   3.851
 2987TIP3   OH2 8837   4.071   2.251   2.743
 2987TIP3    H1 8838   4.148   2.307   2.762
 2987TIP3    H2 8839   4.007   2.314   2.707
 2988TIP3   OH2 8840   3.789   2.409   3.821
 2988TIP3    H1 8841   3.755   2.408   3.729
 2988TIP3    H2 8842   3.707   2.392   3.872
 2989TIP3   OH2 8843   4.842   0.813   2.517
 2989TIP3    H1 8844   4.760   0.834   2.568
 2989TIP3    H2 8845   4.855   0.896   2.467
 2990TIP3   OH2 8846   3.586   1.554   2.861
 2990TIP3    H1 8847   3.519   1.601   2.807
 2990TIP3    H2 8848   3.540   1.471   2.879
 2991TIP3   OH2 8849   4.640   2.181   2.065
 2991TIP3    H1 8850   4.648   2.278   2.051
 2991TIP3    H2 8851   4.733   2.152   2.052
 2992TIP3   OH2 8852   3.366   1.938   3.772
 2992TIP3    H1 8853   3.298   1.918   3.704
 2992TIP3    H2 8854   3.401   1.849   3.795
 2993TIP3   OH2 8855   3.218   2.132   3.405
 2993TIP3    H1 8856   3.315   2.133   3.399
 2993TIP3    H2 8857   3.201   2.213   3.455
 2994TIP3   OH2 8858   5.088   2.583   3.462
 2994TIP3    H1 8859   5.083   2.487   3.475
 2994TIP3    H2 8860   5.003   2.610   3.505
 2995TIP3   OH2 8861   4.190   2.369   3.594
 2995TIP3    H1 8862   4.189   2.462   3.626
 2995TIP3    H2 8863   4.119   2.330   3.649
 2996TIP3   OH2 8864   3.951   2.499   2.546
 2996TIP3    H1 8865   3.903   2.480   2.463
 2996TIP3    H2 8866   3.917   2.588   2.570
 2997TIP3   OH2 8867   3.389   2.348   2.929
 2997TIP3    H1 8868   3.436   2.338   3.015
 2997TIP3    H2 8869   3.327   2.273   2.935
 2998TIP3   OH2 8870   4.152   2.400   2.186
 2998TIP3    H1 8871   4.211   2.329   2.151
 2998TIP3    H2 8872   4.186   2.408   2.278
 2999TIP3   OH2 8873   4.202   2.447   2.456
 2999TIP3    H1 8874   4.114   2.457   2.498
 2999TIP3    H2 8875   4.253   2.407   2.529
 3000TIP3   OH2 8876   4.976   1.716   3.733
 3000TIP3    H1 8877   4.893   1.730   3.686
 3000TIP3    H2 8878   4.989   1.620   3.723
 3001TIP3   OH2 8879   3.570   2.122   3.760
 3001TIP3    H1 8880   3.621   2.103   3.842
 3001TIP3    H2 8881   3.496   2.058   3.767
 3002TIP3   OH2 8882   3.979   0.939   3.543
 3002TIP3    H1 8883   3.887   0.909   3.525
 3002TIP3    H2 8884   3.957   1.019   3.595
 3003TIP3   OH2 8885   4.505   1.057   3.739
 3003TIP3    H1 8886   4.575   1.035   3.804
 3003TIP3    H2 8887   4.422   1.042   3.788
 3004TIP3   OH2 8888   4.744   1.491   3.658
 3004TIP3    H1 8889   4.695   1.487   3.743
 3004TIP3    H2 8890   4.717   1.578   3.623
 3005TIP3   OH2 8891   4.403   1.618   2.213
 3005TIP3    H1 8892   4.369   1.594   2.124
 3005TIP3    H2 8893   4.482   1.669   2.189
 3006TIP3   OH2 8894   4.117   0.993   2.515
 3006TIP3    H1 8895   4.083   0.992   2.606
 3006TIP3    H2 8896   4.075   0.911   2.481
 3007TIP3   OH2 8897   3.902   1.460   3.563
 3007TIP3    H1 8898   3.852   1.481   3.644
 3007TIP3    H2 8899   3.886   1.541   3.510
 3008TIP3   OH2 8900   3.786   1.346   3.076
 3008TIP3    H1 8901   3.692   1.321   3.094
 3008TIP3    H2 8902   3.797   1.306   2.987
 3009TIP3   OH2 8903   4.275   1.433   2.804
 3009TIP3    H1 8904   4.222   1.504   2.763
 3009TIP3    H2 8905   4.329   1.404   2.728
 3010TIP3   OH2 8906   4.449   1.710   3.889
 3010TIP3    H1 8907   4.426   1.639   3.953
 3010TIP3    H2 8908   4.542   1.727   3.914
 3011TIP3   OH2 8909   4.433   1.461   3.044
 3011TIP3    H1 8910   4.373   1.494   2.974
 3011TIP3    H2 8911   4.464   1.380   3.000
 3012TIP3   OH2 8912   3.721   1.490   3.771
 3012TIP3    H1 8913   3.743   1.555   3.840
 3012TIP3    H2 8914   3.707   1.409   3.823
 3013TIP3   OH2 8915   3.773   0.968   2.482
 3013TIP3    H1 8916   3.760   0.965   2.579
 3013TIP3    H2 8917   3.694   1.019   2.455
 3014TIP3   OH2 8918   3.314   1.013   3.349
 3014TIP3    H1 8919   3.388   1.044   3.405
 3014TIP3    H2 8920   3.357   0.980   3.269
 3015TIP3   OH2 8921   3.288   0.994   2.871
 3015TIP3    H1 8922   3.330   1.035   2.792
 3015TIP3    H2 8923   3.226   1.066   2.895
 3016TIP3   OH2 8924   4.444   1.709   3.466
 3016TIP3    H1 8925   4.477   1.636   3.408
 3016TIP3    H2 8926   4.415   1.657   3.544
 3017TIP3   OH2 8927   4.111   1.162   3.138
 3017TIP3    H1 8928   4.027   1.167   3.189
 3017TIP3    H2 8929   4.177   1.175   3.208
 3018TIP3   OH2 8930   3.547   1.227   3.145
 3018TIP3    H1 8931   3.452   1.236   3.120
 3018TIP3    H2 8932   3.567   1.134   3.123
 3019TIP3   OH2 8933   3.817   1.219   2.834
 3019TIP3    H1 8934   3.910   1.240   2.811
 3019TIP3    H2 8935   3.768   1.245   2.753
 3020TIP3   OH2 8936   4.605   1.243   3.336
 3020TIP3    H1 8937   4.574   1.256   3.429
 3020TIP3    H2 8938   4.535   1.185   3.302
 3021TIP3   OH2 8939   3.659   1.253   2.615
 3021TIP3    H1 8940   3.586   1.209   2.567
 3021TIP3    H2 8941   3.710   1.290   2.539
 3022TIP3   OH2 8942   4.776   2.933   3.558
 3022TIP3    H1 8943   4.772   2.958   3.464
 3022TIP3    H2 8944   4.852   2.984   3.589
 3023TIP3   OH2 8945   3.727   2.042   3.978
 3023TIP3    H1 8946   3.811   2.068   4.023
 3023TIP3    H2 8947   3.669   2.034   4.056
 3024TIP3   OH2 8948   4.195   1.495   3.234
 3024TIP3    H1 8949   4.271   1.458   3.187
 3024TIP3    H2 8950   4.205   1.457   3.323
 3025TIP3   OH2 8951   3.721   0.984   3.115
 3025TIP3    H1 8952   3.683   0.905   3.159
 3025TIP3    H2 8953   3.761   0.946   3.035
 3026TIP3   OH2 8954   4.172   1.395   3.526
 3026TIP3    H1 8955   4.082   1.432   3.540
 3026TIP3    H2 8956   4.229   1.457   3.577
 3027TIP3   OH2 8957   3.910   1.784   2.621
 3027TIP3    H1 8958   3.837   1.720   2.609
 3027TIP3    H2 8959   3.892   1.819   2.711
 3028TIP3   OH2 8960   4.810   2.020   3.250
 3028TIP3    H1 8961   4.834   2.070   3.169
 3028TIP3    H2 8962   4.723   1.980   3.226
 3029TIP3   OH2 8963   4.368   1.097   2.481
 3029TIP3    H1 8964   4.271   1.082   2.490
 3029TIP3    H2 8965   4.378   1.192   2.504
 3030TIP3   OH2 8966   4.310   2.104   3.618
 3030TIP3    H1 8967   4.327   2.081   3.710
 3030TIP3    H2 8968   4.269   2.191   3.625
 3031TIP3   OH2 8969   4.437   1.343   2.585
 3031TIP3    H1 8970   4.533   1.352   2.600
 3031TIP3    H2 8971   4.416   1.423   2.532
 3032TIP3   OH2 8972   3.602   1.807   3.298
 3032TIP3    H1 8973   3.641   1.778   3.213
 3032TIP3    H2 8974   3.638   1.743   3.361
 3033TIP3   OH2 8975   4.054   1.934   2.441
 3033TIP3    H1 8976   4.007   2.021   2.447
 3033TIP3    H2 8977   3.999   1.879   2.501
 3034TIP3   OH2 8978   3.483   1.725   3.912
 3034TIP3    H1 8979   3.493   1.709   4.008
 3034TIP3    H2 8980   3.412   1.661   3.891
 3035TIP3   OH2 8981   4.205   1.844   3.928
 3035TIP3    H1 8982   4.146   1.780   3.885
 3035TIP3    H2 8983   4.293   1.809   3.902
 3036TIP3   OH2 8984   4.469   2.360   3.512
 3036TIP3    H1 8985   4.372   2.361   3.525
 3036TIP3    H2 8986   4.498   2.412   3.590
 3037TIP3   OH2 8987   4.880   1.434   2.421
 3037TIP3    H1 8988   4.817   1.389   2.360
 3037TIP3    H2 8989   4.875   1.523   2.380
 3038TIP3   OH2 8990   5.098   2.291   3.504
 3038TIP3    H1 8991   5.000   2.287   3.495
 3038TIP3    H2 8992   5.123   2.262   3.413
 3039TIP3   OH2 8993   4.580   2.254   2.330
 3039TIP3    H1 8994   4.553   2.185   2.392
 3039TIP3    H2 8995   4.591   2.206   2.246
 3040TIP3   OH2 8996   4.575   1.883   3.168
 3040TIP3    H1 8997   4.482   1.858   3.182
 3040TIP3    H2 8998   4.609   1.803   3.123
 3041TIP3   OH2 8999   3.701   2.109   2.918
 3041TIP3    H1 9000   3.701   2.192   2.866
 3041TIP3    H2 9001   3.606   2.097   2.933
 3042TIP3   OH2 9002   3.264   1.415   2.623
 3042TIP3    H1 9003   3.311   1.499   2.643
 3042TIP3    H2 9004   3.189   1.421   2.686
 3043TIP3   OH2 9005   3.842   1.877   2.866
 3043TIP3    H1 9006   3.805   1.966   2.882
 3043TIP3    H2 9007   3.803   1.827   2.941
 3044TIP3   OH2 9008   3.971   2.454   3.390
 3044TIP3    H1 9009   4.012   2.527   3.340
 3044TIP3    H2 9010   4.048   2.421   3.441
 3045TIP3   OH2 9011   3.622   2.349   2.773
 3045TIP3    H1 9012   3.536   2.356   2.819
 3045TIP3    H2 9013   3.652   2.442   2.777
 3046TIP3   OH2 9014   4.359   2.088   3.349
 3046TIP3    H1 9015   4.350   2.089   3.447
 3046TIP3    H2 9016   4.441   2.037   3.338
 3047TIP3   OH2 9017   4.333   1.980   2.231
 3047TIP3    H1 9018   4.386   1.955   2.310
 3047TIP3    H2 9019   4.244   1.955   2.260
 3048TIP3   OH2 9020   4.610   2.621   3.399
 3048TIP3    H1 9021   4.530   2.565   3.392
 3048TIP3    H2 9022   4.593   2.687   3.327
 3049TIP3   OH2 9023   4.673   2.457   2.051
 3049TIP3    H1 9024   4.711   2.529   1.999
 3049TIP3    H2 9025   4.593   2.502   2.085
 3050TIP3   OH2 9026   3.694   1.230   3.917
 3050TIP3    H1 9027   3.599   1.241   3.934
 3050TIP3    H2 9028   3.721   1.175   3.992
 3051TIP3   OH2 9029   4.493   1.912   2.446
 3051TIP3    H1 9030   4.484   1.848   2.519
 3051TIP3    H2 9031   4.591   1.913   2.435
 3052TIP3   OH2 9032   3.412   2.317   3.547
 3052TIP3    H1 9033   3.464   2.244   3.585
 3052TIP3    H2 9034   3.435   2.389   3.606
 3053TIP3   OH2 9035   3.701   1.962   2.230
 3053TIP3    H1 9036   3.713   1.870   2.202
 3053TIP3    H2 9037   3.683   1.951   2.326
 3054TIP3   OH2 9038   3.647   1.967   2.502
 3054TIP3    H1 9039   3.714   1.941   2.566
 3054TIP3    H2 9040   3.649   2.065   2.509
 3055TIP3   OH2 9041   3.381   1.660   2.706
 3055TIP3    H1 9042   3.315   1.705   2.764
 3055TIP3    H2 9043   3.395   1.730   2.639
 3056TIP3   OH2 9044   4.535   1.292   3.594
 3056TIP3    H1 9045   4.608   1.336   3.640
 3056TIP3    H2 9046   4.519   1.213   3.650
 3057TIP3   OH2 9047   4.413   1.047   2.762
 3057TIP3    H1 9048   4.396   1.072   2.669
 3057TIP3    H2 9049   4.451   1.129   2.799
 3058TIP3   OH2 9050   3.911   2.165   2.451
 3058TIP3    H1 9051   3.824   2.191   2.487
 3058TIP3    H2 9052   3.928   2.238   2.391
 3059TIP3   OH2 9053   4.102   1.226   2.865
 3059TIP3    H1 9054   4.165   1.299   2.847
 3059TIP3    H2 9055   4.105   1.221   2.963
 3060TIP3   OH2 9056   4.369   1.547   3.674
 3060TIP3    H1 9057   4.385   1.605   3.751
 3060TIP3    H2 9058   4.425   1.470   3.695
 3061TIP3   OH2 9059   4.244   0.954   2.969
 3061TIP3    H1 9060   4.232   1.032   3.027
 3061TIP3    H2 9061   4.305   0.992   2.901
 3062TIP3   OH2 9062   3.654   2.239   2.519
 3062TIP3    H1 9063   3.624   2.309   2.457
 3062TIP3    H2 9064   3.638   2.283   2.606
 3063TIP3   OH2 9065   3.756   0.952   2.760
 3063TIP3    H1 9066   3.752   1.044   2.793
 3063TIP3    H2 9067   3.852   0.937   2.767
 3064TIP3   OH2 9068   5.010   1.446   3.653
 3064TIP3    H1 9069   4.912   1.446   3.663
 3064TIP3    H2 9070   5.017   1.407   3.565
 3065TIP3   OH2 9071   4.661   1.640   3.042
 3065TIP3    H1 9072   4.584   1.582   3.055
 3065TIP3    H2 9073   4.731   1.593   3.091
 3066TIP3   OH2 9074   3.372   1.870   2.514
 3066TIP3    H1 9075   3.435   1.944   2.522
 3066TIP3    H2 9076   3.418   1.817   2.445
 3067TIP3   OH2 9077   3.319   1.144   2.643
 3067TIP3    H1 9078   3.314   1.241   2.641
 3067TIP3    H2 9079   3.236   1.119   2.600
 3068TIP3   OH2 9080   4.629   2.596   2.992
 3068TIP3    H1 9081   4.587   2.642   2.916
 3068TIP3    H2 9082   4.723   2.615   2.971
 3069TIP3   OH2 9083   3.711   0.868   3.515
 3069TIP3    H1 9084   3.673   0.837   3.430
 3069TIP3    H2 9085   3.700   0.789   3.573
 3070TIP3   OH2 9086   3.242   2.081   2.899
 3070TIP3    H1 9087   3.175   2.114   2.961
 3070TIP3    H2 9088   3.215   2.124   2.815
 3071TIP3   OH2 9089   3.399   2.627   3.976
 3071TIP3    H1 9090   3.486   2.627   4.022
 3071TIP3    H2 9091   3.381   2.532   3.968
 3072TIP3   OH2 9092   3.877   2.596   4.013
 3072TIP3    H1 9093   3.971   2.581   4.030
 3072TIP3    H2 9094   3.860   2.533   3.940
 3073TIP3   OH2 9095   3.863   2.166   2.143
 3073TIP3    H1 9096   3.807   2.096   2.183
 3073TIP3    H2 9097   3.938   2.113   2.111
 3074TIP3   OH2 9098   4.527   2.493   3.744
 3074TIP3    H1 9099   4.515   2.425   3.815
 3074TIP3    H2 9100   4.599   2.548   3.779
 3075TIP3   OH2 9101   4.300   2.207   2.055
 3075TIP3    H1 9102   4.344   2.143   2.113
 3075TIP3    H2 9103   4.356   2.207   1.975
 3076TIP3   OH2 9104   3.535   2.046   4.191
 3076TIP3    H1 9105   3.559   1.951   4.194
 3076TIP3    H2 9106   3.451   2.041   4.138
 3077TIP3   OH2 9107   3.509   1.684   2.364
 3077TIP3    H1 9108   3.564   1.651   2.438
 3077TIP3    H2 9109   3.576   1.688   2.293
 3078TIP3   OH2 9110   4.144   2.120   3.943
 3078TIP3    H1 9111   4.097   2.133   3.859
 3078TIP3    H2 9112   4.171   2.025   3.938
 3079TIP3   OH2 9113   4.019   1.881   2.171
 3079TIP3    H1 9114   4.019   1.895   2.268
 3079TIP3    H2 9115   4.016   1.783   2.167
 3080TIP3   OH2 9116   4.632   2.123   3.550
 3080TIP3    H1 9117   4.704   2.172   3.507
 3080TIP3    H2 9118   4.558   2.187   3.541
 3081TIP3   OH2 9119   3.661   1.784   4.185
 3081TIP3    H1 9120   3.722   1.723   4.142
 3081TIP3    H2 9121   3.691   1.772   4.278
 3082TIP3   OH2 9122   3.717   1.586   2.587
 3082TIP3    H1 9123   3.688   1.547   2.671
 3082TIP3    H2 9124   3.751   1.509   2.538
 3083TIP3   OH2 9125   3.987   1.649   3.813
 3083TIP3    H1 9126   3.910   1.709   3.819
 3083TIP3    H2 9127   4.034   1.684   3.734
 3084TIP3   OH2 9128   3.817   1.378   2.429
 3084TIP3    H1 9129   3.789   1.384   2.335
 3084TIP3    H2 9130   3.914   1.387   2.419
 3085TIP3   OH2 9131   4.501   2.052   3.948
 3085TIP3    H1 9132   4.583   2.028   3.903
 3085TIP3    H2 9133   4.497   1.987   4.020
 3086TIP3   OH2 9134   4.640   1.711   2.090
 3086TIP3    H1 9135   4.617   1.665   2.007
 3086TIP3    H2 9136   4.608   1.802   2.067
 3087TIP3   OH2 9137   4.115   1.435   3.931
 3087TIP3    H1 9138   4.109   1.356   3.873
 3087TIP3    H2 9139   4.068   1.504   3.878
 3088TIP3   OH2 9140   4.112   1.224   3.742
 3088TIP3    H1 9141   4.136   1.270   3.659
 3088TIP3    H2 9142   4.017   1.203   3.727
 3089TIP3   OH2 9143   4.139   1.759   3.616
 3089TIP3    H1 9144   4.222   1.774   3.570
 3089TIP3    H2 9145   4.081   1.827   3.576
 3090TIP3   OH2 9146   4.721   1.726   4.001
 3090TIP3    H1 9147   4.771   1.645   4.016
 3090TIP3    H2 9148   4.789   1.787   3.968
 3091TIP3   OH2 9149   4.762   1.979   3.738
 3091TIP3    H1 9150   4.703   2.033   3.680
 3091TIP3    H2 9151   4.849   2.001   3.697
 3092TIP3   OH2 9152   4.000   1.543   4.160
 3092TIP3    H1 9153   3.921   1.491   4.182
 3092TIP3    H2 9154   4.026   1.507   4.074
 3093TIP3   OH2 9155   4.241   0.996   3.814
 3093TIP3    H1 9156   4.205   1.085   3.793
 3093TIP3    H2 9157   4.164   0.942   3.793
 3094TIP3   OH2 9158   4.370   1.493   4.031
 3094TIP3    H1 9159   4.355   1.484   4.127
 3094TIP3    H2 9160   4.280   1.469   3.999
 3095TIP3   OH2 9161   4.606   1.436   3.884
 3095TIP3    H1 9162   4.531   1.444   3.946
 3095TIP3    H2 9163   4.679   1.409   3.944
 3096TIP3   OH2 9164   4.841   1.383   4.037
 3096TIP3    H1 9165   4.851   1.288   4.057
 3096TIP3    H2 9166   4.833   1.423   4.126
 3097TIP3   OH2 9167   3.823   1.332   4.226
 3097TIP3    H1 9168   3.832   1.242   4.190
 3097TIP3    H2 9169   3.861   1.320   4.315
 3098TIP3   OH2 9170   4.338   0.999   4.072
 3098TIP3    H1 9171   4.407   0.930   4.067
 3098TIP3    H2 9172   4.299   0.994   3.983
 3099TIP3   OH2 9173   4.402   1.215   4.231
 3099TIP3    H1 9174   4.378   1.145   4.167
 3099TIP3    H2 9175   4.324   1.275   4.226
 3100TIP3   OH2 9176   3.624   2.442   2.332
 3100TIP3    H1 9177   3.719   2.439   2.312
 3100TIP3    H2 9178   3.592   2.491   2.254
 3101TIP3   OH2 9179   3.104   1.826   2.548
 3101TIP3    H1 9180   3.199   1.848   2.536
 3101TIP3    H2 9181   3.101   1.736   2.508
 3102TIP3   OH2 9182   3.021   2.436   2.960
 3102TIP3    H1 9183   2.951   2.376   2.926
 3102TIP3    H2 9184   3.063   2.379   3.027
 3103TIP3   OH2 9185   3.157   2.287   3.147
 3103TIP3    H1 9186   3.140   2.216   3.211
 3103TIP3    H2 9187   3.204   2.350   3.204
 3104TIP3   OH2 9188   4.883   2.685   2.947
 3104TIP3    H1 9189   4.904   2.721   3.036
 3104TIP3    H2 9190   4.939   2.739   2.890
 3105TIP3   OH2 9191   4.908   2.709   3.229
 3105TIP3    H1 9192   4.867   2.620   3.227
 3105TIP3    H2 9193   4.985   2.692   3.284
 3106TIP3   OH2 9194   4.959   2.383   3.804
 3106TIP3    H1 9195   4.884   2.392   3.867
 3106TIP3    H2 9196   4.997   2.473   3.807
 3107TIP3   OH2 9197   4.774   1.897   2.423
 3107TIP3    H1 9198   4.842   1.962   2.395
 3107TIP3    H2 9199   4.817   1.858   2.502
 3108TIP3   OH2 9200   4.902   1.764   2.626
 3108TIP3    H1 9201   4.835   1.723   2.686
 3108TIP3    H2 9202   4.965   1.804   2.689
 3109TIP3   OH2 9203   4.956   2.158   3.061
 3109TIP3    H1 9204   5.008   2.095   3.008
 3109TIP3    H2 9205   4.947   2.233   2.999
 3110TIP3   OH2 9206   4.787   2.456   3.255
 3110TIP3    H1 9207   4.716   2.501   3.306
 3110TIP3    H2 9208   4.735   2.410   3.186
 3111TIP3   OH2 9209   4.839   1.672   2.274
 3111TIP3    H1 9210   4.767   1.676   2.206
 3111TIP3    H2 9211   4.813   1.749   2.329
 3112TIP3   OH2 9212   4.712   1.344   2.228
 3112TIP3    H1 9213   4.667   1.388   2.154
 3112TIP3    H2 9214   4.685   1.251   2.214
 3113TIP3   OH2 9215   4.716   1.621   2.773
 3113TIP3    H1 9216   4.723   1.525   2.769
 3113TIP3    H2 9217   4.701   1.638   2.869
 3114TIP3   OH2 9218   3.342   1.694   3.520
 3114TIP3    H1 9219   3.339   1.665   3.426
 3114TIP3    H2 9220   3.440   1.696   3.535
 3115TIP3   OH2 9221   5.004   2.046   3.630
 3115TIP3    H1 9222   5.077   1.981   3.620
 3115TIP3    H2 9223   5.029   2.116   3.569
 3116TIP3   OH2 9224   5.192   1.853   3.645
 3116TIP3    H1 9225   5.116   1.805   3.684
 3116TIP3    H2 9226   5.263   1.787   3.661
 3117TIP3   OH2 9227   4.655   1.077   2.211
 3117TIP3    H1 9228   4.728   1.049   2.270
 3117TIP3    H2 9229   4.580   1.022   2.239
 3118TIP3   OH2 9230   4.711   1.338   2.669
 3118TIP3    H1 9231   4.752   1.250   2.684
 3118TIP3    H2 9232   4.769   1.372   2.599
 3119TIP3   OH2 9233   4.873   1.510   3.163
 3119TIP3    H1 9234   4.959   1.537   3.123
 3119TIP3    H2 9235   4.885   1.549   3.252
 3120TIP3   OH2 9236   4.941   1.656   3.395
 3120TIP3    H1 9237   4.863   1.689   3.445
 3120TIP3    H2 9238   4.972   1.738   3.351
 3121TIP3   OH2 9239   3.554   1.374   4.180
 3121TIP3    H1 9240   3.651   1.379   4.194
 3121TIP3    H2 9241   3.531   1.297   4.234
 3122TIP3   OH2 9242   5.395   1.249   3.952
 3122TIP3    H1 9243   5.451   1.181   3.909
 3122TIP3    H2 9244   5.366   1.303   3.875
 3123TIP3   OH2 9245   4.821   1.087   2.705
 3123TIP3    H1 9246   4.869   1.072   2.790
 3123TIP3    H2 9247   4.760   1.011   2.704
 3124TIP3   OH2 9248   3.523   1.072   3.518
 3124TIP3    H1 9249   3.588   1.001   3.534
 3124TIP3    H2 9250   3.580   1.151   3.519
 3125TIP3   OH2 9251   3.325   1.346   3.600
 3125TIP3    H1 9252   3.373   1.345   3.515
 3125TIP3    H2 9253   3.347   1.434   3.634
 3126TIP3   OH2 9254   5.265   1.388   3.758
 3126TIP3    H1 9255   5.179   1.427   3.781
 3126TIP3    H2 9256   5.235   1.316   3.699
 3127TIP3   OH2 9257   4.902   1.022   2.340
 3127TIP3    H1 9258   4.943   0.952   2.286
 3127TIP3    H2 9259   4.967   1.095   2.333
 3128TIP3   OH2 9260   3.306   0.847   3.098
 3128TIP3    H1 9261   3.214   0.847   3.129
 3128TIP3    H2 9262   3.302   0.909   3.022
 3129TIP3   OH2 9263   4.465   2.554   2.605
 3129TIP3    H1 9264   4.518   2.541   2.524
 3129TIP3    H2 9265   4.517   2.621   2.652
 3130TIP3   OH2 9266   3.524   0.921   3.906
 3130TIP3    H1 9267   3.480   0.922   3.993
 3130TIP3    H2 9268   3.459   0.971   3.852
 3131TIP3   OH2 9269   3.563   2.361   3.973
 3131TIP3    H1 9270   3.471   2.335   3.958
 3131TIP3    H2 9271   3.582   2.323   4.060
 3132TIP3   OH2 9272   3.745   2.389   3.538
 3132TIP3    H1 9273   3.694   2.464   3.501
 3132TIP3    H2 9274   3.830   2.405   3.492
 3133TIP3   OH2 9275   4.188   2.635   3.673
 3133TIP3    H1 9276   4.229   2.634   3.763
 3133TIP3    H2 9277   4.255   2.687   3.624
 3134TIP3   OH2 9278   4.369   2.788   3.534
 3134TIP3    H1 9279   4.441   2.736   3.495
 3134TIP3    H2 9280   4.419   2.845   3.596
 3135TIP3   OH2 9281   5.164   1.150   3.635
 3135TIP3    H1 9282   5.072   1.145   3.603
 3135TIP3    H2 9283   5.193   1.057   3.622
 3136TIP3   OH2 9284   3.421   2.648   3.562
 3136TIP3    H1 9285   3.329   2.676   3.539
 3136TIP3    H2 9286   3.430   2.692   3.648
 3137TIP3   OH2 9287   3.657   2.627   3.420
 3137TIP3    H1 9288   3.571   2.639   3.467
 3137TIP3    H2 9289   3.635   2.660   3.331
 3138TIP3   OH2 9290   4.084   2.656   3.216
 3138TIP3    H1 9291   4.013   2.676   3.153
 3138TIP3    H2 9292   4.096   2.743   3.260
 3139TIP3   OH2 9293   4.352   2.594   3.267
 3139TIP3    H1 9294   4.258   2.611   3.249
 3139TIP3    H2 9295   4.394   2.672   3.228
 3140TIP3   OH2 9296   4.559   2.787   3.185
 3140TIP3    H1 9297   4.544   2.872   3.138
 3140TIP3    H2 9298   4.584   2.727   3.111
 3141TIP3   OH2 9299   3.335   2.444   3.304
 3141TIP3    H1 9300   3.356   2.417   3.396
 3141TIP3    H2 9301   3.407   2.398   3.256
 3142TIP3   OH2 9302   3.527   2.312   3.162
 3142TIP3    H1 9303   3.541   2.229   3.213
 3142TIP3    H2 9304   3.618   2.349   3.160
 3143TIP3   OH2 9305   3.793   2.409   3.166
 3143TIP3    H1 9306   3.823   2.316   3.156
 3143TIP3    H2 9307   3.836   2.431   3.251
 3144TIP3   OH2 9308   4.375   1.071   3.254
 3144TIP3    H1 9309   4.326   1.004   3.305
 3144TIP3    H2 9310   4.444   1.017   3.209
 3145TIP3   OH2 9311   4.891   0.941   3.157
 3145TIP3    H1 9312   4.928   0.996   3.084
 3145TIP3    H2 9313   4.797   0.965   3.154
 3146TIP3   OH2 9314   4.987   1.044   2.922
 3146TIP3    H1 9315   5.061   0.994   2.882
 3146TIP3    H2 9316   5.019   1.136   2.908
 3147TIP3   OH2 9317   3.615   0.774   3.269
 3147TIP3    H1 9318   3.522   0.741   3.271
 3147TIP3    H2 9319   3.663   0.689   3.266
 3148TIP3   OH2 9320   3.404   0.642   2.921
 3148TIP3    H1 9321   3.430   0.700   2.847
 3148TIP3    H2 9322   3.373   0.707   2.987
 3149TIP3   OH2 9323   4.066   0.802   3.153
 3149TIP3    H1 9324   4.120   0.853   3.090
 3149TIP3    H2 9325   4.066   0.861   3.230
 3150TIP3   OH2 9326   4.608   0.950   3.136
 3150TIP3    H1 9327   4.603   0.916   3.046
 3150TIP3    H2 9328   4.593   0.868   3.190
 3151TIP3   OH2 9329   4.637   0.874   2.697
 3151TIP3    H1 9330   4.552   0.920   2.709
 3151TIP3    H2 9331   4.620   0.790   2.744
 3152TIP3   OH2 9332   3.122   2.212   2.696
 3152TIP3    H1 9333   3.036   2.180   2.663
 3152TIP3    H2 9334   3.110   2.308   2.683
 3153TIP3   OH2 9335   3.520   0.802   2.682
 3153TIP3    H1 9336   3.572   0.742   2.626
 3153TIP3    H2 9337   3.590   0.858   2.720
 3154TIP3   OH2 9338   4.034   0.976   2.780
 3154TIP3    H1 9339   4.096   0.933   2.842
 3154TIP3    H2 9340   4.051   1.070   2.804
 3155TIP3   OH2 9341   3.892   2.402   2.280
 3155TIP3    H1 9342   3.980   2.425   2.243
 3155TIP3    H2 9343   3.870   2.327   2.221
 3156TIP3   OH2 9344   4.612   2.521   2.373
 3156TIP3    H1 9345   4.603   2.424   2.360
 3156TIP3    H2 9346   4.566   2.554   2.293
 3157TIP3   OH2 9347   3.826   1.050   4.157
 3157TIP3    H1 9348   3.789   0.983   4.217
 3157TIP3    H2 9349   3.919   1.053   4.188
 3158TIP3   OH2 9350   4.071   1.050   4.281
 3158TIP3    H1 9351   4.159   1.026   4.247
 3158TIP3    H2 9352   4.057   0.981   4.349
 3159TIP3   OH2 9353   3.196   2.240   2.337
 3159TIP3    H1 9354   3.194   2.265   2.431
 3159TIP3    H2 9355   3.285   2.199   2.328
 3160TIP3   OH2 9356   4.897   1.111   4.069
 3160TIP3    H1 9357   4.916   1.081   4.161
 3160TIP3    H2 9358   4.986   1.107   4.028
 3161TIP3   OH2 9359   4.840   2.664   3.559
 3161TIP3    H1 9360   4.760   2.633   3.512
 3161TIP3    H2 9361   4.820   2.760   3.563
 3162TIP3   OH2 9362   6.103   2.037   2.328
 3162TIP3    H1 9363   6.075   2.128   2.306
 3162TIP3    H2 9364   6.027   1.987   2.293
 3163TIP3   OH2 9365   6.103   2.038   2.708
 3163TIP3    H1 9366   6.133   2.006   2.795
 3163TIP3    H2 9367   6.061   1.959   2.670
 3164TIP3   OH2 9368   5.403   1.932   3.072
 3164TIP3    H1 9369   5.435   1.865   3.136
 3164TIP3    H2 9370   5.480   1.990   3.066
 3165TIP3   OH2 9371   6.346   2.338   2.389
 3165TIP3    H1 9372   6.332   2.269   2.455
 3165TIP3    H2 9373   6.375   2.413   2.444
 3166TIP3   OH2 9374   5.375   2.342   2.798
 3166TIP3    H1 9375   5.364   2.245   2.800
 3166TIP3    H2 9376   5.472   2.350   2.792
 3167TIP3   OH2 9377   5.080   1.546   2.584
 3167TIP3    H1 9378   5.032   1.629   2.599
 3167TIP3    H2 9379   5.009   1.492   2.544
 3168TIP3   OH2 9380   5.140   1.833   2.754
 3168TIP3    H1 9381   5.189   1.757   2.792
 3168TIP3    H2 9382   5.199   1.862   2.683
 3169TIP3   OH2 9383   5.998   2.800   2.408
 3169TIP3    H1 9384   6.043   2.732   2.353
 3169TIP3    H2 9385   5.989   2.754   2.492
 3170TIP3   OH2 9386   5.901   2.262   2.757
 3170TIP3    H1 9387   5.939   2.186   2.709
 3170TIP3    H2 9388   5.985   2.307   2.780
 3171TIP3   OH2 9389   6.913   1.582   2.753
 3171TIP3    H1 9390   6.943   1.665   2.795
 3171TIP3    H2 9391   6.940   1.597   2.660
 3172TIP3   OH2 9392   6.313   1.764   2.790
 3172TIP3    H1 9393   6.357   1.679   2.808
 3172TIP3    H2 9394   6.283   1.750   2.698
 3173TIP3   OH2 9395   5.651   1.424   2.754
 3173TIP3    H1 9396   5.631   1.497   2.692
 3173TIP3    H2 9397   5.603   1.351   2.710
 3174TIP3   OH2 9398   6.344   1.515   2.376
 3174TIP3    H1 9399   6.417   1.500   2.441
 3174TIP3    H2 9400   6.396   1.550   2.301
 3175TIP3   OH2 9401   5.285   1.626   2.862
 3175TIP3    H1 9402   5.368   1.606   2.909
 3175TIP3    H2 9403   5.297   1.570   2.782
 3176TIP3   OH2 9404   5.726   1.824   2.653
 3176TIP3    H1 9405   5.820   1.798   2.667
 3176TIP3    H2 9406   5.687   1.740   2.621
 3177TIP3   OH2 9407   6.988   1.789   2.924
 3177TIP3    H1 9408   6.904   1.837   2.905
 3177TIP3    H2 9409   7.004   1.817   3.015
 3178TIP3   OH2 9410   5.648   1.407   3.189
 3178TIP3    H1 9411   5.589   1.444   3.121
 3178TIP3    H2 9412   5.596   1.425   3.270
 3179TIP3   OH2 9413   5.994   2.257   2.198
 3179TIP3    H1 9414   5.954   2.237   2.112
 3179TIP3    H2 9415   5.950   2.342   2.220
 3180TIP3   OH2 9416   5.755   2.182   2.984
 3180TIP3    H1 9417   5.691   2.248   3.020
 3180TIP3    H2 9418   5.796   2.233   2.911
 3181TIP3   OH2 9419   6.554   1.518   2.548
 3181TIP3    H1 9420   6.553   1.466   2.629
 3181TIP3    H2 9421   6.611   1.593   2.573
 3182TIP3   OH2 9422   5.519   1.522   2.973
 3182TIP3    H1 9423   5.581   1.595   2.995
 3182TIP3    H2 9424   5.568   1.481   2.898
 3183TIP3   OH2 9425   5.584   2.375   3.082
 3183TIP3    H1 9426   5.558   2.462   3.043
 3183TIP3    H2 9427   5.504   2.360   3.137
 3184TIP3   OH2 9428   4.978   2.066   2.318
 3184TIP3    H1 9429   4.936   2.092   2.234
 3184TIP3    H2 9430   5.007   2.153   2.353
 3185TIP3   OH2 9431   6.416   2.582   2.559
 3185TIP3    H1 9432   6.326   2.574   2.597
 3185TIP3    H2 9433   6.409   2.667   2.512
 3186TIP3   OH2 9434   6.708   1.483   2.920
 3186TIP3    H1 9435   6.620   1.512   2.889
 3186TIP3    H2 9436   6.767   1.515   2.848
 3187TIP3   OH2 9437   6.005   1.126   2.902
 3187TIP3    H1 9438   5.992   1.031   2.920
 3187TIP3    H2 9439   5.927   1.164   2.949
 3188TIP3   OH2 9440   6.118   2.630   2.232
 3188TIP3    H1 9441   6.167   2.547   2.211
 3188TIP3    H2 9442   6.178   2.695   2.189
 3189TIP3   OH2 9443   6.259   2.414   2.138
 3189TIP3    H1 9444   6.227   2.334   2.095
 3189TIP3    H2 9445   6.295   2.379   2.222
 3190TIP3   OH2 9446   6.642   2.495   2.901
 3190TIP3    H1 9447   6.633   2.418   2.841
 3190TIP3    H2 9448   6.626   2.570   2.840
 3191TIP3   OH2 9449   5.935   1.889   2.158
 3191TIP3    H1 9450   5.854   1.940   2.136
 3191TIP3    H2 9451   5.981   1.887   2.072
 3192TIP3   OH2 9452   5.894   1.672   1.875
 3192TIP3    H1 9453   5.962   1.723   1.923
 3192TIP3    H2 9454   5.951   1.609   1.827
 3193TIP3   OH2 9455   6.838   2.132   2.746
 3193TIP3    H1 9456   6.755   2.184   2.750
 3193TIP3    H2 9457   6.868   2.154   2.655
 3194TIP3   OH2 9458   6.280   1.971   2.130
 3194TIP3    H1 9459   6.227   1.996   2.208
 3194TIP3    H2 9460   6.364   1.945   2.173
 3195TIP3   OH2 9461   6.517   2.010   3.041
 3195TIP3    H1 9462   6.514   2.096   3.088
 3195TIP3    H2 9463   6.430   2.013   2.995
 3196TIP3   OH2 9464   5.513   1.969   2.546
 3196TIP3    H1 9465   5.472   1.911   2.478
 3196TIP3    H2 9466   5.591   1.915   2.574
 3197TIP3   OH2 9467   5.644   2.381   2.694
 3197TIP3    H1 9468   5.622   2.340   2.609
 3197TIP3    H2 9469   5.734   2.347   2.711
 3198TIP3   OH2 9470   5.653   1.939   2.901
 3198TIP3    H1 9471   5.684   1.919   2.810
 3198TIP3    H2 9472   5.694   2.026   2.920
 3199TIP3   OH2 9473   6.174   2.579   2.679
 3199TIP3    H1 9474   6.162   2.656   2.737
 3199TIP3    H2 9475   6.161   2.503   2.739
 3200TIP3   OH2 9476   5.787   2.495   3.228
 3200TIP3    H1 9477   5.725   2.560   3.270
 3200TIP3    H2 9478   5.722   2.443   3.176
 3201TIP3   OH2 9479   6.122   1.829   1.956
 3201TIP3    H1 9480   6.182   1.887   2.008
 3201TIP3    H2 9481   6.148   1.853   1.864
 3202TIP3   OH2 9482   5.542   2.051   3.325
 3202TIP3    H1 9483   5.546   2.139   3.369
 3202TIP3    H2 9484   5.446   2.033   3.334
 3203TIP3   OH2 9485   5.865   2.509   2.232
 3203TIP3    H1 9486   5.945   2.563   2.247
 3203TIP3    H2 9487   5.804   2.571   2.191
 3204TIP3   OH2 9488   5.582   2.667   3.313
 3204TIP3    H1 9489   5.548   2.665   3.222
 3204TIP3    H2 9490   5.502   2.643   3.365
 3205TIP3   OH2 9491   6.638   1.071   2.004
 3205TIP3    H1 9492   6.557   1.093   2.055
 3205TIP3    H2 9493   6.652   1.154   1.953
 3206TIP3   OH2 9494   5.380   1.812   2.351
 3206TIP3    H1 9495   5.315   1.858   2.294
 3206TIP3    H2 9496   5.337   1.727   2.364
 3207TIP3   OH2 9497   6.437   2.438   1.553
 3207TIP3    H1 9498   6.445   2.534   1.538
 3207TIP3    H2 9499   6.529   2.408   1.539
 3208TIP3   OH2 9500   5.162   2.195   3.258
 3208TIP3    H1 9501   5.094   2.175   3.190
 3208TIP3    H2 9502   5.197   2.107   3.280
 3209TIP3   OH2 9503   5.015   2.388   2.893
 3209TIP3    H1 9504   5.111   2.388   2.885
 3209TIP3    H2 9505   5.000   2.469   2.944
 3210TIP3   OH2 9506   6.880   2.839   2.947
 3210TIP3    H1 9507   6.879   2.743   2.959
 3210TIP3    H2 9508   6.796   2.864   2.992
 3211TIP3   OH2 9509   5.986   2.622   3.082
 3211TIP3    H1 9510   5.986   2.716   3.112
 3211TIP3    H2 9511   5.913   2.586   3.136
 3212TIP3   OH2 9512   5.747   2.755   2.034
 3212TIP3    H1 9513   5.701   2.735   1.950
 3212TIP3    H2 9514   5.714   2.844   2.056
 3213TIP3   OH2 9515   5.184   2.605   2.416
 3213TIP3    H1 9516   5.231   2.595   2.502
 3213TIP3    H2 9517   5.125   2.528   2.420
 3214TIP3   OH2 9518   5.949   2.656   1.673
 3214TIP3    H1 9519   6.007   2.586   1.637
 3214TIP3    H2 9520   5.983   2.664   1.765
 3215TIP3   OH2 9521   5.999   2.705   1.943
 3215TIP3    H1 9522   5.910   2.714   1.985
 3215TIP3    H2 9523   6.049   2.662   2.014
 3216TIP3   OH2 9524   6.768   1.971   3.222
 3216TIP3    H1 9525   6.690   1.983   3.166
 3216TIP3    H2 9526   6.785   1.875   3.210
 3217TIP3   OH2 9527   5.367   2.378   3.246
 3217TIP3    H1 9528   5.415   2.361   3.330
 3217TIP3    H2 9529   5.292   2.315   3.253
 3218TIP3   OH2 9530   5.766   1.202   3.031
 3218TIP3    H1 9531   5.676   1.172   3.005
 3218TIP3    H2 9532   5.741   1.285   3.076
 3219TIP3   OH2 9533   6.299   1.318   3.226
 3219TIP3    H1 9534   6.368   1.289   3.289
 3219TIP3    H2 9535   6.215   1.296   3.272
 3220TIP3   OH2 9536   6.539   1.745   3.143
 3220TIP3    H1 9537   6.490   1.744   3.229
 3220TIP3    H2 9538   6.515   1.833   3.107
 3221TIP3   OH2 9539   6.198   1.878   1.700
 3221TIP3    H1 9540   6.165   1.851   1.612
 3221TIP3    H2 9541   6.280   1.923   1.676
 3222TIP3   OH2 9542   5.910   1.252   2.002
 3222TIP3    H1 9543   5.879   1.250   2.094
 3222TIP3    H2 9544   5.872   1.169   1.969
 3223TIP3   OH2 9545   5.698   1.717   3.050
 3223TIP3    H1 9546   5.646   1.737   3.130
 3223TIP3    H2 9547   5.682   1.798   2.996
 3224TIP3   OH2 9548   5.581   1.603   2.563
 3224TIP3    H1 9549   5.488   1.578   2.580
 3224TIP3    H2 9550   5.594   1.563   2.474
 3225TIP3   OH2 9551   6.071   1.689   2.291
 3225TIP3    H1 9552   6.019   1.761   2.248
 3225TIP3    H2 9553   6.127   1.659   2.216
 3226TIP3   OH2 9554   6.247   1.972   3.383
 3226TIP3    H1 9555   6.224   1.896   3.442
 3226TIP3    H2 9556   6.343   1.979   3.400
 3227TIP3   OH2 9557   6.229   1.718   2.530
 3227TIP3    H1 9558   6.170   1.748   2.458
 3227TIP3    H2 9559   6.263   1.637   2.488
 3228TIP3   OH2 9560   5.518   1.747   3.258
 3228TIP3    H1 9561   5.536   1.811   3.328
 3228TIP3    H2 9562   5.504   1.665   3.309
 3229TIP3   OH2 9563   5.566   1.223   1.969
 3229TIP3    H1 9564   5.556   1.223   2.066
 3229TIP3    H2 9565   5.489   1.276   1.943
 3230TIP3   OH2 9566   5.110   1.268   2.838
 3230TIP3    H1 9567   5.184   1.301   2.893
 3230TIP3    H2 9568   5.153   1.238   2.757
 3231TIP3   OH2 9569   5.082   1.250   2.358
 3231TIP3    H1 9570   5.126   1.290   2.279
 3231TIP3    H2 9571   5.021   1.323   2.381
 3232TIP3   OH2 9572   6.241   1.965   2.954
 3232TIP3    H1 9573   6.273   1.893   2.895
 3232TIP3    H2 9574   6.211   1.912   3.031
 3233TIP3   OH2 9575   5.908   1.425   2.625
 3233TIP3    H1 9576   5.826   1.424   2.679
 3233TIP3    H2 9577   5.977   1.424   2.693
 3234TIP3   OH2 9578   5.343   1.482   2.633
 3234TIP3    H1 9579   5.248   1.489   2.606
 3234TIP3    H2 9580   5.366   1.391   2.609
 3235TIP3   OH2 9581   5.613   1.476   2.321
 3235TIP3    H1 9582   5.707   1.495   2.300
 3235TIP3    H2 9583   5.566   1.501   2.238
 3236TIP3   OH2 9584   6.401   1.502   2.830
 3236TIP3    H1 9585   6.363   1.514   2.920
 3236TIP3    H2 9586   6.337   1.441   2.790
 3237TIP3   OH2 9587   5.454   1.510   2.100
 3237TIP3    H1 9588   5.383   1.466   2.051
 3237TIP3    H2 9589   5.506   1.548   2.026
 3238TIP3   OH2 9590   6.569   3.191   3.045
 3238TIP3    H1 9591   6.567   3.214   2.950
 3238TIP3    H2 9592   6.649   3.239   3.075
 3239TIP3   OH2 9593   5.526   2.298   3.466
 3239TIP3    H1 9594   5.603   2.337   3.512
 3239TIP3    H2 9595   5.460   2.299   3.538
 3240TIP3   OH2 9596   5.992   1.754   2.722
 3240TIP3    H1 9597   6.065   1.715   2.670
 3240TIP3    H2 9598   6.003   1.711   2.809
 3241TIP3   OH2 9599   5.514   1.242   2.601
 3241TIP3    H1 9600   5.481   1.161   2.646
 3241TIP3    H2 9601   5.565   1.205   2.528
 3242TIP3   OH2 9602   5.968   1.649   3.013
 3242TIP3    H1 9603   5.878   1.685   3.026
 3242TIP3    H2 9604   6.025   1.710   3.063
 3243TIP3   OH2 9605   5.705   2.042   2.107
 3243TIP3    H1 9606   5.632   1.977   2.096
 3243TIP3    H2 9607   5.688   2.075   2.198
 3244TIP3   OH2 9608   6.605   2.278   2.737
 3244TIP3    H1 9609   6.631   2.326   2.655
 3244TIP3    H2 9610   6.520   2.237   2.711
 3245TIP3   OH2 9611   6.164   1.353   1.970
 3245TIP3    H1 9612   6.067   1.339   1.977
 3245TIP3    H2 9613   6.176   1.448   1.991
 3246TIP3   OH2 9614   6.107   2.361   3.103
 3246TIP3    H1 9615   6.121   2.337   3.195
 3246TIP3    H2 9616   6.065   2.449   3.109
 3247TIP3   OH2 9617   6.233   1.601   2.072
 3247TIP3    H1 9618   6.329   1.607   2.087
 3247TIP3    H2 9619   6.215   1.679   2.018
 3248TIP3   OH2 9620   5.398   2.063   2.784
 3248TIP3    H1 9621   5.436   2.036   2.698
 3248TIP3    H2 9622   5.436   1.999   2.845
 3249TIP3   OH2 9623   5.850   2.191   1.928
 3249TIP3    H1 9624   5.803   2.278   1.935
 3249TIP3    H2 9625   5.796   2.136   1.988
 3250TIP3   OH2 9626   5.278   1.981   3.394
 3250TIP3    H1 9627   5.294   1.967   3.490
 3250TIP3    H2 9628   5.206   1.917   3.377
 3251TIP3   OH2 9629   6.001   2.097   3.417
 3251TIP3    H1 9630   5.940   2.039   3.366
 3251TIP3    H2 9631   6.088   2.063   3.387
 3252TIP3   OH2 9632   6.265   2.622   2.999
 3252TIP3    H1 9633   6.169   2.617   3.012
 3252TIP3    H2 9634   6.291   2.675   3.078
 3253TIP3   OH2 9635   6.675   1.691   1.909
 3253TIP3    H1 9636   6.612   1.646   1.848
 3253TIP3    H2 9637   6.672   1.780   1.867
 3254TIP3   OH2 9638   6.893   2.549   2.989
 3254TIP3    H1 9639   6.795   2.543   2.980
 3254TIP3    H2 9640   6.920   2.519   2.900
 3255TIP3   OH2 9641   6.375   2.510   1.817
 3255TIP3    H1 9642   6.351   2.438   1.877
 3255TIP3    H2 9643   6.388   2.465   1.732
 3256TIP3   OH2 9644   6.370   2.139   2.657
 3256TIP3    H1 9645   6.277   2.113   2.668
 3256TIP3    H2 9646   6.406   2.060   2.611
 3257TIP3   OH2 9647   5.498   2.367   2.408
 3257TIP3    H1 9648   5.499   2.448   2.355
 3257TIP3    H2 9649   5.403   2.352   2.418
 3258TIP3   OH2 9650   5.062   1.672   2.112
 3258TIP3    H1 9651   5.108   1.756   2.132
 3258TIP3    H2 9652   4.984   1.678   2.172
 3259TIP3   OH2 9653   5.637   2.133   2.353
 3259TIP3    H1 9654   5.602   2.223   2.370
 3259TIP3    H2 9655   5.599   2.084   2.428
 3260TIP3   OH2 9656   5.770   2.710   2.878
 3260TIP3    H1 9657   5.810   2.781   2.825
 3260TIP3    H2 9658   5.847   2.676   2.926
 3261TIP3   OH2 9659   5.418   2.605   2.261
 3261TIP3    H1 9660   5.332   2.613   2.306
 3261TIP3    H2 9661   5.449   2.698   2.263
 3262TIP3   OH2 9662   6.158   2.347   2.834
 3262TIP3    H1 9663   6.149   2.344   2.931
 3262TIP3    H2 9664   6.235   2.290   2.819
 3263TIP3   OH2 9665   6.130   2.238   1.719
 3263TIP3    H1 9666   6.183   2.214   1.798
 3263TIP3    H2 9667   6.041   2.211   1.747
 3264TIP3   OH2 9668   6.404   2.882   2.888
 3264TIP3    H1 9669   6.326   2.823   2.880
 3264TIP3    H2 9670   6.389   2.944   2.814
 3265TIP3   OH2 9671   6.469   2.713   1.538
 3265TIP3    H1 9672   6.508   2.785   1.485
 3265TIP3    H2 9673   6.389   2.759   1.571
 3266TIP3   OH2 9674   5.489   1.490   3.405
 3266TIP3    H1 9675   5.393   1.495   3.418
 3266TIP3    H2 9676   5.516   1.429   3.475
 3267TIP3   OH2 9677   6.289   2.174   1.937
 3267TIP3    H1 9678   6.280   2.106   2.006
 3267TIP3    H2 9679   6.386   2.171   1.923
 3268TIP3   OH2 9680   5.205   2.575   3.035
 3268TIP3    H1 9681   5.259   2.505   3.075
 3268TIP3    H2 9682   5.228   2.651   3.091
 3269TIP3   OH2 9683   5.496   2.219   1.717
 3269TIP3    H1 9684   5.510   2.127   1.688
 3269TIP3    H2 9685   5.478   2.206   1.813
 3270TIP3   OH2 9686   5.442   2.223   1.990
 3270TIP3    H1 9687   5.513   2.197   2.050
 3270TIP3    H2 9688   5.445   2.321   1.997
 3271TIP3   OH2 9689   5.177   1.917   2.193
 3271TIP3    H1 9690   5.111   1.962   2.250
 3271TIP3    H2 9691   5.192   1.987   2.126
 3272TIP3   OH2 9692   6.322   1.557   3.089
 3272TIP3    H1 9693   6.407   1.591   3.122
 3272TIP3    H2 9694   6.311   1.475   3.140
 3273TIP3   OH2 9695   6.205   1.305   2.250
 3273TIP3    H1 9696   6.193   1.329   2.156
 3273TIP3    H2 9697   6.246   1.387   2.286
 3274TIP3   OH2 9698   5.708   2.422   1.940
 3274TIP3    H1 9699   5.620   2.449   1.974
 3274TIP3    H2 9700   5.723   2.492   1.875
 3275TIP3   OH2 9701   5.895   1.484   2.352
 3275TIP3    H1 9702   5.960   1.555   2.333
 3275TIP3    H2 9703   5.901   1.477   2.449
 3276TIP3   OH2 9704   6.164   1.802   3.161
 3276TIP3    H1 9705   6.186   1.853   3.241
 3276TIP3    H2 9706   6.220   1.723   3.169
 3277TIP3   OH2 9707   6.041   1.210   2.455
 3277TIP3    H1 9708   6.035   1.287   2.515
 3277TIP3    H2 9709   6.101   1.247   2.386
 3278TIP3   OH2 9710   5.450   2.496   2.006
 3278TIP3    H1 9711   5.421   2.566   1.943
 3278TIP3    H2 9712   5.434   2.540   2.092
 3279TIP3   OH2 9713   5.552   1.209   2.246
 3279TIP3    H1 9714   5.548   1.300   2.280
 3279TIP3    H2 9715   5.648   1.193   2.254
 3280TIP3   OH2 9716   6.806   1.704   3.142
 3280TIP3    H1 9717   6.708   1.702   3.147
 3280TIP3    H2 9718   6.819   1.663   3.055
 3281TIP3   OH2 9719   6.456   1.899   2.531
 3281TIP3    H1 9720   6.381   1.837   2.540
 3281TIP3    H2 9721   6.528   1.851   2.577
 3282TIP3   OH2 9722   5.168   2.127   2.000
 3282TIP3    H1 9723   5.233   2.199   2.008
 3282TIP3    H2 9724   5.214   2.072   1.932
 3283TIP3   OH2 9725   5.113   1.401   2.131
 3283TIP3    H1 9726   5.114   1.499   2.128
 3283TIP3    H2 9727   5.028   1.381   2.091
 3284TIP3   OH2 9728   6.424   2.854   2.480
 3284TIP3    H1 9729   6.382   2.901   2.404
 3284TIP3    H2 9730   6.518   2.872   2.459
 3285TIP3   OH2 9731   5.502   1.122   3.006
 3285TIP3    H1 9732   5.469   1.089   2.920
 3285TIP3    H2 9733   5.490   1.043   3.064
 3286TIP3   OH2 9734   5.040   2.339   2.387
 3286TIP3    H1 9735   4.970   2.371   2.446
 3286TIP3    H2 9736   5.013   2.381   2.302
 3287TIP3   OH2 9737   5.189   2.872   3.476
 3287TIP3    H1 9738   5.279   2.871   3.515
 3287TIP3    H2 9739   5.170   2.777   3.465
 3288TIP3   OH2 9740   5.690   2.850   3.493
 3288TIP3    H1 9741   5.781   2.818   3.497
 3288TIP3    H2 9742   5.652   2.790   3.425
 3289TIP3   OH2 9743   5.660   2.423   1.631
 3289TIP3    H1 9744   5.604   2.351   1.669
 3289TIP3    H2 9745   5.734   2.371   1.597
 3290TIP3   OH2 9746   6.314   2.758   3.237
 3290TIP3    H1 9747   6.308   2.685   3.303
 3290TIP3    H2 9748   6.394   2.805   3.265
 3291TIP3   OH2 9749   6.096   2.464   1.542
 3291TIP3    H1 9750   6.140   2.399   1.600
 3291TIP3    H2 9751   6.152   2.464   1.462
 3292TIP3   OH2 9752   5.328   2.288   3.659
 3292TIP3    H1 9753   5.343   2.192   3.660
 3292TIP3    H2 9754   5.240   2.293   3.616
 3293TIP3   OH2 9755   5.304   1.940   1.851
 3293TIP3    H1 9756   5.360   1.907   1.924
 3293TIP3    H2 9757   5.370   1.944   1.779
 3294TIP3   OH2 9758   5.936   2.372   3.431
 3294TIP3    H1 9759   5.892   2.390   3.345
 3294TIP3    H2 9760   5.965   2.279   3.421
 3295TIP3   OH2 9761   5.814   2.137   1.659
 3295TIP3    H1 9762   5.816   2.151   1.756
 3295TIP3    H2 9763   5.813   2.039   1.654
 3296TIP3   OH2 9764   6.429   2.382   3.040
 3296TIP3    H1 9765   6.502   2.427   2.993
 3296TIP3    H2 9766   6.356   2.445   3.024
 3297TIP3   OH2 9767   5.446   2.025   3.641
 3297TIP3    H1 9768   5.515   1.961   3.621
 3297TIP3    H2 9769   5.471   2.055   3.731
 3298TIP3   OH2 9770   5.513   1.843   2.074
 3298TIP3    H1 9771   5.486   1.801   2.157
 3298TIP3    H2 9772   5.548   1.767   2.023
 3299TIP3   OH2 9773   5.784   1.911   3.305
 3299TIP3    H1 9774   5.703   1.967   3.305
 3299TIP3    H2 9775   5.830   1.943   3.224
 3300TIP3   OH2 9776   5.613   1.635   1.915
 3300TIP3    H1 9777   5.586   1.639   1.821
 3300TIP3    H2 9778   5.711   1.643   1.906
 3301TIP3   OH2 9779   6.301   2.311   3.438
 3301TIP3    H1 9780   6.375   2.286   3.382
 3301TIP3    H2 9781   6.298   2.238   3.502
 3302TIP3   OH2 9782   6.434   1.968   1.577
 3302TIP3    H1 9783   6.414   1.921   1.494
 3302TIP3    H2 9784   6.403   2.058   1.552
 3303TIP3   OH2 9785   5.904   1.696   3.428
 3303TIP3    H1 9786   5.904   1.615   3.372
 3303TIP3    H2 9787   5.861   1.761   3.370
 3304TIP3   OH2 9788   5.907   1.482   3.236
 3304TIP3    H1 9789   5.934   1.522   3.151
 3304TIP3    H2 9790   5.813   1.458   3.217
 3305TIP3   OH2 9791   5.936   2.020   3.110
 3305TIP3    H1 9792   6.017   2.025   3.057
 3305TIP3    H2 9793   5.879   2.086   3.064
 3306TIP3   OH2 9794   6.518   1.986   3.494
 3306TIP3    H1 9795   6.563   1.900   3.496
 3306TIP3    H2 9796   6.587   2.042   3.454
 3307TIP3   OH2 9797   6.557   2.240   3.230
 3307TIP3    H1 9798   6.500   2.292   3.168
 3307TIP3    H2 9799   6.645   2.257   3.189
 3308TIP3   OH2 9800   5.786   1.807   3.660
 3308TIP3    H1 9801   5.715   1.741   3.673
 3308TIP3    H2 9802   5.818   1.783   3.571
 3309TIP3   OH2 9803   6.039   1.246   3.302
 3309TIP3    H1 9804   5.991   1.328   3.279
 3309TIP3    H2 9805   5.970   1.178   3.290
 3310TIP3   OH2 9806   6.163   1.752   3.518
 3310TIP3    H1 9807   6.149   1.736   3.613
 3310TIP3    H2 9808   6.075   1.726   3.485
 3311TIP3   OH2 9809   6.407   1.706   3.376
 3311TIP3    H1 9810   6.329   1.701   3.435
 3311TIP3    H2 9811   6.479   1.670   3.432
 3312TIP3   OH2 9812   6.634   1.640   3.526
 3312TIP3    H1 9813   6.647   1.544   3.542
 3312TIP3    H2 9814   6.631   1.677   3.617
 3313TIP3   OH2 9815   5.623   1.588   3.711
 3313TIP3    H1 9816   5.628   1.497   3.675
 3313TIP3    H2 9817   5.658   1.573   3.801
 3314TIP3   OH2 9818   6.135   1.257   3.559
 3314TIP3    H1 9819   6.202   1.186   3.554
 3314TIP3    H2 9820   6.095   1.250   3.470
 3315TIP3   OH2 9821   6.200   1.471   3.717
 3315TIP3    H1 9822   6.178   1.399   3.653
 3315TIP3    H2 9823   6.122   1.529   3.710
 3316TIP3   OH2 9824   5.420   2.699   1.819
 3316TIP3    H1 9825   5.516   2.696   1.799
 3316TIP3    H2 9826   5.389   2.747   1.740
 3317TIP3   OH2 9827   4.900   2.080   2.035
 3317TIP3    H1 9828   4.995   2.102   2.022
 3317TIP3    H2 9829   4.894   1.992   1.993
 3318TIP3   OH2 9830   4.815   2.693   2.448
 3318TIP3    H1 9831   4.747   2.632   2.413
 3318TIP3    H2 9832   4.859   2.636   2.514
 3319TIP3   OH2 9833   4.951   2.544   2.634
 3319TIP3    H1 9834   4.937   2.472   2.698
 3319TIP3    H2 9835   5.001   2.607   2.690
 3320TIP3   OH2 9836   6.676   2.946   2.435
 3320TIP3    H1 9837   6.705   2.981   2.521
 3320TIP3    H2 9838   6.739   2.987   2.374
 3321TIP3   OH2 9839   6.706   2.966   2.719
 3321TIP3    H1 9840   6.663   2.878   2.713
 3321TIP3    H2 9841   6.784   2.943   2.772
 3322TIP3   OH2 9842   6.754   2.642   3.290
 3322TIP3    H1 9843   6.681   2.650   3.354
 3322TIP3    H2 9844   6.795   2.731   3.294
 3323TIP3   OH2 9845   6.569   2.155   1.910
 3323TIP3    H1 9846   6.638   2.218   1.881
 3323TIP3    H2 9847   6.612   2.115   1.989
 3324TIP3   OH2 9848   6.696   2.024   2.114
 3324TIP3    H1 9849   6.632   1.980   2.173
 3324TIP3    H2 9850   6.762   2.060   2.176
 3325TIP3   OH2 9851   6.750   2.413   2.546
 3325TIP3    H1 9852   6.805   2.349   2.496
 3325TIP3    H2 9853   6.745   2.488   2.483
 3326TIP3   OH2 9854   6.583   2.714   2.742
 3326TIP3    H1 9855   6.511   2.756   2.792
 3326TIP3    H2 9856   6.534   2.665   2.672
 3327TIP3   OH2 9857   6.635   1.930   1.761
 3327TIP3    H1 9858   6.563   1.932   1.694
 3327TIP3    H2 9859   6.608   2.007   1.816
 3328TIP3   OH2 9860   6.503   1.605   1.718
 3328TIP3    H1 9861   6.467   1.641   1.636
 3328TIP3    H2 9862   6.479   1.510   1.708
 3329TIP3   OH2 9863   6.510   1.878   2.260
 3329TIP3    H1 9864   6.520   1.782   2.254
 3329TIP3    H2 9865   6.498   1.892   2.356
 3330TIP3   OH2 9866   5.138   1.949   3.008
 3330TIP3    H1 9867   5.135   1.920   2.914
 3330TIP3    H2 9868   5.235   1.952   3.023
 3331TIP3   OH2 9869   6.799   2.302   3.118
 3331TIP3    H1 9870   6.872   2.237   3.109
 3331TIP3    H2 9871   6.826   2.371   3.055
 3332TIP3   OH2 9872   6.985   2.109   3.138
 3332TIP3    H1 9873   6.910   2.057   3.175
 3332TIP3    H2 9874   7.058   2.045   3.151
 3333TIP3   OH2 9875   6.448   1.340   1.707
 3333TIP3    H1 9876   6.527   1.309   1.756
 3333TIP3    H2 9877   6.380   1.274   1.729
 3334TIP3   OH2 9878   6.507   1.595   2.155
 3334TIP3    H1 9879   6.548   1.507   2.171
 3334TIP3    H2 9880   6.565   1.628   2.084
 3335TIP3   OH2 9881   6.669   1.770   2.650
 3335TIP3    H1 9882   6.755   1.796   2.609
 3335TIP3    H2 9883   6.684   1.806   2.740
 3336TIP3   OH2 9884   6.739   1.913   2.884
 3336TIP3    H1 9885   6.660   1.948   2.930
 3336TIP3    H2 9886   6.771   1.993   2.837
 3337TIP3   OH2 9887   5.356   1.640   3.683
 3337TIP3    H1 9888   5.453   1.631   3.684
 3337TIP3    H2 9889   5.331   1.554   3.723
 3338TIP3   OH2 9890   7.190   1.504   3.439
 3338TIP3    H1 9891   7.248   1.437   3.396
 3338TIP3    H2 9892   7.162   1.558   3.363
 3339TIP3   OH2 9893   6.614   1.345   2.195
 3339TIP3    H1 9894   6.665   1.328   2.277
 3339TIP3    H2 9895   6.556   1.267   2.192
 3340TIP3   OH2 9896   5.317   1.330   3.011
 3340TIP3    H1 9897   5.380   1.257   3.023
 3340TIP3    H2 9898   5.378   1.406   3.006
 3341TIP3   OH2 9899   5.120   1.604   3.087
 3341TIP3    H1 9900   5.168   1.599   3.002
 3341TIP3    H2 9901   5.144   1.692   3.117
 3342TIP3   OH2 9902   7.060   1.643   3.245
 3342TIP3    H1 9903   6.971   1.681   3.259
 3342TIP3    H2 9904   7.036   1.570   3.185
 3343TIP3   OH2 9905   6.695   1.285   1.831
 3343TIP3    H1 9906   6.730   1.212   1.775
 3343TIP3    H2 9907   6.765   1.353   1.821
 3344TIP3   OH2 9908   5.102   1.104   2.585
 3344TIP3    H1 9909   5.009   1.105   2.613
 3344TIP3    H2 9910   5.100   1.165   2.507
 3345TIP3   OH2 9911   6.262   2.811   2.093
 3345TIP3    H1 9912   6.312   2.795   2.010
 3345TIP3    H2 9913   6.317   2.879   2.136
 3346TIP3   OH2 9914   5.323   1.188   3.401
 3346TIP3    H1 9915   5.272   1.182   3.484
 3346TIP3    H2 9916   5.256   1.227   3.341
 3347TIP3   OH2 9917   5.366   2.607   3.482
 3347TIP3    H1 9918   5.274   2.586   3.457
 3347TIP3    H2 9919   5.362   2.600   3.578
 3348TIP3   OH2 9920   5.545   2.645   3.030
 3348TIP3    H1 9921   5.490   2.716   2.989
 3348TIP3    H2 9922   5.628   2.663   2.982
 3349TIP3   OH2 9923   5.992   2.885   3.158
 3349TIP3    H1 9924   6.026   2.895   3.249
 3349TIP3    H2 9925   6.054   2.943   3.109
 3350TIP3   OH2 9926   6.162   3.050   3.017
 3350TIP3    H1 9927   6.230   2.995   2.974
 3350TIP3    H2 9928   6.218   3.104   3.077
 3351TIP3   OH2 9929   6.958   1.405   3.123
 3351TIP3    H1 9930   6.868   1.397   3.088
 3351TIP3    H2 9931   6.991   1.313   3.110
 3352TIP3   OH2 9932   5.218   2.906   3.053
 3352TIP3    H1 9933   5.125   2.933   3.037
 3352TIP3    H2 9934   5.238   2.963   3.131
 3353TIP3   OH2 9935   5.442   2.861   2.902
 3353TIP3    H1 9936   5.360   2.885   2.951
 3353TIP3    H2 9937   5.434   2.915   2.822
 3354TIP3   OH2 9938   5.877   2.926   2.707
 3354TIP3    H1 9939   5.805   2.924   2.642
 3354TIP3    H2 9940   5.893   3.022   2.713
 3355TIP3   OH2 9941   6.147   2.854   2.759
 3355TIP3    H1 9942   6.053   2.871   2.737
 3355TIP3    H2 9943   6.192   2.923   2.708
 3356TIP3   OH2 9944   6.353   3.043   2.670
 3356TIP3    H1 9945   6.339   3.128   2.623
 3356TIP3    H2 9946   6.381   2.984   2.597
 3357TIP3   OH2 9947   5.129   2.700   2.791
 3357TIP3    H1 9948   5.153   2.674   2.883
 3357TIP3    H2 9949   5.202   2.656   2.742
 3358TIP3   OH2 9950   5.322   2.569   2.649
 3358TIP3    H1 9951   5.338   2.486   2.700
 3358TIP3    H2 9952   5.413   2.606   2.646
 3359TIP3   OH2 9953   5.589   2.666   2.649
 3359TIP3    H1 9954   5.621   2.574   2.640
 3359TIP3    H2 9955   5.622   2.687   2.738
 3360TIP3   OH2 9956   6.163   1.320   2.739
 3360TIP3    H1 9957   6.121   1.250   2.792
 3360TIP3    H2 9958   6.237   1.274   2.696
 3361TIP3   OH2 9959   6.686   1.203   2.648
 3361TIP3    H1 9960   6.725   1.252   2.572
 3361TIP3    H2 9961   6.591   1.222   2.638
 3362TIP3   OH2 9962   6.781   1.302   2.412
 3362TIP3    H1 9963   6.854   1.249   2.371
 3362TIP3    H2 9964   6.817   1.393   2.395
 3363TIP3   OH2 9965   5.413   1.030   2.757
 3363TIP3    H1 9966   5.321   0.996   2.758
 3363TIP3    H2 9967   5.463   0.945   2.754
 3364TIP3   OH2 9968   5.200   0.898   2.405
 3364TIP3    H1 9969   5.228   0.957   2.332
 3364TIP3    H2 9970   5.169   0.963   2.471
 3365TIP3   OH2 9971   5.856   1.062   2.638
 3365TIP3    H1 9972   5.914   1.112   2.579
 3365TIP3    H2 9973   5.878   1.099   2.724
 3366TIP3   OH2 9974   6.401   1.209   2.623
 3366TIP3    H1 9975   6.404   1.173   2.534
 3366TIP3    H2 9976   6.389   1.127   2.677
 3367TIP3   OH2 9977   6.433   1.131   2.183
 3367TIP3    H1 9978   6.347   1.175   2.196
 3367TIP3    H2 9979   6.418   1.046   2.231
 3368TIP3   OH2 9980   4.917   2.470   2.185
 3368TIP3    H1 9981   4.832   2.437   2.151
 3368TIP3    H2 9982   4.906   2.565   2.167
 3369TIP3   OH2 9983   5.316   1.058   2.170
 3369TIP3    H1 9984   5.366   0.998   2.112
 3369TIP3    H2 9985   5.388   1.114   2.206
 3370TIP3   OH2 9986   5.830   1.232   2.268
 3370TIP3    H1 9987   5.891   1.190   2.330
 3370TIP3    H2 9988   5.848   1.326   2.291
 3371TIP3   OH2 9989   5.689   2.659   1.767
 3371TIP3    H1 9990   5.776   2.682   1.730
 3371TIP3    H2 9991   5.666   2.584   1.708
 3372TIP3   OH2 9992   6.407   2.777   1.860
 3372TIP3    H1 9993   6.398   2.679   1.846
 3372TIP3    H2 9994   6.362   2.810   1.779
 3373TIP3   OH2 9995   5.621   1.312   3.650
 3373TIP3    H1 9996   5.587   1.241   3.707
 3373TIP3    H2 9997   5.715   1.312   3.676
 3374TIP3   OH2 9998   5.870   1.309   3.769
 3374TIP3    H1 9999   5.954   1.280   3.728
 3374TIP3    H210000   5.856   1.239   3.836
 3375TIP3   OH210001   4.992   2.496   1.824
 3375TIP3    H110002   4.992   2.522   1.917
 3375TIP3    H210003   5.081   2.454   1.814
 3376TIP3   OH210004   6.694   1.371   3.556
 3376TIP3    H110005   6.715   1.338   3.646
 3376TIP3    H210006   6.782   1.364   3.512
 3377TIP3   OH210007   6.632   2.922   3.050
 3377TIP3    H110008   6.555   2.890   2.999
 3377TIP3    H210009   6.614   3.018   3.050
 3378TIP3   OH210010   7.900   2.296   1.814
 3378TIP3    H110011   7.870   2.386   1.791
 3378TIP3    H210012   7.826   2.243   1.780
 3379TIP3   OH210013   7.898   2.295   2.196
 3379TIP3    H110014   7.930   2.263   2.282
 3379TIP3    H210015   7.858   2.215   2.158
 3380TIP3   OH210016   7.197   2.191   2.563
 3380TIP3    H110017   7.230   2.123   2.625
 3380TIP3    H210018   7.279   2.240   2.546
 3381TIP3   OH210019   8.145   2.595   1.875
 3381TIP3    H110020   8.126   2.525   1.938
 3381TIP3    H210021   8.168   2.670   1.933
 3382TIP3   OH210022   7.170   2.599   2.287
 3382TIP3    H110023   7.161   2.501   2.288
 3382TIP3    H210024   7.267   2.606   2.278
 3383TIP3   OH210025   6.875   1.803   2.071
 3383TIP3    H110026   6.825   1.886   2.083
 3383TIP3    H210027   6.806   1.747   2.031
 3384TIP3   OH210028   6.936   2.089   2.242
 3384TIP3    H110029   6.984   2.012   2.279
 3384TIP3    H210030   6.994   2.116   2.170
 3385TIP3   OH210031   7.791   3.057   1.892
 3385TIP3    H110032   7.838   2.986   1.844
 3385TIP3    H210033   7.784   3.019   1.981
 3386TIP3   OH210034   7.697   2.519   2.244
 3386TIP3    H110035   7.734   2.442   2.198
 3386TIP3    H210036   7.781   2.564   2.267
 3387TIP3   OH210037   8.642   1.865   2.252
 3387TIP3    H110038   8.707   1.915   2.305
 3387TIP3    H210039   8.688   1.860   2.167
 3388TIP3   OH210040   8.110   2.023   2.275
 3388TIP3    H110041   8.152   1.937   2.295
 3388TIP3    H210042   8.078   2.007   2.185
 3389TIP3   OH210043   7.444   1.681   2.243
 3389TIP3    H110044   7.427   1.752   2.177
 3389TIP3    H210045   7.400   1.605   2.198
 3390TIP3   OH210046   8.143   1.771   1.865
 3390TIP3    H110047   8.216   1.751   1.928
 3390TIP3    H210048   8.194   1.801   1.788
 3391TIP3   OH210049   7.081   1.882   2.348
 3391TIP3    H110050   7.165   1.861   2.395
 3391TIP3    H210051   7.093   1.827   2.268
 3392TIP3   OH210052   7.521   2.080   2.143
 3392TIP3    H110053   7.615   2.055   2.155
 3392TIP3    H210054   7.483   1.996   2.110
 3393TIP3   OH210055   8.781   2.047   2.406
 3393TIP3    H110056   8.696   2.095   2.407
 3393TIP3    H210057   8.824   2.078   2.488
 3394TIP3   OH210058   7.445   1.666   2.676
 3394TIP3    H110059   7.385   1.699   2.607
 3394TIP3    H210060   7.391   1.684   2.756
 3395TIP3   OH210061   7.794   2.517   1.683
 3395TIP3    H110062   7.750   2.492   1.601
 3395TIP3    H210063   7.747   2.600   1.705
 3396TIP3   OH210064   7.551   2.439   2.470
 3396TIP3    H110065   7.488   2.505   2.507
 3396TIP3    H210066   7.593   2.489   2.398
 3397TIP3   OH210067   8.356   1.770   2.036
 3397TIP3    H110068   8.344   1.723   2.119
 3397TIP3    H210069   8.410   1.846   2.062
 3398TIP3   OH210070   7.314   1.779   2.460
 3398TIP3    H110071   7.378   1.851   2.481
 3398TIP3    H210072   7.362   1.737   2.385
 3399TIP3   OH210073   7.379   2.633   2.568
 3399TIP3    H110074   7.352   2.718   2.528
 3399TIP3    H210075   7.300   2.617   2.625
 3400TIP3   OH210076   6.773   2.323   1.804
 3400TIP3    H110077   6.733   2.348   1.719
 3400TIP3    H210078   6.803   2.409   1.839
 3401TIP3   OH210079   8.215   2.838   2.044
 3401TIP3    H110080   8.125   2.829   2.084
 3401TIP3    H210081   8.205   2.924   1.998
 3402TIP3   OH210082   8.482   1.730   2.420
 3402TIP3    H110083   8.394   1.758   2.390
 3402TIP3    H210084   8.540   1.773   2.352
 3403TIP3   OH210085   7.810   1.379   2.395
 3403TIP3    H110086   7.782   1.286   2.387
 3403TIP3    H210087   7.728   1.418   2.432
 3404TIP3   OH210088   7.916   2.885   1.720
 3404TIP3    H110089   7.965   2.802   1.698
 3404TIP3    H210090   7.974   2.951   1.676
 3405TIP3   OH210091   8.058   2.671   1.623
 3405TIP3    H110092   8.017   2.591   1.586
 3405TIP3    H210093   8.095   2.636   1.707
 3406TIP3   OH210094   8.437   2.752   2.386
 3406TIP3    H110095   8.423   2.674   2.328
 3406TIP3    H210096   8.418   2.826   2.325
 3407TIP3   OH210097   7.731   2.148   1.645
 3407TIP3    H110098   7.650   2.196   1.620
 3407TIP3    H210099   7.775   2.138   1.559
 3408TIP3   OH210100   7.687   1.930   1.369
 3408TIP3    H110101   7.764   1.975   1.408
 3408TIP3    H210102   7.730   1.860   1.316
 3409TIP3   OH210103   8.633   2.389   2.233
 3409TIP3    H110104   8.549   2.440   2.238
 3409TIP3    H210105   8.659   2.405   2.140
 3410TIP3   OH210106   8.078   2.231   1.617
 3410TIP3    H110107   8.023   2.254   1.695
 3410TIP3    H210108   8.160   2.200   1.661
 3411TIP3   OH210109   8.312   2.268   2.528
 3411TIP3    H110110   8.308   2.351   2.579
 3411TIP3    H210111   8.225   2.270   2.483
 3412TIP3   OH210112   7.310   2.226   2.033
 3412TIP3    H110113   7.268   2.168   1.966
 3412TIP3    H210114   7.387   2.172   2.062
 3413TIP3   OH210115   7.439   2.636   2.182
 3413TIP3    H110116   7.419   2.595   2.097
 3413TIP3    H210117   7.529   2.603   2.200
 3414TIP3   OH210118   7.443   2.198   2.388
 3414TIP3    H110119   7.477   2.174   2.299
 3414TIP3    H210120   7.489   2.282   2.407
 3415TIP3   OH210121   7.974   2.835   2.165
 3415TIP3    H110122   7.958   2.914   2.219
 3415TIP3    H210123   7.959   2.761   2.227
 3416TIP3   OH210124   7.584   2.754   2.711
 3416TIP3    H110125   7.524   2.817   2.757
 3416TIP3    H210126   7.518   2.700   2.662
 3417TIP3   OH210127   7.920   2.082   1.447
 3417TIP3    H110128   7.978   2.141   1.500
 3417TIP3    H210129   7.946   2.110   1.356
 3418TIP3   OH210130   7.340   2.310   2.815
 3418TIP3    H110131   7.342   2.397   2.858
 3418TIP3    H210132   7.244   2.291   2.818
 3419TIP3   OH210133   7.661   2.766   1.719
 3419TIP3    H110134   7.740   2.820   1.736
 3419TIP3    H210135   7.600   2.829   1.678
 3420TIP3   OH210136   7.378   2.923   2.798
 3420TIP3    H110137   7.345   2.920   2.706
 3420TIP3    H210138   7.298   2.901   2.850
 3421TIP3   OH210139   7.175   2.070   1.841
 3421TIP3    H110140   7.109   2.113   1.782
 3421TIP3    H210141   7.139   1.981   1.849
 3422TIP3   OH210142   8.232   2.695   1.038
 3422TIP3    H110143   8.236   2.793   1.025
 3422TIP3    H210144   8.325   2.670   1.022
 3423TIP3   OH210145   6.957   2.453   2.745
 3423TIP3    H110146   6.893   2.430   2.674
 3423TIP3    H210147   6.994   2.366   2.769
 3424TIP3   OH210148   6.812   2.644   2.380
 3424TIP3    H110149   6.907   2.637   2.367
 3424TIP3    H210150   6.805   2.725   2.433
 3425TIP3   OH210151   8.669   3.100   2.427
 3425TIP3    H110152   8.673   3.003   2.442
 3425TIP3    H210153   8.588   3.121   2.478
 3426TIP3   OH210154   7.783   2.883   2.569
 3426TIP3    H110155   7.781   2.976   2.601
 3426TIP3    H210156   7.711   2.843   2.622
 3427TIP3   OH210157   7.542   3.012   1.520
 3427TIP3    H110158   7.496   2.992   1.436
 3427TIP3    H210159   7.510   3.101   1.542
 3428TIP3   OH210160   6.980   2.861   1.903
 3428TIP3    H110161   7.028   2.851   1.989
 3428TIP3    H210162   6.925   2.781   1.904
 3429TIP3   OH210163   7.745   2.913   1.160
 3429TIP3    H110164   7.803   2.843   1.124
 3429TIP3    H210165   7.778   2.921   1.252
 3430TIP3   OH210166   7.794   2.961   1.430
 3430TIP3    H110167   7.706   2.970   1.472
 3430TIP3    H210168   7.845   2.919   1.502
 3431TIP3   OH210169   8.574   2.234   2.699
 3431TIP3    H110170   8.490   2.241   2.651
 3431TIP3    H210171   8.590   2.137   2.693
 3432TIP3   OH210172   7.163   2.636   2.735
 3432TIP3    H110173   7.213   2.617   2.817
 3432TIP3    H210174   7.089   2.572   2.741
 3433TIP3   OH210175   7.563   1.459   2.519
 3433TIP3    H110176   7.477   1.425   2.489
 3433TIP3    H210177   7.534   1.541   2.563
 3434TIP3   OH210178   8.096   1.573   2.711
 3434TIP3    H110179   8.164   1.547   2.776
 3434TIP3    H210180   8.012   1.553   2.757
 3435TIP3   OH210181   8.329   2.001   2.627
 3435TIP3    H110182   8.284   2.000   2.715
 3435TIP3    H210183   8.308   2.091   2.594
 3436TIP3   OH210184   8.003   2.146   1.199
 3436TIP3    H110185   7.960   2.109   1.119
 3436TIP3    H210186   8.082   2.187   1.161
 3437TIP3   OH210187   7.731   1.508   1.498
 3437TIP3    H110188   7.700   1.517   1.589
 3437TIP3    H210189   7.676   1.434   1.468
 3438TIP3   OH210190   7.494   1.974   2.536
 3438TIP3    H110191   7.443   1.994   2.617
 3438TIP3    H210192   7.477   2.055   2.482
 3439TIP3   OH210193   7.376   1.861   2.050
 3439TIP3    H110194   7.284   1.832   2.068
 3439TIP3    H210195   7.391   1.820   1.962
 3440TIP3   OH210196   7.869   1.947   1.779
 3440TIP3    H110197   7.816   2.017   1.735
 3440TIP3    H210198   7.921   1.912   1.705
 3441TIP3   OH210199   8.043   2.226   2.866
 3441TIP3    H110200   8.021   2.152   2.926
 3441TIP3    H210201   8.138   2.237   2.886
 3442TIP3   OH210202   8.025   1.975   2.016
 3442TIP3    H110203   7.964   2.000   1.943
 3442TIP3    H210204   8.060   1.892   1.975
 3443TIP3   OH210205   7.312   2.005   2.745
 3443TIP3    H110206   7.344   2.066   2.813
 3443TIP3    H210207   7.301   1.922   2.796
 3444TIP3   OH210208   7.361   1.479   1.460
 3444TIP3    H110209   7.349   1.477   1.558
 3444TIP3    H210210   7.282   1.527   1.432
 3445TIP3   OH210211   6.905   1.526   2.327
 3445TIP3    H110212   6.982   1.557   2.379
 3445TIP3    H210213   6.945   1.492   2.245
 3446TIP3   OH210214   6.878   1.506   1.847
 3446TIP3    H110215   6.922   1.545   1.768
 3446TIP3    H210216   6.817   1.579   1.868
 3447TIP3   OH210217   8.037   2.222   2.441
 3447TIP3    H110218   8.069   2.150   2.381
 3447TIP3    H210219   8.008   2.168   2.517
 3448TIP3   OH210220   7.708   1.693   2.111
 3448TIP3    H110221   7.627   1.674   2.161
 3448TIP3    H210222   7.776   1.679   2.178
 3449TIP3   OH210223   7.139   1.737   2.121
 3449TIP3    H110224   7.045   1.741   2.093
 3449TIP3    H210225   7.166   1.647   2.096
 3450TIP3   OH210226   7.408   1.735   1.809
 3450TIP3    H110227   7.503   1.751   1.790
 3450TIP3    H210228   7.363   1.758   1.725
 3451TIP3   OH210229   8.194   1.759   2.316
 3451TIP3    H110230   8.155   1.771   2.406
 3451TIP3    H210231   8.129   1.698   2.276
 3452TIP3   OH210232   7.249   1.771   1.587
 3452TIP3    H110233   7.178   1.727   1.537
 3452TIP3    H210234   7.302   1.807   1.514
 3453TIP3   OH210235   8.363   3.445   2.532
 3453TIP3    H110236   8.360   3.469   2.437
 3453TIP3    H210237   8.438   3.497   2.565
 3454TIP3   OH210238   7.322   2.557   2.955
 3454TIP3    H110239   7.403   2.588   3.001
 3454TIP3    H210240   7.258   2.557   3.029
 3455TIP3   OH210241   7.789   2.014   2.210
 3455TIP3    H110242   7.855   1.969   2.155
 3455TIP3    H210243   7.797   1.967   2.295
 3456TIP3   OH210244   7.310   1.498   2.086
 3456TIP3    H110245   7.277   1.419   2.134
 3456TIP3    H210246   7.382   1.460   2.033
 3457TIP3   OH210247   7.764   1.905   2.501
 3457TIP3    H110248   7.675   1.942   2.514
 3457TIP3    H210249   7.822   1.967   2.550
 3458TIP3   OH210250   7.499   2.300   1.592
 3458TIP3    H110251   7.428   2.233   1.582
 3458TIP3    H210252   7.483   2.332   1.684
 3459TIP3   OH210253   8.399   2.534   2.223
 3459TIP3    H110254   8.421   2.580   2.140
 3459TIP3    H210255   8.313   2.490   2.201
 3460TIP3   OH210256   7.949   1.643   1.400
 3460TIP3    H110257   7.872   1.595   1.438
 3460TIP3    H210258   7.968   1.711   1.468
 3461TIP3   OH210259   7.902   2.617   2.590
 3461TIP3    H110260   7.923   2.593   2.681
 3461TIP3    H210261   7.862   2.705   2.599
 3462TIP3   OH210262   8.032   1.853   1.561
 3462TIP3    H110263   8.129   1.862   1.576
 3462TIP3    H210264   8.012   1.932   1.508
 3463TIP3   OH210265   7.193   2.320   2.269
 3463TIP3    H110266   7.231   2.294   2.183
 3463TIP3    H210267   7.235   2.257   2.329
 3464TIP3   OH210268   7.647   2.449   1.416
 3464TIP3    H110269   7.599   2.534   1.423
 3464TIP3    H210270   7.592   2.392   1.475
 3465TIP3   OH210271   7.071   2.243   2.884
 3465TIP3    H110272   7.094   2.226   2.978
 3465TIP3    H210273   7.005   2.174   2.867
 3466TIP3   OH210274   7.799   2.354   2.904
 3466TIP3    H110275   7.741   2.297   2.851
 3466TIP3    H210276   7.887   2.321   2.877
 3467TIP3   OH210277   8.062   2.878   2.486
 3467TIP3    H110278   7.966   2.874   2.498
 3467TIP3    H210279   8.088   2.929   2.566
 3468TIP3   OH210280   8.461   1.947   1.414
 3468TIP3    H110281   8.430   1.879   1.352
 3468TIP3    H210282   8.447   2.027   1.360
 3469TIP3   OH210283   8.689   2.799   2.466
 3469TIP3    H110284   8.590   2.797   2.463
 3469TIP3    H210285   8.709   2.762   2.378
 3470TIP3   OH210286   8.174   2.767   1.305
 3470TIP3    H110287   8.145   2.699   1.367
 3470TIP3    H210288   8.182   2.718   1.221
 3471TIP3   OH210289   8.166   2.397   2.143
 3471TIP3    H110290   8.073   2.371   2.156
 3471TIP3    H210291   8.200   2.317   2.096
 3472TIP3   OH210292   7.294   2.624   1.897
 3472TIP3    H110293   7.296   2.705   1.842
 3472TIP3    H210294   7.199   2.607   1.902
 3473TIP3   OH210295   6.857   1.929   1.596
 3473TIP3    H110296   6.904   2.012   1.618
 3473TIP3    H210297   6.780   1.934   1.658
 3474TIP3   OH210298   7.434   2.391   1.840
 3474TIP3    H110299   7.398   2.480   1.858
 3474TIP3    H210300   7.397   2.340   1.914
 3475TIP3   OH210301   7.563   2.967   2.364
 3475TIP3    H110302   7.603   3.040   2.313
 3475TIP3    H210303   7.641   2.933   2.412
 3476TIP3   OH210304   7.214   2.863   1.747
 3476TIP3    H110305   7.128   2.871   1.793
 3476TIP3    H210306   7.245   2.956   1.750
 3477TIP3   OH210307   7.953   2.604   2.321
 3477TIP3    H110308   7.943   2.601   2.419
 3477TIP3    H210309   8.030   2.546   2.308
 3478TIP3   OH210310   7.927   2.495   1.203
 3478TIP3    H110311   7.979   2.470   1.283
 3478TIP3    H210312   7.839   2.465   1.231
 3479TIP3   OH210313   8.201   3.136   2.374
 3479TIP3    H110314   8.123   3.078   2.367
 3479TIP3    H210315   8.185   3.199   2.301
 3480TIP3   OH210316   8.265   2.971   1.024
 3480TIP3    H110317   8.296   3.044   0.968
 3480TIP3    H210318   8.185   3.014   1.061
 3481TIP3   OH210319   7.285   1.749   2.893
 3481TIP3    H110320   7.188   1.749   2.902
 3481TIP3    H210321   7.312   1.685   2.960
 3482TIP3   OH210322   8.084   2.431   1.421
 3482TIP3    H110323   8.074   2.363   1.491
 3482TIP3    H210324   8.181   2.429   1.410
 3483TIP3   OH210325   7.000   2.832   2.524
 3483TIP3    H110326   7.053   2.755   2.553
 3483TIP3    H210327   7.034   2.900   2.583
 3484TIP3   OH210328   7.292   2.475   1.204
 3484TIP3    H110329   7.307   2.383   1.175
 3484TIP3    H210330   7.273   2.462   1.299
 3485TIP3   OH210331   7.237   2.480   1.478
 3485TIP3    H110332   7.310   2.451   1.534
 3485TIP3    H210333   7.242   2.578   1.485
 3486TIP3   OH210334   6.973   2.173   1.680
 3486TIP3    H110335   6.907   2.218   1.737
 3486TIP3    H210336   6.989   2.243   1.613
 3487TIP3   OH210337   8.117   1.814   2.575
 3487TIP3    H110338   8.202   1.850   2.607
 3487TIP3    H210339   8.108   1.731   2.627
 3488TIP3   OH210340   7.964   1.590   1.732
 3488TIP3    H110341   7.991   1.588   1.640
 3488TIP3    H210342   8.030   1.650   1.772
 3489TIP3   OH210343   7.503   2.678   1.427
 3489TIP3    H110344   7.416   2.706   1.461
 3489TIP3    H210345   7.519   2.747   1.361
 3490TIP3   OH210346   7.686   1.742   1.839
 3490TIP3    H110347   7.757   1.806   1.818
 3490TIP3    H210348   7.694   1.735   1.936
 3491TIP3   OH210349   7.960   2.060   2.647
 3491TIP3    H110350   7.985   2.111   2.727
 3491TIP3    H210351   8.016   1.980   2.655
 3492TIP3   OH210352   7.843   1.467   1.941
 3492TIP3    H110353   7.833   1.544   2.001
 3492TIP3    H210354   7.892   1.510   1.867
 3493TIP3   OH210355   7.246   2.754   1.493
 3493TIP3    H110356   7.217   2.823   1.430
 3493TIP3    H210357   7.231   2.798   1.579
 3494TIP3   OH210358   7.349   1.466   1.733
 3494TIP3    H110359   7.342   1.555   1.774
 3494TIP3    H210360   7.445   1.451   1.746
 3495TIP3   OH210361   8.597   1.965   2.628
 3495TIP3    H110362   8.499   1.959   2.630
 3495TIP3    H210363   8.615   1.929   2.540
 3496TIP3   OH210364   8.242   2.162   2.012
 3496TIP3    H110365   8.169   2.098   2.023
 3496TIP3    H210366   8.316   2.117   2.060
 3497TIP3   OH210367   6.965   2.384   1.486
 3497TIP3    H110368   7.033   2.453   1.494
 3497TIP3    H210369   7.009   2.328   1.419
 3498TIP3   OH210370   6.908   1.658   1.623
 3498TIP3    H110371   6.907   1.755   1.615
 3498TIP3    H210372   6.830   1.633   1.571
 3499TIP3   OH210373   8.221   3.109   1.965
 3499TIP3    H110374   8.177   3.155   1.889
 3499TIP3    H210375   8.315   3.128   1.944
 3500TIP3   OH210376   7.293   1.379   2.495
 3500TIP3    H110377   7.268   1.347   2.405
 3500TIP3    H210378   7.288   1.297   2.547
 3501TIP3   OH210379   6.838   2.601   1.875
 3501TIP3    H110380   6.764   2.629   1.930
 3501TIP3    H210381   6.812   2.639   1.788
 3502TIP3   OH210382   6.992   3.138   2.946
 3502TIP3    H110383   7.079   3.137   2.992
 3502TIP3    H210384   6.973   3.043   2.943
 3503TIP3   OH210385   7.474   3.104   2.990
 3503TIP3    H110386   7.569   3.084   2.997
 3503TIP3    H210387   7.449   3.045   2.915
 3504TIP3   OH210388   7.454   2.681   1.119
 3504TIP3    H110389   7.401   2.607   1.157
 3504TIP3    H210390   7.529   2.633   1.081
 3505TIP3   OH210391   8.112   3.011   2.723
 3505TIP3    H110392   8.104   2.939   2.790
 3505TIP3    H210393   8.191   3.059   2.754
 3506TIP3   OH210394   7.895   2.722   1.031
 3506TIP3    H110395   7.937   2.655   1.088
 3506TIP3    H210396   7.949   2.720   0.950
 3507TIP3   OH210397   7.122   2.545   3.146
 3507TIP3    H110398   7.140   2.449   3.147
 3507TIP3    H210399   7.035   2.547   3.101
 3508TIP3   OH210400   7.100   2.197   1.339
 3508TIP3    H110401   7.155   2.161   1.410
 3508TIP3    H210402   7.167   2.201   1.267
 3509TIP3   OH210403   7.730   2.629   2.919
 3509TIP3    H110404   7.689   2.645   2.831
 3509TIP3    H210405   7.762   2.537   2.911
 3510TIP3   OH210406   7.610   2.391   1.148
 3510TIP3    H110407   7.612   2.404   1.245
 3510TIP3    H210408   7.614   2.293   1.143
 3511TIP3   OH210409   8.224   2.638   2.525
 3511TIP3    H110410   8.297   2.685   2.481
 3511TIP3    H210411   8.151   2.701   2.511
 3512TIP3   OH210412   7.240   2.279   3.127
 3512TIP3    H110413   7.317   2.226   3.101
 3512TIP3    H210414   7.268   2.311   3.216
 3513TIP3   OH210415   7.309   2.100   1.560
 3513TIP3    H110416   7.284   2.055   1.643
 3513TIP3    H210417   7.345   2.025   1.507
 3514TIP3   OH210418   7.576   2.163   2.789
 3514TIP3    H110419   7.500   2.224   2.791
 3514TIP3    H210420   7.626   2.197   2.711
 3515TIP3   OH210421   7.408   1.894   1.402
 3515TIP3    H110422   7.383   1.891   1.308
 3515TIP3    H210423   7.506   1.898   1.394
 3516TIP3   OH210424   8.094   2.566   2.922
 3516TIP3    H110425   8.175   2.542   2.874
 3516TIP3    H210426   8.092   2.498   2.992
 3517TIP3   OH210427   8.229   2.220   1.043
 3517TIP3    H110428   8.192   2.178   0.963
 3517TIP3    H210429   8.198   2.312   1.028
 3518TIP3   OH210430   7.698   1.951   2.917
 3518TIP3    H110431   7.701   1.872   2.860
 3518TIP3    H210432   7.657   2.017   2.857
 3519TIP3   OH210433   7.704   1.739   2.724
 3519TIP3    H110434   7.732   1.778   2.638
 3519TIP3    H210435   7.611   1.714   2.704
 3520TIP3   OH210436   7.730   2.276   2.598
 3520TIP3    H110437   7.812   2.278   2.548
 3520TIP3    H210438   7.675   2.342   2.551
 3521TIP3   OH210439   8.315   2.242   2.978
 3521TIP3    H110440   8.360   2.157   2.985
 3521TIP3    H210441   8.386   2.299   2.945
 3522TIP3   OH210442   8.353   2.495   2.714
 3522TIP3    H110443   8.296   2.548   2.653
 3522TIP3    H210444   8.441   2.511   2.673
 3523TIP3   OH210445   7.577   2.065   3.146
 3523TIP3    H110446   7.509   1.995   3.158
 3523TIP3    H210447   7.613   2.041   3.058
 3524TIP3   OH210448   7.835   1.503   2.790
 3524TIP3    H110449   7.789   1.586   2.765
 3524TIP3    H210450   7.764   1.437   2.776
 3525TIP3   OH210451   7.960   2.008   3.005
 3525TIP3    H110452   7.950   1.995   3.101
 3525TIP3    H210453   7.871   1.982   2.975
 3526TIP3   OH210454   8.202   1.960   2.862
 3526TIP3    H110455   8.126   1.957   2.922
 3526TIP3    H210456   8.275   1.927   2.918
 3527TIP3   OH210457   8.426   1.896   3.013
 3527TIP3    H110458   8.440   1.800   3.031
 3527TIP3    H210459   8.425   1.934   3.104
 3528TIP3   OH210460   7.417   1.845   3.199
 3528TIP3    H110461   7.424   1.755   3.161
 3528TIP3    H210462   7.454   1.829   3.288
 3529TIP3   OH210463   7.929   1.512   3.047
 3529TIP3    H110464   7.998   1.443   3.041
 3529TIP3    H210465   7.890   1.507   2.958
 3530TIP3   OH210466   7.994   1.726   3.206
 3530TIP3    H110467   7.973   1.655   3.141
 3530TIP3    H210468   7.917   1.785   3.198
 3531TIP3   OH210469   7.216   2.957   1.306
 3531TIP3    H110470   7.312   2.952   1.286
 3531TIP3    H210471   7.186   3.004   1.227
 3532TIP3   OH210472   6.696   2.337   1.523
 3532TIP3    H110473   6.791   2.358   1.508
 3532TIP3    H210474   6.691   2.248   1.481
 3533TIP3   OH210475   6.609   2.950   1.935
 3533TIP3    H110476   6.542   2.887   1.900
 3533TIP3    H210477   6.654   2.892   2.001
 3534TIP3   OH210478   6.745   2.802   2.122
 3534TIP3    H110479   6.735   2.727   2.183
 3534TIP3    H210480   6.797   2.863   2.178
 3535TIP3   OH210481   8.476   3.195   1.922
 3535TIP3    H110482   8.499   3.230   2.010
 3535TIP3    H210483   8.531   3.249   1.863
 3536TIP3   OH210484   8.505   3.219   2.203
 3536TIP3    H110485   8.460   3.132   2.198
 3536TIP3    H210486   8.577   3.195   2.264
 3537TIP3   OH210487   8.548   2.900   2.774
 3537TIP3    H110488   8.477   2.905   2.840
 3537TIP3    H210489   8.590   2.988   2.782
 3538TIP3   OH210490   8.360   2.416   1.395
 3538TIP3    H110491   8.430   2.480   1.372
 3538TIP3    H210492   8.400   2.373   1.474
 3539TIP3   OH210493   8.476   2.281   1.598
 3539TIP3    H110494   8.411   2.233   1.655
 3539TIP3    H210495   8.537   2.319   1.664
 3540TIP3   OH210496   8.545   2.665   2.028
 3540TIP3    H110497   8.590   2.609   1.964
 3540TIP3    H210498   8.532   2.747   1.977
 3541TIP3   OH210499   8.378   2.971   2.227
 3541TIP3    H110500   8.308   3.014   2.280
 3541TIP3    H210501   8.326   2.924   2.159
 3542TIP3   OH210502   8.401   2.178   1.258
 3542TIP3    H110503   8.338   2.185   1.184
 3542TIP3    H210504   8.375   2.255   1.312
 3543TIP3   OH210505   8.271   1.843   1.214
 3543TIP3    H110506   8.309   1.893   1.140
 3543TIP3    H210507   8.310   1.756   1.201
 3544TIP3   OH210508   8.306   2.131   1.746
 3544TIP3    H110509   8.315   2.034   1.742
 3544TIP3    H210510   8.290   2.146   1.841
 3545TIP3   OH210511   6.933   2.208   2.494
 3545TIP3    H110512   6.932   2.177   2.401
 3545TIP3    H210513   7.030   2.211   2.511
 3546TIP3   OH210514   8.596   2.558   2.603
 3546TIP3    H110515   8.670   2.494   2.596
 3546TIP3    H210516   8.625   2.629   2.543
 3547TIP3   OH210517   8.793   2.374   2.624
 3547TIP3    H110518   8.714   2.325   2.658
 3547TIP3    H210519   8.859   2.301   2.633
 3548TIP3   OH210520   8.307   1.848   1.639
 3548TIP3    H110521   8.351   1.761   1.658
 3548TIP3    H210522   8.367   1.883   1.571
 3549TIP3   OH210523   8.455   2.047   2.127
 3549TIP3    H110524   8.539   2.076   2.085
 3549TIP3    H210525   8.480   2.052   2.221
 3550TIP3   OH210526   8.535   2.171   2.376
 3550TIP3    H110527   8.453   2.202   2.420
 3550TIP3    H210528   8.563   2.251   2.327
 3551TIP3   OH210529   7.150   1.896   3.172
 3551TIP3    H110530   7.247   1.889   3.170
 3551TIP3    H210531   7.127   1.810   3.211
 3552TIP3   OH210532   8.414   1.600   1.693
 3552TIP3    H110533   8.455   1.590   1.781
 3552TIP3    H210534   8.351   1.526   1.695
 3553TIP3   OH210535   7.111   1.588   2.505
 3553TIP3    H110536   7.172   1.512   2.511
 3553TIP3    H210537   7.174   1.661   2.495
 3554TIP3   OH210538   6.915   1.863   2.573
 3554TIP3    H110539   6.964   1.850   2.489
 3554TIP3    H210540   6.948   1.949   2.600
 3555TIP3   OH210541   8.841   1.892   2.747
 3555TIP3    H110542   8.758   1.941   2.761
 3555TIP3    H210543   8.809   1.826   2.681
 3556TIP3   OH210544   6.897   1.366   2.076
 3556TIP3    H110545   6.803   1.363   2.097
 3556TIP3    H210546   6.899   1.422   1.996
 3557TIP3   OH210547   8.058   3.066   1.578
 3557TIP3    H110548   8.111   3.054   1.498
 3557TIP3    H210549   8.107   3.135   1.626
 3558TIP3   OH210550   7.119   1.449   2.891
 3558TIP3    H110551   7.066   1.440   2.971
 3558TIP3    H210552   7.053   1.483   2.828
 3559TIP3   OH210553   7.158   2.873   2.964
 3559TIP3    H110554   7.067   2.844   2.947
 3559TIP3    H210555   7.168   2.853   3.058
 3560TIP3   OH210556   7.336   2.905   2.513
 3560TIP3    H110557   7.289   2.980   2.473
 3560TIP3    H210558   7.422   2.917   2.468
 3561TIP3   OH210559   7.781   3.149   2.651
 3561TIP3    H110560   7.824   3.149   2.739
 3561TIP3    H210561   7.847   3.199   2.598
 3562TIP3   OH210562   7.960   3.300   2.509
 3562TIP3    H110563   8.030   3.249   2.465
 3562TIP3    H210564   8.012   3.357   2.569
 3563TIP3   OH210565   8.746   1.665   2.616
 3563TIP3    H110566   8.662   1.663   2.568
 3563TIP3    H210567   8.788   1.582   2.585
 3564TIP3   OH210568   7.013   3.161   2.535
 3564TIP3    H110569   6.924   3.194   2.511
 3564TIP3    H210570   7.023   3.199   2.624
 3565TIP3   OH210571   7.250   3.140   2.393
 3565TIP3    H110572   7.163   3.153   2.438
 3565TIP3    H210573   7.230   3.173   2.303
 3566TIP3   OH210574   7.675   3.169   2.192
 3566TIP3    H110575   7.607   3.189   2.125
 3566TIP3    H210576   7.688   3.257   2.233
 3567TIP3   OH210577   7.944   3.109   2.243
 3567TIP3    H110578   7.850   3.125   2.223
 3567TIP3    H210579   7.986   3.185   2.200
 3568TIP3   OH210580   8.153   3.297   2.158
 3568TIP3    H110581   8.139   3.383   2.111
 3568TIP3    H210582   8.177   3.238   2.084
 3569TIP3   OH210583   6.924   2.955   2.281
 3569TIP3    H110584   6.951   2.929   2.372
 3569TIP3    H210585   6.996   2.912   2.230
 3570TIP3   OH210586   7.118   2.827   2.138
 3570TIP3    H110587   7.134   2.742   2.186
 3570TIP3    H210588   7.209   2.863   2.133
 3571TIP3   OH210589   7.384   2.922   2.140
 3571TIP3    H110590   7.415   2.830   2.127
 3571TIP3    H210591   7.429   2.942   2.224
 3572TIP3   OH210592   7.958   1.578   2.228
 3572TIP3    H110593   7.917   1.509   2.282
 3572TIP3    H210594   8.028   1.529   2.180
 3573TIP3   OH210595   8.481   1.454   2.145
 3573TIP3    H110596   8.521   1.502   2.069
 3573TIP3    H210597   8.386   1.472   2.134
 3574TIP3   OH210598   8.584   1.552   1.911
 3574TIP3    H110599   8.657   1.520   1.856
 3574TIP3    H210600   8.599   1.649   1.904
 3575TIP3   OH210601   7.208   1.289   2.246
 3575TIP3    H110602   7.117   1.254   2.244
 3575TIP3    H210603   7.259   1.205   2.250
 3576TIP3   OH210604   6.991   1.154   1.885
 3576TIP3    H110605   7.024   1.213   1.815
 3576TIP3    H210606   6.967   1.218   1.955
 3577TIP3   OH210607   7.625   1.372   2.109
 3577TIP3    H110608   7.714   1.386   2.074
 3577TIP3    H210609   7.640   1.309   2.181
 3578TIP3   OH210610   8.203   1.468   2.099
 3578TIP3    H110611   8.191   1.442   2.006
 3578TIP3    H210612   8.183   1.384   2.147
 3579TIP3   OH210613   8.213   1.421   1.779
 3579TIP3    H110614   8.179   1.424   1.688
 3579TIP3    H210615   8.214   1.324   1.793
 3580TIP3   OH210616   6.712   2.726   1.672
 3580TIP3    H110617   6.627   2.693   1.637
 3580TIP3    H210618   6.701   2.821   1.653
 3581TIP3   OH210619   7.112   1.317   1.662
 3581TIP3    H110620   7.158   1.260   1.598
 3581TIP3    H210621   7.187   1.369   1.698
 3582TIP3   OH210622   7.630   1.484   1.760
 3582TIP3    H110623   7.687   1.450   1.831
 3582TIP3    H210624   7.644   1.580   1.777
 3583TIP3   OH210625   7.484   2.917   1.254
 3583TIP3    H110626   7.572   2.939   1.217
 3583TIP3    H210627   7.462   2.841   1.195
 3584TIP3   OH210628   8.207   3.034   1.346
 3584TIP3    H110629   8.197   2.936   1.334
 3584TIP3    H210630   8.158   3.067   1.268
 3585TIP3   OH210631   7.415   1.569   3.138
 3585TIP3    H110632   7.384   1.495   3.194
 3585TIP3    H210633   7.511   1.569   3.161
 3586TIP3   OH210634   7.666   1.566   3.255
 3586TIP3    H110635   7.750   1.541   3.213
 3586TIP3    H210636   7.655   1.493   3.320
 3587TIP3   OH210637   6.789   2.753   1.311
 3587TIP3    H110638   6.790   2.777   1.404
 3587TIP3    H210639   6.877   2.711   1.299
 3588TIP3   OH210640   8.487   1.626   3.044
 3588TIP3    H110641   8.511   1.594   3.134
 3588TIP3    H210642   8.574   1.624   2.999
 3589TIP3   OH210643   8.427   3.178   2.536
 3589TIP3    H110644   8.349   3.144   2.487
 3589TIP3    H210645   8.406   3.273   2.538
 3590TIP3   OH210646   8.652   2.066   1.575
 3590TIP3    H110647   8.582   2.133   1.573
 3590TIP3    H210648   8.608   1.995   1.524
 3591TIP3   OH210649   8.711   2.347   1.730
 3591TIP3    H110650   8.731   2.259   1.766
 3591TIP3    H210651   8.750   2.340   1.641
 3592TIP3   OH210652   8.567   2.585   1.312
 3592TIP3    H110653   8.538   2.598   1.220
 3592TIP3    H210654   8.597   2.674   1.336
 3593TIP3   OH210655   8.752   2.695   2.219
 3593TIP3    H110656   8.679   2.666   2.160
 3593TIP3    H210657   8.785   2.611   2.258
 3594TIP3   OH210658   8.611   2.903   1.868
 3594TIP3    H110659   8.708   2.911   1.863
 3594TIP3    H210660   8.587   2.984   1.915
 3595TIP3   OH210661   8.751   3.123   1.402
 3595TIP3    H110662   8.803   3.116   1.485
 3595TIP3    H210663   8.699   3.041   1.406
 3596TIP3   OH210664   8.900   2.917   2.245
 3596TIP3    H110665   8.928   2.894   2.335
 3596TIP3    H210666   8.836   2.844   2.227
 3597TIP3   OH210667   8.662   1.805   1.852
 3597TIP3    H110668   8.733   1.844   1.905
 3597TIP3    H210669   8.699   1.814   1.762
 3598TIP3   OH210670   8.852   2.491   2.373
 3598TIP3    H110671   8.871   2.459   2.463
 3598TIP3    H210672   8.784   2.427   2.345
 3599TIP3   OH210673   8.617   2.259   1.113
 3599TIP3    H110674   8.660   2.328   1.165
 3599TIP3    H210675   8.545   2.231   1.172
 3600TIP3   OH210676   8.798   3.092   2.015
 3600TIP3    H110677   8.833   3.018   2.068
 3600TIP3    H210678   8.824   3.167   2.069
 3601TIP3   OH210679   8.628   2.854   1.362
 3601TIP3    H110680   8.553   2.880   1.418
 3601TIP3    H210681   8.602   2.897   1.276
 3602TIP3   OH210682   8.782   3.389   2.433
 3602TIP3    H110683   8.872   3.375   2.468
 3602TIP3    H210684   8.752   3.297   2.429
 3603TIP3   OH210685   8.918   2.828   2.617
 3603TIP3    H110686   8.946   2.746   2.659
 3603TIP3    H210687   8.833   2.804   2.575
 3604TIP3   OH210688   8.492   2.597   0.994
 3604TIP3    H110689   8.588   2.584   1.010
 3604TIP3    H210690   8.469   2.508   0.959
 3605TIP3   OH210691   8.407   3.206   1.422
 3605TIP3    H110692   8.338   3.145   1.387
 3605TIP3    H210693   8.451   3.149   1.488
 3606TIP3   OH210694   8.541   3.056   1.611
 3606TIP3    H110695   8.524   2.984   1.675
 3606TIP3    H210696   8.591   3.118   1.667
 3607TIP3   OH210697   8.753   2.462   1.977
 3607TIP3    H110698   8.730   2.426   1.889
 3607TIP3    H210699   8.838   2.505   1.958
 3608TIP3   OH210700   8.931   2.140   2.636
 3608TIP3    H110701   9.023   2.171   2.650
 3608TIP3    H210702   8.926   2.064   2.696
 3609TIP3   OH210703   8.706   2.136   2.026
 3609TIP3    H110704   8.764   2.059   2.038
 3609TIP3    H210705   8.751   2.206   2.076
 3610TIP3   OH210706   8.948   3.141   2.474
 3610TIP3    H110707   8.867   3.104   2.436
 3610TIP3    H210708   8.955   3.095   2.558
 3611TIP3   OH210709   8.804   3.416   2.021
 3611TIP3    H110710   8.717   3.455   1.997
 3611TIP3    H210711   8.810   3.443   2.113
 3612TIP3   OH210712   9.048   3.390   1.882
 3612TIP3    H110713   8.960   3.401   1.922
 3612TIP3    H210714   9.036   3.430   1.794
 3613TIP3   OH210715   8.723   3.210   1.765
 3613TIP3    H110716   8.748   3.188   1.857
 3613TIP3    H210717   8.800   3.175   1.717
 3614TIP3   OH210718   8.927   3.098   1.612
 3614TIP3    H110719   8.948   3.003   1.620
 3614TIP3    H210720   9.016   3.139   1.618
 3615TIP3   OH210721   8.509   2.981   1.156
 3615TIP3    H110722   8.423   2.951   1.123
 3615TIP3    H210723   8.499   3.077   1.142
 3616TIP3   OH210724   8.607   3.021   0.811
 3616TIP3    H110725   8.570   3.051   0.896
 3616TIP3    H210726   8.666   2.949   0.840
 3617TIP3   OH210727   0.373   3.103   3.528
 3617TIP3    H110728   0.340   3.190   3.498
 3617TIP3    H210729   0.303   3.046   3.489
 3618TIP3   OH210730   0.345   3.086   3.890
 3618TIP3    H110731   0.381   3.053   3.974
 3618TIP3    H210732   0.315   3.005   3.847
 3619TIP3   OH210733  -0.354   2.980   4.251
 3619TIP3    H110734  -0.328   2.909   4.313
 3619TIP3    H210735  -0.277   3.039   4.258
 3620TIP3   OH210736   0.592   3.387   3.565
 3620TIP3    H110737   0.579   3.312   3.625
 3620TIP3    H210738   0.626   3.455   3.624
 3621TIP3   OH210739  -0.372   3.384   3.969
 3621TIP3    H110740  -0.387   3.288   3.976
 3621TIP3    H210741  -0.275   3.389   3.973
 3622TIP3   OH210742   0.243   3.845   3.584
 3622TIP3    H110743   0.290   3.776   3.532
 3622TIP3    H210744   0.242   3.805   3.672
 3623TIP3   OH210745   0.151   3.308   3.931
 3623TIP3    H110746   0.191   3.229   3.889
 3623TIP3    H210747   0.234   3.354   3.956
 3624TIP3   OH210748   1.163   2.627   3.929
 3624TIP3    H110749   1.192   2.711   3.970
 3624TIP3    H210750   1.191   2.640   3.837
 3625TIP3   OH210751   0.562   2.810   3.969
 3625TIP3    H110752   0.605   2.724   3.986
 3625TIP3    H210753   0.529   2.796   3.878
 3626TIP3   OH210754  -0.108   2.484   3.905
 3626TIP3    H110755  -0.126   2.539   3.828
 3626TIP3    H210756  -0.079   2.401   3.859
 3627TIP3   OH210757   0.595   2.576   3.575
 3627TIP3    H110758   0.674   2.558   3.633
 3627TIP3    H210759   0.639   2.614   3.497
 3628TIP3   OH210760  -0.471   2.654   4.040
 3628TIP3    H110761  -0.389   2.635   4.092
 3628TIP3    H210762  -0.434   2.673   3.953
 3629TIP3   OH210763  -0.019   2.870   3.827
 3629TIP3    H110764   0.076   2.856   3.846
 3629TIP3    H210765  -0.046   2.781   3.802
 3630TIP3   OH210766   1.237   2.834   4.100
 3630TIP3    H110767   1.153   2.882   4.081
 3630TIP3    H210768   1.249   2.857   4.194
 3631TIP3   OH210769  -0.110   2.451   4.359
 3631TIP3    H110770  -0.172   2.489   4.294
 3631TIP3    H210771  -0.157   2.471   4.443
 3632TIP3   OH210772   0.251   3.307   3.382
 3632TIP3    H110773   0.212   3.281   3.296
 3632TIP3    H210774   0.202   3.389   3.400
 3633TIP3   OH210775   0.003   3.225   4.159
 3633TIP3    H110776  -0.060   3.290   4.199
 3633TIP3    H210777   0.046   3.279   4.090
 3634TIP3   OH210778   0.813   2.560   3.729
 3634TIP3    H110779   0.808   2.508   3.809
 3634TIP3    H210780   0.868   2.636   3.756
 3635TIP3   OH210781  -0.225   2.580   4.138
 3635TIP3    H110782  -0.168   2.652   4.175
 3635TIP3    H210783  -0.167   2.548   4.067
 3636TIP3   OH210784  -0.170   3.417   4.253
 3636TIP3    H110785  -0.192   3.506   4.219
 3636TIP3    H210786  -0.247   3.403   4.313
 3637TIP3   OH210787   0.665   3.627   3.738
 3637TIP3    H110788   0.574   3.618   3.774
 3637TIP3    H210789   0.657   3.712   3.690
 3638TIP3   OH210790   0.957   2.529   4.097
 3638TIP3    H110791   0.869   2.557   4.066
 3638TIP3    H210792   1.015   2.559   4.025
 3639TIP3   OH210793   0.265   2.184   4.086
 3639TIP3    H110794   0.248   2.088   4.093
 3639TIP3    H210795   0.181   2.217   4.124
 3640TIP3   OH210796   0.365   3.676   3.407
 3640TIP3    H110797   0.415   3.593   3.387
 3640TIP3    H210798   0.426   3.741   3.365
 3641TIP3   OH210799   0.507   3.461   3.313
 3641TIP3    H110800   0.476   3.379   3.272
 3641TIP3    H210801   0.543   3.427   3.398
 3642TIP3   OH210802   0.891   3.542   4.077
 3642TIP3    H110803   0.881   3.462   4.020
 3642TIP3    H210804   0.877   3.614   4.012
 3643TIP3   OH210805   0.211   2.969   3.360
 3643TIP3    H110806   0.122   3.004   3.336
 3643TIP3    H210807   0.261   2.983   3.277
 3644TIP3   OH210808   1.087   3.178   3.923
 3644TIP3    H110809   1.004   3.230   3.927
 3644TIP3    H210810   1.116   3.198   3.832
 3645TIP3   OH210811   0.536   3.030   3.315
 3645TIP3    H110812   0.487   3.055   3.396
 3645TIP3    H210813   0.617   2.991   3.353
 3646TIP3   OH210814   0.765   3.055   4.218
 3646TIP3    H110815   0.761   3.139   4.267
 3646TIP3    H210816   0.679   3.059   4.172
 3647TIP3   OH210817  -0.225   3.023   3.728
 3647TIP3    H110818  -0.279   2.950   3.692
 3647TIP3    H210819  -0.147   2.974   3.760
 3648TIP3   OH210820  -0.102   3.431   3.866
 3648TIP3    H110821  -0.124   3.381   3.787
 3648TIP3    H210822  -0.013   3.395   3.888
 3649TIP3   OH210823  -0.104   2.988   4.072
 3649TIP3    H110824  -0.063   2.969   3.986
 3649TIP3    H210825  -0.060   3.071   4.099
 3650TIP3   OH210826   0.420   3.624   3.855
 3650TIP3    H110827   0.412   3.700   3.915
 3650TIP3    H210828   0.409   3.547   3.915
 3651TIP3   OH210829   0.031   3.550   4.394
 3651TIP3    H110830  -0.025   3.609   4.447
 3651TIP3    H210831  -0.035   3.492   4.352
 3652TIP3   OH210832   0.367   2.901   3.140
 3652TIP3    H110833   0.444   2.933   3.191
 3652TIP3    H210834   0.403   2.898   3.049
 3653TIP3   OH210835  -0.199   3.101   4.489
 3653TIP3    H110836  -0.196   3.189   4.531
 3653TIP3    H210837  -0.292   3.077   4.508
 3654TIP3   OH210838   0.110   3.558   3.397
 3654TIP3    H110839   0.193   3.605   3.421
 3654TIP3    H210840   0.050   3.631   3.377
 3655TIP3   OH210841  -0.168   3.720   4.488
 3655TIP3    H110842  -0.205   3.705   4.399
 3655TIP3    H210843  -0.236   3.679   4.546
 3656TIP3   OH210844   0.687   3.490   2.725
 3656TIP3    H110845   0.698   3.587   2.716
 3656TIP3    H210846   0.779   3.459   2.712
 3657TIP3   OH210847  -0.587   3.255   4.430
 3657TIP3    H110848  -0.641   3.210   4.364
 3657TIP3    H210849  -0.549   3.179   4.478
 3658TIP3   OH210850   1.125   3.883   4.121
 3658TIP3    H110851   1.128   3.786   4.132
 3658TIP3    H210852   1.043   3.905   4.168
 3659TIP3   OH210853   0.230   3.674   4.252
 3659TIP3    H110854   0.230   3.764   4.290
 3659TIP3    H210855   0.162   3.631   4.309
 3660TIP3   OH210856  -0.007   3.798   3.213
 3660TIP3    H110857  -0.045   3.787   3.124
 3660TIP3    H210858  -0.035   3.889   3.237
 3661TIP3   OH210859  -0.544   3.638   3.572
 3661TIP3    H110860  -0.504   3.620   3.660
 3661TIP3    H210861  -0.601   3.559   3.558
 3662TIP3   OH210862   0.202   3.696   2.851
 3662TIP3    H110863   0.263   3.629   2.813
 3662TIP3    H210864   0.240   3.707   2.941
 3663TIP3   OH210865   0.246   3.749   3.122
 3663TIP3    H110866   0.161   3.757   3.170
 3663TIP3    H210867   0.301   3.704   3.189
 3664TIP3   OH210868   1.018   3.016   4.397
 3664TIP3    H110869   0.938   3.028   4.344
 3664TIP3    H210870   1.034   2.920   4.387
 3665TIP3   OH210871  -0.383   3.434   4.418
 3665TIP3    H110872  -0.334   3.423   4.503
 3665TIP3    H210873  -0.452   3.366   4.428
 3666TIP3   OH210874   0.010   2.251   4.207
 3666TIP3    H110875  -0.070   2.222   4.162
 3666TIP3    H210876  -0.023   2.326   4.261
 3667TIP3   OH210877   0.547   2.365   4.403
 3667TIP3    H110878   0.614   2.333   4.466
 3667TIP3    H210879   0.462   2.342   4.446
 3668TIP3   OH210880   0.787   2.791   4.320
 3668TIP3    H110881   0.738   2.788   4.405
 3668TIP3    H210882   0.762   2.878   4.284
 3669TIP3   OH210883   0.460   2.922   2.881
 3669TIP3    H110884   0.391   2.917   2.814
 3669TIP3    H210885   0.525   2.982   2.842
 3670TIP3   OH210886  -0.051   2.770   4.226
 3670TIP3    H110887  -0.099   2.789   4.309
 3670TIP3    H210888  -0.070   2.851   4.174
 3671TIP3   OH210889   0.312   2.747   3.483
 3671TIP3    H110890   0.268   2.823   3.439
 3671TIP3    H210891   0.381   2.724   3.415
 3672TIP3   OH210892   0.496   3.012   4.553
 3672TIP3    H110893   0.470   2.942   4.616
 3672TIP3    H210894   0.589   3.025   4.577
 3673TIP3   OH210895   0.469   2.773   3.714
 3673TIP3    H110896   0.410   2.798   3.639
 3673TIP3    H210897   0.508   2.692   3.674
 3674TIP3   OH210898  -0.235   2.792   4.433
 3674TIP3    H110899  -0.208   2.857   4.500
 3674TIP3    H210900  -0.244   2.711   4.485
 3675TIP3   OH210901   0.487   3.011   4.130
 3675TIP3    H110902   0.521   2.938   4.072
 3675TIP3    H210903   0.459   2.958   4.208
 3676TIP3   OH210904   0.179   2.491   3.814
 3676TIP3    H110905   0.110   2.505   3.881
 3676TIP3    H210906   0.257   2.472   3.870
 3677TIP3   OH210907   0.650   2.547   4.005
 3677TIP3    H110908   0.612   2.558   4.095
 3677TIP3    H210909   0.588   2.483   3.967
 3678TIP3   OH210910   0.814   4.242   4.221
 3678TIP3    H110911   0.798   4.252   4.125
 3678TIP3    H210912   0.907   4.268   4.227
 3679TIP3   OH210913  -0.229   3.337   4.630
 3679TIP3    H110914  -0.147   3.344   4.685
 3679TIP3    H210915  -0.292   3.357   4.701
 3680TIP3   OH210916   0.236   2.801   3.899
 3680TIP3    H110917   0.307   2.762   3.845
 3680TIP3    H210918   0.252   2.759   3.986
 3681TIP3   OH210919   0.216   2.695   4.189
 3681TIP3    H110920   0.128   2.734   4.206
 3681TIP3    H210921   0.276   2.754   4.240
 3682TIP3   OH210922  -0.031   3.079   3.307
 3682TIP3    H110923  -0.109   3.027   3.283
 3682TIP3    H210924  -0.059   3.119   3.393
 3683TIP3   OH210925   0.854   3.324   3.914
 3683TIP3    H110926   0.879   3.370   3.832
 3683TIP3    H210927   0.769   3.281   3.888
 3684TIP3   OH210928   0.360   3.410   4.286
 3684TIP3    H110929   0.360   3.379   4.377
 3684TIP3    H210930   0.308   3.491   4.294
 3685TIP3   OH210931   0.499   2.682   3.299
 3685TIP3    H110932   0.595   2.668   3.290
 3685TIP3    H210933   0.471   2.685   3.206
 3686TIP3   OH210934  -0.359   3.104   3.960
 3686TIP3    H110935  -0.313   3.081   3.877
 3686TIP3    H210936  -0.313   3.048   4.024
 3687TIP3   OH210937   0.104   3.254   3.152
 3687TIP3    H110938   0.043   3.328   3.132
 3687TIP3    H210939   0.045   3.192   3.201
 3688TIP3   OH210940  -0.448   3.034   4.576
 3688TIP3    H110941  -0.431   3.023   4.672
 3688TIP3    H210942  -0.538   2.997   4.565
 3689TIP3   OH210943   0.251   3.142   4.597
 3689TIP3    H110944   0.192   3.085   4.547
 3689TIP3    H210945   0.339   3.109   4.569
 3690TIP3   OH210946   0.513   3.679   4.169
 3690TIP3    H110947   0.418   3.662   4.185
 3690TIP3    H210948   0.538   3.721   4.254
 3691TIP3   OH210949   0.916   2.731   3.094
 3691TIP3    H110950   0.867   2.686   3.022
 3691TIP3    H210951   0.922   2.820   3.053
 3692TIP3   OH210952   1.142   3.597   4.165
 3692TIP3    H110953   1.044   3.588   4.157
 3692TIP3    H210954   1.168   3.565   4.075
 3693TIP3   OH210955   0.611   3.551   2.990
 3693TIP3    H110956   0.601   3.480   3.055
 3693TIP3    H210957   0.634   3.504   2.908
 3694TIP3   OH210958   0.620   3.185   3.833
 3694TIP3    H110959   0.526   3.159   3.843
 3694TIP3    H210960   0.655   3.106   3.787
 3695TIP3   OH210961  -0.255   3.416   3.578
 3695TIP3    H110962  -0.256   3.501   3.530
 3695TIP3    H210963  -0.349   3.396   3.586
 3696TIP3   OH210964  -0.114   3.187   3.538
 3696TIP3    H110965  -0.150   3.276   3.555
 3696TIP3    H210966  -0.155   3.135   3.610
 3697TIP3   OH210967   0.017   3.757   4.052
 3697TIP3    H110968   0.063   3.827   4.003
 3697TIP3    H210969   0.090   3.719   4.105
 3698TIP3   OH210970  -0.314   3.658   3.432
 3698TIP3    H110971  -0.403   3.659   3.473
 3698TIP3    H210972  -0.290   3.753   3.438
 3699TIP3   OH210973   0.406   3.393   4.014
 3699TIP3    H110974   0.398   3.390   4.112
 3699TIP3    H210975   0.482   3.335   3.999
 3700TIP3   OH210976   0.374   3.284   2.887
 3700TIP3    H110977   0.419   3.262   2.971
 3700TIP3    H210978   0.290   3.234   2.897
 3701TIP3   OH210979   0.651   3.930   4.071
 3701TIP3    H110980   0.579   3.865   4.066
 3701TIP3    H210981   0.632   3.986   3.992
 3702TIP3   OH210982   0.713   3.764   2.714
 3702TIP3    H110983   0.762   3.840   2.677
 3702TIP3    H210984   0.631   3.810   2.743
 3703TIP3   OH210985  -0.252   2.532   4.589
 3703TIP3    H110986  -0.342   2.545   4.620
 3703TIP3    H210987  -0.217   2.468   4.654
 3704TIP3   OH210988   0.538   3.221   3.111
 3704TIP3    H110989   0.526   3.155   3.182
 3704TIP3    H210990   0.635   3.217   3.100
 3705TIP3   OH210991  -0.514   3.641   4.206
 3705TIP3    H110992  -0.482   3.550   4.214
 3705TIP3    H210993  -0.505   3.670   4.297
 3706TIP3   OH210994  -0.315   3.298   3.235
 3706TIP3    H110995  -0.279   3.298   3.324
 3706TIP3    H210996  -0.320   3.394   3.214
 3707TIP3   OH210997   0.571   2.602   4.264
 3707TIP3    H110998   0.654   2.637   4.299
 3707TIP3    H210999   0.558   2.520   4.316
 3708TIP3   OH211000   0.539   2.380   3.399
 3708TIP3    H111001   0.447   2.396   3.372
 3708TIP3    H211002   0.551   2.447   3.469
 3709TIP3   OH211003  -0.056   3.468   3.075
 3709TIP3    H111004  -0.137   3.488   3.126
 3709TIP3    H211005  -0.009   3.553   3.082
 3710TIP3   OH211006   0.221   2.493   3.524
 3710TIP3    H111007   0.250   2.584   3.500
 3710TIP3    H211008   0.187   2.508   3.613
 3711TIP3   OH211009   0.413   2.847   4.337
 3711TIP3    H111010   0.435   2.901   4.416
 3711TIP3    H211011   0.469   2.769   4.348
 3712TIP3   OH211012   0.336   2.265   3.652
 3712TIP3    H111013   0.315   2.316   3.732
 3712TIP3    H211014   0.379   2.332   3.598
 3713TIP3   OH211015  -0.290   3.565   3.177
 3713TIP3    H111016  -0.313   3.640   3.119
 3713TIP3    H211017  -0.302   3.604   3.267
 3714TIP3   OH211018   1.053   2.749   4.317
 3714TIP3    H111019   0.955   2.748   4.323
 3714TIP3    H211020   1.064   2.706   4.230
 3715TIP3   OH211021   0.705   2.944   3.707
 3715TIP3    H111022   0.628   2.885   3.719
 3715TIP3    H211023   0.777   2.896   3.754
 3716TIP3   OH211024   0.671   3.901   3.656
 3716TIP3    H111025   0.630   3.949   3.581
 3716TIP3    H211026   0.766   3.919   3.637
 3717TIP3   OH211027   4.951   9.077   9.200
 3717TIP3    H111028   4.855   9.079   9.186
 3717TIP3    H211029   4.980   9.027   9.122
 3718TIP3   OH211030  -0.074   3.906   4.671
 3718TIP3    H111031   0.014   3.870   4.692
 3718TIP3    H211032  -0.103   3.842   4.603
 3719TIP3   OH211033   0.566   3.800   4.412
 3719TIP3    H111034   0.553   3.727   4.477
 3719TIP3    H211035   0.646   3.844   4.446
 3720TIP3   OH211036   0.355   3.510   2.717
 3720TIP3    H111037   0.366   3.437   2.781
 3720TIP3    H211038   0.441   3.512   2.673
 3721TIP3   OH211039  -0.412   3.321   4.844
 3721TIP3    H111040  -0.363   3.237   4.842
 3721TIP3    H211041  -0.503   3.290   4.823
 3722TIP3   OH211042   0.225   3.430   4.574
 3722TIP3    H111043   0.137   3.432   4.534
 3722TIP3    H211044   0.229   3.338   4.608
 3723TIP3   OH211045   0.679   3.422   4.215
 3723TIP3    H111046   0.748   3.473   4.169
 3723TIP3    H211047   0.602   3.481   4.205
 3724TIP3   OH211048  -0.313   3.041   4.829
 3724TIP3    H111049  -0.225   3.022   4.794
 3724TIP3    H211050  -0.290   3.082   4.916
 3725TIP3   OH211051   0.030   2.948   4.476
 3725TIP3    H111052  -0.044   3.012   4.480
 3725TIP3    H211053   0.081   2.982   4.399
 3726TIP3   OH211054   0.555   3.357   4.614
 3726TIP3    H111055   0.630   3.325   4.564
 3726TIP3    H211056   0.545   3.290   4.684
 3727TIP3   OH211057   0.684   3.012   2.719
 3727TIP3    H111058   0.663   2.998   2.626
 3727TIP3    H211059   0.652   3.105   2.727
 3728TIP3   OH211060   0.153   2.739   4.605
 3728TIP3    H111061   0.153   2.660   4.548
 3728TIP3    H211062   0.110   2.806   4.547
 3729TIP3   OH211063   0.152   2.526   4.411
 3729TIP3    H111064   0.182   2.566   4.327
 3729TIP3    H211065   0.059   2.502   4.389
 3730TIP3   OH211066   0.181   3.058   4.282
 3730TIP3    H111067   0.266   3.068   4.237
 3730TIP3    H211068   0.127   3.128   4.240
 3731TIP3   OH211069   0.768   3.028   4.667
 3731TIP3    H111070   0.815   2.944   4.671
 3731TIP3    H211071   0.835   3.087   4.630
 3732TIP3   OH211072   0.807   3.282   4.406
 3732TIP3    H111073   0.749   3.335   4.346
 3732TIP3    H211074   0.895   3.301   4.364
 3733TIP3   OH211075   0.027   2.851   4.834
 3733TIP3    H111076  -0.039   2.781   4.846
 3733TIP3    H211077   0.065   2.828   4.747
 3734TIP3   OH211078   0.289   2.294   4.482
 3734TIP3    H111079   0.239   2.374   4.456
 3734TIP3    H211080   0.222   2.224   4.467
 3735TIP3   OH211081   0.414   2.794   4.694
 3735TIP3    H111082   0.399   2.793   4.790
 3735TIP3    H211083   0.324   2.769   4.664
 3736TIP3   OH211084   0.653   2.745   4.550
 3736TIP3    H111085   0.576   2.747   4.609
 3736TIP3    H211086   0.725   2.713   4.608
 3737TIP3   OH211087   0.882   2.684   4.703
 3737TIP3    H111088   0.896   2.589   4.724
 3737TIP3    H211089   0.878   2.726   4.791
 3738TIP3   OH211090  -0.136   2.634   4.889
 3738TIP3    H111091  -0.125   2.544   4.854
 3738TIP3    H211092  -0.096   2.624   4.978
 3739TIP3   OH211093   0.382   2.299   4.739
 3739TIP3    H111094   0.449   2.228   4.731
 3739TIP3    H211095   0.342   2.297   4.650
 3740TIP3   OH211096   0.448   2.514   4.896
 3740TIP3    H111097   0.425   2.444   4.831
 3740TIP3    H211098   0.371   2.574   4.889
 3741TIP3   OH211099  -0.323   3.770   2.994
 3741TIP3    H111100  -0.227   3.770   2.973
 3741TIP3    H211101  -0.358   3.804   2.908
 3742TIP3   OH211102   0.922   3.999   3.612
 3742TIP3    H111103   0.965   4.027   3.694
 3742TIP3    H211104   0.989   4.018   3.545
 3743TIP3   OH211105   0.958   4.012   3.901
 3743TIP3    H111106   0.911   3.926   3.889
 3743TIP3    H211107   1.035   3.980   3.951
 3744TIP3   OH211108   1.000   3.688   4.465
 3744TIP3    H111109   0.929   3.694   4.532
 3744TIP3    H211110   1.043   3.776   4.474
 3745TIP3   OH211111   0.818   3.203   3.086
 3745TIP3    H111112   0.889   3.265   3.059
 3745TIP3    H211113   0.858   3.162   3.166
 3746TIP3   OH211114   0.942   3.071   3.290
 3746TIP3    H111115   0.880   3.025   3.351
 3746TIP3    H211116   1.011   3.104   3.352
 3747TIP3   OH211117   0.998   3.457   3.721
 3747TIP3    H111118   1.053   3.391   3.674
 3747TIP3    H211119   0.996   3.531   3.658
 3748TIP3   OH211120   0.831   3.762   3.916
 3748TIP3    H111121   0.758   3.796   3.969
 3748TIP3    H211122   0.785   3.710   3.847
 3749TIP3   OH211123   0.878   2.975   2.941
 3749TIP3    H111124   0.809   2.976   2.872
 3749TIP3    H211125   0.852   3.051   2.996
 3750TIP3   OH211126   0.764   2.652   2.881
 3750TIP3    H111127   0.678   2.690   2.860
 3750TIP3    H211128   0.744   2.556   2.882
 3751TIP3   OH211129   0.761   2.921   3.436
 3751TIP3    H111130   0.772   2.825   3.427
 3751TIP3    H211131   0.748   2.933   3.532
 3752TIP3   OH211132  -0.608   3.026   4.154
 3752TIP3    H111133  -0.593   2.954   4.092
 3752TIP3    H211134  -0.520   3.026   4.198
 3753TIP3   OH211135   1.049   3.348   4.294
 3753TIP3    H111136   1.121   3.281   4.286
 3753TIP3    H211137   1.076   3.415   4.229
 3754TIP3   OH211138   1.234   3.155   4.314
 3754TIP3    H111139   1.159   3.103   4.350
 3754TIP3    H211140   1.307   3.091   4.327
 3755TIP3   OH211141   0.773   2.642   3.334
 3755TIP3    H111142   0.809   2.552   3.348
 3755TIP3    H211143   0.828   2.672   3.259
 3756TIP3   OH211144   0.918   2.815   3.827
 3756TIP3    H111145   1.003   2.840   3.786
 3756TIP3    H211146   0.933   2.850   3.917
 3757TIP3   OH211147   0.987   2.958   4.061
 3757TIP3    H111148   0.908   2.992   4.107
 3757TIP3    H211149   1.019   3.038   4.014
 3758TIP3   OH211150  -0.414   2.647   4.865
 3758TIP3    H111151  -0.326   2.682   4.842
 3758TIP3    H211152  -0.390   2.591   4.938
 3759TIP3   OH211153   1.420   2.538   4.612
 3759TIP3    H111154   1.491   2.479   4.579
 3759TIP3    H211155   1.408   2.602   4.539
 3760TIP3   OH211156   0.867   2.382   3.364
 3760TIP3    H111157   0.922   2.374   3.445
 3760TIP3    H211158   0.799   2.316   3.383
 3761TIP3   OH211159  -0.608   2.654   4.287
 3761TIP3    H111160  -0.573   2.650   4.197
 3761TIP3    H211161  -0.633   2.746   4.296
 3762TIP3   OH211162   1.310   2.693   4.414
 3762TIP3    H111163   1.221   2.729   4.433
 3762TIP3    H211164   1.285   2.616   4.360
 3763TIP3   OH211165   1.014   2.329   2.998
 3763TIP3    H111166   1.047   2.260   2.939
 3763TIP3    H211167   1.080   2.398   2.981
 3764TIP3   OH211168   0.508   3.862   3.269
 3764TIP3    H111169   0.556   3.839   3.186
 3764TIP3    H211170   0.575   3.916   3.314
 3765TIP3   OH211171  -0.433   2.238   4.590
 3765TIP3    H111172  -0.490   2.224   4.667
 3765TIP3    H211173  -0.493   2.282   4.529
 3766TIP3   OH211174  -0.359   3.626   4.657
 3766TIP3    H111175  -0.444   3.674   4.653
 3766TIP3    H211176  -0.348   3.615   4.754
 3767TIP3   OH211177  -0.205   3.686   4.204
 3767TIP3    H111178  -0.259   3.759   4.168
 3767TIP3    H211179  -0.120   3.705   4.159
 3768TIP3   OH211180   0.234   3.939   4.343
 3768TIP3    H111181   0.277   3.935   4.431
 3768TIP3    H211182   0.302   3.987   4.290
 3769TIP3   OH211183   0.411   4.090   4.196
 3769TIP3    H111184   0.480   4.034   4.155
 3769TIP3    H211185   0.465   4.144   4.257
 3770TIP3   OH211186   1.207   2.450   4.300
 3770TIP3    H111187   1.117   2.442   4.264
 3770TIP3    H211188   1.240   2.358   4.286
 3771TIP3   OH211189  -0.301   3.931   4.091
 3771TIP3    H111190  -0.389   3.931   4.132
 3771TIP3    H211191  -0.321   3.963   4.000
 3772TIP3   OH211192   0.130   3.958   3.880
 3772TIP3    H111193   0.062   3.979   3.814
 3772TIP3    H211194   0.142   4.045   3.925
 3773TIP3   OH211195   0.398   3.901   3.934
 3773TIP3    H111196   0.303   3.913   3.912
 3773TIP3    H211197   0.439   3.974   3.886
 3774TIP3   OH211198   0.606   4.091   3.847
 3774TIP3    H111199   0.590   4.173   3.797
 3774TIP3    H211200   0.632   4.028   3.775
 3775TIP3   OH211201  -0.574   3.767   3.962
 3775TIP3    H111202  -0.553   3.726   4.049
 3775TIP3    H211203  -0.519   3.709   3.905
 3776TIP3   OH211204  -0.420   3.602   3.812
 3776TIP3    H111205  -0.410   3.519   3.865
 3776TIP3    H211206  -0.328   3.635   3.814
 3777TIP3   OH211207  -0.157   3.711   3.830
 3777TIP3    H111208  -0.128   3.619   3.817
 3777TIP3    H211209  -0.113   3.729   3.915
 3778TIP3   OH211210   0.409   2.366   3.919
 3778TIP3    H111211   0.368   2.297   3.976
 3778TIP3    H211212   0.481   2.316   3.876
 3779TIP3   OH211213   0.938   2.255   3.827
 3779TIP3    H111214   0.973   2.302   3.748
 3779TIP3    H211215   0.842   2.264   3.815
 3780TIP3   OH211216   1.030   2.346   3.584
 3780TIP3    H111217   1.103   2.294   3.544
 3780TIP3    H211218   1.066   2.437   3.573
 3781TIP3   OH211219   0.655   2.255   3.800
 3781TIP3    H111220   0.655   2.214   3.713
 3781TIP3    H211221   0.641   2.175   3.857
 3782TIP3   OH211222  -0.055   3.724   2.943
 3782TIP3    H111223   0.037   3.728   2.909
 3782TIP3    H211224  -0.091   3.650   2.893
 3783TIP3   OH211225   0.646   3.815   3.035
 3783TIP3    H111226   0.639   3.717   3.021
 3783TIP3    H211227   0.609   3.849   2.951
 3784TIP3   OH211228  -0.134   2.357   4.826
 3784TIP3    H111229  -0.166   2.283   4.881
 3784TIP3    H211230  -0.039   2.357   4.852
 3785TIP3   OH211231   0.117   2.351   4.944
 3785TIP3    H111232   0.201   2.328   4.901
 3785TIP3    H211233   0.106   2.277   5.007
 3786TIP3   OH211234   0.952   2.411   4.737
 3786TIP3    H111235   0.994   2.356   4.804
 3786TIP3    H211236   1.028   2.423   4.675
 3787TIP3   OH211237   0.880   3.967   4.228
 3787TIP3    H111238   0.804   3.929   4.178
 3787TIP3    H211239   0.855   4.061   4.226
 3788TIP3   OH211240   2.154   3.344   2.990
 3788TIP3    H111241   2.121   3.433   2.970
 3788TIP3    H211242   2.080   3.288   2.960
 3789TIP3   OH211243   2.145   3.340   3.371
 3789TIP3    H111244   2.177   3.310   3.457
 3789TIP3    H211245   2.105   3.259   3.336
 3790TIP3   OH211246   1.445   3.237   3.742
 3790TIP3    H111247   1.478   3.168   3.802
 3790TIP3    H211248   1.528   3.280   3.715
 3791TIP3   OH211249   2.389   3.645   3.051
 3791TIP3    H111250   2.377   3.571   3.112
 3791TIP3    H211251   2.424   3.715   3.110
 3792TIP3   OH211252   1.413   3.636   3.497
 3792TIP3    H111253   1.412   3.539   3.483
 3792TIP3    H211254   1.500   3.657   3.461
 3793TIP3   OH211255   1.121   2.852   3.240
 3793TIP3    H111256   1.067   2.931   3.256
 3793TIP3    H211257   1.055   2.790   3.205
 3794TIP3   OH211258   1.184   3.132   3.417
 3794TIP3    H111259   1.232   3.056   3.456
 3794TIP3    H211260   1.241   3.156   3.343
 3795TIP3   OH211261   2.040   4.105   3.068
 3795TIP3    H111262   2.090   4.033   3.023
 3795TIP3    H211263   2.029   4.068   3.157
 3796TIP3   OH211264   1.946   3.564   3.420
 3796TIP3    H111265   1.982   3.486   3.375
 3796TIP3    H211266   2.031   3.608   3.442
 3797TIP3   OH211267   2.961   2.897   3.430
 3797TIP3    H111268   2.960   2.985   3.471
 3797TIP3    H211269   2.975   2.920   3.337
 3798TIP3   OH211270   2.361   3.067   3.453
 3798TIP3    H111271   2.401   2.980   3.467
 3798TIP3    H211272   2.324   3.055   3.363
 3799TIP3   OH211273   1.674   2.744   3.414
 3799TIP3    H111274   1.692   2.798   3.334
 3799TIP3    H211275   1.648   2.661   3.369
 3800TIP3   OH211276   2.392   2.808   3.043
 3800TIP3    H111277   2.465   2.796   3.107
 3800TIP3    H211278   2.438   2.854   2.971
 3801TIP3   OH211279   1.330   2.930   3.531
 3801TIP3    H111280   1.415   2.909   3.574
 3801TIP3    H211281   1.338   2.868   3.454
 3802TIP3   OH211282   1.774   3.128   3.319
 3802TIP3    H111283   1.868   3.111   3.341
 3802TIP3    H211284   1.759   3.050   3.262
 3803TIP3   OH211285   1.694   2.710   3.853
 3803TIP3    H111286   1.635   2.743   3.782
 3803TIP3    H211287   1.638   2.728   3.932
 3804TIP3   OH211288   2.052   3.567   2.853
 3804TIP3    H111289   1.990   3.523   2.793
 3804TIP3    H211290   2.002   3.649   2.875
 3805TIP3   OH211291   1.801   3.483   3.648
 3805TIP3    H111292   1.737   3.548   3.684
 3805TIP3    H211293   1.841   3.534   3.574
 3806TIP3   OH211294   2.603   2.818   3.213
 3806TIP3    H111295   2.589   2.772   3.297
 3806TIP3    H211296   2.652   2.898   3.241
 3807TIP3   OH211297   1.563   2.825   3.641
 3807TIP3    H111298   1.629   2.895   3.658
 3807TIP3    H211299   1.600   2.790   3.555
 3808TIP3   OH211300   1.629   3.676   3.750
 3808TIP3    H111301   1.599   3.755   3.700
 3808TIP3    H211302   1.549   3.660   3.804
 3809TIP3   OH211303   1.021   3.369   2.980
 3809TIP3    H111304   0.979   3.400   2.898
 3809TIP3    H211305   1.047   3.455   3.021
 3810TIP3   OH211306   2.459   3.883   3.217
 3810TIP3    H111307   2.371   3.872   3.260
 3810TIP3    H211308   2.450   3.973   3.181
 3811TIP3   OH211309   2.752   2.770   3.576
 3811TIP3    H111310   2.671   2.819   3.555
 3811TIP3    H211311   2.817   2.813   3.518
 3812TIP3   OH211312   2.057   2.429   3.577
 3812TIP3    H111313   2.035   2.334   3.580
 3812TIP3    H211314   1.974   2.468   3.612
 3813TIP3   OH211315   2.167   3.932   2.897
 3813TIP3    H111316   2.217   3.850   2.879
 3813TIP3    H211317   2.224   3.997   2.852
 3814TIP3   OH211318   2.309   3.716   2.798
 3814TIP3    H111319   2.251   3.640   2.777
 3814TIP3    H211320   2.346   3.686   2.884
 3815TIP3   OH211321   2.653   3.803   3.559
 3815TIP3    H111322   2.687   3.721   3.519
 3815TIP3    H211323   2.714   3.868   3.521
 3816TIP3   OH211324   1.979   3.200   2.822
 3816TIP3    H111325   1.893   3.238   2.797
 3816TIP3    H211326   2.023   3.186   2.737
 3817TIP3   OH211327   1.937   2.980   2.532
 3817TIP3    H111328   2.005   3.023   2.586
 3817TIP3    H211329   1.990   2.912   2.488
 3818TIP3   OH211330   2.884   3.415   3.389
 3818TIP3    H111331   2.809   3.474   3.413
 3818TIP3    H211332   2.917   3.463   3.311
 3819TIP3   OH211333   2.327   3.276   2.791
 3819TIP3    H111334   2.270   3.298   2.869
 3819TIP3    H211335   2.408   3.246   2.837
 3820TIP3   OH211336   2.551   3.306   3.703
 3820TIP3    H111337   2.552   3.395   3.743
 3820TIP3    H211338   2.465   3.308   3.657
 3821TIP3   OH211339   1.563   3.274   3.209
 3821TIP3    H111340   1.516   3.216   3.145
 3821TIP3    H211341   1.636   3.215   3.239
 3822TIP3   OH211342   1.684   3.680   3.360
 3822TIP3    H111343   1.664   3.633   3.278
 3822TIP3    H211344   1.775   3.650   3.378
 3823TIP3   OH211345   1.689   3.240   3.567
 3823TIP3    H111346   1.721   3.214   3.477
 3823TIP3    H211347   1.736   3.325   3.582
 3824TIP3   OH211348   2.217   3.880   3.341
 3824TIP3    H111349   2.211   3.956   3.400
 3824TIP3    H211350   2.207   3.804   3.401
 3825TIP3   OH211351   1.833   3.798   3.890
 3825TIP3    H111352   1.773   3.862   3.934
 3825TIP3    H211353   1.767   3.745   3.839
 3826TIP3   OH211354   2.169   3.128   2.621
 3826TIP3    H111355   2.226   3.187   2.676
 3826TIP3    H211356   2.195   3.156   2.530
 3827TIP3   OH211357   1.590   3.353   3.993
 3827TIP3    H111358   1.591   3.441   4.037
 3827TIP3    H211359   1.494   3.335   3.992
 3828TIP3   OH211360   1.915   3.806   2.888
 3828TIP3    H111361   1.991   3.862   2.915
 3828TIP3    H211362   1.845   3.869   2.874
 3829TIP3   OH211363   1.627   3.968   3.974
 3829TIP3    H111364   1.594   3.963   3.882
 3829TIP3    H211365   1.546   3.947   4.026
 3830TIP3   OH211366   2.682   2.371   2.667
 3830TIP3    H111367   2.601   2.390   2.719
 3830TIP3    H211368   2.694   2.455   2.619
 3831TIP3   OH211369   1.421   3.122   3.026
 3831TIP3    H111370   1.351   3.151   2.965
 3831TIP3    H211371   1.413   3.025   3.024
 3832TIP3   OH211372   2.480   3.739   2.212
 3832TIP3    H111373   2.491   3.836   2.202
 3832TIP3    H211374   2.573   3.709   2.201
 3833TIP3   OH211375   1.206   3.498   3.921
 3833TIP3    H111376   1.143   3.473   3.850
 3833TIP3    H211377   1.244   3.411   3.946
 3834TIP3   OH211378   1.064   3.685   3.557
 3834TIP3    H111379   1.159   3.672   3.542
 3834TIP3    H211380   1.062   3.766   3.610
 3835TIP3   OH211381   2.926   4.136   3.601
 3835TIP3    H111382   2.930   4.037   3.597
 3835TIP3    H211383   2.844   4.148   3.654
 3836TIP3   OH211384   2.030   3.927   3.746
 3836TIP3    H111385   2.030   4.020   3.778
 3836TIP3    H211386   1.958   3.888   3.800
 3837TIP3   OH211387   1.781   4.070   2.679
 3837TIP3    H111388   1.693   4.031   2.671
 3837TIP3    H211389   1.763   4.156   2.720
 3838TIP3   OH211390   2.043   4.015   2.607
 3838TIP3    H111391   1.951   4.020   2.641
 3838TIP3    H211392   2.085   3.957   2.672
 3839TIP3   OH211393   1.410   3.683   3.915
 3839TIP3    H111394   1.462   3.660   3.995
 3839TIP3    H211395   1.337   3.618   3.918
 3840TIP3   OH211396   1.810   2.502   3.694
 3840TIP3    H111397   1.720   2.472   3.668
 3840TIP3    H211398   1.787   2.587   3.734
 3841TIP3   OH211399   2.344   2.625   3.890
 3841TIP3    H111400   2.411   2.588   3.951
 3841TIP3    H211401   2.259   2.598   3.932
 3842TIP3   OH211402   2.608   3.071   3.851
 3842TIP3    H111403   2.518   3.054   3.882
 3842TIP3    H211404   2.593   3.131   3.775
 3843TIP3   OH211405   2.242   3.182   2.363
 3843TIP3    H111406   2.211   3.153   2.275
 3843TIP3    H211407   2.326   3.227   2.340
 3844TIP3   OH211408   1.961   2.554   2.668
 3844TIP3    H111409   1.931   2.558   2.762
 3844TIP3    H211410   1.918   2.470   2.642
 3845TIP3   OH211411   1.747   3.020   3.716
 3845TIP3    H111412   1.690   3.037   3.794
 3845TIP3    H211413   1.726   3.098   3.661
 3846TIP3   OH211414   2.146   3.017   2.959
 3846TIP3    H111415   2.064   3.062   2.932
 3846TIP3    H211416   2.165   2.962   2.882
 3847TIP3   OH211417   2.280   3.264   4.031
 3847TIP3    H111418   2.257   3.199   4.101
 3847TIP3    H211419   2.368   3.293   4.058
 3848TIP3   OH211420   2.280   3.020   3.195
 3848TIP3    H111421   2.223   3.047   3.119
 3848TIP3    H211422   2.308   2.934   3.158
 3849TIP3   OH211423   1.562   3.049   3.922
 3849TIP3    H111424   1.587   3.110   3.993
 3849TIP3    H211425   1.549   2.965   3.970
 3850TIP3   OH211426   1.607   2.526   2.647
 3850TIP3    H111427   1.606   2.545   2.742
 3850TIP3    H211428   1.520   2.557   2.621
 3851TIP3   OH211429   1.153   2.573   3.510
 3851TIP3    H111430   1.231   2.608   3.556
 3851TIP3    H211431   1.188   2.547   3.424
 3852TIP3   OH211432   2.280   3.267   3.613
 3852TIP3    H111433   2.314   3.197   3.554
 3852TIP3    H211434   2.250   3.213   3.689
 3853TIP3   OH211435   1.963   2.666   3.310
 3853TIP3    H111436   1.882   2.714   3.281
 3853TIP3    H211437   2.001   2.731   3.370
 3854TIP3   OH211438   1.366   2.761   3.325
 3854TIP3    H111439   1.286   2.786   3.274
 3854TIP3    H211440   1.421   2.714   3.260
 3855TIP3   OH211441   2.436   2.805   3.498
 3855TIP3    H111442   2.392   2.815   3.583
 3855TIP3    H211443   2.377   2.738   3.456
 3856TIP3   OH211444   1.454   2.843   2.756
 3856TIP3    H111445   1.402   2.783   2.700
 3856TIP3    H211446   1.532   2.858   2.699
 3857TIP3   OH211447   2.614   4.494   3.710
 3857TIP3    H111448   2.616   4.508   3.614
 3857TIP3    H211449   2.697   4.538   3.739
 3858TIP3   OH211450   1.571   3.603   4.131
 3858TIP3    H111451   1.651   3.633   4.178
 3858TIP3    H211452   1.507   3.599   4.205
 3859TIP3   OH211453   2.042   3.067   3.393
 3859TIP3    H111454   2.092   3.014   3.328
 3859TIP3    H211455   2.049   3.013   3.473
 3860TIP3   OH211456   1.584   2.534   3.267
 3860TIP3    H111457   1.532   2.460   3.302
 3860TIP3    H211458   1.573   2.527   3.171
 3861TIP3   OH211459   2.013   2.947   3.677
 3861TIP3    H111460   1.921   2.981   3.687
 3861TIP3    H211461   2.066   3.014   3.724
 3862TIP3   OH211462   1.744   3.347   2.766
 3862TIP3    H111463   1.676   3.276   2.759
 3862TIP3    H211464   1.730   3.377   2.859
 3863TIP3   OH211465   2.657   3.570   3.405
 3863TIP3    H111466   2.680   3.624   3.326
 3863TIP3    H211467   2.569   3.535   3.379
 3864TIP3   OH211468   2.205   2.659   2.615
 3864TIP3    H111469   2.111   2.639   2.638
 3864TIP3    H211470   2.219   2.749   2.651
 3865TIP3   OH211471   2.157   3.666   3.766
 3865TIP3    H111472   2.166   3.637   3.857
 3865TIP3    H211473   2.109   3.750   3.774
 3866TIP3   OH211474   2.279   2.895   2.728
 3866TIP3    H111475   2.373   2.907   2.753
 3866TIP3    H211476   2.257   2.981   2.686
 3867TIP3   OH211477   1.443   3.364   3.444
 3867TIP3    H111478   1.481   3.338   3.357
 3867TIP3    H211479   1.483   3.298   3.502
 3868TIP3   OH211480   1.887   3.490   2.580
 3868TIP3    H111481   1.848   3.578   2.600
 3868TIP3    H211482   1.837   3.433   2.643
 3869TIP3   OH211483   1.319   3.287   4.061
 3869TIP3    H111484   1.341   3.270   4.154
 3869TIP3    H211485   1.253   3.219   4.042
 3870TIP3   OH211486   2.041   3.399   4.081
 3870TIP3    H111487   1.978   3.343   4.032
 3870TIP3    H211488   2.126   3.366   4.045
 3871TIP3   OH211489   2.306   3.937   3.655
 3871TIP3    H111490   2.212   3.922   3.673
 3871TIP3    H211491   2.335   3.979   3.739
 3872TIP3   OH211492   2.722   2.990   2.570
 3872TIP3    H111493   2.659   2.946   2.509
 3872TIP3    H211494   2.717   3.080   2.531
 3873TIP3   OH211495   2.418   3.811   2.480
 3873TIP3    H111496   2.395   3.745   2.548
 3873TIP3    H211497   2.432   3.758   2.400
 3874TIP3   OH211498   2.412   3.441   3.319
 3874TIP3    H111499   2.319   3.413   3.329
 3874TIP3    H211500   2.450   3.363   3.275
 3875TIP3   OH211501   1.538   3.668   3.066
 3875TIP3    H111502   1.534   3.752   3.016
 3875TIP3    H211503   1.447   3.658   3.095
 3876TIP3   OH211504   1.099   2.991   2.779
 3876TIP3    H111505   1.152   3.068   2.808
 3876TIP3    H211506   1.029   2.988   2.847
 3877TIP3   OH211507   1.685   3.438   3.014
 3877TIP3    H111508   1.642   3.523   3.034
 3877TIP3    H211509   1.652   3.382   3.088
 3878TIP3   OH211510   1.813   4.011   3.550
 3878TIP3    H111511   1.853   4.078   3.491
 3878TIP3    H211512   1.892   3.976   3.595
 3879TIP3   OH211513   1.464   3.908   2.921
 3879TIP3    H111514   1.379   3.917   2.971
 3879TIP3    H211515   1.493   4.002   2.925
 3880TIP3   OH211516   2.203   3.648   3.496
 3880TIP3    H111517   2.195   3.645   3.594
 3880TIP3    H211518   2.279   3.591   3.480
 3881TIP3   OH211519   2.167   3.545   2.381
 3881TIP3    H111520   2.227   3.520   2.456
 3881TIP3    H211521   2.084   3.508   2.415
 3882TIP3   OH211522   2.442   4.192   3.566
 3882TIP3    H111523   2.378   4.119   3.557
 3882TIP3    H211524   2.430   4.240   3.482
 3883TIP3   OH211525   2.514   4.015   2.201
 3883TIP3    H111526   2.556   4.088   2.153
 3883TIP3    H211527   2.435   4.061   2.234
 3884TIP3   OH211528   1.534   2.794   4.069
 3884TIP3    H111529   1.437   2.795   4.079
 3884TIP3    H211530   1.560   2.731   4.137
 3885TIP3   OH211531   2.334   3.469   2.588
 3885TIP3    H111532   2.321   3.409   2.664
 3885TIP3    H211533   2.432   3.469   2.584
 3886TIP3   OH211534   1.249   3.877   3.701
 3886TIP3    H111535   1.300   3.796   3.713
 3886TIP3    H211536   1.291   3.935   3.766
 3887TIP3   OH211537   1.531   3.523   2.370
 3887TIP3    H111538   1.555   3.431   2.348
 3887TIP3    H211539   1.523   3.516   2.468
 3888TIP3   OH211540   1.490   3.524   2.646
 3888TIP3    H111541   1.552   3.486   2.709
 3888TIP3    H211542   1.495   3.620   2.665
 3889TIP3   OH211543   1.222   3.224   2.858
 3889TIP3    H111544   1.158   3.269   2.918
 3889TIP3    H211545   1.237   3.295   2.793
 3890TIP3   OH211546   2.373   2.876   3.778
 3890TIP3    H111547   2.469   2.872   3.774
 3890TIP3    H211548   2.351   2.785   3.810
 3891TIP3   OH211549   2.261   2.604   2.908
 3891TIP3    H111550   2.238   2.636   2.820
 3891TIP3    H211551   2.297   2.685   2.951
 3892TIP3   OH211552   1.754   3.726   2.602
 3892TIP3    H111553   1.669   3.746   2.646
 3892TIP3    H211554   1.747   3.780   2.524
 3893TIP3   OH211555   2.203   3.101   3.815
 3893TIP3    H111556   2.225   3.151   3.896
 3893TIP3    H211557   2.259   3.021   3.820
 3894TIP3   OH211558   2.085   2.514   3.118
 3894TIP3    H111559   2.058   2.585   3.182
 3894TIP3    H211560   2.147   2.562   3.059
 3895TIP3   OH211561   1.500   3.797   2.672
 3895TIP3    H111562   1.470   3.867   2.610
 3895TIP3    H211563   1.477   3.837   2.759
 3896TIP3   OH211564   2.501   3.200   3.191
 3896TIP3    H111565   2.424   3.141   3.203
 3896TIP3    H211566   2.572   3.151   3.239
 3897TIP3   OH211567   1.212   3.431   2.658
 3897TIP3    H111568   1.277   3.502   2.674
 3897TIP3    H211569   1.264   3.375   2.597
 3898TIP3   OH211570   1.148   2.709   2.740
 3898TIP3    H111571   1.168   2.795   2.779
 3898TIP3    H211572   1.119   2.657   2.816
 3899TIP3   OH211573   2.465   4.161   3.142
 3899TIP3    H111574   2.426   4.212   3.068
 3899TIP3    H211575   2.560   4.176   3.125
 3900TIP3   OH211576   1.544   2.425   3.670
 3900TIP3    H111577   1.513   2.394   3.582
 3900TIP3    H211578   1.534   2.345   3.725
 3901TIP3   OH211579   1.075   3.630   3.058
 3901TIP3    H111580   1.026   3.684   3.121
 3901TIP3    H211581   1.126   3.697   3.012
 3902TIP3   OH211582   1.231   4.188   4.141
 3902TIP3    H111583   1.321   4.186   4.179
 3902TIP3    H211584   1.217   4.093   4.126
 3903TIP3   OH211585   1.717   4.146   4.169
 3903TIP3    H111586   1.813   4.136   4.174
 3903TIP3    H211587   1.696   4.088   4.093
 3904TIP3   OH211588   2.360   4.056   3.900
 3904TIP3    H111589   2.352   3.984   3.967
 3904TIP3    H211590   2.440   4.104   3.929
 3905TIP3   OH211591   2.127   3.778   2.198
 3905TIP3    H111592   2.168   3.728   2.270
 3905TIP3    H211593   2.197   3.774   2.129
 3906TIP3   OH211594   1.371   3.590   4.323
 3906TIP3    H111595   1.389   3.494   4.326
 3906TIP3    H211596   1.284   3.591   4.277
 3907TIP3   OH211597   1.356   3.243   2.519
 3907TIP3    H111598   1.404   3.200   2.592
 3907TIP3    H211599   1.428   3.246   2.451
 3908TIP3   OH211600   1.979   3.675   4.095
 3908TIP3    H111601   1.936   3.692   4.009
 3908TIP3    H211602   2.008   3.581   4.087
 3909TIP3   OH211603   1.854   3.436   2.312
 3909TIP3    H111604   1.855   3.452   2.409
 3909TIP3    H211605   1.859   3.338   2.311
 3910TIP3   OH211606   2.470   3.677   3.711
 3910TIP3    H111607   2.536   3.725   3.655
 3910TIP3    H211608   2.393   3.732   3.695
 3911TIP3   OH211609   1.489   3.327   4.304
 3911TIP3    H111610   1.561   3.267   4.280
 3911TIP3    H211611   1.517   3.356   4.393
 3912TIP3   OH211612   1.560   3.141   2.738
 3912TIP3    H111613   1.538   3.100   2.823
 3912TIP3    H211614   1.592   3.063   2.688
 3913TIP3   OH211615   1.829   3.213   3.970
 3913TIP3    H111616   1.748   3.268   3.970
 3913TIP3    H211617   1.874   3.243   3.887
 3914TIP3   OH211618   1.658   2.935   2.581
 3914TIP3    H111619   1.632   2.936   2.487
 3914TIP3    H211620   1.756   2.942   2.574
 3915TIP3   OH211621   2.339   3.610   4.101
 3915TIP3    H111622   2.422   3.597   4.053
 3915TIP3    H211623   2.345   3.544   4.172
 3916TIP3   OH211624   2.479   3.272   2.238
 3916TIP3    H111625   2.457   3.223   2.157
 3916TIP3    H211626   2.445   3.361   2.214
 3917TIP3   OH211627   1.953   2.997   4.090
 3917TIP3    H111628   1.949   2.917   4.035
 3917TIP3    H211629   1.907   3.063   4.033
 3918TIP3   OH211630   1.952   2.784   3.900
 3918TIP3    H111631   1.978   2.823   3.815
 3918TIP3    H211632   1.859   2.759   3.882
 3919TIP3   OH211633   1.982   3.324   3.775
 3919TIP3    H111634   2.060   3.323   3.719
 3919TIP3    H211635   1.924   3.388   3.729
 3920TIP3   OH211636   2.617   3.542   3.890
 3920TIP3    H111637   2.553   3.594   3.834
 3920TIP3    H211638   2.697   3.554   3.838
 3921TIP3   OH211639   1.829   3.109   4.322
 3921TIP3    H111640   1.759   3.041   4.336
 3921TIP3    H211641   1.862   3.085   4.233
 3922TIP3   OH211642   2.085   2.547   3.963
 3922TIP3    H111643   2.035   2.629   3.940
 3922TIP3    H211644   2.016   2.479   3.951
 3923TIP3   OH211645   2.211   3.052   4.182
 3923TIP3    H111646   2.191   3.033   4.276
 3923TIP3    H211647   2.123   3.028   4.145
 3924TIP3   OH211648   2.475   3.017   4.087
 3924TIP3    H111649   2.381   3.027   4.115
 3924TIP3    H211650   2.487   2.922   4.102
 3925TIP3   OH211651   1.668   2.890   4.373
 3925TIP3    H111652   1.672   2.798   4.338
 3925TIP3    H211653   1.705   2.875   4.463
 3926TIP3   OH211654   2.182   2.565   4.219
 3926TIP3    H111655   2.242   2.488   4.222
 3926TIP3    H211656   2.141   2.553   4.131
 3927TIP3   OH211657   2.252   2.780   4.373
 3927TIP3    H111658   2.229   2.705   4.314
 3927TIP3    H211659   2.170   2.833   4.372
 3928TIP3   OH211660   1.488   4.000   2.479
 3928TIP3    H111661   1.548   4.067   2.444
 3928TIP3    H211662   1.415   4.009   2.416
 3929TIP3   OH211663   0.943   3.385   2.689
 3929TIP3    H111664   1.039   3.408   2.685
 3929TIP3    H211665   0.943   3.294   2.654
 3930TIP3   OH211666   0.831   3.996   3.120
 3930TIP3    H111667   0.777   3.921   3.088
 3930TIP3    H211668   0.900   3.949   3.172
 3931TIP3   OH211669   0.973   3.844   3.305
 3931TIP3    H111670   0.982   3.771   3.369
 3931TIP3    H211671   1.042   3.905   3.334
 3932TIP3   OH211672   2.718   4.259   3.096
 3932TIP3    H111673   2.750   4.277   3.187
 3932TIP3    H211674   2.794   4.285   3.042
 3933TIP3   OH211675   2.759   4.272   3.379
 3933TIP3    H111676   2.704   4.190   3.374
 3933TIP3    H211677   2.826   4.240   3.441
 3934TIP3   OH211678   2.801   3.941   3.959
 3934TIP3    H111679   2.726   3.950   4.020
 3934TIP3    H211680   2.840   4.030   3.960
 3935TIP3   OH211681   2.616   3.456   2.573
 3935TIP3    H111682   2.687   3.518   2.549
 3935TIP3    H211683   2.655   3.415   2.654
 3936TIP3   OH211684   2.742   3.323   2.778
 3936TIP3    H111685   2.675   3.280   2.836
 3936TIP3    H211686   2.803   3.363   2.842
 3937TIP3   OH211687   2.769   3.705   3.194
 3937TIP3    H111688   2.846   3.650   3.171
 3937TIP3    H211689   2.775   3.779   3.132
 3938TIP3   OH211690   2.627   4.036   3.388
 3938TIP3    H111691   2.568   4.030   3.465
 3938TIP3    H211692   2.590   3.964   3.333
 3939TIP3   OH211693   2.680   3.232   2.423
 3939TIP3    H111694   2.607   3.235   2.358
 3939TIP3    H211695   2.654   3.306   2.481
 3940TIP3   OH211696   2.554   2.903   2.374
 3940TIP3    H111697   2.504   2.940   2.300
 3940TIP3    H211698   2.529   2.808   2.368
 3941TIP3   OH211699   2.557   3.179   2.922
 3941TIP3    H111700   2.561   3.082   2.920
 3941TIP3    H211701   2.542   3.196   3.018
 3942TIP3   OH211702   1.181   3.254   3.670
 3942TIP3    H111703   1.181   3.221   3.577
 3942TIP3    H211704   1.278   3.257   3.687
 3943TIP3   OH211705   3.022   3.410   3.877
 3943TIP3    H111706   2.951   3.392   3.815
 3943TIP3    H211707   3.082   3.336   3.849
 3944TIP3   OH211708   2.496   2.637   2.362
 3944TIP3    H111709   2.569   2.607   2.420
 3944TIP3    H211710   2.421   2.581   2.389
 3945TIP3   OH211711   2.551   2.896   2.820
 3945TIP3    H111712   2.590   2.807   2.836
 3945TIP3    H211713   2.610   2.928   2.750
 3946TIP3   OH211714   2.713   3.061   3.305
 3946TIP3    H111715   2.800   3.089   3.270
 3946TIP3    H211716   2.718   3.105   3.393
 3947TIP3   OH211717   2.756   3.207   3.530
 3947TIP3    H111718   2.695   3.250   3.593
 3947TIP3    H211719   2.809   3.282   3.497
 3948TIP3   OH211720   1.402   2.946   4.350
 3948TIP3    H111721   1.499   2.936   4.348
 3948TIP3    H211722   1.376   2.858   4.386
 3949TIP3   OH211723   3.225   2.817   4.082
 3949TIP3    H111724   3.284   2.744   4.053
 3949TIP3    H211725   3.217   2.869   4.001
 3950TIP3   OH211726   2.663   2.645   2.854
 3950TIP3    H111727   2.708   2.630   2.940
 3950TIP3    H211728   2.600   2.570   2.854
 3951TIP3   OH211729   1.361   2.635   3.689
 3951TIP3    H111730   1.423   2.559   3.690
 3951TIP3    H211731   1.423   2.708   3.671
 3952TIP3   OH211732   1.162   2.908   3.750
 3952TIP3    H111733   1.211   2.894   3.666
 3952TIP3    H211734   1.198   2.993   3.777
 3953TIP3   OH211735   2.742   2.581   2.488
 3953TIP3    H111736   2.782   2.508   2.437
 3953TIP3    H211737   2.810   2.651   2.483
 3954TIP3   OH211738   1.156   2.423   3.260
 3954TIP3    H111739   1.059   2.423   3.259
 3954TIP3    H211740   1.180   2.465   3.177
 3955TIP3   OH211741   2.307   4.120   2.756
 3955TIP3    H111742   2.354   4.097   2.673
 3955TIP3    H211743   2.373   4.173   2.802
 3956TIP3   OH211744   1.368   2.492   4.067
 3956TIP3    H111745   1.314   2.485   4.148
 3956TIP3    H211746   1.302   2.528   4.005
 3957TIP3   OH211747   1.405   3.924   4.141
 3957TIP3    H111748   1.316   3.889   4.122
 3957TIP3    H211749   1.418   3.896   4.233
 3958TIP3   OH211750   1.583   3.952   3.693
 3958TIP3    H111751   1.537   4.027   3.650
 3958TIP3    H211752   1.670   3.962   3.649
 3959TIP3   OH211753   2.032   4.193   3.826
 3959TIP3    H111754   2.073   4.195   3.915
 3959TIP3    H211755   2.098   4.244   3.774
 3960TIP3   OH211756   2.210   4.346   3.682
 3960TIP3    H111757   2.280   4.290   3.644
 3960TIP3    H211758   2.262   4.401   3.744
 3961TIP3   OH211759   2.997   2.696   3.795
 3961TIP3    H111760   2.915   2.711   3.746
 3961TIP3    H211761   3.024   2.606   3.765
 3962TIP3   OH211762   1.263   4.213   3.707
 3962TIP3    H111763   1.172   4.245   3.688
 3962TIP3    H211764   1.272   4.241   3.799
 3963TIP3   OH211765   1.499   4.187   3.569
 3963TIP3    H111766   1.413   4.199   3.614
 3963TIP3    H211767   1.478   4.215   3.478
 3964TIP3   OH211768   1.927   4.214   3.363
 3964TIP3    H111769   1.850   4.231   3.304
 3964TIP3    H211770   1.934   4.300   3.410
 3965TIP3   OH211771   2.193   4.156   3.418
 3965TIP3    H111772   2.097   4.167   3.398
 3965TIP3    H211773   2.231   4.235   3.377
 3966TIP3   OH211774   2.412   4.353   3.335
 3966TIP3    H111775   2.387   4.430   3.281
 3966TIP3    H211776   2.431   4.285   3.267
 3967TIP3   OH211777   1.174   3.996   3.459
 3967TIP3    H111778   1.208   3.967   3.547
 3967TIP3    H211779   1.241   3.958   3.400
 3968TIP3   OH211780   1.655   3.989   3.303
 3968TIP3    H111781   1.648   3.894   3.285
 3968TIP3    H211782   1.679   3.987   3.397
 3969TIP3   OH211783   2.236   2.625   3.429
 3969TIP3    H111784   2.165   2.568   3.462
 3969TIP3    H211785   2.278   2.570   3.362
 3970TIP3   OH211786   2.737   2.495   3.304
 3970TIP3    H111787   2.771   2.553   3.233
 3970TIP3    H211788   2.641   2.515   3.304
 3971TIP3   OH211789   2.829   2.605   3.071
 3971TIP3    H111790   2.903   2.554   3.031
 3971TIP3    H211791   2.860   2.697   3.057
 3972TIP3   OH211792   1.453   2.328   3.426
 3972TIP3    H111793   1.361   2.295   3.423
 3972TIP3    H211794   1.503   2.245   3.421
 3973TIP3   OH211795   1.263   2.177   3.082
 3973TIP3    H111796   1.301   2.251   3.030
 3973TIP3    H211797   1.210   2.228   3.145
 3974TIP3   OH211798   1.908   2.354   3.300
 3974TIP3    H111799   1.956   2.419   3.246
 3974TIP3    H211800   1.890   2.407   3.378
 3975TIP3   OH211801   2.462   2.507   3.281
 3975TIP3    H111802   2.439   2.474   3.194
 3975TIP3    H211803   2.440   2.430   3.339
 3976TIP3   OH211804   2.478   2.433   2.847
 3976TIP3    H111805   2.394   2.480   2.862
 3976TIP3    H211806   2.460   2.349   2.894
 3977TIP3   OH211807   0.978   3.774   2.799
 3977TIP3    H111808   0.885   3.746   2.800
 3977TIP3    H211809   0.980   3.840   2.869
 3978TIP3   OH211810   1.880   2.550   2.931
 3978TIP3    H111811   1.945   2.524   2.999
 3978TIP3    H211812   1.842   2.630   2.971
 3979TIP3   OH211813   2.452   4.078   2.522
 3979TIP3    H111814   2.444   3.980   2.511
 3979TIP3    H211815   2.407   4.109   2.442
 3980TIP3   OH211816   1.670   2.614   4.317
 3980TIP3    H111817   1.633   2.541   4.371
 3980TIP3    H211818   1.764   2.609   4.344
 3981TIP3   OH211819   1.922   2.594   4.441
 3981TIP3    H111820   1.998   2.584   4.381
 3981TIP3    H211821   1.946   2.521   4.502
 3982TIP3   OH211822   1.040   3.804   2.498
 3982TIP3    H111823   1.024   3.807   2.594
 3982TIP3    H211824   1.126   3.758   2.493
 3983TIP3   OH211825   2.736   2.669   4.212
 3983TIP3    H111826   2.755   2.648   4.306
 3983TIP3    H211827   2.825   2.672   4.173
 3984TIP3   OH211828   2.680   4.224   3.712
 3984TIP3    H111829   2.601   4.189   3.666
 3984TIP3    H211830   2.656   4.318   3.717
 3985TIP3   OH211831   3.945   3.595   2.477
 3985TIP3    H111832   3.917   3.687   2.456
 3985TIP3    H211833   3.868   3.545   2.445
 3986TIP3   OH211834   3.943   3.595   2.859
 3986TIP3    H111835   3.975   3.565   2.946
 3986TIP3    H211836   3.901   3.514   2.825
 3987TIP3   OH211837   3.247   3.494   3.228
 3987TIP3    H111838   3.275   3.417   3.281
 3987TIP3    H211839   3.331   3.535   3.203
 3988TIP3   OH211840   4.187   3.897   2.540
 3988TIP3    H111841   4.173   3.827   2.605
 3988TIP3    H211842   4.216   3.972   2.595
 3989TIP3   OH211843   3.216   3.903   2.950
 3989TIP3    H111844   3.205   3.806   2.952
 3989TIP3    H211845   3.313   3.909   2.942
 3990TIP3   OH211846   2.923   3.108   2.732
 3990TIP3    H111847   2.871   3.189   2.749
 3990TIP3    H211848   2.853   3.049   2.701
 3991TIP3   OH211849   2.984   3.392   2.903
 3991TIP3    H111850   3.030   3.315   2.943
 3991TIP3    H211851   3.040   3.411   2.827
 3992TIP3   OH211852   3.836   4.359   2.556
 3992TIP3    H111853   3.882   4.287   2.507
 3992TIP3    H211854   3.830   4.321   2.644
 3993TIP3   OH211855   3.742   3.820   2.907
 3993TIP3    H111856   3.780   3.743   2.861
 3993TIP3    H211857   3.826   3.865   2.930
 3994TIP3   OH211858   4.753   3.137   2.901
 3994TIP3    H111859   4.778   3.219   2.950
 3994TIP3    H211860   4.774   3.162   2.810
 3995TIP3   OH211861   4.156   3.324   2.939
 3995TIP3    H111862   4.197   3.238   2.959
 3995TIP3    H211863   4.124   3.308   2.848
 3996TIP3   OH211864   3.493   2.983   2.904
 3996TIP3    H111865   3.470   3.055   2.841
 3996TIP3    H211866   3.444   2.908   2.862
 3997TIP3   OH211867   4.186   3.072   2.527
 3997TIP3    H111868   4.259   3.056   2.592
 3997TIP3    H211869   4.238   3.108   2.452
 3998TIP3   OH211870   3.129   3.187   3.011
 3998TIP3    H111871   3.209   3.161   3.060
 3998TIP3    H211872   3.137   3.128   2.934
 3999TIP3   OH211873   3.566   3.382   2.805
 3999TIP3    H111874   3.660   3.356   2.818
 3999TIP3    H211875   3.527   3.298   2.772
 4000TIP3   OH211876   4.814   3.343   3.069
 4000TIP3    H111877   4.732   3.396   3.062
 4000TIP3    H211878   4.851   3.374   3.152
 4001TIP3   OH211879   3.487   2.966   3.342
 4001TIP3    H111880   3.426   3.000   3.275
 4001TIP3    H211881   3.433   2.979   3.423
 4002TIP3   OH211882   3.837   3.817   2.347
 4002TIP3    H111883   3.793   3.794   2.264
 4002TIP3    H211884   3.792   3.901   2.370
 4003TIP3   OH211885   3.597   3.741   3.134
 4003TIP3    H111886   3.533   3.807   3.169
 4003TIP3    H211887   3.638   3.791   3.061
 4004TIP3   OH211888   4.397   3.075   2.699
 4004TIP3    H111889   4.385   3.027   2.782
 4004TIP3    H211890   4.451   3.151   2.726
 4005TIP3   OH211891   3.361   3.082   3.124
 4005TIP3    H111892   3.426   3.152   3.145
 4005TIP3    H211893   3.408   3.038   3.049
 4006TIP3   OH211894   3.427   3.933   3.233
 4006TIP3    H111895   3.396   4.017   3.194
 4006TIP3    H211896   3.350   3.913   3.291
 4007TIP3   OH211897   2.821   3.624   2.468
 4007TIP3    H111898   2.777   3.651   2.386
 4007TIP3    H211899   2.851   3.710   2.505
 4008TIP3   OH211900   4.258   4.139   2.708
 4008TIP3    H111901   4.167   4.131   2.746
 4008TIP3    H211902   4.250   4.226   2.662
 4009TIP3   OH211903   4.548   3.038   3.069
 4009TIP3    H111904   4.461   3.071   3.041
 4009TIP3    H211905   4.608   3.071   2.998
 4010TIP3   OH211906   3.846   2.685   3.053
 4010TIP3    H111907   3.833   2.590   3.071
 4010TIP3    H211908   3.768   2.723   3.100
 4011TIP3   OH211909   3.959   4.187   2.382
 4011TIP3    H111910   4.009   4.105   2.361
 4011TIP3    H211911   4.018   4.253   2.340
 4012TIP3   OH211912   4.102   3.972   2.288
 4012TIP3    H111913   4.063   3.892   2.249
 4012TIP3    H211914   4.138   3.938   2.372
 4013TIP3   OH211915   4.484   4.053   3.051
 4013TIP3    H111916   4.473   3.976   2.992
 4013TIP3    H211917   4.467   4.128   2.990
 4014TIP3   OH211918   3.775   3.447   2.308
 4014TIP3    H111919   3.694   3.497   2.286
 4014TIP3    H211920   3.821   3.444   2.222
 4015TIP3   OH211921   3.734   3.232   2.024
 4015TIP3    H111922   3.802   3.281   2.074
 4015TIP3    H211923   3.790   3.168   1.976
 4016TIP3   OH211924   4.679   3.690   2.895
 4016TIP3    H111925   4.596   3.742   2.901
 4016TIP3    H211926   4.708   3.713   2.804
 4017TIP3   OH211927   4.122   3.529   2.280
 4017TIP3    H111928   4.067   3.554   2.358
 4017TIP3    H211929   4.205   3.502   2.324
 4018TIP3   OH211930   4.356   3.569   3.192
 4018TIP3    H111931   4.354   3.653   3.242
 4018TIP3    H211932   4.270   3.573   3.147
 4019TIP3   OH211933   3.355   3.527   2.695
 4019TIP3    H111934   3.314   3.468   2.628
 4019TIP3    H211935   3.432   3.473   2.724
 4020TIP3   OH211936   3.485   3.940   2.844
 4020TIP3    H111937   3.463   3.895   2.761
 4020TIP3    H211938   3.575   3.905   2.862
 4021TIP3   OH211939   3.495   3.496   3.055
 4021TIP3    H111940   3.523   3.475   2.964
 4021TIP3    H211941   3.536   3.585   3.070
 4022TIP3   OH211942   4.016   4.137   2.827
 4022TIP3    H111943   4.002   4.215   2.882
 4022TIP3    H211944   4.002   4.062   2.890
 4023TIP3   OH211945   3.624   4.050   3.391
 4023TIP3    H111946   3.564   4.116   3.429
 4023TIP3    H211947   3.563   4.000   3.334
 4024TIP3   OH211948   3.964   3.387   2.106
 4024TIP3    H111949   4.023   3.446   2.158
 4024TIP3    H211950   3.989   3.411   2.014
 4025TIP3   OH211951   3.372   3.623   3.479
 4025TIP3    H111952   3.327   3.669   3.551
 4025TIP3    H211953   3.295   3.594   3.426
 4026TIP3   OH211954   3.706   4.067   2.381
 4026TIP3    H111955   3.786   4.121   2.398
 4026TIP3    H211956   3.645   4.131   2.343
 4027TIP3   OH211957   3.420   4.225   3.462
 4027TIP3    H111958   3.389   4.224   3.370
 4027TIP3    H211959   3.339   4.204   3.513
 4028TIP3   OH211960   4.479   2.628   2.155
 4028TIP3    H111961   4.397   2.648   2.205
 4028TIP3    H211962   4.491   2.711   2.105
 4029TIP3   OH211963   3.222   3.370   2.500
 4029TIP3    H111964   3.154   3.413   2.444
 4029TIP3    H211965   3.181   3.284   2.518
 4030TIP3   OH211966   4.277   3.995   1.702
 4030TIP3    H111967   4.285   4.092   1.688
 4030TIP3    H211968   4.370   3.967   1.689
 4031TIP3   OH211969   2.857   3.954   3.027
 4031TIP3    H111970   2.951   3.934   3.031
 4031TIP3    H211971   2.847   4.018   3.100
 4032TIP3   OH211972   4.721   4.397   3.097
 4032TIP3    H111973   4.720   4.300   3.111
 4032TIP3    H211974   4.638   4.422   3.142
 4033TIP3   OH211975   3.825   4.182   3.237
 4033TIP3    H111976   3.825   4.276   3.264
 4033TIP3    H211977   3.754   4.146   3.294
 4034TIP3   OH211978   3.586   4.313   2.184
 4034TIP3    H111979   3.541   4.293   2.099
 4034TIP3    H211980   3.555   4.402   2.205
 4035TIP3   OH211981   3.025   4.162   2.567
 4035TIP3    H111982   3.072   4.153   2.653
 4035TIP3    H211983   2.972   4.080   2.567
 4036TIP3   OH211984   3.789   4.214   1.824
 4036TIP3    H111985   3.847   4.144   1.787
 4036TIP3    H211986   3.824   4.222   1.915
 4037TIP3   OH211987   3.839   4.262   2.094
 4037TIP3    H111988   3.751   4.271   2.137
 4037TIP3    H211989   3.890   4.221   2.165
 4038TIP3   OH211990   4.613   3.530   3.370
 4038TIP3    H111991   4.531   3.540   3.320
 4038TIP3    H211992   4.627   3.433   3.364
 4039TIP3   OH211993   3.219   3.926   3.404
 4039TIP3    H111994   3.227   3.964   3.493
 4039TIP3    H211995   3.139   3.872   3.422
 4040TIP3   OH211996   3.607   2.762   3.181
 4040TIP3    H111997   3.518   2.729   3.156
 4040TIP3    H211998   3.581   2.843   3.229
 4041TIP3   OH211999   4.140   2.876   3.376
 4041TIP3    H112000   4.207   2.848   3.441
 4041TIP3    H212001   4.056   2.855   3.422
 4042TIP3   OH212002   4.379   3.303   3.293
 4042TIP3    H112003   4.332   3.300   3.379
 4042TIP3    H212004   4.354   3.391   3.258
 4043TIP3   OH212005   4.039   3.434   1.849
 4043TIP3    H112006   4.007   3.408   1.761
 4043TIP3    H212007   4.120   3.483   1.826
 4044TIP3   OH212008   3.753   2.809   2.152
 4044TIP3    H112009   3.720   2.807   2.244
 4044TIP3    H212010   3.714   2.726   2.119
 4045TIP3   OH212011   3.542   3.275   3.204
 4045TIP3    H112012   3.487   3.291   3.283
 4045TIP3    H212013   3.524   3.355   3.150
 4046TIP3   OH212014   3.421   3.163   2.713
 4046TIP3    H112015   3.329   3.135   2.732
 4046TIP3    H212016   3.434   3.121   2.625
 4047TIP3   OH212017   3.913   3.248   2.442
 4047TIP3    H112018   3.859   3.319   2.399
 4047TIP3    H212019   3.967   3.217   2.366
 4048TIP3   OH212020   4.077   3.536   3.536
 4048TIP3    H112021   4.058   3.458   3.593
 4048TIP3    H212022   4.173   3.545   3.551
 4049TIP3   OH212023   4.071   3.276   2.680
 4049TIP3    H112024   4.010   3.306   2.609
 4049TIP3    H212025   4.104   3.194   2.638
 4050TIP3   OH212026   3.362   3.305   3.413
 4050TIP3    H112027   3.366   3.355   3.496
 4050TIP3    H212028   3.336   3.217   3.448
 4051TIP3   OH212029   3.408   2.783   2.118
 4051TIP3    H112030   3.399   2.778   2.216
 4051TIP3    H212031   3.328   2.833   2.095
 4052TIP3   OH212032   2.950   2.830   2.982
 4052TIP3    H112033   3.024   2.859   3.041
 4052TIP3    H212034   2.995   2.790   2.907
 4053TIP3   OH212035   2.925   2.808   2.507
 4053TIP3    H112036   2.969   2.848   2.430
 4053TIP3    H212037   2.862   2.880   2.530
 4054TIP3   OH212038   4.080   3.523   3.103
 4054TIP3    H112039   4.113   3.452   3.044
 4054TIP3    H212040   4.053   3.470   3.181
 4055TIP3   OH212041   3.749   2.985   2.775
 4055TIP3    H112042   3.666   2.982   2.827
 4055TIP3    H212043   3.816   2.982   2.845
 4056TIP3   OH212044   3.185   3.041   2.781
 4056TIP3    H112045   3.090   3.048   2.756
 4056TIP3    H212046   3.206   2.948   2.761
 4057TIP3   OH212047   3.454   3.035   2.471
 4057TIP3    H112048   3.548   3.052   2.449
 4057TIP3    H212049   3.406   3.059   2.389
 4058TIP3   OH212050   4.240   3.060   2.976
 4058TIP3    H112051   4.206   3.071   3.068
 4058TIP3    H212052   4.174   2.998   2.940
 4059TIP3   OH212053   3.294   3.070   2.251
 4059TIP3    H112054   3.221   3.025   2.205
 4059TIP3    H212055   3.345   3.104   2.175
 4060TIP3   OH212056   4.411   4.748   3.196
 4060TIP3    H112057   4.409   4.772   3.101
 4060TIP3    H212058   4.490   4.797   3.227
 4061TIP3   OH212059   3.833   3.313   2.874
 4061TIP3    H112060   3.904   3.270   2.824
 4061TIP3    H212061   3.840   3.270   2.961
 4062TIP3   OH212062   3.357   2.798   2.752
 4062TIP3    H112063   3.320   2.720   2.799
 4062TIP3    H212064   3.406   2.757   2.680
 4063TIP3   OH212065   3.810   3.210   3.157
 4063TIP3    H112066   3.719   3.242   3.176
 4063TIP3    H212067   3.866   3.268   3.212
 4064TIP3   OH212068   3.546   3.600   2.256
 4064TIP3    H112069   3.473   3.534   2.246
 4064TIP3    H212070   3.528   3.633   2.348
 4065TIP3   OH212071   4.446   3.835   2.887
 4065TIP3    H112072   4.471   3.884   2.805
 4065TIP3    H212073   4.360   3.795   2.862
 4066TIP3   OH212074   4.004   2.913   2.117
 4066TIP3    H112075   3.907   2.895   2.128
 4066TIP3    H212076   4.013   3.007   2.143
 4067TIP3   OH212077   3.948   3.918   3.251
 4067TIP3    H112078   3.962   3.889   3.341
 4067TIP3    H212079   3.906   4.005   3.261
 4068TIP3   OH212080   4.073   3.158   2.223
 4068TIP3    H112081   4.170   3.165   2.238
 4068TIP3    H212082   4.055   3.238   2.169
 4069TIP3   OH212083   3.244   3.628   2.933
 4069TIP3    H112084   3.280   3.595   2.848
 4069TIP3    H212085   3.266   3.557   2.994
 4070TIP3   OH212086   3.691   3.748   2.077
 4070TIP3    H112087   3.644   3.835   2.085
 4070TIP3    H212088   3.637   3.693   2.138
 4071TIP3   OH212089   3.817   3.653   3.567
 4071TIP3    H112090   3.778   3.584   3.510
 4071TIP3    H212091   3.912   3.643   3.542
 4072TIP3   OH212092   4.106   4.179   3.150
 4072TIP3    H112093   4.010   4.175   3.162
 4072TIP3    H212094   4.133   4.230   3.229
 4073TIP3   OH212095   4.517   3.248   2.058
 4073TIP3    H112096   4.454   3.203   1.997
 4073TIP3    H212097   4.513   3.337   2.017
 4074TIP3   OH212098   4.734   4.106   3.140
 4074TIP3    H112099   4.636   4.101   3.132
 4074TIP3    H212100   4.760   4.077   3.050
 4075TIP3   OH212101   4.216   4.068   1.967
 4075TIP3    H112102   4.191   3.997   2.028
 4075TIP3    H212103   4.228   4.021   1.883
 4076TIP3   OH212104   4.211   3.698   2.806
 4076TIP3    H112105   4.118   3.671   2.818
 4076TIP3    H212106   4.246   3.618   2.761
 4077TIP3   OH212107   3.339   3.925   2.558
 4077TIP3    H112108   3.339   4.006   2.505
 4077TIP3    H212109   3.244   3.908   2.568
 4078TIP3   OH212110   2.901   3.230   2.260
 4078TIP3    H112111   2.948   3.313   2.283
 4078TIP3    H212112   2.824   3.235   2.322
 4079TIP3   OH212113   3.479   3.692   2.503
 4079TIP3    H112114   3.443   3.781   2.521
 4079TIP3    H212115   3.441   3.641   2.577
 4080TIP3   OH212116   3.608   4.269   3.027
 4080TIP3    H112117   3.648   4.342   2.976
 4080TIP3    H212118   3.686   4.235   3.074
 4081TIP3   OH212119   3.258   4.164   2.410
 4081TIP3    H112120   3.172   4.172   2.457
 4081TIP3    H212121   3.289   4.257   2.414
 4082TIP3   OH212122   3.998   3.904   2.983
 4082TIP3    H112123   3.989   3.903   3.081
 4082TIP3    H212124   4.077   3.849   2.970
 4083TIP3   OH212125   3.970   3.795   1.869
 4083TIP3    H112126   4.024   3.771   1.947
 4083TIP3    H212127   3.882   3.769   1.899
 4084TIP3   OH212128   4.245   4.438   3.038
 4084TIP3    H112129   4.166   4.381   3.029
 4084TIP3    H212130   4.230   4.502   2.964
 4085TIP3   OH212131   4.310   4.271   1.688
 4085TIP3    H112132   4.349   4.344   1.636
 4085TIP3    H212133   4.230   4.317   1.721
 4086TIP3   OH212134   3.328   3.046   3.561
 4086TIP3    H112135   3.253   3.082   3.614
 4086TIP3    H212136   3.360   2.982   3.626
 4087TIP3   OH212137   4.131   3.729   2.085
 4087TIP3    H112138   4.121   3.663   2.156
 4087TIP3    H212139   4.228   3.728   2.073
 4088TIP3   OH212140   3.046   4.134   3.185
 4088TIP3    H112141   3.092   4.054   3.212
 4088TIP3    H212142   3.072   4.196   3.254
 4089TIP3   OH212143   3.337   3.777   1.868
 4089TIP3    H112144   3.351   3.685   1.839
 4089TIP3    H212145   3.318   3.764   1.963
 4090TIP3   OH212146   3.282   3.781   2.140
 4090TIP3    H112147   3.353   3.753   2.200
 4090TIP3    H212148   3.287   3.879   2.148
 4091TIP3   OH212149   3.018   3.474   2.343
 4091TIP3    H112150   2.953   3.518   2.401
 4091TIP3    H212151   3.033   3.545   2.277
 4092TIP3   OH212152   4.166   3.112   3.235
 4092TIP3    H112153   4.247   3.149   3.275
 4092TIP3    H212154   4.152   3.031   3.289
 4093TIP3   OH212155   4.048   2.863   2.399
 4093TIP3    H112156   4.034   2.888   2.306
 4093TIP3    H212157   4.087   2.945   2.436
 4094TIP3   OH212158   3.548   3.979   2.089
 4094TIP3    H112159   3.461   4.007   2.125
 4094TIP3    H212160   3.565   4.050   2.026
 4095TIP3   OH212161   3.737   3.042   2.503
 4095TIP3    H112162   3.802   3.114   2.486
 4095TIP3    H212163   3.741   3.035   2.600
 4096TIP3   OH212164   4.006   3.362   3.312
 4096TIP3    H112165   4.024   3.414   3.393
 4096TIP3    H212166   4.061   3.283   3.325
 4097TIP3   OH212167   3.882   2.770   2.606
 4097TIP3    H112168   3.874   2.847   2.666
 4097TIP3    H212169   3.942   2.806   2.537
 4098TIP3   OH212170   3.291   4.055   2.156
 4098TIP3    H112171   3.262   4.125   2.094
 4098TIP3    H212172   3.275   4.098   2.243
 4099TIP3   OH212173   3.393   2.767   2.394
 4099TIP3    H112174   3.389   2.857   2.432
 4099TIP3    H212175   3.489   2.750   2.403
 4100TIP3   OH212176   4.647   3.262   3.296
 4100TIP3    H112177   4.549   3.258   3.299
 4100TIP3    H212178   4.663   3.229   3.207
 4101TIP3   OH212179   4.297   3.456   2.680
 4101TIP3    H112180   4.221   3.396   2.692
 4101TIP3    H212181   4.369   3.409   2.728
 4102TIP3   OH212182   3.009   3.686   2.149
 4102TIP3    H112183   3.077   3.755   2.158
 4102TIP3    H212184   3.054   3.630   2.082
 4103TIP3   OH212185   2.956   2.960   2.279
 4103TIP3    H112186   2.952   3.058   2.277
 4103TIP3    H212187   2.869   2.935   2.248
 4104TIP3   OH212188   4.265   4.411   2.629
 4104TIP3    H112189   4.223   4.458   2.554
 4104TIP3    H212190   4.359   4.430   2.609
 4105TIP3   OH212191   3.346   2.679   3.155
 4105TIP3    H112192   3.311   2.646   3.070
 4105TIP3    H212193   3.333   2.601   3.214
 4106TIP3   OH212194   2.884   3.904   2.537
 4106TIP3    H112195   2.813   3.930   2.598
 4106TIP3    H212196   2.853   3.943   2.452
 4107TIP3   OH212197   3.036   4.438   3.607
 4107TIP3    H112198   3.121   4.436   3.656
 4107TIP3    H212199   3.011   4.344   3.608
 4108TIP3   OH212200   3.520   4.402   3.656
 4108TIP3    H112201   3.615   4.385   3.660
 4108TIP3    H212202   3.494   4.347   3.579
 4109TIP3   OH212203   3.500   3.981   1.781
 4109TIP3    H112204   3.445   3.909   1.820
 4109TIP3    H212205   3.575   3.929   1.748
 4110TIP3   OH212206   4.155   4.310   3.390
 4110TIP3    H112207   4.149   4.239   3.457
 4110TIP3    H212208   4.234   4.360   3.418
 4111TIP3   OH212209   3.936   4.022   1.692
 4111TIP3    H112210   3.981   3.958   1.750
 4111TIP3    H212211   3.993   4.022   1.612
 4112TIP3   OH212212   3.186   3.853   3.826
 4112TIP3    H112213   3.223   3.764   3.812
 4112TIP3    H212214   3.114   3.851   3.759
 4113TIP3   OH212215   3.145   3.498   2.002
 4113TIP3    H112216   3.198   3.463   2.074
 4113TIP3    H212217   3.213   3.502   1.931
 4114TIP3   OH212218   3.654   3.695   1.808
 4114TIP3    H112219   3.656   3.708   1.905
 4114TIP3    H212220   3.654   3.597   1.804
 4115TIP3   OH212221   4.269   3.940   3.188
 4115TIP3    H112222   4.343   3.985   3.143
 4115TIP3    H212223   4.197   4.004   3.174
 4116TIP3   OH212224   3.339   3.608   3.775
 4116TIP3    H112225   3.328   3.512   3.766
 4116TIP3    H212226   3.334   3.619   3.873
 4117TIP3   OH212227   3.354   3.401   2.224
 4117TIP3    H112228   3.326   3.360   2.308
 4117TIP3    H212229   3.388   3.324   2.175
 4118TIP3   OH212230   3.624   3.483   3.458
 4118TIP3    H112231   3.534   3.517   3.446
 4118TIP3    H212232   3.667   3.502   3.371
 4119TIP3   OH212233   3.454   3.194   2.064
 4119TIP3    H112234   3.427   3.196   1.970
 4119TIP3    H212235   3.551   3.201   2.056
 4120TIP3   OH212236   4.138   3.867   3.588
 4120TIP3    H112237   4.217   3.844   3.537
 4120TIP3    H212238   4.141   3.801   3.659
 4121TIP3   OH212239   4.276   3.526   1.727
 4121TIP3    H112240   4.254   3.479   1.644
 4121TIP3    H212241   4.244   3.616   1.703
 4122TIP3   OH212242   3.748   3.256   3.577
 4122TIP3    H112243   3.745   3.172   3.528
 4122TIP3    H212244   3.700   3.317   3.518
 4123TIP3   OH212245   3.747   3.040   3.385
 4123TIP3    H112246   3.773   3.077   3.298
 4123TIP3    H212247   3.653   3.016   3.369
 4124TIP3   OH212248   3.778   3.579   3.259
 4124TIP3    H112249   3.860   3.580   3.207
 4124TIP3    H212250   3.723   3.644   3.211
 4125TIP3   OH212251   4.356   3.544   3.639
 4125TIP3    H112252   4.401   3.459   3.657
 4125TIP3    H212253   4.429   3.598   3.605
 4126TIP3   OH212254   4.398   3.796   3.376
 4126TIP3    H112255   4.342   3.850   3.316
 4126TIP3    H212256   4.486   3.814   3.336
 4127TIP3   OH212257   3.624   3.383   3.796
 4127TIP3    H112258   3.562   3.310   3.822
 4127TIP3    H212259   3.663   3.343   3.716
 4128TIP3   OH212260   3.880   2.803   3.450
 4128TIP3    H112261   3.831   2.886   3.429
 4128TIP3    H212262   3.809   2.736   3.441
 4129TIP3   OH212263   4.006   3.312   3.669
 4129TIP3    H112264   3.996   3.294   3.765
 4129TIP3    H212265   3.917   3.283   3.639
 4130TIP3   OH212266   4.246   3.260   3.524
 4130TIP3    H112267   4.170   3.258   3.586
 4130TIP3    H212268   4.319   3.227   3.580
 4131TIP3   OH212269   4.475   3.197   3.673
 4131TIP3    H112270   4.487   3.101   3.693
 4131TIP3    H212271   4.469   3.237   3.763
 4132TIP3   OH212272   3.498   3.153   3.860
 4132TIP3    H112273   3.450   3.078   3.820
 4132TIP3    H212274   3.499   3.127   3.953
 4133TIP3   OH212275   3.975   2.815   3.709
 4133TIP3    H112276   4.042   2.744   3.704
 4133TIP3    H212277   3.934   2.806   3.620
 4134TIP3   OH212278   4.042   3.030   3.865
 4134TIP3    H112279   4.018   2.957   3.804
 4134TIP3    H212280   3.963   3.087   3.862
 4135TIP3   OH212281   3.261   4.258   1.969
 4135TIP3    H112282   3.357   4.253   1.950
 4135TIP3    H212283   3.231   4.306   1.890
 4136TIP3   OH212284   2.740   3.640   2.182
 4136TIP3    H112285   2.835   3.661   2.172
 4136TIP3    H212286   2.736   3.550   2.143
 4137TIP3   OH212287   2.653   4.251   2.601
 4137TIP3    H112288   2.587   4.187   2.566
 4137TIP3    H212289   2.699   4.194   2.667
 4138TIP3   OH212290   2.789   4.103   2.787
 4138TIP3    H112291   2.782   4.028   2.849
 4138TIP3    H212292   2.840   4.164   2.843
 4139TIP3   OH212293   4.518   4.503   2.585
 4139TIP3    H112294   4.545   4.537   2.672
 4139TIP3    H212295   4.580   4.548   2.526
 4140TIP3   OH212296   4.548   4.523   2.868
 4140TIP3    H112297   4.505   4.435   2.863
 4140TIP3    H212298   4.623   4.501   2.924
 4141TIP3   OH212299   4.593   4.200   3.440
 4141TIP3    H112300   4.521   4.207   3.505
 4141TIP3    H212301   4.635   4.288   3.445
 4142TIP3   OH212302   4.411   3.712   2.060
 4142TIP3    H112303   4.479   3.776   2.033
 4142TIP3    H212304   4.453   3.673   2.140
 4143TIP3   OH212305   4.538   3.580   2.264
 4143TIP3    H112306   4.472   3.537   2.323
 4143TIP3    H212307   4.602   3.618   2.327
 4144TIP3   OH212308   4.591   3.971   2.696
 4144TIP3    H112309   4.646   3.908   2.646
 4144TIP3    H212310   4.584   4.046   2.633
 4145TIP3   OH212311   4.424   4.272   2.891
 4145TIP3    H112312   4.353   4.314   2.943
 4145TIP3    H212313   4.373   4.224   2.822
 4146TIP3   OH212314   4.476   3.487   1.911
 4146TIP3    H112315   4.404   3.491   1.844
 4146TIP3    H212316   4.450   3.564   1.966
 4147TIP3   OH212317   4.347   3.160   1.865
 4147TIP3    H112318   4.304   3.199   1.788
 4147TIP3    H212319   4.322   3.066   1.855
 4148TIP3   OH212320   4.352   3.436   2.410
 4148TIP3    H112321   4.360   3.339   2.406
 4148TIP3    H212322   4.338   3.451   2.506
 4149TIP3   OH212323   2.979   3.526   3.150
 4149TIP3    H112324   2.977   3.487   3.060
 4149TIP3    H212325   3.075   3.520   3.172
 4150TIP3   OH212326   4.642   3.858   3.268
 4150TIP3    H112327   4.715   3.793   3.258
 4150TIP3    H212328   4.669   3.929   3.206
 4151TIP3   OH212329   4.830   3.663   3.283
 4151TIP3    H112330   4.755   3.614   3.322
 4151TIP3    H212331   4.904   3.601   3.302
 4152TIP3   OH212332   4.291   2.894   1.851
 4152TIP3    H112333   4.365   2.864   1.907
 4152TIP3    H212334   4.217   2.836   1.877
 4153TIP3   OH212335   4.348   3.152   2.305
 4153TIP3    H112336   4.389   3.064   2.321
 4153TIP3    H212337   4.406   3.185   2.235
 4154TIP3   OH212338   4.510   3.327   2.800
 4154TIP3    H112339   4.596   3.353   2.760
 4154TIP3    H212340   4.522   3.363   2.890
 4155TIP3   OH212341   4.573   3.474   3.034
 4155TIP3    H112342   4.496   3.508   3.082
 4155TIP3    H212343   4.606   3.554   2.988
 4156TIP3   OH212344   5.031   3.064   3.591
 4156TIP3    H112345   5.085   2.993   3.549
 4156TIP3    H212346   5.003   3.117   3.513
 4157TIP3   OH212347   4.457   2.902   2.343
 4157TIP3    H112348   4.505   2.886   2.427
 4157TIP3    H212349   4.397   2.825   2.341
 4158TIP3   OH212350   3.159   2.885   3.151
 4158TIP3    H112351   3.222   2.813   3.170
 4158TIP3    H212352   3.217   2.963   3.158
 4159TIP3   OH212353   2.964   3.155   3.241
 4159TIP3    H112354   3.013   3.167   3.158
 4159TIP3    H212355   2.966   3.243   3.281
 4160TIP3   OH212356   4.904   3.206   3.394
 4160TIP3    H112357   4.816   3.243   3.411
 4160TIP3    H212358   4.880   3.132   3.334
 4161TIP3   OH212359   4.538   2.837   1.976
 4161TIP3    H112360   4.578   2.765   1.923
 4161TIP3    H212361   4.605   2.908   1.969
 4162TIP3   OH212362   2.943   2.662   2.735
 4162TIP3    H112363   2.850   2.662   2.765
 4162TIP3    H212364   2.939   2.722   2.657
 4163TIP3   OH212365   4.102   4.370   2.242
 4163TIP3    H112366   4.153   4.354   2.161
 4163TIP3    H212367   4.156   4.436   2.288
 4164TIP3   OH212368   3.158   2.736   3.552
 4164TIP3    H112369   3.122   2.751   3.641
 4164TIP3    H212370   3.096   2.788   3.498
 4165TIP3   OH212371   3.203   4.155   3.626
 4165TIP3    H112372   3.108   4.135   3.610
 4165TIP3    H212373   3.206   4.143   3.722
 4166TIP3   OH212374   3.382   4.207   3.179
 4166TIP3    H112375   3.332   4.280   3.139
 4166TIP3    H212376   3.467   4.220   3.132
 4167TIP3   OH212377   3.826   4.450   3.312
 4167TIP3    H112378   3.868   4.452   3.400
 4167TIP3    H212379   3.892   4.501   3.260
 4168TIP3   OH212380   4.005   4.601   3.171
 4168TIP3    H112381   4.077   4.551   3.130
 4168TIP3    H212382   4.057   4.659   3.232
 4169TIP3   OH212383   4.801   2.965   3.272
 4169TIP3    H112384   4.710   2.961   3.239
 4169TIP3    H212385   4.831   2.873   3.258
 4170TIP3   OH212386   3.059   4.468   3.197
 4170TIP3    H112387   2.970   4.501   3.175
 4170TIP3    H212388   3.065   4.493   3.289
 4171TIP3   OH212389   3.295   4.442   3.057
 4171TIP3    H112390   3.209   4.455   3.102
 4171TIP3    H212391   3.274   4.473   2.966
 4172TIP3   OH212392   3.720   4.470   2.855
 4172TIP3    H112393   3.651   4.490   2.789
 4172TIP3    H212394   3.733   4.557   2.897
 4173TIP3   OH212395   3.989   4.410   2.907
 4173TIP3    H112396   3.895   4.426   2.887
 4173TIP3    H212397   4.032   4.485   2.863
 4174TIP3   OH212398   4.196   4.601   2.821
 4174TIP3    H112399   4.182   4.686   2.774
 4174TIP3    H212400   4.222   4.542   2.748
 4175TIP3   OH212401   2.969   4.259   2.946
 4175TIP3    H112402   2.996   4.229   3.036
 4175TIP3    H212403   3.039   4.214   2.893
 4176TIP3   OH212404   3.162   4.129   2.801
 4176TIP3    H112405   3.176   4.045   2.851
 4176TIP3    H212406   3.253   4.164   2.798
 4177TIP3   OH212407   3.430   4.223   2.803
 4177TIP3    H112408   3.460   4.131   2.790
 4177TIP3    H212409   3.473   4.243   2.888
 4178TIP3   OH212410   4.004   2.878   2.891
 4178TIP3    H112411   3.961   2.809   2.944
 4178TIP3    H212412   4.076   2.829   2.847
 4179TIP3   OH212413   4.529   2.757   2.795
 4179TIP3    H112414   4.565   2.810   2.721
 4179TIP3    H212415   4.434   2.777   2.790
 4180TIP3   OH212416   4.624   2.860   2.560
 4180TIP3    H112417   4.697   2.809   2.520
 4180TIP3    H212418   4.657   2.952   2.545
 4181TIP3   OH212419   3.254   2.588   2.906
 4181TIP3    H112420   3.162   2.553   2.908
 4181TIP3    H212421   3.304   2.503   2.904
 4182TIP3   OH212422   3.039   2.457   2.555
 4182TIP3    H112423   3.068   2.516   2.484
 4182TIP3    H212424   3.009   2.521   2.623
 4183TIP3   OH212425   3.697   2.620   2.787
 4183TIP3    H112426   3.757   2.671   2.730
 4183TIP3    H212427   3.715   2.656   2.874
 4184TIP3   OH212428   4.246   2.767   2.772
 4184TIP3    H112429   4.241   2.730   2.683
 4184TIP3    H212430   4.232   2.686   2.828
 4185TIP3   OH212431   4.274   2.689   2.334
 4185TIP3    H112432   4.188   2.732   2.347
 4185TIP3    H212433   4.259   2.604   2.380
 4186TIP3   OH212434   2.758   4.026   2.333
 4186TIP3    H112435   2.673   3.993   2.300
 4186TIP3    H212436   2.746   4.121   2.319
 4187TIP3   OH212437   3.157   2.619   2.317
 4187TIP3    H112438   3.205   2.555   2.262
 4187TIP3    H212439   3.230   2.672   2.355
 4188TIP3   OH212440   3.671   2.792   2.417
 4188TIP3    H112441   3.729   2.745   2.479
 4188TIP3    H212442   3.691   2.884   2.443
 4189TIP3   OH212443   3.529   4.217   1.917
 4189TIP3    H112444   3.617   4.239   1.881
 4189TIP3    H212445   3.507   4.142   1.858
 4190TIP3   OH212446   4.248   4.335   2.010
 4190TIP3    H112447   4.239   4.237   1.997
 4190TIP3    H212448   4.204   4.368   1.930
 4191TIP3   OH212449   3.462   2.863   3.795
 4191TIP3    H112450   3.430   2.796   3.858
 4191TIP3    H212451   3.554   2.875   3.827
 4192TIP3   OH212452   3.711   2.864   3.921
 4192TIP3    H112453   3.796   2.843   3.879
 4192TIP3    H212454   3.702   2.789   3.984
 4193TIP3   OH212455   2.834   4.054   1.975
 4193TIP3    H112456   2.835   4.076   2.069
 4193TIP3    H212457   2.922   4.012   1.962
 4194TIP3   OH212458   4.535   2.926   3.706
 4194TIP3    H112459   4.554   2.897   3.798
 4194TIP3    H212460   4.624   2.921   3.665
 4195TIP3   OH212461   4.475   4.480   3.198
 4195TIP3    H112462   4.396   4.448   3.149
 4195TIP3    H212463   4.456   4.575   3.201
 4196TIP3   OH212464   5.741   3.851   1.964
 4196TIP3    H112465   5.713   3.943   1.944
 4196TIP3    H212466   5.664   3.802   1.931
 4197TIP3   OH212467   5.741   3.851   2.344
 4197TIP3    H112468   5.771   3.821   2.431
 4197TIP3    H212469   5.697   3.772   2.310
 4198TIP3   OH212470   5.039   3.745   2.710
 4198TIP3    H112471   5.071   3.681   2.776
 4198TIP3    H212472   5.114   3.807   2.708
 4199TIP3   OH212473   5.984   4.153   2.026
 4199TIP3    H112474   5.968   4.085   2.093
 4199TIP3    H212475   6.011   4.229   2.080
 4200TIP3   OH212476   5.011   4.157   2.436
 4200TIP3    H112477   5.001   4.059   2.437
 4200TIP3    H212478   5.107   4.165   2.430
 4201TIP3   OH212479   4.718   3.362   2.220
 4201TIP3    H112480   4.668   3.444   2.235
 4201TIP3    H212481   4.648   3.306   2.183
 4202TIP3   OH212482   4.777   3.647   2.392
 4202TIP3    H112483   4.826   3.571   2.429
 4202TIP3    H212484   4.836   3.676   2.321
 4203TIP3   OH212485   5.631   4.615   2.041
 4203TIP3    H112486   5.679   4.543   1.994
 4203TIP3    H212487   5.625   4.580   2.131
 4204TIP3   OH212488   5.538   4.077   2.393
 4204TIP3    H112489   5.576   4.002   2.345
 4204TIP3    H212490   5.622   4.122   2.418
 4205TIP3   OH212491   6.551   3.396   2.391
 4205TIP3    H112492   6.579   3.480   2.434
 4205TIP3    H212493   6.573   3.415   2.298
 4206TIP3   OH212494   5.951   3.578   2.427
 4206TIP3    H112495   5.994   3.492   2.444
 4206TIP3    H212496   5.919   3.565   2.336
 4207TIP3   OH212497   5.289   3.239   2.391
 4207TIP3    H112498   5.267   3.311   2.329
 4207TIP3    H212499   5.241   3.165   2.348
 4208TIP3   OH212500   5.982   3.330   2.014
 4208TIP3    H112501   6.055   3.314   2.078
 4208TIP3    H212502   6.033   3.364   1.939
 4209TIP3   OH212503   4.924   3.441   2.499
 4209TIP3    H112504   5.006   3.420   2.546
 4209TIP3    H212505   4.935   3.385   2.419
 4210TIP3   OH212506   5.363   3.639   2.289
 4210TIP3    H112507   5.456   3.612   2.304
 4210TIP3    H212508   5.323   3.555   2.258
 4211TIP3   OH212509   6.624   3.603   2.563
 4211TIP3    H112510   6.541   3.652   2.543
 4211TIP3    H212511   6.645   3.637   2.651
 4212TIP3   OH212512   5.298   3.220   2.829
 4212TIP3    H112513   5.232   3.259   2.768
 4212TIP3    H212514   5.249   3.219   2.913
 4213TIP3   OH212515   5.634   4.074   1.833
 4213TIP3    H112516   5.589   4.051   1.751
 4213TIP3    H212517   5.590   4.158   1.857
 4214TIP3   OH212518   5.392   3.997   2.622
 4214TIP3    H112519   5.328   4.062   2.660
 4214TIP3    H212520   5.433   4.048   2.550
 4215TIP3   OH212521   6.193   3.332   2.185
 4215TIP3    H112522   6.186   3.282   2.267
 4215TIP3    H212523   6.248   3.408   2.212
 4216TIP3   OH212524   5.158   3.335   2.614
 4216TIP3    H112525   5.219   3.409   2.634
 4216TIP3    H212526   5.206   3.294   2.538
 4217TIP3   OH212527   5.220   4.190   2.718
 4217TIP3    H112528   5.194   4.276   2.679
 4217TIP3    H212529   5.141   4.174   2.775
 4218TIP3   OH212530   4.615   3.881   1.955
 4218TIP3    H112531   4.573   3.907   1.871
 4218TIP3    H212532   4.644   3.967   1.991
 4219TIP3   OH212533   6.054   4.395   2.194
 4219TIP3    H112534   5.964   4.387   2.233
 4219TIP3    H212535   6.047   4.482   2.149
 4220TIP3   OH212536   6.345   3.296   2.557
 4220TIP3    H112537   6.258   3.325   2.526
 4220TIP3    H212538   6.404   3.328   2.485
 4221TIP3   OH212539   5.645   2.938   2.544
 4221TIP3    H112540   5.625   2.843   2.557
 4221TIP3    H212541   5.567   2.978   2.589
 4222TIP3   OH212542   5.757   4.442   1.870
 4222TIP3    H112543   5.807   4.361   1.847
 4222TIP3    H212544   5.815   4.509   1.827
 4223TIP3   OH212545   5.899   4.227   1.773
 4223TIP3    H112546   5.857   4.148   1.738
 4223TIP3    H212547   5.936   4.194   1.858
 4224TIP3   OH212548   6.280   4.310   2.538
 4224TIP3    H112549   6.269   4.233   2.478
 4224TIP3    H212550   6.262   4.385   2.478
 4225TIP3   OH212551   5.571   3.703   1.795
 4225TIP3    H112552   5.490   3.754   1.773
 4225TIP3    H212553   5.617   3.701   1.709
 4226TIP3   OH212554   5.530   3.489   1.511
 4226TIP3    H112555   5.598   3.538   1.560
 4226TIP3    H212556   5.586   3.424   1.464
 4227TIP3   OH212557   6.475   3.945   2.382
 4227TIP3    H112558   6.393   3.998   2.387
 4227TIP3    H212559   6.505   3.969   2.292
 4228TIP3   OH212560   5.918   3.786   1.767
 4228TIP3    H112561   5.863   3.811   1.845
 4228TIP3    H212562   6.002   3.760   1.811
 4229TIP3   OH212563   6.154   3.824   2.679
 4229TIP3    H112564   6.152   3.909   2.727
 4229TIP3    H212565   6.068   3.828   2.633
 4230TIP3   OH212566   5.151   3.783   2.183
 4230TIP3    H112567   5.109   3.726   2.115
 4230TIP3    H212568   5.228   3.730   2.211
 4231TIP3   OH212569   5.281   4.195   2.332
 4231TIP3    H112570   5.260   4.152   2.247
 4231TIP3    H212571   5.371   4.162   2.350
 4232TIP3   OH212572   5.290   3.754   2.537
 4232TIP3    H112573   5.322   3.735   2.447
 4232TIP3    H212574   5.332   3.840   2.558
 4233TIP3   OH212575   5.813   4.392   2.315
 4233TIP3    H112576   5.798   4.473   2.367
 4233TIP3    H212577   5.798   4.320   2.379
 4234TIP3   OH212578   5.425   4.310   2.863
 4234TIP3    H112579   5.365   4.374   2.908
 4234TIP3    H212580   5.359   4.258   2.813
 4235TIP3   OH212581   5.760   3.643   1.593
 4235TIP3    H112582   5.819   3.702   1.645
 4235TIP3    H212583   5.785   3.668   1.501
 4236TIP3   OH212584   5.175   3.873   2.956
 4236TIP3    H112585   5.180   3.958   3.005
 4236TIP3    H212586   5.082   3.849   2.971
 4237TIP3   OH212587   5.503   4.323   1.867
 4237TIP3    H112588   5.581   4.378   1.886
 4237TIP3    H212589   5.441   4.387   1.830
 4238TIP3   OH212590   5.220   4.480   2.948
 4238TIP3    H112591   5.185   4.478   2.857
 4238TIP3    H212592   5.140   4.459   3.002
 4239TIP3   OH212593   6.275   2.885   1.641
 4239TIP3    H112594   6.194   2.905   1.692
 4239TIP3    H212595   6.287   2.968   1.591
 4240TIP3   OH212596   5.018   3.626   1.987
 4240TIP3    H112597   4.952   3.672   1.931
 4240TIP3    H212598   4.976   3.541   2.001
 4241TIP3   OH212599   6.073   4.252   1.187
 4241TIP3    H112600   6.081   4.349   1.176
 4241TIP3    H212601   6.167   4.224   1.176
 4242TIP3   OH212602   4.798   4.010   2.895
 4242TIP3    H112603   4.733   3.987   2.826
 4242TIP3    H212604   4.835   3.923   2.920
 4243TIP3   OH212605   4.653   4.202   2.529
 4243TIP3    H112606   4.749   4.197   2.519
 4243TIP3    H212607   4.643   4.282   2.582
 4244TIP3   OH212608   6.518   4.654   2.584
 4244TIP3    H112609   6.516   4.558   2.598
 4244TIP3    H212610   6.434   4.680   2.629
 4245TIP3   OH212611   5.624   4.440   2.719
 4245TIP3    H112612   5.623   4.533   2.751
 4245TIP3    H212613   5.552   4.401   2.773
 4246TIP3   OH212614   5.383   4.570   1.670
 4246TIP3    H112615   5.336   4.552   1.587
 4246TIP3    H212616   5.352   4.659   1.694
 4247TIP3   OH212617   4.822   4.418   2.053
 4247TIP3    H112618   4.869   4.409   2.139
 4247TIP3    H212619   4.764   4.340   2.057
 4248TIP3   OH212620   5.585   4.470   1.310
 4248TIP3    H112621   5.644   4.400   1.275
 4248TIP3    H212622   5.619   4.480   1.402
 4249TIP3   OH212623   5.635   4.518   1.580
 4249TIP3    H112624   5.547   4.528   1.622
 4249TIP3    H212625   5.686   4.479   1.652
 4250TIP3   OH212626   6.407   3.785   2.860
 4250TIP3    H112627   6.328   3.800   2.806
 4250TIP3    H212628   6.422   3.689   2.846
 4251TIP3   OH212629   5.004   4.193   2.884
 4251TIP3    H112630   5.054   4.176   2.967
 4251TIP3    H212631   4.930   4.130   2.892
 4252TIP3   OH212632   5.406   3.017   2.667
 4252TIP3    H112633   5.316   2.986   2.644
 4252TIP3    H212634   5.383   3.099   2.714
 4253TIP3   OH212635   5.922   3.140   2.898
 4253TIP3    H112636   6.006   3.113   2.941
 4253TIP3    H212637   5.868   3.061   2.911
 4254TIP3   OH212638   6.174   3.559   2.778
 4254TIP3    H112639   6.126   3.558   2.864
 4254TIP3    H212640   6.152   3.648   2.743
 4255TIP3   OH212641   5.835   3.691   1.337
 4255TIP3    H112642   5.803   3.664   1.249
 4255TIP3    H212643   5.916   3.740   1.313
 4256TIP3   OH212644   5.549   3.065   1.638
 4256TIP3    H112645   5.516   3.063   1.730
 4256TIP3    H212646   5.510   2.982   1.605
 4257TIP3   OH212647   5.335   3.532   2.686
 4257TIP3    H112648   5.286   3.553   2.768
 4257TIP3    H212649   5.318   3.613   2.633
 4258TIP3   OH212650   5.218   3.418   2.200
 4258TIP3    H112651   5.125   3.392   2.218
 4258TIP3    H212652   5.231   3.378   2.111
 4259TIP3   OH212653   5.709   3.504   1.928
 4259TIP3    H112654   5.655   3.576   1.886
 4259TIP3    H212655   5.763   3.474   1.853
 4260TIP3   OH212656   5.883   3.777   3.014
 4260TIP3    H112657   5.866   3.707   3.080
 4260TIP3    H212658   5.976   3.799   3.035
 4261TIP3   OH212659   5.866   3.533   2.168
 4261TIP3    H112660   5.807   3.564   2.096
 4261TIP3    H212661   5.899   3.451   2.125
 4262TIP3   OH212662   5.160   3.569   2.899
 4262TIP3    H112663   5.204   3.625   2.965
 4262TIP3    H212664   5.134   3.493   2.952
 4263TIP3   OH212665   5.205   3.039   1.605
 4263TIP3    H112666   5.195   3.035   1.702
 4263TIP3    H212667   5.125   3.090   1.580
 4264TIP3   OH212668   4.746   3.085   2.474
 4264TIP3    H112669   4.821   3.115   2.529
 4264TIP3    H212670   4.788   3.050   2.394
 4265TIP3   OH212671   4.720   3.065   1.995
 4265TIP3    H112672   4.764   3.104   1.917
 4265TIP3    H212673   4.658   3.137   2.017
 4266TIP3   OH212674   5.876   3.779   2.591
 4266TIP3    H112675   5.909   3.707   2.532
 4266TIP3    H212676   5.844   3.726   2.667
 4267TIP3   OH212677   5.546   3.238   2.263
 4267TIP3    H112678   5.462   3.237   2.312
 4267TIP3    H212679   5.611   3.243   2.335
 4268TIP3   OH212680   4.980   3.297   2.270
 4268TIP3    H112681   4.885   3.304   2.244
 4268TIP3    H212682   5.002   3.205   2.247
 4269TIP3   OH212683   5.250   3.292   1.958
 4269TIP3    H112684   5.344   3.308   1.935
 4269TIP3    H212685   5.202   3.316   1.875
 4270TIP3   OH212686   6.038   3.315   2.464
 4270TIP3    H112687   6.003   3.325   2.555
 4270TIP3    H212688   5.971   3.255   2.426
 4271TIP3   OH212689   5.091   3.326   1.738
 4271TIP3    H112690   5.018   3.281   1.690
 4271TIP3    H212691   5.142   3.361   1.662
 4272TIP3   OH212692   6.208   5.004   2.683
 4272TIP3    H112693   6.205   5.029   2.588
 4272TIP3    H212694   6.285   5.054   2.714
 4273TIP3   OH212695   5.164   4.115   3.104
 4273TIP3    H112696   5.243   4.147   3.152
 4273TIP3    H212697   5.099   4.114   3.177
 4274TIP3   OH212698   5.629   3.568   2.358
 4274TIP3    H112699   5.702   3.529   2.308
 4274TIP3    H212700   5.640   3.527   2.446
 4275TIP3   OH212701   5.153   3.055   2.239
 4275TIP3    H112702   5.118   2.976   2.285
 4275TIP3    H212703   5.200   3.016   2.164
 4276TIP3   OH212704   5.604   3.461   2.657
 4276TIP3    H112705   5.513   3.496   2.669
 4276TIP3    H212706   5.659   3.526   2.705
 4277TIP3   OH212707   5.343   3.856   1.744
 4277TIP3    H112708   5.270   3.791   1.733
 4277TIP3    H212709   5.325   3.890   1.835
 4278TIP3   OH212710   6.243   4.091   2.374
 4278TIP3    H112711   6.268   4.141   2.293
 4278TIP3    H212712   6.157   4.051   2.348
 4279TIP3   OH212713   5.800   3.168   1.606
 4279TIP3    H112714   5.704   3.152   1.615
 4279TIP3    H212715   5.810   3.263   1.630
 4280TIP3   OH212716   5.743   4.174   2.741
 4280TIP3    H112717   5.761   4.154   2.834
 4280TIP3    H212718   5.703   4.263   2.746
 4281TIP3   OH212719   5.870   3.415   1.710
 4281TIP3    H112720   5.966   3.422   1.725
 4281TIP3    H212721   5.851   3.495   1.656
 4282TIP3   OH212722   5.034   3.878   2.421
 4282TIP3    H112723   5.073   3.850   2.336
 4282TIP3    H212724   5.073   3.814   2.483
 4283TIP3   OH212725   5.486   4.005   1.563
 4283TIP3    H112726   5.439   4.092   1.571
 4283TIP3    H212727   5.433   3.950   1.624
 4284TIP3   OH212728   4.914   3.799   3.032
 4284TIP3    H112729   4.935   3.785   3.127
 4284TIP3    H212730   4.845   3.731   3.017
 4285TIP3   OH212731   5.636   3.910   3.057
 4285TIP3    H112732   5.567   3.853   3.016
 4285TIP3    H212733   5.717   3.876   3.015
 4286TIP3   OH212734   5.903   4.431   2.638
 4286TIP3    H112735   5.806   4.432   2.649
 4286TIP3    H212736   5.930   4.485   2.715
 4287TIP3   OH212737   6.313   3.505   1.545
 4287TIP3    H112738   6.250   3.460   1.484
 4287TIP3    H212739   6.309   3.594   1.504
 4288TIP3   OH212740   6.530   4.362   2.627
 4288TIP3    H112741   6.432   4.358   2.618
 4288TIP3    H212742   6.556   4.334   2.537
 4289TIP3   OH212743   6.011   4.325   1.453
 4289TIP3    H112744   5.987   4.256   1.516
 4289TIP3    H212745   6.024   4.276   1.370
 4290TIP3   OH212746   6.008   3.954   2.293
 4290TIP3    H112747   5.914   3.928   2.305
 4290TIP3    H212748   6.042   3.874   2.247
 4291TIP3   OH212749   5.135   4.181   2.044
 4291TIP3    H112750   5.136   4.263   1.991
 4291TIP3    H212751   5.040   4.167   2.055
 4292TIP3   OH212752   4.699   3.486   1.749
 4292TIP3    H112753   4.744   3.570   1.769
 4292TIP3    H212754   4.621   3.492   1.809
 4293TIP3   OH212755   5.275   3.948   1.990
 4293TIP3    H112756   5.239   4.037   2.006
 4293TIP3    H212757   5.237   3.898   2.064
 4294TIP3   OH212758   5.404   4.525   2.514
 4294TIP3    H112759   5.444   4.598   2.463
 4294TIP3    H212760   5.482   4.492   2.563
 4295TIP3   OH212761   5.055   4.420   1.898
 4295TIP3    H112762   4.969   4.428   1.943
 4295TIP3    H212763   5.087   4.513   1.901
 4296TIP3   OH212764   5.793   4.160   2.472
 4296TIP3    H112765   5.784   4.159   2.570
 4296TIP3    H212766   5.874   4.108   2.460
 4297TIP3   OH212767   5.767   4.051   1.355
 4297TIP3    H112768   5.821   4.027   1.434
 4297TIP3    H212769   5.679   4.026   1.385
 4298TIP3   OH212770   6.042   4.693   2.523
 4298TIP3    H112771   5.962   4.638   2.515
 4298TIP3    H212772   6.027   4.758   2.451
 4299TIP3   OH212773   6.106   4.528   1.175
 4299TIP3    H112774   6.146   4.601   1.125
 4299TIP3    H212775   6.027   4.574   1.209
 4300TIP3   OH212776   5.927   3.984   1.570
 4300TIP3    H112777   5.917   3.919   1.642
 4300TIP3    H212778   6.024   3.984   1.559
 4301TIP3   OH212779   4.842   4.388   2.674
 4301TIP3    H112780   4.895   4.314   2.706
 4301TIP3    H212781   4.871   4.459   2.733
 4302TIP3   OH212782   5.134   4.033   1.354
 4302TIP3    H112783   5.147   3.940   1.326
 4302TIP3    H212784   5.115   4.021   1.450
 4303TIP3   OH212785   5.080   4.038   1.626
 4303TIP3    H112786   5.149   4.011   1.688
 4303TIP3    H212787   5.082   4.136   1.634
 4304TIP3   OH212788   4.814   3.732   1.830
 4304TIP3    H112789   4.748   3.776   1.888
 4304TIP3    H212790   4.828   3.801   1.763
 4305TIP3   OH212791   5.966   3.359   2.725
 4305TIP3    H112792   6.045   3.404   2.760
 4305TIP3    H212793   5.945   3.293   2.794
 4306TIP3   OH212794   5.843   3.120   1.887
 4306TIP3    H112795   5.829   3.143   1.793
 4306TIP3    H212796   5.882   3.202   1.922
 4307TIP3   OH212797   5.344   4.236   1.575
 4307TIP3    H112798   5.257   4.262   1.611
 4307TIP3    H212799   5.362   4.312   1.517
 4308TIP3   OH212800   5.534   3.298   1.990
 4308TIP3    H112801   5.598   3.370   1.972
 4308TIP3    H212802   5.538   3.293   2.087
 4309TIP3   OH212803   5.803   3.616   2.798
 4309TIP3    H112804   5.822   3.676   2.873
 4309TIP3    H212805   5.866   3.543   2.812
 4310TIP3   OH212806   5.678   3.027   2.094
 4310TIP3    H112807   5.664   3.107   2.149
 4310TIP3    H212808   5.738   3.063   2.025
 4311TIP3   OH212809   5.087   4.311   1.644
 4311TIP3    H112810   5.058   4.380   1.581
 4311TIP3    H212811   5.071   4.355   1.730
 4312TIP3   OH212812   5.188   3.023   1.882
 4312TIP3    H112813   5.185   3.114   1.918
 4312TIP3    H212814   5.285   3.006   1.890
 4313TIP3   OH212815   6.441   3.518   2.780
 4313TIP3    H112816   6.343   3.514   2.783
 4313TIP3    H212817   6.457   3.483   2.691
 4314TIP3   OH212818   6.093   3.712   2.167
 4314TIP3    H112819   6.018   3.652   2.178
 4314TIP3    H212820   6.165   3.664   2.215
 4315TIP3   OH212821   4.805   3.941   1.637
 4315TIP3    H112822   4.870   4.014   1.645
 4315TIP3    H212823   4.851   3.887   1.569
 4316TIP3   OH212824   4.752   3.216   1.769
 4316TIP3    H112825   4.749   3.314   1.765
 4316TIP3    H212826   4.667   3.193   1.728
 4317TIP3   OH212827   6.062   4.667   2.116
 4317TIP3    H112828   6.019   4.714   2.041
 4317TIP3    H212829   6.156   4.686   2.095
 4318TIP3   OH212830   5.141   2.938   2.643
 4318TIP3    H112831   5.108   2.904   2.557
 4318TIP3    H212832   5.129   2.859   2.701
 4319TIP3   OH212833   4.677   4.155   2.024
 4319TIP3    H112834   4.606   4.186   2.082
 4319TIP3    H212835   4.651   4.196   1.939
 4320TIP3   OH212836   4.834   4.696   3.095
 4320TIP3    H112837   4.920   4.696   3.142
 4320TIP3    H212838   4.813   4.601   3.094
 4321TIP3   OH212839   5.315   4.661   3.140
 4321TIP3    H112840   5.410   4.644   3.146
 4321TIP3    H212841   5.290   4.603   3.066
 4322TIP3   OH212842   5.295   4.236   1.266
 4322TIP3    H112843   5.238   4.168   1.307
 4322TIP3    H212844   5.372   4.182   1.241
 4323TIP3   OH212845   5.955   4.567   2.872
 4323TIP3    H112846   5.947   4.498   2.940
 4323TIP3    H212847   6.032   4.619   2.903
 4324TIP3   OH212848   5.732   4.277   1.179
 4324TIP3    H112849   5.776   4.214   1.239
 4324TIP3    H212850   5.792   4.278   1.102
 4325TIP3   OH212851   4.964   4.103   3.296
 4325TIP3    H112852   4.982   4.007   3.299
 4325TIP3    H212853   4.876   4.105   3.252
 4326TIP3   OH212854   4.942   3.755   1.488
 4326TIP3    H112855   4.996   3.721   1.561
 4326TIP3    H212856   5.009   3.759   1.417
 4327TIP3   OH212857   5.573   4.187   3.068
 4327TIP3    H112858   5.529   4.204   2.982
 4327TIP3    H212859   5.601   4.093   3.059
 4328TIP3   OH212860   5.451   3.953   1.294
 4328TIP3    H112861   5.453   3.967   1.391
 4328TIP3    H212862   5.450   3.855   1.290
 4329TIP3   OH212863   6.065   4.195   2.675
 4329TIP3    H112864   6.138   4.242   2.630
 4329TIP3    H212865   5.993   4.260   2.664
 4330TIP3   OH212866   5.080   3.839   3.275
 4330TIP3    H112867   5.143   3.768   3.257
 4330TIP3    H212868   5.109   3.869   3.364
 4331TIP3   OH212869   5.150   3.657   1.711
 4331TIP3    H112870   5.122   3.616   1.794
 4331TIP3    H212871   5.185   3.581   1.661
 4332TIP3   OH212872   5.426   3.753   2.949
 4332TIP3    H112873   5.340   3.800   2.941
 4332TIP3    H212874   5.466   3.767   2.860
 4333TIP3   OH212875   5.250   3.450   1.551
 4333TIP3    H112876   5.223   3.453   1.457
 4333TIP3    H212877   5.347   3.457   1.543
 4334TIP3   OH212878   5.933   4.122   3.073
 4334TIP3    H112879   6.015   4.104   3.025
 4334TIP3    H212880   5.934   4.056   3.144
 4335TIP3   OH212881   6.072   3.783   1.213
 4335TIP3    H112882   6.049   3.735   1.131
 4335TIP3    H212883   6.040   3.873   1.189
 4336TIP3   OH212884   5.562   3.278   2.870
 4336TIP3    H112885   5.586   3.322   2.785
 4336TIP3    H212886   5.468   3.256   2.850
 4337TIP3   OH212887   5.580   3.833   2.734
 4337TIP3    H112888   5.660   3.850   2.682
 4337TIP3    H212889   5.519   3.901   2.698
 4338TIP3   OH212890   6.156   3.799   3.128
 4338TIP3    H112891   6.209   3.718   3.131
 4338TIP3    H212892   6.219   3.862   3.091
 4339TIP3   OH212893   6.194   4.051   2.862
 4339TIP3    H112894   6.137   4.105   2.803
 4339TIP3    H212895   6.282   4.071   2.822
 4340TIP3   OH212896   5.793   3.551   3.152
 4340TIP3    H112897   5.782   3.540   3.249
 4340TIP3    H212898   5.704   3.581   3.130
 4341TIP3   OH212899   6.040   3.511   3.008
 4341TIP3    H112900   5.966   3.514   3.071
 4341TIP3    H212901   6.115   3.482   3.065
 4342TIP3   OH212902   6.262   3.453   3.164
 4342TIP3    H112903   6.281   3.358   3.181
 4342TIP3    H212904   6.266   3.493   3.253
 4343TIP3   OH212905   5.057   4.512   1.455
 4343TIP3    H112906   5.152   4.510   1.436
 4343TIP3    H212907   5.026   4.562   1.378
 4344TIP3   OH212908   4.537   3.895   1.672
 4344TIP3    H112909   4.632   3.916   1.659
 4344TIP3    H212910   4.531   3.806   1.630
 4345TIP3   OH212911   4.451   4.507   2.086
 4345TIP3    H112912   4.383   4.445   2.050
 4345TIP3    H212913   4.496   4.449   2.152
 4346TIP3   OH212914   4.588   4.358   2.272
 4346TIP3    H112915   4.576   4.285   2.335
 4346TIP3    H212916   4.638   4.421   2.328
 4347TIP3   OH212917   6.315   4.758   2.072
 4347TIP3    H112918   6.340   4.793   2.159
 4347TIP3    H212919   6.375   4.805   2.012
 4348TIP3   OH212920   6.343   4.780   2.354
 4348TIP3    H112921   6.301   4.692   2.350
 4348TIP3    H212922   6.419   4.759   2.411
 4349TIP3   OH212923   6.391   4.455   2.928
 4349TIP3    H112924   6.317   4.464   2.991
 4349TIP3    H212925   6.432   4.544   2.931
 4350TIP3   OH212926   6.207   3.969   1.547
 4350TIP3    H112927   6.276   4.033   1.519
 4350TIP3    H212928   6.250   3.929   1.626
 4351TIP3   OH212929   6.334   3.836   1.750
 4351TIP3    H112930   6.269   3.794   1.810
 4351TIP3    H212931   6.399   3.874   1.812
 4352TIP3   OH212932   6.388   4.228   2.183
 4352TIP3    H112933   6.442   4.165   2.132
 4352TIP3    H212934   6.381   4.303   2.122
 4353TIP3   OH212935   6.220   4.528   2.379
 4353TIP3    H112936   6.149   4.572   2.430
 4353TIP3    H212937   6.169   4.481   2.309
 4354TIP3   OH212938   6.272   3.744   1.398
 4354TIP3    H112939   6.200   3.747   1.331
 4354TIP3    H212940   6.246   3.820   1.453
 4355TIP3   OH212941   6.143   3.417   1.353
 4355TIP3    H112942   6.101   3.455   1.275
 4355TIP3    H212943   6.119   3.323   1.343
 4356TIP3   OH212944   6.148   3.692   1.897
 4356TIP3    H112945   6.156   3.596   1.892
 4356TIP3    H212946   6.134   3.708   1.993
 4357TIP3   OH212947   4.775   3.767   2.644
 4357TIP3    H112948   4.773   3.736   2.551
 4357TIP3    H212949   4.872   3.768   2.660
 4358TIP3   OH212950   6.436   4.117   2.754
 4358TIP3    H112951   6.510   4.052   2.745
 4358TIP3    H212952   6.463   4.188   2.693
 4359TIP3   OH212953   6.622   3.923   2.772
 4359TIP3    H112954   6.547   3.873   2.811
 4359TIP3    H212955   6.695   3.859   2.785
 4360TIP3   OH212956   6.087   3.151   1.338
 4360TIP3    H112957   6.162   3.120   1.393
 4360TIP3    H212958   6.014   3.092   1.363
 4361TIP3   OH212959   6.144   3.409   1.793
 4361TIP3    H112960   6.185   3.321   1.808
 4361TIP3    H212961   6.202   3.442   1.722
 4362TIP3   OH212962   6.307   3.583   2.288
 4362TIP3    H112963   6.393   3.609   2.247
 4362TIP3    H212964   6.320   3.621   2.377
 4363TIP3   OH212965   6.375   3.728   2.521
 4363TIP3    H112966   6.296   3.762   2.567
 4363TIP3    H212967   6.407   3.808   2.474
 4364TIP3   OH212968   5.012   3.457   3.320
 4364TIP3    H112969   5.103   3.437   3.296
 4364TIP3    H212970   4.983   3.373   3.360
 4365TIP3   OH212971   6.826   3.317   3.077
 4365TIP3    H112972   6.884   3.251   3.033
 4365TIP3    H212973   6.798   3.372   3.001
 4366TIP3   OH212974   6.253   3.159   1.831
 4366TIP3    H112975   6.301   3.142   1.914
 4366TIP3    H212976   6.193   3.082   1.828
 4367TIP3   OH212977   4.954   3.144   2.646
 4367TIP3    H112978   5.016   3.070   2.659
 4367TIP3    H212979   5.016   3.219   2.643
 4368TIP3   OH212980   4.755   3.419   2.721
 4368TIP3    H112981   4.805   3.414   2.637
 4368TIP3    H212982   4.785   3.504   2.755
 4369TIP3   OH212983   6.697   3.457   2.883
 4369TIP3    H112984   6.609   3.497   2.900
 4369TIP3    H212985   6.671   3.386   2.823
 4370TIP3   OH212986   6.334   3.094   1.462
 4370TIP3    H112987   6.374   3.021   1.410
 4370TIP3    H212988   6.402   3.164   1.455
 4371TIP3   OH212989   4.739   2.922   2.224
 4371TIP3    H112990   4.646   2.920   2.250
 4371TIP3    H212991   4.737   2.980   2.145
 4372TIP3   OH212992   5.898   4.625   1.729
 4372TIP3    H112993   5.951   4.611   1.648
 4372TIP3    H212994   5.950   4.693   1.775
 4373TIP3   OH212995   4.956   2.991   3.030
 4373TIP3    H112996   4.914   2.996   3.118
 4373TIP3    H212997   4.888   3.036   2.975
 4374TIP3   OH212998   5.000   4.428   3.115
 4374TIP3    H112999   4.908   4.403   3.098
 4374TIP3    H213000   5.008   4.411   3.210
 4375TIP3   OH213001   5.178   4.461   2.663
 4375TIP3    H113002   5.129   4.537   2.624
 4375TIP3    H213003   5.263   4.475   2.617
 4376TIP3   OH213004   5.623   4.706   2.799
 4376TIP3    H113005   5.664   4.707   2.888
 4376TIP3    H213006   5.689   4.757   2.748
 4377TIP3   OH213007   5.802   4.858   2.659
 4377TIP3    H113008   5.874   4.807   2.618
 4377TIP3    H213009   5.853   4.916   2.720
 4378TIP3   OH213010   6.596   3.220   2.760
 4378TIP3    H113011   6.505   3.216   2.724
 4378TIP3    H213012   6.627   3.128   2.746
 4379TIP3   OH213013   4.854   4.718   2.686
 4379TIP3    H113014   4.765   4.752   2.662
 4379TIP3    H213015   4.864   4.756   2.774
 4380TIP3   OH213016   5.090   4.697   2.543
 4380TIP3    H113017   5.004   4.710   2.589
 4380TIP3    H213018   5.070   4.731   2.454
 4381TIP3   OH213019   5.517   4.726   2.341
 4381TIP3    H113020   5.447   4.747   2.276
 4381TIP3    H213021   5.529   4.814   2.384
 4382TIP3   OH213022   5.785   4.666   2.392
 4382TIP3    H113023   5.691   4.682   2.374
 4382TIP3    H213024   5.827   4.743   2.351
 4383TIP3   OH213025   5.993   4.858   2.308
 4383TIP3    H113026   5.978   4.943   2.262
 4383TIP3    H213027   6.018   4.799   2.234
 4384TIP3   OH213028   4.765   4.513   2.431
 4384TIP3    H113029   4.792   4.487   2.522
 4384TIP3    H213030   4.837   4.470   2.380
 4385TIP3   OH213031   4.959   4.384   2.288
 4385TIP3    H113032   4.975   4.300   2.337
 4385TIP3    H213033   5.050   4.421   2.284
 4386TIP3   OH213034   5.225   4.479   2.291
 4386TIP3    H113035   5.256   4.387   2.279
 4386TIP3    H213036   5.269   4.501   2.375
 4387TIP3   OH213037   5.806   3.136   2.385
 4387TIP3    H113038   5.759   3.065   2.432
 4387TIP3    H213039   5.873   3.087   2.333
 4388TIP3   OH213040   6.325   3.018   2.286
 4388TIP3    H113041   6.362   3.068   2.210
 4388TIP3    H213042   6.229   3.034   2.276
 4389TIP3   OH213043   6.419   3.115   2.048
 4389TIP3    H113044   6.492   3.064   2.007
 4389TIP3    H213045   6.453   3.207   2.033
 4390TIP3   OH213046   5.050   2.845   2.394
 4390TIP3    H113047   4.958   2.811   2.395
 4390TIP3    H213048   5.100   2.760   2.392
 4391TIP3   OH213049   4.837   2.714   2.043
 4391TIP3    H113050   4.866   2.771   1.970
 4391TIP3    H213051   4.807   2.778   2.109
 4392TIP3   OH213052   5.493   2.876   2.273
 4392TIP3    H113053   5.554   2.926   2.216
 4392TIP3    H213054   5.508   2.916   2.359
 4393TIP3   OH213055   6.042   3.022   2.258
 4393TIP3    H113056   6.038   2.986   2.169
 4393TIP3    H213057   6.029   2.942   2.314
 4394TIP3   OH213058   6.071   2.946   1.821
 4394TIP3    H113059   5.984   2.988   1.832
 4394TIP3    H213060   6.055   2.860   1.867
 4395TIP3   OH213061   4.554   4.284   1.822
 4395TIP3    H113062   4.469   4.252   1.787
 4395TIP3    H213063   4.543   4.379   1.804
 4396TIP3   OH213064   4.953   2.874   1.806
 4396TIP3    H113065   5.001   2.811   1.749
 4396TIP3    H213066   5.026   2.927   1.842
 4397TIP3   OH213067   5.466   3.048   1.904
 4397TIP3    H113068   5.525   3.000   1.965
 4397TIP3    H213069   5.487   3.140   1.930
 4398TIP3   OH213070   5.325   4.472   1.405
 4398TIP3    H113071   5.413   4.496   1.368
 4398TIP3    H213072   5.303   4.398   1.345
 4399TIP3   OH213073   6.045   4.592   1.496
 4399TIP3    H113074   6.035   4.494   1.483
 4399TIP3    H213075   5.999   4.626   1.417
 4400TIP3   OH213076   5.262   3.073   3.262
 4400TIP3    H113077   5.247   3.041   3.352
 4400TIP3    H213078   5.302   3.161   3.275
 4401TIP3   OH213079   5.533   3.124   3.423
 4401TIP3    H113080   5.584   3.054   3.381
 4401TIP3    H213081   5.479   3.071   3.485
 4402TIP3   OH213082   4.629   4.310   1.461
 4402TIP3    H113083   4.629   4.337   1.554
 4402TIP3    H213084   4.718   4.269   1.451
 4403TIP3   OH213085   6.331   3.185   3.193
 4403TIP3    H113086   6.352   3.152   3.282
 4403TIP3    H213087   6.418   3.180   3.148
 4404TIP3   OH213088   6.271   4.736   2.684
 4404TIP3    H113089   6.192   4.704   2.636
 4404TIP3    H213090   6.252   4.832   2.688
 4405TIP3   OH213091   7.538   4.107   1.450
 4405TIP3    H113092   7.510   4.199   1.431
 4405TIP3    H213093   7.459   4.059   1.419
 4406TIP3   OH213094   7.531   4.110   1.830
 4406TIP3    H113095   7.564   4.086   1.919
 4406TIP3    H213096   7.492   4.025   1.801
 4407TIP3   OH213097   6.835   4.004   2.198
 4407TIP3    H113098   6.867   3.937   2.261
 4407TIP3    H213099   6.914   4.059   2.188
 4408TIP3   OH213100   7.779   4.409   1.514
 4408TIP3    H113101   7.767   4.340   1.582
 4408TIP3    H213102   7.808   4.485   1.568
 4409TIP3   OH213103   6.807   4.413   1.923
 4409TIP3    H113104   6.798   4.315   1.924
 4409TIP3    H213105   6.904   4.421   1.916
 4410TIP3   OH213106   6.513   3.617   1.708
 4410TIP3    H113107   6.464   3.700   1.722
 4410TIP3    H213108   6.443   3.562   1.668
 4411TIP3   OH213109   6.572   3.903   1.878
 4411TIP3    H113110   6.622   3.827   1.916
 4411TIP3    H213111   6.633   3.934   1.810
 4412TIP3   OH213112   7.427   4.871   1.528
 4412TIP3    H113113   7.474   4.800   1.480
 4412TIP3    H213114   7.422   4.835   1.618
 4413TIP3   OH213115   7.335   4.333   1.881
 4413TIP3    H113116   7.374   4.256   1.835
 4413TIP3    H213117   7.418   4.379   1.904
 4414TIP3   OH213118   8.353   3.665   1.884
 4414TIP3    H113119   8.330   3.752   1.925
 4414TIP3    H213120   8.369   3.694   1.792
 4415TIP3   OH213121   7.744   3.837   1.913
 4415TIP3    H113122   7.790   3.753   1.934
 4415TIP3    H213123   7.716   3.820   1.821
 4416TIP3   OH213124   7.084   3.495   1.879
 4416TIP3    H113125   7.064   3.568   1.816
 4416TIP3    H213126   7.036   3.421   1.834
 4417TIP3   OH213127   7.779   3.585   1.501
 4417TIP3    H113128   7.852   3.570   1.567
 4417TIP3    H213129   7.831   3.621   1.427
 4418TIP3   OH213130   6.718   3.697   1.986
 4418TIP3    H113131   6.801   3.677   2.033
 4418TIP3    H213132   6.730   3.641   1.906
 4419TIP3   OH213133   7.159   3.895   1.778
 4419TIP3    H113134   7.253   3.869   1.791
 4419TIP3    H213135   7.120   3.811   1.746
 4420TIP3   OH213136   7.081   3.478   2.312
 4420TIP3    H113137   7.022   3.515   2.244
 4420TIP3    H213138   7.029   3.497   2.393
 4421TIP3   OH213139   7.429   4.330   1.321
 4421TIP3    H113140   7.386   4.309   1.237
 4421TIP3    H213141   7.385   4.414   1.344
 4422TIP3   OH213142   7.188   4.253   2.107
 4422TIP3    H113143   7.125   4.319   2.144
 4422TIP3    H213144   7.231   4.303   2.036
 4423TIP3   OH213145   7.990   3.588   1.675
 4423TIP3    H113146   7.975   3.546   1.761
 4423TIP3    H213147   8.042   3.667   1.700
 4424TIP3   OH213148   6.952   3.593   2.097
 4424TIP3    H113149   7.014   3.666   2.119
 4424TIP3    H213150   7.001   3.552   2.022
 4425TIP3   OH213151   7.016   4.447   2.205
 4425TIP3    H113152   6.990   4.533   2.165
 4425TIP3    H213153   6.937   4.432   2.261
 4426TIP3   OH213154   6.412   4.138   1.442
 4426TIP3    H113155   6.370   4.165   1.358
 4426TIP3    H213156   6.441   4.224   1.479
 4427TIP3   OH213157   7.850   4.653   1.681
 4427TIP3    H113158   7.760   4.644   1.720
 4427TIP3    H213159   7.842   4.740   1.636
 4428TIP3   OH213160   8.141   3.542   2.036
 4428TIP3    H113161   8.059   3.591   2.022
 4428TIP3    H213162   8.203   3.589   1.977
 4429TIP3   OH213163   7.439   3.197   2.026
 4429TIP3    H113164   7.425   3.102   2.043
 4429TIP3    H213165   7.361   3.235   2.072
 4430TIP3   OH213166   7.551   4.699   1.356
 4430TIP3    H113167   7.602   4.617   1.334
 4430TIP3    H213168   7.610   4.766   1.314
 4431TIP3   OH213169   7.694   4.484   1.262
 4431TIP3    H113170   7.655   4.404   1.224
 4431TIP3    H213171   7.730   4.450   1.347
 4432TIP3   OH213172   8.077   4.566   2.026
 4432TIP3    H113173   8.065   4.488   1.967
 4432TIP3    H213174   8.059   4.640   1.964
 4433TIP3   OH213175   7.366   3.959   1.281
 4433TIP3    H113176   7.286   4.011   1.259
 4433TIP3    H213177   7.414   3.958   1.196
 4434TIP3   OH213178   7.326   3.746   0.997
 4434TIP3    H113179   7.393   3.794   1.048
 4434TIP3    H213180   7.383   3.682   0.950
 4435TIP3   OH213181   8.300   4.238   1.866
 4435TIP3    H113182   8.204   4.238   1.885
 4435TIP3    H213183   8.302   4.248   1.769
 4436TIP3   OH213184   7.715   4.042   1.254
 4436TIP3    H113185   7.660   4.067   1.332
 4436TIP3    H213186   7.798   4.016   1.298
 4437TIP3   OH213187   7.933   4.072   2.190
 4437TIP3    H113188   7.938   4.164   2.220
 4437TIP3    H213189   7.870   4.080   2.117
 4438TIP3   OH213190   6.947   4.040   1.670
 4438TIP3    H113191   6.906   3.982   1.602
 4438TIP3    H213192   7.024   3.987   1.699
 4439TIP3   OH213193   7.077   4.450   1.819
 4439TIP3    H113194   7.057   4.409   1.734
 4439TIP3    H213195   7.167   4.417   1.837
 4440TIP3   OH213196   7.083   4.012   2.024
 4440TIP3    H113197   7.117   3.991   1.935
 4440TIP3    H213198   7.127   4.097   2.044
 4441TIP3   OH213199   7.608   4.649   1.801
 4441TIP3    H113200   7.595   4.729   1.856
 4441TIP3    H213201   7.595   4.576   1.864
 4442TIP3   OH213202   7.221   4.567   2.350
 4442TIP3    H113203   7.161   4.631   2.394
 4442TIP3    H213204   7.155   4.515   2.299
 4443TIP3   OH213205   7.556   3.900   1.081
 4443TIP3    H113206   7.615   3.959   1.132
 4443TIP3    H213207   7.582   3.924   0.988
 4444TIP3   OH213208   6.976   4.123   2.451
 4444TIP3    H113209   6.980   4.211   2.494
 4444TIP3    H213210   6.880   4.105   2.457
 4445TIP3   OH213211   7.298   4.580   1.354
 4445TIP3    H113212   7.378   4.633   1.372
 4445TIP3    H213213   7.237   4.645   1.317
 4446TIP3   OH213214   7.016   4.737   2.435
 4446TIP3    H113215   6.981   4.735   2.344
 4446TIP3    H213216   6.936   4.715   2.488
 4447TIP3   OH213217   8.072   3.141   1.129
 4447TIP3    H113218   7.990   3.160   1.179
 4447TIP3    H213219   8.084   3.224   1.079
 4448TIP3   OH213220   6.814   3.883   1.474
 4448TIP3    H113221   6.748   3.928   1.418
 4448TIP3    H213222   6.773   3.797   1.488
 4449TIP3   OH213223   7.865   4.506   0.677
 4449TIP3    H113224   7.873   4.603   0.662
 4449TIP3    H213225   7.958   4.478   0.664
 4450TIP3   OH213226   6.594   4.267   2.382
 4450TIP3    H113227   6.529   4.245   2.313
 4450TIP3    H213228   6.631   4.180   2.406
 4451TIP3   OH213229   6.449   4.458   2.017
 4451TIP3    H113230   6.545   4.455   2.006
 4451TIP3    H213231   6.438   4.539   2.069
 4452TIP3   OH213232   8.314   4.911   2.072
 4452TIP3    H113233   8.312   4.814   2.083
 4452TIP3    H213234   8.229   4.935   2.116
 4453TIP3   OH213235   7.420   4.697   2.207
 4453TIP3    H113236   7.418   4.790   2.238
 4453TIP3    H213237   7.348   4.657   2.260
 4454TIP3   OH213238   7.178   4.825   1.158
 4454TIP3    H113239   7.134   4.808   1.073
 4454TIP3    H213240   7.148   4.915   1.180
 4455TIP3   OH213241   6.617   4.675   1.540
 4455TIP3    H113242   6.666   4.666   1.625
 4455TIP3    H213243   6.558   4.598   1.545
 4456TIP3   OH213244   7.383   4.727   0.802
 4456TIP3    H113245   7.442   4.657   0.766
 4456TIP3    H213246   7.418   4.736   0.893
 4457TIP3   OH213247   7.431   4.776   1.070
 4457TIP3    H113248   7.343   4.784   1.113
 4457TIP3    H213249   7.484   4.736   1.142
 4458TIP3   OH213250   8.196   4.034   2.347
 4458TIP3    H113251   8.131   4.057   2.278
 4458TIP3    H213252   8.213   3.941   2.322
 4459TIP3   OH213253   6.800   4.449   2.371
 4459TIP3    H113254   6.849   4.433   2.454
 4459TIP3    H213255   6.726   4.386   2.378
 4460TIP3   OH213256   7.199   3.273   2.155
 4460TIP3    H113257   7.109   3.242   2.129
 4460TIP3    H213258   7.175   3.356   2.199
 4461TIP3   OH213259   7.733   3.389   2.349
 4461TIP3    H113260   7.801   3.360   2.414
 4461TIP3    H213261   7.649   3.369   2.395
 4462TIP3   OH213262   7.974   3.806   2.268
 4462TIP3    H113263   7.926   3.816   2.353
 4462TIP3    H213264   7.963   3.895   2.229
 4463TIP3   OH213265   7.630   3.946   0.823
 4463TIP3    H113266   7.601   3.920   0.733
 4463TIP3    H213267   7.707   4.002   0.802
 4464TIP3   OH213268   7.344   3.323   1.125
 4464TIP3    H113269   7.312   3.320   1.217
 4464TIP3    H213270   7.306   3.239   1.093
 4465TIP3   OH213271   7.130   3.789   2.172
 4465TIP3    H113272   7.080   3.810   2.254
 4465TIP3    H213273   7.114   3.870   2.119
 4466TIP3   OH213274   7.014   3.675   1.687
 4466TIP3    H113275   6.922   3.648   1.705
 4466TIP3    H213276   7.028   3.634   1.599
 4467TIP3   OH213277   7.504   3.760   1.414
 4467TIP3    H113278   7.451   3.832   1.373
 4467TIP3    H213279   7.559   3.731   1.339
 4468TIP3   OH213280   7.677   4.041   2.504
 4468TIP3    H113281   7.657   3.967   2.565
 4468TIP3    H213282   7.773   4.051   2.517
 4469TIP3   OH213283   7.661   3.788   1.655
 4469TIP3    H113284   7.603   3.819   1.583
 4469TIP3    H213285   7.695   3.707   1.612
 4470TIP3   OH213286   6.950   3.819   2.383
 4470TIP3    H113287   6.978   3.882   2.450
 4470TIP3    H213288   6.939   3.737   2.435
 4471TIP3   OH213289   7.000   3.296   1.092
 4471TIP3    H113290   6.992   3.292   1.189
 4471TIP3    H213291   6.920   3.347   1.068
 4472TIP3   OH213292   6.542   3.340   1.964
 4472TIP3    H113293   6.619   3.371   2.016
 4472TIP3    H213294   6.582   3.307   1.882
 4473TIP3   OH213295   6.516   3.321   1.482
 4473TIP3    H113296   6.561   3.360   1.404
 4473TIP3    H213297   6.455   3.394   1.504
 4474TIP3   OH213298   7.649   4.035   2.070
 4474TIP3    H113299   7.691   3.965   2.016
 4474TIP3    H213300   7.637   3.986   2.154
 4475TIP3   OH213301   7.341   3.496   1.748
 4475TIP3    H113302   7.259   3.495   1.802
 4475TIP3    H213303   7.410   3.498   1.817
 4476TIP3   OH213304   6.776   3.553   1.757
 4476TIP3    H113305   6.681   3.559   1.730
 4476TIP3    H213306   6.800   3.461   1.733
 4477TIP3   OH213307   7.046   3.548   1.445
 4477TIP3    H113308   7.140   3.564   1.424
 4477TIP3    H213309   6.999   3.572   1.362
 4478TIP3   OH213310   7.828   3.573   1.948
 4478TIP3    H113311   7.795   3.585   2.040
 4478TIP3    H213312   7.761   3.512   1.913
 4479TIP3   OH213313   6.886   3.583   1.224
 4479TIP3    H113314   6.814   3.538   1.176
 4479TIP3    H213315   6.938   3.618   1.149
 4480TIP3   OH213316   8.004   5.261   2.169
 4480TIP3    H113317   8.000   5.285   2.075
 4480TIP3    H213318   8.082   5.311   2.199
 4481TIP3   OH213319   6.960   4.370   2.592
 4481TIP3    H113320   7.040   4.403   2.638
 4481TIP3    H213321   6.895   4.372   2.665
 4482TIP3   OH213322   7.425   3.824   1.844
 4482TIP3    H113323   7.499   3.787   1.793
 4482TIP3    H213324   7.438   3.785   1.932
 4483TIP3   OH213325   6.948   3.313   1.725
 4483TIP3    H113326   6.914   3.232   1.770
 4483TIP3    H213327   6.999   3.275   1.652
 4484TIP3   OH213328   7.401   3.718   2.141
 4484TIP3    H113329   7.313   3.758   2.152
 4484TIP3    H213330   7.460   3.781   2.188
 4485TIP3   OH213331   7.138   4.113   1.229
 4485TIP3    H113332   7.065   4.048   1.219
 4485TIP3    H213333   7.121   4.147   1.321
 4486TIP3   OH213334   8.034   4.350   1.863
 4486TIP3    H113335   8.065   4.394   1.782
 4486TIP3    H213336   7.951   4.307   1.834
 4487TIP3   OH213337   7.596   3.425   1.092
 4487TIP3    H113338   7.499   3.409   1.101
 4487TIP3    H213339   7.606   3.520   1.116
 4488TIP3   OH213340   7.537   4.431   2.228
 4488TIP3    H113341   7.558   4.410   2.319
 4488TIP3    H213342   7.499   4.520   2.234
 4489TIP3   OH213343   7.666   3.671   1.196
 4489TIP3    H113344   7.762   3.678   1.212
 4489TIP3    H213345   7.647   3.751   1.143
 4490TIP3   OH213346   6.829   4.133   1.907
 4490TIP3    H113347   6.869   4.107   1.821
 4490TIP3    H213348   6.873   4.071   1.968
 4491TIP3   OH213349   7.282   4.262   1.048
 4491TIP3    H113350   7.236   4.348   1.056
 4491TIP3    H213351   7.229   4.207   1.110
 4492TIP3   OH213352   6.710   4.055   2.520
 4492TIP3    H113353   6.731   4.041   2.614
 4492TIP3    H213354   6.641   3.988   2.505
 4493TIP3   OH213355   7.435   4.169   2.541
 4493TIP3    H113356   7.376   4.113   2.488
 4493TIP3    H213357   7.523   4.136   2.514
 4494TIP3   OH213358   7.699   4.690   2.124
 4494TIP3    H113359   7.602   4.688   2.135
 4494TIP3    H213360   7.725   4.743   2.202
 4495TIP3   OH213361   8.110   3.761   1.031
 4495TIP3    H113362   8.047   3.716   0.971
 4495TIP3    H213363   8.106   3.850   0.991
 4496TIP3   OH213364   8.327   4.621   2.111
 4496TIP3    H113365   8.229   4.614   2.103
 4496TIP3    H213366   8.353   4.589   2.022
 4497TIP3   OH213367   7.808   4.581   0.942
 4497TIP3    H113368   7.784   4.507   0.999
 4497TIP3    H213369   7.822   4.538   0.855
 4498TIP3   OH213370   7.802   4.211   1.777
 4498TIP3    H113371   7.709   4.184   1.789
 4498TIP3    H213372   7.839   4.131   1.735
 4499TIP3   OH213373   6.931   4.438   1.531
 4499TIP3    H113374   6.933   4.520   1.478
 4499TIP3    H213375   6.836   4.424   1.541
 4500TIP3   OH213376   6.494   3.743   1.234
 4500TIP3    H113377   6.541   3.827   1.255
 4500TIP3    H213378   6.417   3.749   1.295
 4501TIP3   OH213379   7.070   4.204   1.476
 4501TIP3    H113380   7.035   4.294   1.493
 4501TIP3    H213381   7.033   4.155   1.551
 4502TIP3   OH213382   7.201   4.782   2.001
 4502TIP3    H113383   7.240   4.855   1.949
 4502TIP3    H213384   7.278   4.748   2.048
 4503TIP3   OH213385   6.852   4.677   1.384
 4503TIP3    H113386   6.765   4.685   1.430
 4503TIP3    H213387   6.884   4.770   1.388
 4504TIP3   OH213388   7.590   4.418   1.959
 4504TIP3    H113389   7.581   4.414   2.056
 4504TIP3    H213390   7.669   4.364   1.944
 4505TIP3   OH213391   7.561   4.304   0.845
 4505TIP3    H113392   7.616   4.281   0.924
 4505TIP3    H213393   7.473   4.283   0.878
 4506TIP3   OH213394   7.838   4.951   2.011
 4506TIP3    H113395   7.759   4.894   2.002
 4506TIP3    H213396   7.823   5.015   1.938
 4507TIP3   OH213397   7.899   4.779   0.680
 4507TIP3    H113398   7.923   4.807   0.589
 4507TIP3    H213399   7.826   4.840   0.703
 4508TIP3   OH213400   6.923   3.562   2.529
 4508TIP3    H113401   6.827   3.564   2.541
 4508TIP3    H213402   6.950   3.500   2.599
 4509TIP3   OH213403   7.723   4.240   1.058
 4509TIP3    H113404   7.714   4.175   1.131
 4509TIP3    H213405   7.820   4.241   1.047
 4510TIP3   OH213406   6.639   4.645   2.160
 4510TIP3    H113407   6.692   4.571   2.193
 4510TIP3    H213408   6.667   4.716   2.219
 4511TIP3   OH213409   6.929   4.288   0.841
 4511TIP3    H113410   6.945   4.196   0.814
 4511TIP3    H213411   6.911   4.278   0.937
 4512TIP3   OH213412   6.876   4.294   1.113
 4512TIP3    H113413   6.946   4.267   1.174
 4512TIP3    H213414   6.878   4.392   1.121
 4513TIP3   OH213415   6.610   3.988   1.317
 4513TIP3    H113416   6.545   4.033   1.375
 4513TIP3    H213417   6.625   4.058   1.251
 4514TIP3   OH213418   7.759   3.628   2.209
 4514TIP3    H113419   7.842   3.667   2.241
 4514TIP3    H213420   7.750   3.547   2.263
 4515TIP3   OH213421   7.640   3.377   1.373
 4515TIP3    H113422   7.626   3.401   1.280
 4515TIP3    H213423   7.680   3.458   1.410
 4516TIP3   OH213424   7.140   4.492   1.061
 4516TIP3    H113425   7.053   4.519   1.098
 4516TIP3    H213426   7.159   4.568   1.004
 4517TIP3   OH213427   7.328   3.555   1.476
 4517TIP3    H113428   7.394   3.627   1.459
 4517TIP3    H213429   7.334   3.548   1.574
 4518TIP3   OH213430   7.596   3.873   2.286
 4518TIP3    H113431   7.620   3.927   2.365
 4518TIP3    H213432   7.656   3.797   2.294
 4519TIP3   OH213433   7.474   3.283   1.579
 4519TIP3    H113434   7.467   3.359   1.639
 4519TIP3    H213435   7.534   3.319   1.511
 4520TIP3   OH213436   6.882   4.566   1.130
 4520TIP3    H113437   6.854   4.637   1.067
 4520TIP3    H213438   6.868   4.611   1.217
 4521TIP3   OH213439   6.985   3.280   1.369
 4521TIP3    H113440   6.982   3.371   1.404
 4521TIP3    H213441   7.081   3.262   1.376
 4522TIP3   OH213442   8.242   3.756   2.291
 4522TIP3    H113443   8.144   3.748   2.286
 4522TIP3    H213444   8.258   3.792   2.200
 4523TIP3   OH213445   7.890   3.970   1.653
 4523TIP3    H113446   7.815   3.909   1.668
 4523TIP3    H213447   7.962   3.926   1.703
 4524TIP3   OH213448   6.601   4.198   1.123
 4524TIP3    H113449   6.666   4.271   1.132
 4524TIP3    H213450   6.648   4.144   1.056
 4525TIP3   OH213451   6.547   3.473   1.256
 4525TIP3    H113452   6.545   3.571   1.252
 4525TIP3    H213453   6.464   3.449   1.215
 4526TIP3   OH213454   7.857   4.925   1.603
 4526TIP3    H113455   7.815   4.971   1.528
 4526TIP3    H213456   7.952   4.943   1.582
 4527TIP3   OH213457   6.934   3.193   2.130
 4527TIP3    H113458   6.903   3.160   2.043
 4527TIP3    H213459   6.923   3.114   2.187
 4528TIP3   OH213460   6.472   4.409   1.511
 4528TIP3    H113461   6.402   4.443   1.569
 4528TIP3    H213462   6.448   4.452   1.426
 4529TIP3   OH213463   6.630   4.953   2.581
 4529TIP3    H113464   6.716   4.953   2.629
 4529TIP3    H213465   6.608   4.858   2.581
 4530TIP3   OH213466   7.112   4.917   2.628
 4530TIP3    H113467   7.207   4.899   2.632
 4530TIP3    H213468   7.086   4.860   2.553
 4531TIP3   OH213469   7.091   4.493   0.754
 4531TIP3    H113470   7.036   4.422   0.796
 4531TIP3    H213471   7.169   4.442   0.728
 4532TIP3   OH213472   7.748   4.826   2.361
 4532TIP3    H113473   7.741   4.754   2.427
 4532TIP3    H213474   7.827   4.875   2.390
 4533TIP3   OH213475   7.526   4.533   0.671
 4533TIP3    H113476   7.577   4.474   0.728
 4533TIP3    H213477   7.580   4.535   0.589
 4534TIP3   OH213478   6.760   4.359   2.783
 4534TIP3    H113479   6.776   4.263   2.785
 4534TIP3    H213480   6.672   4.363   2.739
 4535TIP3   OH213481   6.737   4.011   0.975
 4535TIP3    H113482   6.792   3.977   1.049
 4535TIP3    H213483   6.805   4.015   0.904
 4536TIP3   OH213484   7.369   4.444   2.555
 4536TIP3    H113485   7.326   4.461   2.469
 4536TIP3    H213486   7.399   4.351   2.547
 4537TIP3   OH213487   7.244   4.209   0.780
 4537TIP3    H113488   7.248   4.223   0.876
 4537TIP3    H213489   7.245   4.111   0.777
 4538TIP3   OH213490   7.861   4.452   2.164
 4538TIP3    H113491   7.935   4.495   2.116
 4538TIP3    H213492   7.790   4.517   2.148
 4539TIP3   OH213493   6.878   4.092   2.765
 4539TIP3    H113494   6.955   4.040   2.741
 4539TIP3    H213495   6.904   4.125   2.853
 4540TIP3   OH213496   6.945   3.914   1.197
 4540TIP3    H113497   6.919   3.873   1.281
 4540TIP3    H213498   6.981   3.838   1.147
 4541TIP3   OH213499   7.214   3.978   2.425
 4541TIP3    H113500   7.137   4.039   2.428
 4541TIP3    H213501   7.264   4.012   2.347
 4542TIP3   OH213502   7.046   3.707   1.038
 4542TIP3    H113503   7.019   3.709   0.944
 4542TIP3    H213504   7.144   3.714   1.030
 4543TIP3   OH213505   7.733   4.381   2.559
 4543TIP3    H113506   7.808   4.353   2.504
 4543TIP3    H213507   7.730   4.311   2.627
 4544TIP3   OH213508   7.873   4.037   0.695
 4544TIP3    H113509   7.841   3.988   0.617
 4544TIP3    H213510   7.839   4.128   0.674
 4545TIP3   OH213511   7.337   3.766   2.553
 4545TIP3    H113512   7.338   3.686   2.496
 4545TIP3    H213513   7.295   3.832   2.494
 4546TIP3   OH213514   7.340   3.552   2.360
 4546TIP3    H113515   7.368   3.594   2.277
 4546TIP3    H213516   7.247   3.529   2.340
 4547TIP3   OH213517   7.369   4.089   2.233
 4547TIP3    H113518   7.451   4.090   2.182
 4547TIP3    H213519   7.315   4.156   2.187
 4548TIP3   OH213520   7.953   4.059   2.616
 4548TIP3    H113521   7.994   3.972   2.611
 4548TIP3    H213522   8.015   4.113   2.565
 4549TIP3   OH213523   7.989   4.319   2.360
 4549TIP3    H113524   7.932   4.367   2.296
 4549TIP3    H213525   8.076   4.332   2.317
 4550TIP3   OH213526   7.216   3.878   2.783
 4550TIP3    H113527   7.147   3.810   2.796
 4550TIP3    H213528   7.251   3.854   2.695
 4551TIP3   OH213529   7.473   3.317   2.427
 4551TIP3    H113530   7.425   3.400   2.403
 4551TIP3    H213531   7.403   3.250   2.414
 4552TIP3   OH213532   7.598   3.820   2.643
 4552TIP3    H113533   7.583   3.809   2.738
 4552TIP3    H213534   7.508   3.796   2.610
 4553TIP3   OH213535   7.840   3.780   2.504
 4553TIP3    H113536   7.761   3.776   2.560
 4553TIP3    H213537   7.909   3.739   2.559
 4554TIP3   OH213538   8.084   3.716   2.650
 4554TIP3    H113539   8.088   3.619   2.666
 4554TIP3    H213540   8.069   3.752   2.740
 4555TIP3   OH213541   7.054   3.659   2.835
 4555TIP3    H113542   7.062   3.569   2.799
 4555TIP3    H213543   7.090   3.645   2.925
 4556TIP3   OH213544   7.566   3.326   2.685
 4556TIP3    H113545   7.634   3.256   2.678
 4556TIP3    H213546   7.527   3.321   2.595
 4557TIP3   OH213547   7.632   3.541   2.843
 4557TIP3    H113548   7.610   3.470   2.778
 4557TIP3    H213549   7.554   3.600   2.835
 4558TIP3   OH213550   6.853   4.766   0.942
 4558TIP3    H113551   6.949   4.765   0.924
 4558TIP3    H213552   6.823   4.819   0.866
 4559TIP3   OH213553   6.333   4.152   1.158
 4559TIP3    H113554   6.428   4.174   1.146
 4559TIP3    H213555   6.329   4.063   1.117
 4560TIP3   OH213556   6.248   4.763   1.572
 4560TIP3    H113557   6.179   4.702   1.537
 4560TIP3    H213558   6.292   4.706   1.638
 4561TIP3   OH213559   6.385   4.615   1.758
 4561TIP3    H113560   6.371   4.542   1.822
 4561TIP3    H213561   6.435   4.677   1.814
 4562TIP3   OH213562   8.111   5.014   1.559
 4562TIP3    H113563   8.137   5.050   1.645
 4562TIP3    H213564   8.171   5.061   1.499
 4563TIP3   OH213565   8.139   5.037   1.842
 4563TIP3    H113566   8.096   4.949   1.836
 4563TIP3    H213567   8.216   5.014   1.897
 4564TIP3   OH213568   8.190   4.715   2.416
 4564TIP3    H113569   8.115   4.721   2.478
 4564TIP3    H213570   8.229   4.804   2.422
 4565TIP3   OH213571   8.003   4.224   1.034
 4565TIP3    H113572   8.070   4.290   1.007
 4565TIP3    H213573   8.046   4.186   1.113
 4566TIP3   OH213574   8.130   4.092   1.237
 4566TIP3    H113575   8.064   4.050   1.297
 4566TIP3    H213576   8.194   4.132   1.300
 4567TIP3   OH213577   8.183   4.484   1.671
 4567TIP3    H113578   8.240   4.421   1.622
 4567TIP3    H213579   8.176   4.558   1.607
 4568TIP3   OH213580   8.017   4.784   1.865
 4568TIP3    H113581   7.945   4.826   1.916
 4568TIP3    H213582   7.967   4.736   1.796
 4569TIP3   OH213583   8.070   4.001   0.884
 4569TIP3    H113584   7.998   4.004   0.817
 4569TIP3    H213585   8.043   4.077   0.940
 4570TIP3   OH213586   7.939   3.674   0.839
 4570TIP3    H113587   7.898   3.712   0.761
 4570TIP3    H213588   7.914   3.580   0.831
 4571TIP3   OH213589   7.944   3.949   1.384
 4571TIP3    H113590   7.953   3.852   1.381
 4571TIP3    H213591   7.931   3.965   1.480
 4572TIP3   OH213592   6.571   4.021   2.132
 4572TIP3    H113593   6.569   3.992   2.038
 4572TIP3    H213594   6.668   4.024   2.147
 4573TIP3   OH213595   8.232   4.374   2.246
 4573TIP3    H113596   8.302   4.306   2.236
 4573TIP3    H213597   8.254   4.437   2.175
 4574TIP3   OH213598   8.416   4.177   2.279
 4574TIP3    H113599   8.337   4.124   2.302
 4574TIP3    H213600   8.468   4.113   2.229
 4575TIP3   OH213601   7.882   3.409   0.828
 4575TIP3    H113602   7.956   3.376   0.882
 4575TIP3    H213603   7.808   3.349   0.850
 4576TIP3   OH213604   7.940   3.664   1.279
 4576TIP3    H113605   7.981   3.576   1.295
 4576TIP3    H213606   7.998   3.698   1.209
 4577TIP3   OH213607   8.102   3.842   1.775
 4577TIP3    H113608   8.187   3.868   1.731
 4577TIP3    H213609   8.125   3.871   1.865
 4578TIP3   OH213610   6.786   3.708   2.804
 4578TIP3    H113611   6.884   3.704   2.806
 4578TIP3    H213612   6.764   3.623   2.847
 4579TIP3   OH213613   8.632   3.590   2.557
 4579TIP3    H113614   8.683   3.510   2.529
 4579TIP3    H213615   8.581   3.609   2.477
 4580TIP3   OH213616   8.051   3.415   1.316
 4580TIP3    H113617   8.097   3.399   1.401
 4580TIP3    H213618   7.989   3.338   1.315
 4581TIP3   OH213619   6.750   3.401   2.138
 4581TIP3    H113620   6.813   3.327   2.147
 4581TIP3    H213621   6.811   3.477   2.131
 4582TIP3   OH213622   6.553   3.676   2.211
 4582TIP3    H113623   6.601   3.668   2.126
 4582TIP3    H213624   6.580   3.764   2.240
 4583TIP3   OH213625   8.494   3.725   2.367
 4583TIP3    H113626   8.399   3.754   2.372
 4583TIP3    H213627   8.481   3.658   2.297
 4584TIP3   OH213628   8.131   3.350   0.951
 4584TIP3    H113629   8.169   3.279   0.895
 4584TIP3    H213630   8.197   3.422   0.941
 4585TIP3   OH213631   6.535   3.181   1.712
 4585TIP3    H113632   6.441   3.177   1.736
 4585TIP3    H213633   6.534   3.237   1.632
 4586TIP3   OH213634   7.694   4.882   1.218
 4586TIP3    H113635   7.745   4.866   1.136
 4586TIP3    H213636   7.747   4.950   1.262
 4587TIP3   OH213637   6.756   3.260   2.526
 4587TIP3    H113638   6.704   3.254   2.608
 4587TIP3    H213639   6.690   3.297   2.465
 4588TIP3   OH213640   6.797   4.683   2.602
 4588TIP3    H113641   6.704   4.659   2.585
 4588TIP3    H213642   6.803   4.670   2.697
 4589TIP3   OH213643   6.974   4.718   2.150
 4589TIP3    H113644   6.925   4.794   2.111
 4589TIP3    H213645   7.060   4.732   2.104
 4590TIP3   OH213646   7.419   4.963   2.288
 4590TIP3    H113647   7.462   4.965   2.376
 4590TIP3    H213648   7.485   5.013   2.235
 4591TIP3   OH213649   7.597   5.114   2.146
 4591TIP3    H113650   7.668   5.064   2.102
 4591TIP3    H213651   7.649   5.172   2.205
 4592TIP3   OH213652   8.400   3.479   2.250
 4592TIP3    H113653   8.310   3.491   2.216
 4592TIP3    H213654   8.417   3.384   2.232
 4593TIP3   OH213655   6.651   4.975   2.173
 4593TIP3    H113656   6.561   5.008   2.149
 4593TIP3    H213657   6.660   5.014   2.261
 4594TIP3   OH213658   6.886   4.954   2.030
 4594TIP3    H113659   6.800   4.967   2.076
 4594TIP3    H213660   6.866   4.987   1.941
 4595TIP3   OH213661   7.312   4.983   1.829
 4595TIP3    H113662   7.244   5.003   1.762
 4595TIP3    H213663   7.325   5.070   1.870
 4596TIP3   OH213664   7.581   4.923   1.881
 4596TIP3    H113665   7.487   4.939   1.861
 4596TIP3    H213666   7.624   4.999   1.837
 4597TIP3   OH213667   7.789   5.115   1.795
 4597TIP3    H113668   7.774   5.199   1.748
 4597TIP3    H213669   7.814   5.055   1.721
 4598TIP3   OH213670   6.561   4.769   1.917
 4598TIP3    H113671   6.588   4.744   2.008
 4598TIP3    H213672   6.634   4.727   1.867
 4599TIP3   OH213673   6.755   4.641   1.774
 4599TIP3    H113674   6.771   4.557   1.823
 4599TIP3    H213675   6.846   4.678   1.771
 4600TIP3   OH213676   7.021   4.736   1.778
 4600TIP3    H113677   7.053   4.645   1.765
 4600TIP3    H213678   7.065   4.758   1.861
 4601TIP3   OH213679   7.597   3.391   1.864
 4601TIP3    H113680   7.554   3.321   1.916
 4601TIP3    H213681   7.670   3.344   1.820
 4602TIP3   OH213682   8.121   3.267   1.767
 4602TIP3    H113683   8.157   3.323   1.695
 4602TIP3    H213684   8.027   3.292   1.766
 4603TIP3   OH213685   8.216   3.373   1.534
 4603TIP3    H113686   8.290   3.322   1.493
 4603TIP3    H213687   8.248   3.465   1.519
 4604TIP3   OH213688   6.846   3.101   1.882
 4604TIP3    H113689   6.754   3.067   1.882
 4604TIP3    H213690   6.896   3.016   1.879
 4605TIP3   OH213691   6.633   2.970   1.530
 4605TIP3    H113692   6.663   3.027   1.457
 4605TIP3    H213693   6.604   3.036   1.596
 4606TIP3   OH213694   7.289   3.134   1.761
 4606TIP3    H113695   7.348   3.183   1.702
 4606TIP3    H213696   7.312   3.171   1.848
 4607TIP3   OH213697   7.836   3.279   1.747
 4607TIP3    H113698   7.834   3.243   1.657
 4607TIP3    H213699   7.823   3.198   1.801
 4608TIP3   OH213700   7.867   3.202   1.308
 4608TIP3    H113701   7.780   3.245   1.319
 4608TIP3    H213702   7.851   3.117   1.354
 4609TIP3   OH213703   6.350   4.540   1.309
 4609TIP3    H113704   6.264   4.509   1.275
 4609TIP3    H213705   6.340   4.636   1.293
 4610TIP3   OH213706   6.749   3.131   1.292
 4610TIP3    H113707   6.798   3.067   1.236
 4610TIP3    H213708   6.823   3.184   1.329
 4611TIP3   OH213709   7.262   3.305   1.391
 4611TIP3    H113710   7.322   3.258   1.451
 4611TIP3    H213711   7.283   3.397   1.416
 4612TIP3   OH213712   7.123   4.729   0.892
 4612TIP3    H113713   7.210   4.753   0.856
 4612TIP3    H213714   7.100   4.655   0.832
 4613TIP3   OH213715   7.841   4.847   0.987
 4613TIP3    H113716   7.834   4.750   0.973
 4613TIP3    H213717   7.795   4.879   0.907
 4614TIP3   OH213718   7.053   3.381   2.773
 4614TIP3    H113719   7.021   3.310   2.831
 4614TIP3    H213720   7.148   3.383   2.798
 4615TIP3   OH213721   7.302   3.380   2.891
 4615TIP3    H113722   7.387   3.355   2.850
 4615TIP3    H213723   7.291   3.308   2.957
 4616TIP3   OH213724   6.424   4.565   0.948
 4616TIP3    H113725   6.425   4.595   1.040
 4616TIP3    H213726   6.513   4.525   0.937
 4617TIP3   OH213727   8.126   3.442   2.680
 4617TIP3    H113728   8.146   3.409   2.770
 4617TIP3    H213729   8.213   3.433   2.636
 4618TIP3   OH213730   8.066   4.992   2.174
 4618TIP3    H113731   7.988   4.960   2.123
 4618TIP3    H213732   8.048   5.088   2.174
 4619TIP3   OH213733   8.633   4.259   1.673
 4619TIP3    H113734   8.660   4.191   1.738
 4619TIP3    H213735   8.703   4.324   1.685
 4620TIP3   OH213736   8.596   4.672   1.415
 4620TIP3    H113737   8.592   4.573   1.417
 4620TIP3    H213738   8.691   4.684   1.400
 4621TIP3   OH213739   8.310   3.875   1.193
 4621TIP3    H113740   8.260   3.957   1.210
 4621TIP3    H213741   8.239   3.819   1.156
 4622TIP3   OH213742   8.371   4.161   1.359
 4622TIP3    H113743   8.419   4.085   1.399
 4622TIP3    H213744   8.429   4.184   1.286
 4623TIP3   OH213745   9.118   5.066   1.027
 4623TIP3    H113746   9.197   5.084   0.972
 4623TIP3    H213747   9.156   5.074   1.115
 4624TIP3   OH213748   9.080   4.603   1.362
 4624TIP3    H113749   9.092   4.544   1.286
 4624TIP3    H213750   9.174   4.610   1.391
 4625TIP3   OH213751   8.866   3.753   1.376
 4625TIP3    H113752   8.865   3.820   1.305
 4625TIP3    H213753   8.831   3.677   1.327
 4626TIP3   OH213754   8.518   3.959   1.469
 4626TIP3    H113755   8.597   3.933   1.521
 4626TIP3    H213756   8.529   3.899   1.392
 4627TIP3   OH213757   8.916   4.170   1.248
 4627TIP3    H113758   9.010   4.149   1.267
 4627TIP3    H213759   8.883   4.081   1.221
 4628TIP3   OH213760   8.873   3.732   1.804
 4628TIP3    H113761   8.815   3.768   1.735
 4628TIP3    H213762   8.821   3.754   1.884
 4629TIP3   OH213763   8.956   4.517   1.590
 4629TIP3    H113764   8.899   4.587   1.630
 4629TIP3    H213765   8.999   4.567   1.518
 4630TIP3   OH213766   8.742   3.850   1.592
 4630TIP3    H113767   8.805   3.923   1.610
 4630TIP3    H213768   8.787   3.808   1.515
 4631TIP3   OH213769   8.805   4.713   1.696
 4631TIP3    H113770   8.780   4.800   1.658
 4631TIP3    H213771   8.726   4.696   1.752
 4632TIP3   OH213772   8.208   4.394   0.933
 4632TIP3    H113773   8.163   4.415   0.849
 4632TIP3    H213774   8.235   4.482   0.965
 4633TIP3   OH213775   8.718   4.314   1.140
 4633TIP3    H113776   8.681   4.252   1.074
 4633TIP3    H213777   8.794   4.261   1.175
 4634TIP3   OH213778   8.844   4.723   1.295
 4634TIP3    H113779   8.828   4.679   1.210
 4634TIP3    H213780   8.930   4.685   1.323
 4635TIP3   OH213781   8.897   4.262   1.513
 4635TIP3    H113782   8.903   4.257   1.416
 4635TIP3    H213783   8.915   4.356   1.532
 4636TIP3   OH213784   9.014   4.826   1.839
 4636TIP3    H113785   8.954   4.889   1.884
 4636TIP3    H213786   8.949   4.774   1.788
 4637TIP3   OH213787   8.768   4.383   1.936
 4637TIP3    H113788   8.772   4.471   1.978
 4637TIP3    H213789   8.674   4.361   1.953
 4638TIP3   OH213790   9.081   4.860   0.852
 4638TIP3    H113791   9.105   4.919   0.927
 4638TIP3    H213792   9.001   4.905   0.822
 4639TIP3   OH213793   8.811   4.994   1.922
 4639TIP3    H113794   8.776   4.992   1.831
 4639TIP3    H213795   8.731   4.972   1.975
 4640TIP3   OH213796   8.611   4.132   0.955
 4640TIP3    H113797   8.542   4.181   0.904
 4640TIP3    H213798   8.563   4.052   0.979
 4641TIP3   OH213799   8.390   4.521   1.867
 4641TIP3    H113800   8.320   4.503   1.801
 4641TIP3    H213801   8.420   4.430   1.887
 4642TIP3   OH213802   8.245   4.715   1.502
 4642TIP3    H113803   8.341   4.711   1.493
 4642TIP3    H213804   8.234   4.796   1.555
 4643TIP3   OH213805   9.199   4.957   1.686
 4643TIP3    H113806   9.207   5.047   1.723
 4643TIP3    H213807   9.132   4.917   1.746
 4644TIP3   OH213808   8.416   4.932   1.025
 4644TIP3    H113809   8.461   4.922   1.112
 4644TIP3    H213810   8.356   4.855   1.026
 4645TIP3   OH213811   8.592   4.706   1.862
 4645TIP3    H113812   8.642   4.688   1.944
 4645TIP3    H213813   8.520   4.640   1.866
 4646TIP3   OH213814   8.990   3.531   1.646
 4646TIP3    H113815   8.901   3.499   1.619
 4646TIP3    H213816   8.964   3.612   1.694
 4647TIP3   OH213817   8.933   4.034   1.653
 4647TIP3    H113818   8.882   4.056   1.734
 4647TIP3    H213819   8.924   4.118   1.603
 4648TIP3   OH213820   8.810   3.928   1.171
 4648TIP3    H113821   8.720   3.899   1.195
 4648TIP3    H213822   8.815   3.897   1.078
 4649TIP3   OH213823   8.750   4.070   1.863
 4649TIP3    H113824   8.762   4.139   1.929
 4649TIP3    H213825   8.732   3.992   1.917
 4650TIP3   OH213826   8.775   3.562   0.577
 4650TIP3    H113827   8.751   3.544   0.669
 4650TIP3    H213828   8.698   3.612   0.545
 4651TIP3   OH213829   8.337   3.597   1.446
 4651TIP3    H113830   8.411   3.629   1.503
 4651TIP3    H213831   8.382   3.564   1.368
 4652TIP3   OH213832   8.314   3.580   0.969
 4652TIP3    H113833   8.355   3.621   0.890
 4652TIP3    H213834   8.250   3.650   0.993
 4653TIP3   OH213835   8.572   3.812   1.240
 4653TIP3    H113836   8.476   3.819   1.217
 4653TIP3    H213837   8.591   3.718   1.224
 4654TIP3   OH213838   8.829   3.834   0.911
 4654TIP3    H113839   8.899   3.858   0.848
 4654TIP3    H213840   8.751   3.840   0.851
 4655TIP3   OH213841   8.661   3.840   0.702
 4655TIP3    H113842   8.593   3.796   0.649
 4655TIP3    H213843   8.725   3.865   0.633
 4656TIP3   OH213844   8.758   4.625   2.080
 4656TIP3    H113845   8.835   4.659   2.129
 4656TIP3    H213846   8.690   4.627   2.151
 4657TIP3   OH213847   8.744   3.569   1.207
 4657TIP3    H113848   8.707   3.493   1.256
 4657TIP3    H213849   8.789   3.527   1.133
 4658TIP3   OH213850   8.892   4.394   0.711
 4658TIP3    H113851   8.843   4.309   0.714
 4658TIP3    H213852   8.911   4.410   0.806
 4659TIP3   OH213853   9.283   4.689   1.737
 4659TIP3    H113854   9.324   4.678   1.824
 4659TIP3    H213855   9.262   4.783   1.734
 4660TIP3   OH213856   8.633   4.398   1.398
 4660TIP3    H113857   8.659   4.366   1.309
 4660TIP3    H213858   8.654   4.323   1.455
 4661TIP3   OH213859   8.518   4.308   2.009
 4661TIP3    H113860   8.521   4.292   2.105
 4661TIP3    H213861   8.440   4.256   1.979
 4662TIP3   OH213862   9.197   4.386   2.053
 4662TIP3    H113863   9.116   4.347   2.013
 4662TIP3    H213864   9.264   4.326   2.016
 4663TIP3   OH213865   8.728   4.693   1.017
 4663TIP3    H113866   8.725   4.776   0.965
 4663TIP3    H213867   8.633   4.673   1.023
 4664TIP3   OH213868   8.290   4.001   0.720
 4664TIP3    H113869   8.336   4.084   0.742
 4664TIP3    H213870   8.213   4.006   0.782
 4665TIP3   OH213871   8.896   4.474   0.988
 4665TIP3    H113872   8.844   4.557   0.984
 4665TIP3    H213873   8.836   4.419   1.042
 4666TIP3   OH213874   8.997   5.036   1.487
 4666TIP3    H113875   9.034   5.110   1.435
 4666TIP3    H213876   9.074   5.006   1.539
 4667TIP3   OH213877   8.653   4.931   0.876
 4667TIP3    H113878   8.565   4.941   0.919
 4667TIP3    H213879   8.684   5.024   0.877
 4668TIP3   OH213880   8.722   3.822   2.029
 4668TIP3    H113881   8.627   3.804   2.024
 4668TIP3    H213882   8.750   3.758   2.097
 4669TIP3   OH213883   8.435   4.903   1.647
 4669TIP3    H113884   8.485   4.826   1.679
 4669TIP3    H213885   8.464   4.972   1.707
 4670TIP3   OH213886   8.637   4.545   0.668
 4670TIP3    H113887   8.728   4.512   0.670
 4670TIP3    H213888   8.651   4.640   0.648
 4671TIP3   OH213889   8.405   4.243   0.814
 4671TIP3    H113890   8.338   4.290   0.868
 4671TIP3    H213891   8.421   4.309   0.745
 4672TIP3   OH213892   8.614   4.815   0.624
 4672TIP3    H113893   8.671   4.878   0.573
 4672TIP3    H213894   8.624   4.854   0.714
 4673TIP3   OH213895   8.784   3.544   0.861
 4673TIP3    H113896   8.752   3.626   0.903
 4673TIP3    H213897   8.868   3.578   0.822
 4674TIP3   OH213898   8.379   4.475   0.617
 4674TIP3    H113899   8.454   4.528   0.652
 4674TIP3    H213900   8.430   4.404   0.573
 4675TIP3   OH213901   8.348   3.733   0.745
 4675TIP3    H113902   8.339   3.830   0.742
 4675TIP3    H213903   8.269   3.703   0.698
 4676TIP3   OH213904   8.727   3.448   1.616
 4676TIP3    H113905   8.694   3.416   1.530
 4676TIP3    H213906   8.717   3.369   1.673
 4677TIP3   OH213907   8.271   4.666   1.000
 4677TIP3    H113908   8.200   4.699   1.057
 4677TIP3    H213909   8.245   4.707   0.914
 4678TIP3   OH213910   8.426   5.209   2.069
 4678TIP3    H113911   8.512   5.209   2.116
 4678TIP3    H213912   8.406   5.114   2.067
 4679TIP3   OH213913   8.905   5.178   2.111
 4679TIP3    H113914   8.999   5.159   2.125
 4679TIP3    H213915   8.884   5.116   2.038
 4680TIP3   OH213916   8.556   4.618   2.268
 4680TIP3    H113917   8.570   4.523   2.281
 4680TIP3    H213918   8.468   4.619   2.223
 4681TIP3   OH213919   8.507   4.254   0.535
 4681TIP3    H113920   8.572   4.237   0.606
 4681TIP3    H213921   8.569   4.248   0.460
 4682TIP3   OH213922   9.153   4.693   2.043
 4682TIP3    H113923   9.118   4.722   1.956
 4682TIP3    H213924   9.161   4.597   2.033
 4683TIP3   OH213925   8.681   4.335   2.255
 4683TIP3    H113926   8.771   4.310   2.232
 4683TIP3    H213927   8.694   4.370   2.346
 4684TIP3   OH213928   8.740   4.162   0.690
 4684TIP3    H113929   8.713   4.121   0.775
 4684TIP3    H213930   8.769   4.085   0.638
 4685TIP3   OH213931   8.992   4.234   1.932
 4685TIP3    H113932   8.910   4.289   1.932
 4685TIP3    H213933   9.034   4.269   1.849
 4686TIP3   OH213934   8.847   3.947   0.531
 4686TIP3    H113935   8.813   3.955   0.440
 4686TIP3    H213936   8.937   3.981   0.521
 4687TIP3   OH213937   9.097   4.020   2.065
 4687TIP3    H113938   9.123   3.940   2.014
 4687TIP3    H213939   9.051   4.074   1.998
 4688TIP3   OH213940   9.121   3.831   1.861
 4688TIP3    H113941   9.162   3.821   1.774
 4688TIP3    H213942   9.035   3.785   1.847
 4689TIP3   OH213943   9.113   4.353   1.732
 4689TIP3    H113944   9.166   4.322   1.658
 4689TIP3    H213945   9.064   4.427   1.691
 4690TIP3   OH213946   8.973   4.139   2.272
 4690TIP3    H113947   8.912   4.074   2.236
 4690TIP3    H213948   9.041   4.135   2.202
 4691TIP3   OH213949   8.122   4.399   0.663
 4691TIP3    H113950   8.211   4.436   0.647
 4691TIP3    H213951   8.124   4.318   0.609
 4692TIP3   OH213952   8.043   5.022   1.060
 4692TIP3    H113953   7.977   4.959   1.023
 4692TIP3    H213954   8.088   4.964   1.124
 4693TIP3   OH213955   8.181   4.873   1.245
 4693TIP3    H113956   8.167   4.799   1.307
 4693TIP3    H213957   8.231   4.934   1.302
 4694TIP3   OH213958   8.367   4.292   1.602
 4694TIP3    H113959   8.366   4.254   1.512
 4694TIP3    H213960   8.463   4.286   1.623
 4695TIP3   OH213961   8.545   3.655   1.616
 4695TIP3    H113962   8.609   3.583   1.630
 4695TIP3    H213963   8.604   3.733   1.618
 4696TIP3   OH213964   8.347   3.926   1.687
 4696TIP3    H113965   8.402   3.939   1.608
 4696TIP3    H213966   8.370   4.002   1.743
 4697TIP3   OH213967   8.333   3.433   1.196
 4697TIP3    H113968   8.239   3.432   1.225
 4697TIP3    H213969   8.329   3.492   1.118
 4698TIP3   OH213970   8.551   3.526   2.015
 4698TIP3    H113971   8.498   3.510   2.095
 4698TIP3    H213972   8.484   3.568   1.957
 4699TIP3   OH213973   8.593   4.941   2.088
 4699TIP3    H113974   8.500   4.914   2.071
 4699TIP3    H213975   8.601   4.926   2.183
 4700TIP3   OH213976   8.769   4.978   1.637
 4700TIP3    H113977   8.721   5.053   1.597
 4700TIP3    H213978   8.854   4.990   1.590
 4701TIP3   OH213979   9.229   5.225   1.766
 4701TIP3    H113980   9.251   5.218   1.863
 4701TIP3    H213981   9.306   5.272   1.734
 4702TIP3   OH213982   8.448   5.232   1.660
 4702TIP3    H113983   8.359   5.264   1.635
 4702TIP3    H213984   8.456   5.271   1.748
 4703TIP3   OH213985   8.684   5.212   1.518
 4703TIP3    H113986   8.597   5.224   1.563
 4703TIP3    H213987   8.663   5.244   1.428
 4704TIP3   OH213988   9.095   5.240   1.313
 4704TIP3    H113989   9.024   5.257   1.247
 4704TIP3    H213990   9.106   5.329   1.352
 4705TIP3   OH213991   9.360   5.204   1.351
 4705TIP3    H113992   9.264   5.199   1.338
 4705TIP3    H213993   9.380   5.294   1.320
 4706TIP3   OH213994   8.358   5.027   1.405
 4706TIP3    H113995   8.384   5.000   1.495
 4706TIP3    H213996   8.429   4.983   1.353
 4707TIP3   OH213997   8.550   4.898   1.261
 4707TIP3    H113998   8.565   4.814   1.311
 4707TIP3    H213999   8.640   4.935   1.257
 4708TIP3   OH214000   8.813   4.997   1.263
 4708TIP3    H114001   8.837   4.903   1.254
 4708TIP3    H214002   8.859   5.018   1.346
 4709TIP3   OH214003   8.635   3.364   1.362
 4709TIP3    H114004   8.542   3.335   1.363
 4709TIP3    H214005   8.679   3.276   1.367
 4710TIP3   OH214006   8.435   3.226   1.014
 4710TIP3    H114007   8.457   3.287   0.941
 4710TIP3    H214008   8.399   3.288   1.081
 4711TIP3   OH214009   8.146   4.797   0.804
 4711TIP3    H114010   8.060   4.765   0.770
 4711TIP3    H214011   8.140   4.890   0.775
 4712TIP3   OH214012   8.540   3.386   0.789
 4712TIP3    H114013   8.579   3.324   0.724
 4712TIP3    H214014   8.619   3.434   0.822
 4713TIP3   OH214015   8.795   3.653   2.276
 4713TIP3    H114016   8.783   3.564   2.315
 4713TIP3    H214017   8.894   3.658   2.283
 4714TIP3   OH214018   9.049   3.626   2.357
 4714TIP3    H114019   9.145   3.644   2.352
 4714TIP3    H214020   9.048   3.567   2.435
 4715TIP3   OH214021   8.233   4.817   0.503
 4715TIP3    H114022   8.236   4.881   0.575
 4715TIP3    H214023   8.326   4.811   0.475
 4716TIP3   OH214024  -0.009   4.893   3.136
 4716TIP3    H114025  -0.048   4.981   3.140
 4716TIP3    H214026  -0.083   4.841   3.099
 4717TIP3   OH214027  -0.011   4.891   3.522
 4717TIP3    H114028   0.022   4.866   3.610
 4717TIP3    H214029  -0.051   4.807   3.493
 4718TIP3   OH214030   0.202   5.205   3.222
 4718TIP3    H114031   0.224   5.127   3.277
 4718TIP3    H214032   0.258   5.273   3.263
 4719TIP3   OH214033  -0.138   5.640   3.222
 4719TIP3    H114034  -0.055   5.605   3.183
 4719TIP3    H214035  -0.115   5.671   3.311
 4720TIP3   OH214036  -0.209   5.088   3.523
 4720TIP3    H114037  -0.138   5.021   3.514
 4720TIP3    H214038  -0.168   5.151   3.583
 4721TIP3   OH214039   0.796   4.442   3.565
 4721TIP3    H114040   0.829   4.523   3.609
 4721TIP3    H214041   0.826   4.456   3.474
 4722TIP3   OH214042   0.199   4.625   3.603
 4722TIP3    H114043   0.243   4.540   3.623
 4722TIP3    H214044   0.169   4.608   3.511
 4723TIP3   OH214045  -0.426   4.280   3.571
 4723TIP3    H114046  -0.467   4.357   3.528
 4723TIP3    H214047  -0.468   4.208   3.519
 4724TIP3   OH214048   0.229   4.374   3.189
 4724TIP3    H114049   0.301   4.359   3.256
 4724TIP3    H214050   0.283   4.408   3.115
 4725TIP3   OH214051  -0.386   4.693   3.480
 4725TIP3    H114052  -0.294   4.660   3.485
 4725TIP3    H214053  -0.432   4.616   3.440
 4726TIP3   OH214054   0.873   4.647   3.739
 4726TIP3    H114055   0.788   4.694   3.722
 4726TIP3    H214056   0.900   4.687   3.823
 4727TIP3   OH214057   0.435   4.380   3.363
 4727TIP3    H114058   0.447   4.316   3.434
 4727TIP3    H214059   0.498   4.451   3.388
 4728TIP3   OH214060   0.294   5.439   3.371
 4728TIP3    H114061   0.204   5.436   3.408
 4728TIP3    H214062   0.295   5.528   3.328
 4729TIP3   OH214063   0.593   4.346   3.735
 4729TIP3    H114064   0.505   4.372   3.702
 4729TIP3    H214065   0.652   4.375   3.662
 4730TIP3   OH214066  -0.111   3.981   3.713
 4730TIP3    H114067  -0.115   3.885   3.733
 4730TIP3    H214068  -0.183   4.013   3.770
 4731TIP3   OH214069   0.023   5.470   3.080
 4731TIP3    H114070   0.056   5.392   3.028
 4731TIP3    H214071   0.065   5.540   3.025
 4732TIP3   OH214072   0.121   5.252   2.955
 4732TIP3    H114073   0.137   5.183   2.888
 4732TIP3    H214074   0.170   5.219   3.032
 4733TIP3   OH214075   0.527   5.355   3.716
 4733TIP3    H114076   0.519   5.277   3.656
 4733TIP3    H214077   0.513   5.430   3.655
 4734TIP3   OH214078  -0.177   4.751   2.971
 4734TIP3    H114079  -0.259   4.797   2.944
 4734TIP3    H214080  -0.131   4.741   2.885
 4735TIP3   OH214081  -0.220   4.532   2.697
 4735TIP3    H114082  -0.149   4.584   2.739
 4735TIP3    H214083  -0.166   4.471   2.643
 4736TIP3   OH214084   0.723   4.989   3.559
 4736TIP3    H114085   0.641   5.044   3.564
 4736TIP3    H214086   0.753   5.012   3.469
 4737TIP3   OH214087   0.170   4.830   2.941
 4737TIP3    H114088   0.115   4.850   3.020
 4737TIP3    H214089   0.253   4.799   2.984
 4738TIP3   OH214090   0.401   4.871   3.855
 4738TIP3    H114091   0.399   4.954   3.906
 4738TIP3    H214092   0.315   4.876   3.809
 4739TIP3   OH214093  -0.461   4.784   3.725
 4739TIP3    H114094  -0.426   4.754   3.638
 4739TIP3    H214095  -0.410   4.864   3.742
 4740TIP3   OH214096   0.028   5.427   3.466
 4740TIP3    H114097   0.034   5.509   3.519
 4740TIP3    H214098   0.037   5.359   3.538
 4741TIP3   OH214099   0.007   4.690   2.770
 4741TIP3    H114100   0.069   4.746   2.820
 4741TIP3    H214101   0.032   4.713   2.677
 4742TIP3   OH214102   0.519   3.932   2.815
 4742TIP3    H114103   0.440   3.952   2.870
 4742TIP3    H214104   0.532   4.016   2.767
 4743TIP3   OH214105   0.323   5.298   2.368
 4743TIP3    H114106   0.331   5.394   2.350
 4743TIP3    H214107   0.415   5.268   2.354
 4744TIP3   OH214108   0.766   5.697   3.759
 4744TIP3    H114109   0.765   5.601   3.776
 4744TIP3    H214110   0.683   5.724   3.806
 4745TIP3   OH214111  -0.108   5.467   3.905
 4745TIP3    H114112  -0.105   5.562   3.934
 4745TIP3    H214113  -0.203   5.455   3.894
 4746TIP3   OH214114  -0.334   5.614   2.859
 4746TIP3    H114115  -0.377   5.579   2.779
 4746TIP3    H214116  -0.395   5.684   2.886
 4747TIP3   OH214117  -0.166   5.515   2.488
 4747TIP3    H114118  -0.110   5.445   2.448
 4747TIP3    H214119  -0.124   5.525   2.576
 4748TIP3   OH214120  -0.095   5.558   2.749
 4748TIP3    H114121  -0.179   5.569   2.800
 4748TIP3    H214122  -0.037   5.521   2.816
 4749TIP3   OH214123   0.660   4.821   4.046
 4749TIP3    H114124   0.582   4.849   3.995
 4749TIP3    H214125   0.669   4.728   4.015
 4750TIP3   OH214126  -0.357   4.063   3.846
 4750TIP3    H114127  -0.428   4.021   3.795
 4750TIP3    H214128  -0.362   4.155   3.815
 4751TIP3   OH214129   0.185   4.178   4.039
 4751TIP3    H114130   0.255   4.148   4.101
 4751TIP3    H214131   0.103   4.154   4.086
 4752TIP3   OH214132   0.426   4.607   3.958
 4752TIP3    H114133   0.376   4.602   4.043
 4752TIP3    H214134   0.400   4.693   3.923
 4753TIP3   OH214135   0.085   4.740   2.515
 4753TIP3    H114136   0.051   4.708   2.429
 4753TIP3    H214137   0.168   4.783   2.488
 4754TIP3   OH214138  -0.197   4.112   2.807
 4754TIP3    H114139  -0.224   4.112   2.901
 4754TIP3    H214140  -0.255   4.042   2.775
 4755TIP3   OH214141  -0.423   4.562   3.875
 4755TIP3    H114142  -0.476   4.589   3.951
 4755TIP3    H214143  -0.438   4.638   3.814
 4756TIP3   OH214144  -0.537   4.457   3.381
 4756TIP3    H114145  -0.633   4.465   3.372
 4756TIP3    H214146  -0.515   4.411   3.297
 4757TIP3   OH214147  -0.041   4.551   3.105
 4757TIP3    H114148  -0.094   4.620   3.060
 4757TIP3    H214149   0.014   4.517   3.031
 4758TIP3   OH214150   0.134   4.827   4.191
 4758TIP3    H114151   0.110   4.754   4.253
 4758TIP3    H214152   0.228   4.840   4.215
 4759TIP3   OH214153   0.115   4.577   3.343
 4759TIP3    H114154   0.055   4.601   3.270
 4759TIP3    H214155   0.151   4.495   3.303
 4760TIP3   OH214156  -0.487   4.087   2.812
 4760TIP3    H114157  -0.509   4.062   2.904
 4760TIP3    H214158  -0.576   4.099   2.774
 4761TIP3   OH214159   0.119   4.825   3.764
 4761TIP3    H114160   0.155   4.753   3.707
 4761TIP3    H214161   0.097   4.772   3.844
 4762TIP3   OH214162  -0.188   4.294   3.433
 4762TIP3    H114163  -0.269   4.291   3.488
 4762TIP3    H214164  -0.119   4.278   3.499
 4763TIP3   OH214165  -0.498   4.335   3.133
 4763TIP3    H114166  -0.402   4.349   3.121
 4763TIP3    H214167  -0.536   4.368   3.050
 4764TIP3   OH214168   0.286   4.364   3.646
 4764TIP3    H114169   0.246   4.372   3.735
 4764TIP3    H214170   0.227   4.300   3.604
 4765TIP3   OH214171  -0.676   4.392   2.910
 4765TIP3    H114172  -0.703   4.307   2.870
 4765TIP3    H214173  -0.609   4.421   2.844
 4766TIP3   OH214174   0.456   6.049   3.859
 4766TIP3    H114175   0.455   6.075   3.765
 4766TIP3    H214176   0.535   6.098   3.891
 4767TIP3   OH214177  -0.119   4.615   3.535
 4767TIP3    H114178  -0.051   4.570   3.482
 4767TIP3    H214179  -0.111   4.570   3.621
 4768TIP3   OH214180  -0.561   4.104   3.413
 4768TIP3    H114181  -0.630   4.036   3.429
 4768TIP3    H214182  -0.521   4.068   3.333
 4769TIP3   OH214183  -0.146   4.507   3.828
 4769TIP3    H114184  -0.236   4.543   3.843
 4769TIP3    H214185  -0.088   4.568   3.877
 4770TIP3   OH214186  -0.402   4.897   2.913
 4770TIP3    H114187  -0.480   4.836   2.908
 4770TIP3    H214188  -0.414   4.939   3.001
 4771TIP3   OH214189   0.491   5.138   3.549
 4771TIP3    H114190   0.518   5.186   3.468
 4771TIP3    H214191   0.407   5.097   3.523
 4772TIP3   OH214192   0.054   4.213   2.784
 4772TIP3    H114193  -0.043   4.195   2.789
 4772TIP3    H214194   0.061   4.308   2.804
 4773TIP3   OH214195  -0.014   5.209   3.919
 4773TIP3    H114196   0.015   5.199   4.011
 4773TIP3    H214197  -0.049   5.300   3.920
 4774TIP3   OH214198   0.118   4.461   2.889
 4774TIP3    H114199   0.215   4.464   2.902
 4774TIP3    H214200   0.102   4.537   2.830
 4775TIP3   OH214201  -0.261   5.042   2.728
 4775TIP3    H114202  -0.298   5.131   2.748
 4775TIP3    H214203  -0.309   4.988   2.794
 4776TIP3   OH214204  -0.101   4.963   4.237
 4776TIP3    H114205  -0.159   4.894   4.200
 4776TIP3    H214206  -0.013   4.931   4.207
 4777TIP3   OH214207   0.154   5.480   3.809
 4777TIP3    H114208   0.059   5.472   3.829
 4777TIP3    H214209   0.184   5.530   3.888
 4778TIP3   OH214210   0.561   4.549   2.722
 4778TIP3    H114211   0.498   4.504   2.662
 4778TIP3    H214212   0.558   4.638   2.680
 4779TIP3   OH214213   0.778   5.407   3.805
 4779TIP3    H114214   0.680   5.402   3.796
 4779TIP3    H214215   0.804   5.378   3.714
 4780TIP3   OH214216   0.261   5.366   2.631
 4780TIP3    H114217   0.238   5.287   2.680
 4780TIP3    H214218   0.275   5.331   2.541
 4781TIP3   OH214219   0.256   5.001   3.460
 4781TIP3    H114220   0.165   4.971   3.480
 4781TIP3    H214221   0.293   4.919   3.422
 4782TIP3   OH214222  -0.426   5.008   3.161
 4782TIP3    H114223  -0.494   5.074   3.174
 4782TIP3    H214224  -0.449   4.946   3.231
 4783TIP3   OH214225   0.050   5.210   3.646
 4783TIP3    H114226   0.030   5.208   3.743
 4783TIP3    H214227   0.128   5.154   3.643
 4784TIP3   OH214228   0.018   5.096   2.534
 4784TIP3    H114229   0.065   5.074   2.617
 4784TIP3    H214230  -0.072   5.068   2.556
 4785TIP3   OH214231   0.291   5.737   3.700
 4785TIP3    H114232   0.213   5.678   3.696
 4785TIP3    H214233   0.274   5.801   3.628
 4786TIP3   OH214234   0.355   5.573   2.352
 4786TIP3    H114235   0.395   5.646   2.301
 4786TIP3    H214236   0.275   5.619   2.385
 4787TIP3   OH214237   0.180   5.047   2.765
 4787TIP3    H114238   0.169   4.968   2.823
 4787TIP3    H214239   0.275   5.035   2.741
 4788TIP3   OH214240  -0.561   5.048   2.558
 4788TIP3    H114241  -0.549   4.963   2.511
 4788TIP3    H214242  -0.586   5.018   2.646
 4789TIP3   OH214243   0.205   4.418   3.905
 4789TIP3    H114244   0.291   4.450   3.937
 4789TIP3    H214245   0.194   4.335   3.955
 4790TIP3   OH214246   0.087   4.168   3.064
 4790TIP3    H114247   0.079   4.189   2.969
 4790TIP3    H214248   0.132   4.248   3.100
 4791TIP3   OH214249  -0.395   5.277   2.769
 4791TIP3    H114250  -0.489   5.293   2.778
 4791TIP3    H214251  -0.377   5.318   2.683
 4792TIP3   OH214252  -0.221   4.349   3.166
 4792TIP3    H114253  -0.153   4.417   3.147
 4792TIP3    H214254  -0.209   4.337   3.263
 4793TIP3   OH214255   0.047   4.665   3.974
 4793TIP3    H114256   0.072   4.715   4.054
 4793TIP3    H214257   0.102   4.585   3.981
 4794TIP3   OH214258  -0.068   4.071   3.273
 4794TIP3    H114259  -0.072   4.147   3.334
 4794TIP3    H214260  -0.008   4.107   3.203
 4795TIP3   OH214261  -0.528   4.057   3.083
 4795TIP3    H114262  -0.539   4.149   3.111
 4795TIP3    H214263  -0.431   4.048   3.082
 4796TIP3   OH214264   0.692   4.560   3.956
 4796TIP3    H114265   0.593   4.557   3.961
 4796TIP3    H214266   0.704   4.519   3.869
 4797TIP3   OH214267   0.340   4.759   3.344
 4797TIP3    H114268   0.267   4.695   3.354
 4797TIP3    H214269   0.414   4.712   3.390
 4798TIP3   OH214270   0.309   5.705   3.289
 4798TIP3    H114271   0.270   5.757   3.214
 4798TIP3    H214272   0.404   5.727   3.273
 4799TIP3   OH214273  -0.413   5.268   2.474
 4799TIP3    H114274  -0.467   5.190   2.498
 4799TIP3    H214275  -0.365   5.235   2.396
 4800TIP3   OH214276   0.213   5.608   4.044
 4800TIP3    H114277   0.204   5.538   4.112
 4800TIP3    H214278   0.287   5.661   4.079
 4801TIP3   OH214279  -0.017   5.323   2.358
 4801TIP3    H114280   0.028   5.259   2.415
 4801TIP3    H214281   0.039   5.324   2.278
 4802TIP3   OH214282  -0.160   5.238   4.237
 4802TIP3    H114283  -0.229   5.223   4.172
 4802TIP3    H214284  -0.128   5.146   4.251
 4803TIP3   OH214285  -0.282   4.987   2.463
 4803TIP3    H114286  -0.289   5.007   2.559
 4803TIP3    H214287  -0.287   4.889   2.464
 4804TIP3   OH214288   0.312   5.240   3.849
 4804TIP3    H114289   0.388   5.285   3.808
 4804TIP3    H214290   0.243   5.307   3.839
 4805TIP3   OH214291  -0.597   4.703   2.893
 4805TIP3    H114292  -0.629   4.648   2.966
 4805TIP3    H214293  -0.559   4.636   2.833
 4806TIP3   OH214294  -0.259   4.774   4.108
 4806TIP3    H114295  -0.351   4.808   4.108
 4806TIP3    H214296  -0.231   4.800   4.017
 4807TIP3   OH214297  -0.493   4.497   2.743
 4807TIP3    H114298  -0.523   4.498   2.649
 4807TIP3    H214299  -0.395   4.501   2.731
 4808TIP3   OH214300   0.182   5.161   4.249
 4808TIP3    H114301   0.266   5.143   4.205
 4808TIP3    H214302   0.183   5.098   4.323
 4809TIP3   OH214303   0.319   4.827   2.391
 4809TIP3    H114304   0.300   4.780   2.308
 4809TIP3    H214305   0.288   4.917   2.366
 4810TIP3   OH214306  -0.197   4.539   4.253
 4810TIP3    H114307  -0.209   4.463   4.194
 4810TIP3    H214308  -0.229   4.614   4.199
 4811TIP3   OH214309  -0.215   4.335   4.043
 4811TIP3    H114310  -0.178   4.379   3.964
 4811TIP3    H214311  -0.310   4.336   4.024
 4812TIP3   OH214312  -0.183   4.894   3.873
 4812TIP3    H114313  -0.091   4.874   3.848
 4812TIP3    H214314  -0.185   4.990   3.867
 4813TIP3   OH214315   0.399   4.846   4.303
 4813TIP3    H114316   0.444   4.760   4.313
 4813TIP3    H214317   0.470   4.903   4.270
 4814TIP3   OH214318   0.444   5.095   4.036
 4814TIP3    H114319   0.385   5.149   3.979
 4814TIP3    H214320   0.531   5.118   3.996
 4815TIP3   OH214321  -0.074   4.105   4.114
 4815TIP3    H114322  -0.126   4.185   4.092
 4815TIP3    H214323  -0.143   4.035   4.109
 4816TIP3   OH214324   0.054   4.612   4.335
 4816TIP3    H114325   0.041   4.601   4.431
 4816TIP3    H214326  -0.034   4.581   4.305
 4817TIP3   OH214327   0.291   4.562   4.188
 4817TIP3    H114328   0.215   4.560   4.249
 4817TIP3    H214329   0.363   4.526   4.244
 4818TIP3   OH214330   0.524   4.500   4.334
 4818TIP3    H114331   0.532   4.404   4.354
 4818TIP3    H214332   0.518   4.540   4.423
 4819TIP3   OH214333   0.021   4.118   4.372
 4819TIP3    H114334   0.088   4.046   4.371
 4819TIP3    H214335  -0.018   4.107   4.283
 4820TIP3   OH214336   0.087   4.331   4.529
 4820TIP3    H114337   0.065   4.258   4.467
 4820TIP3    H214338   0.009   4.390   4.521
 4821TIP3   OH214339   0.560   5.803   3.250
 4821TIP3    H114340   0.588   5.837   3.337
 4821TIP3    H214341   0.621   5.849   3.190
 4822TIP3   OH214342   0.592   5.823   3.531
 4822TIP3    H114343   0.552   5.733   3.528
 4822TIP3    H214344   0.668   5.805   3.588
 4823TIP3   OH214345   0.639   5.500   4.104
 4823TIP3    H114346   0.566   5.509   4.169
 4823TIP3    H214347   0.681   5.588   4.108
 4824TIP3   OH214348   0.454   5.015   2.724
 4824TIP3    H114349   0.524   5.077   2.694
 4824TIP3    H214350   0.498   4.974   2.802
 4825TIP3   OH214351   0.580   4.884   2.928
 4825TIP3    H114352   0.519   4.838   2.989
 4825TIP3    H214353   0.649   4.917   2.989
 4826TIP3   OH214354   0.629   5.270   3.352
 4826TIP3    H114355   0.690   5.207   3.309
 4826TIP3    H214356   0.634   5.348   3.293
 4827TIP3   OH214357   0.468   5.572   3.555
 4827TIP3    H114358   0.400   5.616   3.608
 4827TIP3    H214359   0.416   5.524   3.487
 4828TIP3   OH214360   0.521   4.790   2.575
 4828TIP3    H114361   0.449   4.792   2.508
 4828TIP3    H214362   0.494   4.866   2.630
 4829TIP3   OH214363   0.389   4.463   2.530
 4829TIP3    H114364   0.350   4.498   2.449
 4829TIP3    H214365   0.366   4.368   2.523
 4830TIP3   OH214366   0.396   4.735   3.073
 4830TIP3    H114367   0.406   4.639   3.067
 4830TIP3    H214368   0.384   4.749   3.170
 4831TIP3   OH214369   0.685   5.162   3.929
 4831TIP3    H114370   0.758   5.097   3.921
 4831TIP3    H214371   0.715   5.233   3.870
 4832TIP3   OH214372   0.868   4.969   3.953
 4832TIP3    H114373   0.798   4.914   3.992
 4832TIP3    H214374   0.945   4.908   3.961
 4833TIP3   OH214375   0.336   4.197   2.512
 4833TIP3    H114376   0.414   4.167   2.564
 4833TIP3    H214377   0.265   4.136   2.540
 4834TIP3   OH214378   0.393   4.453   2.968
 4834TIP3    H114379   0.433   4.365   2.985
 4834TIP3    H214380   0.453   4.484   2.898
 4835TIP3   OH214381   0.554   4.634   3.463
 4835TIP3    H114382   0.641   4.658   3.423
 4835TIP3    H214383   0.570   4.665   3.555
 4836TIP3   OH214384   0.625   4.773   3.701
 4836TIP3    H114385   0.545   4.807   3.746
 4836TIP3    H214386   0.656   4.852   3.652
 4837TIP3   OH214387   1.054   4.365   4.273
 4837TIP3    H114388   1.122   4.298   4.247
 4837TIP3    H214389   1.058   4.422   4.194
 4838TIP3   OH214390   0.499   4.204   3.008
 4838TIP3    H114391   0.550   4.188   3.090
 4838TIP3    H214392   0.442   4.124   3.007
 4839TIP3   OH214393   0.932   4.508   4.072
 4839TIP3    H114394   0.841   4.535   4.047
 4839TIP3    H214395   0.942   4.433   4.010
 4840TIP3   OH214396   0.580   4.142   2.633
 4840TIP3    H114397   0.629   4.065   2.598
 4840TIP3    H214398   0.651   4.210   2.634
 4841TIP3   OH214399   0.142   5.653   2.918
 4841TIP3    H114400   0.190   5.646   2.833
 4841TIP3    H214401   0.189   5.728   2.960
 4842TIP3   OH214402  -0.095   5.726   3.983
 4842TIP3    H114403  -0.078   5.755   4.074
 4842TIP3    H214404  -0.050   5.795   3.931
 4843TIP3   OH214405   0.052   5.908   3.832
 4843TIP3    H114406   0.124   5.851   3.799
 4843TIP3    H214407   0.102   5.963   3.896
 4844TIP3   OH214408   0.842   4.259   3.939
 4844TIP3    H114409   0.753   4.248   3.901
 4844TIP3    H214410   0.879   4.168   3.926
 4845TIP3   OH214411  -0.226   5.794   3.484
 4845TIP3    H114412  -0.322   5.806   3.476
 4845TIP3    H214413  -0.204   5.874   3.537
 4846TIP3   OH214414   0.035   5.703   3.546
 4846TIP3    H114415  -0.057   5.733   3.540
 4846TIP3    H214416   0.084   5.785   3.528
 4847TIP3   OH214417   0.234   5.898   3.484
 4847TIP3    H114418   0.226   5.986   3.442
 4847TIP3    H214419   0.267   5.844   3.409
 4848TIP3   OH214420   0.046   4.177   3.550
 4848TIP3    H114421   0.008   4.105   3.604
 4848TIP3    H214422   0.122   4.133   3.508
 4849TIP3   OH214423   0.570   4.070   3.467
 4849TIP3    H114424   0.610   4.114   3.388
 4849TIP3    H214425   0.475   4.079   3.450
 4850TIP3   OH214426   0.661   4.171   3.229
 4850TIP3    H114427   0.730   4.111   3.191
 4850TIP3    H214428   0.702   4.258   3.210
 4851TIP3   OH214429  -0.253   3.928   3.451
 4851TIP3    H114430  -0.193   3.975   3.391
 4851TIP3    H214431  -0.220   3.955   3.538
 4852TIP3   OH214432   0.284   4.067   3.435
 4852TIP3    H114433   0.294   4.026   3.348
 4852TIP3    H214434   0.274   3.987   3.492
 4853TIP3   OH214435   0.318   3.989   2.998
 4853TIP3    H114436   0.230   4.029   3.009
 4853TIP3    H214437   0.307   3.904   3.046
 4854TIP3   OH214438  -0.261   4.096   3.077
 4854TIP3    H114439  -0.204   4.053   3.143
 4854TIP3    H214440  -0.246   4.189   3.101
 4855TIP3   OH214441  -0.419   5.524   2.608
 4855TIP3    H114442  -0.331   5.529   2.564
 4855TIP3    H214443  -0.469   5.481   2.534
 4856TIP3   OH214444   0.286   5.635   2.679
 4856TIP3    H114445   0.280   5.538   2.661
 4856TIP3    H214446   0.245   5.671   2.598
 4857TIP3   OH214447  -0.246   4.145   4.572
 4857TIP3    H114448  -0.162   4.128   4.527
 4857TIP3    H214449  -0.239   4.083   4.647
 4858TIP3   OH214450   0.578   4.230   4.371
 4858TIP3    H114451   0.596   4.193   4.460
 4858TIP3    H214452   0.664   4.216   4.326
 4859TIP3   OH214453   0.520   5.781   3.861
 4859TIP3    H114454   0.440   5.750   3.814
 4859TIP3    H214455   0.502   5.877   3.865
 4860TIP3   OH214456   1.787   5.155   2.629
 4860TIP3    H114457   1.756   5.245   2.605
 4860TIP3    H214458   1.711   5.103   2.596
 4861TIP3   OH214459   1.793   5.148   3.002
 4861TIP3    H114460   1.795   5.124   3.096
 4861TIP3    H214461   1.744   5.074   2.964
 4862TIP3   OH214462   1.082   5.047   3.376
 4862TIP3    H114463   1.113   4.979   3.439
 4862TIP3    H214464   1.160   5.105   3.373
 4863TIP3   OH214465   2.032   5.456   2.687
 4863TIP3    H114466   2.003   5.393   2.753
 4863TIP3    H214467   2.057   5.534   2.740
 4864TIP3   OH214468   1.054   5.457   3.098
 4864TIP3    H114469   1.045   5.359   3.100
 4864TIP3    H214470   1.151   5.466   3.096
 4865TIP3   OH214471   0.763   4.666   2.883
 4865TIP3    H114472   0.711   4.746   2.895
 4865TIP3    H214473   0.695   4.605   2.850
 4866TIP3   OH214474   0.819   4.948   3.056
 4866TIP3    H114475   0.868   4.871   3.093
 4866TIP3    H214476   0.881   4.977   2.987
 4867TIP3   OH214477   1.676   5.917   2.705
 4867TIP3    H114478   1.723   5.845   2.658
 4867TIP3    H214479   1.669   5.882   2.794
 4868TIP3   OH214480   1.582   5.380   3.055
 4868TIP3    H114481   1.618   5.307   3.003
 4868TIP3    H214482   1.667   5.422   3.082
 4869TIP3   OH214483   2.582   4.709   3.047
 4869TIP3    H114484   2.627   4.779   3.099
 4869TIP3    H214485   2.627   4.716   2.961
 4870TIP3   OH214486   2.034   4.888   3.084
 4870TIP3    H114487   2.056   4.795   3.107
 4870TIP3    H214488   1.980   4.872   3.003
 4871TIP3   OH214489   1.333   4.538   3.053
 4871TIP3    H114490   1.308   4.608   2.989
 4871TIP3    H214491   1.285   4.461   3.015
 4872TIP3   OH214492   2.024   4.631   2.675
 4872TIP3    H114493   2.095   4.615   2.742
 4872TIP3    H214494   2.077   4.665   2.601
 4873TIP3   OH214495   0.967   4.742   3.161
 4873TIP3    H114496   1.050   4.720   3.209
 4873TIP3    H214497   0.978   4.684   3.083
 4874TIP3   OH214498   1.409   4.940   2.952
 4874TIP3    H114499   1.501   4.912   2.969
 4874TIP3    H214500   1.367   4.856   2.923
 4875TIP3   OH214501   2.674   4.904   3.227
 4875TIP3    H114502   2.625   4.985   3.206
 4875TIP3    H214503   2.701   4.922   3.319
 4876TIP3   OH214504   1.330   4.522   3.488
 4876TIP3    H114505   1.269   4.558   3.422
 4876TIP3    H214506   1.281   4.540   3.570
 4877TIP3   OH214507   1.678   5.374   2.498
 4877TIP3    H114508   1.635   5.353   2.414
 4877TIP3    H214509   1.634   5.458   2.521
 4878TIP3   OH214510   1.435   5.299   3.284
 4878TIP3    H114511   1.371   5.364   3.323
 4878TIP3    H214512   1.476   5.353   3.214
 4879TIP3   OH214513   2.233   4.633   2.846
 4879TIP3    H114514   2.235   4.566   2.916
 4879TIP3    H214515   2.305   4.692   2.871
 4880TIP3   OH214516   1.200   4.637   3.272
 4880TIP3    H114517   1.262   4.710   3.296
 4880TIP3    H214518   1.251   4.595   3.199
 4881TIP3   OH214519   1.263   5.492   3.380
 4881TIP3    H114520   1.237   5.579   3.344
 4881TIP3    H214521   1.185   5.475   3.438
 4882TIP3   OH214522   0.658   5.182   2.618
 4882TIP3    H114523   0.619   5.208   2.533
 4882TIP3    H214524   0.689   5.268   2.654
 4883TIP3   OH214525   2.097   5.694   2.856
 4883TIP3    H114526   2.008   5.690   2.897
 4883TIP3    H214527   2.092   5.782   2.812
 4884TIP3   OH214528   2.381   4.613   3.221
 4884TIP3    H114529   2.292   4.619   3.183
 4884TIP3    H214530   2.440   4.632   3.146
 4885TIP3   OH214531   1.688   4.245   3.202
 4885TIP3    H114532   1.680   4.149   3.223
 4885TIP3    H214533   1.608   4.278   3.248
 4886TIP3   OH214534   1.802   5.744   2.534
 4886TIP3    H114535   1.851   5.662   2.510
 4886TIP3    H214536   1.860   5.811   2.491
 4887TIP3   OH214537   1.942   5.529   2.436
 4887TIP3    H114538   1.905   5.449   2.397
 4887TIP3    H214539   1.980   5.495   2.520
 4888TIP3   OH214540   2.325   5.612   3.201
 4888TIP3    H114541   2.316   5.535   3.142
 4888TIP3    H214542   2.307   5.687   3.141
 4889TIP3   OH214543   1.617   5.005   2.459
 4889TIP3    H114544   1.535   5.055   2.438
 4889TIP3    H214545   1.661   5.003   2.372
 4890TIP3   OH214546   1.575   4.789   2.175
 4890TIP3    H114547   1.643   4.839   2.224
 4890TIP3    H214548   1.632   4.726   2.126
 4891TIP3   OH214549   2.526   5.236   3.046
 4891TIP3    H114550   2.444   5.288   3.057
 4891TIP3    H214551   2.553   5.264   2.956
 4892TIP3   OH214552   1.962   5.087   2.430
 4892TIP3    H114553   1.908   5.112   2.508
 4892TIP3    H214554   2.046   5.061   2.474
 4893TIP3   OH214555   1.196   5.085   2.846
 4893TIP3    H114556   1.154   5.027   2.779
 4893TIP3    H214557   1.272   5.031   2.875
 4894TIP3   OH214558   1.325   5.498   2.994
 4894TIP3    H114559   1.304   5.453   2.911
 4894TIP3    H214560   1.415   5.464   3.014
 4895TIP3   OH214561   1.331   5.056   3.200
 4895TIP3    H114562   1.366   5.037   3.111
 4895TIP3    H214563   1.375   5.141   3.223
 4896TIP3   OH214564   1.859   5.692   2.980
 4896TIP3    H114565   1.843   5.774   3.030
 4896TIP3    H214566   1.841   5.622   3.045
 4897TIP3   OH214567   1.469   5.614   3.521
 4897TIP3    H114568   1.411   5.676   3.570
 4897TIP3    H214569   1.402   5.560   3.475
 4898TIP3   OH214570   1.806   4.942   2.257
 4898TIP3    H114571   1.864   5.002   2.308
 4898TIP3    H214572   1.831   4.967   2.164
 4899TIP3   OH214573   1.223   5.175   3.620
 4899TIP3    H114574   1.228   5.259   3.670
 4899TIP3    H214575   1.129   5.152   3.635
 4900TIP3   OH214576   1.548   5.624   2.531
 4900TIP3    H114577   1.626   5.680   2.549
 4900TIP3    H214578   1.486   5.687   2.493
 4901TIP3   OH214579   1.264   5.782   3.612
 4901TIP3    H114580   1.228   5.779   3.521
 4901TIP3    H214581   1.185   5.760   3.666
 4902TIP3   OH214582   2.318   4.186   2.302
 4902TIP3    H114583   2.239   4.207   2.358
 4902TIP3    H214584   2.332   4.270   2.255
 4903TIP3   OH214585   1.063   4.928   2.651
 4903TIP3    H114586   0.995   4.971   2.595
 4903TIP3    H214587   1.023   4.841   2.666
 4904TIP3   OH214588   2.118   5.553   1.853
 4904TIP3    H114589   2.126   5.650   1.839
 4904TIP3    H214590   2.211   5.524   1.839
 4905TIP3   OH214591   0.842   5.311   3.559
 4905TIP3    H114592   0.782   5.284   3.488
 4905TIP3    H214593   0.882   5.226   3.588
 4906TIP3   OH214594   0.697   5.502   3.196
 4906TIP3    H114595   0.793   5.496   3.182
 4906TIP3    H214596   0.690   5.583   3.248
 4907TIP3   OH214597   2.562   5.955   3.246
 4907TIP3    H114598   2.561   5.859   3.262
 4907TIP3    H214599   2.479   5.981   3.292
 4908TIP3   OH214600   1.668   5.743   3.380
 4908TIP3    H114601   1.667   5.835   3.414
 4908TIP3    H214602   1.597   5.702   3.435
 4909TIP3   OH214603   1.428   5.871   2.334
 4909TIP3    H114604   1.382   5.852   2.250
 4909TIP3    H214605   1.396   5.960   2.357
 4910TIP3   OH214606   0.866   5.720   2.717
 4910TIP3    H114607   0.914   5.711   2.802
 4910TIP3    H214608   0.808   5.642   2.722
 4911TIP3   OH214609   1.630   5.772   1.974
 4911TIP3    H114610   1.688   5.701   1.938
 4911TIP3    H214611   1.664   5.780   2.065
 4912TIP3   OH214612   1.680   5.820   2.244
 4912TIP3    H114613   1.592   5.829   2.286
 4912TIP3    H214614   1.731   5.780   2.316
 4913TIP3   OH214615   2.459   5.094   3.527
 4913TIP3    H114616   2.367   5.120   3.522
 4913TIP3    H214617   2.456   4.998   3.504
 4914TIP3   OH214618   1.049   5.494   3.548
 4914TIP3    H114619   1.099   5.478   3.630
 4914TIP3    H214620   0.975   5.431   3.557
 4915TIP3   OH214621   1.444   4.319   3.328
 4915TIP3    H114622   1.357   4.283   3.298
 4915TIP3    H214623   1.413   4.396   3.380
 4916TIP3   OH214624   1.978   4.433   3.523
 4916TIP3    H114625   2.047   4.406   3.588
 4916TIP3    H214626   1.895   4.411   3.570
 4917TIP3   OH214627   1.880   4.991   2.000
 4917TIP3    H114628   1.847   4.966   1.911
 4917TIP3    H214629   1.961   5.040   1.976
 4918TIP3   OH214630   1.601   4.366   2.305
 4918TIP3    H114631   1.566   4.365   2.396
 4918TIP3    H214632   1.553   4.290   2.267
 4919TIP3   OH214633   1.380   4.831   3.348
 4919TIP3    H114634   1.335   4.853   3.433
 4919TIP3    H214635   1.363   4.914   3.297
 4920TIP3   OH214636   1.261   4.720   2.863
 4920TIP3    H114637   1.169   4.692   2.881
 4920TIP3    H214638   1.274   4.679   2.775
 4921TIP3   OH214639   1.754   4.807   2.593
 4921TIP3    H114640   1.700   4.877   2.551
 4921TIP3    H214641   1.808   4.775   2.518
 4922TIP3   OH214642   1.914   5.066   3.695
 4922TIP3    H114643   1.890   5.018   3.778
 4922TIP3    H214644   2.008   5.083   3.714
 4923TIP3   OH214645   1.918   4.838   2.831
 4923TIP3    H114646   1.853   4.865   2.764
 4923TIP3    H214647   1.946   4.753   2.791
 4924TIP3   OH214648   1.197   4.863   3.562
 4924TIP3    H114649   1.241   4.920   3.627
 4924TIP3    H214650   1.189   4.779   3.611
 4925TIP3   OH214651   1.253   4.341   2.269
 4925TIP3    H114652   1.241   4.337   2.366
 4925TIP3    H214653   1.171   4.389   2.243
 4926TIP3   OH214654   0.789   4.393   3.139
 4926TIP3    H114655   0.870   4.412   3.191
 4926TIP3    H214656   0.822   4.346   3.060
 4927TIP3   OH214657   0.763   4.364   2.654
 4927TIP3    H114658   0.809   4.404   2.578
 4927TIP3    H214659   0.704   4.438   2.679
 4928TIP3   OH214660   1.922   5.075   3.256
 4928TIP3    H114661   1.925   4.989   3.211
 4928TIP3    H214662   1.899   5.042   3.346
 4929TIP3   OH214663   1.592   4.551   2.927
 4929TIP3    H114664   1.508   4.542   2.978
 4929TIP3    H214665   1.658   4.532   2.996
 4930TIP3   OH214666   1.026   4.595   2.932
 4930TIP3    H114667   0.930   4.603   2.908
 4930TIP3    H214668   1.044   4.501   2.916
 4931TIP3   OH214669   1.295   4.593   2.622
 4931TIP3    H114670   1.388   4.610   2.600
 4931TIP3    H214671   1.247   4.616   2.539
 4932TIP3   OH214672   2.085   4.620   3.131
 4932TIP3    H114673   2.056   4.626   3.225
 4932TIP3    H214674   2.022   4.554   3.096
 4933TIP3   OH214675   1.135   4.629   2.402
 4933TIP3    H114676   1.063   4.582   2.356
 4933TIP3    H214677   1.186   4.662   2.325
 4934TIP3   OH214678   2.252   6.306   3.346
 4934TIP3    H114679   2.250   6.330   3.252
 4934TIP3    H214680   2.330   6.355   3.377
 4935TIP3   OH214681   1.209   5.417   3.768
 4935TIP3    H114682   1.290   5.446   3.815
 4935TIP3    H214683   1.145   5.417   3.843
 4936TIP3   OH214684   1.680   4.875   3.031
 4936TIP3    H114685   1.735   4.814   2.981
 4936TIP3    H214686   1.674   4.830   3.119
 4937TIP3   OH214687   1.202   4.343   2.906
 4937TIP3    H114688   1.182   4.255   2.942
 4937TIP3    H214689   1.261   4.320   2.832
 4938TIP3   OH214690   1.652   4.778   3.300
 4938TIP3    H114691   1.560   4.803   3.323
 4938TIP3    H214692   1.704   4.830   3.364
 4939TIP3   OH214693   1.387   5.157   2.407
 4939TIP3    H114694   1.314   5.092   2.397
 4939TIP3    H214695   1.369   5.191   2.499
 4940TIP3   OH214696   2.292   5.385   3.037
 4940TIP3    H114697   2.322   5.439   2.961
 4940TIP3    H214698   2.202   5.360   3.010
 4941TIP3   OH214699   1.845   4.475   2.253
 4941TIP3    H114700   1.751   4.455   2.275
 4941TIP3    H214701   1.858   4.566   2.287
 4942TIP3   OH214702   1.789   5.476   3.404
 4942TIP3    H114703   1.805   5.447   3.495
 4942TIP3    H214704   1.747   5.563   3.416
 4943TIP3   OH214705   1.915   4.713   2.371
 4943TIP3    H114706   2.011   4.722   2.388
 4943TIP3    H214707   1.895   4.793   2.319
 4944TIP3   OH214708   1.077   5.178   3.084
 4944TIP3    H114709   1.118   5.150   2.999
 4944TIP3    H214710   1.119   5.117   3.147
 4945TIP3   OH214711   1.532   5.307   2.229
 4945TIP3    H114712   1.485   5.393   2.235
 4945TIP3    H214713   1.478   5.251   2.288
 4946TIP3   OH214714   0.958   5.105   3.700
 4946TIP3    H114715   0.989   5.088   3.791
 4946TIP3    H214716   0.896   5.032   3.686
 4947TIP3   OH214717   1.680   5.221   3.690
 4947TIP3    H114718   1.622   5.147   3.666
 4947TIP3    H214719   1.767   5.177   3.691
 4948TIP3   OH214720   1.946   5.733   3.300
 4948TIP3    H114721   1.850   5.733   3.314
 4948TIP3    H214722   1.975   5.785   3.378
 4949TIP3   OH214723   2.357   4.807   2.209
 4949TIP3    H114724   2.295   4.762   2.148
 4949TIP3    H214725   2.354   4.896   2.168
 4950TIP3   OH214726   2.574   5.664   3.291
 4950TIP3    H114727   2.477   5.659   3.282
 4950TIP3    H214728   2.601   5.635   3.201
 4951TIP3   OH214729   2.057   5.626   2.117
 4951TIP3    H114730   2.032   5.556   2.178
 4951TIP3    H214731   2.069   5.579   2.033
 4952TIP3   OH214732   2.060   5.225   2.984
 4952TIP3    H114733   1.961   5.219   2.983
 4952TIP3    H214734   2.081   5.170   2.905
 4953TIP3   OH214735   1.180   5.482   2.707
 4953TIP3    H114736   1.181   5.564   2.654
 4953TIP3    H214737   1.085   5.468   2.718
 4954TIP3   OH214738   0.742   4.788   2.411
 4954TIP3    H114739   0.789   4.872   2.432
 4954TIP3    H214740   0.665   4.794   2.472
 4955TIP3   OH214741   1.321   5.249   2.654
 4955TIP3    H114742   1.284   5.338   2.670
 4955TIP3    H214743   1.282   5.199   2.728
 4956TIP3   OH214744   1.449   5.826   3.177
 4956TIP3    H114745   1.490   5.899   3.127
 4956TIP3    H214746   1.525   5.793   3.228
 4957TIP3   OH214747   1.100   5.722   2.561
 4957TIP3    H114748   1.014   5.730   2.606
 4957TIP3    H214749   1.132   5.815   2.564
 4958TIP3   OH214750   1.838   5.457   3.137
 4958TIP3    H114751   1.823   5.463   3.235
 4958TIP3    H214752   1.924   5.415   3.135
 4959TIP3   OH214753   1.811   5.353   2.019
 4959TIP3    H114754   1.864   5.329   2.098
 4959TIP3    H214755   1.723   5.327   2.048
 4960TIP3   OH214756   2.087   5.994   3.186
 4960TIP3    H114757   2.007   5.938   3.180
 4960TIP3    H214758   2.071   6.059   3.114
 4961TIP3   OH214759   2.151   5.829   1.838
 4961TIP3    H114760   2.189   5.902   1.786
 4961TIP3    H214761   2.071   5.875   1.872
 4962TIP3   OH214762   1.173   4.606   3.704
 4962TIP3    H114763   1.077   4.602   3.715
 4962TIP3    H214764   1.204   4.545   3.773
 4963TIP3   OH214765   1.971   5.288   2.235
 4963TIP3    H114766   1.962   5.221   2.306
 4963TIP3    H214767   2.068   5.286   2.223
 4964TIP3   OH214768   0.886   5.689   3.338
 4964TIP3    H114769   0.941   5.616   3.370
 4964TIP3    H214770   0.914   5.760   3.396
 4965TIP3   OH214771   1.179   5.334   2.018
 4965TIP3    H114772   1.192   5.242   1.989
 4965TIP3    H214773   1.159   5.322   2.113
 4966TIP3   OH214774   1.123   5.339   2.291
 4966TIP3    H114775   1.194   5.312   2.351
 4966TIP3    H214776   1.127   5.437   2.298
 4967TIP3   OH214777   0.858   5.033   2.494
 4967TIP3    H114778   0.793   5.077   2.551
 4967TIP3    H214779   0.873   5.102   2.427
 4968TIP3   OH214780   2.024   4.671   3.397
 4968TIP3    H114781   2.063   4.710   3.478
 4968TIP3    H214782   1.994   4.585   3.433
 4969TIP3   OH214783   1.891   4.423   2.548
 4969TIP3    H114784   1.877   4.451   2.456
 4969TIP3    H214785   1.929   4.503   2.588
 4970TIP3   OH214786   1.389   5.537   2.240
 4970TIP3    H114787   1.302   5.564   2.275
 4970TIP3    H214788   1.406   5.609   2.177
 4971TIP3   OH214789   1.578   4.599   2.652
 4971TIP3    H114790   1.643   4.671   2.636
 4971TIP3    H214791   1.581   4.593   2.750
 4972TIP3   OH214792   1.852   4.923   3.467
 4972TIP3    H114793   1.860   4.973   3.552
 4972TIP3    H214794   1.905   4.844   3.487
 4973TIP3   OH214795   1.728   4.333   2.759
 4973TIP3    H114796   1.724   4.410   2.818
 4973TIP3    H214797   1.786   4.366   2.688
 4974TIP3   OH214798   1.132   5.612   2.307
 4974TIP3    H114799   1.103   5.682   2.244
 4974TIP3    H214800   1.116   5.656   2.393
 4975TIP3   OH214801   1.236   4.325   2.543
 4975TIP3    H114802   1.229   4.414   2.582
 4975TIP3    H214803   1.331   4.308   2.556
 4976TIP3   OH214804   2.446   4.834   3.425
 4976TIP3    H114805   2.383   4.777   3.469
 4976TIP3    H214806   2.474   4.777   3.351
 4977TIP3   OH214807   2.137   5.013   2.828
 4977TIP3    H114808   2.063   4.949   2.832
 4977TIP3    H214809   2.210   4.963   2.872
 4978TIP3   OH214810   0.850   5.243   2.300
 4978TIP3    H114811   0.916   5.314   2.308
 4978TIP3    H214812   0.895   5.188   2.233
 4979TIP3   OH214813   0.799   4.519   2.430
 4979TIP3    H114814   0.793   4.617   2.427
 4979TIP3    H214815   0.714   4.492   2.393
 4980TIP3   OH214816   2.107   5.967   2.779
 4980TIP3    H114817   2.064   6.014   2.704
 4980TIP3    H214818   2.201   5.987   2.759
 4981TIP3   OH214819   1.178   4.224   3.294
 4981TIP3    H114820   1.178   4.163   3.216
 4981TIP3    H214821   1.169   4.158   3.365
 4982TIP3   OH214822   0.722   5.455   2.688
 4982TIP3    H114823   0.650   5.488   2.744
 4982TIP3    H214824   0.698   5.496   2.602
 4983TIP3   OH214825   0.879   5.998   3.758
 4983TIP3    H114826   0.965   5.999   3.806
 4983TIP3    H214827   0.859   5.902   3.757
 4984TIP3   OH214828   1.360   5.964   3.801
 4984TIP3    H114829   1.454   5.943   3.812
 4984TIP3    H214830   1.336   5.905   3.728
 4985TIP3   OH214831   1.342   5.539   1.931
 4985TIP3    H114832   1.286   5.467   1.970
 4985TIP3    H214833   1.416   5.486   1.898
 4986TIP3   OH214834   2.001   5.867   3.534
 4986TIP3    H114835   1.991   5.798   3.603
 4986TIP3    H214836   2.077   5.918   3.567
 4987TIP3   OH214837   1.778   5.579   1.842
 4987TIP3    H114838   1.823   5.515   1.900
 4987TIP3    H214839   1.834   5.579   1.763
 4988TIP3   OH214840   1.009   5.404   3.959
 4988TIP3    H114841   1.026   5.308   3.967
 4988TIP3    H214842   0.921   5.405   3.915
 4989TIP3   OH214843   0.986   5.056   2.152
 4989TIP3    H114844   1.041   5.021   2.224
 4989TIP3    H214845   1.053   5.060   2.080
 4990TIP3   OH214846   1.618   5.491   3.732
 4990TIP3    H114847   1.575   5.503   3.645
 4990TIP3    H214848   1.651   5.398   3.727
 4991TIP3   OH214849   1.496   5.253   1.959
 4991TIP3    H114850   1.497   5.267   2.056
 4991TIP3    H214851   1.495   5.155   1.955
 4992TIP3   OH214852   2.109   5.487   3.329
 4992TIP3    H114853   2.184   5.541   3.296
 4992TIP3    H214854   2.038   5.554   3.331
 4993TIP3   OH214855   1.134   5.126   3.938
 4993TIP3    H114856   1.217   5.082   3.916
 4993TIP3    H214857   1.156   5.165   4.025
 4994TIP3   OH214858   1.195   4.958   2.375
 4994TIP3    H114859   1.167   4.917   2.458
 4994TIP3    H214860   1.229   4.881   2.324
 4995TIP3   OH214861   1.462   5.022   3.595
 4995TIP3    H114862   1.388   5.086   3.602
 4995TIP3    H214863   1.511   5.056   3.517
 4996TIP3   OH214864   1.295   4.752   2.214
 4996TIP3    H114865   1.267   4.755   2.120
 4996TIP3    H214866   1.392   4.759   2.206
 4997TIP3   OH214867   1.979   5.425   3.734
 4997TIP3    H114868   2.064   5.398   3.698
 4997TIP3    H214869   1.970   5.363   3.810
 4998TIP3   OH214870   2.117   5.083   1.878
 4998TIP3    H114871   2.095   5.037   1.794
 4998TIP3    H214872   2.085   5.174   1.854
 4999TIP3   OH214873   1.547   4.797   3.736
 4999TIP3    H114874   1.583   4.728   3.677
 4999TIP3    H214875   1.529   4.871   3.675
 5000TIP3   OH214876   1.592   4.596   3.527
 5000TIP3    H114877   1.614   4.633   3.440
 5000TIP3    H214878   1.497   4.573   3.516
 5001TIP3   OH214879   1.612   5.125   3.394
 5001TIP3    H114880   1.699   5.148   3.359
 5001TIP3    H214881   1.556   5.198   3.362
 5002TIP3   OH214882   2.199   5.094   3.783
 5002TIP3    H114883   2.249   5.015   3.807
 5002TIP3    H214884   2.268   5.160   3.769
 5003TIP3   OH214885   2.246   5.349   3.528
 5003TIP3    H114886   2.181   5.389   3.466
 5003TIP3    H214887   2.330   5.372   3.482
 5004TIP3   OH214888   1.426   4.947   3.946
 5004TIP3    H114889   1.382   4.864   3.970
 5004TIP3    H214890   1.493   4.913   3.884
 5005TIP3   OH214891   1.721   4.359   3.595
 5005TIP3    H114892   1.671   4.442   3.576
 5005TIP3    H214893   1.651   4.292   3.587
 5006TIP3   OH214894   2.088   4.785   3.651
 5006TIP3    H114895   2.022   4.803   3.720
 5006TIP3    H214896   2.168   4.776   3.706
 5007TIP3   OH214897   2.324   4.761   3.824
 5007TIP3    H114898   2.330   4.664   3.841
 5007TIP3    H214899   2.303   4.795   3.914
 5008TIP3   OH214900   1.298   4.707   4.020
 5008TIP3    H114901   1.322   4.624   3.975
 5008TIP3    H214902   1.343   4.694   4.106
 5009TIP3   OH214903   1.818   4.372   3.851
 5009TIP3    H114904   1.884   4.300   3.850
 5009TIP3    H214905   1.777   4.360   3.763
 5010TIP3   OH214906   1.837   4.578   4.037
 5010TIP3    H114907   1.836   4.525   3.955
 5010TIP3    H214908   1.837   4.671   4.005
 5011TIP3   OH214909   1.102   5.813   2.119
 5011TIP3    H114910   1.197   5.811   2.099
 5011TIP3    H214911   1.071   5.863   2.041
 5012TIP3   OH214912   0.582   5.196   2.336
 5012TIP3    H114913   0.676   5.218   2.322
 5012TIP3    H214914   0.576   5.107   2.294
 5013TIP3   OH214915   0.496   5.806   2.748
 5013TIP3    H114916   0.426   5.745   2.715
 5013TIP3    H214917   0.540   5.750   2.815
 5014TIP3   OH214918   0.632   5.660   2.936
 5014TIP3    H114919   0.623   5.587   2.999
 5014TIP3    H214920   0.683   5.723   2.990
 5015TIP3   OH214921   2.359   6.060   2.735
 5015TIP3    H114922   2.385   6.093   2.823
 5015TIP3    H214923   2.421   6.106   2.677
 5016TIP3   OH214924   2.389   6.081   3.017
 5016TIP3    H114925   2.346   5.993   3.014
 5016TIP3    H214926   2.464   6.060   3.075
 5017TIP3   OH214927   2.435   5.757   3.590
 5017TIP3    H114928   2.362   5.764   3.655
 5017TIP3    H214929   2.476   5.846   3.596
 5018TIP3   OH214930   2.251   5.271   2.210
 5018TIP3    H114931   2.320   5.335   2.182
 5018TIP3    H214932   2.294   5.231   2.289
 5019TIP3   OH214933   2.379   5.138   2.413
 5019TIP3    H114934   2.314   5.095   2.474
 5019TIP3    H214935   2.445   5.175   2.475
 5020TIP3   OH214936   2.429   5.526   2.848
 5020TIP3    H114937   2.486   5.465   2.797
 5020TIP3    H214938   2.424   5.603   2.787
 5021TIP3   OH214939   2.264   5.829   3.042
 5021TIP3    H114940   2.194   5.873   3.094
 5021TIP3    H214941   2.212   5.783   2.973
 5022TIP3   OH214942   2.317   5.045   2.062
 5022TIP3    H114943   2.245   5.048   1.994
 5022TIP3    H214944   2.291   5.122   2.117
 5023TIP3   OH214945   2.187   4.720   2.017
 5023TIP3    H114946   2.147   4.760   1.939
 5023TIP3    H214947   2.162   4.626   2.004
 5024TIP3   OH214948   2.193   4.993   2.559
 5024TIP3    H114949   2.200   4.897   2.553
 5024TIP3    H214950   2.178   5.007   2.655
 5025TIP3   OH214951   0.819   5.072   3.307
 5025TIP3    H114952   0.818   5.038   3.215
 5025TIP3    H214953   0.916   5.071   3.325
 5026TIP3   OH214954   2.484   5.418   3.413
 5026TIP3    H114955   2.558   5.354   3.405
 5026TIP3    H214956   2.514   5.492   3.357
 5027TIP3   OH214957   2.671   5.226   3.429
 5027TIP3    H114958   2.598   5.177   3.473
 5027TIP3    H214959   2.745   5.163   3.444
 5028TIP3   OH214960   2.135   4.453   2.003
 5028TIP3    H114961   2.216   4.428   2.051
 5028TIP3    H214962   2.068   4.395   2.040
 5029TIP3   OH214963   2.189   4.710   2.456
 5029TIP3    H114964   2.230   4.622   2.472
 5029TIP3    H214965   2.248   4.743   2.386
 5030TIP3   OH214966   2.353   4.908   2.961
 5030TIP3    H114967   2.430   4.934   2.905
 5030TIP3    H214968   2.402   4.870   3.035
 5031TIP3   OH214969   1.031   4.752   3.979
 5031TIP3    H114970   1.129   4.750   3.982
 5031TIP3    H214971   1.011   4.669   4.026
 5032TIP3   OH214972   2.871   4.620   3.736
 5032TIP3    H114973   2.928   4.550   3.697
 5032TIP3    H214974   2.850   4.675   3.658
 5033TIP3   OH214975   2.295   4.459   2.494
 5033TIP3    H114976   2.346   4.441   2.576
 5033TIP3    H214977   2.236   4.382   2.492
 5034TIP3   OH214978   0.999   4.442   3.316
 5034TIP3    H114979   1.058   4.363   3.315
 5034TIP3    H214980   1.064   4.514   3.308
 5035TIP3   OH214981   0.800   4.723   3.385
 5035TIP3    H114982   0.849   4.710   3.302
 5035TIP3    H214983   0.839   4.805   3.417
 5036TIP3   OH214984   2.739   4.763   3.541
 5036TIP3    H114985   2.663   4.793   3.594
 5036TIP3    H214986   2.702   4.687   3.491
 5037TIP3   OH214987   2.379   4.397   2.124
 5037TIP3    H114988   2.420   4.323   2.075
 5037TIP3    H214989   2.448   4.466   2.119
 5038TIP3   OH214990   0.783   4.245   2.897
 5038TIP3    H114991   0.690   4.223   2.913
 5038TIP3    H214992   0.781   4.286   2.808
 5039TIP3   OH214993   1.943   5.926   2.393
 5039TIP3    H114994   1.995   5.912   2.311
 5039TIP3    H214995   1.996   5.994   2.439
 5040TIP3   OH214996   1.005   4.313   3.709
 5040TIP3    H114997   0.949   4.296   3.786
 5040TIP3    H214998   0.938   4.340   3.643
 5041TIP3   OH214999   1.044   5.730   3.778
 5041TIP3    H115000   0.952   5.704   3.763
 5041TIP3    H215001   1.056   5.713   3.872
 5042TIP3   OH215002   1.221   5.762   3.325
 5042TIP3    H115003   1.174   5.838   3.287
 5042TIP3    H215004   1.308   5.775   3.281
 5043TIP3   OH215005   1.668   6.008   3.463
 5043TIP3    H115006   1.709   6.007   3.552
 5043TIP3    H215007   1.734   6.059   3.412
 5044TIP3   OH215008   1.847   6.159   3.321
 5044TIP3    H115009   1.919   6.108   3.283
 5044TIP3    H215010   1.897   6.217   3.383
 5045TIP3   OH215011   2.637   4.517   3.425
 5045TIP3    H115012   2.547   4.491   3.397
 5045TIP3    H215013   2.682   4.429   3.414
 5046TIP3   OH215014   0.899   6.019   3.349
 5046TIP3    H115015   0.809   6.053   3.327
 5046TIP3    H215016   0.910   6.058   3.437
 5047TIP3   OH215017   1.135   5.998   3.207
 5047TIP3    H115018   1.049   6.011   3.253
 5047TIP3    H215019   1.114   6.032   3.118
 5048TIP3   OH215020   1.562   6.028   3.004
 5048TIP3    H115021   1.492   6.049   2.940
 5048TIP3    H215022   1.574   6.115   3.048
 5049TIP3   OH215023   1.830   5.966   3.054
 5049TIP3    H115024   1.735   5.983   3.037
 5049TIP3    H215025   1.872   6.044   3.015
 5050TIP3   OH215026   2.038   6.159   2.972
 5050TIP3    H115027   2.023   6.244   2.925
 5050TIP3    H215028   2.063   6.100   2.898
 5051TIP3   OH215029   0.809   5.813   3.094
 5051TIP3    H115030   0.836   5.789   3.185
 5051TIP3    H215031   0.882   5.771   3.044
 5052TIP3   OH215032   1.004   5.685   2.951
 5052TIP3    H115033   1.020   5.601   3.000
 5052TIP3    H215034   1.095   5.722   2.948
 5053TIP3   OH215035   1.270   5.780   2.954
 5053TIP3    H115036   1.301   5.688   2.943
 5053TIP3    H215037   1.314   5.803   3.038
 5054TIP3   OH215038   1.841   4.433   3.039
 5054TIP3    H115039   1.800   4.366   3.097
 5054TIP3    H215040   1.914   4.383   2.999
 5055TIP3   OH215041   2.368   4.334   2.953
 5055TIP3    H115042   2.403   4.373   2.869
 5055TIP3    H215043   2.272   4.333   2.936
 5056TIP3   OH215044   2.463   4.419   2.710
 5056TIP3    H115045   2.535   4.364   2.672
 5056TIP3    H215046   2.500   4.508   2.694
 5057TIP3   OH215047   0.844   4.026   2.685
 5057TIP3    H115048   0.903   4.078   2.627
 5057TIP3    H215049   0.855   4.070   2.771
 5058TIP3   OH215050   1.539   4.184   2.924
 5058TIP3    H115051   1.609   4.242   2.891
 5058TIP3    H215052   1.540   4.202   3.019
 5059TIP3   OH215053   2.089   4.323   2.920
 5059TIP3    H115054   2.086   4.279   2.834
 5059TIP3    H215055   2.075   4.246   2.980
 5060TIP3   OH215056   2.111   4.246   2.478
 5060TIP3    H115057   2.028   4.290   2.503
 5060TIP3    H215058   2.100   4.160   2.526
 5061TIP3   OH215059   0.598   5.586   2.487
 5061TIP3    H115060   0.513   5.554   2.451
 5061TIP3    H215061   0.588   5.681   2.469
 5062TIP3   OH215062   0.999   4.182   2.463
 5062TIP3    H115063   1.046   4.112   2.414
 5062TIP3    H215064   1.072   4.231   2.504
 5063TIP3   OH215065   1.515   4.346   2.569
 5063TIP3    H115066   1.568   4.304   2.638
 5063TIP3    H215067   1.533   4.440   2.592
 5064TIP3   OH215068   1.370   5.774   2.068
 5064TIP3    H115069   1.458   5.797   2.031
 5064TIP3    H215070   1.348   5.699   2.008
 5065TIP3   OH215071   2.090   5.893   2.160
 5065TIP3    H115072   2.081   5.796   2.147
 5065TIP3    H215073   2.044   5.927   2.080
 5066TIP3   OH215074   1.296   4.421   3.951
 5066TIP3    H115075   1.271   4.348   4.011
 5066TIP3    H215076   1.392   4.427   3.973
 5067TIP3   OH215077   1.545   4.423   4.064
 5067TIP3    H115078   1.637   4.419   4.032
 5067TIP3    H215079   1.544   4.351   4.130
 5068TIP3   OH215080   0.674   5.610   2.124
 5068TIP3    H115081   0.675   5.639   2.216
 5068TIP3    H215082   0.762   5.569   2.113
 5069TIP3   OH215083   2.375   4.488   3.856
 5069TIP3    H115084   2.393   4.455   3.947
 5069TIP3    H215085   2.463   4.479   3.814
 5070TIP3   OH215086   2.316   6.037   3.347
 5070TIP3    H115087   2.236   6.005   3.300
 5070TIP3    H215088   2.296   6.133   3.352
 5071TIP3   OH215089   3.583   5.408   2.115
 5071TIP3    H115090   3.555   5.500   2.097
 5071TIP3    H215091   3.505   5.360   2.082
 5072TIP3   OH215092   3.577   5.410   2.497
 5072TIP3    H115093   3.611   5.382   2.584
 5072TIP3    H215094   3.539   5.327   2.463
 5073TIP3   OH215095   2.879   5.305   2.863
 5073TIP3    H115096   2.911   5.238   2.927
 5073TIP3    H215097   2.958   5.359   2.852
 5074TIP3   OH215098   3.820   5.714   2.177
 5074TIP3    H115099   3.813   5.643   2.242
 5074TIP3    H215100   3.854   5.788   2.231
 5075TIP3   OH215101   2.851   5.713   2.585
 5075TIP3    H115102   2.842   5.616   2.587
 5075TIP3    H215103   2.948   5.722   2.581
 5076TIP3   OH215104   2.557   4.918   2.372
 5076TIP3    H115105   2.509   5.001   2.384
 5076TIP3    H215106   2.487   4.863   2.331
 5077TIP3   OH215107   2.616   5.204   2.542
 5077TIP3    H115108   2.666   5.128   2.579
 5077TIP3    H215109   2.678   5.236   2.475
 5078TIP3   OH215110   3.471   6.172   2.192
 5078TIP3    H115111   3.519   6.100   2.145
 5078TIP3    H215112   3.470   6.137   2.282
 5079TIP3   OH215113   3.380   5.634   2.543
 5079TIP3    H115114   3.420   5.557   2.500
 5079TIP3    H215115   3.463   5.681   2.568
 5080TIP3   OH215116   4.392   4.955   2.541
 5080TIP3    H115117   4.420   5.038   2.585
 5080TIP3    H215118   4.415   4.974   2.448
 5081TIP3   OH215119   3.790   5.137   2.577
 5081TIP3    H115120   3.834   5.052   2.597
 5081TIP3    H215121   3.761   5.121   2.485
 5082TIP3   OH215122   3.128   4.796   2.542
 5082TIP3    H115123   3.109   4.869   2.479
 5082TIP3    H215124   3.081   4.722   2.498
 5083TIP3   OH215125   3.823   4.887   2.164
 5083TIP3    H115126   3.896   4.872   2.229
 5083TIP3    H215127   3.875   4.922   2.089
 5084TIP3   OH215128   2.763   4.998   2.649
 5084TIP3    H115129   2.847   4.978   2.695
 5084TIP3    H215130   2.776   4.942   2.568
 5085TIP3   OH215131   3.204   5.196   2.441
 5085TIP3    H115132   3.298   5.171   2.455
 5085TIP3    H215133   3.165   5.112   2.410
 5086TIP3   OH215134   4.465   5.160   2.713
 5086TIP3    H115135   4.383   5.210   2.693
 5086TIP3    H215136   4.485   5.193   2.802
 5087TIP3   OH215137   3.127   4.779   2.974
 5087TIP3    H115138   3.067   4.815   2.907
 5087TIP3    H215139   3.076   4.796   3.056
 5088TIP3   OH215140   3.476   5.632   1.984
 5088TIP3    H115141   3.427   5.607   1.905
 5088TIP3    H215142   3.432   5.716   2.008
 5089TIP3   OH215143   3.232   5.554   2.771
 5089TIP3    H115144   3.170   5.621   2.808
 5089TIP3    H215145   3.276   5.605   2.700
 5090TIP3   OH215146   4.034   4.890   2.336
 5090TIP3    H115147   4.027   4.841   2.419
 5090TIP3    H215148   4.089   4.966   2.361
 5091TIP3   OH215149   2.996   4.894   2.760
 5091TIP3    H115150   3.058   4.967   2.783
 5091TIP3    H215151   3.045   4.853   2.686
 5092TIP3   OH215152   3.060   5.748   2.868
 5092TIP3    H115153   3.035   5.835   2.830
 5092TIP3    H215154   2.982   5.733   2.925
 5093TIP3   OH215155   2.456   5.439   2.105
 5093TIP3    H115156   2.414   5.465   2.021
 5093TIP3    H215157   2.485   5.525   2.141
 5094TIP3   OH215158   3.892   5.953   2.344
 5094TIP3    H115159   3.802   5.946   2.382
 5094TIP3    H215160   3.888   6.040   2.300
 5095TIP3   OH215161   4.186   4.853   2.706
 5095TIP3    H115162   4.099   4.885   2.678
 5095TIP3    H215163   4.245   4.887   2.635
 5096TIP3   OH215164   3.482   4.498   2.688
 5096TIP3    H115165   3.471   4.403   2.707
 5096TIP3    H215166   3.405   4.535   2.736
 5097TIP3   OH215167   3.595   6.000   2.017
 5097TIP3    H115168   3.647   5.919   1.997
 5097TIP3    H215169   3.655   6.067   1.976
 5098TIP3   OH215170   3.740   5.786   1.924
 5098TIP3    H115171   3.697   5.705   1.892
 5098TIP3    H215172   3.777   5.755   2.009
 5099TIP3   OH215173   4.119   5.868   2.689
 5099TIP3    H115174   4.112   5.791   2.628
 5099TIP3    H215175   4.105   5.943   2.628
 5100TIP3   OH215176   3.412   5.261   1.945
 5100TIP3    H115177   3.331   5.311   1.921
 5100TIP3    H215178   3.460   5.256   1.860
 5101TIP3   OH215179   3.370   5.047   1.662
 5101TIP3    H115180   3.440   5.095   1.710
 5101TIP3    H215181   3.425   4.983   1.613
 5102TIP3   OH215182   4.316   5.501   2.531
 5102TIP3    H115183   4.235   5.556   2.536
 5102TIP3    H215184   4.348   5.526   2.442
 5103TIP3   OH215185   3.758   5.347   1.915
 5103TIP3    H115186   3.705   5.370   1.994
 5103TIP3    H215187   3.842   5.319   1.957
 5104TIP3   OH215188   3.995   5.382   2.829
 5104TIP3    H115189   3.994   5.466   2.879
 5104TIP3    H215190   3.909   5.389   2.782
 5105TIP3   OH215191   2.993   5.342   2.333
 5105TIP3    H115192   2.951   5.283   2.266
 5105TIP3    H215193   3.069   5.288   2.363
 5106TIP3   OH215194   3.122   5.753   2.482
 5106TIP3    H115195   3.103   5.708   2.398
 5106TIP3    H215196   3.212   5.720   2.502
 5107TIP3   OH215197   3.126   5.314   2.687
 5107TIP3    H115198   3.162   5.291   2.599
 5107TIP3    H215199   3.171   5.398   2.708
 5108TIP3   OH215200   3.649   5.951   2.464
 5108TIP3    H115201   3.639   6.030   2.519
 5108TIP3    H215202   3.639   5.877   2.528
 5109TIP3   OH215203   3.266   5.870   3.012
 5109TIP3    H115204   3.206   5.932   3.058
 5109TIP3    H215205   3.200   5.816   2.963
 5110TIP3   OH215206   3.599   5.204   1.743
 5110TIP3    H115207   3.660   5.260   1.796
 5110TIP3    H215208   3.625   5.229   1.651
 5111TIP3   OH215209   3.021   5.426   3.112
 5111TIP3    H115210   3.025   5.513   3.158
 5111TIP3    H215211   2.925   5.407   3.121
 5112TIP3   OH215212   3.343   5.881   2.014
 5112TIP3    H115213   3.424   5.933   2.034
 5112TIP3    H215214   3.282   5.950   1.985
 5113TIP3   OH215215   3.060   6.039   3.099
 5113TIP3    H115216   3.026   6.036   3.007
 5113TIP3    H215217   2.980   6.017   3.152
 5114TIP3   OH215218   4.116   4.443   1.791
 5114TIP3    H115219   4.035   4.463   1.842
 5114TIP3    H215220   4.129   4.526   1.741
 5115TIP3   OH215221   2.858   5.185   2.139
 5115TIP3    H115222   2.792   5.229   2.082
 5115TIP3    H215223   2.819   5.097   2.150
 5116TIP3   OH215224   3.921   5.807   1.340
 5116TIP3    H115225   3.928   5.904   1.326
 5116TIP3    H215226   4.015   5.780   1.326
 5117TIP3   OH215227   2.639   5.569   3.046
 5117TIP3    H115228   2.576   5.544   2.976
 5117TIP3    H215229   2.678   5.482   3.071
 5118TIP3   OH215230   2.493   5.758   2.682
 5118TIP3    H115231   2.589   5.754   2.670
 5118TIP3    H215232   2.484   5.840   2.734
 5119TIP3   OH215233   4.358   6.212   2.732
 5119TIP3    H115234   4.358   6.116   2.748
 5119TIP3    H215235   4.277   6.238   2.781
 5120TIP3   OH215236   3.463   6.000   2.868
 5120TIP3    H115237   3.463   6.092   2.901
 5120TIP3    H215238   3.393   5.959   2.923
 5121TIP3   OH215239   3.222   6.129   1.821
 5121TIP3    H115240   3.173   6.112   1.739
 5121TIP3    H215241   3.192   6.218   1.846
 5122TIP3   OH215242   2.663   5.976   2.204
 5122TIP3    H115243   2.710   5.967   2.289
 5122TIP3    H215244   2.605   5.898   2.207
 5123TIP3   OH215245   3.442   6.018   1.465
 5123TIP3    H115246   3.522   5.966   1.459
 5123TIP3    H215247   3.450   6.046   1.559
 5124TIP3   OH215248   3.472   6.077   1.729
 5124TIP3    H115249   3.387   6.086   1.777
 5124TIP3    H215250   3.529   6.040   1.799
 5125TIP3   OH215251   4.248   5.342   3.010
 5125TIP3    H115252   4.169   5.356   2.956
 5125TIP3    H215253   4.263   5.246   2.999
 5126TIP3   OH215254   2.845   5.751   3.035
 5126TIP3    H115255   2.895   5.735   3.117
 5126TIP3    H215256   2.771   5.688   3.043
 5127TIP3   OH215257   3.243   4.574   2.817
 5127TIP3    H115258   3.153   4.543   2.792
 5127TIP3    H215259   3.219   4.656   2.864
 5128TIP3   OH215260   3.777   4.690   3.012
 5128TIP3    H115261   3.846   4.663   3.077
 5128TIP3    H215262   3.694   4.669   3.059
 5129TIP3   OH215263   4.016   5.117   2.929
 5129TIP3    H115264   3.969   5.115   3.016
 5129TIP3    H215265   3.993   5.206   2.895
 5130TIP3   OH215266   3.675   5.259   1.488
 5130TIP3    H115267   3.643   5.224   1.403
 5130TIP3    H215268   3.761   5.295   1.463
 5131TIP3   OH215269   3.388   4.625   1.789
 5131TIP3    H115270   3.357   4.622   1.881
 5131TIP3    H215271   3.351   4.540   1.756
 5132TIP3   OH215272   3.174   5.090   2.835
 5132TIP3    H115273   3.126   5.111   2.918
 5132TIP3    H215274   3.158   5.171   2.782
 5133TIP3   OH215275   3.059   4.976   2.351
 5133TIP3    H115276   2.966   4.949   2.368
 5133TIP3    H215277   3.073   4.935   2.262
 5134TIP3   OH215278   3.549   5.061   2.078
 5134TIP3    H115279   3.497   5.133   2.036
 5134TIP3    H215280   3.605   5.031   2.004
 5135TIP3   OH215281   3.724   5.341   3.165
 5135TIP3    H115282   3.702   5.267   3.227
 5135TIP3    H215283   3.818   5.355   3.186
 5136TIP3   OH215284   3.707   5.090   2.318
 5136TIP3    H115285   3.648   5.120   2.246
 5136TIP3    H215286   3.740   5.008   2.275
 5137TIP3   OH215287   2.993   5.119   3.047
 5137TIP3    H115288   3.027   5.182   3.113
 5137TIP3    H215289   2.986   5.037   3.099
 5138TIP3   OH215290   3.044   4.596   1.755
 5138TIP3    H115291   3.036   4.593   1.853
 5138TIP3    H215292   2.965   4.648   1.732
 5139TIP3   OH215293   2.587   4.643   2.628
 5139TIP3    H115294   2.664   4.673   2.680
 5139TIP3    H215295   2.627   4.609   2.546
 5140TIP3   OH215296   2.559   4.621   2.145
 5140TIP3    H115297   2.605   4.660   2.067
 5140TIP3    H215298   2.499   4.695   2.167
 5141TIP3   OH215299   3.714   5.337   2.740
 5141TIP3    H115300   3.748   5.265   2.682
 5141TIP3    H215301   3.687   5.284   2.818
 5142TIP3   OH215302   3.386   4.800   2.412
 5142TIP3    H115303   3.305   4.797   2.467
 5142TIP3    H215304   3.456   4.796   2.479
 5143TIP3   OH215305   2.821   4.853   2.421
 5143TIP3    H115306   2.726   4.859   2.394
 5143TIP3    H215307   2.846   4.762   2.397
 5144TIP3   OH215308   3.090   4.850   2.109
 5144TIP3    H115309   3.185   4.865   2.089
 5144TIP3    H215310   3.045   4.874   2.025
 5145TIP3   OH215311   3.879   4.874   2.615
 5145TIP3    H115312   3.843   4.886   2.706
 5145TIP3    H215313   3.813   4.813   2.577
 5146TIP3   OH215314   2.930   4.886   1.887
 5146TIP3    H115315   2.860   4.839   1.838
 5146TIP3    H215316   2.983   4.920   1.812
 5147TIP3   OH215317   4.046   6.564   2.833
 5147TIP3    H115318   4.049   6.587   2.739
 5147TIP3    H215319   4.127   6.608   2.867
 5148TIP3   OH215320   3.005   5.673   3.255
 5148TIP3    H115321   3.085   5.703   3.302
 5148TIP3    H215322   2.941   5.673   3.328
 5149TIP3   OH215323   3.470   5.126   2.508
 5149TIP3    H115324   3.543   5.087   2.457
 5149TIP3    H215325   3.481   5.084   2.595
 5150TIP3   OH215326   2.991   4.614   2.388
 5150TIP3    H115327   2.959   4.534   2.434
 5150TIP3    H215328   3.046   4.576   2.317
 5151TIP3   OH215329   3.446   5.022   2.801
 5151TIP3    H115330   3.357   5.059   2.815
 5151TIP3    H215331   3.504   5.082   2.851
 5152TIP3   OH215332   3.184   5.416   1.891
 5152TIP3    H115333   3.112   5.350   1.881
 5152TIP3    H215334   3.167   5.449   1.983
 5153TIP3   OH215335   4.084   5.650   2.524
 5153TIP3    H115336   4.111   5.698   2.442
 5153TIP3    H215337   3.999   5.610   2.497
 5154TIP3   OH215338   3.641   4.726   1.758
 5154TIP3    H115339   3.544   4.710   1.765
 5154TIP3    H215340   3.651   4.821   1.780
 5155TIP3   OH215341   3.578   5.729   2.893
 5155TIP3    H115342   3.609   5.711   2.982
 5155TIP3    H215343   3.545   5.820   2.898
 5156TIP3   OH215344   3.710   4.974   1.860
 5156TIP3    H115345   3.807   4.978   1.876
 5156TIP3    H215346   3.694   5.052   1.805
 5157TIP3   OH215347   2.873   5.433   2.570
 5157TIP3    H115348   2.913   5.408   2.485
 5157TIP3    H215349   2.919   5.374   2.632
 5158TIP3   OH215350   3.326   5.564   1.704
 5158TIP3    H115351   3.280   5.650   1.718
 5158TIP3    H215352   3.277   5.507   1.767
 5159TIP3   OH215353   2.755   5.359   3.183
 5159TIP3    H115354   2.778   5.345   3.277
 5159TIP3    H215355   2.687   5.290   3.169
 5160TIP3   OH215356   3.481   5.470   3.204
 5160TIP3    H115357   3.424   5.412   3.151
 5160TIP3    H215358   3.570   5.438   3.177
 5161TIP3   OH215359   3.742   5.989   2.790
 5161TIP3    H115360   3.645   5.991   2.801
 5161TIP3    H215361   3.771   6.043   2.866
 5162TIP3   OH215362   4.152   5.063   1.696
 5162TIP3    H115363   4.089   5.018   1.635
 5162TIP3    H215364   4.149   5.151   1.654
 5163TIP3   OH215365   4.370   5.919   2.778
 5163TIP3    H115366   4.272   5.915   2.769
 5163TIP3    H215367   4.397   5.891   2.688
 5164TIP3   OH215368   3.831   5.883   1.597
 5164TIP3    H115369   3.836   5.818   1.668
 5164TIP3    H215370   3.867   5.836   1.520
 5165TIP3   OH215371   3.848   5.513   2.442
 5165TIP3    H115372   3.755   5.486   2.455
 5165TIP3    H215373   3.884   5.433   2.398
 5166TIP3   OH215374   2.975   5.738   2.193
 5166TIP3    H115375   2.976   5.821   2.141
 5166TIP3    H215376   2.881   5.725   2.206
 5167TIP3   OH215377   2.539   5.044   1.898
 5167TIP3    H115378   2.586   5.128   1.919
 5167TIP3    H215379   2.462   5.050   1.959
 5168TIP3   OH215380   3.115   5.505   2.138
 5168TIP3    H115381   3.079   5.595   2.157
 5168TIP3    H215382   3.080   5.455   2.213
 5169TIP3   OH215383   3.245   6.083   2.664
 5169TIP3    H115384   3.287   6.156   2.613
 5169TIP3    H215385   3.322   6.049   2.713
 5170TIP3   OH215386   2.895   5.979   2.047
 5170TIP3    H115387   2.810   5.986   2.093
 5170TIP3    H215388   2.927   6.072   2.051
 5171TIP3   OH215389   3.634   5.719   2.623
 5171TIP3    H115390   3.625   5.715   2.720
 5171TIP3    H215391   3.715   5.668   2.609
 5172TIP3   OH215392   3.577   5.604   1.518
 5172TIP3    H115393   3.647   5.589   1.586
 5172TIP3    H215394   3.499   5.576   1.570
 5173TIP3   OH215395   3.880   6.253   2.675
 5173TIP3    H115396   3.801   6.196   2.664
 5173TIP3    H215397   3.867   6.317   2.602
 5174TIP3   OH215398   3.944   6.085   1.324
 5174TIP3    H115399   3.990   6.158   1.279
 5174TIP3    H215400   3.865   6.133   1.355
 5175TIP3   OH215401   2.973   4.861   3.193
 5175TIP3    H115402   2.876   4.860   3.206
 5175TIP3    H215403   3.003   4.800   3.262
 5176TIP3   OH215404   3.766   5.542   1.710
 5176TIP3    H115405   3.755   5.479   1.785
 5176TIP3    H215406   3.864   5.543   1.705
 5177TIP3   OH215407   2.684   5.946   2.824
 5177TIP3    H115408   2.737   5.872   2.856
 5177TIP3    H215409   2.712   6.017   2.884
 5178TIP3   OH215410   2.972   5.590   1.506
 5178TIP3    H115411   2.982   5.498   1.477
 5178TIP3    H215412   2.955   5.579   1.601
 5179TIP3   OH215413   2.921   5.596   1.776
 5179TIP3    H115414   2.989   5.566   1.838
 5179TIP3    H215415   2.924   5.693   1.787
 5180TIP3   OH215416   2.655   5.289   1.980
 5180TIP3    H115417   2.589   5.333   2.038
 5180TIP3    H215418   2.669   5.359   1.914
 5181TIP3   OH215419   3.802   4.927   2.873
 5181TIP3    H115420   3.884   4.965   2.910
 5181TIP3    H215421   3.790   4.846   2.927
 5182TIP3   OH215422   3.683   4.679   2.037
 5182TIP3    H115423   3.671   4.702   1.943
 5182TIP3    H215424   3.724   4.760   2.073
 5183TIP3   OH215425   3.184   5.795   1.722
 5183TIP3    H115426   3.098   5.818   1.762
 5183TIP3    H215427   3.203   5.876   1.674
 5184TIP3   OH215428   3.372   4.857   2.140
 5184TIP3    H115429   3.438   4.927   2.122
 5184TIP3    H215430   3.378   4.849   2.238
 5185TIP3   OH215431   3.642   5.175   2.949
 5185TIP3    H115432   3.665   5.229   3.027
 5185TIP3    H215433   3.699   5.097   2.960
 5186TIP3   OH215434   3.518   4.584   2.242
 5186TIP3    H115435   3.514   4.659   2.304
 5186TIP3    H215436   3.579   4.620   2.173
 5187TIP3   OH215437   2.928   5.869   1.794
 5187TIP3    H115438   2.898   5.938   1.732
 5187TIP3    H215439   2.912   5.912   1.881
 5188TIP3   OH215440   3.029   4.582   2.032
 5188TIP3    H115441   3.027   4.672   2.069
 5188TIP3    H215442   3.125   4.563   2.040
 5189TIP3   OH215443   4.283   5.076   2.930
 5189TIP3    H115444   4.185   5.073   2.935
 5189TIP3    H215445   4.297   5.040   2.841
 5190TIP3   OH215446   3.934   5.271   2.318
 5190TIP3    H115447   3.859   5.209   2.330
 5190TIP3    H215448   4.007   5.224   2.365
 5191TIP3   OH215449   2.646   5.499   1.787
 5191TIP3    H115450   2.712   5.571   1.796
 5191TIP3    H215451   2.692   5.444   1.720
 5192TIP3   OH215452   2.592   4.774   1.921
 5192TIP3    H115453   2.591   4.872   1.916
 5192TIP3    H215454   2.510   4.751   1.876
 5193TIP3   OH215455   3.902   6.225   2.266
 5193TIP3    H115456   3.861   6.271   2.190
 5193TIP3    H215457   3.996   6.245   2.248
 5194TIP3   OH215458   2.976   4.496   2.794
 5194TIP3    H115459   2.947   4.460   2.707
 5194TIP3    H215460   2.968   4.417   2.852
 5195TIP3   OH215461   2.518   5.713   2.174
 5195TIP3    H115462   2.447   5.744   2.232
 5195TIP3    H215463   2.492   5.754   2.089
 5196TIP3   OH215464   2.674   6.254   3.245
 5196TIP3    H115465   2.761   6.254   3.292
 5196TIP3    H215466   2.654   6.159   3.244
 5197TIP3   OH215467   3.157   6.220   3.289
 5197TIP3    H115468   3.251   6.199   3.297
 5197TIP3    H215469   3.131   6.161   3.215
 5198TIP3   OH215470   3.144   5.782   1.416
 5198TIP3    H115471   3.070   5.731   1.457
 5198TIP3    H215472   3.211   5.712   1.420
 5199TIP3   OH215473   3.793   6.127   3.025
 5199TIP3    H115474   3.787   6.056   3.092
 5199TIP3    H215475   3.874   6.175   3.052
 5200TIP3   OH215476   2.805   5.661   3.446
 5200TIP3    H115477   2.823   5.566   3.451
 5200TIP3    H215478   2.717   5.663   3.403
 5201TIP3   OH215479   2.783   5.313   1.639
 5201TIP3    H115480   2.837   5.277   1.712
 5201TIP3    H215481   2.851   5.315   1.568
 5202TIP3   OH215482   3.412   5.745   3.219
 5202TIP3    H115483   3.373   5.761   3.132
 5202TIP3    H215484   3.445   5.653   3.211
 5203TIP3   OH215485   3.304   5.528   1.428
 5203TIP3    H115486   3.297   5.537   1.526
 5203TIP3    H215487   3.299   5.430   1.423
 5204TIP3   OH215488   3.905   5.754   2.824
 5204TIP3    H115489   3.981   5.797   2.780
 5204TIP3    H215490   3.836   5.823   2.811
 5205TIP3   OH215491   2.926   5.394   3.426
 5205TIP3    H115492   3.002   5.339   3.406
 5205TIP3    H215493   2.950   5.427   3.516
 5206TIP3   OH215494   2.991   5.216   1.860
 5206TIP3    H115495   2.965   5.175   1.944
 5206TIP3    H215496   3.026   5.140   1.810
 5207TIP3   OH215497   3.256   5.276   3.086
 5207TIP3    H115498   3.182   5.340   3.091
 5207TIP3    H215499   3.307   5.311   3.010
 5208TIP3   OH215500   3.091   5.009   1.702
 5208TIP3    H115501   3.065   5.009   1.607
 5208TIP3    H215502   3.189   5.014   1.694
 5209TIP3   OH215503   3.775   5.680   3.222
 5209TIP3    H115504   3.857   5.660   3.176
 5209TIP3    H215505   3.775   5.614   3.293
 5210TIP3   OH215506   3.907   5.348   1.363
 5210TIP3    H115507   3.888   5.291   1.286
 5210TIP3    H215508   3.904   5.435   1.321
 5211TIP3   OH215509   3.381   5.067   3.217
 5211TIP3    H115510   3.383   4.987   3.161
 5211TIP3    H215511   3.338   5.133   3.157
 5212TIP3   OH215512   3.385   4.854   3.023
 5212TIP3    H115513   3.413   4.895   2.939
 5212TIP3    H215514   3.292   4.830   3.004
 5213TIP3   OH215515   3.411   5.389   2.896
 5213TIP3    H115516   3.496   5.396   2.850
 5213TIP3    H215517   3.357   5.457   2.852
 5214TIP3   OH215518   3.995   5.358   3.278
 5214TIP3    H115519   4.043   5.274   3.286
 5214TIP3    H215520   4.063   5.416   3.242
 5215TIP3   OH215521   4.035   5.609   3.012
 5215TIP3    H115522   3.978   5.664   2.953
 5215TIP3    H215523   4.123   5.629   2.972
 5216TIP3   OH215524   3.259   5.181   3.445
 5216TIP3    H115525   3.191   5.112   3.459
 5216TIP3    H215526   3.295   5.154   3.358
 5217TIP3   OH215527   3.517   4.618   3.090
 5217TIP3    H115528   3.469   4.701   3.067
 5217TIP3    H215529   3.448   4.551   3.078
 5218TIP3   OH215530   3.643   5.123   3.306
 5218TIP3    H115531   3.633   5.111   3.402
 5218TIP3    H215532   3.553   5.097   3.276
 5219TIP3   OH215533   3.883   5.072   3.160
 5219TIP3    H115534   3.807   5.073   3.222
 5219TIP3    H215535   3.956   5.041   3.218
 5220TIP3   OH215536   4.110   5.012   3.313
 5220TIP3    H115537   4.124   4.916   3.331
 5220TIP3    H215538   4.107   5.051   3.403
 5221TIP3   OH215539   3.099   4.961   3.499
 5221TIP3    H115540   3.105   4.869   3.464
 5221TIP3    H215541   3.135   4.948   3.589
 5222TIP3   OH215542   3.611   4.627   3.348
 5222TIP3    H115543   3.679   4.557   3.341
 5222TIP3    H215544   3.572   4.621   3.258
 5223TIP3   OH215545   3.676   4.842   3.506
 5223TIP3    H115546   3.654   4.771   3.442
 5223TIP3    H215547   3.599   4.901   3.499
 5224TIP3   OH215548   2.898   6.070   1.605
 5224TIP3    H115549   2.994   6.069   1.585
 5224TIP3    H215550   2.866   6.119   1.528
 5225TIP3   OH215551   2.378   5.453   1.822
 5225TIP3    H115552   2.473   5.474   1.809
 5225TIP3    H215553   2.372   5.364   1.781
 5226TIP3   OH215554   2.292   6.065   2.236
 5226TIP3    H115555   2.224   6.003   2.201
 5226TIP3    H215556   2.337   6.008   2.302
 5227TIP3   OH215557   2.429   5.917   2.422
 5227TIP3    H115558   2.416   5.844   2.484
 5227TIP3    H215559   2.479   5.979   2.478
 5228TIP3   OH215560   4.150   6.325   2.222
 5228TIP3    H115561   4.183   6.354   2.309
 5228TIP3    H215562   4.221   6.354   2.162
 5229TIP3   OH215563   4.185   6.338   2.506
 5229TIP3    H115564   4.143   6.249   2.501
 5229TIP3    H215565   4.261   6.317   2.562
 5230TIP3   OH215566   4.233   6.016   3.079
 5230TIP3    H115567   4.161   6.026   3.144
 5230TIP3    H215568   4.273   6.106   3.079
 5231TIP3   OH215569   4.045   5.530   1.695
 5231TIP3    H115570   4.117   5.591   1.668
 5231TIP3    H215571   4.087   5.489   1.775
 5232TIP3   OH215572   4.171   5.394   1.896
 5232TIP3    H115573   4.111   5.353   1.962
 5232TIP3    H215574   4.244   5.429   1.951
 5233TIP3   OH215575   4.227   5.783   2.331
 5233TIP3    H115576   4.283   5.721   2.281
 5233TIP3    H215577   4.225   5.861   2.272
 5234TIP3   OH215578   4.061   6.086   2.529
 5234TIP3    H115579   3.990   6.127   2.581
 5234TIP3    H215580   4.011   6.037   2.459
 5235TIP3   OH215581   4.111   5.302   1.548
 5235TIP3    H115582   4.037   5.307   1.485
 5235TIP3    H215583   4.090   5.378   1.605
 5236TIP3   OH215584   3.979   4.977   1.503
 5236TIP3    H115585   3.946   5.009   1.418
 5236TIP3    H215586   3.957   4.882   1.497
 5237TIP3   OH215587   3.985   5.250   2.047
 5237TIP3    H115588   3.998   5.154   2.044
 5237TIP3    H215589   3.974   5.266   2.143
 5238TIP3   OH215590   2.615   5.322   2.796
 5238TIP3    H115591   2.614   5.293   2.702
 5238TIP3    H215592   2.712   5.325   2.813
 5239TIP3   OH215593   4.277   5.675   2.904
 5239TIP3    H115594   4.350   5.610   2.895
 5239TIP3    H215595   4.306   5.746   2.844
 5240TIP3   OH215596   4.462   5.481   2.923
 5240TIP3    H115597   4.388   5.430   2.962
 5240TIP3    H215598   4.536   5.417   2.936
 5241TIP3   OH215599   3.927   4.711   1.491
 5241TIP3    H115600   4.004   4.679   1.543
 5241TIP3    H215601   3.856   4.650   1.514
 5242TIP3   OH215602   3.984   4.965   1.942
 5242TIP3    H115603   4.026   4.877   1.957
 5242TIP3    H215604   4.043   5.000   1.873
 5243TIP3   OH215605   4.148   5.142   2.437
 5243TIP3    H115606   4.234   5.168   2.397
 5243TIP3    H215607   4.161   5.179   2.526
 5244TIP3   OH215608   4.216   5.285   2.670
 5244TIP3    H115609   4.138   5.320   2.718
 5244TIP3    H215610   4.248   5.365   2.624
 5245TIP3   OH215611   2.832   5.009   3.459
 5245TIP3    H115612   2.930   5.004   3.466
 5245TIP3    H215613   2.807   4.926   3.504
 5246TIP3   OH215614   4.667   4.875   3.226
 5246TIP3    H115615   4.725   4.809   3.183
 5246TIP3    H215616   4.639   4.931   3.151
 5247TIP3   OH215617   4.094   4.716   1.981
 5247TIP3    H115618   4.143   4.700   2.064
 5247TIP3    H215619   4.034   4.639   1.979
 5248TIP3   OH215620   2.792   4.704   2.808
 5248TIP3    H115621   2.855   4.628   2.814
 5248TIP3    H215622   2.855   4.777   2.797
 5249TIP3   OH215623   2.597   4.979   2.869
 5249TIP3    H115624   2.650   4.970   2.787
 5249TIP3    H215625   2.628   5.065   2.902
 5250TIP3   OH215626   4.538   5.015   3.033
 5250TIP3    H115627   4.451   5.055   3.052
 5250TIP3    H215628   4.511   4.944   2.973
 5251TIP3   OH215629   4.175   4.652   1.612
 5251TIP3    H115630   4.216   4.580   1.560
 5251TIP3    H215631   4.242   4.722   1.607
 5252TIP3   OH215632   2.580   4.484   2.377
 5252TIP3    H115633   2.486   4.479   2.400
 5252TIP3    H215634   2.579   4.540   2.296
 5253TIP3   OH215635   3.734   6.185   1.876
 5253TIP3    H115636   3.792   6.170   1.798
 5253TIP3    H215637   3.788   6.247   1.929
 5254TIP3   OH215638   2.801   4.570   3.192
 5254TIP3    H115639   2.749   4.553   3.272
 5254TIP3    H215640   2.731   4.593   3.128
 5255TIP3   OH215641   2.840   5.987   3.265
 5255TIP3    H115642   2.748   5.960   3.249
 5255TIP3    H215643   2.850   5.969   3.360
 5256TIP3   OH215644   3.018   6.019   2.813
 5256TIP3    H115645   2.971   6.095   2.774
 5256TIP3    H215646   3.105   6.033   2.768
 5257TIP3   OH215647   3.464   6.266   2.951
 5257TIP3    H115648   3.507   6.265   3.040
 5257TIP3    H215649   3.531   6.315   2.899
 5258TIP3   OH215650   3.644   6.416   2.809
 5258TIP3    H115651   3.715   6.365   2.768
 5258TIP3    H215652   3.695   6.474   2.869
 5259TIP3   OH215653   4.437   4.778   2.909
 5259TIP3    H115654   4.346   4.773   2.876
 5259TIP3    H215655   4.468   4.686   2.896
 5260TIP3   OH215656   2.695   6.277   2.836
 5260TIP3    H115657   2.606   6.311   2.813
 5260TIP3    H215658   2.705   6.313   2.924
 5261TIP3   OH215659   2.931   6.255   2.694
 5261TIP3    H115660   2.845   6.268   2.739
 5261TIP3    H215661   2.911   6.288   2.604
 5262TIP3   OH215662   3.357   6.285   2.491
 5262TIP3    H115663   3.288   6.307   2.426
 5262TIP3    H215664   3.371   6.372   2.535
 5263TIP3   OH215665   3.626   6.223   2.543
 5263TIP3    H115666   3.532   6.241   2.523
 5263TIP3    H215667   3.670   6.299   2.501
 5264TIP3   OH215668   3.830   6.415   2.458
 5264TIP3    H115669   3.819   6.500   2.411
 5264TIP3    H215670   3.860   6.356   2.385
 5265TIP3   OH215671   2.606   6.071   2.581
 5265TIP3    H115672   2.633   6.045   2.672
 5265TIP3    H215673   2.679   6.028   2.530
 5266TIP3   OH215674   2.801   5.942   2.438
 5266TIP3    H115675   2.816   5.858   2.487
 5266TIP3    H215676   2.891   5.979   2.435
 5267TIP3   OH215677   3.066   6.037   2.441
 5267TIP3    H115678   3.098   5.945   2.430
 5267TIP3    H215679   3.111   6.059   2.525
 5268TIP3   OH215680   3.639   4.692   2.525
 5268TIP3    H115681   3.599   4.622   2.579
 5268TIP3    H215682   3.714   4.645   2.483
 5269TIP3   OH215683   4.165   4.573   2.434
 5269TIP3    H115684   4.202   4.625   2.359
 5269TIP3    H215685   4.070   4.593   2.427
 5270TIP3   OH215686   4.260   4.673   2.198
 5270TIP3    H115687   4.333   4.621   2.157
 5270TIP3    H215688   4.294   4.764   2.183
 5271TIP3   OH215689   2.890   4.401   2.545
 5271TIP3    H115690   2.799   4.367   2.547
 5271TIP3    H215691   2.941   4.317   2.543
 5272TIP3   OH215692   2.672   4.272   2.191
 5272TIP3    H115693   2.707   4.328   2.119
 5272TIP3    H215694   2.649   4.338   2.259
 5273TIP3   OH215695   3.332   4.437   2.425
 5273TIP3    H115696   3.392   4.485   2.366
 5273TIP3    H215697   3.359   4.470   2.512
 5274TIP3   OH215698   3.880   4.581   2.410
 5274TIP3    H115699   3.881   4.544   2.321
 5274TIP3    H215700   3.868   4.500   2.465
 5275TIP3   OH215701   3.912   4.503   1.971
 5275TIP3    H115702   3.824   4.545   1.982
 5275TIP3    H215703   3.897   4.418   2.018
 5276TIP3   OH215704   2.395   5.842   1.972
 5276TIP3    H115705   2.310   5.809   1.938
 5276TIP3    H215706   2.384   5.937   1.955
 5277TIP3   OH215707   2.794   4.432   1.956
 5277TIP3    H115708   2.843   4.368   1.900
 5277TIP3    H215709   2.868   4.486   1.992
 5278TIP3   OH215710   3.307   4.606   2.054
 5278TIP3    H115711   3.367   4.559   2.115
 5278TIP3    H215712   3.328   4.699   2.080
 5279TIP3   OH215713   3.168   6.027   1.551
 5279TIP3    H115714   3.254   6.053   1.513
 5279TIP3    H215715   3.147   5.951   1.493
 5280TIP3   OH215716   3.883   6.147   1.645
 5280TIP3    H115717   3.869   6.051   1.631
 5280TIP3    H215718   3.842   6.183   1.565
 5281TIP3   OH215719   3.098   4.685   3.438
 5281TIP3    H115720   3.065   4.612   3.493
 5281TIP3    H215721   3.193   4.685   3.463
 5282TIP3   OH215722   3.347   4.681   3.555
 5282TIP3    H115723   3.432   4.656   3.515
 5282TIP3    H215724   3.334   4.610   3.621
 5283TIP3   OH215725   2.470   5.869   1.612
 5283TIP3    H115726   2.469   5.894   1.705
 5283TIP3    H215727   2.559   5.827   1.602
 5284TIP3   OH215728   4.172   4.741   3.343
 5284TIP3    H115729   4.192   4.710   3.434
 5284TIP3    H215730   4.260   4.737   3.300
 5285TIP3   OH215731   4.111   6.295   2.832
 5285TIP3    H115732   4.031   6.264   2.785
 5285TIP3    H215733   4.093   6.390   2.838
 5286TIP3   OH215734   5.379   5.666   1.601
 5286TIP3    H115735   5.351   5.758   1.581
 5286TIP3    H215736   5.300   5.618   1.571
 5287TIP3   OH215737   5.384   5.663   1.979
 5287TIP3    H115738   5.409   5.636   2.069
 5287TIP3    H215739   5.334   5.586   1.947
 5288TIP3   OH215740   4.671   5.565   2.368
 5288TIP3    H115741   4.714   5.495   2.421
 5288TIP3    H215742   4.747   5.611   2.329
 5289TIP3   OH215743   5.622   5.967   1.663
 5289TIP3    H115744   5.604   5.899   1.730
 5289TIP3    H215745   5.648   6.043   1.717
 5290TIP3   OH215746   4.355   5.169   1.857
 5290TIP3    H115747   4.316   5.257   1.874
 5290TIP3    H215748   4.279   5.123   1.818
 5291TIP3   OH215749   4.411   5.458   2.018
 5291TIP3    H115750   4.463   5.388   2.061
 5291TIP3    H215751   4.483   5.520   1.991
 5292TIP3   OH215752   5.270   6.431   1.679
 5292TIP3    H115753   5.318   6.359   1.632
 5292TIP3    H215754   5.258   6.392   1.767
 5293TIP3   OH215755   5.176   5.883   2.037
 5293TIP3    H115756   5.213   5.814   1.979
 5293TIP3    H215757   5.259   5.932   2.058
 5294TIP3   OH215758   6.189   5.211   2.028
 5294TIP3    H115759   6.217   5.295   2.072
 5294TIP3    H215760   6.209   5.232   1.935
 5295TIP3   OH215761   5.589   5.393   2.064
 5295TIP3    H115762   5.630   5.307   2.082
 5295TIP3    H215763   5.557   5.379   1.973
 5296TIP3   OH215764   4.926   5.052   2.029
 5296TIP3    H115765   4.905   5.125   1.967
 5296TIP3    H215766   4.877   4.979   1.985
 5297TIP3   OH215767   5.620   5.142   1.651
 5297TIP3    H115768   5.693   5.128   1.716
 5297TIP3    H215769   5.670   5.179   1.576
 5298TIP3   OH215770   4.557   5.253   2.138
 5298TIP3    H115771   4.642   5.236   2.183
 5298TIP3    H215772   4.571   5.202   2.055
 5299TIP3   OH215773   5.003   5.447   1.935
 5299TIP3    H115774   5.097   5.422   1.944
 5299TIP3    H215775   4.963   5.365   1.898
 5300TIP3   OH215776   6.261   5.418   2.199
 5300TIP3    H115777   6.178   5.467   2.180
 5300TIP3    H215778   6.278   5.447   2.290
 5301TIP3   OH215779   4.922   5.035   2.463
 5301TIP3    H115780   4.864   5.073   2.395
 5301TIP3    H215781   4.870   5.055   2.544
 5302TIP3   OH215782   5.274   5.888   1.469
 5302TIP3    H115783   5.225   5.865   1.389
 5302TIP3    H215784   5.230   5.973   1.492
 5303TIP3   OH215785   5.029   5.810   2.260
 5303TIP3    H115786   4.966   5.877   2.294
 5303TIP3    H215787   5.070   5.858   2.185
 5304TIP3   OH215788   5.831   5.145   1.823
 5304TIP3    H115789   5.818   5.100   1.907
 5304TIP3    H215790   5.884   5.223   1.849
 5305TIP3   OH215791   4.794   5.150   2.247
 5305TIP3    H115792   4.855   5.225   2.268
 5305TIP3    H215793   4.843   5.110   2.172
 5306TIP3   OH215794   4.859   6.005   2.359
 5306TIP3    H115795   4.833   6.086   2.312
 5306TIP3    H215796   4.779   5.991   2.414
 5307TIP3   OH215797   4.249   5.691   1.594
 5307TIP3    H115798   4.216   5.729   1.511
 5307TIP3    H215799   4.279   5.773   1.641
 5308TIP3   OH215800   5.693   6.210   1.831
 5308TIP3    H115801   5.603   6.202   1.871
 5308TIP3    H215802   5.684   6.296   1.786
 5309TIP3   OH215803   5.982   5.110   2.193
 5309TIP3    H115804   5.895   5.141   2.165
 5309TIP3    H215805   6.041   5.143   2.122
 5310TIP3   OH215806   5.280   4.756   2.177
 5310TIP3    H115807   5.266   4.660   2.194
 5310TIP3    H215808   5.202   4.793   2.223
 5311TIP3   OH215809   5.398   6.258   1.510
 5311TIP3    H115810   5.446   6.176   1.486
 5311TIP3    H215811   5.455   6.324   1.465
 5312TIP3   OH215812   5.537   6.042   1.411
 5312TIP3    H115813   5.491   5.964   1.377
 5312TIP3    H215814   5.573   6.008   1.495
 5313TIP3   OH215815   5.917   6.124   2.175
 5313TIP3    H115816   5.906   6.047   2.116
 5313TIP3    H215817   5.899   6.199   2.114
 5314TIP3   OH215818   5.208   5.516   1.432
 5314TIP3    H115819   5.127   5.568   1.414
 5314TIP3    H215820   5.253   5.518   1.346
 5315TIP3   OH215821   5.167   5.303   1.148
 5315TIP3    H115822   5.234   5.352   1.199
 5315TIP3    H215823   5.224   5.240   1.100
 5316TIP3   OH215824   6.112   5.760   2.019
 5316TIP3    H115825   6.030   5.812   2.025
 5316TIP3    H215826   6.142   5.784   1.929
 5317TIP3   OH215827   5.555   5.599   1.404
 5317TIP3    H115828   5.500   5.625   1.481
 5317TIP3    H215829   5.639   5.574   1.448
 5318TIP3   OH215830   5.791   5.639   2.315
 5318TIP3    H115831   5.788   5.724   2.364
 5318TIP3    H215832   5.705   5.642   2.270
 5319TIP3   OH215833   4.805   5.591   1.801
 5319TIP3    H115834   4.755   5.529   1.746
 5319TIP3    H215835   4.871   5.536   1.846
 5320TIP3   OH215836   4.940   6.042   1.952
 5320TIP3    H115837   4.862   5.990   1.923
 5320TIP3    H215838   5.007   5.974   1.968
 5321TIP3   OH215839   4.916   5.572   2.173
 5321TIP3    H115840   4.952   5.549   2.085
 5321TIP3    H215841   4.963   5.656   2.194
 5322TIP3   OH215842   5.453   6.207   1.952
 5322TIP3    H115843   5.435   6.286   2.006
 5322TIP3    H215844   5.435   6.133   2.014
 5323TIP3   OH215845   5.062   6.125   2.501
 5323TIP3    H115846   5.002   6.189   2.544
 5323TIP3    H215847   4.997   6.073   2.450
 5324TIP3   OH215848   5.398   5.456   1.230
 5324TIP3    H115849   5.456   5.516   1.282
 5324TIP3    H215850   5.423   5.482   1.138
 5325TIP3   OH215851   4.821   5.678   2.608
 5325TIP3    H115852   4.822   5.768   2.648
 5325TIP3    H215853   4.725   5.663   2.602
 5326TIP3   OH215854   5.144   6.133   1.497
 5326TIP3    H115855   5.216   6.193   1.525
 5326TIP3    H215856   5.074   6.195   1.472
 5327TIP3   OH215857   4.857   6.296   2.586
 5327TIP3    H115858   4.823   6.293   2.494
 5327TIP3    H215859   4.777   6.272   2.638
 5328TIP3   OH215860   5.912   4.699   1.278
 5328TIP3    H115861   5.831   4.720   1.329
 5328TIP3    H215862   5.925   4.782   1.228
 5329TIP3   OH215863   4.661   5.431   1.611
 5329TIP3    H115864   4.593   5.486   1.567
 5329TIP3    H215865   4.608   5.357   1.643
 5330TIP3   OH215866   5.710   6.065   0.825
 5330TIP3    H115867   5.718   6.162   0.815
 5330TIP3    H215868   5.803   6.037   0.814
 5331TIP3   OH215869   4.434   5.825   2.532
 5331TIP3    H115870   4.373   5.800   2.461
 5331TIP3    H215871   4.474   5.738   2.557
 5332TIP3   OH215872   4.285   6.013   2.173
 5332TIP3    H115873   4.376   6.001   2.142
 5332TIP3    H215874   4.292   6.095   2.224
 5333TIP3   OH215875   6.154   6.469   2.221
 5333TIP3    H115876   6.153   6.372   2.234
 5333TIP3    H215877   6.071   6.494   2.266
 5334TIP3   OH215878   5.263   6.253   2.358
 5334TIP3    H115879   5.260   6.347   2.388
 5334TIP3    H215880   5.189   6.215   2.410
 5335TIP3   OH215881   5.021   6.387   1.306
 5335TIP3    H115882   4.972   6.367   1.224
 5335TIP3    H215883   4.987   6.475   1.330
 5336TIP3   OH215884   4.454   6.230   1.694
 5336TIP3    H115885   4.512   6.227   1.774
 5336TIP3    H215886   4.409   6.145   1.705
 5337TIP3   OH215887   5.221   6.284   0.949
 5337TIP3    H115888   5.280   6.215   0.912
 5337TIP3    H215889   5.257   6.293   1.040
 5338TIP3   OH215890   5.273   6.333   1.218
 5338TIP3    H115891   5.184   6.343   1.260
 5338TIP3    H215892   5.322   6.290   1.289
 5339TIP3   OH215893   6.045   5.600   2.496
 5339TIP3    H115894   5.964   5.614   2.444
 5339TIP3    H215895   6.059   5.504   2.485
 5340TIP3   OH215896   4.640   6.008   2.521
 5340TIP3    H115897   4.690   5.991   2.604
 5340TIP3    H215898   4.566   5.944   2.529
 5341TIP3   OH215899   5.040   4.831   2.305
 5341TIP3    H115900   4.950   4.801   2.279
 5341TIP3    H215901   5.016   4.914   2.350
 5342TIP3   OH215902   5.573   4.946   2.500
 5342TIP3    H115903   5.641   4.919   2.565
 5342TIP3    H215904   5.489   4.926   2.546
 5343TIP3   OH215905   5.814   5.376   2.418
 5343TIP3    H115906   5.765   5.372   2.503
 5343TIP3    H215907   5.788   5.463   2.382
 5344TIP3   OH215908   5.471   5.504   0.973
 5344TIP3    H115909   5.440   5.478   0.884
 5344TIP3    H215910   5.552   5.553   0.951
 5345TIP3   OH215911   5.186   4.879   1.276
 5345TIP3    H115912   5.154   4.879   1.368
 5345TIP3    H215913   5.146   4.796   1.243
 5346TIP3   OH215914   4.972   5.348   2.321
 5346TIP3    H115915   4.923   5.367   2.403
 5346TIP3    H215916   4.954   5.429   2.268
 5347TIP3   OH215917   4.858   5.230   1.837
 5347TIP3    H115918   4.764   5.209   1.855
 5347TIP3    H215919   4.868   5.191   1.748
 5348TIP3   OH215920   5.346   5.318   1.565
 5348TIP3    H115921   5.292   5.390   1.524
 5348TIP3    H215922   5.400   5.289   1.489
 5349TIP3   OH215923   5.521   5.597   2.652
 5349TIP3    H115924   5.498   5.524   2.714
 5349TIP3    H215925   5.615   5.611   2.674
 5350TIP3   OH215926   5.504   5.347   1.805
 5350TIP3    H115927   5.444   5.379   1.735
 5350TIP3    H215928   5.535   5.265   1.761
 5351TIP3   OH215929   4.797   5.374   2.534
 5351TIP3    H115930   4.818   5.440   2.602
 5351TIP3    H215931   4.783   5.293   2.587
 5352TIP3   OH215932   4.841   4.853   1.242
 5352TIP3    H115933   4.832   4.851   1.340
 5352TIP3    H215934   4.763   4.906   1.218
 5353TIP3   OH215935   4.383   4.897   2.114
 5353TIP3    H115936   4.458   4.931   2.168
 5353TIP3    H215937   4.425   4.869   2.032
 5354TIP3   OH215938   4.356   4.878   1.631
 5354TIP3    H115939   4.401   4.918   1.554
 5354TIP3    H215940   4.297   4.952   1.656
 5355TIP3   OH215941   5.516   5.594   2.229
 5355TIP3    H115942   5.547   5.522   2.169
 5355TIP3    H215943   5.485   5.540   2.305
 5356TIP3   OH215944   5.182   5.051   1.899
 5356TIP3    H115945   5.099   5.052   1.950
 5356TIP3    H215946   5.249   5.056   1.969
 5357TIP3   OH215947   4.617   5.111   1.908
 5357TIP3    H115948   4.523   5.119   1.881
 5357TIP3    H215949   4.641   5.020   1.883
 5358TIP3   OH215950   4.887   5.103   1.595
 5358TIP3    H115951   4.980   5.124   1.573
 5358TIP3    H215952   4.839   5.130   1.513
 5359TIP3   OH215953   5.675   5.129   2.100
 5359TIP3    H115954   5.641   5.142   2.191
 5359TIP3    H215955   5.607   5.069   2.064
 5360TIP3   OH215956   4.728   5.136   1.373
 5360TIP3    H115957   4.656   5.095   1.324
 5360TIP3    H215958   4.780   5.175   1.300
 5361TIP3   OH215959   5.845   6.819   2.320
 5361TIP3    H115960   5.842   6.843   2.225
 5361TIP3    H215961   5.923   6.868   2.350
 5362TIP3   OH215962   4.801   5.929   2.741
 5362TIP3    H115963   4.880   5.961   2.788
 5362TIP3    H215964   4.736   5.930   2.814
 5363TIP3   OH215965   5.268   5.380   1.997
 5363TIP3    H115966   5.342   5.343   1.947
 5363TIP3    H215967   5.279   5.339   2.084
 5364TIP3   OH215968   4.789   4.870   1.875
 5364TIP3    H115969   4.755   4.790   1.920
 5364TIP3    H215970   4.838   4.833   1.801
 5365TIP3   OH215971   5.242   5.277   2.289
 5365TIP3    H115972   5.153   5.315   2.300
 5365TIP3    H215973   5.299   5.340   2.338
 5366TIP3   OH215974   4.980   5.670   1.385
 5366TIP3    H115975   4.906   5.607   1.373
 5366TIP3    H215976   4.959   5.708   1.474
 5367TIP3   OH215977   5.880   5.906   2.011
 5367TIP3    H115978   5.904   5.955   1.930
 5367TIP3    H215979   5.794   5.866   1.986
 5368TIP3   OH215980   5.437   4.984   1.240
 5368TIP3    H115981   5.341   4.968   1.251
 5368TIP3    H215982   5.448   5.078   1.266
 5369TIP3   OH215983   5.382   5.989   2.378
 5369TIP3    H115984   5.398   5.968   2.471
 5369TIP3    H215985   5.340   6.077   2.383
 5370TIP3   OH215986   5.507   5.228   1.345
 5370TIP3    H115987   5.603   5.236   1.361
 5370TIP3    H215988   5.487   5.309   1.293
 5371TIP3   OH215989   4.642   5.627   2.056
 5371TIP3    H115990   4.663   5.694   1.988
 5371TIP3    H215991   4.729   5.612   2.095
 5372TIP3   OH215992   5.122   5.818   1.200
 5372TIP3    H115993   5.076   5.905   1.208
 5372TIP3    H215994   5.069   5.764   1.263
 5373TIP3   OH215995   4.549   5.615   2.672
 5373TIP3    H115996   4.572   5.599   2.766
 5373TIP3    H215997   4.483   5.546   2.655
 5374TIP3   OH215998   5.277   5.726   2.692
 5374TIP3    H115999   5.217   5.670   2.640
 5374TIP3    H216000   5.364   5.693   2.662
 5375TIP3   OH216001   5.541   6.249   2.275
 5375TIP3    H116002   5.444   6.246   2.286
 5375TIP3    H216003   5.566   6.301   2.353
 5376TIP3   OH216004   5.950   5.320   1.183
 5376TIP3    H116005   5.887   5.275   1.122
 5376TIP3    H216006   5.946   5.409   1.141
 5377TIP3   OH216007   6.167   6.177   2.264
 5377TIP3    H116008   6.069   6.172   2.255
 5377TIP3    H216009   6.194   6.148   2.174
 5378TIP3   OH216010   5.648   6.139   1.091
 5378TIP3    H116011   5.624   6.069   1.153
 5378TIP3    H216012   5.661   6.091   1.007
 5379TIP3   OH216013   5.646   5.768   1.930
 5379TIP3    H116014   5.552   5.742   1.943
 5379TIP3    H216015   5.680   5.689   1.884
 5380TIP3   OH216016   4.335   5.301   1.385
 5380TIP3    H116017   4.384   5.384   1.407
 5380TIP3    H216018   4.259   5.308   1.447
 5381TIP3   OH216019   4.902   5.774   1.625
 5381TIP3    H116020   4.873   5.859   1.661
 5381TIP3    H216021   4.865   5.716   1.695
 5382TIP3   OH216022   5.041   6.343   2.157
 5382TIP3    H116023   5.081   6.412   2.100
 5382TIP3    H216024   5.120   6.305   2.199
 5383TIP3   OH216025   4.678   6.248   1.509
 5383TIP3    H116026   4.612   6.230   1.578
 5383TIP3    H216027   4.709   6.337   1.532
 5384TIP3   OH216028   5.432   5.975   2.109
 5384TIP3    H116029   5.422   5.973   2.207
 5384TIP3    H216030   5.511   5.920   2.096
 5385TIP3   OH216031   5.404   5.865   0.992
 5385TIP3    H116032   5.458   5.841   1.071
 5385TIP3    H216033   5.315   5.841   1.024
 5386TIP3   OH216034   5.679   6.509   2.161
 5386TIP3    H116035   5.600   6.451   2.153
 5386TIP3    H216036   5.663   6.572   2.088
 5387TIP3   OH216037   5.743   6.338   0.817
 5387TIP3    H116038   5.766   6.400   0.745
 5387TIP3    H216039   5.666   6.387   0.853
 5388TIP3   OH216040   4.764   5.118   2.680
 5388TIP3    H116041   4.668   5.122   2.692
 5388TIP3    H216042   4.791   5.057   2.751
 5389TIP3   OH216043   5.564   5.798   1.206
 5389TIP3    H116044   5.555   5.734   1.280
 5389TIP3    H216045   5.661   5.798   1.196
 5390TIP3   OH216046   4.476   6.203   2.315
 5390TIP3    H116047   4.527   6.128   2.347
 5390TIP3    H216048   4.511   6.275   2.370
 5391TIP3   OH216049   4.769   5.847   0.991
 5391TIP3    H116050   4.786   5.755   0.965
 5391TIP3    H216051   4.753   5.837   1.087
 5392TIP3   OH216052   4.715   5.851   1.263
 5392TIP3    H116053   4.778   5.824   1.332
 5392TIP3    H216054   4.718   5.949   1.271
 5393TIP3   OH216055   4.449   5.544   1.468
 5393TIP3    H116056   4.387   5.590   1.529
 5393TIP3    H216057   4.469   5.617   1.406
 5394TIP3   OH216058   5.601   5.182   2.358
 5394TIP3    H116059   5.680   5.221   2.399
 5394TIP3    H216060   5.586   5.102   2.412
 5395TIP3   OH216061   5.482   4.933   1.523
 5395TIP3    H116062   5.467   4.959   1.430
 5395TIP3    H216063   5.521   5.015   1.560
 5396TIP3   OH216064   4.981   6.049   1.210
 5396TIP3    H116065   4.895   6.074   1.248
 5396TIP3    H216066   4.999   6.127   1.155
 5397TIP3   OH216067   5.171   5.112   1.626
 5397TIP3    H116068   5.235   5.185   1.609
 5397TIP3    H216069   5.175   5.106   1.724
 5398TIP3   OH216070   5.438   5.431   2.435
 5398TIP3    H116071   5.458   5.487   2.513
 5398TIP3    H216072   5.495   5.354   2.450
 5399TIP3   OH216073   5.315   4.841   1.730
 5399TIP3    H116074   5.304   4.918   1.788
 5399TIP3    H216075   5.375   4.878   1.661
 5400TIP3   OH216076   4.723   6.123   1.273
 5400TIP3    H116077   4.694   6.196   1.214
 5400TIP3    H216078   4.707   6.164   1.362
 5401TIP3   OH216079   4.826   4.837   1.519
 5401TIP3    H116080   4.823   4.929   1.553
 5401TIP3    H216081   4.922   4.821   1.527
 5402TIP3   OH216082   6.080   5.332   2.416
 5402TIP3    H116083   5.982   5.331   2.423
 5402TIP3    H216084   6.091   5.295   2.327
 5403TIP3   OH216085   5.731   5.526   1.804
 5403TIP3    H116086   5.654   5.468   1.816
 5403TIP3    H216087   5.802   5.479   1.852
 5404TIP3   OH216088   4.441   5.759   1.272
 5404TIP3    H116089   4.507   5.829   1.287
 5404TIP3    H216090   4.490   5.705   1.207
 5405TIP3   OH216091   4.388   5.031   1.406
 5405TIP3    H116092   4.388   5.128   1.402
 5405TIP3    H216093   4.305   5.008   1.363
 5406TIP3   OH216094   5.699   6.483   1.754
 5406TIP3    H116095   5.656   6.529   1.678
 5406TIP3    H216096   5.793   6.501   1.733
 5407TIP3   OH216097   4.776   4.751   2.280
 5407TIP3    H116098   4.744   4.718   2.193
 5407TIP3    H216099   4.764   4.672   2.337
 5408TIP3   OH216100   4.292   5.953   1.667
 5408TIP3    H116101   4.222   6.012   1.697
 5408TIP3    H216102   4.316   5.993   1.582
 5409TIP3   OH216103   4.470   6.513   2.731
 5409TIP3    H116104   4.555   6.515   2.780
 5409TIP3    H216105   4.449   6.418   2.732
 5410TIP3   OH216106   4.956   6.476   2.777
 5410TIP3    H116107   5.050   6.453   2.781
 5410TIP3    H216108   4.926   6.419   2.704
 5411TIP3   OH216109   4.932   6.051   0.903
 5411TIP3    H116110   4.876   5.982   0.945
 5411TIP3    H216111   5.009   5.998   0.877
 5412TIP3   OH216112   5.590   6.384   2.511
 5412TIP3    H116113   5.582   6.312   2.578
 5412TIP3    H216114   5.669   6.433   2.541
 5413TIP3   OH216115   5.368   6.091   0.817
 5413TIP3    H116116   5.414   6.029   0.876
 5413TIP3    H216117   5.428   6.096   0.740
 5414TIP3   OH216118   4.601   5.916   2.933
 5414TIP3    H116119   4.618   5.820   2.934
 5414TIP3    H216120   4.513   5.920   2.889
 5415TIP3   OH216121   4.578   5.568   1.125
 5415TIP3    H116122   4.633   5.536   1.200
 5415TIP3    H216123   4.646   5.572   1.055
 5416TIP3   OH216124   5.209   6.002   2.706
 5416TIP3    H116125   5.166   6.019   2.620
 5416TIP3    H216126   5.239   5.909   2.697
 5417TIP3   OH216127   5.086   5.766   0.932
 5417TIP3    H116128   5.089   5.780   1.029
 5417TIP3    H216129   5.086   5.668   0.928
 5418TIP3   OH216130   5.703   6.010   2.313
 5418TIP3    H116131   5.775   6.057   2.267
 5418TIP3    H216132   5.630   6.073   2.300
 5419TIP3   OH216133   4.718   5.649   2.916
 5419TIP3    H116134   4.796   5.599   2.890
 5419TIP3    H216135   4.745   5.683   3.004
 5420TIP3   OH216136   4.783   5.473   1.346
 5420TIP3    H116137   4.757   5.437   1.433
 5420TIP3    H216138   4.819   5.394   1.301
 5421TIP3   OH216139   5.058   5.537   2.577
 5421TIP3    H116140   4.979   5.595   2.581
 5421TIP3    H216141   5.104   5.571   2.497
 5422TIP3   OH216142   4.887   5.263   1.189
 5422TIP3    H116143   4.860   5.267   1.095
 5422TIP3    H216144   4.984   5.272   1.181
 5423TIP3   OH216145   5.572   5.938   2.711
 5423TIP3    H116146   5.651   5.914   2.661
 5423TIP3    H216147   5.570   5.870   2.781
 5424TIP3   OH216148   5.708   5.596   0.851
 5424TIP3    H116149   5.687   5.549   0.768
 5424TIP3    H216150   5.677   5.686   0.827
 5425TIP3   OH216151   5.178   5.324   2.703
 5425TIP3    H116152   5.178   5.245   2.646
 5425TIP3    H216153   5.136   5.391   2.645
 5426TIP3   OH216154   5.182   5.109   2.509
 5426TIP3    H116155   5.208   5.152   2.425
 5426TIP3    H216156   5.088   5.087   2.491
 5427TIP3   OH216157   5.210   5.648   2.383
 5427TIP3    H116158   5.291   5.657   2.332
 5427TIP3    H216159   5.151   5.714   2.340
 5428TIP3   OH216160   5.791   5.614   2.764
 5428TIP3    H116161   5.840   5.531   2.774
 5428TIP3    H216162   5.859   5.673   2.728
 5429TIP3   OH216163   5.832   5.866   2.501
 5429TIP3    H116164   5.774   5.920   2.441
 5429TIP3    H216165   5.919   5.886   2.460
 5430TIP3   OH216166   5.058   5.436   2.934
 5430TIP3    H116167   4.988   5.368   2.946
 5430TIP3    H216168   5.092   5.412   2.845
 5431TIP3   OH216169   5.313   4.875   2.576
 5431TIP3    H116170   5.265   4.957   2.553
 5431TIP3    H216171   5.243   4.807   2.564
 5432TIP3   OH216172   5.440   5.379   2.792
 5432TIP3    H116173   5.427   5.368   2.888
 5432TIP3    H216174   5.350   5.354   2.761
 5433TIP3   OH216175   5.679   5.327   2.647
 5433TIP3    H116176   5.603   5.329   2.708
 5433TIP3    H216177   5.751   5.297   2.705
 5434TIP3   OH216178   5.909   5.269   2.799
 5434TIP3    H116179   5.920   5.173   2.818
 5434TIP3    H216180   5.903   5.308   2.889
 5435TIP3   OH216181   4.895   5.216   2.986
 5435TIP3    H116182   4.903   5.126   2.950
 5435TIP3    H216183   4.931   5.204   3.076
 5436TIP3   OH216184   5.408   4.884   2.834
 5436TIP3    H116185   5.476   4.814   2.827
 5436TIP3    H216186   5.368   4.879   2.745
 5437TIP3   OH216187   5.473   5.099   2.993
 5437TIP3    H116188   5.451   5.028   2.928
 5437TIP3    H216189   5.395   5.158   2.986
 5438TIP3   OH216190   4.693   6.329   1.089
 5438TIP3    H116191   4.789   6.323   1.074
 5438TIP3    H216192   4.667   6.380   1.010
 5439TIP3   OH216193   4.174   5.710   1.301
 5439TIP3    H116194   4.270   5.733   1.294
 5439TIP3    H216195   4.174   5.619   1.265
 5440TIP3   OH216196   4.085   6.322   1.722
 5440TIP3    H116197   4.019   6.257   1.689
 5440TIP3    H216198   4.133   6.268   1.789
 5441TIP3   OH216199   4.220   6.178   1.909
 5441TIP3    H116200   4.219   6.096   1.960
 5441TIP3    H216201   4.275   6.235   1.965
 5442TIP3   OH216202   5.952   6.573   1.709
 5442TIP3    H116203   5.978   6.607   1.796
 5442TIP3    H216204   6.014   6.618   1.649
 5443TIP3   OH216205   5.981   6.594   1.992
 5443TIP3    H116206   5.937   6.507   1.987
 5443TIP3    H216207   6.057   6.572   2.048
 5444TIP3   OH216208   6.028   6.270   2.565
 5444TIP3    H116209   5.955   6.278   2.629
 5444TIP3    H216210   6.069   6.359   2.569
 5445TIP3   OH216211   5.844   5.783   1.184
 5445TIP3    H116212   5.912   5.848   1.156
 5445TIP3    H216213   5.887   5.744   1.263
 5446TIP3   OH216214   5.972   5.650   1.387
 5446TIP3    H116215   5.906   5.609   1.447
 5446TIP3    H216216   6.036   5.689   1.450
 5447TIP3   OH216217   6.026   6.043   1.821
 5447TIP3    H116218   6.079   5.979   1.769
 5447TIP3    H216219   6.017   6.117   1.759
 5448TIP3   OH216220   5.857   6.343   2.016
 5448TIP3    H116221   5.786   6.385   2.067
 5448TIP3    H216222   5.807   6.295   1.946
 5449TIP3   OH216223   5.909   5.558   1.035
 5449TIP3    H116224   5.837   5.562   0.968
 5449TIP3    H216225   5.884   5.635   1.090
 5450TIP3   OH216226   5.780   5.230   0.991
 5450TIP3    H116227   5.740   5.273   0.914
 5450TIP3    H216228   5.754   5.137   0.977
 5451TIP3   OH216229   5.786   5.507   1.534
 5451TIP3    H116230   5.794   5.410   1.530
 5451TIP3    H216231   5.771   5.523   1.630
 5452TIP3   OH216232   4.413   5.579   2.280
 5452TIP3    H116233   4.416   5.557   2.185
 5452TIP3    H216234   4.509   5.583   2.299
 5453TIP3   OH216235   6.074   5.931   2.392
 5453TIP3    H116236   6.147   5.866   2.382
 5453TIP3    H216237   6.100   6.001   2.330
 5454TIP3   OH216238   6.260   5.738   2.408
 5454TIP3    H116239   6.185   5.688   2.447
 5454TIP3    H216240   6.332   5.673   2.422
 5455TIP3   OH216241   5.725   4.963   0.972
 5455TIP3    H116242   5.800   4.936   1.030
 5455TIP3    H216243   5.652   4.907   1.002
 5456TIP3   OH216244   5.781   5.223   1.430
 5456TIP3    H116245   5.823   5.135   1.445
 5456TIP3    H216246   5.839   5.258   1.360
 5457TIP3   OH216247   5.944   5.396   1.924
 5457TIP3    H116248   6.030   5.423   1.884
 5457TIP3    H216249   5.956   5.434   2.013
 5458TIP3   OH216250   6.012   5.541   2.157
 5458TIP3    H116251   5.934   5.575   2.205
 5458TIP3    H216252   6.043   5.622   2.111
 5459TIP3   OH216253   4.627   5.266   2.954
 5459TIP3    H116254   4.725   5.262   2.956
 5459TIP3    H216255   4.605   5.182   2.997
 5460TIP3   OH216256   6.464   5.132   2.713
 5460TIP3    H116257   6.522   5.066   2.669
 5460TIP3    H216258   6.435   5.188   2.638
 5461TIP3   OH216259   5.891   4.973   1.467
 5461TIP3    H116260   5.939   4.957   1.551
 5461TIP3    H216261   5.830   4.896   1.465
 5462TIP3   OH216262   4.590   4.959   2.289
 5462TIP3    H116263   4.655   4.886   2.298
 5462TIP3    H216264   4.650   5.035   2.281
 5463TIP3   OH216265   4.394   5.234   2.361
 5463TIP3    H116266   4.442   5.227   2.276
 5463TIP3    H216267   4.420   5.323   2.389
 5464TIP3   OH216268   6.335   5.272   2.520
 5464TIP3    H116269   6.248   5.312   2.541
 5464TIP3    H216270   6.306   5.201   2.460
 5465TIP3   OH216271   5.971   4.909   1.100
 5465TIP3    H116272   6.014   4.837   1.048
 5465TIP3    H216273   6.037   4.980   1.094
 5466TIP3   OH216274   4.376   4.735   1.859
 5466TIP3    H116275   4.283   4.735   1.887
 5466TIP3    H216276   4.375   4.794   1.782
 5467TIP3   OH216277   5.535   6.441   1.366
 5467TIP3    H116278   5.586   6.425   1.284
 5467TIP3    H216279   5.590   6.507   1.411
 5468TIP3   OH216280   4.597   4.816   2.675
 5468TIP3    H116281   4.546   4.812   2.758
 5468TIP3    H216282   4.530   4.855   2.615
 5469TIP3   OH216283   4.637   6.241   2.753
 5469TIP3    H116284   4.544   6.217   2.734
 5469TIP3    H216285   4.641   6.229   2.848
 5470TIP3   OH216286   4.814   6.278   2.302
 5470TIP3    H116287   4.766   6.352   2.261
 5470TIP3    H216288   4.900   6.289   2.257
 5471TIP3   OH216289   5.260   6.521   2.438
 5471TIP3    H116290   5.303   6.522   2.526
 5471TIP3    H216291   5.326   6.571   2.385
 5472TIP3   OH216292   5.438   6.673   2.296
 5472TIP3    H116293   5.509   6.621   2.254
 5472TIP3    H216294   5.491   6.730   2.356
 5473TIP3   OH216295   6.233   5.035   2.396
 5473TIP3    H116296   6.142   5.031   2.363
 5473TIP3    H216297   6.263   4.942   2.383
 5474TIP3   OH216298   4.491   6.533   2.322
 5474TIP3    H116299   4.402   6.568   2.299
 5474TIP3    H216300   4.501   6.568   2.412
 5475TIP3   OH216301   4.728   6.514   2.182
 5475TIP3    H116302   4.641   6.526   2.226
 5475TIP3    H216303   4.708   6.544   2.091
 5476TIP3   OH216304   5.155   6.541   1.977
 5476TIP3    H116305   5.084   6.559   1.913
 5476TIP3    H216306   5.166   6.629   2.020
 5477TIP3   OH216307   5.422   6.481   2.031
 5477TIP3    H116308   5.328   6.496   2.011
 5477TIP3    H216309   5.464   6.557   1.987
 5478TIP3   OH216310   5.632   6.673   1.946
 5478TIP3    H116311   5.616   6.758   1.898
 5478TIP3    H216312   5.656   6.613   1.872
 5479TIP3   OH216313   4.398   6.326   2.072
 5479TIP3    H116314   4.428   6.302   2.162
 5479TIP3    H216315   4.472   6.288   2.020
 5480TIP3   OH216316   4.597   6.216   1.926
 5480TIP3    H116317   4.613   6.119   1.912
 5480TIP3    H216318   4.690   6.247   1.923
 5481TIP3   OH216319   4.869   6.303   1.922
 5481TIP3    H116320   4.894   6.209   1.907
 5481TIP3    H216321   4.909   6.313   2.011
 5482TIP3   OH216322   5.440   4.950   2.017
 5482TIP3    H116323   5.395   4.881   2.068
 5482TIP3    H216324   5.511   4.901   1.971
 5483TIP3   OH216325   5.962   4.828   1.920
 5483TIP3    H116326   5.998   4.882   1.846
 5483TIP3    H216327   5.867   4.849   1.915
 5484TIP3   OH216328   6.057   4.929   1.684
 5484TIP3    H116329   6.130   4.879   1.643
 5484TIP3    H216330   6.090   5.021   1.670
 5485TIP3   OH216331   4.687   4.658   2.032
 5485TIP3    H116332   4.595   4.625   2.032
 5485TIP3    H216333   4.737   4.573   2.029
 5486TIP3   OH216334   4.474   4.528   1.679
 5486TIP3    H116335   4.503   4.586   1.607
 5486TIP3    H216336   4.444   4.593   1.746
 5487TIP3   OH216337   5.131   4.690   1.911
 5487TIP3    H116338   5.189   4.741   1.853
 5487TIP3    H216339   5.150   4.729   1.998
 5488TIP3   OH216340   5.679   4.837   1.897
 5488TIP3    H116341   5.674   4.802   1.807
 5488TIP3    H216342   5.665   4.756   1.951
 5489TIP3   OH216343   5.707   4.760   1.458
 5489TIP3    H116344   5.622   4.805   1.471
 5489TIP3    H216345   5.691   4.675   1.504
 5490TIP3   OH216346   4.191   6.102   1.453
 5490TIP3    H116347   4.105   6.070   1.420
 5490TIP3    H216348   4.179   6.198   1.445
 5491TIP3   OH216349   4.590   4.688   1.443
 5491TIP3    H116350   4.639   4.626   1.386
 5491TIP3    H216351   4.663   4.743   1.480
 5492TIP3   OH216352   5.104   4.862   1.541
 5492TIP3    H116353   5.164   4.817   1.603
 5492TIP3    H216354   5.122   4.955   1.566
 5493TIP3   OH216355   4.961   6.287   1.041
 5493TIP3    H116356   5.050   6.310   1.006
 5493TIP3    H216357   4.940   6.211   0.982
 5494TIP3   OH216358   5.681   6.406   1.135
 5494TIP3    H116359   5.673   6.309   1.120
 5494TIP3    H216360   5.637   6.440   1.054
 5495TIP3   OH216361   4.894   4.939   2.923
 5495TIP3    H116362   4.862   4.868   2.981
 5495TIP3    H216363   4.989   4.941   2.949
 5496TIP3   OH216364   5.143   4.937   3.042
 5496TIP3    H116365   5.228   4.912   3.002
 5496TIP3    H216366   5.131   4.866   3.108
 5497TIP3   OH216367   4.266   6.125   1.101
 5497TIP3    H116368   4.271   6.144   1.196
 5497TIP3    H216369   4.354   6.084   1.085
 5498TIP3   OH216370   5.968   4.998   2.830
 5498TIP3    H116371   5.988   4.967   2.921
 5498TIP3    H216372   6.056   4.993   2.788
 5499TIP3   OH216373   5.908   6.550   2.322
 5499TIP3    H116374   5.829   6.518   2.274
 5499TIP3    H216375   5.888   6.646   2.325
 5500TIP3   OH216376   7.172   5.923   1.091
 5500TIP3    H116377   7.145   6.014   1.067
 5500TIP3    H216378   7.098   5.873   1.053
 5501TIP3   OH216379   7.174   5.923   1.469
 5501TIP3    H116380   7.204   5.893   1.556
 5501TIP3    H216381   7.131   5.843   1.433
 5502TIP3   OH216382   6.473   5.818   1.834
 5502TIP3    H116383   6.505   5.751   1.898
 5502TIP3    H216384   6.551   5.874   1.826
 5503TIP3   OH216385   7.419   6.224   1.151
 5503TIP3    H116386   7.401   6.156   1.217
 5503TIP3    H216387   7.445   6.300   1.205
 5504TIP3   OH216388   6.444   6.227   1.560
 5504TIP3    H116389   6.435   6.130   1.562
 5504TIP3    H216390   6.541   6.235   1.553
 5505TIP3   OH216391   6.150   5.431   1.345
 5505TIP3    H116392   6.102   5.514   1.359
 5505TIP3    H216393   6.080   5.377   1.305
 5506TIP3   OH216394   6.210   5.718   1.515
 5506TIP3    H116395   6.259   5.642   1.553
 5506TIP3    H216396   6.269   5.748   1.445
 5507TIP3   OH216397   7.065   6.688   1.168
 5507TIP3    H116398   7.111   6.616   1.119
 5507TIP3    H216399   7.060   6.651   1.257
 5508TIP3   OH216400   6.971   6.148   1.518
 5508TIP3    H116401   7.010   6.073   1.469
 5508TIP3    H216402   7.055   6.193   1.542
 5509TIP3   OH216403   7.986   5.468   1.515
 5509TIP3    H116404   8.013   5.551   1.559
 5509TIP3    H216405   8.005   5.488   1.422
 5510TIP3   OH216406   7.384   5.649   1.551
 5510TIP3    H116407   7.426   5.564   1.569
 5510TIP3    H216408   7.353   5.635   1.459
 5511TIP3   OH216409   6.722   5.309   1.516
 5511TIP3    H116410   6.702   5.382   1.453
 5511TIP3    H216411   6.673   5.236   1.471
 5512TIP3   OH216412   7.416   5.400   1.139
 5512TIP3    H116413   7.490   5.385   1.202
 5512TIP3    H216414   7.465   5.436   1.063
 5513TIP3   OH216415   6.355   5.511   1.623
 5513TIP3    H116416   6.439   5.491   1.670
 5513TIP3    H216417   6.367   5.456   1.543
 5514TIP3   OH216418   6.796   5.709   1.415
 5514TIP3    H116419   6.890   5.684   1.428
 5514TIP3    H216420   6.757   5.625   1.382
 5515TIP3   OH216421   8.057   5.675   1.686
 5515TIP3    H116422   7.974   5.724   1.667
 5515TIP3    H216423   8.077   5.707   1.776
 5516TIP3   OH216424   6.718   5.292   1.950
 5516TIP3    H116425   6.659   5.329   1.881
 5516TIP3    H216426   6.666   5.311   2.030
 5517TIP3   OH216427   7.063   6.141   0.962
 5517TIP3    H116428   7.029   6.123   0.872
 5517TIP3    H216429   7.020   6.226   0.981
 5518TIP3   OH216430   6.825   6.068   1.745
 5518TIP3    H116431   6.762   6.134   1.782
 5518TIP3    H216432   6.868   6.118   1.673
 5519TIP3   OH216433   7.628   5.402   1.310
 5519TIP3    H116434   7.616   5.355   1.394
 5519TIP3    H216435   7.681   5.479   1.336
 5520TIP3   OH216436   6.589   5.407   1.734
 5520TIP3    H116437   6.651   5.481   1.756
 5520TIP3    H216438   6.638   5.367   1.659
 5521TIP3   OH216439   6.653   6.262   1.842
 5521TIP3    H116440   6.627   6.347   1.802
 5521TIP3    H216441   6.574   6.246   1.899
 5522TIP3   OH216442   6.048   5.952   1.079
 5522TIP3    H116443   6.007   5.978   0.994
 5522TIP3    H216444   6.078   6.038   1.114
 5523TIP3   OH216445   7.487   6.466   1.318
 5523TIP3    H116446   7.396   6.458   1.356
 5523TIP3    H216447   7.480   6.553   1.273
 5524TIP3   OH216448   7.778   5.367   1.680
 5524TIP3    H116449   7.691   5.397   1.652
 5524TIP3    H216450   7.837   5.399   1.609
 5525TIP3   OH216451   7.076   5.012   1.663
 5525TIP3    H116452   7.062   4.917   1.680
 5525TIP3    H216453   6.998   5.050   1.710
 5526TIP3   OH216454   7.185   6.513   0.996
 5526TIP3    H116455   7.236   6.432   0.973
 5526TIP3    H216456   7.241   6.580   0.952
 5527TIP3   OH216457   7.331   6.305   0.899
 5527TIP3    H116458   7.316   6.227   0.844
 5527TIP3    H216459   7.364   6.264   0.982
 5528TIP3   OH216460   7.712   6.380   1.663
 5528TIP3    H116461   7.703   6.304   1.602
 5528TIP3    H216462   7.696   6.456   1.603
 5529TIP3   OH216463   7.006   5.775   0.918
 5529TIP3    H116464   6.923   5.824   0.901
 5529TIP3    H216465   7.042   5.769   0.828
 5530TIP3   OH216466   6.971   5.553   0.664
 5530TIP3    H116467   7.056   5.590   0.691
 5530TIP3    H216468   6.999   5.487   0.599
 5531TIP3   OH216469   7.908   6.015   1.505
 5531TIP3    H116470   7.826   6.069   1.511
 5531TIP3    H216471   7.938   6.040   1.415
 5532TIP3   OH216472   7.350   5.852   0.897
 5532TIP3    H116473   7.297   5.880   0.975
 5532TIP3    H216474   7.436   5.831   0.939
 5533TIP3   OH216475   7.587   5.896   1.802
 5533TIP3    H116476   7.585   5.980   1.851
 5533TIP3    H216477   7.501   5.900   1.756
 5534TIP3   OH216478   6.583   5.854   1.309
 5534TIP3    H116479   6.542   5.796   1.241
 5534TIP3    H216480   6.661   5.801   1.336
 5535TIP3   OH216481   6.713   6.265   1.456
 5535TIP3    H116482   6.693   6.224   1.371
 5535TIP3    H216483   6.804   6.232   1.474
 5536TIP3   OH216484   6.721   5.825   1.662
 5536TIP3    H116485   6.754   5.805   1.572
 5536TIP3    H216486   6.764   5.912   1.681
 5537TIP3   OH216487   7.245   6.463   1.438
 5537TIP3    H116488   7.231   6.544   1.491
 5537TIP3    H216489   7.231   6.391   1.502
 5538TIP3   OH216490   6.858   6.382   1.987
 5538TIP3    H116491   6.798   6.445   2.032
 5538TIP3    H216492   6.792   6.329   1.937
 5539TIP3   OH216493   7.207   5.718   0.711
 5539TIP3    H116494   7.256   5.770   0.779
 5539TIP3    H216495   7.229   5.769   0.632
 5540TIP3   OH216496   6.613   5.937   2.087
 5540TIP3    H116497   6.617   6.025   2.131
 5540TIP3    H216498   6.517   5.919   2.095
 5541TIP3   OH216499   6.932   6.392   0.999
 5541TIP3    H116500   7.010   6.448   1.016
 5541TIP3    H216501   6.867   6.454   0.962
 5542TIP3   OH216502   6.653   6.552   2.072
 5542TIP3    H116503   6.619   6.549   1.981
 5542TIP3    H216504   6.573   6.530   2.125
 5543TIP3   OH216505   7.700   4.948   0.770
 5543TIP3    H116506   7.621   4.968   0.825
 5543TIP3    H216507   7.712   5.033   0.722
 5544TIP3   OH216508   6.450   5.697   1.114
 5544TIP3    H116509   6.386   5.743   1.057
 5544TIP3    H216510   6.408   5.610   1.124
 5545TIP3   OH216511   6.232   6.081   2.019
 5545TIP3    H116512   6.166   6.060   1.950
 5545TIP3    H216513   6.268   5.994   2.042
 5546TIP3   OH216514   6.086   6.273   1.653
 5546TIP3    H116515   6.182   6.269   1.642
 5546TIP3    H216516   6.076   6.354   1.706
 5547TIP3   OH216517   7.949   6.721   1.706
 5547TIP3    H116518   7.950   6.626   1.726
 5547TIP3    H216519   7.867   6.748   1.753
 5548TIP3   OH216520   7.057   6.512   1.843
 5548TIP3    H116521   7.056   6.605   1.875
 5548TIP3    H216522   6.985   6.472   1.897
 5549TIP3   OH216523   6.793   6.646   0.808
 5549TIP3    H116524   6.770   6.629   0.716
 5549TIP3    H216525   6.781   6.742   0.817
 5550TIP3   OH216526   6.254   6.490   1.178
 5550TIP3    H116527   6.301   6.480   1.263
 5550TIP3    H216528   6.197   6.412   1.179
 5551TIP3   OH216529   7.048   6.564   0.747
 5551TIP3    H116530   6.956   6.575   0.777
 5551TIP3    H216531   7.088   6.515   0.820
 5552TIP3   OH216532   7.840   5.856   1.984
 5552TIP3    H116533   7.761   5.870   1.930
 5552TIP3    H216534   7.855   5.760   1.972
 5553TIP3   OH216535   6.437   6.264   2.008
 5553TIP3    H116536   6.487   6.247   2.091
 5553TIP3    H216537   6.363   6.201   2.016
 5554TIP3   OH216538   6.836   5.087   1.792
 5554TIP3    H116539   6.746   5.057   1.766
 5554TIP3    H216540   6.812   5.171   1.837
 5555TIP3   OH216541   7.369   5.203   1.986
 5555TIP3    H116542   7.437   5.176   2.051
 5555TIP3    H216543   7.285   5.183   2.032
 5556TIP3   OH216544   7.610   5.632   1.904
 5556TIP3    H116545   7.561   5.629   1.989
 5556TIP3    H216546   7.585   5.719   1.868
 5557TIP3   OH216547   6.980   5.135   0.762
 5557TIP3    H116548   6.948   5.134   0.854
 5557TIP3    H216549   6.940   5.052   0.730
 5558TIP3   OH216550   6.768   5.602   1.810
 5558TIP3    H116551   6.717   5.623   1.891
 5558TIP3    H216552   6.752   5.684   1.757
 5559TIP3   OH216553   6.652   5.489   1.324
 5559TIP3    H116554   6.559   5.463   1.341
 5559TIP3    H216555   6.665   5.449   1.235
 5560TIP3   OH216556   7.141   5.575   1.052
 5560TIP3    H116557   7.089   5.647   1.010
 5560TIP3    H216558   7.196   5.544   0.978
 5561TIP3   OH216559   7.317   5.854   2.139
 5561TIP3    H116560   7.294   5.781   2.201
 5561TIP3    H216561   7.411   5.867   2.160
 5562TIP3   OH216562   7.299   5.604   1.292
 5562TIP3    H116563   7.240   5.635   1.220
 5562TIP3    H216564   7.332   5.522   1.248
 5563TIP3   OH216565   6.587   5.633   2.019
 5563TIP3    H116566   6.613   5.697   2.087
 5563TIP3    H216567   6.575   5.551   2.071
 5564TIP3   OH216568   6.634   5.107   0.732
 5564TIP3    H116569   6.625   5.108   0.829
 5564TIP3    H216570   6.558   5.163   0.706
 5565TIP3   OH216571   6.180   5.154   1.600
 5565TIP3    H116572   6.255   5.187   1.654
 5565TIP3    H216573   6.222   5.124   1.519
 5566TIP3   OH216574   6.152   5.135   1.120
 5566TIP3    H116575   6.195   5.175   1.041
 5566TIP3    H216576   6.091   5.208   1.142
 5567TIP3   OH216577   7.310   5.850   1.715
 5567TIP3    H116578   7.342   5.778   1.656
 5567TIP3    H216579   7.280   5.797   1.792
 5568TIP3   OH216580   6.979   5.309   1.386
 5568TIP3    H116581   6.896   5.309   1.439
 5568TIP3    H216582   7.047   5.312   1.455
 5569TIP3   OH216583   6.413   5.368   1.395
 5569TIP3    H116584   6.318   5.375   1.367
 5569TIP3    H216585   6.437   5.276   1.369
 5570TIP3   OH216586   6.684   5.363   1.082
 5570TIP3    H116587   6.777   5.380   1.059
 5570TIP3    H216588   6.635   5.387   1.000
 5571TIP3   OH216589   7.472   5.386   1.588
 5571TIP3    H116590   7.436   5.399   1.679
 5571TIP3    H216591   7.405   5.326   1.550
 5572TIP3   OH216592   6.520   5.393   0.866
 5572TIP3    H116593   6.453   5.350   0.809
 5572TIP3    H216594   6.577   5.434   0.798
 5573TIP3   OH216595   7.624   7.076   1.801
 5573TIP3    H116596   7.643   7.101   1.709
 5573TIP3    H216597   7.710   7.093   1.846
 5574TIP3   OH216598   6.597   6.185   2.228
 5574TIP3    H116599   6.677   6.217   2.276
 5574TIP3    H216600   6.533   6.185   2.302
 5575TIP3   OH216601   7.062   5.638   1.482
 5575TIP3    H116602   7.135   5.601   1.431
 5575TIP3    H216603   7.074   5.597   1.569
 5576TIP3   OH216604   6.585   5.127   1.362
 5576TIP3    H116605   6.552   5.047   1.406
 5576TIP3    H216606   6.634   5.091   1.287
 5577TIP3   OH216607   7.038   5.534   1.776
 5577TIP3    H116608   6.949   5.572   1.788
 5577TIP3    H216609   7.096   5.596   1.825
 5578TIP3   OH216610   6.768   5.921   0.874
 5578TIP3    H116611   6.694   5.857   0.863
 5578TIP3    H216612   6.751   5.955   0.965
 5579TIP3   OH216613   7.677   6.162   1.497
 5579TIP3    H116614   7.701   6.212   1.416
 5579TIP3    H216615   7.590   6.123   1.472
 5580TIP3   OH216616   7.233   5.235   0.739
 5580TIP3    H116617   7.135   5.222   0.741
 5580TIP3    H216618   7.242   5.332   0.749
 5581TIP3   OH216619   7.172   6.243   1.866
 5581TIP3    H116620   7.198   6.225   1.957
 5581TIP3    H216621   7.137   6.333   1.870
 5582TIP3   OH216622   7.302   5.488   0.836
 5582TIP3    H116623   7.398   5.494   0.852
 5582TIP3    H216624   7.286   5.564   0.776
 5583TIP3   OH216625   6.467   5.948   1.545
 5583TIP3    H116626   6.505   5.922   1.459
 5583TIP3    H216627   6.508   5.885   1.606
 5584TIP3   OH216628   6.923   6.083   0.725
 5584TIP3    H116629   6.874   6.169   0.719
 5584TIP3    H216630   6.861   6.028   0.776
 5585TIP3   OH216631   6.348   5.869   2.157
 5585TIP3    H116632   6.368   5.855   2.251
 5585TIP3    H216633   6.278   5.803   2.141
 5586TIP3   OH216634   7.073   5.983   2.178
 5586TIP3    H116635   7.014   5.926   2.126
 5586TIP3    H216636   7.161   5.950   2.149
 5587TIP3   OH216637   7.335   6.499   1.764
 5587TIP3    H116638   7.238   6.503   1.774
 5587TIP3    H216639   7.363   6.556   1.840
 5588TIP3   OH216640   7.713   5.587   0.708
 5588TIP3    H116641   7.740   5.517   0.645
 5588TIP3    H216642   7.712   5.665   0.651
 5589TIP3   OH216643   7.962   6.429   1.754
 5589TIP3    H116644   7.864   6.428   1.743
 5589TIP3    H216645   7.989   6.404   1.663
 5590TIP3   OH216646   7.441   6.025   1.418
 5590TIP3    H116647   7.347   6.000   1.429
 5590TIP3    H216648   7.475   5.946   1.371
 5591TIP3   OH216649   6.568   6.253   1.170
 5591TIP3    H116650   6.570   6.334   1.116
 5591TIP3    H216651   6.473   6.237   1.177
 5592TIP3   OH216652   6.133   5.557   0.872
 5592TIP3    H116653   6.179   5.641   0.892
 5592TIP3    H216654   6.055   5.564   0.932
 5593TIP3   OH216655   6.705   6.018   1.117
 5593TIP3    H116656   6.672   6.109   1.133
 5593TIP3    H216657   6.667   5.970   1.193
 5594TIP3   OH216658   6.838   6.596   1.638
 5594TIP3    H116659   6.878   6.669   1.587
 5594TIP3    H216660   6.915   6.562   1.686
 5595TIP3   OH216661   6.489   6.491   1.024
 5595TIP3    H116662   6.402   6.499   1.068
 5595TIP3    H216663   6.519   6.585   1.026
 5596TIP3   OH216664   7.226   6.232   1.596
 5596TIP3    H116665   7.217   6.229   1.694
 5596TIP3    H216666   7.306   6.179   1.583
 5597TIP3   OH216667   7.139   6.197   0.546
 5597TIP3    H116668   7.182   6.151   0.620
 5597TIP3    H216669   7.066   6.135   0.524
 5598TIP3   OH216670   7.474   6.765   1.647
 5598TIP3    H116671   7.394   6.710   1.636
 5598TIP3    H216672   7.461   6.831   1.575
 5599TIP3   OH216673   6.560   5.375   2.166
 5599TIP3    H116674   6.464   5.380   2.179
 5599TIP3    H216675   6.587   5.315   2.237
 5600TIP3   OH216676   7.340   6.073   0.724
 5600TIP3    H116677   7.341   5.996   0.785
 5600TIP3    H216678   7.433   6.073   0.695
 5601TIP3   OH216679   6.276   6.460   1.797
 5601TIP3    H116680   6.328   6.385   1.828
 5601TIP3    H216681   6.305   6.529   1.858
 5602TIP3   OH216682   6.517   6.072   0.486
 5602TIP3    H116683   6.563   5.989   0.469
 5602TIP3    H216684   6.529   6.081   0.583
 5603TIP3   OH216685   6.514   6.107   0.757
 5603TIP3    H116686   6.587   6.080   0.814
 5603TIP3    H216687   6.519   6.206   0.764
 5604TIP3   OH216688   6.247   5.802   0.955
 5604TIP3    H116689   6.181   5.847   1.011
 5604TIP3    H216690   6.264   5.872   0.889
 5605TIP3   OH216691   7.396   5.440   1.846
 5605TIP3    H116692   7.476   5.478   1.885
 5605TIP3    H216693   7.382   5.359   1.900
 5606TIP3   OH216694   7.277   5.189   1.013
 5606TIP3    H116695   7.261   5.212   0.919
 5606TIP3    H216696   7.316   5.273   1.047
 5607TIP3   OH216697   6.776   6.311   0.692
 5607TIP3    H116698   6.689   6.341   0.725
 5607TIP3    H216699   6.773   6.341   0.600
 5608TIP3   OH216700   6.967   5.368   1.113
 5608TIP3    H116701   7.031   5.440   1.094
 5608TIP3    H216702   6.972   5.363   1.211
 5609TIP3   OH216703   7.234   5.688   1.922
 5609TIP3    H116704   7.256   5.743   2.000
 5609TIP3    H216705   7.291   5.610   1.935
 5610TIP3   OH216706   7.111   5.096   1.217
 5610TIP3    H116707   7.101   5.174   1.275
 5610TIP3    H216708   7.172   5.133   1.148
 5611TIP3   OH216709   6.520   6.378   0.773
 5611TIP3    H116710   6.495   6.448   0.709
 5611TIP3    H216711   6.507   6.423   0.859
 5612TIP3   OH216712   6.621   5.095   1.009
 5612TIP3    H116713   6.618   5.187   1.042
 5612TIP3    H216714   6.718   5.078   1.015
 5613TIP3   OH216715   7.876   5.588   1.903
 5613TIP3    H116716   7.778   5.586   1.909
 5613TIP3    H216717   7.888   5.553   1.814
 5614TIP3   OH216718   7.527   5.783   1.291
 5614TIP3    H116719   7.451   5.723   1.302
 5614TIP3    H216720   7.598   5.735   1.339
 5615TIP3   OH216721   6.234   6.024   0.767
 5615TIP3    H116722   6.303   6.092   0.775
 5615TIP3    H216723   6.280   5.963   0.705
 5616TIP3   OH216724   6.182   5.286   0.895
 5616TIP3    H116725   6.186   5.384   0.890
 5616TIP3    H216726   6.100   5.268   0.847
 5617TIP3   OH216727   7.494   6.737   1.240
 5617TIP3    H116728   7.450   6.784   1.166
 5617TIP3    H216729   7.588   6.759   1.220
 5618TIP3   OH216730   6.572   5.007   1.767
 5618TIP3    H116731   6.540   4.975   1.680
 5618TIP3    H216732   6.560   4.929   1.824
 5619TIP3   OH216733   6.111   6.227   1.148
 5619TIP3    H116734   6.039   6.258   1.205
 5619TIP3    H216735   6.085   6.267   1.062
 5620TIP3   OH216736   6.267   6.767   2.219
 5620TIP3    H116737   6.353   6.767   2.266
 5620TIP3    H216738   6.246   6.672   2.218
 5621TIP3   OH216739   6.749   6.731   2.265
 5621TIP3    H116740   6.844   6.714   2.269
 5621TIP3    H216741   6.723   6.674   2.190
 5622TIP3   OH216742   7.384   6.641   1.998
 5622TIP3    H116743   7.380   6.569   2.065
 5622TIP3    H216744   7.464   6.690   2.024
 5623TIP3   OH216745   6.397   6.174   2.420
 5623TIP3    H116746   6.414   6.078   2.423
 5623TIP3    H216747   6.309   6.177   2.376
 5624TIP3   OH216748   6.371   5.825   0.644
 5624TIP3    H116749   6.427   5.791   0.717
 5624TIP3    H216750   6.438   5.822   0.572
 5625TIP3   OH216751   7.005   6.258   2.193
 5625TIP3    H116752   6.964   6.275   2.106
 5625TIP3    H216753   7.036   6.166   2.184
 5626TIP3   OH216754   6.951   6.021   0.455
 5626TIP3    H116755   6.909   6.023   0.543
 5626TIP3    H216756   6.903   5.948   0.410
 5627TIP3   OH216757   7.498   6.267   1.799
 5627TIP3    H116758   7.573   6.311   1.754
 5627TIP3    H216759   7.428   6.334   1.786
 5628TIP3   OH216760   6.515   5.908   2.402
 5628TIP3    H116761   6.591   5.852   2.379
 5628TIP3    H216762   6.541   5.940   2.491
 5629TIP3   OH216763   6.572   5.727   0.836
 5629TIP3    H116764   6.554   5.683   0.921
 5629TIP3    H216765   6.618   5.656   0.786
 5630TIP3   OH216766   6.852   5.793   2.063
 5630TIP3    H116767   6.774   5.853   2.065
 5630TIP3    H216768   6.900   5.826   1.984
 5631TIP3   OH216769   6.693   5.520   0.700
 5631TIP3    H116770   6.665   5.510   0.606
 5631TIP3    H216771   6.790   5.531   0.688
 5632TIP3   OH216772   7.368   6.194   2.197
 5632TIP3    H116773   7.447   6.172   2.148
 5632TIP3    H216774   7.367   6.126   2.267
 5633TIP3   OH216775   6.975   5.581   2.189
 5633TIP3    H116776   6.975   5.501   2.133
 5633TIP3    H216777   6.932   5.647   2.131
 5634TIP3   OH216778   6.978   5.366   1.996
 5634TIP3    H116779   7.005   5.409   1.913
 5634TIP3    H216780   6.884   5.344   1.978
 5635TIP3   OH216781   7.005   5.903   1.870
 5635TIP3    H116782   7.088   5.912   1.821
 5635TIP3    H216783   6.949   5.970   1.826
 5636TIP3   OH216784   7.588   5.871   2.252
 5636TIP3    H116785   7.637   5.787   2.257
 5636TIP3    H216786   7.655   5.930   2.215
 5637TIP3   OH216787   7.627   6.123   1.987
 5637TIP3    H116788   7.570   6.177   1.928
 5637TIP3    H216789   7.715   6.143   1.947
 5638TIP3   OH216790   6.854   5.692   2.420
 5638TIP3    H116791   6.784   5.625   2.433
 5638TIP3    H216792   6.888   5.668   2.332
 5639TIP3   OH216793   7.110   5.131   2.064
 5639TIP3    H116794   7.062   5.214   2.040
 5639TIP3    H216795   7.040   5.064   2.051
 5640TIP3   OH216796   7.236   5.635   2.279
 5640TIP3    H116797   7.223   5.624   2.375
 5640TIP3    H216798   7.146   5.611   2.248
 5641TIP3   OH216799   7.475   5.585   2.134
 5641TIP3    H116800   7.399   5.586   2.195
 5641TIP3    H216801   7.548   5.554   2.192
 5642TIP3   OH216802   7.705   5.526   2.287
 5642TIP3    H116803   7.716   5.430   2.304
 5642TIP3    H216804   7.699   5.564   2.377
 5643TIP3   OH216805   6.692   5.473   2.472
 5643TIP3    H116806   6.699   5.382   2.436
 5643TIP3    H216807   6.727   5.460   2.562
 5644TIP3   OH216808   7.204   5.140   2.321
 5644TIP3    H116809   7.272   5.070   2.314
 5644TIP3    H216810   7.164   5.136   2.232
 5645TIP3   OH216811   7.269   5.355   2.480
 5645TIP3    H116812   7.247   5.285   2.415
 5645TIP3    H216813   7.192   5.415   2.473
 5646TIP3   OH216814   6.481   6.576   0.589
 5646TIP3    H116815   6.548   6.629   0.543
 5646TIP3    H216816   6.403   6.594   0.534
 5647TIP3   OH216817   5.968   5.966   0.799
 5647TIP3    H116818   6.062   5.991   0.785
 5647TIP3    H216819   5.965   5.877   0.757
 5648TIP3   OH216820   5.883   6.579   1.211
 5648TIP3    H116821   5.817   6.517   1.174
 5648TIP3    H216822   5.929   6.521   1.275
 5649TIP3   OH216823   6.021   6.430   1.396
 5649TIP3    H116824   6.008   6.356   1.458
 5649TIP3    H216825   6.071   6.492   1.452
 5650TIP3   OH216826   7.742   6.838   1.196
 5650TIP3    H116827   7.768   6.865   1.286
 5650TIP3    H216828   7.815   6.875   1.143
 5651TIP3   OH216829   7.778   6.849   1.476
 5651TIP3    H116830   7.739   6.759   1.478
 5651TIP3    H216831   7.856   6.836   1.533
 5652TIP3   OH216832   7.830   6.532   2.056
 5652TIP3    H116833   7.753   6.538   2.116
 5652TIP3    H216834   7.865   6.623   2.061
 5653TIP3   OH216835   7.615   6.054   0.682
 5653TIP3    H116836   7.684   6.109   0.643
 5653TIP3    H216837   7.667   5.996   0.742
 5654TIP3   OH216838   7.769   5.909   0.869
 5654TIP3    H116839   7.702   5.867   0.927
 5654TIP3    H216840   7.832   5.948   0.933
 5655TIP3   OH216841   7.821   6.299   1.307
 5655TIP3    H116842   7.875   6.236   1.255
 5655TIP3    H216843   7.812   6.374   1.245
 5656TIP3   OH216844   7.653   6.598   1.503
 5656TIP3    H116845   7.584   6.643   1.555
 5656TIP3    H216846   7.601   6.551   1.435
 5657TIP3   OH216847   7.585   5.766   1.021
 5657TIP3    H116848   7.589   5.669   1.015
 5657TIP3    H216849   7.570   5.780   1.116
 5658TIP3   OH216850   6.208   5.835   1.768
 5658TIP3    H116851   6.206   5.806   1.675
 5658TIP3    H216852   6.305   5.839   1.784
 5659TIP3   OH216853   7.869   6.187   1.879
 5659TIP3    H116854   7.943   6.123   1.869
 5659TIP3    H216855   7.897   6.260   1.820
 5660TIP3   OH216856   8.055   5.994   1.895
 5660TIP3    H116857   7.980   5.943   1.935
 5660TIP3    H216858   8.128   5.930   1.909
 5661TIP3   OH216859   7.512   5.235   0.493
 5661TIP3    H116860   7.588   5.197   0.541
 5661TIP3    H216861   7.438   5.176   0.519
 5662TIP3   OH216862   7.573   5.483   0.923
 5662TIP3    H116863   7.621   5.397   0.931
 5662TIP3    H216864   7.624   5.524   0.849
 5663TIP3   OH216865   7.740   5.653   1.411
 5663TIP3    H116866   7.826   5.680   1.371
 5663TIP3    H216867   7.753   5.691   1.500
 5664TIP3   OH216868   7.808   5.798   1.644
 5664TIP3    H116869   7.730   5.832   1.692
 5664TIP3    H216870   7.840   5.879   1.598
 5665TIP3   OH216871   6.424   5.524   2.442
 5665TIP3    H116872   6.522   5.518   2.444
 5665TIP3    H216873   6.401   5.439   2.484
 5666TIP3   OH216874   8.260   5.388   2.200
 5666TIP3    H116875   8.318   5.322   2.155
 5666TIP3    H216876   8.231   5.444   2.125
 5667TIP3   OH216877   7.690   5.231   0.951
 5667TIP3    H116878   7.735   5.215   1.036
 5667TIP3    H216879   7.627   5.157   0.949
 5668TIP3   OH216880   6.387   5.216   1.774
 5668TIP3    H116881   6.450   5.142   1.784
 5668TIP3    H216882   6.448   5.291   1.768
 5669TIP3   OH216883   6.190   5.490   1.848
 5669TIP3    H116884   6.239   5.483   1.763
 5669TIP3    H216885   6.217   5.577   1.878
 5670TIP3   OH216886   8.131   5.528   2.008
 5670TIP3    H116887   8.044   5.569   2.027
 5670TIP3    H216888   8.102   5.457   1.947
 5671TIP3   OH216889   7.750   5.162   0.610
 5671TIP3    H116890   7.820   5.122   0.554
 5671TIP3    H216891   7.773   5.256   0.603
 5672TIP3   OH216892   6.172   4.991   1.347
 5672TIP3    H116893   6.079   4.991   1.374
 5672TIP3    H216894   6.171   5.050   1.269
 5673TIP3   OH216895   7.331   6.697   0.861
 5673TIP3    H116896   7.379   6.667   0.784
 5673TIP3    H216897   7.389   6.765   0.898
 5674TIP3   OH216898   6.393   5.072   2.162
 5674TIP3    H116899   6.342   5.068   2.245
 5674TIP3    H216900   6.327   5.112   2.102
 5675TIP3   OH216901   6.433   6.499   2.239
 5675TIP3    H116902   6.341   6.473   2.221
 5675TIP3    H216903   6.441   6.483   2.334
 5676TIP3   OH216904   6.611   6.533   1.787
 5676TIP3    H116905   6.562   6.608   1.748
 5676TIP3    H216906   6.697   6.547   1.742
 5677TIP3   OH216907   7.057   6.778   1.925
 5677TIP3    H116908   7.100   6.780   2.013
 5677TIP3    H216909   7.123   6.828   1.872
 5678TIP3   OH216910   7.236   6.928   1.782
 5678TIP3    H116911   7.309   6.880   1.742
 5678TIP3    H216912   7.285   6.987   1.843
 5679TIP3   OH216913   8.029   5.292   1.883
 5679TIP3    H116914   7.938   5.288   1.848
 5679TIP3    H216915   8.059   5.199   1.869
 5680TIP3   OH216916   6.288   6.790   1.810
 5680TIP3    H116917   6.198   6.823   1.786
 5680TIP3    H216918   6.297   6.827   1.898
 5681TIP3   OH216919   6.524   6.768   1.667
 5681TIP3    H116920   6.437   6.781   1.713
 5681TIP3    H216921   6.503   6.801   1.578
 5682TIP3   OH216922   6.949   6.798   1.465
 5682TIP3    H116923   6.880   6.819   1.400
 5682TIP3    H216924   6.963   6.885   1.509
 5683TIP3   OH216925   7.219   6.736   1.517
 5683TIP3    H116926   7.125   6.754   1.497
 5683TIP3    H216927   7.263   6.812   1.476
 5684TIP3   OH216928   7.422   6.928   1.432
 5684TIP3    H116929   7.410   7.013   1.386
 5684TIP3    H216930   7.450   6.869   1.358
 5685TIP3   OH216931   6.199   6.584   1.555
 5685TIP3    H116932   6.225   6.558   1.646
 5685TIP3    H216933   6.271   6.541   1.504
 5686TIP3   OH216934   6.392   6.455   1.412
 5686TIP3    H116935   6.408   6.371   1.460
 5686TIP3    H216936   6.483   6.492   1.408
 5687TIP3   OH216937   6.659   6.551   1.414
 5687TIP3    H116938   6.690   6.460   1.401
 5687TIP3    H216939   6.703   6.572   1.499
 5688TIP3   OH216940   7.236   5.207   1.504
 5688TIP3    H116941   7.192   5.137   1.554
 5688TIP3    H216942   7.307   5.159   1.457
 5689TIP3   OH216943   7.758   5.087   1.408
 5689TIP3    H116944   7.794   5.139   1.333
 5689TIP3    H216945   7.662   5.106   1.401
 5690TIP3   OH216946   7.852   5.187   1.172
 5690TIP3    H116947   7.925   5.135   1.132
 5690TIP3    H216948   7.886   5.279   1.157
 5691TIP3   OH216949   6.483   4.915   1.519
 5691TIP3    H116950   6.391   4.882   1.519
 5691TIP3    H216951   6.533   4.830   1.516
 5692TIP3   OH216952   6.269   4.784   1.165
 5692TIP3    H116953   6.299   4.842   1.093
 5692TIP3    H216954   6.240   4.849   1.232
 5693TIP3   OH216955   6.927   4.947   1.399
 5693TIP3    H116956   6.985   4.997   1.339
 5693TIP3    H216957   6.948   4.986   1.484
 5694TIP3   OH216958   7.475   5.094   1.384
 5694TIP3    H116959   7.471   5.059   1.294
 5694TIP3    H216960   7.461   5.013   1.437
 5695TIP3   OH216961   7.501   5.018   0.949
 5695TIP3    H116962   7.415   5.063   0.960
 5695TIP3    H216963   7.485   4.934   0.995
 5696TIP3   OH216964   5.987   6.357   0.948
 5696TIP3    H116965   5.901   6.326   0.913
 5696TIP3    H216966   5.979   6.451   0.923
 5697TIP3   OH216967   6.386   4.943   0.931
 5697TIP3    H116968   6.437   4.883   0.873
 5697TIP3    H216969   6.458   5.000   0.968
 5698TIP3   OH216970   6.899   5.118   1.029
 5698TIP3    H116971   6.961   5.074   1.090
 5698TIP3    H216972   6.918   5.211   1.052
 5699TIP3   OH216973   6.691   5.196   2.409
 5699TIP3    H116974   6.658   5.125   2.468
 5699TIP3    H216975   6.785   5.197   2.436
 5700TIP3   OH216976   6.939   5.194   2.529
 5700TIP3    H116977   7.024   5.168   2.488
 5700TIP3    H216978   6.927   5.122   2.595
 5701TIP3   OH216979   6.060   6.374   0.582
 5701TIP3    H116980   6.050   6.412   0.670
 5701TIP3    H216981   6.151   6.338   0.585
 5702TIP3   OH216982   7.764   5.255   2.316
 5702TIP3    H116983   7.785   5.224   2.407
 5702TIP3    H216984   7.852   5.251   2.273
 5703TIP3   OH216985   7.703   6.801   1.810
 5703TIP3    H116986   7.621   6.784   1.760
 5703TIP3    H216987   7.702   6.899   1.815
 5704TIP3   OH216988   8.936   6.166   0.964
 5704TIP3    H116989   8.993   6.170   1.044
 5704TIP3    H216990   8.913   6.071   0.964
 5705TIP3   OH216991   8.268   6.074   1.321
 5705TIP3    H116992   8.300   6.008   1.385
 5705TIP3    H216993   8.347   6.129   1.311
 5706TIP3   OH216994   8.236   6.480   1.052
 5706TIP3    H116995   8.227   6.382   1.048
 5706TIP3    H216996   8.330   6.489   1.072
 5707TIP3   OH216997   7.937   5.684   0.833
 5707TIP3    H116998   7.901   5.774   0.845
 5707TIP3    H216999   7.855   5.639   0.806
 5708TIP3   OH217000   8.013   5.976   0.998
 5708TIP3    H117001   8.057   5.898   1.038
 5708TIP3    H217002   8.079   6.006   0.935
 5709TIP3   OH217003   8.760   6.401   1.002
 5709TIP3    H117004   8.797   6.315   0.978
 5709TIP3    H217005   8.844   6.446   1.027
 5710TIP3   OH217006   9.198   5.931   1.038
 5710TIP3    H117007   9.196   5.834   1.057
 5710TIP3    H217008   9.154   5.933   0.953
 5711TIP3   OH217009   8.506   5.557   1.016
 5711TIP3    H117010   8.486   5.636   0.961
 5711TIP3    H217011   8.460   5.488   0.963
 5712TIP3   OH217012   8.149   5.764   1.106
 5712TIP3    H117013   8.234   5.748   1.152
 5712TIP3    H217014   8.162   5.708   1.026
 5713TIP3   OH217015   8.609   5.975   0.917
 5713TIP3    H117016   8.702   5.947   0.921
 5713TIP3    H217017   8.566   5.895   0.882
 5714TIP3   OH217018   8.515   5.550   1.438
 5714TIP3    H117019   8.456   5.587   1.370
 5714TIP3    H217020   8.462   5.568   1.518
 5715TIP3   OH217021   8.623   6.325   1.235
 5715TIP3    H117022   8.559   6.389   1.272
 5715TIP3    H217023   8.668   6.378   1.166
 5716TIP3   OH217024   8.381   5.667   1.227
 5716TIP3    H117025   8.444   5.740   1.246
 5716TIP3    H217026   8.429   5.623   1.153
 5717TIP3   OH217027   8.448   6.518   1.323
 5717TIP3    H117028   8.424   6.608   1.293
 5717TIP3    H217029   8.372   6.500   1.382
 5718TIP3   OH217030   8.871   5.271   1.155
 5718TIP3    H117031   8.855   5.175   1.160
 5718TIP3    H217032   8.788   5.306   1.195
 5719TIP3   OH217033   8.345   6.056   0.828
 5719TIP3    H117034   8.334   6.120   0.753
 5719TIP3    H217035   8.441   6.040   0.830
 5720TIP3   OH217036   8.524   6.529   0.931
 5720TIP3    H117037   8.478   6.450   0.898
 5720TIP3    H217038   8.610   6.491   0.960
 5721TIP3   OH217039   8.517   6.082   1.156
 5721TIP3    H117040   8.549   6.059   1.066
 5721TIP3    H217041   8.561   6.168   1.172
 5722TIP3   OH217042   8.652   6.636   1.475
 5722TIP3    H117043   8.594   6.701   1.520
 5722TIP3    H217044   8.586   6.585   1.425
 5723TIP3   OH217045   8.410   6.193   1.575
 5723TIP3    H117046   8.415   6.281   1.619
 5723TIP3    H217047   8.314   6.177   1.581
 5724TIP3   OH217048   8.449   6.805   1.560
 5724TIP3    H117049   8.411   6.808   1.470
 5724TIP3    H217050   8.371   6.780   1.614
 5725TIP3   OH217051   8.027   6.338   1.507
 5725TIP3    H117052   7.961   6.315   1.438
 5725TIP3    H217053   8.064   6.250   1.530
 5726TIP3   OH217054   7.883   6.531   1.141
 5726TIP3    H117055   7.979   6.524   1.127
 5726TIP3    H217056   7.878   6.608   1.200
 5727TIP3   OH217057   8.849   6.766   1.329
 5727TIP3    H117058   8.851   6.859   1.362
 5727TIP3    H217059   8.780   6.728   1.387
 5728TIP3   OH217060   8.236   6.516   1.490
 5728TIP3    H117061   8.279   6.512   1.578
 5728TIP3    H217062   8.159   6.456   1.502
 5729TIP3   OH217063   8.631   5.343   1.280
 5729TIP3    H117064   8.541   5.313   1.254
 5729TIP3    H217065   8.607   5.428   1.322
 5730TIP3   OH217066   9.154   5.461   1.476
 5730TIP3    H117067   9.202   5.444   1.558
 5730TIP3    H217068   9.062   5.441   1.505
 5731TIP3   OH217069   8.567   5.858   1.299
 5731TIP3    H117070   8.515   5.878   1.380
 5731TIP3    H217071   8.549   5.939   1.246
 5732TIP3   OH217072   8.430   5.753   0.856
 5732TIP3    H117073   8.343   5.712   0.839
 5732TIP3    H217074   8.466   5.769   0.766
 5733TIP3   OH217075   9.115   6.109   1.623
 5733TIP3    H117076   9.090   6.039   1.687
 5733TIP3    H217077   9.209   6.123   1.647
 5734TIP3   OH217078   8.385   5.889   1.506
 5734TIP3    H117079   8.405   5.955   1.574
 5734TIP3    H217080   8.372   5.808   1.559
 5735TIP3   OH217081   7.976   5.411   1.086
 5735TIP3    H117082   8.050   5.443   1.142
 5735TIP3    H217083   8.021   5.377   1.008
 5736TIP3   OH217084   8.095   5.467   0.603
 5736TIP3    H117085   8.115   5.553   0.562
 5736TIP3    H217086   7.999   5.460   0.591
 5737TIP3   OH217087   9.077   6.114   1.199
 5737TIP3    H117088   9.135   6.056   1.145
 5737TIP3    H217089   9.065   6.057   1.277
 5738TIP3   OH217090   8.765   5.492   0.936
 5738TIP3    H117091   8.678   5.526   0.962
 5738TIP3    H217092   8.820   5.571   0.937
 5739TIP3   OH217093   8.194   5.610   0.870
 5739TIP3    H117094   8.097   5.617   0.857
 5739TIP3    H217095   8.213   5.517   0.849
 5740TIP3   OH217096   9.166   5.664   1.076
 5740TIP3    H117097   9.179   5.664   1.173
 5740TIP3    H217098   9.133   5.573   1.058
 5741TIP3   OH217099   8.395   6.437   1.718
 5741TIP3    H117100   8.474   6.473   1.764
 5741TIP3    H217101   8.328   6.449   1.787
 5742TIP3   OH217102   8.878   5.890   0.970
 5742TIP3    H117103   8.913   5.819   0.915
 5742TIP3    H217104   8.881   5.850   1.060
 5743TIP3   OH217105   8.385   5.379   0.846
 5743TIP3    H117106   8.350   5.300   0.892
 5743TIP3    H217107   8.459   5.344   0.795
 5744TIP3   OH217108   8.836   5.793   1.261
 5744TIP3    H117109   8.745   5.828   1.273
 5744TIP3    H217110   8.890   5.857   1.312
 5745TIP3   OH217111   8.968   6.502   1.354
 5745TIP3    H117112   8.985   6.487   1.447
 5745TIP3    H217113   8.935   6.594   1.353
 5746TIP3   OH217114   8.264   6.204   1.040
 5746TIP3    H117115   8.287   6.158   0.957
 5746TIP3    H217116   8.300   6.141   1.105
 5747TIP3   OH217117   8.145   6.125   1.643
 5747TIP3    H117118   8.166   6.113   1.738
 5747TIP3    H217119   8.074   6.059   1.630
 5748TIP3   OH217120   8.869   6.238   1.665
 5748TIP3    H117121   8.808   6.182   1.614
 5748TIP3    H217122   8.955   6.207   1.632
 5749TIP3   OH217123   9.134   6.762   1.244
 5749TIP3    H117124   9.037   6.762   1.248
 5749TIP3    H217125   9.157   6.812   1.325
 5750TIP3   OH217126   8.634   6.849   1.129
 5750TIP3    H117127   8.665   6.938   1.106
 5750TIP3    H217128   8.711   6.813   1.177
 5751TIP3   OH217129   9.009   6.471   1.081
 5751TIP3    H117130   9.005   6.486   1.178
 5751TIP3    H217131   9.103   6.459   1.067
 5752TIP3   OH217132   8.356   5.632   1.653
 5752TIP3    H117133   8.260   5.636   1.666
 5752TIP3    H217134   8.383   5.571   1.725
 5753TIP3   OH217135   8.069   6.718   1.288
 5753TIP3    H117136   8.125   6.646   1.320
 5753TIP3    H217137   8.092   6.788   1.351
 5754TIP3   OH217138   9.221   5.698   1.356
 5754TIP3    H117139   9.251   5.743   1.437
 5754TIP3    H217140   9.186   5.615   1.393
 5755TIP3   OH217141   9.032   5.943   1.410
 5755TIP3    H117142   9.047   6.005   1.484
 5755TIP3    H217143   9.095   5.872   1.429
 5756TIP3   OH217144   8.367   5.264   1.254
 5756TIP3    H117145   8.336   5.231   1.167
 5756TIP3    H217146   8.356   5.185   1.311
 5757TIP3   OH217147   8.087   7.012   1.663
 5757TIP3    H117148   8.144   7.036   1.738
 5757TIP3    H217149   8.018   6.963   1.710
 5758TIP3   OH217150   8.548   6.986   1.755
 5758TIP3    H117151   8.643   6.969   1.755
 5758TIP3    H217152   8.520   6.931   1.679
 5759TIP3   OH217153   9.193   6.888   1.484
 5759TIP3    H117154   9.168   6.817   1.548
 5759TIP3    H217155   9.258   6.938   1.534
 5760TIP3   OH217156   8.192   6.430   1.909
 5760TIP3    H117157   8.210   6.334   1.907
 5760TIP3    H217158   8.106   6.435   1.863
 5761TIP3   OH217159   8.803   6.516   1.679
 5761TIP3    H117160   8.758   6.533   1.594
 5761TIP3    H217161   8.831   6.422   1.670
 5762TIP3   OH217162   8.310   6.160   1.890
 5762TIP3    H117163   8.390   6.111   1.866
 5762TIP3    H217164   8.336   6.197   1.977
 5763TIP3   OH217165   8.650   6.051   1.550
 5763TIP3    H117166   8.571   6.109   1.554
 5763TIP3    H217167   8.696   6.084   1.469
 5764TIP3   OH217168   9.156   6.451   1.689
 5764TIP3    H117169   9.233   6.428   1.637
 5764TIP3    H217170   9.156   6.383   1.759
 5765TIP3   OH217171   8.773   5.838   1.675
 5765TIP3    H117172   8.770   5.759   1.618
 5765TIP3    H217173   8.729   5.905   1.618
 5766TIP3   OH217174   8.774   5.623   1.481
 5766TIP3    H117175   8.798   5.667   1.397
 5766TIP3    H217176   8.680   5.600   1.464
 5767TIP3   OH217177   8.805   6.159   1.354
 5767TIP3    H117178   8.887   6.168   1.303
 5767TIP3    H217179   8.748   6.226   1.313
 5768TIP3   OH217180   9.393   6.131   1.734
 5768TIP3    H117181   9.425   6.046   1.770
 5768TIP3    H217182   9.475   6.181   1.729
 5769TIP3   OH217183   8.650   5.948   1.906
 5769TIP3    H117184   8.580   5.882   1.920
 5769TIP3    H217185   8.684   5.924   1.818
 5770TIP3   OH217186   8.902   5.388   1.547
 5770TIP3    H117187   8.852   5.470   1.525
 5770TIP3    H217188   8.833   5.320   1.535
 5771TIP3   OH217189   9.035   5.891   1.763
 5771TIP3    H117190   9.023   5.881   1.859
 5771TIP3    H217191   8.944   5.868   1.733
 5772TIP3   OH217192   9.262   5.809   1.610
 5772TIP3    H117193   9.186   5.833   1.666
 5772TIP3    H217194   9.332   5.796   1.677
 5773TIP3   OH217195   9.476   5.762   1.792
 5773TIP3    H117196   9.527   5.694   1.836
 5773TIP3    H217197   9.473   5.831   1.862
 5774TIP3   OH217198   8.487   5.729   1.959
 5774TIP3    H117199   8.495   5.639   1.924
 5774TIP3    H217200   8.523   5.718   2.049
 5775TIP3   OH217201   9.004   5.400   1.802
 5775TIP3    H117202   9.067   5.326   1.797
 5775TIP3    H217203   8.959   5.392   1.716
 5776TIP3   OH217204   9.067   5.614   1.964
 5776TIP3    H117205   9.042   5.544   1.900
 5776TIP3    H217206   8.989   5.674   1.960
 5777TIP3   OH217207   7.809   6.691   0.905
 5777TIP3    H117208   7.801   6.617   0.967
 5777TIP3    H217209   7.858   6.755   0.960
 5778TIP3   OH217210   8.004   6.092   1.254
 5778TIP3    H117211   8.004   6.063   1.161
 5778TIP3    H217212   8.101   6.095   1.272
 5779TIP3   OH217213   8.219   5.779   1.927
 5779TIP3    H117214   8.317   5.775   1.930
 5779TIP3    H217215   8.197   5.694   1.971
 5780TIP3   OH217216   8.182   5.472   1.260
 5780TIP3    H117217   8.247   5.399   1.270
 5780TIP3    H217218   8.242   5.549   1.256
 5781TIP3   OH217219   7.987   5.746   1.334
 5781TIP3    H117220   8.035   5.740   1.249
 5781TIP3    H217221   8.013   5.834   1.364
 5782TIP3   OH217222   7.965   5.251   0.827
 5782TIP3    H117223   7.873   5.249   0.859
 5782TIP3    H217224   7.964   5.321   0.761
 5783TIP3   OH217225   8.189   5.328   1.649
 5783TIP3    H117226   8.138   5.325   1.732
 5783TIP3    H217227   8.123   5.368   1.589
 5784TIP3   OH217228   8.235   6.728   1.725
 5784TIP3    H117229   8.140   6.735   1.702
 5784TIP3    H217230   8.234   6.755   1.818
 5785TIP3   OH217231   8.404   6.787   1.272
 5785TIP3    H117232   8.354   6.861   1.235
 5785TIP3    H217233   8.490   6.803   1.227
 5786TIP3   OH217234   8.850   7.030   1.412
 5786TIP3    H117235   8.893   7.039   1.500
 5786TIP3    H217236   8.914   7.078   1.355
 5787TIP3   OH217237   9.023   7.172   1.258
 5787TIP3    H117238   9.108   7.155   1.215
 5787TIP3    H217239   9.054   7.228   1.333
 5788TIP3   OH217240   8.086   7.044   1.300
 5788TIP3    H117241   7.996   7.080   1.281
 5788TIP3    H217242   8.097   7.072   1.392
 5789TIP3   OH217243   8.315   7.029   1.151
 5789TIP3    H117244   8.234   7.041   1.205
 5789TIP3    H217245   8.281   7.049   1.063
 5790TIP3   OH217246   7.987   6.854   1.054
 5790TIP3    H117247   8.017   6.828   1.143
 5790TIP3    H217248   8.056   6.807   1.000
 5791TIP3   OH217249   8.178   6.719   0.921
 5791TIP3    H117250   8.194   6.632   0.963
 5791TIP3    H217251   8.269   6.755   0.917
 5792TIP3   OH217252   8.440   6.794   0.922
 5792TIP3    H117253   8.474   6.703   0.927
 5792TIP3    H217254   8.497   6.838   0.987
 5793TIP3   OH217255   9.059   5.421   0.980
 5793TIP3    H117256   8.985   5.389   1.034
 5793TIP3    H217257   9.063   5.350   0.913
 5794TIP3   OH217258   8.280   5.171   1.005
 5794TIP3    H117259   8.188   5.137   1.005
 5794TIP3    H217260   8.330   5.087   1.001
 5795TIP3   OH217261   8.096   5.040   0.682
 5795TIP3    H117262   8.052   5.064   0.598
 5795TIP3    H217263   8.055   5.104   0.744
 5796TIP3   OH217264   8.718   5.205   0.889
 5796TIP3    H117265   8.753   5.272   0.828
 5796TIP3    H217266   8.735   5.251   0.973
 5797TIP3   OH217267   8.487   5.452   1.896
 5797TIP3    H117268   8.453   5.382   1.955
 5797TIP3    H217269   8.581   5.453   1.923
 5798TIP3   OH217270   8.735   5.449   2.016
 5798TIP3    H117271   8.821   5.424   1.979
 5798TIP3    H217272   8.722   5.378   2.082
 5799TIP3   OH217273  -0.057   7.003   2.838
 5799TIP3    H117274  -0.026   6.954   2.916
 5799TIP3    H217275  -0.045   7.096   2.864
 5800TIP3   OH217276   0.438   6.257   3.204
 5800TIP3    H117277   0.466   6.340   3.248
 5800TIP3    H217278   0.457   6.278   3.111
 5801TIP3   OH217279  -0.088   6.433   3.231
 5801TIP3    H117280  -0.060   6.342   3.252
 5801TIP3    H217281  -0.122   6.421   3.141
 5802TIP3   OH217282  -0.134   6.188   2.831
 5802TIP3    H117283  -0.058   6.172   2.892
 5802TIP3    H217284  -0.086   6.221   2.753
 5803TIP3   OH217285   0.514   6.462   3.375
 5803TIP3    H117286   0.431   6.511   3.354
 5803TIP3    H217287   0.530   6.493   3.466
 5804TIP3   OH217288   0.081   6.187   3.001
 5804TIP3    H117289   0.054   6.158   3.090
 5804TIP3    H217290   0.137   6.265   3.021
 5805TIP3   OH217291   0.240   6.148   3.372
 5805TIP3    H117292   0.155   6.194   3.360
 5805TIP3    H217293   0.293   6.185   3.298
 5806TIP3   OH217294   0.179   7.176   3.357
 5806TIP3    H117295   0.145   7.094   3.317
 5806TIP3    H217296   0.150   7.242   3.291
 5807TIP3   OH217297   0.381   6.793   3.193
 5807TIP3    H117298   0.295   6.842   3.203
 5807TIP3    H217299   0.405   6.823   3.103
 5808TIP3   OH217300  -0.202   6.585   2.562
 5808TIP3    H117301  -0.254   6.644   2.621
 5808TIP3    H217302  -0.115   6.589   2.606
 5809TIP3   OH217303   0.063   6.704   3.469
 5809TIP3    H117304   0.054   6.772   3.538
 5809TIP3    H217305  -0.028   6.699   3.436
 5810TIP3   OH217306   0.162   5.744   2.455
 5810TIP3    H117307   0.080   5.764   2.505
 5810TIP3    H217308   0.175   5.827   2.405
 5811TIP3   OH217309   0.417   7.505   3.391
 5811TIP3    H117310   0.416   7.410   3.412
 5811TIP3    H217311   0.325   7.529   3.415
 5812TIP3   OH217312   0.300   6.646   3.663
 5812TIP3    H117313   0.212   6.657   3.623
 5812TIP3    H217314   0.306   6.549   3.669
 5813TIP3   OH217315  -0.162   5.981   3.673
 5813TIP3    H117316  -0.092   5.951   3.735
 5813TIP3    H217317  -0.241   5.971   3.727
 5814TIP3   OH217318   0.090   6.431   3.570
 5814TIP3    H117319   0.051   6.421   3.660
 5814TIP3    H217320   0.034   6.504   3.536
 5815TIP3   OH217321  -0.235   6.395   2.989
 5815TIP3    H117322  -0.314   6.420   2.938
 5815TIP3    H217323  -0.210   6.313   2.942
 5816TIP3   OH217324  -0.062   6.160   3.250
 5816TIP3    H117325  -0.064   6.164   3.348
 5816TIP3    H217326  -0.141   6.104   3.234
 5817TIP3   OH217327   0.154   6.935   3.191
 5817TIP3    H117328   0.176   6.993   3.114
 5817TIP3    H217329   0.057   6.941   3.192
 5818TIP3   OH217330  -0.357   6.034   2.423
 5818TIP3    H117331  -0.434   6.087   2.398
 5818TIP3    H217332  -0.291   6.107   2.431
 5819TIP3   OH217333  -0.215   6.260   2.484
 5819TIP3    H117334  -0.130   6.274   2.529
 5819TIP3    H217335  -0.254   6.348   2.489
 5820TIP3   OH217336   0.203   6.363   2.363
 5820TIP3    H117337   0.139   6.316   2.305
 5820TIP3    H217338   0.197   6.451   2.320
 5821TIP3   OH217339   0.427   7.225   3.441
 5821TIP3    H117340   0.329   7.218   3.433
 5821TIP3    H217341   0.452   7.194   3.351
 5822TIP3   OH217342  -0.105   6.819   3.083
 5822TIP3    H117343  -0.178   6.778   3.130
 5822TIP3    H217344  -0.061   6.740   3.044
 5823TIP3   OH217345  -0.060   6.190   3.514
 5823TIP3    H117346  -0.026   6.270   3.558
 5823TIP3    H217347  -0.086   6.133   3.589
 5824TIP3   OH217348  -0.256   5.966   2.686
 5824TIP3    H117349  -0.296   6.000   2.604
 5824TIP3    H217350  -0.237   6.047   2.736
 5825TIP3   OH217351   0.345   6.365   3.591
 5825TIP3    H117352   0.248   6.378   3.588
 5825TIP3    H217353   0.360   6.338   3.499
 5826TIP3   OH217354  -0.017   6.576   2.978
 5826TIP3    H117355  -0.092   6.514   2.981
 5826TIP3    H217356   0.053   6.527   3.028
 5827TIP3   OH217357   0.012   7.464   2.931
 5827TIP3    H117358  -0.067   7.506   2.893
 5827TIP3    H217359   0.083   7.525   2.898
 5828TIP3   OH217360   0.064   6.650   3.909
 5828TIP3    H117361   0.103   6.583   3.967
 5828TIP3    H217362   0.110   6.730   3.936
 5829TIP3   OH217363   0.085   6.908   3.656
 5829TIP3    H117364   0.029   6.971   3.609
 5829TIP3    H217365   0.174   6.929   3.619
 5830TIP3   OH217366  -0.024   6.376   3.801
 5830TIP3    H117367  -0.103   6.381   3.856
 5830TIP3    H217368   0.047   6.358   3.867
 5831TIP3   OH217369   0.157   6.307   3.988
 5831TIP3    H117370   0.174   6.213   4.009
 5831TIP3    H217371   0.146   6.349   4.076
 5832TIP3   OH217372   0.213   7.638   2.878
 5832TIP3    H117373   0.235   7.669   2.968
 5832TIP3    H217374   0.282   7.680   2.825
 5833TIP3   OH217375   0.236   7.645   3.158
 5833TIP3    H117376   0.199   7.556   3.154
 5833TIP3    H217377   0.301   7.633   3.228
 5834TIP3   OH217378   0.271   7.322   3.731
 5834TIP3    H117379   0.222   7.319   3.813
 5834TIP3    H217380   0.319   7.408   3.738
 5835TIP3   OH217381   0.132   6.815   2.361
 5835TIP3    H117382   0.208   6.874   2.367
 5835TIP3    H217383   0.138   6.770   2.448
 5836TIP3   OH217384   0.228   6.686   2.578
 5836TIP3    H117385   0.160   6.645   2.636
 5836TIP3    H217386   0.289   6.728   2.641
 5837TIP3   OH217387   0.264   7.087   2.991
 5837TIP3    H117388   0.324   7.023   2.947
 5837TIP3    H217389   0.274   7.166   2.933
 5838TIP3   OH217390   0.078   7.373   3.180
 5838TIP3    H117391   0.024   7.441   3.222
 5838TIP3    H217392   0.059   7.390   3.085
 5839TIP3   OH217393   0.144   6.594   2.211
 5839TIP3    H117394   0.063   6.599   2.159
 5839TIP3    H217395   0.134   6.675   2.267
 5840TIP3   OH217396   0.025   6.270   2.179
 5840TIP3    H117397  -0.057   6.315   2.153
 5840TIP3    H217398   0.002   6.177   2.161
 5841TIP3   OH217399   0.041   6.547   2.712
 5841TIP3    H117400   0.042   6.449   2.709
 5841TIP3    H217401   0.025   6.565   2.808
 5842TIP3   OH217402   0.328   6.979   3.565
 5842TIP3    H117403   0.399   6.911   3.558
 5842TIP3    H217404   0.355   7.045   3.500
 5843TIP3   OH217405   0.513   6.785   3.583
 5843TIP3    H117406   0.436   6.734   3.618
 5843TIP3    H217407   0.584   6.720   3.599
 5844TIP3   OH217408  -0.012   5.996   2.137
 5844TIP3    H117409   0.055   5.978   2.207
 5844TIP3    H217410  -0.092   5.953   2.174
 5845TIP3   OH217411   0.034   6.270   2.615
 5845TIP3    H117412   0.076   6.181   2.627
 5845TIP3    H217413   0.090   6.305   2.544
 5846TIP3   OH217414   0.193   6.438   3.095
 5846TIP3    H117415   0.280   6.467   3.058
 5846TIP3    H217416   0.202   6.476   3.185
 5847TIP3   OH217417   0.267   6.580   3.327
 5847TIP3    H117418   0.192   6.617   3.379
 5847TIP3    H217419   0.301   6.661   3.283
 5848TIP3   OH217420   0.712   6.173   3.892
 5848TIP3    H117421   0.771   6.108   3.847
 5848TIP3    H217422   0.685   6.231   3.818
 5849TIP3   OH217423   0.142   6.019   2.643
 5849TIP3    H117424   0.189   6.001   2.727
 5849TIP3    H217425   0.080   5.943   2.639
 5850TIP3   OH217426   0.592   6.316   3.699
 5850TIP3    H117427   0.504   6.356   3.715
 5850TIP3    H217428   0.565   6.245   3.638
 5851TIP3   OH217429   0.224   5.953   2.280
 5851TIP3    H117430   0.265   5.882   2.227
 5851TIP3    H217431   0.290   6.025   2.273
 5852TIP3   OH217432   0.485   6.079   3.573
 5852TIP3    H117433   0.394   6.080   3.539
 5852TIP3    H217434   0.512   5.985   3.559
 5853TIP3   OH217435  -0.268   5.971   3.214
 5853TIP3    H117436  -0.292   5.890   3.261
 5853TIP3    H217437  -0.196   5.939   3.156
 5854TIP3   OH217438   0.211   5.867   3.094
 5854TIP3    H117439   0.252   5.922   3.023
 5854TIP3    H217440   0.118   5.899   3.091
 5855TIP3   OH217441   0.306   5.973   2.861
 5855TIP3    H117442   0.379   5.923   2.819
 5855TIP3    H217443   0.338   6.065   2.847
 5856TIP3   OH217444  -0.068   5.864   3.067
 5856TIP3    H117445  -0.071   5.848   2.971
 5856TIP3    H217446  -0.095   5.778   3.104
 5857TIP3   OH217447  -0.039   5.806   2.635
 5857TIP3    H117448  -0.124   5.855   2.648
 5857TIP3    H217449  -0.060   5.720   2.675
 5858TIP3   OH217450   0.218   6.039   4.008
 5858TIP3    H117451   0.239   6.008   4.099
 5858TIP3    H217452   0.306   6.036   3.965
 5859TIP3   OH217453   0.164   7.588   3.437
 5859TIP3    H117454   0.085   7.543   3.471
 5859TIP3    H217455   0.163   7.665   3.497
 5860TIP3   OH217456   1.423   6.967   2.264
 5860TIP3    H117457   1.395   7.059   2.244
 5860TIP3    H217458   1.345   6.918   2.232
 5861TIP3   OH217459   1.423   6.966   2.645
 5861TIP3    H117460   1.453   6.938   2.733
 5861TIP3    H217461   1.379   6.886   2.612
 5862TIP3   OH217462   0.720   6.862   3.011
 5862TIP3    H117463   0.751   6.795   3.074
 5862TIP3    H217464   0.798   6.920   3.005
 5863TIP3   OH217465   1.666   7.268   2.327
 5863TIP3    H117466   1.650   7.201   2.394
 5863TIP3    H217467   1.693   7.345   2.381
 5864TIP3   OH217468   0.693   7.271   2.738
 5864TIP3    H117469   0.684   7.173   2.739
 5864TIP3    H217470   0.790   7.279   2.732
 5865TIP3   OH217471   0.402   6.474   2.523
 5865TIP3    H117472   0.352   6.556   2.542
 5865TIP3    H217473   0.332   6.420   2.483
 5866TIP3   OH217474   0.464   6.766   2.697
 5866TIP3    H117475   0.512   6.689   2.733
 5866TIP3    H217476   0.519   6.792   2.622
 5867TIP3   OH217477   1.313   7.732   2.342
 5867TIP3    H117478   1.360   7.660   2.295
 5867TIP3    H217479   1.307   7.697   2.431
 5868TIP3   OH217480   1.220   7.192   2.694
 5868TIP3    H117481   1.259   7.117   2.646
 5868TIP3    H217482   1.304   7.238   2.719
 5869TIP3   OH217483   2.234   6.513   2.691
 5869TIP3    H117484   2.262   6.596   2.736
 5869TIP3    H217485   2.254   6.533   2.599
 5870TIP3   OH217486   1.633   6.695   2.727
 5870TIP3    H117487   1.675   6.609   2.746
 5870TIP3    H217488   1.602   6.679   2.636
 5871TIP3   OH217489   0.971   6.354   2.692
 5871TIP3    H117490   0.950   6.427   2.630
 5871TIP3    H217491   0.922   6.281   2.648
 5872TIP3   OH217492   1.664   6.444   2.315
 5872TIP3    H117493   1.737   6.429   2.379
 5872TIP3    H217494   1.715   6.480   2.240
 5873TIP3   OH217495   0.605   6.556   2.800
 5873TIP3    H117496   0.688   6.535   2.847
 5873TIP3    H217497   0.617   6.500   2.720
 5874TIP3   OH217498   1.045   6.754   2.591
 5874TIP3    H117499   1.138   6.728   2.605
 5874TIP3    H217500   1.005   6.670   2.559
 5875TIP3   OH217501   2.306   6.720   2.861
 5875TIP3    H117502   2.222   6.768   2.843
 5875TIP3    H217503   2.322   6.746   2.953
 5876TIP3   OH217504   0.967   6.336   3.126
 5876TIP3    H117505   0.907   6.374   3.058
 5876TIP3    H217506   0.915   6.355   3.207
 5877TIP3   OH217507   1.316   7.190   2.133
 5877TIP3    H117508   1.271   7.168   2.050
 5877TIP3    H217509   1.270   7.273   2.157
 5878TIP3   OH217510   1.073   7.112   2.922
 5878TIP3    H117511   1.010   7.178   2.959
 5878TIP3    H217512   1.116   7.164   2.850
 5879TIP3   OH217513   1.876   6.447   2.486
 5879TIP3    H117514   1.863   6.400   2.570
 5879TIP3    H217515   1.929   6.524   2.513
 5880TIP3   OH217516   0.838   6.452   2.911
 5880TIP3    H117517   0.900   6.526   2.933
 5880TIP3    H217518   0.887   6.411   2.836
 5881TIP3   OH217519   0.901   7.306   3.018
 5881TIP3    H117520   0.876   7.392   2.980
 5881TIP3    H217521   0.823   7.291   3.075
 5882TIP3   OH217522   0.338   7.001   2.272
 5882TIP3    H117523   0.329   7.030   2.179
 5882TIP3    H217524   0.354   7.088   2.315
 5883TIP3   OH217525   1.736   7.511   2.494
 5883TIP3    H117526   1.647   7.503   2.534
 5883TIP3    H217527   1.728   7.598   2.450
 5884TIP3   OH217528   2.027   6.412   2.857
 5884TIP3    H117529   1.939   6.442   2.829
 5884TIP3    H217530   2.085   6.445   2.785
 5885TIP3   OH217531   1.324   6.057   2.840
 5885TIP3    H117532   1.311   5.962   2.857
 5885TIP3    H217533   1.246   6.094   2.886
 5886TIP3   OH217534   1.438   7.558   2.169
 5886TIP3    H117535   1.489   7.476   2.148
 5886TIP3    H217536   1.498   7.625   2.129
 5887TIP3   OH217537   1.582   7.343   2.074
 5887TIP3    H117538   1.538   7.264   2.039
 5887TIP3    H217539   1.617   7.309   2.159
 5888TIP3   OH217540   1.962   7.426   2.839
 5888TIP3    H117541   1.951   7.348   2.779
 5888TIP3    H217542   1.944   7.500   2.778
 5889TIP3   OH217543   1.254   6.817   2.096
 5889TIP3    H117544   1.172   6.868   2.076
 5889TIP3    H217545   1.299   6.818   2.010
 5890TIP3   OH217546   1.213   6.603   1.813
 5890TIP3    H117547   1.280   6.652   1.864
 5890TIP3    H217548   1.270   6.540   1.765
 5891TIP3   OH217549   2.157   7.061   2.683
 5891TIP3    H117550   2.074   7.114   2.688
 5891TIP3    H217551   2.186   7.085   2.592
 5892TIP3   OH217552   1.600   6.901   2.068
 5892TIP3    H117553   1.545   6.926   2.145
 5892TIP3    H217554   1.683   6.875   2.113
 5893TIP3   OH217555   1.836   6.941   2.979
 5893TIP3    H117556   1.833   7.025   3.028
 5893TIP3    H217557   1.749   6.945   2.933
 5894TIP3   OH217558   0.833   6.899   2.484
 5894TIP3    H117559   0.791   6.840   2.417
 5894TIP3    H217560   0.910   6.846   2.512
 5895TIP3   OH217561   0.963   7.310   2.633
 5895TIP3    H117562   0.943   7.267   2.548
 5895TIP3    H217563   1.053   7.277   2.651
 5896TIP3   OH217564   0.971   6.870   2.838
 5896TIP3    H117565   1.003   6.850   2.748
 5896TIP3    H217566   1.013   6.956   2.858
 5897TIP3   OH217567   1.496   7.508   2.616
 5897TIP3    H117568   1.480   7.588   2.668
 5897TIP3    H217569   1.480   7.435   2.679
 5898TIP3   OH217570   1.107   7.426   3.162
 5898TIP3    H117571   1.048   7.490   3.208
 5898TIP3    H217572   1.040   7.373   3.113
 5899TIP3   OH217573   1.443   6.758   1.894
 5899TIP3    H117574   1.501   6.818   1.946
 5899TIP3    H217575   1.468   6.784   1.802
 5900TIP3   OH217576   0.861   6.983   3.262
 5900TIP3    H117577   0.866   7.070   3.308
 5900TIP3    H217578   0.766   6.964   3.274
 5901TIP3   OH217579   1.184   7.442   2.172
 5901TIP3    H117580   1.264   7.495   2.188
 5901TIP3    H217581   1.124   7.505   2.131
 5902TIP3   OH217582   0.903   7.595   3.248
 5902TIP3    H117583   0.867   7.593   3.157
 5902TIP3    H217584   0.824   7.574   3.303
 5903TIP3   OH217585   1.957   6.000   1.942
 5903TIP3    H117586   1.876   6.020   1.993
 5903TIP3    H217587   1.969   6.084   1.892
 5904TIP3   OH217588   0.703   6.738   2.292
 5904TIP3    H117589   0.641   6.785   2.231
 5904TIP3    H217590   0.659   6.653   2.301
 5905TIP3   OH217591   1.755   7.367   1.489
 5905TIP3    H117592   1.761   7.464   1.473
 5905TIP3    H217593   1.848   7.339   1.475
 5906TIP3   OH217594   0.482   7.126   3.195
 5906TIP3    H117595   0.416   7.101   3.128
 5906TIP3    H217596   0.519   7.039   3.222
 5907TIP3   OH217597   0.336   7.314   2.840
 5907TIP3    H117598   0.429   7.311   2.816
 5907TIP3    H217599   0.331   7.400   2.884
 5908TIP3   OH217600   2.199   7.770   2.884
 5908TIP3    H117601   2.198   7.673   2.897
 5908TIP3    H217602   2.116   7.795   2.929
 5909TIP3   OH217603   1.306   7.556   3.019
 5909TIP3    H117604   1.304   7.649   3.051
 5909TIP3    H217605   1.234   7.516   3.074
 5910TIP3   OH217606   1.068   7.685   1.986
 5910TIP3    H117607   1.043   7.672   1.893
 5910TIP3    H217608   1.037   7.776   2.005
 5911TIP3   OH217609   0.515   7.505   2.361
 5911TIP3    H117610   0.571   7.523   2.439
 5911TIP3    H217611   0.458   7.437   2.401
 5912TIP3   OH217612   1.313   7.609   1.611
 5912TIP3    H117613   1.359   7.537   1.562
 5912TIP3    H217614   1.346   7.597   1.702
 5913TIP3   OH217615   1.323   7.636   1.891
 5913TIP3    H117616   1.234   7.642   1.931
 5913TIP3    H217617   1.373   7.595   1.963
 5914TIP3   OH217618   2.090   6.902   3.158
 5914TIP3    H117619   2.008   6.915   3.108
 5914TIP3    H217620   2.104   6.806   3.149
 5915TIP3   OH217621   0.687   7.309   3.185
 5915TIP3    H117622   0.736   7.292   3.268
 5915TIP3    H217623   0.613   7.245   3.192
 5916TIP3   OH217624   1.085   6.132   2.968
 5916TIP3    H117625   0.995   6.102   2.943
 5916TIP3    H217626   1.060   6.215   3.014
 5917TIP3   OH217627   1.618   6.247   3.163
 5917TIP3    H117628   1.686   6.221   3.228
 5917TIP3    H217629   1.534   6.227   3.209
 5918TIP3   OH217630   1.859   6.677   3.082
 5918TIP3    H117631   1.810   6.673   3.167
 5918TIP3    H217632   1.833   6.764   3.046
 5919TIP3   OH217633   1.516   6.806   1.636
 5919TIP3    H117634   1.486   6.778   1.548
 5919TIP3    H217635   1.596   6.856   1.615
 5920TIP3   OH217636   1.230   6.181   1.939
 5920TIP3    H117637   1.198   6.180   2.031
 5920TIP3    H217638   1.191   6.098   1.907
 5921TIP3   OH217639   1.017   6.647   2.987
 5921TIP3    H117640   0.966   6.668   3.068
 5921TIP3    H217641   1.000   6.728   2.934
 5922TIP3   OH217642   0.901   6.534   2.501
 5922TIP3    H117643   0.808   6.508   2.518
 5922TIP3    H217644   0.913   6.493   2.412
 5923TIP3   OH217645   1.391   6.620   2.229
 5923TIP3    H117646   1.337   6.691   2.187
 5923TIP3    H217647   1.445   6.590   2.153
 5924TIP3   OH217648   1.565   6.898   3.315
 5924TIP3    H117649   1.542   6.826   3.377
 5924TIP3    H217650   1.659   6.912   3.338
 5925TIP3   OH217651   1.548   6.648   2.468
 5925TIP3    H117652   1.488   6.679   2.397
 5925TIP3    H217653   1.581   6.566   2.425
 5926TIP3   OH217654   0.835   6.677   3.196
 5926TIP3    H117655   0.862   6.741   3.264
 5926TIP3    H217656   0.823   6.595   3.247
 5927TIP3   OH217657   0.887   6.151   1.907
 5927TIP3    H117658   0.876   6.150   2.004
 5927TIP3    H217659   0.810   6.206   1.881
 5928TIP3   OH217660   0.428   6.198   2.777
 5928TIP3    H117661   0.503   6.231   2.831
 5928TIP3    H217662   0.470   6.168   2.696
 5929TIP3   OH217663   0.402   6.178   2.297
 5929TIP3    H117664   0.445   6.217   2.217
 5929TIP3    H217665   0.343   6.252   2.321
 5930TIP3   OH217666   1.559   6.895   2.891
 5930TIP3    H117667   1.591   6.823   2.832
 5930TIP3    H217668   1.530   6.842   2.968
 5931TIP3   OH217669   1.227   6.355   2.562
 5931TIP3    H117670   1.144   6.354   2.615
 5931TIP3    H217671   1.295   6.356   2.632
 5932TIP3   OH217672   0.663   6.412   2.571
 5932TIP3    H117673   0.569   6.420   2.544
 5932TIP3    H217674   0.686   6.320   2.546
 5933TIP3   OH217675   0.932   6.407   2.259
 5933TIP3    H117676   1.025   6.425   2.237
 5933TIP3    H217677   0.884   6.430   2.177
 5934TIP3   OH217678   1.720   6.431   2.763
 5934TIP3    H117679   1.686   6.443   2.855
 5934TIP3    H217680   1.652   6.371   2.727
 5935TIP3   OH217681   0.774   6.440   2.040
 5935TIP3    H117682   0.698   6.400   1.993
 5935TIP3    H217683   0.824   6.476   1.963
 5936TIP3   OH217684   1.890   8.120   2.983
 5936TIP3    H117685   1.886   8.144   2.888
 5936TIP3    H217686   1.966   8.171   3.014
 5937TIP3   OH217687   0.846   7.230   3.405
 5937TIP3    H117688   0.926   7.262   3.452
 5937TIP3    H217689   0.783   7.230   3.479
 5938TIP3   OH217690   1.311   6.684   2.660
 5938TIP3    H117691   1.384   6.644   2.610
 5938TIP3    H217692   1.320   6.642   2.747
 5939TIP3   OH217693   0.834   6.171   2.539
 5939TIP3    H117694   0.800   6.091   2.584
 5939TIP3    H217695   0.884   6.134   2.465
 5940TIP3   OH217696   1.287   6.580   2.950
 5940TIP3    H117697   1.197   6.616   2.965
 5940TIP3    H217698   1.344   6.641   3.001
 5941TIP3   OH217699   1.027   6.968   2.047
 5941TIP3    H117700   0.952   6.905   2.035
 5941TIP3    H217701   1.007   7.003   2.137
 5942TIP3   OH217702   1.925   7.207   2.675
 5942TIP3    H117703   1.949   7.256   2.593
 5942TIP3    H217704   1.838   7.167   2.650
 5943TIP3   OH217705   1.482   6.284   1.905
 5943TIP3    H117706   1.385   6.268   1.915
 5943TIP3    H217707   1.492   6.379   1.930
 5944TIP3   OH217708   1.424   7.290   3.042
 5944TIP3    H117709   1.445   7.269   3.134
 5944TIP3    H217710   1.385   7.378   3.048
 5945TIP3   OH217711   1.552   6.530   2.009
 5945TIP3    H117712   1.648   6.537   2.025
 5945TIP3    H217713   1.532   6.610   1.957
 5946TIP3   OH217714   0.716   6.994   2.721
 5946TIP3    H117715   0.755   6.965   2.636
 5946TIP3    H217716   0.755   6.930   2.783
 5947TIP3   OH217717   1.169   7.119   1.870
 5947TIP3    H117718   1.122   7.205   1.881
 5947TIP3    H217719   1.115   7.062   1.928
 5948TIP3   OH217720   0.597   6.916   3.334
 5948TIP3    H117721   0.616   6.899   3.429
 5948TIP3    H217722   0.531   6.847   3.315
 5949TIP3   OH217723   1.322   7.028   3.354
 5949TIP3    H117724   1.262   6.969   3.304
 5949TIP3    H217725   1.409   6.995   3.326
 5950TIP3   OH217726   1.584   7.548   2.938
 5950TIP3    H117727   1.488   7.547   2.949
 5950TIP3    H217728   1.612   7.600   3.016
 5951TIP3   OH217729   1.995   6.621   1.846
 5951TIP3    H117730   1.932   6.575   1.785
 5951TIP3    H217731   1.991   6.710   1.805
 5952TIP3   OH217732   2.212   7.479   2.927
 5952TIP3    H117733   2.114   7.474   2.919
 5952TIP3    H217734   2.238   7.450   2.837
 5953TIP3   OH217735   1.697   7.441   1.755
 5953TIP3    H117736   1.668   7.373   1.817
 5953TIP3    H217737   1.706   7.393   1.671
 5954TIP3   OH217738   1.690   7.070   2.593
 5954TIP3    H117739   1.597   7.044   2.606
 5954TIP3    H217740   1.724   6.990   2.548
 5955TIP3   OH217741   0.819   7.297   2.345
 5955TIP3    H117742   0.824   7.378   2.291
 5955TIP3    H217743   0.724   7.286   2.354
 5956TIP3   OH217744   0.388   6.595   2.093
 5956TIP3    H117745   0.430   6.685   2.098
 5956TIP3    H217746   0.304   6.609   2.142
 5957TIP3   OH217747   0.956   7.063   2.291
 5957TIP3    H117748   0.921   7.153   2.308
 5957TIP3    H217749   0.918   7.013   2.365
 5958TIP3   OH217750   1.086   7.641   2.814
 5958TIP3    H117751   1.126   7.715   2.764
 5958TIP3    H217752   1.163   7.608   2.863
 5959TIP3   OH217753   0.743   7.533   2.196
 5959TIP3    H117754   0.658   7.539   2.243
 5959TIP3    H217755   0.775   7.626   2.203
 5960TIP3   OH217756   1.475   7.276   2.773
 5960TIP3    H117757   1.465   7.274   2.871
 5960TIP3    H217758   1.555   7.223   2.761
 5961TIP3   OH217759   1.452   7.166   1.654
 5961TIP3    H117760   1.499   7.141   1.736
 5961TIP3    H217761   1.361   7.140   1.676
 5962TIP3   OH217762   1.724   7.809   2.824
 5962TIP3    H117763   1.644   7.753   2.816
 5962TIP3    H217764   1.708   7.874   2.751
 5963TIP3   OH217765   1.788   7.646   1.469
 5963TIP3    H117766   1.832   7.722   1.429
 5963TIP3    H217767   1.709   7.691   1.508
 5964TIP3   OH217768   0.809   6.420   3.342
 5964TIP3    H117769   0.713   6.425   3.356
 5964TIP3    H217770   0.836   6.361   3.414
 5965TIP3   OH217771   1.608   7.099   1.872
 5965TIP3    H117772   1.599   7.035   1.945
 5965TIP3    H217773   1.706   7.100   1.861
 5966TIP3   OH217774   0.525   7.505   2.974
 5966TIP3    H117775   0.577   7.430   3.006
 5966TIP3    H217776   0.554   7.575   3.034
 5967TIP3   OH217777   0.789   7.146   1.651
 5967TIP3    H117778   0.827   7.060   1.625
 5967TIP3    H217779   0.790   7.139   1.749
 5968TIP3   OH217780   0.787   7.160   1.921
 5968TIP3    H117781   0.837   7.130   1.998
 5968TIP3    H217782   0.778   7.256   1.937
 5969TIP3   OH217783   0.508   6.840   2.134
 5969TIP3    H117784   0.452   6.888   2.199
 5969TIP3    H217785   0.521   6.912   2.068
 5970TIP3   OH217786   1.646   6.483   3.022
 5970TIP3    H117787   1.724   6.522   3.064
 5970TIP3    H217788   1.631   6.403   3.076
 5971TIP3   OH217789   1.526   6.235   2.187
 5971TIP3    H117790   1.511   6.260   2.093
 5971TIP3    H217791   1.565   6.317   2.224
 5972TIP3   OH217792   1.030   7.351   1.901
 5972TIP3    H117793   0.941   7.382   1.925
 5972TIP3    H217794   1.055   7.412   1.831
 5973TIP3   OH217795   1.216   6.414   2.290
 5973TIP3    H117796   1.280   6.486   2.273
 5973TIP3    H217797   1.219   6.407   2.388
 5974TIP3   OH217798   1.484   6.733   3.099
 5974TIP3    H117799   1.504   6.788   3.177
 5974TIP3    H217800   1.539   6.655   3.114
 5975TIP3   OH217801   1.360   6.142   2.393
 5975TIP3    H117802   1.351   6.219   2.452
 5975TIP3    H217803   1.420   6.178   2.324
 5976TIP3   OH217804   0.764   7.436   1.943
 5976TIP3    H117805   0.756   7.518   1.891
 5976TIP3    H217806   0.753   7.470   2.034
 5977TIP3   OH217807   0.871   6.138   2.183
 5977TIP3    H117808   0.867   6.230   2.217
 5977TIP3    H217809   0.967   6.123   2.191
 5978TIP3   OH217810   2.125   6.633   3.078
 5978TIP3    H117811   2.027   6.632   3.086
 5978TIP3    H217812   2.134   6.593   2.991
 5979TIP3   OH217813   1.775   6.828   2.467
 5979TIP3    H117814   1.699   6.769   2.479
 5979TIP3    H217815   1.847   6.780   2.515
 5980TIP3   OH217816   0.513   7.065   1.983
 5980TIP3    H117817   0.509   7.159   1.959
 5980TIP3    H217818   0.565   7.029   1.908
 5981TIP3   OH217819   0.439   6.328   2.075
 5981TIP3    H117820   0.442   6.426   2.081
 5981TIP3    H217821   0.366   6.313   2.014
 5982TIP3   OH217822   1.744   7.783   2.417
 5982TIP3    H117823   1.701   7.829   2.342
 5982TIP3    H217824   1.838   7.801   2.396
 5983TIP3   OH217825   0.821   6.052   2.944
 5983TIP3    H117826   0.788   6.019   2.857
 5983TIP3    H217827   0.809   5.973   3.001
 5984TIP3   OH217828   0.349   7.268   2.326
 5984TIP3    H117829   0.292   7.326   2.379
 5984TIP3    H217830   0.369   7.321   2.248
 5985TIP3   OH217831   0.515   7.809   3.398
 5985TIP3    H117832   0.601   7.814   3.445
 5985TIP3    H217833   0.502   7.713   3.394
 5986TIP3   OH217834   0.995   7.777   3.441
 5986TIP3    H117835   1.090   7.762   3.449
 5986TIP3    H217836   0.973   7.718   3.366
 5987TIP3   OH217837   0.979   7.356   1.608
 5987TIP3    H117838   0.915   7.283   1.625
 5987TIP3    H217839   1.030   7.314   1.537
 5988TIP3   OH217840   1.638   7.682   3.172
 5988TIP3    H117841   1.628   7.613   3.240
 5988TIP3    H217842   1.714   7.734   3.205
 5989TIP3   OH217843   1.435   7.398   1.487
 5989TIP3    H117844   1.470   7.327   1.544
 5989TIP3    H217845   1.492   7.392   1.408
 5990TIP3   OH217846   0.650   7.218   3.600
 5990TIP3    H117847   0.668   7.121   3.602
 5990TIP3    H217848   0.564   7.220   3.552
 5991TIP3   OH217849   0.645   6.886   1.815
 5991TIP3    H117850   0.702   6.842   1.880
 5991TIP3    H217851   0.702   6.881   1.735
 5992TIP3   OH217852   1.255   7.304   3.369
 5992TIP3    H117853   1.212   7.320   3.283
 5992TIP3    H217854   1.285   7.210   3.361
 5993TIP3   OH217855   1.148   7.067   1.598
 5993TIP3    H117856   1.143   7.080   1.695
 5993TIP3    H217857   1.132   6.970   1.592
 5994TIP3   OH217858   1.747   7.311   2.975
 5994TIP3    H117859   1.820   7.358   2.931
 5994TIP3    H217860   1.675   7.376   2.964
 5995TIP3   OH217861   0.766   6.954   3.578
 5995TIP3    H117862   0.840   6.894   3.558
 5995TIP3    H217863   0.791   6.985   3.668
 5996TIP3   OH217864   0.834   6.771   2.012
 5996TIP3    H117865   0.803   6.731   2.095
 5996TIP3    H217866   0.867   6.693   1.963
 5997TIP3   OH217867   1.100   6.837   3.239
 5997TIP3    H117868   1.023   6.897   3.242
 5997TIP3    H217869   1.148   6.871   3.160
 5998TIP3   OH217870   0.934   6.564   1.853
 5998TIP3    H117871   0.904   6.568   1.760
 5998TIP3    H217872   1.031   6.573   1.843
 5999TIP3   OH217873   1.616   7.239   3.373
 5999TIP3    H117874   1.697   7.216   3.326
 5999TIP3    H217875   1.613   7.173   3.445
 6000TIP3   OH217876   1.754   6.898   1.513
 6000TIP3    H117877   1.733   6.851   1.431
 6000TIP3    H217878   1.723   6.988   1.490
 6001TIP3   OH217879   1.223   6.625   3.366
 6001TIP3    H117880   1.223   6.545   3.310
 6001TIP3    H217881   1.180   6.691   3.308
 6002TIP3   OH217882   1.226   6.411   3.172
 6002TIP3    H117883   1.253   6.453   3.088
 6002TIP3    H217884   1.132   6.388   3.154
 6003TIP3   OH217885   1.253   6.947   3.045
 6003TIP3    H117886   1.337   6.957   2.997
 6003TIP3    H217887   1.197   7.015   3.002
 6004TIP3   OH217888   1.835   6.915   3.427
 6004TIP3    H117889   1.884   6.831   3.439
 6004TIP3    H217890   1.904   6.973   3.392
 6005TIP3   OH217891   1.877   7.167   3.163
 6005TIP3    H117892   1.819   7.221   3.104
 6005TIP3    H217893   1.964   7.187   3.123
 6006TIP3   OH217894   1.102   6.738   3.596
 6006TIP3    H117895   1.032   6.670   3.610
 6006TIP3    H217896   1.136   6.711   3.508
 6007TIP3   OH217897   1.358   6.175   3.239
 6007TIP3    H117898   1.310   6.258   3.217
 6007TIP3    H217899   1.288   6.108   3.228
 6008TIP3   OH217900   1.484   6.680   3.456
 6008TIP3    H117901   1.473   6.669   3.552
 6008TIP3    H217902   1.394   6.655   3.426
 6009TIP3   OH217903   1.724   6.628   3.310
 6009TIP3    H117904   1.647   6.630   3.371
 6009TIP3    H217905   1.796   6.597   3.368
 6010TIP3   OH217906   1.955   6.570   3.462
 6010TIP3    H117907   1.966   6.475   3.481
 6010TIP3    H217908   1.948   6.609   3.552
 6011TIP3   OH217909   0.941   6.517   3.648
 6011TIP3    H117910   0.948   6.426   3.614
 6011TIP3    H217911   0.976   6.506   3.739
 6012TIP3   OH217912   1.453   6.186   3.497
 6012TIP3    H117913   1.520   6.115   3.492
 6012TIP3    H217914   1.413   6.179   3.408
 6013TIP3   OH217915   1.518   6.401   3.655
 6013TIP3    H117916   1.496   6.330   3.591
 6013TIP3    H217917   1.440   6.460   3.649
 6014TIP3   OH217918   0.299   7.462   2.554
 6014TIP3    H117919   0.251   7.404   2.615
 6014TIP3    H217920   0.322   7.535   2.614
 6015TIP3   OH217921   1.998   7.872   2.373
 6015TIP3    H117922   2.022   7.907   2.460
 6015TIP3    H217923   2.056   7.923   2.314
 6016TIP3   OH217924   2.026   7.895   2.655
 6016TIP3    H117925   1.982   7.808   2.650
 6016TIP3    H217926   2.101   7.873   2.712
 6017TIP3   OH217927   2.073   7.571   3.228
 6017TIP3    H117928   1.999   7.579   3.292
 6017TIP3    H217929   2.113   7.661   3.233
 6018TIP3   OH217930   1.889   7.084   1.847
 6018TIP3    H117931   1.957   7.149   1.820
 6018TIP3    H217932   1.931   7.045   1.927
 6019TIP3   OH217933   2.016   6.952   2.051
 6019TIP3    H117934   1.951   6.909   2.111
 6019TIP3    H217935   2.081   6.990   2.114
 6020TIP3   OH217936   2.070   7.344   2.484
 6020TIP3    H117937   2.124   7.280   2.433
 6020TIP3    H217938   2.062   7.418   2.422
 6021TIP3   OH217939   1.902   7.644   2.679
 6021TIP3    H117940   1.831   7.687   2.731
 6021TIP3    H217941   1.851   7.596   2.610
 6022TIP3   OH217942   1.954   6.859   1.698
 6022TIP3    H117943   1.882   6.863   1.631
 6022TIP3    H217944   1.928   6.936   1.754
 6023TIP3   OH217945   1.826   6.533   1.653
 6023TIP3    H117946   1.782   6.572   1.576
 6023TIP3    H217947   1.801   6.438   1.642
 6024TIP3   OH217948   1.831   6.808   2.197
 6024TIP3    H117949   1.838   6.711   2.194
 6024TIP3    H217950   1.816   6.824   2.293
 6025TIP3   OH217951   0.456   6.889   2.945
 6025TIP3    H117952   0.454   6.855   2.852
 6025TIP3    H217953   0.553   6.889   2.961
 6026TIP3   OH217954   2.119   7.233   3.055
 6026TIP3    H117955   2.192   7.167   3.046
 6026TIP3    H217956   2.146   7.303   2.993
 6027TIP3   OH217957   2.305   7.039   3.071
 6027TIP3    H117958   2.230   6.989   3.110
 6027TIP3    H217959   2.377   6.975   3.086
 6028TIP3   OH217960   1.769   6.266   1.638
 6028TIP3    H117961   1.843   6.236   1.694
 6028TIP3    H217962   1.696   6.208   1.664
 6029TIP3   OH217963   1.826   6.524   2.093
 6029TIP3    H117964   1.867   6.436   2.109
 6029TIP3    H217965   1.884   6.558   2.023
 6030TIP3   OH217966   1.988   6.698   2.588
 6030TIP3    H117967   2.074   6.725   2.548
 6030TIP3    H217968   2.001   6.736   2.677
 6031TIP3   OH217969   2.056   6.843   2.820
 6031TIP3    H117970   1.979   6.876   2.869
 6031TIP3    H217971   2.088   6.924   2.775
 6032TIP3   OH217972   0.674   6.568   3.617
 6032TIP3    H117973   0.771   6.564   3.620
 6032TIP3    H217974   0.651   6.485   3.662
 6033TIP3   OH217975   2.509   6.434   3.377
 6033TIP3    H117976   2.567   6.367   3.333
 6033TIP3    H217977   2.481   6.489   3.301
 6034TIP3   OH217978   1.936   6.274   2.130
 6034TIP3    H117979   1.983   6.258   2.215
 6034TIP3    H217980   1.875   6.198   2.129
 6035TIP3   OH217981   0.636   6.260   2.949
 6035TIP3    H117982   0.699   6.186   2.961
 6035TIP3    H217983   0.696   6.336   2.944
 6036TIP3   OH217984   0.440   6.532   3.024
 6036TIP3    H117985   0.489   6.530   2.939
 6036TIP3    H217986   0.467   6.617   3.060
 6037TIP3   OH217987   2.380   6.574   3.183
 6037TIP3    H117988   2.293   6.613   3.204
 6037TIP3    H217989   2.351   6.501   3.123
 6038TIP3   OH217990   2.016   6.210   1.763
 6038TIP3    H117991   2.057   6.137   1.711
 6038TIP3    H217992   2.083   6.280   1.756
 6039TIP3   OH217993   0.421   6.035   2.525
 6039TIP3    H117994   0.327   6.035   2.551
 6039TIP3    H217995   0.420   6.094   2.446
 6040TIP3   OH217996   1.584   7.738   2.032
 6040TIP3    H117997   1.636   7.726   1.950
 6040TIP3    H217998   1.633   7.809   2.077
 6041TIP3   OH217999   0.641   6.115   3.338
 6041TIP3    H118000   0.592   6.113   3.422
 6041TIP3    H218001   0.574   6.157   3.279
 6042TIP3   OH218002   0.688   7.544   3.416
 6042TIP3    H118003   0.596   7.517   3.398
 6042TIP3    H218004   0.695   7.528   3.511
 6043TIP3   OH218005   0.859   7.576   2.962
 6043TIP3    H118006   0.811   7.653   2.924
 6043TIP3    H218007   0.945   7.590   2.918
 6044TIP3   OH218008   1.304   7.821   3.100
 6044TIP3    H118009   1.346   7.822   3.189
 6044TIP3    H218010   1.370   7.873   3.048
 6045TIP3   OH218011   1.484   7.974   2.959
 6045TIP3    H118012   1.555   7.923   2.919
 6045TIP3    H218013   1.534   8.031   3.020
 6046TIP3   OH218014   2.278   6.336   3.059
 6046TIP3    H118015   2.187   6.331   3.027
 6046TIP3    H218016   2.309   6.243   3.047
 6047TIP3   OH218017   0.539   7.834   2.988
 6047TIP3    H118018   0.450   7.869   2.966
 6047TIP3    H218019   0.552   7.874   3.075
 6048TIP3   OH218020   0.772   7.812   2.843
 6048TIP3    H118021   0.687   7.825   2.889
 6048TIP3    H218022   0.753   7.847   2.755
 6049TIP3   OH218023   1.198   7.842   2.642
 6049TIP3    H118024   1.133   7.864   2.574
 6049TIP3    H218025   1.211   7.929   2.684
 6050TIP3   OH218026   1.467   7.782   2.693
 6050TIP3    H118027   1.372   7.797   2.675
 6050TIP3    H218028   1.507   7.859   2.651
 6051TIP3   OH218029   1.677   7.975   2.609
 6051TIP3    H118030   1.660   8.059   2.562
 6051TIP3    H218031   1.700   7.915   2.535
 6052TIP3   OH218032   0.455   7.634   2.735
 6052TIP3    H118033   0.479   7.605   2.825
 6052TIP3    H218034   0.525   7.586   2.684
 6053TIP3   OH218035   0.648   7.503   2.596
 6053TIP3    H118036   0.661   7.418   2.644
 6053TIP3    H218037   0.740   7.538   2.594
 6054TIP3   OH218038   0.910   7.595   2.592
 6054TIP3    H118039   0.942   7.504   2.580
 6054TIP3    H218040   0.955   7.617   2.676
 6055TIP3   OH218041   1.484   6.251   2.679
 6055TIP3    H118042   1.440   6.182   2.731
 6055TIP3    H218043   1.555   6.202   2.634
 6056TIP3   OH218044   2.007   6.130   2.584
 6056TIP3    H118045   2.043   6.183   2.509
 6056TIP3    H218046   1.911   6.150   2.578
 6057TIP3   OH218047   2.102   6.231   2.348
 6057TIP3    H118048   2.175   6.180   2.307
 6057TIP3    H218049   2.135   6.323   2.333
 6058TIP3   OH218050   0.732   5.960   2.696
 6058TIP3    H118051   0.640   5.926   2.695
 6058TIP3    H218052   0.781   5.875   2.692
 6059TIP3   OH218053   0.518   5.829   2.343
 6059TIP3    H118054   0.548   5.886   2.270
 6059TIP3    H218055   0.488   5.894   2.409
 6060TIP3   OH218056   1.175   5.992   2.575
 6060TIP3    H118057   1.234   6.042   2.517
 6060TIP3    H218058   1.196   6.030   2.662
 6061TIP3   OH218059   1.724   6.139   2.560
 6061TIP3    H118060   1.719   6.103   2.471
 6061TIP3    H218061   1.710   6.058   2.615
 6062TIP3   OH218062   1.752   6.061   2.122
 6062TIP3    H118063   1.666   6.105   2.134
 6062TIP3    H218064   1.737   5.976   2.168
 6063TIP3   OH218065   0.637   5.986   2.111
 6063TIP3    H118066   0.687   5.925   2.052
 6063TIP3    H218067   0.708   6.043   2.145
 6064TIP3   OH218068   1.149   6.163   2.204
 6064TIP3    H118069   1.208   6.118   2.266
 6064TIP3    H218070   1.168   6.256   2.230
 6065TIP3   OH218071   1.066   7.590   1.717
 6065TIP3    H118072   1.151   7.617   1.676
 6065TIP3    H218073   1.046   7.510   1.663
 6066TIP3   OH218074   1.729   7.708   1.797
 6066TIP3    H118075   1.719   7.611   1.784
 6066TIP3    H218076   1.681   7.742   1.719
 6067TIP3   OH218077   0.940   6.240   3.585
 6067TIP3    H118078   0.906   6.170   3.644
 6067TIP3    H218079   1.034   6.241   3.612
 6068TIP3   OH218080   1.188   6.237   3.705
 6068TIP3    H118081   1.273   6.212   3.667
 6068TIP3    H218082   1.175   6.167   3.772
 6069TIP3   OH218083   2.013   6.299   3.493
 6069TIP3    H118084   2.032   6.268   3.585
 6069TIP3    H218085   2.101   6.294   3.451
 6070TIP3   OH218086   1.953   7.851   2.985
 6070TIP3    H118087   1.874   7.819   2.937
 6070TIP3    H218088   1.933   7.947   2.989
 6071TIP3   OH218089   3.220   7.223   1.751
 6071TIP3    H118090   3.192   7.315   1.733
 6071TIP3    H218091   3.141   7.175   1.720
 6072TIP3   OH218092   3.213   7.223   2.134
 6072TIP3    H118093   3.249   7.198   2.221
 6072TIP3    H218094   3.174   7.140   2.103
 6073TIP3   OH218095   2.518   7.119   2.497
 6073TIP3    H118096   2.548   7.052   2.561
 6073TIP3    H218097   2.596   7.175   2.491
 6074TIP3   OH218098   3.457   7.531   1.814
 6074TIP3    H118099   3.452   7.458   1.877
 6074TIP3    H218100   3.494   7.602   1.869
 6075TIP3   OH218101   2.489   7.529   2.222
 6075TIP3    H118102   2.479   7.431   2.224
 6075TIP3    H218103   2.586   7.536   2.219
 6076TIP3   OH218104   2.195   6.733   2.008
 6076TIP3    H118105   2.146   6.816   2.023
 6076TIP3    H218106   2.125   6.678   1.969
 6077TIP3   OH218107   2.255   7.019   2.179
 6077TIP3    H118108   2.304   6.943   2.217
 6077TIP3    H218109   2.315   7.049   2.109
 6078TIP3   OH218110   3.107   7.989   1.830
 6078TIP3    H118111   3.158   7.917   1.789
 6078TIP3    H218112   3.100   7.961   1.922
 6079TIP3   OH218113   3.017   7.449   2.180
 6079TIP3    H118114   3.057   7.371   2.137
 6079TIP3    H218115   3.100   7.495   2.205
 6080TIP3   OH218116   4.027   6.770   2.177
 6080TIP3    H118117   4.057   6.851   2.224
 6080TIP3    H218118   4.052   6.791   2.086
 6081TIP3   OH218119   3.427   6.952   2.214
 6081TIP3    H118120   3.471   6.867   2.234
 6081TIP3    H218121   3.398   6.935   2.122
 6082TIP3   OH218122   2.766   6.611   2.179
 6082TIP3    H118123   2.746   6.683   2.116
 6082TIP3    H218124   2.718   6.537   2.135
 6083TIP3   OH218125   3.460   6.700   1.801
 6083TIP3    H118126   3.532   6.686   1.867
 6083TIP3    H218127   3.512   6.737   1.727
 6084TIP3   OH218128   2.400   6.813   2.286
 6084TIP3    H118129   2.483   6.792   2.333
 6084TIP3    H218130   2.412   6.757   2.206
 6085TIP3   OH218131   2.841   7.011   2.077
 6085TIP3    H118132   2.935   6.985   2.092
 6085TIP3    H218133   2.802   6.926   2.046
 6086TIP3   OH218134   4.100   6.973   2.351
 6086TIP3    H118135   4.019   7.024   2.332
 6086TIP3    H218136   4.125   7.008   2.438
 6087TIP3   OH218137   2.763   6.593   2.613
 6087TIP3    H118138   2.703   6.630   2.545
 6087TIP3    H218139   2.711   6.612   2.694
 6088TIP3   OH218140   3.113   7.446   1.619
 6088TIP3    H118141   3.067   7.420   1.538
 6088TIP3    H218142   3.068   7.531   1.640
 6089TIP3   OH218143   2.869   7.369   2.408
 6089TIP3    H118144   2.807   7.435   2.445
 6089TIP3    H218145   2.913   7.420   2.337
 6090TIP3   OH218146   3.670   6.705   1.973
 6090TIP3    H118147   3.663   6.658   2.057
 6090TIP3    H218148   3.726   6.781   1.998
 6091TIP3   OH218149   2.634   6.709   2.397
 6091TIP3    H118150   2.696   6.782   2.420
 6091TIP3    H218151   2.683   6.668   2.323
 6092TIP3   OH218152   2.697   7.563   2.505
 6092TIP3    H118153   2.672   7.649   2.467
 6092TIP3    H218154   2.619   7.547   2.562
 6093TIP3   OH218155   2.094   7.253   1.742
 6093TIP3    H118156   2.050   7.279   1.659
 6093TIP3    H218157   2.122   7.339   1.778
 6094TIP3   OH218158   3.528   7.769   1.980
 6094TIP3    H118159   3.438   7.760   2.019
 6094TIP3    H218160   3.522   7.857   1.939
 6095TIP3   OH218161   3.823   6.666   2.342
 6095TIP3    H118162   3.737   6.702   2.314
 6095TIP3    H218163   3.884   6.701   2.273
 6096TIP3   OH218164   3.119   6.313   2.325
 6096TIP3    H118165   3.108   6.218   2.345
 6096TIP3    H218166   3.042   6.350   2.373
 6097TIP3   OH218167   3.243   7.821   1.659
 6097TIP3    H118168   3.282   7.732   1.643
 6097TIP3    H218169   3.314   7.876   1.625
 6098TIP3   OH218170   3.376   7.604   1.561
 6098TIP3    H118171   3.339   7.523   1.523
 6098TIP3    H218172   3.412   7.570   1.646
 6099TIP3   OH218173   3.761   7.682   2.324
 6099TIP3    H118174   3.751   7.604   2.265
 6099TIP3    H218175   3.745   7.756   2.263
 6100TIP3   OH218176   3.048   7.075   1.581
 6100TIP3    H118177   2.968   7.126   1.559
 6100TIP3    H218178   3.096   7.073   1.496
 6101TIP3   OH218179   3.008   6.861   1.299
 6101TIP3    H118180   3.076   6.909   1.349
 6101TIP3    H218181   3.064   6.797   1.251
 6102TIP3   OH218182   3.948   7.304   2.160
 6102TIP3    H118183   3.874   7.368   2.174
 6102TIP3    H218184   3.986   7.342   2.078
 6103TIP3   OH218185   3.396   7.158   1.553
 6103TIP3    H118186   3.342   7.183   1.632
 6103TIP3    H218187   3.480   7.131   1.597
 6104TIP3   OH218188   3.632   7.196   2.467
 6104TIP3    H118189   3.632   7.281   2.516
 6104TIP3    H218190   3.547   7.204   2.420
 6105TIP3   OH218191   2.630   7.156   1.970
 6105TIP3    H118192   2.589   7.097   1.903
 6105TIP3    H218193   2.707   7.102   1.999
 6106TIP3   OH218194   2.761   7.569   2.118
 6106TIP3    H118195   2.740   7.522   2.036
 6106TIP3    H218196   2.850   7.535   2.138
 6107TIP3   OH218197   2.766   7.127   2.324
 6107TIP3    H118198   2.800   7.106   2.235
 6107TIP3    H218199   2.809   7.213   2.345
 6108TIP3   OH218200   3.285   7.765   2.100
 6108TIP3    H118201   3.276   7.844   2.155
 6108TIP3    H218202   3.275   7.692   2.164
 6109TIP3   OH218203   2.902   7.685   2.650
 6109TIP3    H118204   2.842   7.747   2.695
 6109TIP3    H218205   2.837   7.631   2.600
 6110TIP3   OH218206   3.238   7.015   1.381
 6110TIP3    H118207   3.298   7.074   1.433
 6110TIP3    H218208   3.264   7.041   1.289
 6111TIP3   OH218209   2.657   7.240   2.750
 6111TIP3    H118210   2.662   7.327   2.794
 6111TIP3    H218211   2.562   7.220   2.759
 6112TIP3   OH218212   2.984   7.696   1.646
 6112TIP3    H118213   3.053   7.753   1.683
 6112TIP3    H218214   2.917   7.758   1.616
 6113TIP3   OH218215   2.697   7.855   2.737
 6113TIP3    H118216   2.663   7.851   2.645
 6113TIP3    H218217   2.617   7.832   2.789
 6114TIP3   OH218218   3.750   6.257   1.426
 6114TIP3    H118219   3.671   6.280   1.480
 6114TIP3    H218220   3.765   6.341   1.379
 6115TIP3   OH218221   2.496   6.998   1.774
 6115TIP3    H118222   2.429   7.043   1.719
 6115TIP3    H218223   2.455   6.913   1.789
 6116TIP3   OH218224   3.554   7.626   0.982
 6116TIP3    H118225   3.565   7.721   0.965
 6116TIP3    H218226   3.645   7.593   0.967
 6117TIP3   OH218227   2.277   7.383   2.682
 6117TIP3    H118228   2.210   7.360   2.614
 6117TIP3    H218229   2.313   7.295   2.706
 6118TIP3   OH218230   2.130   7.575   2.316
 6118TIP3    H118231   2.226   7.571   2.308
 6118TIP3    H218232   2.118   7.655   2.369
 6119TIP3   OH218233   3.990   8.024   2.365
 6119TIP3    H118234   3.995   7.927   2.379
 6119TIP3    H218235   3.909   8.045   2.415
 6120TIP3   OH218236   3.101   7.814   2.506
 6120TIP3    H118237   3.100   7.906   2.538
 6120TIP3    H218238   3.030   7.774   2.560
 6121TIP3   OH218239   2.874   7.949   1.450
 6121TIP3    H118240   2.820   7.924   1.373
 6121TIP3    H218241   2.834   8.034   1.478
 6122TIP3   OH218242   2.300   7.791   1.841
 6122TIP3    H118243   2.347   7.781   1.927
 6122TIP3    H218244   2.242   7.713   1.844
 6123TIP3   OH218245   3.069   7.847   1.104
 6123TIP3    H118246   3.123   7.774   1.066
 6123TIP3    H218247   3.105   7.854   1.194
 6124TIP3   OH218248   3.133   7.896   1.384
 6124TIP3    H118249   3.041   7.919   1.409
 6124TIP3    H218250   3.148   7.822   1.445
 6125TIP3   OH218251   3.879   7.153   2.649
 6125TIP3    H118252   3.805   7.169   2.589
 6125TIP3    H218253   3.897   7.057   2.635
 6126TIP3   OH218254   2.482   7.566   2.672
 6126TIP3    H118255   2.532   7.548   2.754
 6126TIP3    H218256   2.408   7.502   2.679
 6127TIP3   OH218257   2.880   6.389   2.455
 6127TIP3    H118258   2.791   6.358   2.430
 6127TIP3    H218259   2.856   6.472   2.501
 6128TIP3   OH218260   3.415   6.504   2.650
 6128TIP3    H118261   3.484   6.477   2.714
 6128TIP3    H218262   3.332   6.483   2.697
 6129TIP3   OH218263   3.650   6.930   2.564
 6129TIP3    H118264   3.605   6.929   2.652
 6129TIP3    H218265   3.631   7.020   2.531
 6130TIP3   OH218266   3.313   7.063   1.124
 6130TIP3    H118267   3.281   7.037   1.035
 6130TIP3    H218268   3.395   7.111   1.100
 6131TIP3   OH218269   3.028   6.437   1.427
 6131TIP3    H118270   2.995   6.436   1.519
 6131TIP3    H218271   2.987   6.355   1.394
 6132TIP3   OH218272   2.812   6.904   2.473
 6132TIP3    H118273   2.762   6.925   2.555
 6132TIP3    H218274   2.796   6.985   2.420
 6133TIP3   OH218275   2.696   6.790   1.987
 6133TIP3    H118276   2.603   6.763   2.005
 6133TIP3    H218277   2.709   6.749   1.899
 6134TIP3   OH218278   3.186   6.876   1.715
 6134TIP3    H118279   3.133   6.948   1.673
 6134TIP3    H218280   3.241   6.847   1.640
 6135TIP3   OH218281   3.361   7.156   2.803
 6135TIP3    H118282   3.339   7.082   2.864
 6135TIP3    H218283   3.456   7.168   2.822
 6136TIP3   OH218284   3.343   6.904   1.955
 6136TIP3    H118285   3.285   6.935   1.884
 6136TIP3    H218286   3.377   6.822   1.913
 6137TIP3   OH218287   2.631   6.934   2.683
 6137TIP3    H118288   2.659   6.997   2.751
 6137TIP3    H218289   2.620   6.852   2.734
 6138TIP3   OH218290   2.683   6.411   1.393
 6138TIP3    H118291   2.673   6.408   1.490
 6138TIP3    H218292   2.603   6.462   1.368
 6139TIP3   OH218293   2.224   6.456   2.263
 6139TIP3    H118294   2.300   6.487   2.317
 6139TIP3    H218295   2.266   6.423   2.182
 6140TIP3   OH218296   2.198   6.437   1.782
 6140TIP3    H118297   2.242   6.476   1.704
 6140TIP3    H218298   2.136   6.509   1.805
 6141TIP3   OH218299   3.348   7.152   2.376
 6141TIP3    H118300   3.384   7.080   2.319
 6141TIP3    H218301   3.324   7.099   2.455
 6142TIP3   OH218302   3.022   6.613   2.049
 6142TIP3    H118303   2.941   6.611   2.104
 6142TIP3    H218304   3.092   6.611   2.116
 6143TIP3   OH218305   2.458   6.669   2.057
 6143TIP3    H118306   2.363   6.675   2.031
 6143TIP3    H218307   2.481   6.577   2.034
 6144TIP3   OH218308   2.728   6.663   1.746
 6144TIP3    H118309   2.822   6.681   1.725
 6144TIP3    H218310   2.681   6.688   1.663
 6145TIP3   OH218311   3.515   6.689   2.251
 6145TIP3    H118312   3.480   6.700   2.342
 6145TIP3    H218313   3.449   6.628   2.214
 6146TIP3   OH218314   2.568   6.699   1.525
 6146TIP3    H118315   2.496   6.653   1.477
 6146TIP3    H218316   2.620   6.734   1.449
 6147TIP3   OH218317   3.685   8.378   2.470
 6147TIP3    H118318   3.683   8.403   2.376
 6147TIP3    H218319   3.763   8.427   2.501
 6148TIP3   OH218320   2.642   7.487   2.892
 6148TIP3    H118321   2.722   7.518   2.939
 6148TIP3    H218322   2.577   7.486   2.965
 6149TIP3   OH218323   3.107   6.940   2.145
 6149TIP3    H118324   3.181   6.902   2.096
 6149TIP3    H218325   3.118   6.899   2.233
 6150TIP3   OH218326   2.629   6.428   2.025
 6150TIP3    H118327   2.596   6.348   2.072
 6150TIP3    H218328   2.681   6.390   1.954
 6151TIP3   OH218329   3.083   6.836   2.438
 6151TIP3    H118330   2.994   6.874   2.452
 6151TIP3    H218331   3.141   6.897   2.488
 6152TIP3   OH218332   2.820   7.229   1.530
 6152TIP3    H118333   2.748   7.163   1.520
 6152TIP3    H218334   2.803   7.262   1.622
 6153TIP3   OH218335   3.720   7.466   2.161
 6153TIP3    H118336   3.748   7.511   2.078
 6153TIP3    H218337   3.636   7.424   2.135
 6154TIP3   OH218338   3.278   6.542   1.388
 6154TIP3    H118339   3.182   6.526   1.401
 6154TIP3    H218340   3.289   6.636   1.416
 6155TIP3   OH218341   3.215   7.544   2.529
 6155TIP3    H118342   3.245   7.525   2.619
 6155TIP3    H218343   3.181   7.635   2.535
 6156TIP3   OH218344   3.348   6.786   1.495
 6156TIP3    H118345   3.444   6.792   1.513
 6156TIP3    H218346   3.330   6.867   1.444
 6157TIP3   OH218347   2.512   7.250   2.207
 6157TIP3    H118348   2.552   7.222   2.122
 6157TIP3    H218349   2.553   7.188   2.270
 6158TIP3   OH218350   2.964   7.378   1.351
 6158TIP3    H118351   2.917   7.464   1.359
 6158TIP3    H218352   2.910   7.322   1.411
 6159TIP3   OH218353   2.392   7.170   2.820
 6159TIP3    H118354   2.412   7.156   2.915
 6159TIP3    H218355   2.323   7.104   2.805
 6160TIP3   OH218356   3.118   7.284   2.842
 6160TIP3    H118357   3.059   7.227   2.790
 6160TIP3    H218358   3.206   7.251   2.814
 6161TIP3   OH218359   3.379   7.805   2.426
 6161TIP3    H118360   3.282   7.806   2.437
 6161TIP3    H218361   3.407   7.858   2.503
 6162TIP3   OH218362   3.789   6.877   1.333
 6162TIP3    H118363   3.727   6.832   1.271
 6162TIP3    H218364   3.786   6.967   1.293
 6163TIP3   OH218365   4.017   7.738   2.400
 6163TIP3    H118366   3.921   7.722   2.384
 6163TIP3    H218367   4.058   7.683   2.332
 6164TIP3   OH218368   3.484   7.715   1.244
 6164TIP3    H118369   3.468   7.645   1.308
 6164TIP3    H218370   3.501   7.666   1.162
 6165TIP3   OH218371   3.484   7.327   2.078
 6165TIP3    H118372   3.392   7.300   2.091
 6165TIP3    H218373   3.521   7.248   2.035
 6166TIP3   OH218374   2.612   7.553   1.829
 6166TIP3    H118375   2.610   7.636   1.778
 6166TIP3    H218376   2.518   7.538   1.844
 6167TIP3   OH218377   2.176   6.859   1.536
 6167TIP3    H118378   2.223   6.943   1.556
 6167TIP3    H218379   2.099   6.865   1.596
 6168TIP3   OH218380   2.752   7.320   1.776
 6168TIP3    H118381   2.716   7.409   1.794
 6168TIP3    H218382   2.716   7.270   1.851
 6169TIP3   OH218383   2.883   7.897   2.301
 6169TIP3    H118384   2.923   7.970   2.251
 6169TIP3    H218385   2.960   7.863   2.350
 6170TIP3   OH218386   2.533   7.793   1.684
 6170TIP3    H118387   2.447   7.800   1.731
 6170TIP3    H218388   2.563   7.886   1.689
 6171TIP3   OH218389   3.272   7.534   2.259
 6171TIP3    H118390   3.262   7.530   2.357
 6171TIP3    H218391   3.353   7.482   2.245
 6172TIP3   OH218392   3.244   7.426   1.143
 6172TIP3    H118393   3.299   7.402   1.221
 6172TIP3    H218394   3.157   7.396   1.173
 6173TIP3   OH218395   3.518   8.066   2.313
 6173TIP3    H118396   3.440   8.009   2.303
 6173TIP3    H218397   3.505   8.131   2.240
 6174TIP3   OH218398   3.588   7.903   0.960
 6174TIP3    H118399   3.635   7.974   0.913
 6174TIP3    H218400   3.497   7.935   0.957
 6175TIP3   OH218401   2.605   6.677   2.829
 6175TIP3    H118402   2.508   6.681   2.842
 6175TIP3    H218403   2.632   6.616   2.900
 6176TIP3   OH218404   3.404   7.359   1.359
 6176TIP3    H118405   3.395   7.292   1.430
 6176TIP3    H218406   3.502   7.357   1.347
 6177TIP3   OH218407   2.322   7.761   2.460
 6177TIP3    H118408   2.373   7.686   2.494
 6177TIP3    H218409   2.349   7.831   2.521
 6178TIP3   OH218410   2.611   7.406   1.142
 6178TIP3    H118411   2.624   7.314   1.113
 6178TIP3    H218412   2.593   7.393   1.237
 6179TIP3   OH218413   2.558   7.410   1.414
 6179TIP3    H118414   2.626   7.381   1.476
 6179TIP3    H218415   2.562   7.508   1.423
 6180TIP3   OH218416   2.292   7.104   1.617
 6180TIP3    H118417   2.226   7.148   1.675
 6180TIP3    H218418   2.306   7.174   1.551
 6181TIP3   OH218419   3.439   6.741   2.510
 6181TIP3    H118420   3.521   6.781   2.545
 6181TIP3    H218421   3.429   6.660   2.564
 6182TIP3   OH218422   3.325   6.491   1.673
 6182TIP3    H118423   3.310   6.518   1.580
 6182TIP3    H218424   3.364   6.572   1.712
 6183TIP3   OH218425   2.823   7.610   1.363
 6183TIP3    H118426   2.736   7.635   1.400
 6183TIP3    H218427   2.835   7.680   1.298
 6184TIP3   OH218428   3.010   6.671   1.776
 6184TIP3    H118429   3.075   6.742   1.759
 6184TIP3    H218430   3.015   6.663   1.874
 6185TIP3   OH218431   3.280   6.989   2.586
 6185TIP3    H118432   3.302   7.043   2.665
 6185TIP3    H218433   3.337   6.911   2.597
 6186TIP3   OH218434   3.156   6.398   1.879
 6186TIP3    H118435   3.153   6.472   1.942
 6186TIP3    H218436   3.217   6.435   1.811
 6187TIP3   OH218437   2.567   7.684   1.431
 6187TIP3    H118438   2.536   7.753   1.369
 6187TIP3    H218439   2.549   7.726   1.518
 6188TIP3   OH218440   2.667   6.396   1.669
 6188TIP3    H118441   2.664   6.486   1.705
 6188TIP3    H218442   2.763   6.379   1.678
 6189TIP3   OH218443   3.918   6.890   2.568
 6189TIP3    H118444   3.820   6.885   2.570
 6189TIP3    H218445   3.936   6.857   2.479
 6190TIP3   OH218446   3.571   7.085   1.954
 6190TIP3    H118447   3.497   7.024   1.968
 6190TIP3    H218448   3.644   7.041   2.001
 6191TIP3   OH218449   2.283   7.314   1.424
 6191TIP3    H118450   2.349   7.385   1.433
 6191TIP3    H218451   2.329   7.259   1.357
 6192TIP3   OH218452   2.230   6.589   1.556
 6192TIP3    H118453   2.228   6.686   1.552
 6192TIP3    H218454   2.145   6.565   1.516
 6193TIP3   OH218455   3.539   8.040   1.901
 6193TIP3    H118456   3.500   8.085   1.823
 6193TIP3    H218457   3.634   8.060   1.885
 6194TIP3   OH218458   2.616   6.309   2.431
 6194TIP3    H118459   2.584   6.275   2.344
 6194TIP3    H218460   2.605   6.230   2.488
 6195TIP3   OH218461   2.155   7.528   1.811
 6195TIP3    H118462   2.085   7.558   1.871
 6195TIP3    H218463   2.127   7.569   1.726
 6196TIP3   OH218464   2.311   8.068   2.882
 6196TIP3    H118465   2.397   8.065   2.928
 6196TIP3    H218466   2.288   7.973   2.880
 6197TIP3   OH218467   2.799   8.034   2.928
 6197TIP3    H118468   2.892   8.006   2.932
 6197TIP3    H218469   2.768   7.978   2.853
 6198TIP3   OH218470   2.776   7.608   1.055
 6198TIP3    H118471   2.719   7.538   1.095
 6198TIP3    H218472   2.850   7.554   1.023
 6199TIP3   OH218473   3.428   7.942   2.662
 6199TIP3    H118474   3.423   7.870   2.729
 6199TIP3    H218475   3.509   7.990   2.689
 6200TIP3   OH218476   3.212   7.653   0.969
 6200TIP3    H118477   3.253   7.586   1.026
 6200TIP3    H218478   3.266   7.648   0.888
 6201TIP3   OH218479   2.442   7.476   3.083
 6201TIP3    H118480   2.459   7.380   3.087
 6201TIP3    H218481   2.354   7.478   3.039
 6202TIP3   OH218482   2.420   7.127   1.276
 6202TIP3    H118483   2.474   7.092   1.348
 6202TIP3    H218484   2.487   7.131   1.204
 6203TIP3   OH218485   3.049   7.559   2.856
 6203TIP3    H118486   3.009   7.576   2.769
 6203TIP3    H218487   3.081   7.467   2.848
 6204TIP3   OH218488   2.929   7.324   1.082
 6204TIP3    H118489   2.930   7.337   1.179
 6204TIP3    H218490   2.928   7.226   1.078
 6205TIP3   OH218491   3.543   7.570   2.461
 6205TIP3    H118492   3.620   7.611   2.417
 6205TIP3    H218493   3.475   7.638   2.447
 6206TIP3   OH218494   2.561   7.210   3.064
 6206TIP3    H118495   2.635   7.152   3.043
 6206TIP3    H218496   2.586   7.241   3.154
 6207TIP3   OH218497   2.628   7.030   1.498
 6207TIP3    H118498   2.601   6.989   1.582
 6207TIP3    H218499   2.663   6.953   1.448
 6208TIP3   OH218500   2.896   7.094   2.726
 6208TIP3    H118501   2.819   7.154   2.728
 6208TIP3    H218502   2.945   7.127   2.647
 6209TIP3   OH218503   2.728   6.823   1.339
 6209TIP3    H118504   2.701   6.825   1.245
 6209TIP3    H218505   2.825   6.830   1.330
 6210TIP3   OH218506   3.413   7.496   2.860
 6210TIP3    H118507   3.493   7.474   2.810
 6210TIP3    H218508   3.412   7.427   2.929
 6211TIP3   OH218509   3.548   7.156   1.001
 6211TIP3    H118510   3.526   7.108   0.918
 6211TIP3    H218511   3.518   7.246   0.977
 6212TIP3   OH218512   3.018   6.882   2.854
 6212TIP3    H118513   3.020   6.802   2.797
 6212TIP3    H218514   2.976   6.948   2.795
 6213TIP3   OH218515   3.022   6.668   2.660
 6213TIP3    H118516   3.050   6.709   2.576
 6213TIP3    H218517   2.929   6.645   2.641
 6214TIP3   OH218518   3.049   7.204   2.533
 6214TIP3    H118519   3.133   7.211   2.485
 6214TIP3    H218520   2.995   7.272   2.488
 6215TIP3   OH218521   3.635   7.172   2.916
 6215TIP3    H118522   3.681   7.087   2.919
 6215TIP3    H218523   3.703   7.229   2.876
 6216TIP3   OH218524   3.673   7.425   2.650
 6216TIP3    H118525   3.618   7.479   2.589
 6216TIP3    H218526   3.762   7.444   2.611
 6217TIP3   OH218527   2.898   6.994   3.084
 6217TIP3    H118528   2.829   6.926   3.097
 6217TIP3    H218529   2.933   6.969   2.996
 6218TIP3   OH218530   3.154   6.433   2.727
 6218TIP3    H118531   3.106   6.515   2.704
 6218TIP3    H218532   3.085   6.365   2.715
 6219TIP3   OH218533   3.280   6.938   2.943
 6219TIP3    H118534   3.268   6.925   3.039
 6219TIP3    H218535   3.190   6.912   2.913
 6220TIP3   OH218536   3.520   6.889   2.798
 6220TIP3    H118537   3.444   6.887   2.859
 6220TIP3    H218538   3.594   6.857   2.855
 6221TIP3   OH218539   3.744   6.826   2.951
 6221TIP3    H118540   3.760   6.731   2.967
 6221TIP3    H218541   3.745   6.864   3.042
 6222TIP3   OH218542   2.737   6.774   3.136
 6222TIP3    H118543   2.744   6.684   3.100
 6222TIP3    H218544   2.773   6.761   3.226
 6223TIP3   OH218545   3.249   6.442   2.985
 6223TIP3    H118546   3.317   6.372   2.979
 6223TIP3    H218547   3.209   6.436   2.895
 6224TIP3   OH218548   3.314   6.656   3.144
 6224TIP3    H118549   3.292   6.585   3.079
 6224TIP3    H218550   3.236   6.715   3.136
 6225TIP3   OH218551   2.536   7.887   1.245
 6225TIP3    H118552   2.631   7.883   1.223
 6225TIP3    H218553   2.503   7.934   1.166
 6226TIP3   OH218554   2.015   7.267   1.459
 6226TIP3    H118555   2.110   7.289   1.447
 6226TIP3    H218556   2.009   7.179   1.417
 6227TIP3   OH218557   1.931   7.881   1.871
 6227TIP3    H118558   1.862   7.820   1.837
 6227TIP3    H218559   1.974   7.823   1.938
 6228TIP3   OH218560   2.066   7.732   2.059
 6228TIP3    H118561   2.051   7.659   2.121
 6228TIP3    H218562   2.116   7.793   2.116
 6229TIP3   OH218563   3.787   8.143   1.857
 6229TIP3    H118564   3.816   8.165   1.948
 6229TIP3    H218565   3.862   8.175   1.805
 6230TIP3   OH218566   3.822   8.149   2.139
 6230TIP3    H118567   3.781   8.060   2.138
 6230TIP3    H218568   3.898   8.130   2.196
 6231TIP3   OH218569   3.868   7.829   2.715
 6231TIP3    H118570   3.795   7.838   2.780
 6231TIP3    H218571   3.910   7.917   2.719
 6232TIP3   OH218572   3.684   7.342   1.334
 6232TIP3    H118573   3.755   7.404   1.307
 6232TIP3    H218574   3.726   7.302   1.414
 6233TIP3   OH218575   3.810   7.209   1.536
 6233TIP3    H118576   3.748   7.167   1.600
 6233TIP3    H218577   3.880   7.245   1.595
 6234TIP3   OH218578   3.841   7.590   1.952
 6234TIP3    H118579   3.921   7.537   1.932
 6234TIP3    H218580   3.854   7.668   1.896
 6235TIP3   OH218581   3.697   7.900   2.163
 6235TIP3    H118582   3.626   7.939   2.218
 6235TIP3    H218583   3.647   7.849   2.096
 6236TIP3   OH218584   3.749   7.116   1.185
 6236TIP3    H118585   3.677   7.121   1.119
 6236TIP3    H218586   3.725   7.192   1.242
 6237TIP3   OH218587   3.621   6.788   1.138
 6237TIP3    H118588   3.576   6.828   1.063
 6237TIP3    H218589   3.597   6.694   1.127
 6238TIP3   OH218590   3.624   7.064   1.684
 6238TIP3    H118591   3.637   6.968   1.683
 6238TIP3    H218592   3.612   7.082   1.780
 6239TIP3   OH218593   2.253   7.138   2.432
 6239TIP3    H118594   2.251   7.107   2.338
 6239TIP3    H218595   2.350   7.140   2.448
 6240TIP3   OH218596   3.917   7.489   2.542
 6240TIP3    H118597   3.991   7.424   2.536
 6240TIP3    H218598   3.946   7.555   2.477
 6241TIP3   OH218599   4.100   7.296   2.594
 6241TIP3    H118600   4.023   7.239   2.615
 6241TIP3    H218601   4.171   7.230   2.587
 6242TIP3   OH218602   3.567   6.520   1.119
 6242TIP3    H118603   3.643   6.495   1.175
 6242TIP3    H218604   3.495   6.465   1.153
 6243TIP3   OH218605   3.620   6.779   1.579
 6243TIP3    H118606   3.663   6.692   1.595
 6243TIP3    H218607   3.681   6.815   1.511
 6244TIP3   OH218608   3.783   6.957   2.073
 6244TIP3    H118609   3.870   6.982   2.034
 6244TIP3    H218610   3.797   6.993   2.163
 6245TIP3   OH218611   3.851   7.097   2.309
 6245TIP3    H118612   3.774   7.134   2.355
 6245TIP3    H218613   3.884   7.175   2.258
 6246TIP3   OH218614   2.469   6.826   3.106
 6246TIP3    H118615   2.567   6.819   3.108
 6246TIP3    H218616   2.446   6.740   3.148
 6247TIP3   OH218617   4.298   6.689   2.864
 6247TIP3    H118618   4.361   6.623   2.829
 6247TIP3    H218619   4.276   6.743   2.785
 6248TIP3   OH218620   3.731   6.531   1.617
 6248TIP3    H118621   3.781   6.516   1.700
 6248TIP3    H218622   3.672   6.453   1.617
 6249TIP3   OH218623   2.432   6.517   2.436
 6249TIP3    H118624   2.495   6.443   2.447
 6249TIP3    H218625   2.493   6.592   2.431
 6250TIP3   OH218626   2.235   6.791   2.511
 6250TIP3    H118627   2.283   6.785   2.426
 6250TIP3    H218628   2.262   6.878   2.542
 6251TIP3   OH218629   4.175   6.831   2.667
 6251TIP3    H118630   4.087   6.869   2.685
 6251TIP3    H218631   4.150   6.757   2.609
 6252TIP3   OH218632   3.811   6.468   1.246
 6252TIP3    H118633   3.858   6.395   1.203
 6252TIP3    H218634   3.879   6.538   1.247
 6253TIP3   OH218635   2.217   6.294   2.011
 6253TIP3    H118636   2.124   6.292   2.037
 6253TIP3    H218637   2.215   6.352   1.932
 6254TIP3   OH218638   2.437   6.374   2.826
 6254TIP3    H118639   2.387   6.369   2.908
 6254TIP3    H218640   2.370   6.413   2.766
 6255TIP3   OH218641   2.478   7.801   2.903
 6255TIP3    H118642   2.386   7.775   2.884
 6255TIP3    H218643   2.485   7.782   2.998
 6256TIP3   OH218644   2.656   7.834   2.451
 6256TIP3    H118645   2.607   7.909   2.412
 6256TIP3    H218646   2.742   7.848   2.406
 6257TIP3   OH218647   3.102   8.079   2.589
 6257TIP3    H118648   3.145   8.081   2.677
 6257TIP3    H218649   3.168   8.129   2.535
 6258TIP3   OH218650   3.281   8.228   2.446
 6258TIP3    H118651   3.354   8.179   2.406
 6258TIP3    H218652   3.330   8.288   2.506
 6259TIP3   OH218653   4.075   6.592   2.547
 6259TIP3    H118654   3.984   6.585   2.514
 6259TIP3    H218655   4.107   6.500   2.535
 6260TIP3   OH218656   2.333   8.091   2.473
 6260TIP3    H118657   2.243   8.124   2.449
 6260TIP3    H218658   2.340   8.127   2.562
 6261TIP3   OH218659   2.568   8.069   2.330
 6261TIP3    H118660   2.482   8.082   2.376
 6261TIP3    H218661   2.548   8.104   2.241
 6262TIP3   OH218662   2.995   8.100   2.126
 6262TIP3    H118663   2.923   8.122   2.064
 6262TIP3    H218664   3.009   8.186   2.171
 6263TIP3   OH218665   3.263   8.037   2.179
 6263TIP3    H118666   3.169   8.056   2.160
 6263TIP3    H218667   3.307   8.116   2.142
 6264TIP3   OH218668   3.467   8.227   2.096
 6264TIP3    H118669   3.456   8.313   2.049
 6264TIP3    H218670   3.497   8.169   2.023
 6265TIP3   OH218671   2.244   7.886   2.217
 6265TIP3    H118672   2.269   7.859   2.309
 6265TIP3    H218673   2.317   7.842   2.168
 6266TIP3   OH218674   2.438   7.756   2.074
 6266TIP3    H118675   2.453   7.672   2.124
 6266TIP3    H218676   2.529   7.793   2.072
 6267TIP3   OH218677   2.704   7.851   2.077
 6267TIP3    H118678   2.735   7.759   2.068
 6267TIP3    H218679   2.748   7.874   2.162
 6268TIP3   OH218680   3.275   6.506   2.160
 6268TIP3    H118681   3.236   6.436   2.215
 6268TIP3    H218682   3.352   6.460   2.121
 6269TIP3   OH218683   3.801   6.383   2.067
 6269TIP3    H118684   3.840   6.437   1.995
 6269TIP3    H218685   3.707   6.410   2.064
 6270TIP3   OH218686   3.896   6.489   1.833
 6270TIP3    H118687   3.970   6.436   1.796
 6270TIP3    H218688   3.932   6.580   1.819
 6271TIP3   OH218689   2.528   6.216   2.182
 6271TIP3    H118690   2.436   6.182   2.182
 6271TIP3    H218691   2.578   6.132   2.179
 6272TIP3   OH218692   2.315   6.086   1.830
 6272TIP3    H118693   2.344   6.144   1.757
 6272TIP3    H218694   2.285   6.151   1.897
 6273TIP3   OH218695   2.971   6.249   2.062
 6273TIP3    H118696   3.030   6.300   2.004
 6273TIP3    H218697   2.993   6.285   2.149
 6274TIP3   OH218698   3.514   6.396   2.048
 6274TIP3    H118699   3.520   6.358   1.960
 6274TIP3    H218700   3.503   6.315   2.104
 6275TIP3   OH218701   3.547   6.318   1.607
 6275TIP3    H118702   3.463   6.364   1.624
 6275TIP3    H218703   3.533   6.235   1.658
 6276TIP3   OH218704   2.032   7.654   1.607
 6276TIP3    H118705   1.946   7.621   1.575
 6276TIP3    H218706   2.020   7.749   1.591
 6277TIP3   OH218707   2.431   6.247   1.593
 6277TIP3    H118708   2.480   6.184   1.537
 6277TIP3    H218709   2.504   6.300   1.630
 6278TIP3   OH218710   2.945   6.420   1.692
 6278TIP3    H118711   3.005   6.376   1.754
 6278TIP3    H218712   2.963   6.513   1.716
 6279TIP3   OH218713   2.803   7.846   1.188
 6279TIP3    H118714   2.891   7.870   1.154
 6279TIP3    H218715   2.783   7.770   1.129
 6280TIP3   OH218716   2.736   6.497   3.073
 6280TIP3    H118717   2.703   6.427   3.131
 6280TIP3    H218718   2.830   6.498   3.099
 6281TIP3   OH218719   2.984   6.495   3.192
 6281TIP3    H118720   3.069   6.470   3.152
 6281TIP3    H218721   2.972   6.424   3.258
 6282TIP3   OH218722   2.109   7.686   1.249
 6282TIP3    H118723   2.105   7.706   1.344
 6282TIP3    H218724   2.197   7.643   1.240
 6283TIP3   OH218725   3.809   6.557   2.980
 6283TIP3    H118726   3.831   6.525   3.070
 6283TIP3    H218727   3.897   6.553   2.936
 6284TIP3   OH218728   3.746   8.109   2.476
 6284TIP3    H118729   3.668   8.078   2.425
 6284TIP3    H218730   3.729   8.205   2.476
 6285TIP3   OH218731   5.016   7.481   1.236
 6285TIP3    H118732   4.988   7.573   1.218
 6285TIP3    H218733   4.938   7.432   1.208
 6286TIP3   OH218734   5.015   7.479   1.619
 6286TIP3    H118735   5.045   7.452   1.707
 6286TIP3    H218736   4.971   7.398   1.588
 6287TIP3   OH218737   4.310   7.389   1.980
 6287TIP3    H118738   4.354   7.330   2.044
 6287TIP3    H218739   4.340   7.478   2.010
 6288TIP3   OH218740   5.257   7.784   1.300
 6288TIP3    H118741   5.243   7.714   1.365
 6288TIP3    H218742   5.286   7.858   1.355
 6289TIP3   OH218743   4.277   7.783   1.695
 6289TIP3    H118744   4.268   7.687   1.711
 6289TIP3    H218745   4.369   7.796   1.723
 6290TIP3   OH218746   3.992   6.987   1.493
 6290TIP3    H118747   3.948   7.072   1.511
 6290TIP3    H218748   3.918   6.936   1.457
 6291TIP3   OH218749   4.049   7.272   1.659
 6291TIP3    H118750   4.099   7.199   1.703
 6291TIP3    H218751   4.119   7.314   1.607
 6292TIP3   OH218752   4.907   8.244   1.316
 6292TIP3    H118753   4.953   8.172   1.269
 6292TIP3    H218754   4.899   8.207   1.405
 6293TIP3   OH218755   4.813   7.707   1.662
 6293TIP3    H118756   4.852   7.628   1.621
 6293TIP3    H218757   4.896   7.751   1.691
 6294TIP3   OH218758   5.826   7.026   1.665
 6294TIP3    H118759   5.854   7.109   1.709
 6294TIP3    H218760   5.847   7.046   1.572
 6295TIP3   OH218761   5.226   7.208   1.700
 6295TIP3    H118762   5.268   7.122   1.720
 6295TIP3    H218763   5.194   7.193   1.609
 6296TIP3   OH218764   4.561   6.867   1.666
 6296TIP3    H118765   4.542   6.940   1.603
 6296TIP3    H218766   4.513   6.793   1.622
 6297TIP3   OH218767   5.256   6.958   1.287
 6297TIP3    H118768   5.329   6.942   1.353
 6297TIP3    H218769   5.308   6.993   1.213
 6298TIP3   OH218770   4.195   7.069   1.773
 6298TIP3    H118771   4.279   7.052   1.821
 6298TIP3    H218772   4.210   7.014   1.693
 6299TIP3   OH218773   4.641   7.268   1.554
 6299TIP3    H118774   4.733   7.241   1.576
 6299TIP3    H218775   4.600   7.182   1.530
 6300TIP3   OH218776   5.899   7.233   1.835
 6300TIP3    H118777   5.815   7.281   1.817
 6300TIP3    H218778   5.915   7.260   1.927
 6301TIP3   OH218779   4.560   6.850   2.100
 6301TIP3    H118780   4.501   6.887   2.032
 6301TIP3    H218781   4.507   6.868   2.180
 6302TIP3   OH218782   4.911   7.705   1.105
 6302TIP3    H118783   4.863   7.681   1.025
 6302TIP3    H218784   4.864   7.787   1.131
 6303TIP3   OH218785   4.659   7.625   1.905
 6303TIP3    H118786   4.578   7.660   1.950
 6303TIP3    H218787   4.682   7.696   1.843
 6304TIP3   OH218788   5.467   6.961   1.459
 6304TIP3    H118789   5.458   6.911   1.542
 6304TIP3    H218790   5.521   7.037   1.487
 6305TIP3   OH218791   4.429   6.965   1.885
 6305TIP3    H118792   4.490   7.039   1.907
 6305TIP3    H218793   4.479   6.925   1.810
 6306TIP3   OH218794   3.888   7.509   1.229
 6306TIP3    H118795   3.851   7.537   1.145
 6306TIP3    H218796   3.924   7.592   1.266
 6307TIP3   OH218797   5.328   8.024   1.468
 6307TIP3    H118798   5.238   8.016   1.507
 6307TIP3    H218799   5.320   8.111   1.424
 6308TIP3   OH218800   5.619   6.926   1.831
 6308TIP3    H118801   5.531   6.955   1.802
 6308TIP3    H218802   5.677   6.958   1.759
 6309TIP3   OH218803   4.916   6.567   1.813
 6309TIP3    H118804   4.905   6.472   1.834
 6309TIP3    H218805   4.838   6.604   1.860
 6310TIP3   OH218806   5.030   8.072   1.140
 6310TIP3    H118807   5.081   7.990   1.122
 6310TIP3    H218808   5.090   8.138   1.100
 6311TIP3   OH218809   5.175   7.857   1.045
 6311TIP3    H118810   5.127   7.778   1.016
 6311TIP3    H218811   5.211   7.825   1.131
 6312TIP3   OH218812   5.554   7.939   1.812
 6312TIP3    H118813   5.544   7.861   1.753
 6312TIP3    H218814   5.537   8.013   1.751
 6313TIP3   OH218815   4.843   7.331   1.069
 6313TIP3    H118816   4.764   7.383   1.046
 6313TIP3    H218817   4.892   7.329   0.985
 6314TIP3   OH218818   4.803   7.118   0.785
 6314TIP3    H118819   4.870   7.165   0.837
 6314TIP3    H218820   4.860   7.054   0.737
 6315TIP3   OH218821   5.749   7.574   1.656
 6315TIP3    H118822   5.667   7.627   1.662
 6315TIP3    H218823   5.779   7.598   1.566
 6316TIP3   OH218824   5.194   7.415   1.041
 6316TIP3    H118825   5.138   7.440   1.119
 6316TIP3    H218826   5.276   7.387   1.086
 6317TIP3   OH218827   5.428   7.454   1.953
 6317TIP3    H118828   5.425   7.538   2.002
 6317TIP3    H218829   5.342   7.457   1.907
 6318TIP3   OH218830   4.428   7.412   1.456
 6318TIP3    H118831   4.387   7.353   1.389
 6318TIP3    H218832   4.505   7.359   1.485
 6319TIP3   OH218833   4.564   7.833   1.600
 6319TIP3    H118834   4.535   7.778   1.526
 6319TIP3    H218835   4.651   7.794   1.621
 6320TIP3   OH218836   4.578   7.378   1.807
 6320TIP3    H118837   4.607   7.370   1.715
 6320TIP3    H218838   4.605   7.468   1.833
 6321TIP3   OH218839   5.087   8.021   1.589
 6321TIP3    H118840   5.073   8.100   1.644
 6321TIP3    H218841   5.072   7.947   1.651
 6322TIP3   OH218842   4.684   7.936   2.132
 6322TIP3    H118843   4.633   8.005   2.180
 6322TIP3    H218844   4.610   7.878   2.104
 6323TIP3   OH218845   5.032   7.272   0.871
 6323TIP3    H118846   5.093   7.331   0.921
 6323TIP3    H218847   5.054   7.297   0.778
 6324TIP3   OH218848   4.777   7.951   1.145
 6324TIP3    H118849   4.855   8.007   1.161
 6324TIP3    H218850   4.716   8.011   1.101
 6325TIP3   OH218851   4.494   8.117   2.225
 6325TIP3    H118852   4.465   8.108   2.132
 6325TIP3    H218853   4.413   8.092   2.275
 6326TIP3   OH218854   5.550   6.513   0.916
 6326TIP3    H118855   5.468   6.535   0.966
 6326TIP3    H218856   5.563   6.595   0.864
 6327TIP3   OH218857   4.294   7.254   1.259
 6327TIP3    H118858   4.226   7.297   1.204
 6327TIP3    H218859   4.252   7.170   1.279
 6328TIP3   OH218860   3.929   7.837   1.795
 6328TIP3    H118861   4.023   7.814   1.792
 6328TIP3    H218862   3.930   7.907   1.862
 6329TIP3   OH218863   5.791   8.282   1.858
 6329TIP3    H118864   5.790   8.186   1.871
 6329TIP3    H218865   5.707   8.307   1.904
 6330TIP3   OH218866   4.895   8.067   1.995
 6330TIP3    H118867   4.893   8.159   2.027
 6330TIP3    H218868   4.820   8.028   2.045
 6331TIP3   OH218869   4.655   8.198   0.942
 6331TIP3    H118870   4.614   8.177   0.856
 6331TIP3    H218871   4.625   8.288   0.961
 6332TIP3   OH218872   4.092   8.047   1.330
 6332TIP3    H118873   4.145   8.041   1.413
 6332TIP3    H218874   4.048   7.960   1.333
 6333TIP3   OH218875   4.852   8.093   0.605
 6333TIP3    H118876   4.916   8.039   0.558
 6333TIP3    H218877   4.891   8.101   0.694
 6334TIP3   OH218878   4.912   8.147   0.867
 6334TIP3    H118879   4.821   8.153   0.902
 6334TIP3    H218880   4.958   8.105   0.941
 6335TIP3   OH218881   5.681   7.414   2.133
 6335TIP3    H118882   5.601   7.427   2.081
 6335TIP3    H218883   5.696   7.318   2.122
 6336TIP3   OH218884   4.677   6.646   1.942
 6336TIP3    H118885   4.588   6.614   1.916
 6336TIP3    H218886   4.651   6.727   1.989
 6337TIP3   OH218887   5.210   6.762   2.137
 6337TIP3    H118888   5.278   6.733   2.201
 6337TIP3    H218889   5.126   6.740   2.182
 6338TIP3   OH218890   5.451   7.190   2.055
 6338TIP3    H118891   5.402   7.187   2.140
 6338TIP3    H218892   5.425   7.277   2.019
 6339TIP3   OH218893   5.096   7.321   0.614
 6339TIP3    H118894   5.072   7.284   0.527
 6339TIP3    H218895   5.183   7.361   0.595
 6340TIP3   OH218896   4.818   6.697   0.911
 6340TIP3    H118897   4.790   6.694   1.005
 6340TIP3    H218898   4.784   6.611   0.881
 6341TIP3   OH218899   4.606   7.160   1.963
 6341TIP3    H118900   4.555   7.185   2.042
 6341TIP3    H218901   4.594   7.241   1.907
 6342TIP3   OH218902   4.492   7.047   1.474
 6342TIP3    H118903   4.400   7.020   1.493
 6342TIP3    H218904   4.506   7.005   1.386
 6343TIP3   OH218905   4.983   7.133   1.202
 6343TIP3    H118906   4.930   7.204   1.160
 6343TIP3    H218907   5.038   7.102   1.128
 6344TIP3   OH218908   5.158   7.412   2.290
 6344TIP3    H118909   5.135   7.339   2.351
 6344TIP3    H218910   5.253   7.424   2.311
 6345TIP3   OH218911   5.141   7.161   1.441
 6345TIP3    H118912   5.081   7.191   1.371
 6345TIP3    H218913   5.174   7.079   1.399
 6346TIP3   OH218914   4.425   7.191   2.175
 6346TIP3    H118915   4.448   7.248   2.250
 6346TIP3    H218916   4.416   7.104   2.219
 6347TIP3   OH218917   4.473   6.665   0.879
 6347TIP3    H118918   4.472   6.662   0.977
 6347TIP3    H218919   4.397   6.722   0.861
 6348TIP3   OH218920   4.022   6.712   1.748
 6348TIP3    H118921   4.094   6.745   1.805
 6348TIP3    H218922   4.070   6.679   1.671
 6349TIP3   OH218923   3.991   6.692   1.266
 6349TIP3    H118924   4.040   6.731   1.191
 6349TIP3    H218925   3.934   6.768   1.291
 6350TIP3   OH218926   5.152   7.409   1.864
 6350TIP3    H118927   5.184   7.336   1.806
 6350TIP3    H218928   5.122   7.356   1.941
 6351TIP3   OH218929   4.819   6.872   1.536
 6351TIP3    H118930   4.738   6.867   1.590
 6351TIP3    H218931   4.889   6.867   1.604
 6352TIP3   OH218932   4.255   6.925   1.544
 6352TIP3    H118933   4.160   6.930   1.518
 6352TIP3    H218934   4.280   6.833   1.521
 6353TIP3   OH218935   4.524   6.920   1.232
 6353TIP3    H118936   4.618   6.935   1.214
 6353TIP3    H218937   4.479   6.945   1.148
 6354TIP3   OH218938   5.312   6.945   1.739
 6354TIP3    H118939   5.277   6.957   1.829
 6354TIP3    H218940   5.247   6.884   1.701
 6355TIP3   OH218941   4.362   6.954   1.009
 6355TIP3    H118942   4.290   6.912   0.958
 6355TIP3    H218943   4.416   6.992   0.937
 6356TIP3   OH218944   5.481   8.634   1.957
 6356TIP3    H118945   5.481   8.656   1.862
 6356TIP3    H218946   5.562   8.681   1.987
 6357TIP3   OH218947   4.903   7.198   1.634
 6357TIP3    H118948   4.975   7.156   1.584
 6357TIP3    H218949   4.911   7.156   1.721
 6358TIP3   OH218950   4.423   6.684   1.512
 6358TIP3    H118951   4.393   6.604   1.560
 6358TIP3    H218952   4.486   6.646   1.449
 6359TIP3   OH218953   4.878   7.094   1.923
 6359TIP3    H118954   4.788   7.130   1.938
 6359TIP3    H218955   4.935   7.155   1.974
 6360TIP3   OH218956   4.615   7.485   1.016
 6360TIP3    H118957   4.543   7.421   1.006
 6360TIP3    H218958   4.599   7.519   1.107
 6361TIP3   OH218959   5.517   7.721   1.648
 6361TIP3    H118960   5.542   7.770   1.566
 6361TIP3    H218961   5.431   7.680   1.623
 6362TIP3   OH218962   5.073   6.797   0.881
 6362TIP3    H118963   4.976   6.783   0.889
 6362TIP3    H218964   5.085   6.891   0.904
 6363TIP3   OH218965   5.020   7.805   2.015
 6363TIP3    H118966   5.034   7.781   2.107
 6363TIP3    H218967   4.975   7.891   2.022
 6364TIP3   OH218968   5.144   7.043   0.984
 6364TIP3    H118969   5.240   7.048   0.999
 6364TIP3    H218970   5.126   7.123   0.931
 6365TIP3   OH218971   4.298   7.497   1.694
 6365TIP3    H118972   4.352   7.470   1.617
 6365TIP3    H218973   4.342   7.451   1.768
 6366TIP3   OH218974   4.762   7.634   0.838
 6366TIP3    H118975   4.718   7.721   0.848
 6366TIP3    H218976   4.707   7.579   0.898
 6367TIP3   OH218977   4.137   7.454   2.346
 6367TIP3    H118978   4.208   7.429   2.408
 6367TIP3    H218979   4.117   7.371   2.301
 6368TIP3   OH218980   4.915   7.540   2.329
 6368TIP3    H118981   4.859   7.484   2.272
 6368TIP3    H218982   5.004   7.509   2.302
 6369TIP3   OH218983   5.176   8.065   1.910
 6369TIP3    H118984   5.080   8.060   1.923
 6369TIP3    H218985   5.203   8.115   1.990
 6370TIP3   OH218986   5.585   7.130   0.821
 6370TIP3    H118987   5.524   7.088   0.756
 6370TIP3    H218988   5.582   7.221   0.783
 6371TIP3   OH218989   5.804   7.992   1.902
 6371TIP3    H118990   5.706   7.986   1.892
 6371TIP3    H218991   5.830   7.963   1.811
 6372TIP3   OH218992   5.293   7.948   0.722
 6372TIP3    H118993   5.259   7.898   0.798
 6372TIP3    H218994   5.290   7.883   0.651
 6373TIP3   OH218995   5.282   7.583   1.566
 6373TIP3    H118996   5.189   7.557   1.579
 6373TIP3    H218997   5.317   7.503   1.522
 6374TIP3   OH218998   4.410   7.807   1.314
 6374TIP3    H118999   4.411   7.890   1.263
 6374TIP3    H219000   4.316   7.797   1.334
 6375TIP3   OH219001   3.970   7.115   1.020
 6375TIP3    H119002   4.019   7.197   1.041
 6375TIP3    H219003   3.895   7.122   1.083
 6376TIP3   OH219004   4.549   7.575   1.262
 6376TIP3    H119005   4.514   7.665   1.280
 6376TIP3    H219006   4.514   7.526   1.338
 6377TIP3   OH219007   4.677   8.154   1.784
 6377TIP3    H119008   4.721   8.226   1.736
 6377TIP3    H219009   4.751   8.118   1.836
 6378TIP3   OH219010   4.327   8.051   1.170
 6378TIP3    H119011   4.243   8.059   1.219
 6378TIP3    H219012   4.361   8.143   1.175
 6379TIP3   OH219013   5.068   7.790   1.746
 6379TIP3    H119014   5.058   7.788   1.844
 6379TIP3    H219015   5.147   7.735   1.734
 6380TIP3   OH219016   5.017   7.682   0.651
 6380TIP3    H119017   5.075   7.654   0.725
 6380TIP3    H219018   4.930   7.656   0.685
 6381TIP3   OH219019   5.315   8.324   1.799
 6381TIP3    H119020   5.238   8.265   1.792
 6381TIP3    H219021   5.299   8.386   1.725
 6382TIP3   OH219022   4.402   6.933   2.316
 6382TIP3    H119023   4.305   6.935   2.330
 6382TIP3    H219024   4.430   6.871   2.386
 6383TIP3   OH219025   5.200   7.612   0.845
 6383TIP3    H119026   5.191   7.548   0.918
 6383TIP3    H219027   5.297   7.613   0.835
 6384TIP3   OH219028   4.117   8.011   1.948
 6384TIP3    H119029   4.178   7.936   1.963
 6384TIP3    H219030   4.156   8.076   2.007
 6385TIP3   OH219031   4.403   7.662   0.630
 6385TIP3    H119032   4.424   7.572   0.599
 6385TIP3    H219033   4.386   7.647   0.725
 6386TIP3   OH219034   4.351   7.667   0.905
 6386TIP3    H119035   4.425   7.640   0.961
 6386TIP3    H219036   4.357   7.765   0.909
 6387TIP3   OH219037   4.086   7.357   1.103
 6387TIP3    H119038   4.023   7.403   1.162
 6387TIP3    H219039   4.107   7.428   1.039
 6388TIP3   OH219040   5.237   6.998   1.997
 6388TIP3    H119041   5.318   7.035   2.036
 6388TIP3    H219042   5.222   6.917   2.050
 6389TIP3   OH219043   5.116   6.750   1.161
 6389TIP3    H119044   5.105   6.773   1.067
 6389TIP3    H219045   5.157   6.831   1.197
 6390TIP3   OH219046   4.622   7.864   0.858
 6390TIP3    H119047   4.536   7.901   0.887
 6390TIP3    H219048   4.625   7.893   0.766
 6391TIP3   OH219049   4.805   6.928   1.264
 6391TIP3    H119050   4.871   6.999   1.246
 6391TIP3    H219051   4.811   6.920   1.362
 6392TIP3   OH219052   5.075   7.247   2.072
 6392TIP3    H119053   5.097   7.301   2.150
 6392TIP3    H219054   5.131   7.168   2.084
 6393TIP3   OH219055   4.952   6.656   1.367
 6393TIP3    H119056   4.948   6.732   1.428
 6393TIP3    H219057   5.012   6.692   1.298
 6394TIP3   OH219058   4.359   7.941   0.915
 6394TIP3    H119059   4.332   8.012   0.853
 6394TIP3    H219060   4.347   7.984   1.002
 6395TIP3   OH219061   4.463   6.653   1.154
 6395TIP3    H119062   4.461   6.742   1.193
 6395TIP3    H219063   4.558   6.632   1.165
 6396TIP3   OH219064   5.717   7.147   2.052
 6396TIP3    H119065   5.619   7.145   2.060
 6396TIP3    H219066   5.728   7.106   1.965
 6397TIP3   OH219067   5.368   7.341   1.440
 6397TIP3    H119068   5.292   7.281   1.453
 6397TIP3    H219069   5.439   7.294   1.489
 6398TIP3   OH219070   4.080   7.572   0.909
 6398TIP3    H119071   4.151   7.638   0.919
 6398TIP3    H219072   4.123   7.515   0.842
 6399TIP3   OH219073   4.025   6.845   1.039
 6399TIP3    H119074   4.028   6.942   1.036
 6399TIP3    H219075   3.934   6.827   1.013
 6400TIP3   OH219076   5.335   8.297   1.390
 6400TIP3    H119077   5.293   8.344   1.315
 6400TIP3    H219078   5.430   8.317   1.371
 6401TIP3   OH219079   4.411   6.565   1.918
 6401TIP3    H119080   4.383   6.530   1.831
 6401TIP3    H219081   4.401   6.486   1.976
 6402TIP3   OH219082   3.959   7.784   1.298
 6402TIP3    H119083   3.886   7.809   1.356
 6402TIP3    H219084   3.933   7.827   1.214
 6403TIP3   OH219085   4.107   8.324   2.370
 6403TIP3    H119086   4.194   8.323   2.415
 6403TIP3    H219087   4.089   8.229   2.366
 6404TIP3   OH219088   4.591   8.293   2.414
 6404TIP3    H119089   4.684   8.268   2.420
 6404TIP3    H219090   4.562   8.235   2.340
 6405TIP3   OH219091   4.585   7.864   0.575
 6405TIP3    H119092   4.519   7.792   0.587
 6405TIP3    H219093   4.623   7.838   0.490
 6406TIP3   OH219094   5.228   8.198   2.147
 6406TIP3    H119095   5.220   8.126   2.214
 6406TIP3    H219096   5.307   8.247   2.178
 6407TIP3   OH219097   4.231   7.737   2.581
 6407TIP3    H119098   4.277   7.659   2.546
 6407TIP3    H219099   4.151   7.737   2.524
 6408TIP3   OH219100   4.215   7.383   0.762
 6408TIP3    H119101   4.271   7.349   0.835
 6408TIP3    H219102   4.282   7.391   0.692
 6409TIP3   OH219103   4.843   7.817   2.339
 6409TIP3    H119104   4.795   7.828   2.255
 6409TIP3    H219105   4.874   7.724   2.334
 6410TIP3   OH219106   4.722   7.568   0.572
 6410TIP3    H119107   4.723   7.588   0.667
 6410TIP3    H219108   4.720   7.470   0.572
 6411TIP3   OH219109   5.340   7.824   1.949
 6411TIP3    H119110   5.413   7.871   1.904
 6411TIP3    H219111   5.267   7.887   1.937
 6412TIP3   OH219112   4.366   7.450   2.547
 6412TIP3    H119113   4.450   7.404   2.541
 6412TIP3    H219114   4.375   7.494   2.634
 6413TIP3   OH219115   4.421   7.287   0.984
 6413TIP3    H119116   4.399   7.247   1.070
 6413TIP3    H219117   4.458   7.211   0.935
 6414TIP3   OH219118   4.695   7.352   2.213
 6414TIP3    H119119   4.633   7.425   2.221
 6414TIP3    H219120   4.745   7.379   2.133
 6415TIP3   OH219121   4.524   7.078   0.827
 6415TIP3    H119122   4.497   7.080   0.733
 6415TIP3    H219123   4.621   7.086   0.819
 6416TIP3   OH219124   5.209   7.752   2.347
 6416TIP3    H119125   5.289   7.729   2.299
 6416TIP3    H219126   5.207   7.685   2.417
 6417TIP3   OH219127   5.340   7.421   0.528
 6417TIP3    H119128   5.374   7.396   0.439
 6417TIP3    H219129   5.314   7.514   0.512
 6418TIP3   OH219130   4.815   7.137   2.341
 6418TIP3    H119131   4.816   7.057   2.284
 6418TIP3    H219132   4.773   7.203   2.282
 6419TIP3   OH219133   4.818   6.926   2.146
 6419TIP3    H119134   4.845   6.966   2.062
 6419TIP3    H219135   4.725   6.902   2.128
 6420TIP3   OH219136   4.846   7.464   2.022
 6420TIP3    H119137   4.926   7.471   1.968
 6420TIP3    H219138   4.786   7.529   1.978
 6421TIP3   OH219139   5.429   7.428   2.402
 6421TIP3    H119140   5.476   7.344   2.409
 6421TIP3    H219141   5.497   7.486   2.365
 6422TIP3   OH219142   5.469   7.681   2.138
 6422TIP3    H119143   5.411   7.734   2.078
 6422TIP3    H219144   5.557   7.700   2.097
 6423TIP3   OH219145   4.693   7.251   2.570
 6423TIP3    H119146   4.625   7.182   2.583
 6423TIP3    H219147   4.729   7.225   2.483
 6424TIP3   OH219148   4.951   6.690   2.214
 6424TIP3    H119149   4.901   6.772   2.190
 6424TIP3    H219150   4.882   6.621   2.201
 6425TIP3   OH219151   5.076   7.194   2.430
 6425TIP3    H119152   5.064   7.182   2.525
 6425TIP3    H219153   4.987   7.168   2.398
 6426TIP3   OH219154   5.317   7.144   2.285
 6426TIP3    H119155   5.240   7.143   2.345
 6426TIP3    H219156   5.389   7.111   2.342
 6427TIP3   OH219157   5.546   7.084   2.437
 6427TIP3    H119158   5.558   6.988   2.454
 6427TIP3    H219159   5.541   7.122   2.527
 6428TIP3   OH219160   4.531   7.032   2.620
 6428TIP3    H119161   4.538   6.941   2.585
 6428TIP3    H219162   4.570   7.019   2.710
 6429TIP3   OH219163   5.046   6.699   2.471
 6429TIP3    H119164   5.113   6.628   2.465
 6429TIP3    H219165   5.005   6.693   2.382
 6430TIP3   OH219166   5.110   6.913   2.630
 6430TIP3    H119167   5.089   6.842   2.566
 6430TIP3    H219168   5.033   6.972   2.623
 6431TIP3   OH219169   4.327   8.146   0.727
 6431TIP3    H119170   4.423   8.143   0.709
 6431TIP3    H219171   4.295   8.181   0.643
 6432TIP3   OH219172   3.812   7.526   0.945
 6432TIP3    H119173   3.907   7.547   0.932
 6432TIP3    H219174   3.807   7.437   0.905
 6433TIP3   OH219175   3.682   8.091   1.365
 6433TIP3    H119176   3.705   8.016   1.306
 6433TIP3    H219177   3.749   8.075   1.437
 6434TIP3   OH219178   3.859   7.995   1.550
 6434TIP3    H119179   3.856   7.919   1.610
 6434TIP3    H219180   3.916   8.054   1.604
 6435TIP3   OH219181   5.586   8.393   1.346
 6435TIP3    H119182   5.617   8.424   1.433
 6435TIP3    H219183   5.654   8.427   1.286
 6436TIP3   OH219184   5.618   8.410   1.630
 6436TIP3    H119185   5.575   8.322   1.625
 6436TIP3    H219186   5.696   8.387   1.683
 6437TIP3   OH219187   5.665   8.085   2.201
 6437TIP3    H119188   5.592   8.093   2.266
 6437TIP3    H219189   5.706   8.174   2.206
 6438TIP3   OH219190   5.482   7.601   0.828
 6438TIP3    H119191   5.560   7.655   0.806
 6438TIP3    H219192   5.515   7.556   0.909
 6439TIP3   OH219193   5.606   7.466   1.026
 6439TIP3    H119194   5.543   7.421   1.087
 6439TIP3    H219195   5.674   7.501   1.087
 6440TIP3   OH219196   5.661   7.856   1.456
 6440TIP3    H119197   5.717   7.793   1.406
 6440TIP3    H219198   5.656   7.932   1.394
 6441TIP3   OH219199   5.494   8.158   1.652
 6441TIP3    H119200   5.423   8.199   1.704
 6441TIP3    H219201   5.444   8.109   1.583
 6442TIP3   OH219202   5.548   7.370   0.691
 6442TIP3    H119203   5.469   7.369   0.633
 6442TIP3    H219204   5.527   7.448   0.744
 6443TIP3   OH219205   5.416   7.055   0.617
 6443TIP3    H119206   5.362   7.072   0.538
 6443TIP3    H219207   5.393   6.960   0.630
 6444TIP3   OH219208   5.422   7.320   1.171
 6444TIP3    H119209   5.431   7.224   1.166
 6444TIP3    H219210   5.409   7.336   1.267
 6445TIP3   OH219211   4.047   7.398   1.917
 6445TIP3    H119212   4.047   7.370   1.824
 6445TIP3    H219213   4.144   7.404   1.935
 6446TIP3   OH219214   5.711   7.746   2.029
 6446TIP3    H119215   5.784   7.680   2.019
 6446TIP3    H219216   5.739   7.816   1.967
 6447TIP3   OH219217   5.896   7.552   2.046
 6447TIP3    H119218   5.822   7.501   2.084
 6447TIP3    H219219   5.969   7.488   2.059
 6448TIP3   OH219220   5.347   6.796   0.643
 6448TIP3    H119221   5.431   6.751   0.663
 6448TIP3    H219222   5.282   6.724   0.647
 6449TIP3   OH219223   5.418   7.038   1.066
 6449TIP3    H119224   5.459   6.949   1.082
 6449TIP3    H219225   5.477   7.069   0.995
 6450TIP3   OH219226   5.581   7.212   1.561
 6450TIP3    H119227   5.667   7.239   1.521
 6450TIP3    H219228   5.594   7.249   1.651
 6451TIP3   OH219229   5.649   7.356   1.795
 6451TIP3    H119230   5.571   7.390   1.842
 6451TIP3    H219231   5.681   7.437   1.749
 6452TIP3   OH219232   4.264   7.079   2.586
 6452TIP3    H119233   4.362   7.076   2.590
 6452TIP3    H219234   4.242   6.995   2.630
 6453TIP3   OH219235   6.101   6.947   2.350
 6453TIP3    H119236   6.159   6.880   2.307
 6453TIP3    H219237   6.073   7.002   2.275
 6454TIP3   OH219238   5.526   6.788   1.106
 6454TIP3    H119239   5.575   6.771   1.189
 6454TIP3    H219240   5.467   6.710   1.103
 6455TIP3   OH219241   4.226   6.773   1.924
 6455TIP3    H119242   4.290   6.699   1.934
 6455TIP3    H219243   4.288   6.848   1.918
 6456TIP3   OH219244   4.030   7.046   1.997
 6456TIP3    H119245   4.082   7.044   1.915
 6456TIP3    H219246   4.048   7.135   2.030
 6457TIP3   OH219247   5.972   7.086   2.157
 6457TIP3    H119248   5.884   7.126   2.176
 6457TIP3    H219249   5.944   7.014   2.097
 6458TIP3   OH219250   5.614   6.721   0.738
 6458TIP3    H119251   5.657   6.650   0.686
 6458TIP3    H219252   5.678   6.794   0.726
 6459TIP3   OH219253   4.012   6.546   1.493
 6459TIP3    H119254   3.921   6.551   1.525
 6459TIP3    H219255   4.011   6.608   1.417
 6460TIP3   OH219256   5.176   8.254   1.004
 6460TIP3    H119257   5.229   8.241   0.923
 6460TIP3    H219258   5.228   8.321   1.052
 6461TIP3   OH219259   4.235   6.635   2.314
 6461TIP3    H119260   4.183   6.627   2.396
 6461TIP3    H219261   4.167   6.669   2.253
 6462TIP3   OH219262   4.271   8.066   2.387
 6462TIP3    H119263   4.183   8.028   2.369
 6462TIP3    H219264   4.294   8.026   2.471
 6463TIP3   OH219265   4.449   8.105   1.951
 6463TIP3    H119266   4.410   8.179   1.901
 6463TIP3    H219267   4.532   8.093   1.902
 6464TIP3   OH219268   4.897   8.335   2.075
 6464TIP3    H119269   4.939   8.335   2.163
 6464TIP3    H219270   4.964   8.385   2.023
 6465TIP3   OH219271   5.076   8.488   1.932
 6465TIP3    H119272   5.147   8.435   1.892
 6465TIP3    H219273   5.128   8.544   1.993
 6466TIP3   OH219274   5.870   6.849   2.033
 6466TIP3    H119275   5.779   6.843   2.000
 6466TIP3    H219276   5.901   6.756   2.021
 6467TIP3   OH219277   4.128   8.350   1.954
 6467TIP3    H119278   4.038   8.385   1.937
 6467TIP3    H219279   4.141   8.377   2.046
 6468TIP3   OH219280   4.365   8.330   1.816
 6468TIP3    H119281   4.279   8.340   1.862
 6468TIP3    H219282   4.344   8.362   1.726
 6469TIP3   OH219283   4.792   8.358   1.614
 6469TIP3    H119284   4.721   8.377   1.550
 6469TIP3    H219285   4.803   8.444   1.658
 6470TIP3   OH219286   5.060   8.296   1.667
 6470TIP3    H119287   4.965   8.311   1.647
 6470TIP3    H219288   5.102   8.372   1.624
 6471TIP3   OH219289   5.267   8.488   1.582
 6471TIP3    H119290   5.253   8.572   1.534
 6471TIP3    H219291   5.293   8.427   1.509
 6472TIP3   OH219292   4.040   8.140   1.707
 6472TIP3    H119293   4.067   8.114   1.797
 6472TIP3    H219294   4.113   8.097   1.656
 6473TIP3   OH219295   4.234   8.016   1.559
 6473TIP3    H119296   4.246   7.929   1.605
 6473TIP3    H219297   4.326   8.049   1.560
 6474TIP3   OH219298   4.500   8.107   1.565
 6474TIP3    H119299   4.531   8.015   1.555
 6474TIP3    H219300   4.544   8.129   1.649
 6475TIP3   OH219301   5.073   6.763   1.650
 6475TIP3    H119302   5.031   6.693   1.704
 6475TIP3    H219303   5.147   6.715   1.608
 6476TIP3   OH219304   5.599   6.645   1.558
 6476TIP3    H119305   5.635   6.697   1.483
 6476TIP3    H219306   5.503   6.663   1.550
 6477TIP3   OH219307   5.694   6.746   1.322
 6477TIP3    H119308   5.767   6.694   1.281
 6477TIP3    H219309   5.727   6.837   1.306
 6478TIP3   OH219310   4.325   6.471   1.669
 6478TIP3    H119311   4.234   6.436   1.671
 6478TIP3    H219312   4.377   6.387   1.667
 6479TIP3   OH219313   4.095   6.344   1.311
 6479TIP3    H119314   4.138   6.400   1.245
 6479TIP3    H219315   4.076   6.408   1.383
 6480TIP3   OH219316   4.761   6.519   1.551
 6480TIP3    H119317   4.827   6.561   1.493
 6480TIP3    H219318   4.794   6.542   1.639
 6481TIP3   OH219319   5.316   6.652   1.533
 6481TIP3    H119320   5.313   6.615   1.445
 6481TIP3    H219321   5.303   6.572   1.589
 6482TIP3   OH219322   5.344   6.574   1.096
 6482TIP3    H119323   5.257   6.616   1.107
 6482TIP3    H219324   5.330   6.489   1.142
 6483TIP3   OH219325   3.814   7.925   1.115
 6483TIP3    H119326   3.740   7.883   1.069
 6483TIP3    H219327   3.817   8.010   1.068
 6484TIP3   OH219328   4.228   6.507   1.076
 6484TIP3    H119329   4.278   6.441   1.024
 6484TIP3    H219330   4.301   6.559   1.115
 6485TIP3   OH219331   4.741   6.677   1.177
 6485TIP3    H119332   4.798   6.629   1.240
 6485TIP3    H219333   4.762   6.769   1.204
 6486TIP3   OH219334   4.591   8.118   0.671
 6486TIP3    H119335   4.684   8.133   0.642
 6486TIP3    H219336   4.578   8.031   0.626
 6487TIP3   OH219337   5.322   8.217   0.769
 6487TIP3    H119338   5.310   8.120   0.755
 6487TIP3    H219339   5.275   8.254   0.691
 6488TIP3   OH219340   4.531   6.754   2.561
 6488TIP3    H119341   4.499   6.682   2.618
 6488TIP3    H219342   4.626   6.756   2.587
 6489TIP3   OH219343   4.780   6.752   2.679
 6489TIP3    H119344   4.864   6.725   2.639
 6489TIP3    H219345   4.766   6.681   2.744
 6490TIP3   OH219346   3.905   7.932   0.739
 6490TIP3    H119347   3.920   7.965   0.828
 6490TIP3    H219348   3.992   7.891   0.718
 6491TIP3   OH219349   5.606   6.813   2.467
 6491TIP3    H119350   5.626   6.782   2.558
 6491TIP3    H219351   5.694   6.808   2.424
 6492TIP3   OH219352   5.544   8.365   1.960
 6492TIP3    H119353   5.466   8.333   1.911
 6492TIP3    H219354   5.525   8.461   1.963
 6493TIP3   OH219355   6.799   7.735   1.107
 6493TIP3    H119356   6.841   7.714   1.193
 6493TIP3    H219357   6.763   7.648   1.082
 6494TIP3   OH219358   6.109   7.632   1.472
 6494TIP3    H119359   6.141   7.565   1.536
 6494TIP3    H219360   6.187   7.690   1.466
 6495TIP3   OH219361   6.079   8.040   1.199
 6495TIP3    H119362   6.072   7.942   1.199
 6495TIP3    H219363   6.176   8.050   1.191
 6496TIP3   OH219364   5.788   7.248   0.979
 6496TIP3    H119365   5.738   7.330   0.995
 6496TIP3    H219366   5.718   7.190   0.945
 6497TIP3   OH219367   5.846   7.531   1.150
 6497TIP3    H119368   5.895   7.455   1.189
 6497TIP3    H219369   5.911   7.567   1.088
 6498TIP3   OH219370   6.611   7.959   1.151
 6498TIP3    H119371   6.653   7.879   1.113
 6498TIP3    H219372   6.692   8.007   1.177
 6499TIP3   OH219373   7.621   7.280   1.155
 6499TIP3    H119374   7.647   7.359   1.207
 6499TIP3    H219375   7.663   7.297   1.070
 6500TIP3   OH219376   7.018   7.464   1.196
 6500TIP3    H119377   7.061   7.377   1.208
 6500TIP3    H219378   6.993   7.461   1.102
 6501TIP3   OH219379   6.359   7.124   1.153
 6501TIP3    H119380   6.339   7.196   1.090
 6501TIP3    H219381   6.312   7.049   1.110
 6502TIP3   OH219382   7.003   7.197   0.841
 6502TIP3    H119383   7.065   7.174   0.912
 6502TIP3    H219384   7.068   7.193   0.767
 6503TIP3   OH219385   5.992   7.326   1.259
 6503TIP3    H119386   6.075   7.306   1.307
 6503TIP3    H219387   6.005   7.270   1.180
 6504TIP3   OH219388   6.433   7.522   1.050
 6504TIP3    H119389   6.526   7.497   1.067
 6504TIP3    H219390   6.395   7.438   1.019
 6505TIP3   OH219391   7.689   7.487   1.320
 6505TIP3    H119392   7.604   7.536   1.313
 6505TIP3    H219393   7.712   7.505   1.412
 6506TIP3   OH219394   6.355   7.106   1.586
 6506TIP3    H119395   6.296   7.143   1.519
 6506TIP3    H219396   6.304   7.125   1.667
 6507TIP3   OH219397   6.461   7.882   1.382
 6507TIP3    H119398   6.398   7.948   1.420
 6507TIP3    H219399   6.504   7.935   1.311
 6508TIP3   OH219400   7.278   7.223   0.962
 6508TIP3    H119401   7.259   7.180   1.046
 6508TIP3    H219402   7.316   7.309   0.991
 6509TIP3   OH219403   6.226   7.222   1.371
 6509TIP3    H119404   6.288   7.296   1.393
 6509TIP3    H219405   6.276   7.181   1.297
 6510TIP3   OH219406   6.289   8.076   1.479
 6510TIP3    H119407   6.265   8.162   1.439
 6510TIP3    H219408   6.210   8.062   1.536
 6511TIP3   OH219409   5.686   7.766   0.721
 6511TIP3    H119410   5.607   7.794   0.672
 6511TIP3    H219411   5.700   7.841   0.784
 6512TIP3   OH219412   7.140   8.295   0.962
 6512TIP3    H119413   7.052   8.273   1.002
 6512TIP3    H219414   7.112   8.337   0.879
 6513TIP3   OH219415   7.413   7.180   1.317
 6513TIP3    H119416   7.326   7.215   1.291
 6513TIP3    H219417   7.472   7.213   1.247
 6514TIP3   OH219418   6.712   6.826   1.299
 6514TIP3    H119419   6.700   6.731   1.319
 6514TIP3    H219420   6.635   6.864   1.347
 6515TIP3   OH219421   7.348   8.195   1.300
 6515TIP3    H119422   7.343   8.121   1.236
 6515TIP3    H219423   7.334   8.273   1.242
 6516TIP3   OH219424   7.537   7.825   1.147
 6516TIP3    H119425   7.461   7.887   1.154
 6516TIP3    H219426   7.557   7.832   1.053
 6517TIP3   OH219427   7.224   7.710   1.439
 6517TIP3    H119428   7.222   7.792   1.493
 6517TIP3    H219429   7.139   7.718   1.392
 6518TIP3   OH219430   6.223   7.670   0.945
 6518TIP3    H119431   6.180   7.611   0.880
 6518TIP3    H219432   6.300   7.617   0.973
 6519TIP3   OH219433   6.352   8.075   1.099
 6519TIP3    H119434   6.327   8.039   1.012
 6519TIP3    H219435   6.442   8.039   1.111
 6520TIP3   OH219436   6.357   7.641   1.298
 6520TIP3    H119437   6.392   7.621   1.208
 6520TIP3    H219438   6.401   7.727   1.319
 6521TIP3   OH219439   6.897   8.267   1.072
 6521TIP3    H119440   6.860   8.348   1.112
 6521TIP3    H219441   6.873   8.198   1.137
 6522TIP3   OH219442   6.495   8.196   1.623
 6522TIP3    H119443   6.436   8.260   1.668
 6522TIP3    H219444   6.429   8.144   1.573
 6523TIP3   OH219445   6.250   7.753   1.724
 6523TIP3    H119446   6.255   7.840   1.767
 6523TIP3    H219447   6.154   7.734   1.733
 6524TIP3   OH219448   6.290   8.366   1.709
 6524TIP3    H119449   6.257   8.365   1.617
 6524TIP3    H219450   6.210   8.344   1.761
 6525TIP3   OH219451   6.083   7.508   0.768
 6525TIP3    H119452   6.025   7.550   0.702
 6525TIP3    H219453   6.032   7.430   0.791
 6526TIP3   OH219454   5.868   7.895   1.657
 6526TIP3    H119455   5.804   7.872   1.587
 6526TIP3    H219456   5.906   7.808   1.681
 6527TIP3   OH219457   5.724   8.087   1.291
 6527TIP3    H119458   5.820   8.080   1.277
 6527TIP3    H219459   5.718   8.167   1.345
 6528TIP3   OH219460   7.579   8.540   1.340
 6528TIP3    H119461   7.586   8.444   1.356
 6528TIP3    H219462   7.496   8.561   1.389
 6529TIP3   OH219463   6.696   8.325   1.481
 6529TIP3    H119464   6.694   8.418   1.513
 6529TIP3    H219465   6.623   8.286   1.534
 6530TIP3   OH219466   5.883   8.292   0.812
 6530TIP3    H119467   5.946   8.296   0.887
 6530TIP3    H219468   5.828   8.218   0.843
 6531TIP3   OH219469   7.476   7.671   1.621
 6531TIP3    H119470   7.396   7.682   1.569
 6531TIP3    H219471   7.494   7.575   1.611
 6532TIP3   OH219472   6.074   8.078   1.646
 6532TIP3    H119473   6.125   8.061   1.728
 6532TIP3    H219474   6.000   8.015   1.654
 6533TIP3   OH219475   6.473   6.902   1.428
 6533TIP3    H119476   6.384   6.871   1.403
 6533TIP3    H219477   6.448   6.984   1.475
 6534TIP3   OH219478   7.007   7.016   1.624
 6534TIP3    H119479   7.076   6.990   1.688
 6534TIP3    H219480   6.924   6.997   1.671
 6535TIP3   OH219481   7.239   7.444   1.537
 6535TIP3    H119482   7.195   7.441   1.625
 6535TIP3    H219483   7.217   7.534   1.505
 6536TIP3   OH219484   6.404   7.418   1.446
 6536TIP3    H119485   6.355   7.438   1.528
 6536TIP3    H219486   6.388   7.499   1.393
 6537TIP3   OH219487   6.289   7.300   0.959
 6537TIP3    H119488   6.196   7.276   0.980
 6537TIP3    H219489   6.298   7.261   0.869
 6538TIP3   OH219490   6.954   7.668   1.775
 6538TIP3    H119491   6.932   7.595   1.837
 6538TIP3    H219492   7.048   7.683   1.797
 6539TIP3   OH219493   6.926   7.444   0.934
 6539TIP3    H119494   6.900   7.492   0.853
 6539TIP3    H219495   6.946   7.355   0.898
 6540TIP3   OH219496   6.224   7.447   1.657
 6540TIP3    H119497   6.252   7.510   1.724
 6540TIP3    H219498   6.212   7.365   1.709
 6541TIP3   OH219499   5.815   6.972   1.237
 6541TIP3    H119500   5.893   7.000   1.289
 6541TIP3    H219501   5.853   6.934   1.156
 6542TIP3   OH219502   5.791   6.953   0.757
 6542TIP3    H119503   5.838   6.990   0.680
 6542TIP3    H219504   5.729   7.025   0.777
 6543TIP3   OH219505   6.940   7.667   1.352
 6543TIP3    H119506   6.976   7.596   1.295
 6543TIP3    H219507   6.915   7.615   1.430
 6544TIP3   OH219508   6.617   7.120   1.030
 6544TIP3    H119509   6.535   7.121   1.084
 6544TIP3    H219510   6.685   7.124   1.099
 6545TIP3   OH219511   6.050   7.182   1.030
 6545TIP3    H119512   5.955   7.188   1.004
 6545TIP3    H219513   6.073   7.089   1.009
 6546TIP3   OH219514   6.319   7.182   0.708
 6546TIP3    H119515   6.416   7.190   0.720
 6546TIP3    H219516   6.303   7.237   0.630
 6547TIP3   OH219517   7.107   7.200   1.221
 6547TIP3    H119518   7.077   7.214   1.314
 6547TIP3    H219519   7.038   7.139   1.189
 6548TIP3   OH219520   7.272   8.888   1.444
 6548TIP3    H119521   7.276   8.910   1.348
 6548TIP3    H219522   7.346   8.940   1.479
 6549TIP3   OH219523   6.235   7.999   1.866
 6549TIP3    H119524   6.315   8.031   1.912
 6549TIP3    H219525   6.170   8.000   1.939
 6550TIP3   OH219526   6.697   7.454   1.120
 6550TIP3    H119527   6.776   7.426   1.070
 6550TIP3    H219528   6.711   7.412   1.207
 6551TIP3   OH219529   6.224   6.941   0.999
 6551TIP3    H119530   6.187   6.862   1.045
 6551TIP3    H219531   6.278   6.899   0.930
 6552TIP3   OH219532   6.676   7.349   1.412
 6552TIP3    H119533   6.587   7.387   1.425
 6552TIP3    H219534   6.734   7.410   1.461
 6553TIP3   OH219535   7.314   7.984   1.118
 6553TIP3    H119536   7.289   8.034   1.039
 6553TIP3    H219537   7.233   7.929   1.128
 6554TIP3   OH219538   6.810   8.058   1.503
 6554TIP3    H119539   6.836   8.040   1.594
 6554TIP3    H219540   6.774   8.148   1.508
 6555TIP3   OH219541   6.101   7.758   1.181
 6555TIP3    H119542   6.143   7.735   1.096
 6555TIP3    H219543   6.148   7.700   1.243
 6556TIP3   OH219544   5.984   7.684   1.795
 6556TIP3    H119545   6.006   7.670   1.889
 6556TIP3    H219546   5.916   7.616   1.780
 6557TIP3   OH219547   6.711   7.797   1.815
 6557TIP3    H119548   6.653   7.740   1.763
 6557TIP3    H219549   6.799   7.765   1.788
 6558TIP3   OH219550   6.974   8.315   1.401
 6558TIP3    H119551   6.877   8.317   1.410
 6558TIP3    H219552   7.000   8.369   1.479
 6559TIP3   OH219553   7.598   8.249   1.393
 6559TIP3    H119554   7.500   8.245   1.387
 6559TIP3    H219555   7.621   8.221   1.302
 6560TIP3   OH219556   7.084   7.837   1.084
 6560TIP3    H119557   6.989   7.822   1.075
 6560TIP3    H219558   7.119   7.762   1.030
 6561TIP3   OH219559   6.219   8.074   0.819
 6561TIP3    H119560   6.217   8.167   0.793
 6561TIP3    H219561   6.142   8.039   0.769
 6562TIP3   OH219562   5.754   7.369   0.510
 6562TIP3    H119563   5.798   7.452   0.538
 6562TIP3    H219564   5.676   7.369   0.569
 6563TIP3   OH219565   6.366   7.843   0.774
 6563TIP3    H119566   6.319   7.928   0.783
 6563TIP3    H219567   6.315   7.787   0.835
 6564TIP3   OH219568   6.475   8.404   1.282
 6564TIP3    H119569   6.507   8.472   1.221
 6564TIP3    H219570   6.557   8.377   1.326
 6565TIP3   OH219571   6.863   8.042   1.234
 6565TIP3    H119572   6.853   8.042   1.332
 6565TIP3    H219573   6.945   7.993   1.223
 6566TIP3   OH219574   7.107   8.581   1.282
 6566TIP3    H119575   7.030   8.523   1.271
 6566TIP3    H219576   7.095   8.646   1.210
 6567TIP3   OH219577   6.198   7.190   1.803
 6567TIP3    H119578   6.101   7.194   1.815
 6567TIP3    H219579   6.225   7.129   1.874
 6568TIP3   OH219580   5.910   8.275   1.436
 6568TIP3    H119581   5.965   8.200   1.465
 6568TIP3    H219582   5.946   8.346   1.491
 6569TIP3   OH219583   5.876   7.596   0.602
 6569TIP3    H119584   5.817   7.653   0.654
 6569TIP3    H219585   5.917   7.661   0.540
 6570TIP3   OH219586   7.034   7.251   1.479
 6570TIP3    H119587   7.111   7.295   1.519
 6570TIP3    H219588   7.022   7.172   1.537
 6571TIP3   OH219589   6.584   7.192   0.765
 6571TIP3    H119590   6.661   7.240   0.730
 6571TIP3    H219591   6.604   7.185   0.861
 6572TIP3   OH219592   6.872   7.503   1.560
 6572TIP3    H119593   6.893   7.558   1.638
 6572TIP3    H219594   6.929   7.425   1.574
 6573TIP3   OH219595   6.763   6.931   0.855
 6573TIP3    H119596   6.734   6.993   0.925
 6573TIP3    H219597   6.847   6.972   0.830
 6574TIP3   OH219598   6.251   6.906   0.655
 6574TIP3    H119599   6.246   6.998   0.688
 6574TIP3    H219600   6.340   6.881   0.686
 6575TIP3   OH219601   7.507   7.407   1.538
 6575TIP3    H119602   7.409   7.404   1.541
 6575TIP3    H219603   7.524   7.356   1.458
 6576TIP3   OH219604   7.164   7.611   0.952
 6576TIP3    H119605   7.092   7.548   0.934
 6576TIP3    H219606   7.238   7.552   0.975
 6577TIP3   OH219607   5.827   7.105   0.520
 6577TIP3    H119608   5.796   7.198   0.514
 6577TIP3    H219609   5.756   7.058   0.474
 6578TIP3   OH219610   6.209   6.822   1.404
 6578TIP3    H119611   6.177   6.789   1.317
 6578TIP3    H219612   6.198   6.743   1.461
 6579TIP3   OH219613   5.727   8.046   0.827
 6579TIP3    H119614   5.655   8.107   0.847
 6579TIP3    H219615   5.741   8.055   0.731
 6580TIP3   OH219616   5.904   8.582   1.858
 6580TIP3    H119617   5.990   8.582   1.904
 6580TIP3    H219618   5.884   8.487   1.854
 6581TIP3   OH219619   6.384   8.547   1.902
 6581TIP3    H119620   6.479   8.529   1.908
 6581TIP3    H219621   6.361   8.489   1.826
 6582TIP3   OH219622   7.025   8.454   1.634
 6582TIP3    H119623   7.016   8.383   1.702
 6582TIP3    H219624   7.103   8.503   1.666
 6583TIP3   OH219625   6.034   7.988   2.057
 6583TIP3    H119626   6.051   7.893   2.060
 6583TIP3    H219627   5.947   7.991   2.013
 6584TIP3   OH219628   6.642   8.073   1.830
 6584TIP3    H119629   6.601   8.090   1.743
 6584TIP3    H219630   6.674   7.980   1.822
 6585TIP3   OH219631   7.134   8.080   1.434
 6585TIP3    H119632   7.209   8.128   1.392
 6585TIP3    H219633   7.063   8.147   1.423
 6586TIP3   OH219634   6.152   7.721   2.038
 6586TIP3    H119635   6.229   7.667   2.016
 6586TIP3    H219636   6.178   7.754   2.127
 6587TIP3   OH219637   6.488   7.606   1.698
 6587TIP3    H119638   6.411   7.667   1.702
 6587TIP3    H219639   6.537   7.640   1.620
 6588TIP3   OH219640   7.004   8.008   1.833
 6588TIP3    H119641   7.087   7.988   1.788
 6588TIP3    H219642   7.004   7.942   1.905
 6589TIP3   OH219643   6.610   7.395   1.827
 6589TIP3    H119644   6.612   7.315   1.771
 6589TIP3    H219645   6.568   7.461   1.768
 6590TIP3   OH219646   6.615   7.181   1.633
 6590TIP3    H119647   6.642   7.223   1.549
 6590TIP3    H219648   6.521   7.158   1.614
 6591TIP3   OH219649   6.641   7.717   1.506
 6591TIP3    H119650   6.725   7.725   1.459
 6591TIP3    H219651   6.586   7.785   1.462
 6592TIP3   OH219652   7.225   7.684   1.888
 6592TIP3    H119653   7.274   7.601   1.899
 6592TIP3    H219654   7.295   7.743   1.855
 6593TIP3   OH219655   7.264   7.936   1.622
 6593TIP3    H119656   7.207   7.990   1.563
 6593TIP3    H219657   7.352   7.956   1.582
 6594TIP3   OH219658   6.489   7.508   2.057
 6594TIP3    H119659   6.420   7.439   2.070
 6594TIP3    H219660   6.525   7.482   1.969
 6595TIP3   OH219661   6.747   6.946   1.701
 6595TIP3    H119662   6.699   7.028   1.677
 6595TIP3    H219663   6.676   6.878   1.688
 6596TIP3   OH219664   6.873   7.451   1.916
 6596TIP3    H119665   6.863   7.440   2.013
 6596TIP3    H219666   6.782   7.425   1.888
 6597TIP3   OH219667   7.110   7.398   1.769
 6597TIP3    H119668   7.036   7.400   1.832
 6597TIP3    H219669   7.185   7.369   1.827
 6598TIP3   OH219670   7.332   7.339   1.923
 6598TIP3    H119671   7.350   7.244   1.941
 6598TIP3    H219672   7.335   7.379   2.012
 6599TIP3   OH219673   6.328   7.287   2.110
 6599TIP3    H119674   6.336   7.197   2.074
 6599TIP3    H219675   6.365   7.275   2.200
 6600TIP3   OH219676   6.841   6.954   1.958
 6600TIP3    H119677   6.909   6.885   1.951
 6600TIP3    H219678   6.801   6.949   1.869
 6601TIP3   OH219679   6.905   7.168   2.119
 6601TIP3    H119680   6.883   7.099   2.053
 6601TIP3    H219681   6.828   7.229   2.110
 6602TIP3   OH219682   5.514   8.398   0.848
 6602TIP3    H119683   5.451   8.332   0.813
 6602TIP3    H219684   5.560   8.345   0.917
 6603TIP3   OH219685   5.650   8.253   1.036
 6603TIP3    H119686   5.648   8.174   1.093
 6603TIP3    H219687   5.705   8.312   1.090
 6604TIP3   OH219688   7.427   8.666   1.121
 6604TIP3    H119689   7.380   8.581   1.111
 6604TIP3    H219690   7.502   8.637   1.175
 6605TIP3   OH219691   7.459   8.341   1.687
 6605TIP3    H119692   7.387   8.349   1.753
 6605TIP3    H219693   7.501   8.429   1.694
 6606TIP3   OH219694   7.294   8.419   1.147
 6606TIP3    H119695   7.224   8.461   1.200
 6606TIP3    H219696   7.242   8.373   1.076
 6607TIP3   OH219697   5.845   7.652   1.405
 6607TIP3    H119698   5.844   7.622   1.311
 6607TIP3    H219699   5.942   7.654   1.421
 6608TIP3   OH219700   7.506   8.002   1.513
 6608TIP3    H119701   7.579   7.936   1.507
 6608TIP3    H219702   7.539   8.074   1.456
 6609TIP3   OH219703   7.690   7.809   1.533
 6609TIP3    H119704   7.618   7.756   1.573
 6609TIP3    H219705   7.765   7.747   1.545
 6610TIP3   OH219706   7.384   7.468   1.044
 6610TIP3    H119707   7.464   7.504   1.000
 6610TIP3    H219708   7.395   7.506   1.134
 6611TIP3   OH219709   7.439   7.608   1.280
 6611TIP3    H119710   7.362   7.640   1.331
 6611TIP3    H219711   7.473   7.692   1.242
 6612TIP3   OH219712   6.061   7.338   2.080
 6612TIP3    H119713   6.159   7.333   2.081
 6612TIP3    H219714   6.038   7.253   2.122
 6613TIP3   OH219715   6.024   7.030   1.410
 6613TIP3    H119716   6.087   6.956   1.421
 6613TIP3    H219717   6.086   7.105   1.405
 6614TIP3   OH219718   5.827   7.305   1.484
 6614TIP3    H119719   5.876   7.297   1.400
 6614TIP3    H219720   5.856   7.391   1.515
 6615TIP3   OH219721   7.773   7.359   1.639
 6615TIP3    H119722   7.681   7.378   1.665
 6615TIP3    H219723   7.766   7.266   1.611
 6616TIP3   OH219724   5.810   6.815   0.990
 6616TIP3    H119725   5.715   6.806   1.009
 6616TIP3    H219726   5.809   6.867   0.907
 6617TIP3   OH219727   6.030   6.888   1.800
 6617TIP3    H119728   5.979   6.882   1.882
 6617TIP3    H219729   5.963   6.926   1.739
 6618TIP3   OH219730   6.070   8.315   1.876
 6618TIP3    H119731   5.978   8.288   1.859
 6618TIP3    H219732   6.079   8.297   1.970
 6619TIP3   OH219733   6.247   8.345   1.425
 6619TIP3    H119734   6.201   8.422   1.385
 6619TIP3    H219735   6.333   8.357   1.379
 6620TIP3   OH219736   6.693   8.592   1.562
 6620TIP3    H119737   6.736   8.593   1.650
 6620TIP3    H219738   6.758   8.642   1.509
 6621TIP3   OH219739   6.876   8.740   1.420
 6621TIP3    H119740   6.950   8.688   1.385
 6621TIP3    H219741   6.923   8.800   1.481
 6622TIP3   OH219742   7.669   7.103   1.520
 6622TIP3    H119743   7.576   7.097   1.491
 6622TIP3    H219744   7.700   7.011   1.506
 6623TIP3   OH219745   5.923   8.602   1.447
 6623TIP3    H119746   5.835   8.638   1.423
 6623TIP3    H219747   5.935   8.641   1.534
 6624TIP3   OH219748   6.161   8.578   1.305
 6624TIP3    H119749   6.075   8.594   1.348
 6624TIP3    H219750   6.145   8.614   1.215
 6625TIP3   OH219751   6.840   8.548   1.138
 6625TIP3    H119752   6.763   8.536   1.080
 6625TIP3    H219753   6.861   8.641   1.122
 6626TIP3   OH219754   7.070   8.754   1.065
 6626TIP3    H119755   7.021   8.828   1.026
 6626TIP3    H219756   7.091   8.700   0.987
 6627TIP3   OH219757   5.832   8.397   1.194
 6627TIP3    H119758   5.863   8.373   1.284
 6627TIP3    H219759   5.904   8.356   1.141
 6628TIP3   OH219760   6.021   8.268   1.048
 6628TIP3    H119761   6.037   8.182   1.093
 6628TIP3    H219762   6.113   8.301   1.043
 6629TIP3   OH219763   6.280   8.342   1.039
 6629TIP3    H119764   6.322   8.257   1.062
 6629TIP3    H219765   6.327   8.403   1.098
 6630TIP3   OH219766   6.872   7.016   1.136
 6630TIP3    H119767   6.830   6.946   1.189
 6630TIP3    H219768   6.947   6.968   1.095
 6631TIP3   OH219769   7.391   6.904   1.049
 6631TIP3    H119770   7.426   6.950   0.971
 6631TIP3    H219771   7.295   6.922   1.043
 6632TIP3   OH219772   7.511   6.972   0.808
 6632TIP3    H119773   7.601   6.937   0.822
 6632TIP3    H219774   7.531   7.067   0.804
 6633TIP3   OH219775   6.120   6.731   1.156
 6633TIP3    H119776   6.028   6.697   1.155
 6633TIP3    H219777   6.170   6.646   1.152
 6634TIP3   OH219778   5.921   6.600   0.807
 6634TIP3    H119779   5.942   6.656   0.729
 6634TIP3    H219780   5.882   6.664   0.868
 6635TIP3   OH219781   6.556   6.763   1.042
 6635TIP3    H119782   6.621   6.806   0.985
 6635TIP3    H219783   6.581   6.797   1.129
 6636TIP3   OH219784   7.107   6.906   1.016
 6636TIP3    H119785   7.121   6.864   0.930
 6636TIP3    H219786   7.095   6.827   1.074
 6637TIP3   OH219787   6.018   6.759   0.584
 6637TIP3    H119788   6.058   6.699   0.518
 6637TIP3    H219789   6.095   6.813   0.609
 6638TIP3   OH219790   6.512   6.922   0.725
 6638TIP3    H119791   6.589   6.885   0.770
 6638TIP3    H219792   6.535   7.016   0.726
 6639TIP3   OH219793   6.328   7.010   2.047
 6639TIP3    H119794   6.295   6.940   2.105
 6639TIP3    H219795   6.422   7.012   2.072
 6640TIP3   OH219796   6.576   7.008   2.165
 6640TIP3    H119797   6.661   6.984   2.125
 6640TIP3    H219798   6.565   6.937   2.231
 6641TIP3   OH219799   7.397   7.070   1.956
 6641TIP3    H119800   7.425   7.040   2.044
 6641TIP3    H219801   7.482   7.069   1.906
 6642TIP3   OH219802   7.337   8.620   1.449
 6642TIP3    H119803   7.260   8.588   1.399
 6642TIP3    H219804   7.320   8.716   1.448
 6643TIP3   OH219805   8.150   7.365   1.078
 6643TIP3    H119806   8.090   7.406   1.016
 6643TIP3    H219807   8.102   7.380   1.163
 6644TIP3   OH219808   8.051   8.000   1.215
 6644TIP3    H119809   8.051   8.087   1.261
 6644TIP3    H219810   7.955   7.984   1.210
 6645TIP3   OH219811   7.656   8.147   1.148
 6645TIP3    H119812   7.637   8.121   1.057
 6645TIP3    H219813   7.699   8.067   1.185
 6646TIP3   OH219814   7.876   8.315   1.139
 6646TIP3    H119815   7.920   8.281   1.219
 6646TIP3    H219816   7.793   8.265   1.136
 6647TIP3   OH219817   8.804   7.269   1.094
 6647TIP3    H119818   8.870   7.248   1.162
 6647TIP3    H219819   8.720   7.248   1.138
 6648TIP3   OH219820   7.987   7.687   1.153
 6648TIP3    H119821   8.037   7.761   1.189
 6648TIP3    H219822   8.010   7.614   1.212
 6649TIP3   OH219823   8.025   8.237   1.355
 6649TIP3    H119824   8.093   8.304   1.368
 6649TIP3    H219825   7.969   8.249   1.434
 6650TIP3   OH219826   7.778   7.946   1.284
 6650TIP3    H119827   7.814   7.938   1.374
 6650TIP3    H219828   7.720   7.868   1.280
 6651TIP3   OH219829   8.000   7.438   1.297
 6651TIP3    H119830   7.905   7.450   1.314
 6651TIP3    H219831   8.027   7.381   1.371
 6652TIP3   OH219832   7.979   7.084   0.892
 6652TIP3    H119833   7.981   7.038   0.806
 6652TIP3    H219834   7.986   7.010   0.955
 6653TIP3   OH219835   7.676   8.819   1.386
 6653TIP3    H119836   7.772   8.805   1.379
 6653TIP3    H219837   7.646   8.729   1.361
 6654TIP3   OH219838   7.828   8.243   1.548
 6654TIP3    H119839   7.846   8.147   1.551
 6654TIP3    H219840   7.741   8.245   1.503
 6655TIP3   OH219841   7.944   7.977   1.524
 6655TIP3    H119842   8.020   7.923   1.499
 6655TIP3    H219843   7.972   8.008   1.613
 6656TIP3   OH219844   8.276   7.853   1.178
 6656TIP3    H119845   8.204   7.915   1.203
 6656TIP3    H219846   8.277   7.864   1.082
 6657TIP3   OH219847   8.400   7.651   1.316
 6657TIP3    H119848   8.405   7.572   1.259
 6657TIP3    H219849   8.361   7.718   1.255
 6658TIP3   OH219850   8.408   7.436   1.119
 6658TIP3    H119851   8.431   7.470   1.032
 6658TIP3    H219852   8.315   7.407   1.106
 6659TIP3   OH219853   8.284   7.764   1.542
 6659TIP3    H119854   8.215   7.696   1.556
 6659TIP3    H219855   8.319   7.737   1.455
 6660TIP3   OH219856   8.541   7.199   1.187
 6660TIP3    H119857   8.498   7.285   1.167
 6660TIP3    H219858   8.465   7.138   1.176
 6661TIP3   OH219859   8.645   7.735   1.425
 6661TIP3    H119860   8.624   7.699   1.513
 6661TIP3    H219861   8.564   7.709   1.377
 6662TIP3   OH219862   8.127   7.545   1.596
 6662TIP3    H119863   8.131   7.453   1.561
 6662TIP3    H219864   8.161   7.530   1.687
 6663TIP3   OH219865   8.635   7.208   1.445
 6663TIP3    H119866   8.705   7.140   1.438
 6663TIP3    H219867   8.599   7.206   1.354
 6664TIP3   OH219868   8.691   7.419   1.609
 6664TIP3    H119869   8.675   7.351   1.540
 6664TIP3    H219870   8.616   7.480   1.597
 6665TIP3   OH219871   7.862   7.602   1.563
 6665TIP3    H119872   7.959   7.592   1.568
 6665TIP3    H219873   7.834   7.518   1.604
 6666TIP3   OH219874   7.845   7.320   0.941
 6666TIP3    H119875   7.897   7.237   0.952
 6666TIP3    H219876   7.906   7.371   0.887
 6667TIP3   OH219877   7.645   7.568   0.951
 6667TIP3    H119878   7.714   7.501   0.957
 6667TIP3    H219879   7.680   7.638   1.007
 6668TIP3   OH219880   7.827   7.141   1.286
 6668TIP3    H119881   7.782   7.139   1.373
 6668TIP3    H219882   7.756   7.179   1.231
 6669TIP3   OH219883   7.855   8.587   1.421
 6669TIP3    H119884   7.796   8.556   1.350
 6669TIP3    H219885   7.832   8.528   1.494
 6670TIP3   OH219886   8.124   7.272   1.528
 6670TIP3    H119887   8.087   7.199   1.583
 6670TIP3    H219888   8.217   7.269   1.557
 6671TIP3   OH219889   8.371   7.265   1.652
 6671TIP3    H119890   8.457   7.239   1.614
 6671TIP3    H219891   8.355   7.193   1.716
 6672TIP3   OH219892   9.140   7.301   1.464
 6672TIP3    H119893   9.192   7.303   1.546
 6672TIP3    H219894   9.203   7.336   1.399
 6673TIP3   OH219895   0.354   7.992   3.536
 6673TIP3    H119896   0.408   7.925   3.488
 6673TIP3    H219897   0.318   8.044   3.461
 6674TIP3   OH219898   0.220   8.126   3.334
 6674TIP3    H119899   0.132   8.161   3.353
 6674TIP3    H219900   0.198   8.048   3.278
 6675TIP3   OH219901   0.124   7.901   3.198
 6675TIP3    H119902   0.029   7.889   3.191
 6675TIP3    H219903   0.155   7.807   3.196
 6676TIP3   OH219904   1.872   8.326   2.328
 6676TIP3    H119905   1.901   8.408   2.372
 6676TIP3    H219906   1.887   8.348   2.235
 6677TIP3   OH219907   1.279   8.508   2.357
 6677TIP3    H119908   1.316   8.419   2.376
 6677TIP3    H219909   1.235   8.492   2.272
 6678TIP3   OH219910   1.299   8.246   1.955
 6678TIP3    H119911   1.370   8.234   2.023
 6678TIP3    H219912   1.353   8.285   1.884
 6679TIP3   OH219913   1.954   8.529   2.500
 6679TIP3    H119914   1.874   8.577   2.470
 6679TIP3    H219915   1.961   8.561   2.591
 6680TIP3   OH219916   0.607   8.145   2.768
 6680TIP3    H119917   0.554   8.182   2.694
 6680TIP3    H219918   0.550   8.168   2.844
 6681TIP3   OH219919   1.511   8.260   2.123
 6681TIP3    H119920   1.499   8.214   2.208
 6681TIP3    H219921   1.559   8.341   2.150
 6682TIP3   OH219922   0.486   8.249   2.548
 6682TIP3    H119923   0.529   8.335   2.566
 6682TIP3    H219924   0.491   8.249   2.451
 6683TIP3   OH219925   1.664   8.227   2.495
 6683TIP3    H119926   1.576   8.256   2.466
 6683TIP3    H219927   1.722   8.259   2.422
 6684TIP3   OH219928   0.959   7.872   2.475
 6684TIP3    H119929   0.948   7.777   2.493
 6684TIP3    H219930   0.883   7.909   2.524
 6685TIP3   OH219931   1.498   8.753   2.603
 6685TIP3    H119932   1.509   8.837   2.556
 6685TIP3    H219933   1.405   8.731   2.577
 6686TIP3   OH219934   1.599   7.817   1.578
 6686TIP3    H119935   1.513   7.832   1.624
 6686TIP3    H219936   1.608   7.899   1.526
 6687TIP3   OH219937   1.723   8.718   2.789
 6687TIP3    H119938   1.641   8.715   2.736
 6687TIP3    H219939   1.747   8.624   2.792
 6688TIP3   OH219940   0.722   7.948   2.606
 6688TIP3    H119941   0.632   7.919   2.579
 6688TIP3    H219942   0.698   8.029   2.656
 6689TIP3   OH219943   1.255   8.063   2.799
 6689TIP3    H119944   1.323   8.036   2.865
 6689TIP3    H219945   1.171   8.042   2.845
 6690TIP3   OH219946   1.500   8.482   2.724
 6690TIP3    H119947   1.450   8.476   2.809
 6690TIP3    H219948   1.466   8.564   2.685
 6691TIP3   OH219949   0.640   8.469   2.595
 6691TIP3    H119950   0.605   8.488   2.684
 6691TIP3    H219951   0.622   8.552   2.546
 6692TIP3   OH219952   1.201   8.701   2.946
 6692TIP3    H119953   1.189   8.625   3.008
 6692TIP3    H219954   1.290   8.731   2.971
 6693TIP3   OH219955   1.188   8.451   2.102
 6693TIP3    H119956   1.093   8.459   2.079
 6693TIP3    H219957   1.210   8.362   2.068
 6694TIP3   OH219958   0.466   8.483   2.844
 6694TIP3    H119959   0.471   8.534   2.926
 6694TIP3    H219960   0.454   8.393   2.879
 6695TIP3   OH219961   1.243   8.696   2.543
 6695TIP3    H119962   1.247   8.624   2.476
 6695TIP3    H219963   1.170   8.662   2.600
 6696TIP3   OH219964   0.903   8.168   2.200
 6696TIP3    H119965   0.806   8.160   2.197
 6696TIP3    H219966   0.923   8.175   2.295
 6697TIP3   OH219967   1.355   8.244   2.403
 6697TIP3    H119968   1.321   8.258   2.494
 6697TIP3    H219969   1.290   8.178   2.372
 6698TIP3   OH219970   0.959   8.500   2.281
 6698TIP3    H119971   1.004   8.415   2.273
 6698TIP3    H219972   0.945   8.505   2.377
 6699TIP3   OH219973   0.918   8.385   2.593
 6699TIP3    H119974   0.831   8.430   2.590
 6699TIP3    H219975   0.976   8.451   2.636
 6700TIP3   OH219976   0.948   8.721   3.054
 6700TIP3    H119977   0.882   8.784   3.021
 6700TIP3    H219978   1.013   8.713   2.981
 6701TIP3   OH219979   0.450   8.229   2.986
 6701TIP3    H119980   0.368   8.255   3.030
 6701TIP3    H219981   0.488   8.168   3.052
 6702TIP3   OH219982   1.280   8.302   2.663
 6702TIP3    H119983   1.363   8.334   2.701
 6702TIP3    H219984   1.264   8.219   2.712
 6703TIP3   OH219985   1.151   8.065   1.808
 6703TIP3    H119986   1.144   8.103   1.719
 6703TIP3    H219987   1.202   8.133   1.857
 6704TIP3   OH219988   1.108   8.541   2.731
 6704TIP3    H119989   1.139   8.594   2.807
 6704TIP3    H219990   1.165   8.462   2.736
 6705TIP3   OH219991   1.010   7.964   2.044
 6705TIP3    H119992   0.980   8.044   2.093
 6705TIP3    H219993   1.053   8.005   1.966
 6706TIP3   OH219994   1.767   8.449   2.717
 6706TIP3    H119995   1.669   8.444   2.727
 6706TIP3    H219996   1.776   8.411   2.629
 6707TIP3   OH219997   1.409   8.623   2.076
 6707TIP3    H119998   1.338   8.571   2.116
 6707TIP3    H219999   1.484   8.603   2.135
 6708TIP3   OH220000   0.460   7.860   2.580
 6708TIP3    H120001   0.427   7.812   2.503
 6708TIP3    H220002   0.457   7.789   2.648
 6709TIP3   OH220003   0.427   8.754   3.190
 6709TIP3    H120004   0.471   8.673   3.220
 6709TIP3    H220005   0.419   8.808   3.272
 6710TIP3   OH220006   0.746   8.584   2.829
 6710TIP3    H120007   0.678   8.643   2.865
 6710TIP3    H220008   0.758   8.616   2.738
 6711TIP3   OH220009   0.863   8.421   3.012
 6711TIP3    H120010   0.869   8.339   2.960
 6711TIP3    H220011   0.824   8.481   2.945
 6712TIP3   OH220012   0.866   8.220   2.812
 6712TIP3    H120013   0.891   8.268   2.730
 6712TIP3    H220014   0.772   8.200   2.795
 6713TIP3   OH220015   1.481   8.739   3.059
 6713TIP3    H120016   1.500   8.647   3.086
 6713TIP3    H220017   1.570   8.770   3.037
 6714TIP3   OH220018   0.723   8.559   3.226
 6714TIP3    H120019   0.667   8.479   3.238
 6714TIP3    H220020   0.773   8.536   3.145
 6715TIP3   OH220021   0.997   7.988   2.877
 6715TIP3    H120022   0.949   8.071   2.854
 6715TIP3    H220023   0.926   7.921   2.865
 6716TIP3   OH220024   1.128   8.482   3.094
 6716TIP3    H120025   1.115   8.479   3.190
 6716TIP3    H220026   1.035   8.466   3.066
 6717TIP3   OH220027   1.364   8.439   2.952
 6717TIP3    H120028   1.285   8.435   3.010
 6717TIP3    H220029   1.435   8.407   3.011
 6718TIP3   OH220030   1.598   8.386   3.103
 6718TIP3    H120031   1.606   8.290   3.122
 6718TIP3    H220032   1.587   8.426   3.192
 6719TIP3   OH220033   0.582   8.329   3.287
 6719TIP3    H120034   0.590   8.239   3.253
 6719TIP3    H220035   0.617   8.318   3.378
 6720TIP3   OH220036   1.089   7.999   3.135
 6720TIP3    H120037   1.157   7.929   3.129
 6720TIP3    H220038   1.050   7.994   3.046
 6721TIP3   OH220039   1.154   8.214   3.294
 6721TIP3    H120040   1.132   8.144   3.229
 6721TIP3    H220041   1.077   8.274   3.287
 6722TIP3   OH220042   1.475   8.614   1.814
 6722TIP3    H120043   1.494   8.519   1.819
 6722TIP3    H220044   1.461   8.636   1.909
 6723TIP3   OH220045   1.933   8.874   2.717
 6723TIP3    H120046   1.857   8.819   2.745
 6723TIP3    H220047   2.005   8.808   2.722
 6724TIP3   OH220048   1.461   8.336   1.751
 6724TIP3    H120049   1.506   8.251   1.770
 6724TIP3    H220050   1.470   8.333   1.654
 6725TIP3   OH220051   1.626   8.507   2.215
 6725TIP3    H120052   1.710   8.538   2.175
 6725TIP3    H220053   1.639   8.545   2.304
 6726TIP3   OH220054   1.703   8.639   2.447
 6726TIP3    H120055   1.626   8.670   2.499
 6726TIP3    H220056   1.750   8.725   2.432
 6727TIP3   OH220057   0.318   8.384   3.254
 6727TIP3    H120058   0.415   8.376   3.264
 6727TIP3    H220059   0.287   8.301   3.294
 6728TIP3   OH220060   2.151   8.250   3.014
 6728TIP3    H120061   2.205   8.182   2.968
 6728TIP3    H220062   2.119   8.304   2.938
 6729TIP3   OH220063   1.574   8.086   1.774
 6729TIP3    H120064   1.620   8.070   1.859
 6729TIP3    H220065   1.513   8.009   1.771
 6730TIP3   OH220066   0.278   8.073   2.573
 6730TIP3    H120067   0.338   8.001   2.597
 6730TIP3    H220068   0.338   8.150   2.578
 6731TIP3   OH220069   2.018   8.388   2.821
 6731TIP3    H120070   1.930   8.427   2.839
 6731TIP3    H220071   1.992   8.317   2.760
 6732TIP3   OH220072   1.669   8.019   1.390
 6732TIP3    H120073   1.709   7.951   1.332
 6732TIP3    H220074   1.733   8.092   1.384
 6733TIP3   OH220075   0.284   7.934   2.973
 6733TIP3    H120076   0.230   7.927   3.054
 6733TIP3    H220077   0.223   7.973   2.910
 6734TIP3   OH220078   1.915   8.151   2.696
 6734TIP3    H120079   1.824   8.146   2.663
 6734TIP3    H220080   1.945   8.058   2.684
 6735TIP3   OH220081   1.147   8.063   2.344
 6735TIP3    H120082   1.083   7.998   2.378
 6735TIP3    H220083   1.185   8.017   2.268
 6736TIP3   OH220084   1.647   7.945   2.221
 6736TIP3    H120085   1.682   7.999   2.147
 6736TIP3    H220086   1.551   7.960   2.214
 6737TIP3   OH220087   1.744   8.050   1.987
 6737TIP3    H120088   1.816   7.999   1.945
 6737TIP3    H220089   1.773   8.142   1.971
 6738TIP3   OH220090   0.812   7.802   2.213
 6738TIP3    H120091   0.862   7.855   2.149
 6738TIP3    H220092   0.840   7.842   2.297
 6739TIP3   OH220093   1.372   7.949   2.190
 6739TIP3    H120094   1.351   7.912   2.104
 6739TIP3    H220095   1.351   7.874   2.250
 6740TIP3   OH220096   1.391   7.877   1.763
 6740TIP3    H120097   1.300   7.913   1.766
 6740TIP3    H220098   1.378   7.791   1.807
 6741TIP3   OH220099   0.577   8.053   3.219
 6741TIP3    H120100   0.542   7.986   3.281
 6741TIP3    H220101   0.671   8.055   3.247
 6742TIP3   OH220102   0.823   8.051   3.341
 6742TIP3    H120103   0.910   8.030   3.303
 6742TIP3    H220104   0.813   7.981   3.408
 6743TIP3   OH220105   1.650   8.113   3.130
 6743TIP3    H120106   1.669   8.083   3.222
 6743TIP3    H220107   1.738   8.108   3.089
 6744TIP3   OH220108   1.821   8.546   1.647
 6744TIP3    H120109   1.792   8.634   1.676
 6744TIP3    H220110   1.758   8.490   1.694
 6745TIP3   OH220111   3.664   8.586   1.814
 6745TIP3    H120112   3.695   8.664   1.864
 6745TIP3    H220113   3.688   8.612   1.724
 6746TIP3   OH220114   3.067   8.763   1.839
 6746TIP3    H120115   3.107   8.678   1.866
 6746TIP3    H220116   3.028   8.738   1.753
 6747TIP3   OH220117   2.405   8.423   1.814
 6747TIP3    H120118   2.385   8.498   1.755
 6747TIP3    H220119   2.354   8.352   1.771
 6748TIP3   OH220120   3.101   8.509   1.444
 6748TIP3    H120121   3.176   8.499   1.506
 6748TIP3    H220122   3.143   8.559   1.371
 6749TIP3   OH220123   2.028   8.610   1.929
 6749TIP3    H120124   2.114   8.600   1.973
 6749TIP3    H220125   2.048   8.572   1.842
 6750TIP3   OH220126   2.497   8.829   1.687
 6750TIP3    H120127   2.577   8.790   1.726
 6750TIP3    H220128   2.441   8.751   1.671
 6751TIP3   OH220129   3.750   8.784   1.985
 6751TIP3    H120130   3.671   8.835   1.958
 6751TIP3    H220131   3.750   8.803   2.080
 6752TIP3   OH220132   2.400   8.408   2.251
 6752TIP3    H120133   2.339   8.442   2.182
 6752TIP3    H220134   2.348   8.427   2.332
 6753TIP3   OH220135   3.317   8.516   1.611
 6753TIP3    H120136   3.290   8.482   1.697
 6753TIP3    H220137   3.361   8.600   1.637
 6754TIP3   OH220138   2.270   8.516   2.034
 6754TIP3    H120139   2.326   8.594   2.051
 6754TIP3    H220140   2.321   8.475   1.960
 6755TIP3   OH220141   3.461   8.475   1.974
 6755TIP3    H120142   3.377   8.521   1.958
 6755TIP3    H220143   3.520   8.515   1.907
 6756TIP3   OH220144   2.757   8.129   1.963
 6756TIP3    H120145   2.744   8.034   1.982
 6756TIP3    H220146   2.679   8.167   2.010
 6757TIP3   OH220147   2.637   8.695   0.977
 6757TIP3    H120148   2.729   8.700   1.006
 6757TIP3    H220149   2.642   8.641   0.896
 6758TIP3   OH220150   3.289   8.982   2.074
 6758TIP3    H120151   3.301   9.058   2.131
 6758TIP3    H220152   3.192   8.989   2.058
 6759TIP3   OH220153   2.519   8.204   2.092
 6759TIP3    H120154   2.428   8.173   2.068
 6759TIP3    H220155   2.496   8.287   2.137
 6760TIP3   OH220156   3.052   8.317   2.285
 6760TIP3    H120157   3.120   8.294   2.351
 6760TIP3    H220158   2.968   8.299   2.333
 6761TIP3   OH220159   3.296   8.731   2.202
 6761TIP3    H120160   3.254   8.738   2.291
 6761TIP3    H220161   3.288   8.823   2.168
 6762TIP3   OH220162   2.663   8.254   1.060
 6762TIP3    H120163   2.636   8.253   1.154
 6762TIP3    H220164   2.626   8.168   1.032
 6763TIP3   OH220165   2.437   8.723   2.090
 6763TIP3    H120166   2.396   8.734   2.178
 6763TIP3    H220167   2.423   8.810   2.050
 6764TIP3   OH220168   2.333   8.606   1.630
 6764TIP3    H120169   2.240   8.580   1.643
 6764TIP3    H220170   2.350   8.566   1.542
 6765TIP3   OH220171   2.835   8.692   1.353
 6765TIP3    H120172   2.753   8.743   1.332
 6765TIP3    H220173   2.873   8.676   1.264
 6766TIP3   OH220174   2.999   8.967   2.440
 6766TIP3    H120175   2.997   8.888   2.497
 6766TIP3    H220176   3.096   8.988   2.441
 6767TIP3   OH220177   2.967   8.705   1.594
 6767TIP3    H120178   2.911   8.724   1.516
 6767TIP3    H220179   3.011   8.625   1.558
 6768TIP3   OH220180   2.276   8.741   2.333
 6768TIP3    H120181   2.251   8.793   2.411
 6768TIP3    H220182   2.253   8.651   2.364
 6769TIP3   OH220183   2.307   8.223   1.018
 6769TIP3    H120184   2.309   8.221   1.116
 6769TIP3    H220185   2.212   8.206   1.001
 6770TIP3   OH220186   1.860   8.277   1.891
 6770TIP3    H120187   1.934   8.304   1.950
 6770TIP3    H220188   1.905   8.231   1.819
 6771TIP3   OH220189   1.825   8.263   1.414
 6771TIP3    H120190   1.878   8.296   1.340
 6771TIP3    H220191   1.779   8.343   1.442
 6772TIP3   OH220192   3.014   8.957   2.014
 6772TIP3    H120193   3.033   8.880   1.956
 6772TIP3    H220194   2.962   8.914   2.084
 6773TIP3   OH220195   2.660   8.417   1.685
 6773TIP3    H120196   2.576   8.422   1.736
 6773TIP3    H220197   2.724   8.442   1.754
 6774TIP3   OH220198   2.092   8.487   1.685
 6774TIP3    H120199   1.997   8.484   1.662
 6774TIP3    H220200   2.121   8.394   1.673
 6775TIP3   OH220201   2.377   8.472   1.395
 6775TIP3    H120202   2.469   8.497   1.375
 6775TIP3    H220203   2.327   8.512   1.320
 6776TIP3   OH220204   3.145   8.500   1.880
 6776TIP3    H120205   3.122   8.514   1.975
 6776TIP3    H220206   3.072   8.441   1.854
 6777TIP3   OH220207   2.222   8.516   1.178
 6777TIP3    H120208   2.211   8.429   1.140
 6777TIP3    H220209   2.267   8.563   1.104
 6778TIP3   OH220210   2.737   8.728   1.779
 6778TIP3    H120211   2.823   8.718   1.736
 6778TIP3    H220212   2.758   8.723   1.873
 6779TIP3   OH220213   2.262   8.243   1.663
 6779TIP3    H120214   2.229   8.164   1.710
 6779TIP3    H220215   2.321   8.205   1.597
 6780TIP3   OH220216   2.719   8.643   2.083
 6780TIP3    H120217   2.632   8.687   2.080
 6780TIP3    H220218   2.776   8.709   2.127
 6781TIP3   OH220219   2.914   8.364   1.030
 6781TIP3    H120220   2.818   8.342   1.042
 6781TIP3    H220221   2.918   8.459   1.051
 6782TIP3   OH220222   2.982   8.624   1.114
 6782TIP3    H120223   3.073   8.609   1.146
 6782TIP3    H220224   2.991   8.709   1.069
 6783TIP3   OH220225   2.738   8.967   2.542
 6783TIP3    H120226   2.689   9.047   2.517
 6783TIP3    H220227   2.811   8.966   2.478
 6784TIP3   OH220228   3.420   8.681   0.979
 6784TIP3    H120229   3.360   8.644   0.910
 6784TIP3    H220230   3.430   8.771   0.946
 6785TIP3   OH220231   2.237   8.487   2.465
 6785TIP3    H120232   2.140   8.490   2.479
 6785TIP3    H220233   2.265   8.428   2.537
 6786TIP3   OH220234   3.082   8.554   2.140
 6786TIP3    H120235   3.158   8.599   2.183
 6786TIP3    H220236   3.068   8.476   2.199
 6787TIP3   OH220237   2.941   8.317   1.317
 6787TIP3    H120238   2.944   8.330   1.220
 6787TIP3    H220239   2.992   8.394   1.351
 6788TIP3   OH220240   2.657   8.484   1.416
 6788TIP3    H120241   2.724   8.553   1.402
 6788TIP3    H220242   2.656   8.476   1.514
 6789TIP3   OH220243   2.910   8.800   2.221
 6789TIP3    H120244   2.938   8.856   2.296
 6789TIP3    H220245   2.970   8.724   2.230
 6790TIP3   OH220246   2.793   8.212   1.523
 6790TIP3    H120247   2.776   8.291   1.578
 6790TIP3    H220248   2.847   8.253   1.450
 6791TIP3   OH220249   2.307   8.217   1.298
 6791TIP3    H120250   2.310   8.303   1.344
 6791TIP3    H220251   2.401   8.191   1.309
 6792TIP3   OH220252   3.566   8.693   2.197
 6792TIP3    H120253   3.472   8.705   2.220
 6792TIP3    H220254   3.557   8.666   2.105
 6793TIP3   OH220255   3.200   8.880   1.568
 6793TIP3    H120256   3.129   8.835   1.616
 6793TIP3    H220257   3.275   8.866   1.628
 6794TIP3   OH220258   2.256   8.122   2.067
 6794TIP3    H120259   2.222   8.089   1.981
 6794TIP3    H220260   2.244   8.044   2.125
 6795TIP3   OH220261   2.235   9.009   2.673
 6795TIP3    H120262   2.278   8.931   2.710
 6795TIP3    H220263   2.215   9.063   2.753
 6796TIP3   OH220264   2.555   8.846   2.317
 6796TIP3    H120265   2.470   8.881   2.347
 6796TIP3    H220266   2.558   8.872   2.224
 6797TIP3   OH220267   2.370   8.610   0.969
 6797TIP3    H120268   2.361   8.628   0.875
 6797TIP3    H220269   2.459   8.646   0.988
 6798TIP3   OH220270   2.658   8.674   2.501
 6798TIP3    H120271   2.664   8.593   2.446
 6798TIP3    H220272   2.627   8.739   2.434
 6799TIP3   OH220273   2.661   8.475   2.298
 6799TIP3    H120274   2.687   8.524   2.217
 6799TIP3    H220275   2.566   8.458   2.280
 6800TIP3   OH220276   2.526   8.809   2.717
 6800TIP3    H120277   2.463   8.734   2.723
 6800TIP3    H220278   2.568   8.794   2.631
 6801TIP3   OH220279   2.792   8.244   2.365
 6801TIP3    H120280   2.745   8.327   2.341
 6801TIP3    H220281   2.721   8.178   2.353
 6802TIP3   OH220282   2.925   8.739   2.578
 6802TIP3    H120283   2.915   8.739   2.675
 6802TIP3    H220284   2.832   8.724   2.552
 6803TIP3   OH220285   3.157   8.690   2.432
 6803TIP3    H120286   3.083   8.691   2.496
 6803TIP3    H220287   3.235   8.675   2.491
 6804TIP3   OH220288   3.387   8.639   2.589
 6804TIP3    H120289   3.398   8.544   2.610
 6804TIP3    H220290   3.383   8.682   2.677
 6805TIP3   OH220291   2.368   8.587   2.770
 6805TIP3    H120292   2.377   8.497   2.734
 6805TIP3    H220293   2.403   8.574   2.861
 6806TIP3   OH220294   2.886   8.255   2.622
 6806TIP3    H120295   2.955   8.185   2.615
 6806TIP3    H220296   2.847   8.250   2.533
 6807TIP3   OH220297   2.943   8.466   2.788
 6807TIP3    H120298   2.928   8.398   2.719
 6807TIP3    H220299   2.870   8.529   2.771
 6808TIP3   OH220300   3.258   8.611   0.771
 6808TIP3    H120301   3.218   8.621   0.683
 6808TIP3    H220302   3.237   8.516   0.784
 6809TIP3   OH220303   3.295   8.860   1.317
 6809TIP3    H120304   3.295   8.766   1.337
 6809TIP3    H220305   3.270   8.894   1.407
 6810TIP3   OH220306   3.709   9.111   2.195
 6810TIP3    H120307   3.657   9.055   2.253
 6810TIP3    H220308   3.795   9.065   2.199
 6811TIP3   OH220309   3.198   8.348   0.780
 6811TIP3    H120310   3.278   8.309   0.821
 6811TIP3    H220311   3.131   8.278   0.790
 6812TIP3   OH220312   3.253   8.588   1.215
 6812TIP3    H120313   3.318   8.526   1.250
 6812TIP3    H220314   3.303   8.630   1.142
 6813TIP3   OH220315   3.420   8.763   1.700
 6813TIP3    H120316   3.505   8.794   1.662
 6813TIP3    H220317   3.432   8.801   1.790
 6814TIP3   OH220318   3.502   8.896   1.928
 6814TIP3    H120319   3.423   8.923   1.980
 6814TIP3    H220320   3.546   8.983   1.915
 6815TIP3   OH220321   2.101   8.649   2.747
 6815TIP3    H120322   2.198   8.640   2.744
 6815TIP3    H220323   2.077   8.563   2.787
 6816TIP3   OH220324   3.941   8.504   2.501
 6816TIP3    H120325   3.999   8.437   2.457
 6816TIP3    H220326   3.915   8.560   2.425
 6817TIP3   OH220327   2.066   8.324   2.070
 6817TIP3    H120328   2.133   8.255   2.084
 6817TIP3    H220329   2.122   8.404   2.066
 6818TIP3   OH220330   1.873   8.611   2.154
 6818TIP3    H120331   1.919   8.604   2.068
 6818TIP3    H220332   1.890   8.704   2.176
 6819TIP3   OH220333   3.816   8.649   2.308
 6819TIP3    H120334   3.728   8.688   2.328
 6819TIP3    H220335   3.786   8.578   2.247
 6820TIP3   OH220336   3.451   8.288   0.882
 6820TIP3    H120337   3.489   8.209   0.839
 6820TIP3    H220338   3.524   8.352   0.876
 6821TIP3   OH220339   1.850   8.111   1.642
 6821TIP3    H120340   1.758   8.106   1.675
 6821TIP3    H220341   1.841   8.169   1.564
 6822TIP3   OH220342   2.075   8.188   2.462
 6822TIP3    H120343   2.024   8.183   2.545
 6822TIP3    H220344   2.009   8.228   2.402
 6823TIP3   OH220345   3.715   8.406   2.184
 6823TIP3    H120346   3.623   8.405   2.153
 6823TIP3    H220347   3.742   8.313   2.170
 6824TIP3   OH220348   2.922   8.322   1.808
 6824TIP3    H120349   2.868   8.260   1.861
 6824TIP3    H220350   2.984   8.263   1.763
 6825TIP3   OH220351   3.439   8.186   1.690
 6825TIP3    H120352   3.474   8.263   1.642
 6825TIP3    H220353   3.345   8.212   1.700
 6826TIP3   OH220354   3.513   8.297   1.433
 6826TIP3    H120355   3.601   8.255   1.424
 6826TIP3    H220356   3.541   8.392   1.435
 6827TIP3   OH220357   2.165   8.030   1.817
 6827TIP3    H120358   2.074   7.995   1.820
 6827TIP3    H220359   2.216   7.946   1.816
 6828TIP3   OH220360   1.953   7.896   1.469
 6828TIP3    H120361   1.984   7.955   1.397
 6828TIP3    H220362   1.920   7.961   1.534
 6829TIP3   OH220363   2.608   8.064   1.698
 6829TIP3    H120364   2.668   8.117   1.643
 6829TIP3    H220365   2.625   8.100   1.786
 6830TIP3   OH220366   3.164   8.198   1.670
 6830TIP3    H120367   3.104   8.174   1.599
 6830TIP3    H220368   3.148   8.126   1.735
 6831TIP3   OH220369   2.070   8.063   1.244
 6831TIP3    H120370   2.112   7.998   1.184
 6831TIP3    H220371   2.149   8.111   1.278
 6832TIP3   OH220372   2.585   8.235   1.326
 6832TIP3    H120373   2.641   8.188   1.390
 6832TIP3    H220374   2.603   8.327   1.354
 6833TIP3   OH220375   2.373   8.311   2.711
 6833TIP3    H120376   2.340   8.240   2.769
 6833TIP3    H220377   2.467   8.313   2.737
 6834TIP3   OH220378   2.622   8.312   2.831
 6834TIP3    H120379   2.705   8.285   2.787
 6834TIP3    H220380   2.610   8.238   2.895
 6835TIP3   OH220381   3.445   8.367   2.618
 6835TIP3    H120382   3.468   8.337   2.708
 6835TIP3    H220383   3.533   8.367   2.574
 6836TIP3   OH220384   3.628   8.815   1.129
 6836TIP3    H120385   3.594   8.890   1.180
 6836TIP3    H220386   3.548   8.761   1.116
 6837TIP3   OH220387   5.459   8.840   1.300
 6837TIP3    H120388   5.492   8.920   1.345
 6837TIP3    H220389   5.487   8.858   1.208
 6838TIP3   OH220390   4.859   9.022   1.331
 6838TIP3    H120391   4.903   8.938   1.354
 6838TIP3    H220392   4.824   9.001   1.242
 6839TIP3   OH220393   4.198   8.680   1.302
 6839TIP3    H120394   4.183   8.755   1.240
 6839TIP3    H220395   4.150   8.609   1.257
 6840TIP3   OH220396   4.893   8.769   0.924
 6840TIP3    H120397   4.967   8.754   0.988
 6840TIP3    H220398   4.944   8.809   0.851
 6841TIP3   OH220399   3.824   8.867   1.416
 6841TIP3    H120400   3.910   8.857   1.460
 6841TIP3    H220401   3.845   8.830   1.328
 6842TIP3   OH220402   4.287   9.085   1.183
 6842TIP3    H120403   4.372   9.049   1.216
 6842TIP3    H220404   4.237   9.004   1.160
 6843TIP3   OH220405   5.545   9.038   1.474
 6843TIP3    H120406   5.466   9.088   1.445
 6843TIP3    H220407   5.556   9.073   1.564
 6844TIP3   OH220408   4.197   8.665   1.737
 6844TIP3    H120409   4.135   8.698   1.670
 6844TIP3    H220410   4.145   8.681   1.819
 6845TIP3   OH220411   5.102   8.776   1.097
 6845TIP3    H120412   5.101   8.725   1.179
 6845TIP3    H220413   5.155   8.854   1.121
 6846TIP3   OH220414   4.064   8.773   1.521
 6846TIP3    H120415   4.122   8.850   1.539
 6846TIP3    H220416   4.115   8.732   1.447
 6847TIP3   OH220417   5.256   8.741   1.468
 6847TIP3    H120418   5.169   8.771   1.437
 6847TIP3    H220419   5.316   8.773   1.397
 6848TIP3   OH220420   4.552   8.383   1.448
 6848TIP3    H120421   4.542   8.288   1.470
 6848TIP3    H220422   4.475   8.421   1.496
 6849TIP3   OH220423   5.091   9.266   1.579
 6849TIP3    H120424   5.105   9.349   1.531
 6849TIP3    H220425   4.999   9.243   1.549
 6850TIP3   OH220426   5.184   8.339   0.562
 6850TIP3    H120427   5.099   8.340   0.612
 6850TIP3    H220428   5.192   8.433   0.539
 6851TIP3   OH220429   5.314   9.231   1.764
 6851TIP3    H120430   5.234   9.226   1.709
 6851TIP3    H220431   5.340   9.137   1.766
 6852TIP3   OH220432   4.313   8.462   1.577
 6852TIP3    H120433   4.223   8.432   1.555
 6852TIP3    H220434   4.291   8.544   1.625
 6853TIP3   OH220435   4.848   8.577   1.774
 6853TIP3    H120436   4.916   8.548   1.837
 6853TIP3    H220437   4.764   8.554   1.820
 6854TIP3   OH220438   5.088   8.993   1.695
 6854TIP3    H120439   5.041   8.989   1.782
 6854TIP3    H220440   5.059   9.077   1.659
 6855TIP3   OH220441   4.476   8.496   0.545
 6855TIP3    H120442   4.443   8.506   0.635
 6855TIP3    H220443   4.434   8.413   0.518
 6856TIP3   OH220444   4.234   8.979   1.578
 6856TIP3    H120445   4.191   8.990   1.665
 6856TIP3    H220446   4.222   9.066   1.536
 6857TIP3   OH220447   4.131   8.861   1.112
 6857TIP3    H120448   4.038   8.835   1.128
 6857TIP3    H220449   4.145   8.823   1.023
 6858TIP3   OH220450   4.624   8.953   0.837
 6858TIP3    H120451   4.542   9.001   0.814
 6858TIP3    H220452   4.668   8.947   0.751
 6859TIP3   OH220453   4.795   9.220   1.926
 6859TIP3    H120454   4.779   9.143   1.985
 6859TIP3    H220455   4.888   9.239   1.946
 6860TIP3   OH220456   4.768   8.963   1.078
 6860TIP3    H120457   4.709   8.980   1.001
 6860TIP3    H220458   4.814   8.884   1.041
 6861TIP3   OH220459   4.074   8.999   1.823
 6861TIP3    H120460   4.047   9.047   1.902
 6861TIP3    H220461   4.050   8.908   1.849
 6862TIP3   OH220462   4.105   8.484   0.516
 6862TIP3    H120463   4.126   8.483   0.612
 6862TIP3    H220464   4.011   8.505   0.520
 6863TIP3   OH220465   3.656   8.519   1.380
 6863TIP3    H120466   3.715   8.560   1.448
 6863TIP3    H220467   3.721   8.495   1.312
 6864TIP3   OH220468   3.639   8.509   0.905
 6864TIP3    H120469   3.687   8.547   0.828
 6864TIP3    H220470   3.579   8.582   0.928
 6865TIP3   OH220471   4.836   9.210   1.521
 6865TIP3    H120472   4.837   9.143   1.449
 6865TIP3    H220473   4.767   9.171   1.579
 6866TIP3   OH220474   4.455   8.680   1.172
 6866TIP3    H120475   4.375   8.681   1.228
 6866TIP3    H220476   4.526   8.687   1.238
 6867TIP3   OH220477   3.892   8.744   1.175
 6867TIP3    H120478   3.797   8.745   1.148
 6867TIP3    H220479   3.920   8.653   1.154
 6868TIP3   OH220480   4.161   8.733   0.870
 6868TIP3    H120481   4.256   8.752   0.854
 6868TIP3    H220482   4.117   8.769   0.790
 6869TIP3   OH220483   4.947   8.762   1.379
 6869TIP3    H120484   4.909   8.771   1.469
 6869TIP3    H220485   4.885   8.698   1.339
 6870TIP3   OH220486   3.996   8.760   0.639
 6870TIP3    H120487   3.915   8.726   0.600
 6870TIP3    H220488   4.045   8.789   0.561
 6871TIP3   OH220489   4.534   8.993   1.264
 6871TIP3    H120490   4.617   8.972   1.219
 6871TIP3    H220491   4.554   8.974   1.357
 6872TIP3   OH220492   4.056   8.501   1.146
 6872TIP3    H120493   4.035   8.419   1.194
 6872TIP3    H220494   4.119   8.470   1.079
 6873TIP3   OH220495   4.514   8.900   1.566
 6873TIP3    H120496   4.426   8.942   1.564
 6873TIP3    H220497   4.570   8.966   1.612
 6874TIP3   OH220498   4.536   9.229   2.030
 6874TIP3    H120499   4.475   9.298   1.999
 6874TIP3    H220500   4.601   9.223   1.958
 6875TIP3   OH220501   4.034   8.743   1.951
 6875TIP3    H120502   3.938   8.748   1.969
 6875TIP3    H220503   4.065   8.687   2.024
 6876TIP3   OH220504   4.868   8.817   1.639
 6876TIP3    H120505   4.955   8.847   1.670
 6876TIP3    H220506   4.856   8.733   1.689
 6877TIP3   OH220507   4.749   8.574   0.789
 6877TIP3    H120508   4.726   8.614   0.704
 6877TIP3    H220509   4.798   8.648   0.832
 6878TIP3   OH220510   4.443   8.743   0.902
 6878TIP3    H120511   4.515   8.807   0.886
 6878TIP3    H220512   4.449   8.733   1.000
 6879TIP3   OH220513   4.704   9.056   1.706
 6879TIP3    H120514   4.734   9.103   1.786
 6879TIP3    H220515   4.758   8.974   1.709
 6880TIP3   OH220516   4.591   8.470   1.000
 6880TIP3    H120517   4.586   8.543   1.064
 6880TIP3    H220518   4.650   8.509   0.931
 6881TIP3   OH220519   4.101   8.467   0.795
 6881TIP3    H120520   4.101   8.559   0.828
 6881TIP3    H220521   4.196   8.446   0.805
 6882TIP3   OH220522   5.357   8.965   1.692
 6882TIP3    H120523   5.259   8.956   1.698
 6882TIP3    H220524   5.372   8.923   1.606
 6883TIP3   OH220525   4.989   9.145   1.071
 6883TIP3    H120526   4.923   9.077   1.093
 6883TIP3    H220527   5.067   9.116   1.123
 6884TIP3   OH220528   3.665   8.669   0.676
 6884TIP3    H120529   3.660   8.765   0.684
 6884TIP3    H220530   3.577   8.642   0.648
 6885TIP3   OH220531   4.048   8.380   1.557
 6885TIP3    H120532   4.020   8.344   1.471
 6885TIP3    H220533   4.042   8.302   1.616
 6886TIP3   OH220534   4.028   9.264   2.162
 6886TIP3    H120535   4.074   9.186   2.196
 6886TIP3    H220536   4.013   9.318   2.242
 6887TIP3   OH220537   4.352   9.108   1.803
 6887TIP3    H120538   4.261   9.130   1.831
 6887TIP3    H220539   4.352   9.129   1.708
 6888TIP3   OH220540   4.455   8.932   1.987
 6888TIP3    H120541   4.460   8.850   1.935
 6888TIP3    H220542   4.423   8.995   1.919
 6889TIP3   OH220543   4.457   8.733   1.785
 6889TIP3    H120544   4.483   8.780   1.703
 6889TIP3    H220545   4.362   8.713   1.767
 6890TIP3   OH220546   5.075   9.250   2.035
 6890TIP3    H120547   5.092   9.157   2.056
 6890TIP3    H220548   5.164   9.279   2.008
 6891TIP3   OH220549   4.317   9.070   2.202
 6891TIP3    H120550   4.258   8.992   2.212
 6891TIP3    H220551   4.366   9.047   2.120
 6892TIP3   OH220552   4.590   8.501   1.849
 6892TIP3    H120553   4.540   8.583   1.827
 6892TIP3    H220554   4.520   8.433   1.839
 6893TIP3   OH220555   4.718   8.997   2.067
 6893TIP3    H120556   4.706   8.989   2.163
 6893TIP3    H220557   4.626   8.979   2.039
 6894TIP3   OH220558   4.958   8.962   1.928
 6894TIP3    H120559   4.879   8.950   1.985
 6894TIP3    H220560   5.029   8.924   1.984
 6895TIP3   OH220561   5.185   8.899   2.076
 6895TIP3    H120562   5.197   8.803   2.093
 6895TIP3    H220563   5.180   8.936   2.166
 6896TIP3   OH220564   4.168   8.844   2.259
 6896TIP3    H120565   4.175   8.753   2.225
 6896TIP3    H220566   4.205   8.833   2.349
 6897TIP3   OH220567   4.684   8.515   2.107
 6897TIP3    H120568   4.750   8.443   2.103
 6897TIP3    H220569   4.643   8.506   2.018
 6898TIP3   OH220570   4.749   8.729   2.266
 6898TIP3    H120571   4.727   8.657   2.202
 6898TIP3    H220572   4.670   8.787   2.260
 6899TIP3   OH220573   5.110   9.120   0.827
 6899TIP3    H120574   5.108   9.023   0.827
 6899TIP3    H220575   5.077   9.141   0.917
 6900TIP3   OH220576   5.522   9.391   1.694
 6900TIP3    H120577   5.449   9.330   1.719
 6900TIP3    H220578   5.598   9.328   1.696
 6901TIP3   OH220579   5.068   8.856   0.730
 6901TIP3    H120580   5.101   8.764   0.739
 6901TIP3    H220581   5.111   8.881   0.647
 6902TIP3   OH220582   5.215   9.026   1.187
 6902TIP3    H120583   5.299   9.054   1.144
 6902TIP3    H220584   5.233   9.060   1.276
 6903TIP3   OH220585   5.293   9.152   1.420
 6903TIP3    H120586   5.219   9.183   1.474
 6903TIP3    H220587   5.343   9.236   1.405
 6904TIP3   OH220588   3.901   8.908   2.234
 6904TIP3    H120589   3.998   8.897   2.234
 6904TIP3    H220590   3.875   8.823   2.274
 6905TIP3   OH220591   5.735   8.759   1.986
 6905TIP3    H120592   5.795   8.694   1.945
 6905TIP3    H220593   5.712   8.817   1.910
 6906TIP3   OH220594   5.146   8.598   0.748
 6906TIP3    H120595   5.208   8.585   0.823
 6906TIP3    H220596   5.092   8.517   0.754
 6907TIP3   OH220597   3.857   8.583   1.557
 6907TIP3    H120598   3.924   8.513   1.573
 6907TIP3    H220599   3.915   8.661   1.552
 6908TIP3   OH220600   3.664   8.866   1.636
 6908TIP3    H120601   3.715   8.864   1.552
 6908TIP3    H220602   3.686   8.954   1.669
 6909TIP3   OH220603   5.610   8.904   1.791
 6909TIP3    H120604   5.520   8.938   1.805
 6909TIP3    H220605   5.590   8.829   1.733
 6910TIP3   OH220606   3.653   8.354   1.124
 6910TIP3    H120607   3.570   8.388   1.158
 6910TIP3    H220608   3.667   8.413   1.047
 6911TIP3   OH220609   3.870   8.446   1.949
 6911TIP3    H120610   3.822   8.441   2.034
 6911TIP3    H220611   3.802   8.484   1.891
 6912TIP3   OH220612   5.507   8.663   1.671
 6912TIP3    H120613   5.416   8.653   1.638
 6912TIP3    H220614   5.541   8.571   1.659
 6913TIP3   OH220615   4.712   8.578   1.286
 6913TIP3    H120616   4.669   8.509   1.339
 6913TIP3    H220617   4.786   8.529   1.244
 6914TIP3   OH220618   5.235   8.459   1.194
 6914TIP3    H120619   5.271   8.512   1.120
 6914TIP3    H220620   5.139   8.478   1.188
 6915TIP3   OH220621   5.327   8.564   0.958
 6915TIP3    H120622   5.400   8.511   0.920
 6915TIP3    H220623   5.362   8.655   0.942
 6916TIP3   OH220624   3.962   8.285   1.307
 6916TIP3    H120625   3.874   8.251   1.291
 6916TIP3    H220626   4.015   8.202   1.307
 6917TIP3   OH220627   3.749   8.152   0.952
 6917TIP3    H120628   3.783   8.208   0.879
 6917TIP3    H220629   3.718   8.220   1.015
 6918TIP3   OH220630   4.400   8.324   1.188
 6918TIP3    H120631   4.460   8.370   1.128
 6918TIP3    H220632   4.431   8.355   1.274
 6919TIP3   OH220633   4.951   8.466   1.171
 6919TIP3    H120634   4.951   8.428   1.082
 6919TIP3    H220635   4.938   8.385   1.226
 6920TIP3   OH220636   4.975   8.383   0.738
 6920TIP3    H120637   4.887   8.423   0.741
 6920TIP3    H220638   4.960   8.298   0.785
 6921TIP3   OH220639   3.865   8.316   0.725
 6921TIP3    H120640   3.910   8.251   0.666
 6921TIP3    H220641   3.942   8.368   0.757
 6922TIP3   OH220642   4.376   8.492   0.815
 6922TIP3    H120643   4.439   8.445   0.873
 6922TIP3    H220644   4.397   8.584   0.841
 6923TIP3   OH220645   4.169   8.570   2.197
 6923TIP3    H120646   4.136   8.498   2.254
 6923TIP3    H220647   4.264   8.570   2.223
 6924TIP3   OH220648   4.418   8.566   2.315
 6924TIP3    H120649   4.502   8.538   2.276
 6924TIP3    H220650   4.404   8.496   2.383
 6925TIP3   OH220651   5.243   8.628   2.104
 6925TIP3    H120652   5.262   8.596   2.195
 6925TIP3    H220653   5.331   8.622   2.061
 6926TIP3   OH220654   5.620   9.125   0.886
 6926TIP3    H120655   5.702   9.116   0.937
 6926TIP3    H220656   5.639   9.067   0.811
 6927TIP3   OH220657   5.990   8.929   1.224
 6927TIP3    H120658   5.930   8.955   1.152
 6927TIP3    H220659   5.935   8.948   1.303
 6928TIP3   OH220660   5.861   9.027   0.994
 6928TIP3    H120661   5.917   9.104   1.023
 6928TIP3    H220662   5.900   9.015   0.904
 6929TIP3   OH220663   6.096   8.708   1.076
 6929TIP3    H120664   6.003   8.687   1.055
 6929TIP3    H220665   6.088   8.799   1.108
 6930TIP3   OH220666   6.649   8.848   1.262
 6930TIP3    H120667   6.711   8.804   1.323
 6930TIP3    H220668   6.563   8.809   1.288
 6931TIP3   OH220669   6.901   9.267   1.185
 6931TIP3    H120670   6.853   9.253   1.270
 6931TIP3    H220671   6.840   9.326   1.139
 6932TIP3   OH220672   6.013   9.242   1.053
 6932TIP3    H120673   6.007   9.250   1.150
 6932TIP3    H220674   6.051   9.327   1.029
 6933TIP3   OH220675   6.591   9.482   1.418
 6933TIP3    H120676   6.575   9.401   1.471
 6933TIP3    H220677   6.687   9.491   1.429
 6934TIP3   OH220678   5.844   9.260   1.312
 6934TIP3    H120679   5.867   9.300   1.396
 6934TIP3    H220680   5.833   9.167   1.338
 6935TIP3   OH220681   5.462   8.783   0.870
 6935TIP3    H120682   5.526   8.817   0.937
 6935TIP3    H220683   5.520   8.742   0.805
 6936TIP3   OH220684   6.305   9.148   1.076
 6936TIP3    H120685   6.231   9.198   1.039
 6936TIP3    H220686   6.369   9.217   1.099
 6937TIP3   OH220687   6.321   9.481   1.511
 6937TIP3    H120688   6.290   9.571   1.494
 6937TIP3    H220689   6.398   9.472   1.452
 6938TIP3   OH220690   5.830   9.004   1.440
 6938TIP3    H120691   5.733   9.002   1.453
 6938TIP3    H220692   5.860   8.942   1.509
 6939TIP3   OH220693   6.657   9.098   1.144
 6939TIP3    H120694   6.752   9.101   1.155
 6939TIP3    H220695   6.637   9.007   1.175
 6940TIP3   OH220696   6.499   9.316   1.195
 6940TIP3    H120697   6.541   9.354   1.273
 6940TIP3    H220698   6.551   9.234   1.181
 6941TIP3   OH220699   7.170   9.201   1.155
 6941TIP3    H120700   7.077   9.225   1.179
 6941TIP3    H220701   7.172   9.223   1.061
 6942TIP3   OH220702   5.832   8.637   1.048
 6942TIP3    H120703   5.806   8.602   0.959
 6942TIP3    H220704   5.830   8.556   1.103
 6943TIP3   OH220705   5.825   9.521   1.648
 6943TIP3    H120706   5.876   9.445   1.678
 6943TIP3    H220707   5.811   9.574   1.730
 6944TIP3   OH220708   6.129   9.349   1.283
 6944TIP3    H120709   6.062   9.411   1.315
 6944TIP3    H220710   6.165   9.393   1.204
 6945TIP3   OH220711   6.249   9.189   1.474
 6945TIP3    H120712   6.257   9.106   1.423
 6945TIP3    H220713   6.212   9.248   1.404
 6946TIP3   OH220714   6.251   8.984   1.284
 6946TIP3    H120715   6.280   9.035   1.205
 6946TIP3    H220716   6.157   8.966   1.261
 6947TIP3   OH220717   6.878   9.508   1.529
 6947TIP3    H120718   6.887   9.412   1.539
 6947TIP3    H220719   6.964   9.528   1.489
 6948TIP3   OH220720   6.109   9.328   1.689
 6948TIP3    H120721   6.054   9.248   1.697
 6948TIP3    H220722   6.160   9.309   1.607
 6949TIP3   OH220723   6.390   8.755   1.337
 6949TIP3    H120724   6.342   8.838   1.314
 6949TIP3    H220725   6.320   8.689   1.321
 6950TIP3   OH220726   6.512   9.258   1.552
 6950TIP3    H120727   6.501   9.246   1.648
 6950TIP3    H220728   6.420   9.236   1.523
 6951TIP3   OH220729   6.761   9.232   1.417
 6951TIP3    H120730   6.679   9.206   1.463
 6951TIP3    H220731   6.830   9.187   1.470
 6952TIP3   OH220732   6.975   9.152   1.567
 6952TIP3    H120733   6.990   9.056   1.583
 6952TIP3    H220734   6.977   9.190   1.657
 6953TIP3   OH220735   5.961   9.102   1.747
 6953TIP3    H120736   5.971   9.012   1.710
 6953TIP3    H220737   6.001   9.088   1.836
 6954TIP3   OH220738   6.476   8.769   1.597
 6954TIP3    H120739   6.545   8.699   1.590
 6954TIP3    H220740   6.440   8.766   1.506
 6955TIP3   OH220741   6.544   8.984   1.753
 6955TIP3    H120742   6.523   8.913   1.689
 6955TIP3    H220743   6.466   9.043   1.746
 6956TIP3   OH220744   5.693   9.166   1.723
 6956TIP3    H120745   5.791   9.155   1.719
 6956TIP3    H220746   5.670   9.078   1.761
 6957TIP3   OH220747   7.517   9.024   1.456
 6957TIP3    H120748   7.569   8.941   1.443
 6957TIP3    H220749   7.484   9.041   1.367
 6958TIP3   OH220750   5.656   8.846   1.054
 6958TIP3    H120751   5.716   8.769   1.062
 6958TIP3    H220752   5.722   8.917   1.039
 6959TIP3   OH220753   5.463   9.125   1.121
 6959TIP3    H120754   5.510   9.116   1.036
 6959TIP3    H220755   5.492   9.213   1.149
 6960TIP3   OH220756   5.667   8.706   1.439
 6960TIP3    H120757   5.614   8.698   1.520
 6960TIP3    H220758   5.600   8.740   1.376
 6961TIP3   OH220759   7.320   8.916   1.171
 6961TIP3    H120760   7.231   8.915   1.135
 6961TIP3    H220761   7.353   8.827   1.145
 6962TIP3   OH220762   5.753   8.539   0.805
 6962TIP3    H120763   5.663   8.502   0.794
 6962TIP3    H220764   5.807   8.460   0.789
 6963TIP3   OH220765   5.964   8.825   1.685
 6963TIP3    H120766   5.934   8.753   1.743
 6963TIP3    H220767   6.059   8.827   1.709
 6964TIP3   OH220768   6.214   8.823   1.802
 6964TIP3    H120769   6.297   8.799   1.759
 6964TIP3    H220770   6.204   8.751   1.868
 6965TIP3   OH220771   7.038   8.883   1.592
 6965TIP3    H120772   7.060   8.852   1.683
 6965TIP3    H220773   7.125   8.877   1.548
 6966TIP3   OH220774   1.775   0.219   6.066
 6966TIP3    H120775   1.843   0.171   6.115
 6966TIP3    H220776   1.785   0.308   6.106
 6967TIP3   OH220777   1.398   0.650   6.081
 6967TIP3    H120778   1.441   0.577   6.031
 6967TIP3    H220779   1.426   0.633   6.172
 6968TIP3   OH220780   1.812   0.442   6.233
 6968TIP3    H120781   1.736   0.451   6.291
 6968TIP3    H220782   1.822   0.534   6.198
 6969TIP3   OH220783   1.533   0.486   5.904
 6969TIP3    H120784   1.578   0.403   5.881
 6969TIP3    H220785   1.597   0.552   5.868
 6970TIP3   OH220786   1.646   0.249   5.816
 6970TIP3    H120787   1.681   0.186   5.749
 6970TIP3    H220788   1.710   0.239   5.890
 6971TIP3   OH220789   2.064   0.361   6.579
 6971TIP3    H120790   2.046   0.277   6.535
 6971TIP3    H220791   2.048   0.429   6.511
 6972TIP3   OH220792   2.279  -0.001   6.422
 6972TIP3    H120793   2.188   0.023   6.444
 6972TIP3    H220794   2.286   0.023   6.328
 6973TIP3   OH220795   1.861   0.305   5.234
 6973TIP3    H120796   1.873   0.401   5.220
 6973TIP3    H220797   1.953   0.272   5.222
 6974TIP3   OH220798   2.298   0.698   6.623
 6974TIP3    H120799   2.300   0.602   6.644
 6974TIP3    H220800   2.217   0.724   6.674
 6975TIP3   OH220801   1.169   0.624   5.704
 6975TIP3    H120802   1.119   0.608   5.623
 6975TIP3    H220803   1.136   0.712   5.732
 6976TIP3   OH220804   1.372   0.518   5.357
 6976TIP3    H120805   1.432   0.450   5.319
 6976TIP3    H220806   1.407   0.524   5.449
 6977TIP3   OH220807   1.424   0.572   5.627
 6977TIP3    H120808   1.334   0.578   5.666
 6977TIP3    H220809   1.480   0.566   5.706
 6978TIP3   OH220810   1.983   1.057   6.726
 6978TIP3    H120811   1.990   1.076   6.631
 6978TIP3    H220812   2.066   1.096   6.760
 6979TIP3   OH220813   2.021   0.133   6.413
 6979TIP3    H120814   2.066   0.182   6.341
 6979TIP3    H220815   1.928   0.149   6.394
 6980TIP3   OH220816   2.307   0.420   6.669
 6980TIP3    H120817   2.209   0.409   6.666
 6980TIP3    H220818   2.332   0.381   6.583
 6981TIP3   OH220819   1.797   0.369   5.498
 6981TIP3    H120820   1.766   0.289   5.541
 6981TIP3    H220821   1.808   0.338   5.406
 6982TIP3   OH220822   1.575   0.110   5.393
 6982TIP3    H120823   1.604   0.076   5.478
 6982TIP3    H220824   1.477   0.101   5.401
 6983TIP3   OH220825   1.832   0.735   6.559
 6983TIP3    H120826   1.746   0.688   6.561
 6983TIP3    H220827   1.813   0.807   6.496
 6984TIP3   OH220828   1.890   0.583   5.213
 6984TIP3    H120829   1.887   0.627   5.126
 6984TIP3    H220830   1.818   0.632   5.259
 6985TIP3   OH220831   1.719   0.037   5.644
 6985TIP3    H120832   1.710  -0.053   5.679
 6985TIP3    H220833   1.812   0.034   5.614
 6986TIP3   OH220834   1.843   0.706   6.155
 6986TIP3    H120835   1.802   0.756   6.081
 6986TIP3    H220836   1.937   0.729   6.140
 6987TIP3   OH220837   1.782   0.611   6.877
 6987TIP3    H120838   1.762   0.550   6.948
 6987TIP3    H220839   1.851   0.665   6.918
 6988TIP3   OH220840   1.530   0.337   5.229
 6988TIP3    H120841   1.567   0.262   5.281
 6988TIP3    H220842   1.580   0.330   5.145
 6989TIP3   OH220843   1.890  -0.167   5.237
 6989TIP3    H120844   1.856  -0.214   5.160
 6989TIP3    H220845   1.847  -0.079   5.223
 6990TIP3   OH220846   2.093   0.808   6.116
 6990TIP3    H120847   2.120   0.833   6.206
 6990TIP3    H220848   2.159   0.853   6.062
 6991TIP3   OH220849   2.129   0.825   6.395
 6991TIP3    H120850   2.086   0.737   6.394
 6991TIP3    H220851   2.199   0.806   6.460
 6992TIP3   OH220852   2.147   0.506   6.932
 6992TIP3    H120853   2.097   0.504   7.016
 6992TIP3    H220854   2.219   0.567   6.958
 6993TIP3   OH220855   1.988   0.016   5.595
 6993TIP3    H120856   2.057   0.077   5.562
 6993TIP3    H220857   2.034  -0.026   5.670
 6994TIP3   OH220858   2.114  -0.114   5.804
 6994TIP3    H120859   2.048  -0.100   5.874
 6994TIP3    H220860   2.195  -0.077   5.845
 6995TIP3   OH220861   2.156   0.267   6.216
 6995TIP3    H120862   2.224   0.207   6.177
 6995TIP3    H220863   2.166   0.347   6.161
 6996TIP3   OH220864   2.004   0.577   6.413
 6996TIP3    H120865   1.943   0.620   6.478
 6996TIP3    H220866   1.943   0.528   6.355
 6997TIP3   OH220867   2.056  -0.209   5.441
 6997TIP3    H120868   1.993  -0.195   5.367
 6997TIP3    H220869   2.029  -0.136   5.500
 6998TIP3   OH220870   2.220   0.145   6.743
 6998TIP3    H120871   2.289   0.099   6.795
 6998TIP3    H220872   2.249   0.237   6.745
 6999TIP3   OH220873   2.396  -0.038   6.848
 6999TIP3    H120874   2.330  -0.108   6.837
 6999TIP3    H220875   2.480  -0.083   6.834
 7000TIP3   OH220876   1.680   0.667   5.772
 7000TIP3    H120877   1.734   0.659   5.690
 7000TIP3    H220878   1.727   0.738   5.819
 7001TIP3   OH220879   1.581   0.924   6.680
 7001TIP3    H120880   1.633   0.843   6.679
 7001TIP3    H220881   1.624   0.971   6.754
 7002TIP3   OH220882   1.335   0.787   6.369
 7002TIP3    H120883   1.240   0.786   6.345
 7002TIP3    H220884   1.338   0.869   6.423
 7003TIP3   OH220885   1.582   0.704   6.424
 7003TIP3    H120886   1.492   0.736   6.401
 7003TIP3    H220887   1.635   0.782   6.398
 7004TIP3   OH220888   1.771   0.904   6.348
 7004TIP3    H120889   1.758   0.991   6.303
 7004TIP3    H220890   1.801   0.848   6.274
 7005TIP3   OH220891   1.109   0.497   5.431
 7005TIP3    H120892   1.202   0.523   5.411
 7005TIP3    H220893   1.104   0.418   5.376
 7006TIP3   OH220894   1.828   0.637   5.541
 7006TIP3    H120895   1.820   0.540   5.526
 7006TIP3    H220896   1.781   0.671   5.462
 7007TIP3   OH220897   2.058   0.789   6.722
 7007TIP3    H120898   1.978   0.743   6.692
 7007TIP3    H220899   2.025   0.881   6.732
 7008TIP3   OH220900   3.320   0.153   5.492
 7008TIP3    H120901   3.294   0.246   5.473
 7008TIP3    H220902   3.239   0.108   5.464
 7009TIP3   OH220903   3.348   0.138   5.861
 7009TIP3    H120904   3.344   0.125   5.957
 7009TIP3    H220905   3.278   0.077   5.831
 7010TIP3   OH220906   2.614   0.052   6.236
 7010TIP3    H120907   2.647  -0.012   6.301
 7010TIP3    H220908   2.688   0.114   6.234
 7011TIP3   OH220909   3.565   0.452   5.552
 7011TIP3    H120910   3.539   0.385   5.617
 7011TIP3    H220911   3.582   0.529   5.609
 7012TIP3   OH220912   2.582   0.454   5.962
 7012TIP3    H120913   2.571   0.356   5.959
 7012TIP3    H220914   2.676   0.459   5.982
 7013TIP3   OH220915   2.286  -0.349   5.756
 7013TIP3    H120916   2.255  -0.259   5.775
 7013TIP3    H220917   2.209  -0.385   5.712
 7014TIP3   OH220918   2.359  -0.054   5.910
 7014TIP3    H120919   2.408  -0.126   5.956
 7014TIP3    H220920   2.430  -0.013   5.859
 7015TIP3   OH220921   3.221   0.926   5.576
 7015TIP3    H120922   3.268   0.854   5.528
 7015TIP3    H220923   3.168   0.870   5.636
 7016TIP3   OH220924   3.123   0.353   5.953
 7016TIP3    H120925   3.118   0.332   5.859
 7016TIP3    H220926   3.200   0.413   5.955
 7017TIP3   OH220927   3.533  -0.111   5.960
 7017TIP3    H120928   3.560  -0.200   5.984
 7017TIP3    H220929   3.498  -0.123   5.870
 7018TIP3   OH220930   2.503  -0.256   6.027
 7018TIP3    H120931   2.580  -0.282   6.081
 7018TIP3    H220932   2.521  -0.312   5.949
 7019TIP3   OH220933   2.943  -0.058   5.822
 7019TIP3    H120934   3.033  -0.091   5.839
 7019TIP3    H220935   2.898  -0.141   5.792
 7020TIP3   OH220936   4.178  -0.117   6.109
 7020TIP3    H120937   4.113  -0.047   6.087
 7020TIP3    H220938   4.221  -0.083   6.189
 7021TIP3   OH220939   3.225   0.379   5.354
 7021TIP3    H120940   3.171   0.355   5.276
 7021TIP3    H220941   3.184   0.464   5.379
 7022TIP3   OH220942   2.964   0.293   6.162
 7022TIP3    H120943   2.905   0.366   6.190
 7022TIP3    H220944   3.014   0.333   6.087
 7023TIP3   OH220945   2.743  -0.357   6.125
 7023TIP3    H120946   2.801  -0.284   6.153
 7023TIP3    H220947   2.786  -0.387   6.044
 7024TIP3   OH220948   2.794   0.494   6.243
 7024TIP3    H120949   2.770   0.585   6.213
 7024TIP3    H220950   2.719   0.477   6.304
 7025TIP3   OH220951   2.189   0.178   5.485
 7025TIP3    H120952   2.152   0.203   5.398
 7025TIP3    H220953   2.215   0.266   5.521
 7026TIP3   OH220954   3.643   0.698   5.724
 7026TIP3    H120955   3.558   0.681   5.774
 7026TIP3    H220956   3.616   0.775   5.674
 7027TIP3   OH220957   3.383   0.762   5.428
 7027TIP3    H120958   3.396   0.673   5.391
 7027TIP3    H220959   3.417   0.819   5.357
 7028TIP3   OH220960   3.479   0.528   5.298
 7028TIP3    H120961   3.414   0.458   5.280
 7028TIP3    H220962   3.516   0.497   5.384
 7029TIP3   OH220963   3.859   0.613   6.067
 7029TIP3    H120964   3.846   0.535   6.009
 7029TIP3    H220965   3.841   0.687   6.005
 7030TIP3   OH220966   3.147   0.004   5.324
 7030TIP3    H120967   3.064   0.054   5.307
 7030TIP3    H220968   3.189   0.007   5.236
 7031TIP3   OH220969   3.106  -0.208   5.050
 7031TIP3    H120970   3.182  -0.165   5.092
 7031TIP3    H220971   3.151  -0.277   4.997
 7032TIP3   OH220972   4.052   0.244   5.912
 7032TIP3    H120973   3.970   0.298   5.917
 7032TIP3    H220974   4.084   0.270   5.823
 7033TIP3   OH220975   3.497   0.087   5.296
 7033TIP3    H120976   3.440   0.114   5.373
 7033TIP3    H220977   3.579   0.061   5.342
 7034TIP3   OH220978   3.731   0.132   6.204
 7034TIP3    H120979   3.728   0.217   6.251
 7034TIP3    H220980   3.644   0.135   6.158
 7035TIP3   OH220981   2.726   0.082   5.717
 7035TIP3    H120982   2.688   0.026   5.646
 7035TIP3    H220983   2.805   0.030   5.743
 7036TIP3   OH220984   2.869   0.051   6.069
 7036TIP3    H120985   2.901   0.034   5.977
 7036TIP3    H220986   2.909   0.138   6.090
 7037TIP3   OH220987   3.414   0.695   5.853
 7037TIP3    H120988   3.369   0.770   5.894
 7037TIP3    H220989   3.383   0.619   5.906
 7038TIP3   OH220990   3.002   0.612   6.391
 7038TIP3    H120991   2.943   0.675   6.439
 7038TIP3    H220992   2.935   0.560   6.343
 7039TIP3   OH220993   3.348  -0.071   5.127
 7039TIP3    H120994   3.401  -0.007   5.180
 7039TIP3    H220995   3.369  -0.041   5.035
 7040TIP3   OH220996   2.751   0.178   6.484
 7040TIP3    H120997   2.760   0.263   6.531
 7040TIP3    H220998   2.658   0.155   6.506
 7041TIP3   OH220999   3.104   0.637   5.375
 7041TIP3    H121000   3.099   0.642   5.474
 7041TIP3    H221001   3.020   0.680   5.355
 7042TIP3   OH221002   2.797   0.783   6.479
 7042TIP3    H121003   2.760   0.779   6.389
 7042TIP3    H221004   2.718   0.763   6.534
 7043TIP3   OH221005   2.597  -0.068   5.514
 7043TIP3    H121006   2.527  -0.028   5.458
 7043TIP3    H221007   2.564  -0.157   5.529
 7044TIP3   OH221008   3.652   0.553   4.715
 7044TIP3    H121009   3.658   0.651   4.705
 7044TIP3    H221010   3.746   0.527   4.705
 7045TIP3   OH221011   2.380   0.309   6.426
 7045TIP3    H121012   2.314   0.278   6.362
 7045TIP3    H221013   2.419   0.224   6.457
 7046TIP3   OH221014   2.230   0.504   6.060
 7046TIP3    H121015   2.326   0.495   6.049
 7046TIP3    H221016   2.225   0.582   6.117
 7047TIP3   OH221017   4.094   0.957   6.110
 7047TIP3    H121018   4.094   0.861   6.124
 7047TIP3    H221019   4.011   0.982   6.158
 7048TIP3   OH221020   3.202   0.741   6.250
 7048TIP3    H121021   3.200   0.834   6.280
 7048TIP3    H221022   3.130   0.702   6.303
 7049TIP3   OH221023   2.957   0.880   5.190
 7049TIP3    H121024   2.909   0.856   5.109
 7049TIP3    H221025   2.920   0.966   5.214
 7050TIP3   OH221026   2.392   0.714   5.591
 7050TIP3    H121027   2.457   0.714   5.665
 7050TIP3    H221028   2.325   0.656   5.630
 7051TIP3   OH221029   3.166   0.777   4.844
 7051TIP3    H121030   3.224   0.707   4.806
 7051TIP3    H221031   3.196   0.778   4.937
 7052TIP3   OH221032   3.212   0.819   5.121
 7052TIP3    H121033   3.120   0.833   5.153
 7052TIP3    H221034   3.242   0.757   5.189
 7053TIP3   OH221035   3.988   0.083   6.405
 7053TIP3    H121036   3.913   0.121   6.355
 7053TIP3    H221037   4.000  -0.002   6.362
 7054TIP3   OH221038   2.582   0.495   6.413
 7054TIP3    H121039   2.633   0.482   6.495
 7054TIP3    H221040   2.507   0.433   6.425
 7055TIP3   OH221041   3.657  -0.053   6.401
 7055TIP3    H121042   3.702  -0.136   6.381
 7055TIP3    H221043   3.674   0.003   6.323
 7056TIP3   OH221044   3.420  -0.021   4.868
 7056TIP3    H121045   3.380  -0.038   4.780
 7056TIP3    H221046   3.483   0.050   4.848
 7057TIP3   OH221047   2.919  -0.170   6.220
 7057TIP3    H121048   2.863  -0.146   6.298
 7057TIP3    H221049   2.905  -0.091   6.164
 7058TIP3   OH221050   2.785  -0.260   5.724
 7058TIP3    H121051   2.707  -0.309   5.755
 7058TIP3    H221052   2.806  -0.308   5.642
 7059TIP3   OH221053   3.291  -0.191   5.454
 7059TIP3    H121054   3.236  -0.118   5.418
 7059TIP3    H221055   3.337  -0.221   5.374
 7060TIP3   OH221056   3.462   0.136   6.508
 7060TIP3    H121057   3.450   0.087   6.593
 7060TIP3    H221058   3.559   0.128   6.499
 7061TIP3   OH221059   3.448  -0.163   5.699
 7061TIP3    H121060   3.390  -0.123   5.632
 7061TIP3    H221061   3.473  -0.245   5.653
 7062TIP3   OH221062   2.739  -0.128   6.424
 7062TIP3    H121063   2.746  -0.062   6.495
 7062TIP3    H221064   2.683  -0.196   6.464
 7063TIP3   OH221065   3.463   0.086   6.132
 7063TIP3    H121066   3.487   0.017   6.066
 7063TIP3    H221067   3.422   0.032   6.202
 7064TIP3   OH221068   2.553  -0.404   5.798
 7064TIP3    H121069   2.459  -0.387   5.774
 7064TIP3    H221070   2.564  -0.497   5.774
 7065TIP3   OH221071   2.839  -0.393   5.489
 7065TIP3    H121072   2.927  -0.405   5.448
 7065TIP3    H221073   2.780  -0.392   5.411
 7066TIP3   OH221074   2.663  -0.373   5.268
 7066TIP3    H121075   2.603  -0.419   5.207
 7066TIP3    H221076   2.723  -0.331   5.203
 7067TIP3   OH221077   3.787   1.307   6.214
 7067TIP3    H121078   3.788   1.332   6.120
 7067TIP3    H221079   3.865   1.355   6.248
 7068TIP3   OH221080   2.754   0.418   6.624
 7068TIP3    H121081   2.827   0.451   6.680
 7068TIP3    H221082   2.683   0.411   6.693
 7069TIP3   OH221083   3.207  -0.128   5.896
 7069TIP3    H121084   3.270  -0.177   5.842
 7069TIP3    H221085   3.205  -0.180   5.978
 7070TIP3   OH221086   3.186  -0.246   6.201
 7070TIP3    H121087   3.098  -0.204   6.202
 7070TIP3    H221088   3.241  -0.182   6.252
 7071TIP3   OH221089   2.918   0.154   5.275
 7071TIP3    H121090   2.844   0.092   5.263
 7071TIP3    H221091   2.900   0.189   5.367
 7072TIP3   OH221092   3.822   0.393   5.905
 7072TIP3    H121093   3.844   0.442   5.823
 7072TIP3    H221094   3.735   0.352   5.881
 7073TIP3   OH221095   3.330   0.481   6.271
 7073TIP3    H121096   3.336   0.455   6.364
 7073TIP3    H221097   3.280   0.565   6.276
 7074TIP3   OH221098   3.441  -0.315   5.224
 7074TIP3    H121099   3.537  -0.299   5.239
 7074TIP3    H221100   3.415  -0.233   5.178
 7075TIP3   OH221101   2.605   0.174   5.949
 7075TIP3    H121102   2.650   0.151   5.865
 7075TIP3    H221103   2.651   0.115   6.012
 7076TIP3   OH221104   3.071   0.309   5.111
 7076TIP3    H121105   3.021   0.394   5.111
 7076TIP3    H221106   3.011   0.252   5.164
 7077TIP3   OH221107   2.502   0.095   6.561
 7077TIP3    H121108   2.511   0.092   6.658
 7077TIP3    H221109   2.419   0.045   6.544
 7078TIP3   OH221110   3.210   0.218   6.582
 7078TIP3    H121111   3.148   0.159   6.535
 7078TIP3    H221112   3.295   0.196   6.539
 7079TIP3   OH221113   3.485   0.746   6.164
 7079TIP3    H121114   3.389   0.734   6.174
 7079TIP3    H221115   3.507   0.792   6.248
 7080TIP3   OH221116   3.894  -0.196   5.071
 7080TIP3    H121117   3.836  -0.245   5.009
 7080TIP3    H221118   3.887  -0.106   5.031
 7081TIP3   OH221119   4.108   0.664   6.158
 7081TIP3    H121120   4.010   0.661   6.148
 7081TIP3    H221121   4.134   0.635   6.067
 7082TIP3   OH221122   3.598   0.625   4.986
 7082TIP3    H121123   3.562   0.561   5.049
 7082TIP3    H221124   3.598   0.577   4.902
 7083TIP3   OH221125   3.594   0.255   5.824
 7083TIP3    H121126   3.501   0.226   5.836
 7083TIP3    H221127   3.628   0.177   5.775
 7084TIP3   OH221128   2.701   0.468   5.559
 7084TIP3    H121129   2.743   0.554   5.544
 7084TIP3    H221130   2.609   0.491   5.570
 7085TIP3   OH221131   2.273  -0.215   5.273
 7085TIP3    H121132   2.324  -0.134   5.292
 7085TIP3    H221133   2.201  -0.207   5.339
 7086TIP3   OH221134   2.858   0.245   5.523
 7086TIP3    H121135   2.825   0.336   5.539
 7086TIP3    H221136   2.817   0.199   5.599
 7087TIP3   OH221137   2.981   0.828   6.048
 7087TIP3    H121138   3.023   0.894   5.989
 7087TIP3    H221139   3.059   0.789   6.090
 7088TIP3   OH221140   2.623   0.731   5.417
 7088TIP3    H121141   2.544   0.736   5.473
 7088TIP3    H221142   2.662   0.820   5.428
 7089TIP3   OH221143   3.379   0.464   6.003
 7089TIP3    H121144   3.367   0.463   6.100
 7089TIP3    H221145   3.451   0.401   5.990
 7090TIP3   OH221146   3.344   0.356   4.876
 7090TIP3    H121147   3.388   0.330   4.960
 7090TIP3    H221148   3.252   0.329   4.894
 7091TIP3   OH221149   3.620   0.994   6.058
 7091TIP3    H121150   3.545   0.932   6.054
 7091TIP3    H221151   3.599   1.057   5.987
 7092TIP3   OH221152   3.684   0.830   4.704
 7092TIP3    H121153   3.719   0.904   4.651
 7092TIP3    H221154   3.603   0.873   4.739
 7093TIP3   OH221155   3.504   0.280   5.092
 7093TIP3    H121156   3.492   0.223   5.170
 7093TIP3    H221157   3.601   0.285   5.088
 7094TIP3   OH221158   2.419   0.689   6.203
 7094TIP3    H121159   2.473   0.616   6.238
 7094TIP3    H221160   2.441   0.758   6.267
 7095TIP3   OH221161   2.708   0.339   4.887
 7095TIP3    H121162   2.723   0.251   4.848
 7095TIP3    H221163   2.692   0.317   4.980
 7096TIP3   OH221164   2.652   0.339   5.164
 7096TIP3    H121165   2.726   0.314   5.222
 7096TIP3    H221166   2.659   0.437   5.166
 7097TIP3   OH221167   2.389   0.030   5.357
 7097TIP3    H121168   2.325   0.077   5.415
 7097TIP3    H221169   2.411   0.100   5.294
 7098TIP3   OH221170   2.920   0.534   5.110
 7098TIP3    H121171   2.833   0.566   5.141
 7098TIP3    H221172   2.933   0.590   5.032
 7099TIP3   OH221173   3.137  -0.407   5.523
 7099TIP3    H121174   3.177  -0.320   5.502
 7099TIP3    H221175   3.089  -0.389   5.605
 7100TIP3   OH221176   3.376  -0.085   6.348
 7100TIP3    H121177   3.380  -0.007   6.406
 7100TIP3    H221178   3.465  -0.120   6.361
 7101TIP3   OH221179   2.663   0.613   5.171
 7101TIP3    H121180   2.636   0.685   5.109
 7101TIP3    H221181   2.649   0.657   5.258
 7102TIP3   OH221182   3.674   0.017   5.695
 7102TIP3    H121183   3.598  -0.042   5.713
 7102TIP3    H221184   3.746  -0.028   5.744
 7103TIP3   OH221185   2.385   0.248   5.166
 7103TIP3    H121186   2.460   0.310   5.174
 7103TIP3    H221187   2.424   0.188   5.098
 7104TIP3   OH221188   2.304  -0.505   5.289
 7104TIP3    H121189   2.357  -0.423   5.284
 7104TIP3    H221190   2.221  -0.469   5.323
 7105TIP3   OH221191   3.627   1.001   5.642
 7105TIP3    H121192   3.595   0.952   5.565
 7105TIP3    H221193   3.723   1.012   5.621
 7106TIP3   OH221194   2.237   0.443   5.548
 7106TIP3    H121195   2.171   0.498   5.590
 7106TIP3    H221196   2.279   0.501   5.483
 7107TIP3   OH221197   2.411   0.998   6.622
 7107TIP3    H121198   2.496   0.996   6.671
 7107TIP3    H221199   2.387   0.904   6.625
 7108TIP3   OH221200   2.897   0.969   6.662
 7108TIP3    H121201   2.988   0.940   6.676
 7108TIP3    H221202   2.869   0.907   6.592
 7109TIP3   OH221203   2.876   0.542   4.807
 7109TIP3    H121204   2.824   0.464   4.836
 7109TIP3    H221205   2.950   0.499   4.759
 7110TIP3   OH221206   3.534   0.872   6.402
 7110TIP3    H121207   3.523   0.801   6.470
 7110TIP3    H221208   3.610   0.922   6.437
 7111TIP3   OH221209   3.329   0.593   4.719
 7111TIP3    H121210   3.355   0.515   4.771
 7111TIP3    H221211   3.378   0.580   4.635
 7112TIP3   OH221212   2.555   0.396   6.799
 7112TIP3    H121213   2.551   0.308   6.840
 7112TIP3    H221214   2.461   0.423   6.803
 7113TIP3   OH221215   2.514   0.055   5.021
 7113TIP3    H121216   2.573   0.025   5.092
 7113TIP3    H221217   2.580   0.060   4.948
 7114TIP3   OH221218   3.156   0.492   6.596
 7114TIP3    H121219   3.106   0.505   6.513
 7114TIP3    H221220   3.180   0.397   6.592
 7115TIP3   OH221221   3.046   0.261   4.835
 7115TIP3    H121222   3.037   0.263   4.932
 7115TIP3    H221223   3.022   0.168   4.816
 7116TIP3   OH221224   3.646   0.494   6.207
 7116TIP3    H121225   3.712   0.549   6.161
 7116TIP3    H221226   3.566   0.549   6.196
 7117TIP3   OH221227   2.660   0.114   6.816
 7117TIP3    H121228   2.748   0.078   6.799
 7117TIP3    H221229   2.675   0.163   6.900
 7118TIP3   OH221230   2.723  -0.040   5.240
 7118TIP3    H121231   2.703  -0.081   5.326
 7118TIP3    H221232   2.761  -0.116   5.190
 7119TIP3   OH221233   2.997   0.063   6.451
 7119TIP3    H121234   2.912   0.113   6.452
 7119TIP3    H221235   3.039   0.092   6.367
 7120TIP3   OH221236   2.827  -0.248   5.086
 7120TIP3    H121237   2.800  -0.246   4.992
 7120TIP3    H221238   2.924  -0.239   5.077
 7121TIP3   OH221239   3.515   0.432   6.608
 7121TIP3    H121240   3.588   0.398   6.556
 7121TIP3    H221241   3.506   0.364   6.677
 7122TIP3   OH221242   3.660   0.086   4.738
 7122TIP3    H121243   3.628   0.040   4.658
 7122TIP3    H221244   3.625   0.176   4.720
 7123TIP3   OH221245   3.070  -0.139   6.605
 7123TIP3    H121246   3.090  -0.211   6.541
 7123TIP3    H221247   3.039  -0.067   6.544
 7124TIP3   OH221248   3.170   0.142   6.253
 7124TIP3    H121249   3.247   0.163   6.198
 7124TIP3    H221250   3.104   0.207   6.220
 7125TIP3   OH221251   3.737   0.114   6.667
 7125TIP3    H121252   3.771   0.025   6.653
 7125TIP3    H221253   3.802   0.171   6.624
 7126TIP3   OH221254   3.778   0.350   6.391
 7126TIP3    H121255   3.716   0.404   6.336
 7126TIP3    H221256   3.863   0.376   6.350
 7127TIP3   OH221257   2.965  -0.048   6.840
 7127TIP3    H121258   2.896  -0.117   6.838
 7127TIP3    H221259   3.014  -0.073   6.759
 7128TIP3   OH221260   3.434  -0.026   6.715
 7128TIP3    H121261   3.391  -0.047   6.800
 7128TIP3    H221262   3.450  -0.114   6.678
 7129TIP3   OH221263   2.634   0.819   4.986
 7129TIP3    H121264   2.728   0.812   4.961
 7129TIP3    H221265   2.599   0.868   4.910
 7130TIP3   OH221266   2.118   0.198   5.207
 7130TIP3    H121267   2.212   0.222   5.190
 7130TIP3    H221268   2.112   0.111   5.162
 7131TIP3   OH221269   2.033   0.806   5.610
 7131TIP3    H121270   1.961   0.747   5.578
 7131TIP3    H221271   2.072   0.751   5.681
 7132TIP3   OH221272   2.171   0.661   5.798
 7132TIP3    H121273   2.157   0.588   5.861
 7132TIP3    H221274   2.219   0.723   5.857
 7133TIP3   OH221275   3.886   1.074   5.597
 7133TIP3    H121276   3.918   1.095   5.687
 7133TIP3    H221277   3.962   1.101   5.543
 7134TIP3   OH221278   3.927   1.079   5.881
 7134TIP3    H121279   3.879   0.994   5.882
 7134TIP3    H221280   4.000   1.056   5.940
 7135TIP3   OH221281   3.970   0.756   6.459
 7135TIP3    H121282   3.895   0.766   6.522
 7135TIP3    H221283   4.009   0.846   6.462
 7136TIP3   OH221284   3.788   0.268   5.074
 7136TIP3    H121285   3.855   0.334   5.050
 7136TIP3    H221286   3.827   0.230   5.156
 7137TIP3   OH221287   3.913   0.133   5.277
 7137TIP3    H121288   3.848   0.095   5.340
 7137TIP3    H221289   3.981   0.172   5.335
 7138TIP3   OH221290   3.969   0.529   5.713
 7138TIP3    H121291   4.021   0.465   5.661
 7138TIP3    H221292   3.951   0.600   5.649
 7139TIP3   OH221293   3.798   0.834   5.908
 7139TIP3    H121294   3.726   0.869   5.964
 7139TIP3    H221295   3.747   0.782   5.841
 7140TIP3   OH221296   3.849   0.040   4.928
 7140TIP3    H121297   3.779   0.054   4.859
 7140TIP3    H221298   3.827   0.116   4.986
 7141TIP3   OH221299   3.732  -0.288   4.869
 7141TIP3    H121300   3.686  -0.209   4.837
 7141TIP3    H221301   3.678  -0.359   4.832
 7142TIP3   OH221302   3.728  -0.006   5.429
 7142TIP3    H121303   3.735  -0.102   5.436
 7142TIP3    H221304   3.712   0.018   5.523
 7143TIP3   OH221305   2.351   0.081   6.162
 7143TIP3    H121306   2.355   0.046   6.071
 7143TIP3    H221307   2.446   0.077   6.187
 7144TIP3   OH221308   4.021   0.414   6.284
 7144TIP3    H121309   4.093   0.351   6.267
 7144TIP3    H221310   4.042   0.487   6.223
 7145TIP3   OH221311   4.204   0.210   6.292
 7145TIP3    H121312   4.136   0.165   6.346
 7145TIP3    H221313   4.285   0.173   6.329
 7146TIP3   OH221314   3.709  -0.294   5.272
 7146TIP3    H121315   3.756  -0.327   5.352
 7146TIP3    H221316   3.781  -0.250   5.223
 7147TIP3   OH221317   3.891  -0.089   5.823
 7147TIP3    H121318   3.979  -0.074   5.784
 7147TIP3    H221319   3.907  -0.061   5.914
 7148TIP3   OH221320   3.952   0.038   6.067
 7148TIP3    H121321   3.869   0.079   6.101
 7148TIP3    H221322   3.987   0.111   6.011
 7149TIP3   OH221323   2.354  -0.289   6.259
 7149TIP3    H121324   2.397  -0.275   6.173
 7149TIP3    H221325   2.351  -0.201   6.297
 7150TIP3   OH221326   3.488   0.948   5.258
 7150TIP3    H121327   3.518   0.907   5.175
 7150TIP3    H221328   3.551   1.020   5.267
 7151TIP3   OH221329   2.579   0.732   6.644
 7151TIP3    H121330   2.486   0.703   6.633
 7151TIP3    H221331   2.600   0.697   6.732
 7152TIP3   OH221332   2.754   0.763   6.192
 7152TIP3    H121333   2.706   0.840   6.154
 7152TIP3    H221334   2.841   0.779   6.149
 7153TIP3   OH221335   3.202   1.009   6.329
 7153TIP3    H121336   3.242   1.009   6.418
 7153TIP3    H221337   3.268   1.061   6.278
 7154TIP3   OH221338   3.381   1.163   6.185
 7154TIP3    H121339   3.451   1.102   6.155
 7154TIP3    H221340   3.431   1.219   6.248
 7155TIP3   OH221341   2.431   1.022   6.212
 7155TIP3    H121342   2.341   1.058   6.194
 7155TIP3    H221343   2.443   1.051   6.304
 7156TIP3   OH221344   2.669   1.004   6.076
 7156TIP3    H121345   2.582   1.015   6.120
 7156TIP3    H221346   2.649   1.032   5.985
 7157TIP3   OH221347   3.095   1.032   5.873
 7157TIP3    H121348   3.025   1.047   5.807
 7157TIP3    H221349   3.102   1.119   5.915
 7158TIP3   OH221350   3.360   0.974   5.924
 7158TIP3    H121351   3.264   0.972   5.903
 7158TIP3    H221352   3.385   1.059   5.888
 7159TIP3   OH221353   3.589   1.178   5.846
 7159TIP3    H121354   3.528   1.235   5.799
 7159TIP3    H221355   3.606   1.107   5.779
 7160TIP3   OH221356   2.344   0.814   5.959
 7160TIP3    H121357   2.370   0.790   6.051
 7160TIP3    H221358   2.419   0.772   5.911
 7161TIP3   OH221359   2.541   0.685   5.815
 7161TIP3    H121360   2.555   0.600   5.862
 7161TIP3    H221361   2.633   0.721   5.814
 7162TIP3   OH221362   2.796   0.786   5.820
 7162TIP3    H121363   2.860   0.736   5.764
 7162TIP3    H221364   2.849   0.790   5.902
 7163TIP3   OH221365   2.900   0.782   4.927
 7163TIP3    H121366   2.991   0.799   4.894
 7163TIP3    H221367   2.880   0.702   4.874
 7164TIP3   OH221368   3.624   0.892   5.025
 7164TIP3    H121369   3.618   0.794   5.012
 7164TIP3    H221370   3.577   0.924   4.945
 7165TIP3   OH221371   2.213   0.602   4.989
 7165TIP3    H121372   2.241   0.643   5.071
 7165TIP3    H221373   2.297   0.557   4.962
 7166TIP3   OH221374   3.850   1.038   6.214
 7166TIP3    H121375   3.770   1.005   6.169
 7166TIP3    H221376   3.828   1.133   6.220
 7167TIP3   OH221377   5.119   0.410   4.979
 7167TIP3    H121378   5.091   0.503   4.965
 7167TIP3    H221379   5.036   0.364   4.956
 7168TIP3   OH221380   5.134   0.403   5.355
 7168TIP3    H121381   5.143   0.371   5.446
 7168TIP3    H221382   5.067   0.342   5.320
 7169TIP3   OH221383   4.413   0.317   5.735
 7169TIP3    H121384   4.469   0.263   5.792
 7169TIP3    H221385   4.484   0.372   5.692
 7170TIP3   OH221386   5.359   0.713   5.041
 7170TIP3    H121387   5.337   0.644   5.105
 7170TIP3    H221388   5.384   0.787   5.099
 7171TIP3   OH221389   4.401   0.701   5.454
 7171TIP3    H121390   4.365   0.610   5.446
 7171TIP3    H221391   4.491   0.680   5.481
 7172TIP3   OH221392   4.086  -0.095   5.245
 7172TIP3    H121393   4.045  -0.008   5.262
 7172TIP3    H221394   4.019  -0.135   5.186
 7173TIP3   OH221395   4.154   0.202   5.402
 7173TIP3    H121396   4.205   0.129   5.443
 7173TIP3    H221397   4.224   0.261   5.370
 7174TIP3   OH221398   5.006   1.174   5.059
 7174TIP3    H121399   5.055   1.103   5.012
 7174TIP3    H221400   4.998   1.137   5.147
 7175TIP3   OH221401   4.937   0.668   5.361
 7175TIP3    H121402   4.925   0.573   5.359
 7175TIP3    H221403   5.024   0.679   5.404
 7176TIP3   OH221404   5.325   0.145   5.446
 7176TIP3    H121405   5.364   0.059   5.465
 7176TIP3    H221406   5.292   0.133   5.355
 7177TIP3   OH221407   4.299  -0.007   5.519
 7177TIP3    H121408   4.379  -0.032   5.569
 7177TIP3    H221409   4.316  -0.057   5.437
 7178TIP3   OH221410   4.743   0.194   5.275
 7178TIP3    H121411   4.822   0.170   5.326
 7178TIP3    H221412   4.695   0.108   5.267
 7179TIP3   OH221413   5.961   0.133   5.609
 7179TIP3    H121414   5.908   0.207   5.574
 7179TIP3    H221415   6.040   0.177   5.644
 7180TIP3   OH221416   5.017   0.638   4.844
 7180TIP3    H121417   4.960   0.604   4.774
 7180TIP3    H221418   4.969   0.719   4.870
 7181TIP3   OH221419   4.548  -0.107   5.611
 7181TIP3    H121420   4.597  -0.027   5.639
 7181TIP3    H221421   4.585  -0.121   5.523
 7182TIP3   OH221422   4.600   0.764   5.772
 7182TIP3    H121423   4.572   0.809   5.692
 7182TIP3    H221424   4.515   0.743   5.813
 7183TIP3   OH221425   3.990   0.441   4.971
 7183TIP3    H121426   3.945   0.469   4.891
 7183TIP3    H221427   4.020   0.525   5.010
 7184TIP3   OH221428   5.431   0.956   5.211
 7184TIP3    H121429   5.342   0.945   5.253
 7184TIP3    H221430   5.420   1.042   5.167
 7185TIP3   OH221431   5.134   1.003   4.888
 7185TIP3    H121432   5.183   0.921   4.867
 7185TIP3    H221433   5.192   1.068   4.843
 7186TIP3   OH221434   5.275   0.787   4.788
 7186TIP3    H121435   5.217   0.712   4.765
 7186TIP3    H221436   5.313   0.755   4.873
 7187TIP3   OH221437   5.656   0.869   5.554
 7187TIP3    H121438   5.642   0.791   5.496
 7187TIP3    H221439   5.637   0.943   5.493
 7188TIP3   OH221440   4.944   0.259   4.811
 7188TIP3    H121441   4.862   0.309   4.792
 7188TIP3    H221442   4.989   0.258   4.724
 7189TIP3   OH221443   4.901   0.048   4.528
 7189TIP3    H121444   4.974   0.093   4.574
 7189TIP3    H221445   4.952  -0.018   4.477
 7190TIP3   OH221446   5.848   0.501   5.396
 7190TIP3    H121447   5.766   0.556   5.403
 7190TIP3    H221448   5.877   0.524   5.306
 7191TIP3   OH221449   5.293   0.345   4.781
 7191TIP3    H121450   5.238   0.370   4.858
 7191TIP3    H221451   5.376   0.317   4.826
 7192TIP3   OH221452   5.525   0.390   5.692
 7192TIP3    H121453   5.522   0.476   5.738
 7192TIP3    H221454   5.439   0.393   5.646
 7193TIP3   OH221455   4.527   0.344   5.193
 7193TIP3    H121456   4.495   0.279   5.127
 7193TIP3    H221457   4.607   0.298   5.229
 7194TIP3   OH221458   5.192   0.952   5.331
 7194TIP3    H121459   5.173   1.027   5.390
 7194TIP3    H221460   5.173   0.875   5.389
 7195TIP3   OH221461   4.810   0.878   5.887
 7195TIP3    H121462   4.748   0.940   5.930
 7195TIP3    H221463   4.745   0.821   5.840
 7196TIP3   OH221464   5.137   0.194   4.610
 7196TIP3    H121465   5.195   0.253   4.664
 7196TIP3    H221466   5.162   0.223   4.519
 7197TIP3   OH221467   4.547   0.421   5.993
 7197TIP3    H121468   4.555   0.513   6.024
 7197TIP3    H221469   4.451   0.412   5.986
 7198TIP3   OH221470   4.879   0.881   4.874
 7198TIP3    H121471   4.953   0.935   4.906
 7198TIP3    H221472   4.813   0.947   4.849
 7199TIP3   OH221473   4.594   1.043   5.964
 7199TIP3    H121474   4.562   1.031   5.873
 7199TIP3    H221475   4.515   1.018   6.017
 7200TIP3   OH221476   4.398   0.181   4.988
 7200TIP3    H121477   4.324   0.225   4.942
 7200TIP3    H221478   4.356   0.101   5.022
 7201TIP3   OH221479   5.447   0.810   4.203
 7201TIP3    H121480   5.455   0.907   4.192
 7201TIP3    H221481   5.540   0.782   4.192
 7202TIP3   OH221482   4.169   0.567   5.912
 7202TIP3    H121483   4.103   0.545   5.842
 7202TIP3    H221484   4.208   0.479   5.933
 7203TIP3   OH221485   4.027   0.768   5.539
 7203TIP3    H121486   4.122   0.749   5.534
 7203TIP3    H221487   4.026   0.839   5.605
 7204TIP3   OH221488   5.891   1.214   5.598
 7204TIP3    H121489   5.890   1.117   5.611
 7204TIP3    H221490   5.807   1.237   5.645
 7205TIP3   OH221491   4.999   1.000   5.733
 7205TIP3    H121492   4.996   1.093   5.766
 7205TIP3    H221493   4.929   0.959   5.789
 7206TIP3   OH221494   4.757   1.131   4.685
 7206TIP3    H121495   4.709   1.112   4.603
 7206TIP3    H221496   4.724   1.220   4.709
 7207TIP3   OH221497   4.196   0.977   5.072
 7207TIP3    H121498   4.243   0.966   5.158
 7207TIP3    H221499   4.143   0.895   5.071
 7208TIP3   OH221500   4.960   1.030   4.327
 7208TIP3    H121501   5.018   0.959   4.292
 7208TIP3    H221502   4.993   1.039   4.419
 7209TIP3   OH221503   5.009   1.077   4.597
 7209TIP3    H121504   4.920   1.087   4.639
 7209TIP3    H221505   5.058   1.033   4.669
 7210TIP3   OH221506   5.783   0.336   5.888
 7210TIP3    H121507   5.712   0.374   5.834
 7210TIP3    H221508   5.807   0.256   5.839
 7211TIP3   OH221509   4.363   0.759   5.908
 7211TIP3    H121510   4.421   0.737   5.985
 7211TIP3    H221511   4.295   0.689   5.913
 7212TIP3   OH221512   5.450   0.204   5.886
 7212TIP3    H121513   5.504   0.126   5.869
 7212TIP3    H221514   5.472   0.263   5.811
 7213TIP3   OH221515   5.210   0.246   4.352
 7213TIP3    H121516   5.178   0.221   4.264
 7213TIP3    H221517   5.287   0.301   4.329
 7214TIP3   OH221518   4.710   0.099   5.695
 7214TIP3    H121519   4.661   0.119   5.778
 7214TIP3    H221520   4.703   0.185   5.649
 7215TIP3   OH221521   4.581  -0.020   5.215
 7215TIP3    H121522   4.497  -0.060   5.241
 7215TIP3    H221523   4.599  -0.063   5.129
 7216TIP3   OH221524   5.088   0.064   4.943
 7216TIP3    H121525   5.034   0.137   4.903
 7216TIP3    H221526   5.136   0.031   4.864
 7217TIP3   OH221527   5.259   0.394   5.996
 7217TIP3    H121528   5.249   0.345   6.081
 7217TIP3    H221529   5.355   0.386   5.984
 7218TIP3   OH221530   5.244   0.093   5.185
 7218TIP3    H121531   5.185   0.131   5.117
 7218TIP3    H221532   5.275   0.014   5.138
 7219TIP3   OH221533   4.544   0.124   5.914
 7219TIP3    H121534   4.549   0.197   5.978
 7219TIP3    H221535   4.478   0.065   5.952
 7220TIP3   OH221536   5.258   0.342   5.618
 7220TIP3    H121537   5.283   0.271   5.554
 7220TIP3    H221538   5.220   0.289   5.690
 7221TIP3   OH221539   4.346  -0.150   5.286
 7221TIP3    H121540   4.252  -0.126   5.266
 7221TIP3    H221541   4.346  -0.243   5.259
 7222TIP3   OH221542   4.634  -0.147   4.976
 7222TIP3    H121543   4.722  -0.146   4.937
 7222TIP3    H221544   4.575  -0.138   4.898
 7223TIP3   OH221545   4.462  -0.117   4.755
 7223TIP3    H121546   4.400  -0.163   4.694
 7223TIP3    H221547   4.520  -0.075   4.689
 7224TIP3   OH221548   5.582   1.564   5.699
 7224TIP3    H121549   5.579   1.586   5.605
 7224TIP3    H221550   5.659   1.613   5.730
 7225TIP3   OH221551   4.535   0.674   6.120
 7225TIP3    H121552   4.616   0.705   6.164
 7225TIP3    H221553   4.472   0.675   6.195
 7226TIP3   OH221554   5.008   0.131   5.385
 7226TIP3    H121555   5.067   0.084   5.326
 7226TIP3    H221556   5.005   0.074   5.463
 7227TIP3   OH221557   4.976   0.003   5.702
 7227TIP3    H121558   4.893   0.052   5.688
 7227TIP3    H221559   5.034   0.070   5.742
 7228TIP3   OH221560   4.718   0.414   4.758
 7228TIP3    H121561   4.644   0.349   4.749
 7228TIP3    H221562   4.699   0.450   4.849
 7229TIP3   OH221563   5.617   0.650   5.392
 7229TIP3    H121564   5.641   0.699   5.310
 7229TIP3    H221565   5.531   0.609   5.367
 7230TIP3   OH221566   5.133   0.742   5.759
 7230TIP3    H121567   5.129   0.709   5.850
 7230TIP3    H221568   5.073   0.819   5.761
 7231TIP3   OH221569   5.232  -0.045   4.726
 7231TIP3    H121570   5.330  -0.038   4.735
 7231TIP3    H221571   5.212   0.032   4.669
 7232TIP3   OH221572   4.376   0.409   5.423
 7232TIP3    H121573   4.430   0.396   5.342
 7232TIP3    H221574   4.448   0.407   5.490
 7233TIP3   OH221575   4.858   0.563   4.576
 7233TIP3    H121576   4.812   0.650   4.587
 7233TIP3    H221577   4.806   0.507   4.638
 7234TIP3   OH221578   4.283   0.356   6.050
 7234TIP3    H121579   4.309   0.341   6.143
 7234TIP3    H221580   4.213   0.290   6.037
 7235TIP3   OH221581   5.005   0.473   6.070
 7235TIP3    H121582   4.943   0.418   6.019
 7235TIP3    H221583   5.091   0.452   6.026
 7236TIP3   OH221584   5.279   1.006   5.648
 7236TIP3    H121585   5.184   0.989   5.662
 7236TIP3    H221586   5.302   1.050   5.733
 7237TIP3   OH221587   5.689   0.061   4.558
 7237TIP3    H121588   5.631   0.012   4.496
 7237TIP3    H221589   5.682   0.150   4.518
 7238TIP3   OH221590   5.905   0.926   5.642
 7238TIP3    H121591   5.807   0.917   5.634
 7238TIP3    H221592   5.932   0.895   5.553
 7239TIP3   OH221593   5.387   0.884   4.471
 7239TIP3    H121594   5.360   0.818   4.536
 7239TIP3    H221595   5.397   0.833   4.389
 7240TIP3   OH221596   5.386   0.512   5.311
 7240TIP3    H121597   5.292   0.485   5.324
 7240TIP3    H221598   5.419   0.433   5.264
 7241TIP3   OH221599   4.507   0.745   5.048
 7241TIP3    H121600   4.497   0.828   4.998
 7241TIP3    H221601   4.416   0.725   5.074
 7242TIP3   OH221602   4.072   0.042   4.764
 7242TIP3    H121603   4.121   0.125   4.785
 7242TIP3    H221604   3.996   0.051   4.826
 7243TIP3   OH221605   4.649   0.510   5.001
 7243TIP3    H121606   4.619   0.600   5.027
 7243TIP3    H221607   4.619   0.458   5.078
 7244TIP3   OH221608   4.775   1.084   5.526
 7244TIP3    H121609   4.821   1.157   5.480
 7244TIP3    H221610   4.849   1.043   5.575
 7245TIP3   OH221611   4.425   0.983   4.910
 7245TIP3    H121612   4.341   0.989   4.959
 7245TIP3    H221613   4.457   1.076   4.916
 7246TIP3   OH221614   5.182   0.720   5.490
 7246TIP3    H121615   5.168   0.719   5.588
 7246TIP3    H221616   5.253   0.656   5.480
 7247TIP3   OH221617   5.139   0.611   4.371
 7247TIP3    H121618   5.195   0.586   4.449
 7247TIP3    H221619   5.052   0.586   4.405
 7248TIP3   OH221620   5.417   1.253   5.543
 7248TIP3    H121621   5.341   1.192   5.540
 7248TIP3    H221622   5.396   1.314   5.468
 7249TIP3   OH221623   5.480   1.087   4.191
 7249TIP3    H121624   5.518   1.160   4.140
 7249TIP3    H221625   5.400   1.131   4.226
 7250TIP3   OH221626   5.302   0.540   4.581
 7250TIP3    H121627   5.289   0.479   4.656
 7250TIP3    H221628   5.399   0.542   4.575
 7251TIP3   OH221629   4.215   0.946   5.692
 7251TIP3    H121630   4.268   0.871   5.724
 7251TIP3    H221631   4.249   1.016   5.750
 7252TIP3   OH221632   4.504   0.591   4.370
 7252TIP3    H121633   4.524   0.499   4.345
 7252TIP3    H221634   4.489   0.582   4.466
 7253TIP3   OH221635   4.454   0.597   4.642
 7253TIP3    H121636   4.518   0.566   4.707
 7253TIP3    H221637   4.458   0.694   4.653
 7254TIP3   OH221638   4.184   0.288   4.845
 7254TIP3    H121639   4.120   0.333   4.904
 7254TIP3    H221640   4.203   0.360   4.782
 7255TIP3   OH221641   4.717   0.795   4.588
 7255TIP3    H121642   4.631   0.820   4.628
 7255TIP3    H221643   4.735   0.874   4.535
 7256TIP3   OH221644   4.931  -0.149   5.009
 7256TIP3    H121645   4.975  -0.064   4.987
 7256TIP3    H221646   4.886  -0.126   5.092
 7257TIP3   OH221647   5.171   0.174   5.834
 7257TIP3    H121648   5.177   0.251   5.893
 7257TIP3    H221649   5.261   0.138   5.845
 7258TIP3   OH221650   4.461   0.870   4.660
 7258TIP3    H121651   4.431   0.941   4.598
 7258TIP3    H221652   4.445   0.913   4.747
 7259TIP3   OH221653   5.469   0.274   5.181
 7259TIP3    H121654   5.395   0.212   5.198
 7259TIP3    H221655   5.543   0.230   5.230
 7260TIP3   OH221656   4.180   0.503   4.651
 7260TIP3    H121657   4.247   0.572   4.663
 7260TIP3    H221658   4.228   0.446   4.586
 7261TIP3   OH221659   4.097  -0.251   4.772
 7261TIP3    H121660   4.141  -0.164   4.771
 7261TIP3    H221661   4.015  -0.227   4.819
 7262TIP3   OH221662   5.435   1.229   5.133
 7262TIP3    H121663   5.393   1.275   5.058
 7262TIP3    H221664   5.529   1.246   5.112
 7263TIP3   OH221665   4.053   0.721   5.042
 7263TIP3    H121666   3.978   0.746   5.098
 7263TIP3    H221667   4.024   0.759   4.955
 7264TIP3   OH221668   4.207   1.255   6.110
 7264TIP3    H121669   4.293   1.253   6.157
 7264TIP3    H221670   4.185   1.160   6.110
 7265TIP3   OH221671   4.692   1.222   6.154
 7265TIP3    H121672   4.785   1.196   6.161
 7265TIP3    H221673   4.662   1.164   6.081
 7266TIP3   OH221674   4.668   0.795   4.281
 7266TIP3    H121675   4.612   0.727   4.325
 7266TIP3    H221676   4.745   0.742   4.258
 7267TIP3   OH221677   5.328   1.129   5.890
 7267TIP3    H121678   5.318   1.057   5.957
 7267TIP3    H221679   5.406   1.177   5.923
 7268TIP3   OH221680   5.107   0.836   4.196
 7268TIP3    H121681   5.148   0.771   4.256
 7268TIP3    H221682   5.166   0.836   4.119
 7269TIP3   OH221683   4.338   0.661   6.313
 7269TIP3    H121684   4.355   0.565   6.316
 7269TIP3    H221685   4.251   0.665   6.269
 7270TIP3   OH221686   4.317   0.313   4.505
 7270TIP3    H121687   4.369   0.278   4.580
 7270TIP3    H221688   4.386   0.316   4.437
 7271TIP3   OH221689   4.948   0.747   6.088
 7271TIP3    H121690   4.904   0.765   6.002
 7271TIP3    H221691   4.973   0.652   6.079
 7272TIP3   OH221692   4.821   0.512   4.310
 7272TIP3    H121693   4.825   0.527   4.407
 7272TIP3    H221694   4.823   0.414   4.307
 7273TIP3   OH221695   5.443   0.751   5.695
 7273TIP3    H121696   5.509   0.805   5.647
 7273TIP3    H221697   5.363   0.805   5.683
 7274TIP3   OH221698   4.451   0.388   6.300
 7274TIP3    H121699   4.531   0.344   6.269
 7274TIP3    H221700   4.481   0.422   6.387
 7275TIP3   OH221701   4.519   0.220   4.726
 7275TIP3    H121702   4.494   0.184   4.814
 7275TIP3    H221703   4.556   0.141   4.681
 7276TIP3   OH221704   4.794   0.319   5.935
 7276TIP3    H121705   4.708   0.366   5.939
 7276TIP3    H221706   4.832   0.355   5.851
 7277TIP3   OH221707   4.623   0.011   4.571
 7277TIP3    H121708   4.597   0.008   4.477
 7277TIP3    H221709   4.720   0.017   4.563
 7278TIP3   OH221710   5.312   0.689   6.097
 7278TIP3    H121711   5.383   0.655   6.041
 7278TIP3    H221712   5.304   0.619   6.164
 7279TIP3   OH221713   5.448   0.341   4.228
 7279TIP3    H121714   5.424   0.295   4.146
 7279TIP3    H221715   5.416   0.432   4.207
 7280TIP3   OH221716   4.870   0.119   6.091
 7280TIP3    H121717   4.884   0.047   6.026
 7280TIP3    H221718   4.838   0.191   6.031
 7281TIP3   OH221719   4.949   0.418   5.736
 7281TIP3    H121720   5.025   0.421   5.677
 7281TIP3    H221721   4.878   0.459   5.683
 7282TIP3   OH221722   5.535   0.371   6.154
 7282TIP3    H121723   5.569   0.282   6.136
 7282TIP3    H221724   5.599   0.428   6.110
 7283TIP3   OH221725   5.574   0.608   5.879
 7283TIP3    H121726   5.514   0.662   5.823
 7283TIP3    H221727   5.660   0.632   5.838
 7284TIP3   OH221728   4.765   0.209   6.327
 7284TIP3    H121729   4.696   0.141   6.325
 7284TIP3    H221730   4.814   0.186   6.245
 7285TIP3   OH221731   5.232   0.231   6.203
 7285TIP3    H121732   5.185   0.208   6.285
 7285TIP3    H221733   5.242   0.144   6.161
 7286TIP3   OH221734   4.431   1.072   4.471
 7286TIP3    H121735   4.526   1.068   4.452
 7286TIP3    H221736   4.401   1.124   4.394
 7287TIP3   OH221737   3.912   0.457   4.684
 7287TIP3    H121738   4.008   0.477   4.675
 7287TIP3    H221739   3.907   0.366   4.646
 7288TIP3   OH221740   3.814   1.071   5.112
 7288TIP3    H121741   3.754   1.006   5.070
 7288TIP3    H221742   3.865   1.013   5.172
 7289TIP3   OH221743   3.959   0.921   5.290
 7289TIP3    H121744   3.952   0.844   5.350
 7289TIP3    H221745   4.012   0.980   5.346
 7290TIP3   OH221746   5.689   1.320   5.088
 7290TIP3    H121747   5.714   1.348   5.177
 7290TIP3    H221748   5.753   1.366   5.032
 7291TIP3   OH221749   5.721   1.338   5.369
 7291TIP3    H121750   5.673   1.252   5.366
 7291TIP3    H221751   5.792   1.313   5.430
 7292TIP3   OH221752   5.766   1.014   5.945
 7292TIP3    H121753   5.692   1.022   6.009
 7292TIP3    H221754   5.805   1.103   5.949
 7293TIP3   OH221755   5.583   0.526   4.562
 7293TIP3    H121756   5.652   0.591   4.537
 7293TIP3    H221757   5.623   0.487   4.643
 7294TIP3   OH221758   5.708   0.393   4.765
 7294TIP3    H121759   5.643   0.352   4.827
 7294TIP3    H221760   5.774   0.432   4.826
 7295TIP3   OH221761   5.763   0.787   5.201
 7295TIP3    H121762   5.816   0.722   5.152
 7295TIP3    H221763   5.749   0.857   5.134
 7296TIP3   OH221764   5.594   1.089   5.394
 7296TIP3    H121765   5.522   1.128   5.448
 7296TIP3    H221766   5.544   1.039   5.326
 7297TIP3   OH221767   5.644   0.299   4.414
 7297TIP3    H121768   5.574   0.310   4.347
 7297TIP3    H221769   5.622   0.375   4.472
 7298TIP3   OH221770   5.526  -0.033   4.360
 7298TIP3    H121771   5.482   0.035   4.308
 7298TIP3    H221772   5.469  -0.110   4.345
 7299TIP3   OH221773   5.523   0.253   4.915
 7299TIP3    H121774   5.531   0.156   4.917
 7299TIP3    H221775   5.508   0.273   5.010
 7300TIP3   OH221776   4.153   0.320   5.661
 7300TIP3    H121777   4.154   0.295   5.567
 7300TIP3    H221778   4.250   0.327   5.679
 7301TIP3   OH221779   5.818   0.671   5.771
 7301TIP3    H121780   5.891   0.607   5.757
 7301TIP3    H221781   5.838   0.739   5.705
 7302TIP3   OH221782   6.004   0.470   5.794
 7302TIP3    H121783   5.935   0.420   5.842
 7302TIP3    H221784   6.083   0.418   5.814
 7303TIP3   OH221785   5.504  -0.032   4.759
 7303TIP3    H121786   5.550  -0.068   4.838
 7303TIP3    H221787   5.578   0.004   4.707
 7304TIP3   OH221788   5.685   0.169   5.310
 7304TIP3    H121789   5.773   0.182   5.269
 7304TIP3    H221790   5.703   0.198   5.401
 7305TIP3   OH221791   5.744   0.297   5.552
 7305TIP3    H121792   5.662   0.339   5.585
 7305TIP3    H221793   5.781   0.369   5.496
 7306TIP3   OH221794   4.143  -0.018   5.745
 7306TIP3    H121795   4.188  -0.026   5.658
 7306TIP3    H221796   4.159   0.075   5.765
 7307TIP3   OH221797   5.272   1.186   4.744
 7307TIP3    H121798   5.326   1.171   4.664
 7307TIP3    H221799   5.327   1.250   4.793
 7308TIP3   OH221800   4.375   0.992   6.135
 7308TIP3    H121801   4.285   0.961   6.112
 7308TIP3    H221802   4.379   0.969   6.229
 7309TIP3   OH221803   4.545   1.034   5.681
 7309TIP3    H121804   4.505   1.113   5.638
 7309TIP3    H221805   4.632   1.036   5.638
 7310TIP3   OH221806   4.996   1.267   5.818
 7310TIP3    H121807   5.039   1.266   5.906
 7310TIP3    H221808   5.063   1.316   5.766
 7311TIP3   OH221809   5.175   1.419   5.674
 7311TIP3    H121810   5.244   1.363   5.634
 7311TIP3    H221811   5.228   1.474   5.735
 7312TIP3   OH221812   4.228   1.280   5.698
 7312TIP3    H121813   4.139   1.316   5.679
 7312TIP3    H221814   4.238   1.306   5.791
 7313TIP3   OH221815   4.465   1.266   5.559
 7313TIP3    H121816   4.378   1.274   5.604
 7313TIP3    H221817   4.442   1.294   5.468
 7314TIP3   OH221818   4.892   1.288   5.356
 7314TIP3    H121819   4.820   1.308   5.293
 7314TIP3    H221820   4.903   1.374   5.401
 7315TIP3   OH221821   5.159   1.230   5.410
 7315TIP3    H121822   5.064   1.242   5.390
 7315TIP3    H221823   5.198   1.307   5.367
 7316TIP3   OH221824   5.372   1.420   5.326
 7316TIP3    H121825   5.354   1.503   5.276
 7316TIP3    H221826   5.393   1.357   5.253
 7317TIP3   OH221827   4.139   1.070   5.450
 7317TIP3    H121828   4.167   1.045   5.541
 7317TIP3    H221829   4.211   1.026   5.399
 7318TIP3   OH221830   4.335   0.938   5.309
 7318TIP3    H121831   4.356   0.853   5.354
 7318TIP3    H221832   4.424   0.979   5.304
 7319TIP3   OH221833   4.599   1.045   5.305
 7319TIP3    H121834   4.643   0.964   5.274
 7319TIP3    H221835   4.644   1.058   5.391
 7320TIP3   OH221836   3.928   0.842   4.836
 7320TIP3    H121837   3.842   0.809   4.804
 7320TIP3    H221838   3.917   0.937   4.815
 7321TIP3   OH221839   4.699   1.031   4.420
 7321TIP3    H121840   4.787   1.054   4.384
 7321TIP3    H221841   4.677   0.956   4.361
 7322TIP3   OH221842   5.422   1.151   4.513
 7322TIP3    H121843   5.412   1.053   4.501
 7322TIP3    H221844   5.373   1.183   4.434
 7323TIP3   OH221845   4.003   0.869   4.478
 7323TIP3    H121846   3.998   0.896   4.571
 7323TIP3    H221847   4.093   0.830   4.472
 7324TIP3   OH221848   5.646   1.295   5.701
 7324TIP3    H121849   5.566   1.262   5.654
 7324TIP3    H221850   5.624   1.390   5.706
 7325TIP3   OH221851   6.913   0.670   4.467
 7325TIP3    H121852   6.882   0.760   4.445
 7325TIP3    H221853   6.837   0.618   4.436
 7326TIP3   OH221854   6.912   0.668   4.849
 7326TIP3    H121855   6.942   0.633   4.934
 7326TIP3    H221856   6.867   0.589   4.813
 7327TIP3   OH221857   6.203   0.571   5.214
 7327TIP3    H121858   6.221   0.515   5.292
 7327TIP3    H221859   6.290   0.610   5.198
 7328TIP3   OH221860   7.159   0.968   4.529
 7328TIP3    H121861   7.136   0.896   4.589
 7328TIP3    H221862   7.175   1.041   4.591
 7329TIP3   OH221863   6.179   0.973   4.938
 7329TIP3    H121864   6.166   0.875   4.938
 7329TIP3    H221865   6.276   0.977   4.938
 7330TIP3   OH221866   5.880   0.165   4.731
 7330TIP3    H121867   5.834   0.249   4.746
 7330TIP3    H221868   5.815   0.119   4.673
 7331TIP3   OH221869   5.944   0.464   4.891
 7331TIP3    H121870   5.991   0.387   4.932
 7331TIP3    H221871   6.011   0.496   4.829
 7332TIP3   OH221872   6.804   1.433   4.547
 7332TIP3    H121873   6.850   1.361   4.499
 7332TIP3    H221874   6.791   1.394   4.634
 7333TIP3   OH221875   6.708   0.894   4.897
 7333TIP3    H121876   6.742   0.815   4.850
 7333TIP3    H221877   6.793   0.936   4.920
 7334TIP3   OH221878   7.124   0.403   4.930
 7334TIP3    H121879   7.154   0.315   4.956
 7334TIP3    H221880   7.091   0.387   4.840
 7335TIP3   OH221881   6.082   0.255   4.996
 7335TIP3    H121882   6.170   0.241   5.037
 7335TIP3    H221883   6.096   0.199   4.916
 7336TIP3   OH221884   6.535   0.456   4.799
 7336TIP3    H121885   6.624   0.421   4.817
 7336TIP3    H221886   6.487   0.375   4.770
 7337TIP3   OH221887   7.768   0.394   5.085
 7337TIP3    H121888   7.705   0.466   5.062
 7337TIP3    H221889   7.816   0.430   5.161
 7338TIP3   OH221890   6.807   0.892   4.336
 7338TIP3    H121891   6.759   0.862   4.258
 7338TIP3    H221892   6.759   0.974   4.358
 7339TIP3   OH221893   6.568   0.813   5.130
 7339TIP3    H121894   6.501   0.874   5.167
 7339TIP3    H221895   6.606   0.865   5.057
 7340TIP3   OH221896   6.326   0.180   5.072
 7340TIP3    H121897   6.358   0.178   5.165
 7340TIP3    H221898   6.389   0.125   5.024
 7341TIP3   OH221899   6.391   1.005   5.221
 7341TIP3    H121900   6.362   1.091   5.184
 7341TIP3    H221901   6.313   0.986   5.278
 7342TIP3   OH221902   5.786   0.697   4.458
 7342TIP3    H121903   5.743   0.724   4.376
 7342TIP3    H221904   5.816   0.782   4.495
 7343TIP3   OH221905   7.226   1.213   4.697
 7343TIP3    H121906   7.139   1.198   4.741
 7343TIP3    H221907   7.209   1.298   4.654
 7344TIP3   OH221908   6.929   1.260   4.377
 7344TIP3    H121909   6.976   1.177   4.354
 7344TIP3    H221910   6.987   1.325   4.331
 7345TIP3   OH221911   7.069   1.045   4.278
 7345TIP3    H121912   7.028   0.967   4.240
 7345TIP3    H221913   7.106   1.009   4.362
 7346TIP3   OH221914   7.450   1.127   5.041
 7346TIP3    H121915   7.439   1.047   4.984
 7346TIP3    H221916   7.434   1.200   4.978
 7347TIP3   OH221917   6.743   0.521   4.298
 7347TIP3    H121918   6.660   0.567   4.277
 7347TIP3    H221919   6.785   0.513   4.211
 7348TIP3   OH221920   6.695   0.308   4.018
 7348TIP3    H121921   6.772   0.350   4.060
 7348TIP3    H221922   6.741   0.238   3.967
 7349TIP3   OH221923   7.645   0.760   4.889
 7349TIP3    H121924   7.562   0.812   4.894
 7349TIP3    H221925   7.673   0.779   4.798
 7350TIP3   OH221926   7.089   0.603   4.269
 7350TIP3    H121927   7.034   0.627   4.348
 7350TIP3    H221928   7.172   0.573   4.313
 7351TIP3   OH221929   7.321   0.646   5.176
 7351TIP3    H121930   7.317   0.730   5.225
 7351TIP3    H221931   7.234   0.650   5.129
 7352TIP3   OH221932   6.325   0.602   4.683
 7352TIP3    H121933   6.281   0.542   4.619
 7352TIP3    H221934   6.397   0.544   4.716
 7353TIP3   OH221935   6.454   1.016   4.832
 7353TIP3    H121936   6.429   0.966   4.753
 7353TIP3    H221937   6.542   0.979   4.852
 7354TIP3   OH221938   6.435   0.593   5.022
 7354TIP3    H121939   6.478   0.558   4.941
 7354TIP3    H221940   6.495   0.666   5.049
 7355TIP3   OH221941   6.988   1.207   4.819
 7355TIP3    H121942   6.970   1.285   4.875
 7355TIP3    H221943   6.970   1.132   4.880
 7356TIP3   OH221944   6.595   1.128   5.363
 7356TIP3    H121945   6.535   1.190   5.411
 7356TIP3    H221946   6.528   1.074   5.315
 7357TIP3   OH221947   6.934   0.450   4.099
 7357TIP3    H121948   6.993   0.508   4.152
 7357TIP3    H221949   6.958   0.477   4.007
 7358TIP3   OH221950   6.341   0.707   5.454
 7358TIP3    H121951   6.341   0.787   5.511
 7358TIP3    H221952   6.250   0.674   5.468
 7359TIP3   OH221953   6.674   1.138   4.369
 7359TIP3    H121954   6.750   1.195   4.391
 7359TIP3    H221955   6.610   1.200   4.332
 7360TIP3   OH221956   6.389   1.297   5.453
 7360TIP3    H121957   6.354   1.291   5.362
 7360TIP3    H221958   6.310   1.274   5.506
 7361TIP3   OH221959   6.189   0.450   4.490
 7361TIP3    H121960   6.115   0.482   4.434
 7361TIP3    H221961   6.164   0.358   4.508
 7362TIP3   OH221962   7.244   1.067   3.694
 7362TIP3    H121963   7.252   1.164   3.678
 7362TIP3    H221964   7.337   1.038   3.680
 7363TIP3   OH221965   5.968   0.833   5.394
 7363TIP3    H121966   5.901   0.806   5.328
 7363TIP3    H221967   6.001   0.747   5.428
 7364TIP3   OH221968   5.822   1.022   5.025
 7364TIP3    H121969   5.918   1.010   5.023
 7364TIP3    H221970   5.812   1.096   5.086
 7365TIP3   OH221971   7.685   1.468   5.084
 7365TIP3    H121972   7.687   1.372   5.101
 7365TIP3    H221973   7.604   1.493   5.132
 7366TIP3   OH221974   6.791   1.258   5.220
 7366TIP3    H121975   6.791   1.349   5.254
 7366TIP3    H221976   6.720   1.217   5.275
 7367TIP3   OH221977   6.554   1.387   4.173
 7367TIP3    H121978   6.507   1.363   4.090
 7367TIP3    H221979   6.518   1.475   4.193
 7368TIP3   OH221980   5.992   1.235   4.557
 7368TIP3    H121981   6.038   1.224   4.644
 7368TIP3    H221982   5.937   1.155   4.557
 7369TIP3   OH221983   6.756   1.287   3.815
 7369TIP3    H121984   6.814   1.216   3.777
 7369TIP3    H221985   6.790   1.294   3.906
 7370TIP3   OH221986   6.806   1.335   4.085
 7370TIP3    H121987   6.717   1.344   4.126
 7370TIP3    H221988   6.853   1.286   4.155
 7371TIP3   OH221989   7.580   0.597   5.376
 7371TIP3    H121990   7.505   0.629   5.325
 7371TIP3    H221991   7.596   0.510   5.339
 7372TIP3   OH221992   6.175   1.012   5.388
 7372TIP3    H121993   6.224   0.992   5.471
 7372TIP3    H221994   6.101   0.948   5.393
 7373TIP3   OH221995   7.257   0.464   5.379
 7373TIP3    H121996   7.288   0.375   5.356
 7373TIP3    H221997   7.267   0.514   5.296
 7374TIP3   OH221998   7.008   0.503   3.840
 7374TIP3    H121999   6.972   0.480   3.753
 7374TIP3    H222000   7.086   0.556   3.816
 7375TIP3   OH222001   6.555   0.392   5.169
 7375TIP3    H122002   6.496   0.344   5.230
 7375TIP3    H222003   6.492   0.445   5.116
 7376TIP3   OH222004   6.374   0.260   4.695
 7376TIP3    H122005   6.300   0.207   4.731
 7376TIP3    H222006   6.397   0.209   4.615
 7377TIP3   OH222007   6.886   0.325   4.430
 7377TIP3    H122008   6.831   0.396   4.390
 7377TIP3    H222009   6.931   0.288   4.352
 7378TIP3   OH222010   7.058   0.650   5.484
 7378TIP3    H122011   7.045   0.600   5.568
 7378TIP3    H222012   7.153   0.638   5.473
 7379TIP3   OH222013   7.045   0.351   4.668
 7379TIP3    H122014   6.983   0.378   4.597
 7379TIP3    H222015   7.074   0.266   4.633
 7380TIP3   OH222016   6.257   0.423   5.439
 7380TIP3    H122017   6.332   0.458   5.488
 7380TIP3    H222018   6.291   0.334   5.416
 7381TIP3   OH222019   7.052   0.599   5.099
 7381TIP3    H122020   7.080   0.525   5.040
 7381TIP3    H222021   7.013   0.549   5.174
 7382TIP3   OH222022   6.144   0.110   4.767
 7382TIP3    H122023   6.049   0.126   4.745
 7382TIP3    H222024   6.151   0.015   4.755
 7383TIP3   OH222025   6.434   0.127   4.461
 7383TIP3    H122026   6.519   0.105   4.422
 7383TIP3    H222027   6.373   0.122   4.385
 7384TIP3   OH222028   6.254   0.145   4.242
 7384TIP3    H122029   6.194   0.096   4.183
 7384TIP3    H222030   6.315   0.183   4.175
 7385TIP3   OH222031   7.378   1.821   5.187
 7385TIP3    H122032   7.377   1.844   5.093
 7385TIP3    H222033   7.458   1.868   5.218
 7386TIP3   OH222034   6.332   0.937   5.611
 7386TIP3    H122035   6.413   0.963   5.659
 7386TIP3    H222036   6.268   0.932   5.685
 7387TIP3   OH222037   6.806   0.389   4.874
 7387TIP3    H122038   6.853   0.326   4.818
 7387TIP3    H222039   6.798   0.339   4.956
 7388TIP3   OH222040   6.793   0.267   5.164
 7388TIP3    H122041   6.706   0.314   5.161
 7388TIP3    H222042   6.845   0.327   5.220
 7389TIP3   OH222043   6.512   0.672   4.246
 7389TIP3    H122044   6.440   0.605   4.237
 7389TIP3    H222045   6.495   0.705   4.338
 7390TIP3   OH222046   7.413   0.908   4.877
 7390TIP3    H122047   7.435   0.955   4.794
 7390TIP3    H222048   7.328   0.864   4.855
 7391TIP3   OH222049   6.927   1.000   5.242
 7391TIP3    H122050   6.928   0.957   5.328
 7391TIP3    H222051   6.872   1.079   5.257
 7392TIP3   OH222052   7.031   0.206   4.206
 7392TIP3    H122053   7.128   0.218   4.218
 7392TIP3    H222054   7.008   0.284   4.152
 7393TIP3   OH222055   6.193   0.695   4.916
 7393TIP3    H122056   6.236   0.667   4.832
 7393TIP3    H222057   6.245   0.644   4.980
 7394TIP3   OH222058   6.657   0.821   4.068
 7394TIP3    H122059   6.610   0.907   4.077
 7394TIP3    H222060   6.603   0.764   4.127
 7395TIP3   OH222061   6.071   0.633   5.547
 7395TIP3    H122062   6.110   0.606   5.632
 7395TIP3    H222063   6.031   0.549   5.517
 7396TIP3   OH222064   6.801   0.730   5.556
 7396TIP3    H122065   6.738   0.673   5.508
 7396TIP3    H222066   6.885   0.708   5.511
 7397TIP3   OH222067   7.073   1.262   5.133
 7397TIP3    H122068   6.979   1.246   5.150
 7397TIP3    H222069   7.099   1.305   5.217
 7398TIP3   OH222070   7.483   0.318   4.048
 7398TIP3    H122071   7.426   0.269   3.986
 7398TIP3    H222072   7.479   0.406   4.005
 7399TIP3   OH222073   7.700   1.179   5.131
 7399TIP3    H122074   7.602   1.173   5.122
 7399TIP3    H222075   7.727   1.149   5.041
 7400TIP3   OH222076   7.185   1.140   3.959
 7400TIP3    H122077   7.157   1.068   4.018
 7400TIP3    H222078   7.196   1.095   3.873
 7401TIP3   OH222079   7.179   0.770   4.797
 7401TIP3    H122080   7.086   0.743   4.809
 7401TIP3    H222081   7.214   0.690   4.751
 7402TIP3   OH222082   6.304   0.997   4.548
 7402TIP3    H122083   6.301   1.078   4.494
 7402TIP3    H222084   6.210   0.978   4.559
 7403TIP3   OH222085   5.868   0.299   4.251
 7403TIP3    H122086   5.917   0.382   4.271
 7403TIP3    H222087   5.792   0.307   4.313
 7404TIP3   OH222088   6.448   0.765   4.493
 7404TIP3    H122089   6.409   0.853   4.513
 7404TIP3    H222090   6.411   0.711   4.565
 7405TIP3   OH222091   6.574   1.341   5.018
 7405TIP3    H122092   6.617   1.413   4.968
 7405TIP3    H222093   6.650   1.305   5.068
 7406TIP3   OH222094   6.223   1.237   4.400
 7406TIP3    H122095   6.138   1.242   4.447
 7406TIP3    H222096   6.252   1.330   4.404
 7407TIP3   OH222097   6.965   0.976   4.974
 7407TIP3    H122098   6.956   0.978   5.072
 7407TIP3    H222099   7.040   0.915   4.963
 7408TIP3   OH222100   6.936   0.869   3.859
 7408TIP3    H122101   6.990   0.844   3.938
 7408TIP3    H222102   6.848   0.840   3.888
 7409TIP3   OH222103   7.214   1.508   5.028
 7409TIP3    H122104   7.137   1.447   5.027
 7409TIP3    H222105   7.192   1.570   4.956
 7410TIP3   OH222106   7.276   1.342   3.678
 7410TIP3    H122107   7.313   1.412   3.622
 7410TIP3    H222108   7.197   1.390   3.711
 7411TIP3   OH222109   7.097   0.804   4.075
 7411TIP3    H122110   7.086   0.736   4.145
 7411TIP3    H222111   7.194   0.800   4.063
 7412TIP3   OH222112   6.015   1.205   5.176
 7412TIP3    H122113   6.064   1.126   5.206
 7412TIP3    H222114   6.040   1.268   5.244
 7413TIP3   OH222115   6.303   0.849   3.858
 7413TIP3    H122116   6.317   0.757   3.829
 7413TIP3    H222117   6.284   0.836   3.953
 7414TIP3   OH222118   6.248   0.854   4.130
 7414TIP3    H122119   6.317   0.822   4.190
 7414TIP3    H222120   6.255   0.951   4.140
 7415TIP3   OH222121   5.980   0.544   4.331
 7415TIP3    H122122   5.917   0.590   4.390
 7415TIP3    H222123   5.999   0.616   4.267
 7416TIP3   OH222124   6.516   1.053   4.081
 7416TIP3    H122125   6.428   1.079   4.116
 7416TIP3    H222126   6.529   1.120   4.013
 7417TIP3   OH222127   6.729   0.106   4.494
 7417TIP3    H122128   6.769   0.194   4.478
 7417TIP3    H222129   6.682   0.120   4.577
 7418TIP3   OH222130   6.972   0.433   5.314
 7418TIP3    H122131   6.975   0.508   5.377
 7418TIP3    H222132   7.058   0.392   5.332
 7419TIP3   OH222133   6.259   1.128   4.147
 7419TIP3    H122134   6.228   1.197   4.085
 7419TIP3    H222135   6.241   1.170   4.234
 7420TIP3   OH222136   7.263   0.534   4.669
 7420TIP3    H122137   7.191   0.469   4.681
 7420TIP3    H222138   7.337   0.490   4.717
 7421TIP3   OH222139   5.976   0.759   4.138
 7421TIP3    H122140   6.044   0.827   4.148
 7421TIP3    H222141   6.021   0.701   4.073
 7422TIP3   OH222142   5.893   0.007   4.258
 7422TIP3    H122143   5.936   0.094   4.258
 7422TIP3    H222144   5.812   0.027   4.307
 7423TIP3   OH222145   7.239   1.489   4.620
 7423TIP3    H122146   7.194   1.536   4.547
 7423TIP3    H222147   7.330   1.485   4.588
 7424TIP3   OH222148   5.850   0.977   4.527
 7424TIP3    H122149   5.778   1.002   4.587
 7424TIP3    H222150   5.818   1.015   4.442
 7425TIP3   OH222151   6.003   1.512   5.596
 7425TIP3    H122152   6.089   1.509   5.644
 7425TIP3    H222153   5.979   1.417   5.596
 7426TIP3   OH222154   6.489   1.480   5.640
 7426TIP3    H122155   6.581   1.453   5.649
 7426TIP3    H222156   6.460   1.420   5.568
 7427TIP3   OH222157   6.467   1.053   3.773
 7427TIP3    H122158   6.410   0.981   3.811
 7427TIP3    H222159   6.542   1.000   3.740
 7428TIP3   OH222160   7.127   1.383   5.374
 7428TIP3    H122161   7.115   1.313   5.442
 7428TIP3    H222162   7.203   1.433   5.408
 7429TIP3   OH222163   6.903   1.095   3.684
 7429TIP3    H122164   6.946   1.029   3.741
 7429TIP3    H222165   6.958   1.093   3.603
 7430TIP3   OH222166   6.133   0.917   5.800
 7430TIP3    H122167   6.151   0.821   5.802
 7430TIP3    H222168   6.046   0.920   5.755
 7431TIP3   OH222169   6.111   0.570   3.992
 7431TIP3    H122170   6.164   0.533   4.065
 7431TIP3    H222171   6.180   0.574   3.922
 7432TIP3   OH222172   6.743   1.004   5.571
 7432TIP3    H122173   6.698   1.016   5.486
 7432TIP3    H222174   6.771   0.910   5.568
 7433TIP3   OH222175   6.620   0.770   3.799
 7433TIP3    H122176   6.622   0.782   3.896
 7433TIP3    H222177   6.622   0.672   3.795
 7434TIP3   OH222178   7.238   1.007   5.180
 7434TIP3    H122179   7.305   1.062   5.135
 7434TIP3    H222180   7.159   1.063   5.171
 7435TIP3   OH222181   6.254   0.650   5.781
 7435TIP3    H122182   6.323   0.586   5.761
 7435TIP3    H222183   6.281   0.681   5.870
 7436TIP3   OH222184   6.320   0.475   4.216
 7436TIP3    H122185   6.295   0.433   4.300
 7436TIP3    H222186   6.354   0.398   4.165
 7437TIP3   OH222187   6.579   0.578   5.429
 7437TIP3    H122188   6.496   0.630   5.427
 7437TIP3    H222189   6.615   0.589   5.339
 7438TIP3   OH222190   6.418   0.270   4.057
 7438TIP3    H122191   6.392   0.266   3.962
 7438TIP3    H222192   6.515   0.274   4.049
 7439TIP3   OH222193   7.109   0.946   5.582
 7439TIP3    H122194   7.181   0.911   5.529
 7439TIP3    H222195   7.098   0.877   5.650
 7440TIP3   OH222196   7.243   0.597   3.716
 7440TIP3    H122197   7.221   0.552   3.632
 7440TIP3    H222198   7.212   0.688   3.694
 7441TIP3   OH222199   6.672   0.377   5.576
 7441TIP3    H122200   6.673   0.302   5.513
 7441TIP3    H222201   6.631   0.447   5.521
 7442TIP3   OH222202   6.771   0.668   5.239
 7442TIP3    H122203   6.832   0.659   5.166
 7442TIP3    H222204   6.702   0.726   5.202
 7443TIP3   OH222205   7.333   0.627   5.645
 7443TIP3    H122206   7.358   0.537   5.620
 7443TIP3    H222207   7.396   0.682   5.596
 7444TIP3   OH222208   7.369   0.864   5.365
 7444TIP3    H122209   7.309   0.918   5.309
 7444TIP3    H222210   7.455   0.888   5.325
 7445TIP3   OH222211   6.566   0.466   5.811
 7445TIP3    H122212   6.492   0.402   5.806
 7445TIP3    H222213   6.614   0.441   5.730
 7446TIP3   OH222214   7.030   0.485   5.689
 7446TIP3    H122215   6.977   0.465   5.767
 7446TIP3    H222216   7.039   0.397   5.648
 7447TIP3   OH222217   6.229   1.334   3.961
 7447TIP3    H122218   6.323   1.326   3.939
 7447TIP3    H222219   6.197   1.378   3.880
 7448TIP3   OH222220   5.707   0.712   4.173
 7448TIP3    H122221   5.802   0.733   4.162
 7448TIP3    H222222   5.703   0.623   4.134
 7449TIP3   OH222223   5.623   1.324   4.589
 7449TIP3    H122224   5.555   1.262   4.554
 7449TIP3    H222225   5.667   1.267   4.655
 7450TIP3   OH222226   5.757   1.176   4.777
 7450TIP3    H122227   5.746   1.101   4.838
 7450TIP3    H222228   5.806   1.237   4.835
 7451TIP3   OH222229   7.546   1.595   4.551
 7451TIP3    H122230   7.543   1.602   4.649
 7451TIP3    H222231   7.506   1.680   4.528
 7452TIP3   OH222232   7.519   1.588   4.841
 7452TIP3    H122233   7.470   1.503   4.851
 7452TIP3    H222234   7.587   1.576   4.909
 7453TIP3   OH222235   7.560   1.271   5.431
 7453TIP3    H122236   7.488   1.279   5.496
 7453TIP3    H222237   7.602   1.360   5.436
 7454TIP3   OH222238   7.377   0.783   4.051
 7454TIP3    H122239   7.446   0.846   4.021
 7454TIP3    H222240   7.419   0.744   4.130
 7455TIP3   OH222241   7.504   0.653   4.255
 7455TIP3    H122242   7.440   0.608   4.314
 7455TIP3    H222243   7.572   0.687   4.317
 7456TIP3   OH222244   7.564   1.048   4.683
 7456TIP3    H122245   7.617   0.975   4.644
 7456TIP3    H222246   7.517   1.084   4.607
 7457TIP3   OH222247   7.389   1.345   4.879
 7457TIP3    H122248   7.321   1.385   4.937
 7457TIP3    H222249   7.334   1.294   4.815
 7458TIP3   OH222250   7.440   0.556   3.902
 7458TIP3    H122251   7.370   0.566   3.833
 7458TIP3    H222252   7.417   0.632   3.959
 7459TIP3   OH222253   7.323   0.227   3.847
 7459TIP3    H122254   7.276   0.295   3.798
 7459TIP3    H222255   7.281   0.146   3.814
 7460TIP3   OH222256   7.320   0.510   4.402
 7460TIP3    H122257   7.327   0.413   4.401
 7460TIP3    H222258   7.304   0.527   4.498
 7461TIP3   OH222259   5.942   0.583   5.145
 7461TIP3    H122260   5.941   0.551   5.052
 7461TIP3    H222261   6.039   0.586   5.162
 7462TIP3   OH222262   7.613   0.928   5.257
 7462TIP3    H122263   7.685   0.862   5.243
 7462TIP3    H222264   7.638   0.999   5.196
 7463TIP3   OH222265   7.798   0.727   5.269
 7463TIP3    H122266   7.729   0.678   5.319
 7463TIP3    H222267   7.879   0.685   5.302
 7464TIP3   OH222268   7.300   0.228   4.249
 7464TIP3    H122269   7.346   0.189   4.326
 7464TIP3    H222270   7.374   0.259   4.194
 7465TIP3   OH222271   7.481   0.433   4.795
 7465TIP3    H122272   7.570   0.442   4.755
 7465TIP3    H222273   7.502   0.449   4.888
 7466TIP3   OH222274   7.545   0.552   5.044
 7466TIP3    H122275   7.461   0.592   5.074
 7466TIP3    H222276   7.580   0.623   4.986
 7467TIP3   OH222277   5.936   0.237   5.230
 7467TIP3    H122278   5.981   0.229   5.143
 7467TIP3    H222279   5.968   0.323   5.258
 7468TIP3   OH222280   7.071   1.442   4.234
 7468TIP3    H122281   7.117   1.423   4.150
 7468TIP3    H222282   7.126   1.512   4.271
 7469TIP3   OH222283   6.170   1.247   5.620
 7469TIP3    H122284   6.079   1.218   5.601
 7469TIP3    H222285   6.178   1.224   5.713
 7470TIP3   OH222286   6.348   1.277   5.168
 7470TIP3    H122287   6.298   1.351   5.129
 7470TIP3    H222288   6.433   1.291   5.122
 7471TIP3   OH222289   6.793   1.523   5.304
 7471TIP3    H122290   6.835   1.522   5.393
 7471TIP3    H222291   6.860   1.573   5.253
 7472TIP3   OH222292   6.972   1.675   5.161
 7472TIP3    H122293   7.043   1.620   5.124
 7472TIP3    H222294   7.023   1.732   5.223
 7473TIP3   OH222295   6.026   1.540   5.186
 7473TIP3    H122296   5.936   1.572   5.165
 7473TIP3    H222297   6.031   1.563   5.279
 7474TIP3   OH222298   6.262   1.516   5.047
 7474TIP3    H122299   6.176   1.527   5.094
 7474TIP3    H222300   6.239   1.545   4.957
 7475TIP3   OH222301   6.688   1.543   4.843
 7475TIP3    H122302   6.615   1.562   4.781
 7475TIP3    H222303   6.698   1.630   4.888
 7476TIP3   OH222304   6.955   1.484   4.893
 7476TIP3    H122305   6.860   1.497   4.876
 7476TIP3    H222306   6.993   1.565   4.856
 7477TIP3   OH222307   7.166   1.677   4.814
 7477TIP3    H122308   7.149   1.761   4.765
 7477TIP3    H222309   7.189   1.615   4.742
 7478TIP3   OH222310   5.938   1.331   4.935
 7478TIP3    H122311   5.963   1.302   5.026
 7478TIP3    H222312   6.008   1.285   4.884
 7479TIP3   OH222313   6.130   1.200   4.791
 7479TIP3    H122314   6.143   1.115   4.840
 7479TIP3    H222315   6.222   1.234   4.788
 7480TIP3   OH222316   6.399   1.296   4.792
 7480TIP3    H122317   6.426   1.203   4.781
 7480TIP3    H222318   6.441   1.314   4.878
 7481TIP3   OH222319   5.725   1.098   4.322
 7481TIP3    H122320   5.639   1.065   4.290
 7481TIP3    H222321   5.712   1.194   4.308
 7482TIP3   OH222322   6.495   1.290   3.906
 7482TIP3    H122323   6.584   1.311   3.870
 7482TIP3    H222324   6.473   1.214   3.847
 7483TIP3   OH222325   7.214   1.406   4.001
 7483TIP3    H122326   7.207   1.309   3.987
 7483TIP3    H222327   7.171   1.440   3.920
 7484TIP3   OH222328   5.801   1.128   3.965
 7484TIP3    H122329   5.797   1.148   4.060
 7484TIP3    H222330   5.889   1.085   3.955
 7485TIP3   OH222331   7.442   1.552   5.186
 7485TIP3    H122332   7.361   1.520   5.142
 7485TIP3    H222333   7.421   1.647   5.194
 7486TIP3   OH222334   8.674   0.932   4.329
 7486TIP3    H122335   8.713   0.879   4.400
 7486TIP3    H222336   8.689   0.872   4.252
 7487TIP3   OH222337   8.002   0.825   4.703
 7487TIP3    H122338   8.037   0.758   4.765
 7487TIP3    H222339   8.085   0.867   4.675
 7488TIP3   OH222340   8.949   1.233   4.009
 7488TIP3    H122341   8.938   1.156   4.065
 7488TIP3    H222342   8.981   1.299   4.074
 7489TIP3   OH222343   7.977   1.231   4.429
 7489TIP3    H122344   7.968   1.133   4.429
 7489TIP3    H222345   8.074   1.236   4.418
 7490TIP3   OH222346   7.675   0.422   4.219
 7490TIP3    H122347   7.629   0.507   4.230
 7490TIP3    H222348   7.613   0.374   4.161
 7491TIP3   OH222349   7.746   0.717   4.382
 7491TIP3    H122350   7.794   0.640   4.420
 7491TIP3    H222351   7.806   0.743   4.311
 7492TIP3   OH222352   8.600   1.683   4.037
 7492TIP3    H122353   8.639   1.612   3.982
 7492TIP3    H222354   8.604   1.642   4.124
 7493TIP3   OH222355   8.502   1.149   4.387
 7493TIP3    H122356   8.540   1.066   4.350
 7493TIP3    H222357   8.587   1.195   4.403
 7494TIP3   OH222358   8.906   0.665   4.408
 7494TIP3    H122359   8.948   0.579   4.421
 7494TIP3    H222360   8.897   0.671   4.310
 7495TIP3   OH222361   7.890   0.509   4.490
 7495TIP3    H122362   7.972   0.485   4.538
 7495TIP3    H222363   7.905   0.456   4.409
 7496TIP3   OH222364   8.325   0.714   4.292
 7496TIP3    H122365   8.419   0.688   4.304
 7496TIP3    H222366   8.286   0.630   4.259
 7497TIP3   OH222367   8.624   1.181   3.793
 7497TIP3    H122368   8.573   1.099   3.790
 7497TIP3    H222369   8.556   1.245   3.825
 7498TIP3   OH222370   8.360   1.068   4.613
 7498TIP3    H122371   8.298   1.135   4.648
 7498TIP3    H222372   8.403   1.116   4.538
 7499TIP3   OH222373   8.129   0.417   4.584
 7499TIP3    H122374   8.195   0.485   4.609
 7499TIP3    H222375   8.172   0.374   4.509
 7500TIP3   OH222376   8.186   1.263   4.710
 7500TIP3    H122377   8.155   1.345   4.667
 7500TIP3    H222378   8.109   1.245   4.768
 7501TIP3   OH222379   7.578   0.952   3.945
 7501TIP3    H122380   7.541   0.975   3.858
 7501TIP3    H222381   7.611   1.037   3.978
 7502TIP3   OH222382   9.010   1.453   4.182
 7502TIP3    H122383   8.918   1.454   4.217
 7502TIP3    H222384   9.016   1.538   4.137
 7503TIP3   OH222385   8.714   1.505   3.858
 7503TIP3    H122386   8.774   1.429   3.845
 7503TIP3    H222387   8.771   1.578   3.824
 7504TIP3   OH222388   8.872   1.281   3.751
 7504TIP3    H122389   8.784   1.238   3.758
 7504TIP3    H222390   8.909   1.260   3.839
 7505TIP3   OH222391   8.491   0.726   3.751
 7505TIP3    H122392   8.446   0.812   3.749
 7505TIP3    H222393   8.580   0.746   3.716
 7506TIP3   OH222394   8.485   0.565   3.492
 7506TIP3    H122395   8.538   0.612   3.559
 7506TIP3    H222396   8.550   0.502   3.455
 7507TIP3   OH222397   9.125   0.904   4.657
 7507TIP3    H122398   9.108   0.985   4.707
 7507TIP3    H222399   9.045   0.898   4.603
 7508TIP3   OH222400   8.118   0.859   4.175
 7508TIP3    H122401   8.075   0.799   4.111
 7508TIP3    H222402   8.193   0.803   4.206
 7509TIP3   OH222403   8.245   1.266   4.325
 7509TIP3    H122404   8.226   1.223   4.240
 7509TIP3    H222405   8.335   1.232   4.344
 7510TIP3   OH222406   8.246   0.828   4.532
 7510TIP3    H122407   8.281   0.797   4.445
 7510TIP3    H222408   8.299   0.908   4.548
 7511TIP3   OH222409   8.766   1.469   4.302
 7511TIP3    H122410   8.765   1.544   4.364
 7511TIP3    H222411   8.764   1.391   4.362
 7512TIP3   OH222412   8.391   1.386   4.852
 7512TIP3    H122413   8.331   1.446   4.900
 7512TIP3    H222414   8.326   1.329   4.805
 7513TIP3   OH222415   8.722   0.715   3.589
 7513TIP3    H122416   8.797   0.737   3.645
 7513TIP3    H222417   8.756   0.736   3.500
 7514TIP3   OH222418   8.139   0.951   4.950
 7514TIP3    H122419   8.143   1.033   5.002
 7514TIP3    H222420   8.045   0.928   4.957
 7515TIP3   OH222421   8.458   1.403   3.869
 7515TIP3    H122422   8.546   1.445   3.875
 7515TIP3    H222423   8.407   1.467   3.818
 7516TIP3   OH222424   8.181   1.554   4.937
 7516TIP3    H122425   8.142   1.540   4.849
 7516TIP3    H222426   8.105   1.533   4.996
 7517TIP3   OH222427   7.978   0.708   3.987
 7517TIP3    H122428   7.911   0.737   3.921
 7517TIP3    H222429   7.963   0.612   3.990
 7518TIP3   OH222430   7.764   1.084   4.885
 7518TIP3    H122431   7.701   1.059   4.816
 7518TIP3    H222432   7.804   0.998   4.911
 7519TIP3   OH222433   7.651   1.311   4.509
 7519TIP3    H122434   7.714   1.239   4.521
 7519TIP3    H222435   7.608   1.318   4.595
 7520TIP3   OH222436   8.586   1.515   4.706
 7520TIP3    H122437   8.587   1.607   4.741
 7520TIP3    H222438   8.518   1.474   4.764
 7521TIP3   OH222439   8.346   1.639   3.663
 7521TIP3    H122440   8.305   1.620   3.576
 7521TIP3    H222441   8.318   1.731   3.680
 7522TIP3   OH222442   7.788   1.493   4.050
 7522TIP3    H122443   7.829   1.482   4.138
 7522TIP3    H222444   7.738   1.409   4.042
 7523TIP3   OH222445   8.552   1.544   3.303
 7523TIP3    H122446   8.610   1.472   3.267
 7523TIP3    H222447   8.587   1.553   3.394
 7524TIP3   OH222448   8.600   1.593   3.573
 7524TIP3    H122449   8.512   1.599   3.617
 7524TIP3    H222450   8.652   1.549   3.642
 7525TIP3   OH222451   7.974   1.265   4.881
 7525TIP3    H122452   8.024   1.243   4.962
 7525TIP3    H222453   7.899   1.202   4.885
 7526TIP3   OH222454   8.804   0.755   3.324
 7526TIP3    H122455   8.781   0.735   3.232
 7526TIP3    H222456   8.852   0.838   3.315
 7527TIP3   OH222457   8.303   0.604   4.680
 7527TIP3    H122458   8.246   0.627   4.755
 7527TIP3    H222459   8.291   0.682   4.622
 7528TIP3   OH222460   8.169   0.515   4.182
 7528TIP3    H122461   8.096   0.459   4.215
 7528TIP3    H222462   8.196   0.465   4.102
 7529TIP3   OH222463   8.864   0.896   4.963
 7529TIP3    H122464   8.844   0.847   5.046
 7529TIP3    H222465   8.958   0.913   4.976
 7530TIP3   OH222466   8.118   0.644   4.882
 7530TIP3    H122467   8.146   0.696   4.959
 7530TIP3    H222468   8.087   0.561   4.920
 7531TIP3   OH222469   8.832   0.855   4.586
 7531TIP3    H122470   8.863   0.789   4.519
 7531TIP3    H222471   8.825   0.800   4.664
 7532TIP3   OH222472   7.940   0.366   4.260
 7532TIP3    H122473   7.846   0.380   4.237
 7532TIP3    H222474   7.950   0.271   4.243
 7533TIP3   OH222475   8.231   0.382   3.948
 7533TIP3    H122476   8.318   0.370   3.907
 7533TIP3    H222477   8.171   0.379   3.872
 7534TIP3   OH222478   8.048   0.403   3.729
 7534TIP3    H122479   7.991   0.353   3.668
 7534TIP3    H222480   8.110   0.442   3.663
 7535TIP3   OH222481   9.165   2.084   4.671
 7535TIP3    H122482   9.168   2.100   4.574
 7535TIP3    H222483   9.239   2.139   4.701
 7536TIP3   OH222484   8.130   1.188   5.099
 7536TIP3    H122485   8.212   1.217   5.145
 7536TIP3    H222486   8.067   1.188   5.173
 7537TIP3   OH222487   8.580   0.630   4.356
 7537TIP3    H122488   8.649   0.627   4.287
 7537TIP3    H222489   8.616   0.574   4.425
 7538TIP3   OH222490   8.562   0.505   4.695
 7538TIP3    H122491   8.485   0.557   4.663
 7538TIP3    H222492   8.625   0.575   4.721
 7539TIP3   OH222493   8.301   0.942   3.730
 7539TIP3    H122494   8.238   0.867   3.722
 7539TIP3    H222495   8.285   0.968   3.824
 7540TIP3   OH222496   8.717   1.248   4.731
 7540TIP3    H122497   8.729   1.222   4.823
 7540TIP3    H222498   8.672   1.334   4.737
 7541TIP3   OH222499   7.999   0.952   4.408
 7541TIP3    H122500   8.038   0.926   4.322
 7541TIP3    H222501   8.045   0.890   4.467
 7542TIP3   OH222502   8.447   1.075   3.539
 7542TIP3    H122503   8.410   1.163   3.558
 7542TIP3    H222504   8.400   1.021   3.606
 7543TIP3   OH222505   7.877   0.876   5.025
 7543TIP3    H122506   7.905   0.857   5.117
 7543TIP3    H222507   7.811   0.805   5.010
 7544TIP3   OH222508   8.604   0.986   5.040
 7544TIP3    H122509   8.541   0.928   4.994
 7544TIP3    H222510   8.687   0.963   4.993
 7545TIP3   OH222511   8.866   1.510   4.625
 7545TIP3    H122512   8.770   1.505   4.638
 7545TIP3    H222513   8.893   1.562   4.704
 7546TIP3   OH222514   8.975   1.381   3.433
 7546TIP3    H122515   8.959   1.342   3.520
 7546TIP3    H222516   8.959   1.307   3.374
 7547TIP3   OH222517   8.945   1.026   4.301
 7547TIP3    H122518   8.859   0.983   4.289
 7547TIP3    H222519   9.002   0.967   4.251
 7548TIP3   OH222520   8.097   1.261   4.049
 7548TIP3    H122521   8.107   1.335   3.986
 7548TIP3    H222522   8.009   1.229   4.027
 7549TIP3   OH222523   7.663   0.555   3.737
 7549TIP3    H122524   7.714   0.637   3.756
 7549TIP3    H222525   7.589   0.564   3.800
 7550TIP3   OH222526   8.237   1.025   3.981
 7550TIP3    H122527   8.205   1.112   4.008
 7550TIP3    H222528   8.207   0.968   4.055
 7551TIP3   OH222529   8.368   1.602   4.504
 7551TIP3    H122530   8.415   1.670   4.451
 7551TIP3    H222531   8.443   1.563   4.552
 7552TIP3   OH222532   8.020   1.496   3.887
 7552TIP3    H122533   7.935   1.505   3.933
 7552TIP3    H222534   8.053   1.588   3.889
 7553TIP3   OH222535   8.764   1.235   4.456
 7553TIP3    H122536   8.761   1.223   4.553
 7553TIP3    H222537   8.832   1.169   4.430
 7554TIP3   OH222538   8.722   1.125   3.353
 7554TIP3    H122539   8.783   1.091   3.422
 7554TIP3    H222540   8.636   1.105   3.394
 7555TIP3   OH222541   8.996   1.769   4.519
 7555TIP3    H122542   8.919   1.711   4.503
 7555TIP3    H222543   8.990   1.830   4.442
 7556TIP3   OH222544   8.899   1.038   3.551
 7556TIP3    H122545   8.859   1.020   3.637
 7556TIP3    H222546   8.980   1.087   3.577
 7557TIP3   OH222547   8.097   1.105   3.346
 7557TIP3    H122548   8.116   1.014   3.317
 7557TIP3    H222549   8.080   1.092   3.441
 7558TIP3   OH222550   8.044   1.109   3.621
 7558TIP3    H122551   8.122   1.077   3.668
 7558TIP3    H222552   8.053   1.206   3.628
 7559TIP3   OH222553   7.776   0.799   3.816
 7559TIP3    H122554   7.714   0.846   3.875
 7559TIP3    H222555   7.798   0.870   3.752
 7560TIP3   OH222556   8.311   1.310   3.569
 7560TIP3    H122557   8.224   1.338   3.602
 7560TIP3    H222558   8.329   1.379   3.504
 7561TIP3   OH222559   8.537   0.382   3.972
 7561TIP3    H122560   8.552   0.476   3.955
 7561TIP3    H222561   8.493   0.384   4.058
 7562TIP3   OH222562   8.756   0.675   4.818
 7562TIP3    H122563   8.794   0.751   4.867
 7562TIP3    H222564   8.835   0.625   4.790
 7563TIP3   OH222565   8.053   1.384   3.633
 7563TIP3    H122566   8.024   1.453   3.569
 7563TIP3    H222567   8.038   1.429   3.719
 7564TIP3   OH222568   7.773   1.017   3.625
 7564TIP3    H122569   7.845   1.082   3.634
 7564TIP3    H222570   7.816   0.957   3.560
 7565TIP3   OH222571   7.691   0.262   3.746
 7565TIP3    H122572   7.738   0.348   3.745
 7565TIP3    H222573   7.609   0.287   3.789
 7566TIP3   OH222574   9.045   1.745   4.117
 7566TIP3    H122575   9.011   1.795   4.040
 7566TIP3    H222576   9.124   1.698   4.079
 7567TIP3   OH222577   7.648   1.243   4.020
 7567TIP3    H122578   7.561   1.260   4.058
 7567TIP3    H222579   7.631   1.272   3.927
 7568TIP3   OH222580   7.798   1.767   5.089
 7568TIP3    H122581   7.885   1.768   5.134
 7568TIP3    H222582   7.781   1.671   5.085
 7569TIP3   OH222583   8.282   1.735   5.129
 7569TIP3    H122584   8.376   1.714   5.138
 7569TIP3    H222585   8.258   1.676   5.054
 7570TIP3   OH222586   8.262   1.310   3.260
 7570TIP3    H122587   8.206   1.238   3.298
 7570TIP3    H222588   8.338   1.258   3.228
 7571TIP3   OH222589   8.915   1.643   4.866
 7571TIP3    H122590   8.908   1.570   4.932
 7571TIP3    H222591   8.994   1.690   4.896
 7572TIP3   OH222592   8.694   1.346   3.179
 7572TIP3    H122593   8.733   1.270   3.227
 7572TIP3    H222594   8.741   1.346   3.093
 7573TIP3   OH222595   7.930   1.175   5.288
 7573TIP3    H122596   7.948   1.079   5.293
 7573TIP3    H222597   7.843   1.176   5.243
 7574TIP3   OH222598   7.908   0.826   3.482
 7574TIP3    H122599   7.963   0.790   3.554
 7574TIP3    H222600   7.975   0.830   3.410
 7575TIP3   OH222601   8.537   1.258   5.060
 7575TIP3    H122602   8.498   1.272   4.971
 7575TIP3    H222603   8.570   1.166   5.054
 7576TIP3   OH222604   8.407   1.020   3.277
 7576TIP3    H122605   8.415   1.037   3.373
 7576TIP3    H222606   8.410   0.921   3.277
 7577TIP3   OH222607   9.040   1.274   4.666
 7577TIP3    H122608   9.086   1.306   4.587
 7577TIP3    H222609   8.957   1.325   4.659
 7578TIP3   OH222610   8.047   0.903   5.269
 7578TIP3    H122611   8.125   0.851   5.246
 7578TIP3    H222612   8.074   0.935   5.359
 7579TIP3   OH222613   8.112   0.732   3.698
 7579TIP3    H122614   8.099   0.689   3.784
 7579TIP3    H222615   8.152   0.659   3.646
 7580TIP3   OH222616   8.384   0.833   4.912
 7580TIP3    H122617   8.301   0.885   4.909
 7580TIP3    H222618   8.431   0.860   4.829
 7581TIP3   OH222619   8.214   0.526   3.544
 7581TIP3    H122620   8.190   0.521   3.450
 7581TIP3    H222621   8.311   0.536   3.538
 7582TIP3   OH222622   8.901   1.200   5.068
 7582TIP3    H122623   8.976   1.171   5.014
 7582TIP3    H222624   8.898   1.133   5.138
 7583TIP3   OH222625   8.454   0.628   5.063
 7583TIP3    H122626   8.483   0.559   5.000
 7583TIP3    H222627   8.428   0.700   5.001
 7584TIP3   OH222628   8.558   0.912   4.718
 7584TIP3    H122629   8.638   0.913   4.662
 7584TIP3    H222630   8.501   0.978   4.673
 7585TIP3   OH222631   9.124   0.879   5.120
 7585TIP3    H122632   9.165   0.793   5.104
 7585TIP3    H222633   9.192   0.942   5.091
 7586TIP3   OH222634   9.174   1.137   4.854
 7586TIP3    H122635   9.113   1.188   4.796
 7586TIP3    H222636   9.254   1.142   4.800
 7587TIP3   OH222637   8.354   0.725   5.297
 7587TIP3    H122638   8.288   0.653   5.298
 7587TIP3    H222639   8.404   0.700   5.217
 7588TIP3   OH222640   8.821   0.743   5.174
 7588TIP3    H122641   8.781   0.721   5.260
 7588TIP3    H222642   8.838   0.655   5.136
 7589TIP3   OH222643   8.024   1.588   3.447
 7589TIP3    H122644   8.119   1.582   3.428
 7589TIP3    H222645   7.994   1.635   3.367
 7590TIP3   OH222646   7.505   0.967   3.665
 7590TIP3    H122647   7.599   0.990   3.649
 7590TIP3    H222648   7.499   0.879   3.622
 7591TIP3   OH222649   7.416   1.580   4.076
 7591TIP3    H122650   7.351   1.517   4.039
 7591TIP3    H222651   7.462   1.525   4.142
 7592TIP3   OH222652   7.544   1.447   4.278
 7592TIP3    H122653   7.568   1.354   4.296
 7592TIP3    H222654   7.546   1.481   4.369
 7593TIP3   OH222655   9.165   1.551   4.396
 7593TIP3    H122656   9.097   1.613   4.426
 7593TIP3    H222657   9.120   1.506   4.321
 7594TIP3   OH222658   7.739   0.843   4.631
 7594TIP3    H122659   7.741   0.806   4.540
 7594TIP3    H222660   7.836   0.845   4.651
 7595TIP3   OH222661   7.733   0.497   4.715
 7595TIP3    H122662   7.778   0.480   4.630
 7595TIP3    H222663   7.768   0.584   4.737
 7596TIP3   OH222664   8.843   1.713   3.747
 7596TIP3    H122665   8.884   1.686   3.661
 7596TIP3    H222666   8.915   1.766   3.784
 7597TIP3   OH222667   7.966   1.505   5.107
 7597TIP3    H122668   7.876   1.473   5.087
 7597TIP3    H222669   7.975   1.482   5.200
 7598TIP3   OH222670   8.134   1.531   4.641
 7598TIP3    H122671   8.100   1.616   4.610
 7598TIP3    H222672   8.226   1.537   4.606
 7599TIP3   OH222673   8.588   1.782   4.792
 7599TIP3    H122674   8.632   1.780   4.879
 7599TIP3    H222675   8.656   1.829   4.738
 7600TIP3   OH222676   8.767   1.931   4.647
 7600TIP3    H122677   8.837   1.880   4.603
 7600TIP3    H222678   8.820   1.987   4.708
 7601TIP3   OH222679   7.986   1.739   4.529
 7601TIP3    H122680   7.976   1.816   4.586
 7601TIP3    H222681   8.006   1.784   4.443
 7602TIP3   OH222682   8.477   1.799   4.336
 7602TIP3    H122683   8.421   1.824   4.261
 7602TIP3    H222684   8.499   1.886   4.376
 7603TIP3   OH222685   8.749   1.740   4.387
 7603TIP3    H122686   8.657   1.757   4.361
 7603TIP3    H222687   8.797   1.812   4.342
 7604TIP3   OH222688   8.947   1.924   4.300
 7604TIP3    H122689   8.935   2.011   4.256
 7604TIP3    H222690   8.986   1.870   4.228
 7605TIP3   OH222691   7.921   1.468   4.302
 7605TIP3    H122692   7.937   1.373   4.322
 7605TIP3    H222693   8.012   1.496   4.276
 7606TIP3   OH222694   8.188   1.551   4.288
 7606TIP3    H122695   8.218   1.462   4.261
 7606TIP3    H222696   8.248   1.565   4.363
 7607TIP3   OH222697   7.517   1.358   3.814
 7607TIP3    H122698   7.433   1.323   3.778
 7607TIP3    H222699   7.507   1.451   3.788
 7608TIP3   OH222700   8.292   1.546   3.395
 7608TIP3    H122701   8.380   1.568   3.359
 7608TIP3    H222702   8.269   1.471   3.336
 7609TIP3   OH222703   8.953   1.643   3.513
 7609TIP3    H122704   8.972   1.552   3.481
 7609TIP3    H222705   8.924   1.686   3.431
 7610TIP3   OH222706   7.597   1.382   3.452
 7610TIP3    H122707   7.601   1.408   3.545
 7610TIP3    H222708   7.685   1.339   3.437
 7611TIP3   OH222709   9.206   1.814   4.690
 7611TIP3    H122710   9.142   1.774   4.627
 7611TIP3    H222711   9.184   1.908   4.678
 7612TIP3   OH222712   1.162   1.713   5.645
 7612TIP3    H122713   1.133   1.804   5.625
 7612TIP3    H222714   1.085   1.662   5.612
 7613TIP3   OH222715   1.156   1.713   6.027
 7613TIP3    H122716   1.190   1.684   6.113
 7613TIP3    H222717   1.116   1.630   5.993
 7614TIP3   OH222718   0.501   1.649   6.408
 7614TIP3    H122719   0.530   1.564   6.445
 7614TIP3    H222720   0.580   1.676   6.358
 7615TIP3   OH222721   1.400   2.018   5.704
 7615TIP3    H122722   1.388   1.946   5.768
 7615TIP3    H222723   1.431   2.090   5.761
 7616TIP3   OH222724   0.429   2.014   6.117
 7616TIP3    H122725   0.421   1.916   6.120
 7616TIP3    H222726   0.526   2.022   6.107
 7617TIP3   OH222727   1.051   2.476   5.724
 7617TIP3    H122728   1.097   2.405   5.675
 7617TIP3    H222729   1.046   2.438   5.813
 7618TIP3   OH222730   0.957   1.936   6.076
 7618TIP3    H122731   0.995   1.860   6.029
 7618TIP3    H222732   1.041   1.982   6.099
 7619TIP3   OH222733   1.968   1.259   6.071
 7619TIP3    H122734   1.998   1.340   6.117
 7619TIP3    H222735   1.991   1.281   5.979
 7620TIP3   OH222736   1.372   1.440   6.106
 7620TIP3    H122737   1.412   1.354   6.125
 7620TIP3    H222738   1.338   1.425   6.015
 7621TIP3   OH222739   1.403   1.190   5.695
 7621TIP3    H122740   1.477   1.174   5.759
 7621TIP3    H222741   1.453   1.226   5.619
 7622TIP3   OH222742   0.793   1.509   5.974
 7622TIP3    H122743   0.886   1.481   5.989
 7622TIP3    H222744   0.754   1.423   5.945
 7623TIP3   OH222745   2.042   1.464   6.241
 7623TIP3    H122746   1.958   1.512   6.225
 7623TIP3    H222747   2.061   1.489   6.333
 7624TIP3   OH222748   1.052   1.934   5.514
 7624TIP3    H122749   1.000   1.905   5.438
 7624TIP3    H222750   1.008   2.018   5.537
 7625TIP3   OH222751   0.812   1.857   6.302
 7625TIP3    H122752   0.750   1.925   6.338
 7625TIP3    H222753   0.857   1.906   6.231
 7626TIP3   OH222754   1.615   1.189   5.867
 7626TIP3    H122755   1.599   1.148   5.953
 7626TIP3    H222756   1.667   1.268   5.892
 7627TIP3   OH222757   0.636   2.051   6.401
 7627TIP3    H122758   0.611   2.136   6.360
 7627TIP3    H222759   0.554   2.031   6.451
 7628TIP3   OH222760   0.073   1.752   5.623
 7628TIP3    H122761  -0.001   1.773   5.565
 7628TIP3    H222762   0.070   1.825   5.687
 7629TIP3   OH222763   1.472   2.256   5.875
 7629TIP3    H122764   1.381   2.248   5.913
 7629TIP3    H222765   1.465   2.342   5.830
 7630TIP3   OH222766   1.763   1.156   6.233
 7630TIP3    H122767   1.676   1.191   6.206
 7630TIP3    H222768   1.823   1.191   6.164
 7631TIP3   OH222769   1.178   2.303   5.556
 7631TIP3    H122770   1.226   2.222   5.531
 7631TIP3    H222771   1.226   2.369   5.502
 7632TIP3   OH222772   1.314   2.086   5.449
 7632TIP3    H122773   1.286   1.999   5.417
 7632TIP3    H222774   1.352   2.060   5.537
 7633TIP3   OH222775   1.698   2.171   6.218
 7633TIP3    H122776   1.688   2.093   6.159
 7633TIP3    H222777   1.682   2.245   6.156
 7634TIP3   OH222778   0.992   1.565   5.475
 7634TIP3    H122779   0.909   1.612   5.451
 7634TIP3    H222780   1.037   1.558   5.389
 7635TIP3   OH222781   0.949   1.345   5.198
 7635TIP3    H122782   1.020   1.396   5.240
 7635TIP3    H222783   1.003   1.283   5.145
 7636TIP3   OH222784   1.894   1.805   6.061
 7636TIP3    H122785   1.811   1.858   6.068
 7636TIP3    H222786   1.923   1.830   5.971
 7637TIP3   OH222787   1.337   1.647   5.446
 7637TIP3    H122788   1.283   1.670   5.525
 7637TIP3    H222789   1.420   1.619   5.489
 7638TIP3   OH222790   1.573   1.682   6.358
 7638TIP3    H122791   1.573   1.764   6.412
 7638TIP3    H222792   1.487   1.691   6.313
 7639TIP3   OH222793   0.582   1.659   5.874
 7639TIP3    H122794   0.539   1.604   5.804
 7639TIP3    H222795   0.657   1.601   5.900
 7640TIP3   OH222796   0.697   2.051   6.014
 7640TIP3    H122797   0.678   2.010   5.929
 7640TIP3    H222798   0.788   2.020   6.032
 7641TIP3   OH222799   0.694   1.632   6.198
 7641TIP3    H122800   0.734   1.599   6.114
 7641TIP3    H222801   0.752   1.709   6.220
 7642TIP3   OH222802   1.230   2.253   5.995
 7642TIP3    H122803   1.217   2.332   6.050
 7642TIP3    H222804   1.217   2.179   6.058
 7643TIP3   OH222805   0.844   2.172   6.542
 7643TIP3    H122806   0.785   2.236   6.587
 7643TIP3    H222807   0.778   2.119   6.492
 7644TIP3   OH222808   1.178   1.505   5.272
 7644TIP3    H122809   1.239   1.562   5.325
 7644TIP3    H222810   1.203   1.530   5.180
 7645TIP3   OH222811   0.603   1.738   6.652
 7645TIP3    H122812   0.591   1.828   6.688
 7645TIP3    H222813   0.525   1.727   6.595
 7646TIP3   OH222814   0.923   2.186   5.541
 7646TIP3    H122815   1.003   2.237   5.562
 7646TIP3    H222816   0.866   2.253   5.501
 7647TIP3   OH222817   0.637   2.339   6.629
 7647TIP3    H122818   0.605   2.341   6.537
 7647TIP3    H222819   0.555   2.317   6.679
 7648TIP3   OH222820   1.697   0.749   5.325
 7648TIP3    H122821   1.613   0.767   5.372
 7648TIP3    H222822   1.708   0.830   5.272
 7649TIP3   OH222823   0.474   1.517   5.666
 7649TIP3    H122824   0.401   1.562   5.620
 7649TIP3    H222825   0.432   1.430   5.681
 7650TIP3   OH222826   1.492   2.116   4.883
 7650TIP3    H122827   1.507   2.211   4.860
 7650TIP3    H222828   1.583   2.080   4.869
 7651TIP3   OH222829   0.060   2.061   6.218
 7651TIP3    H122830   0.150   2.034   6.196
 7651TIP3    H222831   0.079   2.144   6.266
 7652TIP3   OH222832   1.935   2.514   6.262
 7652TIP3    H122833   1.935   2.417   6.277
 7652TIP3    H222834   1.852   2.538   6.309
 7653TIP3   OH222835   1.042   2.302   6.399
 7653TIP3    H122836   1.041   2.395   6.431
 7653TIP3    H222837   0.972   2.262   6.453
 7654TIP3   OH222838   0.801   2.428   5.357
 7654TIP3    H122839   0.765   2.410   5.269
 7654TIP3    H222840   0.772   2.519   5.375
 7655TIP3   OH222841   0.241   2.280   5.734
 7655TIP3    H122842   0.289   2.270   5.819
 7655TIP3    H222843   0.182   2.203   5.738
 7656TIP3   OH222844   1.828   1.646   6.539
 7656TIP3    H122845   1.746   1.659   6.488
 7656TIP3    H222846   1.843   1.550   6.528
 7657TIP3   OH222847   0.415   2.037   6.569
 7657TIP3    H122848   0.474   2.039   6.646
 7657TIP3    H222849   0.339   1.987   6.603
 7658TIP3   OH222850   1.348   0.987   6.557
 7658TIP3    H122851   1.437   0.965   6.596
 7658TIP3    H222852   1.295   0.990   6.637
 7659TIP3   OH222853   1.592   1.418   6.455
 7659TIP3    H122854   1.547   1.415   6.542
 7659TIP3    H222855   1.570   1.508   6.423
 7660TIP3   OH222856   1.254   1.565   5.019
 7660TIP3    H122857   1.219   1.532   4.934
 7660TIP3    H222858   1.342   1.598   4.991
 7661TIP3   OH222859   0.955   0.930   5.326
 7661TIP3    H122860   0.920   0.940   5.417
 7661TIP3    H222861   0.949   0.834   5.319
 7662TIP3   OH222862   0.807   1.440   6.358
 7662TIP3    H122863   0.729   1.404   6.404
 7662TIP3    H222864   0.765   1.497   6.291
 7663TIP3   OH222865   0.672   1.282   5.889
 7663TIP3    H122866   0.586   1.243   5.912
 7663TIP3    H222867   0.680   1.251   5.796
 7664TIP3   OH222868   1.135   1.372   5.608
 7664TIP3    H122869   1.079   1.440   5.566
 7664TIP3    H222870   1.185   1.338   5.532
 7665TIP3   OH222871   1.304   1.646   6.693
 7665TIP3    H122872   1.289   1.571   6.755
 7665TIP3    H222873   1.396   1.669   6.714
 7666TIP3   OH222874   1.286   1.393   5.847
 7666TIP3    H122875   1.227   1.423   5.776
 7666TIP3    H222876   1.319   1.311   5.805
 7667TIP3   OH222877   1.294   1.640   6.269
 7667TIP3    H122878   1.328   1.569   6.210
 7667TIP3    H222879   1.267   1.587   6.347
 7668TIP3   OH222880   0.974   1.116   5.938
 7668TIP3    H122881   0.885   1.115   5.976
 7668TIP3    H222882   1.031   1.109   6.017
 7669TIP3   OH222883   0.668   1.184   5.636
 7669TIP3    H122884   0.763   1.171   5.615
 7669TIP3    H222885   0.624   1.170   5.550
 7670TIP3   OH222886   1.455   1.176   6.143
 7670TIP3    H122887   1.424   1.189   6.236
 7670TIP3    H222888   1.387   1.113   6.111
 7671TIP3   OH222889   0.513   1.157   5.402
 7671TIP3    H122890   0.432   1.147   5.348
 7671TIP3    H222891   0.569   1.208   5.340
 7672TIP3   OH222892   1.625   2.866   6.363
 7672TIP3    H122893   1.624   2.888   6.268
 7672TIP3    H222894   1.705   2.914   6.393
 7673TIP3   OH222895   0.586   1.987   6.785
 7673TIP3    H122896   0.677   2.020   6.800
 7673TIP3    H222897   0.559   1.976   6.877
 7674TIP3   OH222898   1.053   1.433   6.042
 7674TIP3    H122899   1.120   1.386   5.990
 7674TIP3    H222900   1.059   1.388   6.129
 7675TIP3   OH222901   1.038   1.316   6.309
 7675TIP3    H122902   0.956   1.362   6.337
 7675TIP3    H222903   1.103   1.356   6.370
 7676TIP3   OH222904   0.761   1.718   5.421
 7676TIP3    H122905   0.688   1.652   5.410
 7676TIP3    H222906   0.743   1.749   5.513
 7677TIP3   OH222907   1.661   1.952   6.054
 7677TIP3    H122908   1.687   2.001   5.972
 7677TIP3    H222909   1.576   1.912   6.029
 7678TIP3   OH222910   1.214   1.027   5.289
 7678TIP3    H122911   1.117   1.017   5.295
 7678TIP3    H222912   1.228   1.123   5.306
 7679TIP3   OH222913   1.156   2.032   6.422
 7679TIP3    H122914   1.193   2.013   6.509
 7679TIP3    H222915   1.124   2.123   6.430
 7680TIP3   OH222916   1.289   1.275   5.389
 7680TIP3    H122917   1.386   1.281   5.402
 7680TIP3    H222918   1.271   1.353   5.332
 7681TIP3   OH222919   0.448   1.734   6.105
 7681TIP3    H122920   0.480   1.713   6.015
 7681TIP3    H222921   0.518   1.693   6.158
 7682TIP3   OH222922   0.907   1.872   5.250
 7682TIP3    H122923   0.854   1.955   5.256
 7682TIP3    H222924   0.853   1.812   5.306
 7683TIP3   OH222925   1.059   1.767   6.740
 7683TIP3    H122926   1.007   1.722   6.671
 7683TIP3    H222927   1.150   1.741   6.713
 7684TIP3   OH222928   1.320   2.295   6.318
 7684TIP3    H122929   1.224   2.294   6.329
 7684TIP3    H222930   1.348   2.346   6.397
 7685TIP3   OH222931   1.734   1.366   5.224
 7685TIP3    H122932   1.669   1.321   5.165
 7685TIP3    H222933   1.728   1.455   5.181
 7686TIP3   OH222934   1.948   2.224   6.307
 7686TIP3    H122935   1.850   2.218   6.299
 7686TIP3    H222936   1.974   2.194   6.217
 7687TIP3   OH222937   1.366   2.163   5.124
 7687TIP3    H122938   1.416   2.117   5.194
 7687TIP3    H222939   1.422   2.146   5.045
 7688TIP3   OH222940   1.426   1.815   5.972
 7688TIP3    H122941   1.333   1.788   5.985
 7688TIP3    H222942   1.461   1.735   5.928
 7689TIP3   OH222943   0.554   2.043   5.726
 7689TIP3    H122944   0.555   2.125   5.673
 7689TIP3    H222945   0.459   2.026   5.733
 7690TIP3   OH222946   0.694   1.811   5.667
 7690TIP3    H122947   0.658   1.899   5.687
 7690TIP3    H222948   0.663   1.760   5.744
 7691TIP3   OH222949   0.823   2.385   6.195
 7691TIP3    H122950   0.863   2.458   6.144
 7691TIP3    H222951   0.901   2.351   6.242
 7692TIP3   OH222952   0.474   2.280   5.578
 7692TIP3    H122953   0.388   2.290   5.623
 7692TIP3    H222954   0.507   2.373   5.580
 7693TIP3   OH222955   1.212   2.021   6.152
 7693TIP3    H122956   1.202   2.017   6.250
 7693TIP3    H222957   1.291   1.968   6.139
 7694TIP3   OH222958   1.169   1.916   5.061
 7694TIP3    H122959   1.232   1.879   5.128
 7694TIP3    H222960   1.098   1.849   5.066
 7695TIP3   OH222961   1.459   2.556   6.206
 7695TIP3    H122962   1.381   2.498   6.197
 7695TIP3    H222963   1.445   2.619   6.132
 7696TIP3   OH222964   1.516   2.385   4.859
 7696TIP3    H122965   1.591   2.445   4.839
 7696TIP3    H222966   1.445   2.450   4.873
 7697TIP3   OH222967   1.344   1.847   5.255
 7697TIP3    H122968   1.337   1.777   5.323
 7697TIP3    H222969   1.441   1.845   5.239
 7698TIP3   OH222970   0.255   2.242   6.355
 7698TIP3    H122971   0.319   2.176   6.383
 7698TIP3    H222972   0.281   2.319   6.408
 7699TIP3   OH222973   0.556   1.894   5.035
 7699TIP3    H122974   0.565   1.802   5.003
 7699TIP3    H222975   0.534   1.880   5.129
 7700TIP3   OH222976   0.497   1.896   5.307
 7700TIP3    H122977   0.564   1.868   5.370
 7700TIP3    H222978   0.501   1.994   5.315
 7701TIP3   OH222979   0.246   1.577   5.515
 7701TIP3    H122980   0.185   1.631   5.570
 7701TIP3    H222981   0.262   1.640   5.443
 7702TIP3   OH222982   1.383   1.222   6.403
 7702TIP3    H122983   1.462   1.265   6.441
 7702TIP3    H222984   1.370   1.145   6.461
 7703TIP3   OH222985   1.268   0.982   5.562
 7703TIP3    H122986   1.249   1.005   5.470
 7703TIP3    H222987   1.304   1.066   5.598
 7704TIP3   OH222988   0.769   2.106   5.253
 7704TIP3    H122989   0.687   2.123   5.302
 7704TIP3    H222990   0.764   2.177   5.187
 7705TIP3   OH222991   0.958   1.172   5.673
 7705TIP3    H122992   1.022   1.243   5.655
 7705TIP3    H222993   0.962   1.166   5.771
 7706TIP3   OH222994   1.225   1.477   6.477
 7706TIP3    H122995   1.241   1.534   6.555
 7706TIP3    H222996   1.283   1.402   6.496
 7707TIP3   OH222997   1.108   0.888   5.769
 7707TIP3    H122998   1.079   0.964   5.822
 7707TIP3    H222999   1.165   0.930   5.701
 7708TIP3   OH223000   0.509   2.168   5.326
 7708TIP3    H123001   0.481   2.237   5.262
 7708TIP3    H223002   0.493   2.214   5.412
 7709TIP3   OH223003   1.859   1.380   6.457
 7709TIP3    H123004   1.761   1.377   6.462
 7709TIP3    H223005   1.874   1.337   6.372
 7710TIP3   OH223006   1.512   1.573   5.847
 7710TIP3    H123007   1.436   1.513   5.859
 7710TIP3    H223008   1.583   1.526   5.895
 7711TIP3   OH223009   0.219   1.802   5.312
 7711TIP3    H123010   0.284   1.873   5.325
 7711TIP3    H223011   0.267   1.747   5.247
 7712TIP3   OH223012   1.480   2.529   5.797
 7712TIP3    H123013   1.438   2.574   5.721
 7712TIP3    H223014   1.574   2.547   5.777
 7713TIP3   OH223015   0.098   2.029   5.724
 7713TIP3    H123016   0.010   2.061   5.750
 7713TIP3    H223017   0.094   2.048   5.628
 7714TIP3   OH223018   0.269   2.567   6.757
 7714TIP3    H123019   0.346   2.569   6.818
 7714TIP3    H223020   0.238   2.476   6.768
 7715TIP3   OH223021   0.732   2.523   6.820
 7715TIP3    H123022   0.827   2.504   6.831
 7715TIP3    H223023   0.710   2.464   6.745
 7716TIP3   OH223024   0.722   2.098   4.948
 7716TIP3    H123025   0.666   2.027   4.986
 7716TIP3    H223026   0.790   2.044   4.902
 7717TIP3   OH223027   1.371   2.429   6.555
 7717TIP3    H123028   1.363   2.357   6.621
 7717TIP3    H223029   1.451   2.476   6.585
 7718TIP3   OH223030   1.160   2.149   4.880
 7718TIP3    H123031   1.231   2.087   4.899
 7718TIP3    H223032   1.183   2.169   4.787
 7719TIP3   OH223033   0.365   1.615   5.171
 7719TIP3    H123034   0.421   1.582   5.244
 7719TIP3    H223035   0.432   1.616   5.099
 7720TIP3   OH223036   0.986   2.043   6.750
 7720TIP3    H123037   0.954   2.063   6.660
 7720TIP3    H223038   1.024   1.954   6.740
 7721TIP3   OH223039   0.877   1.812   4.978
 7721TIP3    H123040   0.869   1.823   5.075
 7721TIP3    H223041   0.877   1.713   4.971
 7722TIP3   OH223042   1.481   2.059   6.353
 7722TIP3    H123043   1.558   2.102   6.310
 7722TIP3    H223044   1.412   2.127   6.339
 7723TIP3   OH223045   0.565   1.520   5.385
 7723TIP3    H123046   0.551   1.487   5.475
 7723TIP3    H223047   0.604   1.442   5.339
 7724TIP3   OH223048   0.823   1.577   6.625
 7724TIP3    H123049   0.757   1.650   6.628
 7724TIP3    H223050   0.875   1.601   6.544
 7725TIP3   OH223051   0.669   1.309   5.232
 7725TIP3    H123052   0.643   1.313   5.138
 7725TIP3    H223053   0.766   1.317   5.224
 7726TIP3   OH223054   1.352   1.980   6.752
 7726TIP3    H123055   1.443   1.974   6.720
 7726TIP3    H223056   1.355   1.922   6.829
 7727TIP3   OH223057   1.489   1.643   4.896
 7727TIP3    H123058   1.471   1.595   4.813
 7727TIP3    H223059   1.463   1.733   4.868
 7728TIP3   OH223060   0.992   1.388   6.739
 7728TIP3    H123061   0.946   1.315   6.695
 7728TIP3    H223062   0.936   1.462   6.708
 7729TIP3   OH223063   0.991   1.701   6.444
 7729TIP3    H123064   1.069   1.690   6.388
 7729TIP3    H223065   0.937   1.763   6.391
 7730TIP3   OH223066   1.572   1.662   6.813
 7730TIP3    H123067   1.624   1.580   6.808
 7730TIP3    H223068   1.638   1.728   6.786
 7731TIP3   OH223069   1.614   1.902   6.528
 7731TIP3    H123070   1.555   1.961   6.475
 7731TIP3    H223071   1.702   1.928   6.492
 7732TIP3   OH223072   1.244   1.426   6.839
 7732TIP3    H123073   1.242   1.422   6.935
 7732TIP3    H223074   1.151   1.410   6.811
 7733TIP3   OH223075   1.465   1.369   6.685
 7733TIP3    H123076   1.390   1.379   6.748
 7733TIP3    H223077   1.538   1.342   6.745
 7734TIP3   OH223078   1.679   1.318   6.852
 7734TIP3    H123079   1.700   1.222   6.865
 7734TIP3    H223080   1.686   1.354   6.942
 7735TIP3   OH223081   0.478   2.367   5.136
 7735TIP3    H123082   0.572   2.375   5.116
 7735TIP3    H223083   0.441   2.415   5.060
 7736TIP3   OH223084  -0.044   1.725   5.363
 7736TIP3    H123085   0.044   1.766   5.354
 7736TIP3    H223086  -0.027   1.637   5.324
 7737TIP3   OH223087  -0.118   2.357   5.747
 7737TIP3    H123088  -0.213   2.342   5.754
 7737TIP3    H223089  -0.083   2.310   5.825
 7738TIP3   OH223090  -0.005   2.230   5.959
 7738TIP3    H123091   0.001   2.150   6.013
 7738TIP3    H223092   0.050   2.292   6.011
 7739TIP3   OH223093   1.731   2.622   5.753
 7739TIP3    H123094   1.763   2.655   5.839
 7739TIP3    H223095   1.796   2.659   5.691
 7740TIP3   OH223096   1.764   2.641   6.037
 7740TIP3    H123097   1.719   2.554   6.029
 7740TIP3    H223098   1.839   2.616   6.093
 7741TIP3   OH223099   1.807   2.317   6.606
 7741TIP3    H123100   1.736   2.323   6.673
 7741TIP3    H223101   1.849   2.405   6.613
 7742TIP3   OH223102   1.622   1.835   5.229
 7742TIP3    H123103   1.692   1.895   5.196
 7742TIP3    H223104   1.669   1.793   5.305
 7743TIP3   OH223105   1.752   1.698   5.430
 7743TIP3    H123106   1.688   1.655   5.489
 7743TIP3    H223107   1.818   1.735   5.492
 7744TIP3   OH223108   1.805   2.087   5.862
 7744TIP3    H123109   1.861   2.024   5.813
 7744TIP3    H223110   1.802   2.163   5.801
 7745TIP3   OH223111   1.639   2.390   6.058
 7745TIP3    H123112   1.567   2.430   6.110
 7745TIP3    H223113   1.589   2.340   5.989
 7746TIP3   OH223114   1.687   1.603   5.085
 7746TIP3    H123115   1.620   1.606   5.014
 7746TIP3    H223116   1.662   1.683   5.135
 7747TIP3   OH223117   1.552   1.279   5.041
 7747TIP3    H123118   1.531   1.318   4.956
 7747TIP3    H223119   1.529   1.185   5.026
 7748TIP3   OH223120   1.566   1.553   5.576
 7748TIP3    H123121   1.575   1.456   5.572
 7748TIP3    H223122   1.552   1.568   5.672
 7749TIP3   OH223123   1.857   1.978   6.432
 7749TIP3    H123124   1.929   1.912   6.425
 7749TIP3    H223125   1.887   2.049   6.373
 7750TIP3   OH223126   2.042   1.784   6.449
 7750TIP3    H123127   1.968   1.734   6.490
 7750TIP3    H223128   2.115   1.720   6.464
 7751TIP3   OH223129   1.504   1.012   5.024
 7751TIP3    H123130   1.577   0.977   5.078
 7751TIP3    H223131   1.430   0.952   5.041
 7752TIP3   OH223132   1.564   1.269   5.472
 7752TIP3    H123133   1.606   1.181   5.487
 7752TIP3    H223134   1.620   1.303   5.401
 7753TIP3   OH223135   1.725   1.442   5.966
 7753TIP3    H123136   1.811   1.469   5.927
 7753TIP3    H223137   1.737   1.480   6.056
 7754TIP3   OH223138   1.792   1.587   6.199
 7754TIP3    H123139   1.715   1.621   6.248
 7754TIP3    H223140   1.825   1.668   6.154
 7755TIP3   OH223141   2.242   1.176   6.755
 7755TIP3    H123142   2.302   1.109   6.715
 7755TIP3    H223143   2.219   1.232   6.678
 7756TIP3   OH223144   1.677   1.018   5.509
 7756TIP3    H123145   1.720   1.002   5.595
 7756TIP3    H223146   1.613   0.944   5.506
 7757TIP3   OH223147   2.118   1.320   6.559
 7757TIP3    H123148   2.031   1.357   6.586
 7757TIP3    H223149   2.089   1.245   6.503
 7758TIP3   OH223150   1.761   0.952   5.144
 7758TIP3    H123151   1.792   0.884   5.080
 7758TIP3    H223152   1.813   1.031   5.119
 7759TIP3   OH223153   1.303   2.492   5.397
 7759TIP3    H123154   1.365   2.473   5.324
 7759TIP3    H223155   1.358   2.548   5.455
 7760TIP3   OH223156   0.410   2.274   6.794
 7760TIP3    H123157   0.325   2.230   6.782
 7760TIP3    H223158   0.416   2.285   6.890
 7761TIP3   OH223159   0.595   2.323   6.344
 7761TIP3    H123160   0.549   2.399   6.304
 7761TIP3    H223161   0.681   2.335   6.298
 7762TIP3   OH223162   1.041   2.568   6.482
 7762TIP3    H123163   1.084   2.567   6.570
 7762TIP3    H223164   1.108   2.617   6.429
 7763TIP3   OH223165   1.220   2.718   6.339
 7763TIP3    H123166   1.291   2.667   6.297
 7763TIP3    H223167   1.273   2.775   6.399
 7764TIP3   OH223168   2.017   1.079   6.439
 7764TIP3    H123169   1.925   1.070   6.411
 7764TIP3    H223170   2.050   0.987   6.429
 7765TIP3   OH223171   0.272   2.576   6.368
 7765TIP3    H123172   0.183   2.610   6.344
 7765TIP3    H223173   0.281   2.613   6.457
 7766TIP3   OH223174   0.509   2.557   6.224
 7766TIP3    H123175   0.422   2.570   6.269
 7766TIP3    H223176   0.489   2.591   6.134
 7767TIP3   OH223177   0.934   2.586   6.023
 7767TIP3    H123178   0.866   2.607   5.956
 7767TIP3    H223179   0.948   2.674   6.064
 7768TIP3   OH223180   1.204   2.527   6.074
 7768TIP3    H123181   1.109   2.543   6.054
 7768TIP3    H223182   1.246   2.602   6.030
 7769TIP3   OH223183   1.412   2.719   5.989
 7769TIP3    H123184   1.397   2.803   5.941
 7769TIP3    H223185   1.438   2.658   5.915
 7770TIP3   OH223186   0.182   2.368   6.108
 7770TIP3    H123187   0.205   2.349   6.201
 7770TIP3    H223188   0.258   2.326   6.062
 7771TIP3   OH223189   0.379   2.242   5.968
 7771TIP3    H123190   0.397   2.158   6.016
 7771TIP3    H223191   0.469   2.281   5.963
 7772TIP3   OH223192   0.643   2.339   5.971
 7772TIP3    H123193   0.676   2.249   5.957
 7772TIP3    H223194   0.689   2.361   6.055
 7773TIP3   OH223195   1.228   0.990   6.061
 7773TIP3    H123196   1.183   0.905   6.071
 7773TIP3    H223197   1.303   0.964   6.003
 7774TIP3   OH223198   1.742   0.869   5.960
 7774TIP3    H123199   1.781   0.925   5.890
 7774TIP3    H223200   1.648   0.896   5.958
 7775TIP3   OH223201   1.841   0.972   5.727
 7775TIP3    H123202   1.915   0.923   5.687
 7775TIP3    H223203   1.873   1.064   5.713
 7776TIP3   OH223204   1.459   0.880   5.940
 7776TIP3    H123205   1.449   0.848   5.850
 7776TIP3    H223206   1.443   0.799   5.993
 7777TIP3   OH223207   1.489   0.810   5.499
 7777TIP3    H123208   1.403   0.855   5.512
 7777TIP3    H223209   1.470   0.723   5.541
 7778TIP3   OH223210  -0.039   2.140   5.509
 7778TIP3    H123211  -0.096   2.105   5.440
 7778TIP3    H223212  -0.048   2.236   5.492
 7779TIP3   OH223213   0.864   0.936   5.587
 7779TIP3    H123214   0.919   0.871   5.632
 7779TIP3    H223215   0.902   1.020   5.621
 7780TIP3   OH223216   0.753   2.337   5.076
 7780TIP3    H123217   0.787   2.400   5.012
 7780TIP3    H223218   0.735   2.258   5.019
 7781TIP3   OH223219   1.457   2.442   5.173
 7781TIP3    H123220   1.445   2.349   5.149
 7781TIP3    H223221   1.426   2.486   5.091
 7782TIP3   OH223222   0.047   2.165   5.143
 7782TIP3    H123223   0.051   2.210   5.229
 7782TIP3    H223224   0.138   2.128   5.134
 7783TIP3   OH223225   1.746   1.050   6.875
 7783TIP3    H123226   1.769   1.011   6.963
 7783TIP3    H223227   1.832   1.042   6.829
 7784TIP3   OH223228   1.690   2.597   6.365
 7784TIP3    H123229   1.611   2.564   6.317
 7784TIP3    H223230   1.669   2.692   6.369
 7785TIP3   OH223231   2.945   1.956   5.154
 7785TIP3    H123232   2.934   2.048   5.125
 7785TIP3    H223233   2.881   1.912   5.096
 7786TIP3   OH223234   2.962   1.972   5.510
 7786TIP3    H123235   2.980   1.934   5.597
 7786TIP3    H223236   2.915   1.900   5.465
 7787TIP3   OH223237   2.254   1.863   5.878
 7787TIP3    H123238   2.286   1.796   5.942
 7787TIP3    H223239   2.331   1.920   5.870
 7788TIP3   OH223240   3.206   2.276   5.191
 7788TIP3    H123241   3.176   2.205   5.249
 7788TIP3    H223242   3.228   2.347   5.253
 7789TIP3   OH223243   2.227   2.273   5.607
 7789TIP3    H123244   2.217   2.175   5.606
 7789TIP3    H223245   2.323   2.281   5.595
 7790TIP3   OH223246   1.929   1.474   5.390
 7790TIP3    H123247   1.883   1.558   5.402
 7790TIP3    H223248   1.861   1.423   5.342
 7791TIP3   OH223249   1.991   1.764   5.559
 7791TIP3    H123250   2.041   1.688   5.595
 7791TIP3    H223251   2.050   1.794   5.488
 7792TIP3   OH223252   2.851   2.734   5.210
 7792TIP3    H123253   2.896   2.662   5.160
 7792TIP3    H223254   2.839   2.692   5.296
 7793TIP3   OH223255   2.752   2.195   5.561
 7793TIP3    H123256   2.787   2.122   5.507
 7793TIP3    H223257   2.837   2.237   5.585
 7794TIP3   OH223258   3.765   1.507   5.554
 7794TIP3    H123259   3.786   1.587   5.607
 7794TIP3    H223260   3.791   1.535   5.465
 7795TIP3   OH223261   3.174   1.695   5.601
 7795TIP3    H123262   3.162   1.613   5.650
 7795TIP3    H223263   3.135   1.676   5.514
 7796TIP3   OH223264   2.503   1.354   5.557
 7796TIP3    H123265   2.483   1.427   5.496
 7796TIP3    H223266   2.456   1.281   5.511
 7797TIP3   OH223267   3.201   1.451   5.192
 7797TIP3    H123268   3.281   1.397   5.192
 7797TIP3    H223269   3.201   1.489   5.104
 7798TIP3   OH223270   2.137   1.557   5.666
 7798TIP3    H123271   2.221   1.538   5.713
 7798TIP3    H223272   2.150   1.503   5.586
 7799TIP3   OH223273   2.577   1.756   5.458
 7799TIP3    H123274   2.671   1.731   5.472
 7799TIP3    H223275   2.538   1.672   5.426
 7800TIP3   OH223276   3.833   1.716   5.730
 7800TIP3    H123277   3.755   1.771   5.710
 7800TIP3    H223278   3.859   1.751   5.817
 7801TIP3   OH223279   2.501   1.338   5.992
 7801TIP3    H123280   2.440   1.375   5.925
 7801TIP3    H223281   2.449   1.354   6.074
 7802TIP3   OH223282   2.845   2.186   5.016
 7802TIP3    H123283   2.825   2.167   4.924
 7802TIP3    H223284   2.796   2.269   5.030
 7803TIP3   OH223285   2.607   2.114   5.788
 7803TIP3    H123286   2.544   2.179   5.825
 7803TIP3    H223287   2.648   2.164   5.715
 7804TIP3   OH223288   2.371   1.454   5.776
 7804TIP3    H123289   2.433   1.526   5.799
 7804TIP3    H223290   2.420   1.412   5.702
 7805TIP3   OH223291   2.435   2.307   5.886
 7805TIP3    H123292   2.408   2.391   5.845
 7805TIP3    H223293   2.356   2.291   5.943
 7806TIP3   OH223294   1.823   1.999   5.122
 7806TIP3    H123295   1.792   2.019   5.032
 7806TIP3    H223296   1.865   2.084   5.145
 7807TIP3   OH223297   3.270   2.514   5.365
 7807TIP3    H123298   3.180   2.505   5.403
 7807TIP3    H223299   3.262   2.599   5.317
 7808TIP3   OH223300   2.857   1.059   5.705
 7808TIP3    H123301   2.851   0.963   5.722
 7808TIP3    H223302   2.778   1.090   5.755
 7809TIP3   OH223303   2.973   2.558   5.037
 7809TIP3    H123304   3.019   2.474   5.015
 7809TIP3    H223305   3.033   2.622   4.993
 7810TIP3   OH223306   3.113   2.334   4.935
 7810TIP3    H123307   3.095   2.246   4.899
 7810TIP3    H223308   3.151   2.309   5.022
 7811TIP3   OH223309   3.496   2.427   5.705
 7811TIP3    H123310   3.484   2.349   5.646
 7811TIP3    H223311   3.478   2.501   5.644
 7812TIP3   OH223312   2.791   1.817   4.961
 7812TIP3    H123313   2.707   1.867   4.948
 7812TIP3    H223314   2.837   1.836   4.878
 7813TIP3   OH223315   2.748   1.606   4.674
 7813TIP3    H123316   2.808   1.653   4.735
 7813TIP3    H223317   2.811   1.546   4.629
 7814TIP3   OH223318   3.691   2.062   5.549
 7814TIP3    H123319   3.608   2.115   5.555
 7814TIP3    H223320   3.720   2.087   5.458
 7815TIP3   OH223321   3.369   1.944   5.845
 7815TIP3    H123322   3.366   2.027   5.895
 7815TIP3    H223323   3.282   1.947   5.800
 7816TIP3   OH223324   2.364   1.900   5.351
 7816TIP3    H123325   2.323   1.842   5.283
 7816TIP3    H223326   2.442   1.847   5.378
 7817TIP3   OH223327   2.493   2.311   5.499
 7817TIP3    H123328   2.471   2.273   5.412
 7817TIP3    H223329   2.583   2.277   5.515
 7818TIP3   OH223330   2.503   1.871   5.706
 7818TIP3    H123331   2.535   1.851   5.615
 7818TIP3    H223332   2.546   1.957   5.725
 7819TIP3   OH223333   3.028   2.510   5.483
 7819TIP3    H123334   3.013   2.588   5.538
 7819TIP3    H223335   3.014   2.435   5.544
 7820TIP3   OH223336   2.639   2.429   6.028
 7820TIP3    H123337   2.580   2.491   6.075
 7820TIP3    H223338   2.573   2.375   5.979
 7821TIP3   OH223339   3.001   1.757   4.765
 7821TIP3    H123340   3.035   1.846   4.793
 7821TIP3    H223341   3.007   1.772   4.668
 7822TIP3   OH223342   2.394   1.985   6.128
 7822TIP3    H123343   2.399   2.071   6.174
 7822TIP3    H223344   2.299   1.965   6.139
 7823TIP3   OH223345   2.715   2.442   5.038
 7823TIP3    H123346   2.793   2.498   5.052
 7823TIP3    H223347   2.655   2.500   4.991
 7824TIP3   OH223348   2.434   2.599   6.116
 7824TIP3    H123349   2.400   2.594   6.024
 7824TIP3    H223350   2.354   2.576   6.169
 7825TIP3   OH223351   3.491   1.002   4.810
 7825TIP3    H123352   3.407   1.018   4.857
 7825TIP3    H223353   3.502   1.084   4.758
 7826TIP3   OH223354   2.231   1.741   5.159
 7826TIP3    H123355   2.168   1.790   5.102
 7826TIP3    H223356   2.185   1.657   5.167
 7827TIP3   OH223357   3.295   2.374   4.347
 7827TIP3    H123358   3.287   2.471   4.362
 7827TIP3    H223359   3.325   2.374   4.255
 7828TIP3   OH223360   2.014   2.127   6.062
 7828TIP3    H123361   1.949   2.103   5.993
 7828TIP3    H223362   2.051   2.040   6.087
 7829TIP3   OH223363   1.869   2.315   5.701
 7829TIP3    H123364   1.964   2.311   5.683
 7829TIP3    H223365   1.861   2.398   5.750
 7830TIP3   OH223366   3.733   2.771   5.752
 7830TIP3    H123367   3.730   2.675   5.763
 7830TIP3    H223368   3.649   2.796   5.796
 7831TIP3   OH223369   2.838   2.557   5.886
 7831TIP3    H123370   2.837   2.650   5.918
 7831TIP3    H223371   2.766   2.517   5.940
 7832TIP3   OH223372   2.601   2.690   4.836
 7832TIP3    H123373   2.549   2.662   4.758
 7832TIP3    H223374   2.563   2.776   4.857
 7833TIP3   OH223375   2.038   2.541   5.220
 7833TIP3    H123376   2.081   2.524   5.307
 7833TIP3    H223377   1.987   2.457   5.210
 7834TIP3   OH223378   2.800   2.592   4.476
 7834TIP3    H123379   2.856   2.521   4.440
 7834TIP3    H223380   2.832   2.597   4.569
 7835TIP3   OH223381   2.852   2.634   4.747
 7835TIP3    H123382   2.762   2.646   4.786
 7835TIP3    H223383   2.897   2.586   4.818
 7836TIP3   OH223384   3.624   1.904   6.024
 7836TIP3    H123385   3.540   1.915   5.976
 7836TIP3    H223386   3.635   1.807   6.022
 7837TIP3   OH223387   2.219   2.311   6.053
 7837TIP3    H123388   2.269   2.292   6.135
 7837TIP3    H223389   2.145   2.247   6.059
 7838TIP3   OH223390   2.617   1.134   5.834
 7838TIP3    H123391   2.528   1.104   5.809
 7838TIP3    H223392   2.593   1.216   5.882
 7839TIP3   OH223393   3.151   1.256   6.027
 7839TIP3    H123394   3.217   1.226   6.092
 7839TIP3    H223395   3.067   1.233   6.072
 7840TIP3   OH223396   3.396   1.682   5.949
 7840TIP3    H123397   3.345   1.675   6.034
 7840TIP3    H223398   3.365   1.767   5.914
 7841TIP3   OH223399   3.062   1.788   4.504
 7841TIP3    H123400   3.024   1.771   4.416
 7841TIP3    H223401   3.117   1.867   4.487
 7842TIP3   OH223402   2.763   1.180   4.800
 7842TIP3    H123403   2.734   1.178   4.893
 7842TIP3    H223404   2.718   1.100   4.767
 7843TIP3   OH223405   2.551   1.648   5.854
 7843TIP3    H123406   2.500   1.668   5.935
 7843TIP3    H223407   2.534   1.729   5.801
 7844TIP3   OH223408   2.435   1.535   5.368
 7844TIP3    H123409   2.341   1.511   5.383
 7844TIP3    H223410   2.446   1.503   5.275
 7845TIP3   OH223411   2.921   1.618   5.098
 7845TIP3    H123412   2.868   1.693   5.062
 7845TIP3    H223413   2.975   1.595   5.020
 7846TIP3   OH223414   3.098   1.900   6.182
 7846TIP3    H123415   3.074   1.827   6.244
 7846TIP3    H223416   3.192   1.913   6.205
 7847TIP3   OH223417   3.080   1.656   5.343
 7847TIP3    H123418   3.023   1.699   5.276
 7847TIP3    H223419   3.102   1.574   5.294
 7848TIP3   OH223420   2.369   1.677   6.063
 7848TIP3    H123421   2.394   1.740   6.132
 7848TIP3    H223422   2.357   1.595   6.113
 7849TIP3   OH223423   1.965   1.195   5.644
 7849TIP3    H123424   2.034   1.233   5.703
 7849TIP3    H223425   2.012   1.185   5.561
 7850TIP3   OH223426   1.947   1.185   5.155
 7850TIP3    H123427   1.995   1.206   5.070
 7850TIP3    H223428   1.889   1.263   5.159
 7851TIP3   OH223429   3.096   1.898   5.761
 7851TIP3    H123430   3.130   1.829   5.700
 7851TIP3    H223431   3.065   1.843   5.836
 7852TIP3   OH223432   2.761   1.365   5.430
 7852TIP3    H123433   2.678   1.357   5.481
 7852TIP3    H223434   2.828   1.349   5.499
 7853TIP3   OH223435   2.194   1.414   5.438
 7853TIP3    H123436   2.100   1.420   5.409
 7853TIP3    H223437   2.222   1.325   5.409
 7854TIP3   OH223438   2.472   1.437   5.114
 7854TIP3    H123439   2.569   1.428   5.111
 7854TIP3    H223440   2.449   1.451   5.021
 7855TIP3   OH223441   3.422   3.122   5.849
 7855TIP3    H123442   3.420   3.144   5.755
 7855TIP3    H223443   3.501   3.171   5.879
 7856TIP3   OH223444   2.379   2.232   6.271
 7856TIP3    H123445   2.459   2.262   6.319
 7856TIP3    H223446   2.315   2.229   6.344
 7857TIP3   OH223447   2.842   1.687   5.533
 7857TIP3    H123448   2.906   1.637   5.480
 7857TIP3    H223449   2.845   1.641   5.619
 7858TIP3   OH223450   2.363   1.176   5.396
 7858TIP3    H123451   2.354   1.090   5.441
 7858TIP3    H223452   2.397   1.153   5.307
 7859TIP3   OH223453   2.821   1.586   5.810
 7859TIP3    H123454   2.730   1.617   5.829
 7859TIP3    H223455   2.876   1.643   5.867
 7860TIP3   OH223456   2.566   1.968   4.915
 7860TIP3    H123457   2.488   1.909   4.899
 7860TIP3    H223458   2.543   2.006   5.003
 7861TIP3   OH223459   3.458   2.208   5.542
 7861TIP3    H123460   3.481   2.257   5.460
 7861TIP3    H223461   3.372   2.167   5.518
 7862TIP3   OH223462   3.013   1.283   4.782
 7862TIP3    H123463   2.917   1.260   4.780
 7862TIP3    H223464   3.012   1.379   4.790
 7863TIP3   OH223465   2.961   2.293   5.908
 7863TIP3    H123466   2.976   2.267   6.000
 7863TIP3    H223467   2.918   2.379   5.916
 7864TIP3   OH223468   3.091   1.537   4.892
 7864TIP3    H123469   3.183   1.534   4.864
 7864TIP3    H223470   3.055   1.613   4.840
 7865TIP3   OH223471   2.249   1.995   5.588
 7865TIP3    H123472   2.286   1.967   5.502
 7865TIP3    H223473   2.289   1.930   5.648
 7866TIP3   OH223474   2.700   2.123   4.729
 7866TIP3    H123475   2.655   2.210   4.740
 7866TIP3    H223476   2.648   2.068   4.792
 7867TIP3   OH223477   2.129   1.916   6.200
 7867TIP3    H123478   2.151   1.902   6.294
 7867TIP3    H223479   2.061   1.848   6.186
 7868TIP3   OH223480   2.854   2.030   6.219
 7868TIP3    H123481   2.794   1.970   6.173
 7868TIP3    H223482   2.942   1.996   6.192
 7869TIP3   OH223483   3.118   2.554   5.802
 7869TIP3    H123484   3.022   2.548   5.815
 7869TIP3    H223485   3.144   2.604   5.882
 7870TIP3   OH223486   3.746   2.481   5.794
 7870TIP3    H123487   3.648   2.475   5.785
 7870TIP3    H223488   3.772   2.451   5.704
 7871TIP3   OH223489   3.233   2.438   4.627
 7871TIP3    H123490   3.198   2.378   4.695
 7871TIP3    H223491   3.238   2.382   4.548
 7872TIP3   OH223492   3.225   2.070   5.464
 7872TIP3    H123493   3.131   2.045   5.477
 7872TIP3    H223494   3.257   1.994   5.412
 7873TIP3   OH223495   2.348   2.300   5.217
 7873TIP3    H123496   2.350   2.381   5.162
 7873TIP3    H223497   2.255   2.276   5.211
 7874TIP3   OH223498   1.899   1.621   4.905
 7874TIP3    H123499   1.954   1.695   4.935
 7874TIP3    H223500   1.833   1.613   4.976
 7875TIP3   OH223501   2.486   2.065   5.157
 7875TIP3    H123502   2.454   2.156   5.175
 7875TIP3    H223503   2.448   2.016   5.232
 7876TIP3   OH223504   2.619   2.642   5.682
 7876TIP3    H123505   2.660   2.714   5.630
 7876TIP3    H223506   2.696   2.607   5.730
 7877TIP3   OH223507   2.272   2.536   5.069
 7877TIP3    H123508   2.183   2.542   5.109
 7877TIP3    H223509   2.298   2.630   5.067
 7878TIP3   OH223510   3.009   2.278   5.639
 7878TIP3    H123511   3.000   2.276   5.737
 7878TIP3    H223512   3.085   2.220   5.625
 7879TIP3   OH223513   2.988   2.160   4.532
 7879TIP3    H123514   3.035   2.124   4.611
 7879TIP3    H223515   2.896   2.143   4.557
 7880TIP3   OH223516   3.257   2.812   5.692
 7880TIP3    H123517   3.179   2.753   5.685
 7880TIP3    H223518   3.240   2.874   5.618
 7881TIP3   OH223519   3.316   2.649   4.338
 7881TIP3    H123520   3.362   2.722   4.293
 7881TIP3    H223521   3.238   2.699   4.372
 7882TIP3   OH223522   2.343   1.421   6.208
 7882TIP3    H123523   2.247   1.424   6.224
 7882TIP3    H223524   2.373   1.362   6.280
 7883TIP3   OH223525   2.057   2.507   5.841
 7883TIP3    H123526   2.108   2.429   5.867
 7883TIP3    H223527   2.090   2.572   5.905
 7884TIP3   OH223528   2.355   2.146   4.515
 7884TIP3    H123529   2.363   2.051   4.491
 7884TIP3    H223530   2.338   2.138   4.612
 7885TIP3   OH223531   2.317   2.150   4.783
 7885TIP3    H123532   2.356   2.128   4.868
 7885TIP3    H223533   2.290   2.243   4.797
 7886TIP3   OH223534   2.035   1.854   5.001
 7886TIP3    H123535   1.965   1.902   5.049
 7886TIP3    H223536   2.060   1.918   4.933
 7887TIP3   OH223537   3.189   1.484   5.869
 7887TIP3    H123538   3.259   1.524   5.923
 7887TIP3    H223539   3.165   1.405   5.922
 7888TIP3   OH223540   3.057   1.234   5.052
 7888TIP3    H123541   3.037   1.248   4.957
 7888TIP3    H223542   3.077   1.324   5.082
 7889TIP3   OH223543   2.567   2.360   4.746
 7889TIP3    H123544   2.477   2.375   4.780
 7889TIP3    H223545   2.570   2.424   4.674
 7890TIP3   OH223546   2.749   1.413   5.159
 7890TIP3    H123547   2.809   1.488   5.141
 7890TIP3    H223548   2.751   1.410   5.257
 7891TIP3   OH223549   3.019   1.734   5.966
 7891TIP3    H123550   3.034   1.793   6.043
 7891TIP3    H223551   3.073   1.657   5.990
 7892TIP3   OH223552   2.890   1.146   5.263
 7892TIP3    H123553   2.879   1.224   5.319
 7892TIP3    H223554   2.950   1.180   5.193
 7893TIP3   OH223555   2.306   2.428   4.807
 7893TIP3    H123556   2.271   2.497   4.747
 7893TIP3    H223557   2.280   2.463   4.894
 7894TIP3   OH223558   2.413   1.132   5.122
 7894TIP3    H123559   2.380   1.207   5.070
 7894TIP3    H223560   2.501   1.119   5.082
 7895TIP3   OH223561   3.659   1.631   5.948
 7895TIP3    H123562   3.561   1.632   5.952
 7895TIP3    H223563   3.675   1.622   5.853
 7896TIP3   OH223564   3.310   1.830   5.326
 7896TIP3    H123565   3.230   1.778   5.347
 7896TIP3    H223566   3.378   1.786   5.380
 7897TIP3   OH223567   3.276   2.786   5.284
 7897TIP3    H123568   3.234   2.833   5.208
 7897TIP3    H223569   3.370   2.805   5.263
 7898TIP3   OH223570   2.352   1.052   5.808
 7898TIP3    H123571   2.321   1.017   5.722
 7898TIP3    H223572   2.344   0.975   5.867
 7899TIP3   OH223573   1.903   2.302   5.205
 7899TIP3    H123574   1.809   2.321   5.210
 7899TIP3    H223575   1.916   2.288   5.108
 7900TIP3   OH223576   2.048   2.813   6.262
 7900TIP3    H123577   2.134   2.811   6.308
 7900TIP3    H223578   2.026   2.718   6.260
 7901TIP3   OH223579   2.532   2.780   6.305
 7901TIP3    H123580   2.625   2.756   6.313
 7901TIP3    H223581   2.505   2.721   6.232
 7902TIP3   OH223582   2.511   2.354   4.437
 7902TIP3    H123583   2.450   2.285   4.473
 7902TIP3    H223584   2.584   2.297   4.408
 7903TIP3   OH223585   3.168   2.686   6.040
 7903TIP3    H123586   3.160   2.614   6.107
 7903TIP3    H223587   3.246   2.735   6.072
 7904TIP3   OH223588   2.947   2.394   4.351
 7904TIP3    H123589   2.990   2.326   4.405
 7904TIP3    H223590   2.998   2.393   4.267
 7905TIP3   OH223591   2.179   2.221   6.462
 7905TIP3    H123592   2.196   2.125   6.469
 7905TIP3    H223593   2.091   2.222   6.419
 7906TIP3   OH223594   2.156   1.850   4.646
 7906TIP3    H123595   2.208   1.838   4.727
 7906TIP3    H223596   2.227   1.868   4.582
 7907TIP3   OH223597   2.788   2.305   6.235
 7907TIP3    H123598   2.744   2.320   6.149
 7907TIP3    H223599   2.818   2.212   6.229
 7908TIP3   OH223600   2.672   2.071   4.460
 7908TIP3    H123601   2.667   2.085   4.557
 7908TIP3    H223602   2.665   1.973   4.456
 7909TIP3   OH223603   3.281   2.312   5.843
 7909TIP3    H123604   3.353   2.360   5.797
 7909TIP3    H223605   3.207   2.373   5.830
 7910TIP3   OH223606   2.298   1.955   6.443
 7910TIP3    H123607   2.370   1.892   6.426
 7910TIP3    H223608   2.322   1.986   6.533
 7911TIP3   OH223609   2.367   1.777   4.881
 7911TIP3    H123610   2.338   1.734   4.963
 7911TIP3    H223611   2.399   1.700   4.829
 7912TIP3   OH223612   2.634   1.840   6.106
 7912TIP3    H123613   2.556   1.899   6.109
 7912TIP3    H223614   2.681   1.874   6.026
 7913TIP3   OH223615   2.472   1.571   4.730
 7913TIP3    H123616   2.432   1.564   4.642
 7913TIP3    H223617   2.567   1.581   4.709
 7914TIP3   OH223618   3.150   2.241   6.240
 7914TIP3    H123619   3.229   2.214   6.192
 7914TIP3    H223620   3.146   2.174   6.311
 7915TIP3   OH223621   3.300   1.911   4.364
 7915TIP3    H123622   3.267   1.854   4.292
 7915TIP3    H223623   3.252   1.994   4.343
 7916TIP3   OH223624   2.757   1.627   6.232
 7916TIP3    H123625   2.756   1.546   6.177
 7916TIP3    H223626   2.712   1.692   6.174
 7917TIP3   OH223627   2.758   1.415   6.038
 7917TIP3    H123628   2.785   1.452   5.952
 7917TIP3    H223629   2.665   1.390   6.021
 7918TIP3   OH223630   2.788   1.949   5.911
 7918TIP3    H123631   2.870   1.958   5.861
 7918TIP3    H223632   2.730   2.016   5.868
 7919TIP3   OH223633   3.367   1.915   6.293
 7919TIP3    H123634   3.414   1.833   6.313
 7919TIP3    H223635   3.438   1.972   6.260
 7920TIP3   OH223636   3.411   2.169   6.031
 7920TIP3    H123637   3.352   2.222   5.972
 7920TIP3    H223638   3.498   2.188   5.990
 7921TIP3   OH223639   2.634   1.740   6.461
 7921TIP3    H123640   2.565   1.672   6.477
 7921TIP3    H223641   2.670   1.711   6.375
 7922TIP3   OH223642   2.893   1.179   6.103
 7922TIP3    H123643   2.841   1.260   6.083
 7922TIP3    H223644   2.825   1.109   6.094
 7923TIP3   OH223645   3.017   1.683   6.322
 7923TIP3    H123646   3.007   1.669   6.418
 7923TIP3    H223647   2.927   1.657   6.292
 7924TIP3   OH223648   3.256   1.628   6.174
 7924TIP3    H123649   3.180   1.630   6.236
 7924TIP3    H223650   3.328   1.596   6.232
 7925TIP3   OH223651   3.489   1.571   6.326
 7925TIP3    H123652   3.499   1.475   6.346
 7925TIP3    H223653   3.481   1.610   6.415
 7926TIP3   OH223654   2.474   1.519   6.514
 7926TIP3    H123655   2.480   1.427   6.482
 7926TIP3    H223656   2.511   1.507   6.605
 7927TIP3   OH223657   2.989   1.189   6.361
 7927TIP3    H123658   3.054   1.116   6.358
 7927TIP3    H223659   2.948   1.180   6.273
 7928TIP3   OH223660   3.053   1.404   6.519
 7928TIP3    H123661   3.030   1.331   6.457
 7928TIP3    H223662   2.974   1.460   6.515
 7929TIP3   OH223663   2.274   2.642   4.627
 7929TIP3    H123664   2.369   2.632   4.604
 7929TIP3    H223665   2.240   2.677   4.543
 7930TIP3   OH223666   1.736   1.997   4.850
 7930TIP3    H123667   1.808   2.065   4.843
 7930TIP3    H223668   1.766   1.923   4.794
 7931TIP3   OH223669   1.659   2.625   5.254
 7931TIP3    H123670   1.598   2.558   5.217
 7931TIP3    H223671   1.707   2.572   5.321
 7932TIP3   OH223672   1.790   2.487   5.447
 7932TIP3    H123673   1.795   2.401   5.491
 7932TIP3    H223674   1.851   2.540   5.501
 7933TIP3   OH223675   3.529   2.878   5.238
 7933TIP3    H123676   3.558   2.910   5.325
 7933TIP3    H223677   3.593   2.917   5.178
 7934TIP3   OH223678   3.558   2.898   5.522
 7934TIP3    H123679   3.514   2.810   5.517
 7934TIP3    H223680   3.636   2.874   5.576
 7935TIP3   OH223681   3.606   2.573   6.095
 7935TIP3    H123682   3.532   2.580   6.158
 7935TIP3    H223683   3.645   2.662   6.099
 7936TIP3   OH223684   3.479   2.112   4.679
 7936TIP3    H123685   3.488   2.193   4.729
 7936TIP3    H223686   3.421   2.062   4.741
 7937TIP3   OH223687   3.551   1.935   4.914
 7937TIP3    H123688   3.482   1.908   4.978
 7937TIP3    H223689   3.612   1.988   4.970
 7938TIP3   OH223690   3.605   2.346   5.352
 7938TIP3    H123691   3.657   2.282   5.299
 7938TIP3    H223692   3.594   2.420   5.290
 7939TIP3   OH223693   3.436   2.646   5.546
 7939TIP3    H123694   3.364   2.688   5.598
 7939TIP3    H223695   3.385   2.598   5.477
 7940TIP3   OH223696   3.456   1.858   4.575
 7940TIP3    H123697   3.413   1.874   4.487
 7940TIP3    H223698   3.486   1.949   4.598
 7941TIP3   OH223699   3.370   1.768   5.051
 7941TIP3    H123700   3.398   1.707   5.121
 7941TIP3    H223701   3.326   1.835   5.107
 7942TIP3   OH223702   1.989   1.884   5.811
 7942TIP3    H123703   1.988   1.853   5.718
 7942TIP3    H223704   2.087   1.885   5.827
 7943TIP3   OH223705   3.653   2.234   5.922
 7943TIP3    H123706   3.725   2.169   5.912
 7943TIP3    H223707   3.678   2.303   5.859
 7944TIP3   OH223708   3.840   2.041   5.937
 7944TIP3    H123709   3.764   1.991   5.975
 7944TIP3    H223710   3.911   1.976   5.952
 7945TIP3   OH223711   3.299   1.280   4.520
 7945TIP3    H123712   3.375   1.243   4.568
 7945TIP3    H223713   3.228   1.216   4.534
 7946TIP3   OH223714   3.518   1.701   5.457
 7946TIP3    H123715   3.605   1.725   5.417
 7946TIP3    H223716   3.530   1.739   5.546
 7947TIP3   OH223717   3.589   1.845   5.689
 7947TIP3    H123718   3.511   1.878   5.737
 7947TIP3    H223719   3.620   1.926   5.642
 7948TIP3   OH223720   2.207   1.571   6.483
 7948TIP3    H123721   2.305   1.565   6.487
 7948TIP3    H223722   2.183   1.486   6.525
 7949TIP3   OH223723   4.043   1.436   6.243
 7949TIP3    H123724   4.100   1.368   6.200
 7949TIP3    H223725   4.015   1.490   6.167
 7950TIP3   OH223726   3.461   1.277   5.003
 7950TIP3    H123727   3.517   1.252   5.078
 7950TIP3    H223728   3.404   1.198   4.993
 7951TIP3   OH223729   2.168   1.263   5.817
 7951TIP3    H123730   2.231   1.189   5.828
 7951TIP3    H223731   2.230   1.338   5.810
 7952TIP3   OH223732   1.970   1.535   5.889
 7952TIP3    H123733   2.021   1.531   5.805
 7952TIP3    H223734   1.999   1.621   5.924
 7953TIP3   OH223735   3.914   1.575   6.049
 7953TIP3    H123736   3.827   1.613   6.072
 7953TIP3    H223737   3.885   1.503   5.989
 7954TIP3   OH223738   3.556   1.212   4.634
 7954TIP3    H123739   3.592   1.140   4.577
 7954TIP3    H223740   3.613   1.287   4.611
 7955TIP3   OH223741   1.955   1.040   5.379
 7955TIP3    H123742   1.868   1.029   5.421
 7955TIP3    H223743   1.935   1.109   5.312
 7956TIP3   OH223744   3.116   2.742   4.898
 7956TIP3    H123745   3.165   2.727   4.814
 7956TIP3    H223746   3.171   2.809   4.941
 7957TIP3   OH223747   2.174   1.120   6.204
 7957TIP3    H123748   2.125   1.112   6.288
 7957TIP3    H223749   2.105   1.158   6.146
 7958TIP3   OH223750   2.214   2.549   6.283
 7958TIP3    H123751   2.123   2.519   6.265
 7958TIP3    H223752   2.224   2.525   6.376
 7959TIP3   OH223753   2.392   2.579   5.831
 7959TIP3    H123754   2.344   2.654   5.791
 7959TIP3    H223755   2.478   2.592   5.786
 7960TIP3   OH223756   2.838   2.824   5.968
 7960TIP3    H123757   2.880   2.823   6.056
 7960TIP3    H223758   2.904   2.874   5.916
 7961TIP3   OH223759   3.016   2.976   5.825
 7961TIP3    H123760   3.085   2.923   5.783
 7961TIP3    H223761   3.069   3.032   5.886
 7962TIP3   OH223762   3.818   1.331   5.928
 7962TIP3    H123763   3.725   1.306   5.909
 7962TIP3    H223764   3.859   1.242   5.916
 7963TIP3   OH223765   2.070   2.839   5.851
 7963TIP3    H123766   1.981   2.872   5.828
 7963TIP3    H223767   2.076   2.867   5.943
 7964TIP3   OH223768   2.307   2.816   5.711
 7964TIP3    H123769   2.220   2.828   5.756
 7964TIP3    H223770   2.286   2.846   5.620
 7965TIP3   OH223771   2.731   2.843   5.509
 7965TIP3    H123772   2.662   2.862   5.443
 7965TIP3    H223773   2.743   2.931   5.550
 7966TIP3   OH223774   3.000   2.785   5.562
 7966TIP3    H123775   2.906   2.799   5.541
 7966TIP3    H223776   3.042   2.859   5.516
 7967TIP3   OH223777   3.210   2.976   5.476
 7967TIP3    H123778   3.194   3.060   5.427
 7967TIP3    H223779   3.234   2.916   5.402
 7968TIP3   OH223780   1.979   2.630   5.600
 7968TIP3    H123781   2.008   2.603   5.690
 7968TIP3    H223782   2.051   2.587   5.548
 7969TIP3   OH223783   2.173   2.502   5.458
 7969TIP3    H123784   2.189   2.416   5.503
 7969TIP3    H223785   2.264   2.537   5.449
 7970TIP3   OH223786   2.442   2.599   5.456
 7970TIP3    H123787   2.471   2.508   5.439
 7970TIP3    H223788   2.485   2.615   5.542
 7971TIP3   OH223789   2.999   1.246   5.540
 7971TIP3    H123790   2.960   1.186   5.606
 7971TIP3    H223791   3.064   1.187   5.499
 7972TIP3   OH223792   3.625   1.240   5.228
 7972TIP3    H123793   3.695   1.181   5.191
 7972TIP3    H223794   3.665   1.326   5.203
 7973TIP3   OH223795   2.262   0.953   5.549
 7973TIP3    H123796   2.172   0.917   5.568
 7973TIP3    H223797   2.316   0.871   5.556
 7974TIP3   OH223798   2.706   0.997   5.447
 7974TIP3    H123799   2.767   1.041   5.386
 7974TIP3    H223800   2.738   1.028   5.533
 7975TIP3   OH223801   3.287   1.144   5.430
 7975TIP3    H123802   3.268   1.098   5.347
 7975TIP3    H223803   3.265   1.070   5.492
 7976TIP3   OH223804   3.286   1.060   4.993
 7976TIP3    H123805   3.196   1.098   4.997
 7976TIP3    H223806   3.271   0.974   5.039
 7977TIP3   OH223807   2.182   0.950   5.034
 7977TIP3    H123808   2.187   0.912   4.945
 7977TIP3    H223809   2.188   1.045   5.007
 7978TIP3   OH223810   2.688   1.166   5.062
 7978TIP3    H123811   2.734   1.113   5.129
 7978TIP3    H223812   2.708   1.256   5.094
 7979TIP3   OH223813   2.539   2.592   4.568
 7979TIP3    H123814   2.627   2.614   4.531
 7979TIP3    H223815   2.516   2.516   4.510
 7980TIP3   OH223816   3.260   2.708   4.664
 7980TIP3    H123817   3.253   2.610   4.652
 7980TIP3    H223818   3.214   2.740   4.584
 7981TIP3   OH223819   2.473   1.243   6.453
 7981TIP3    H123820   2.440   1.171   6.510
 7981TIP3    H223821   2.568   1.243   6.480
 7982TIP3   OH223822   2.722   1.239   6.571
 7982TIP3    H123823   2.806   1.208   6.535
 7982TIP3    H223824   2.706   1.172   6.641
 7983TIP3   OH223825   3.546   1.300   6.360
 7983TIP3    H123826   3.564   1.270   6.451
 7983TIP3    H223827   3.635   1.294   6.320
 7984TIP3   OH223828   3.486   2.852   5.853
 7984TIP3    H123829   3.407   2.820   5.804
 7984TIP3    H223830   3.466   2.948   5.855
 7985TIP3   OH223831   4.754   2.221   4.619
 7985TIP3    H123832   4.728   2.312   4.596
 7985TIP3    H223833   4.676   2.172   4.586
 7986TIP3   OH223834   4.757   2.222   4.996
 7986TIP3    H123835   4.783   2.195   5.086
 7986TIP3    H223836   4.709   2.144   4.964
 7987TIP3   OH223837   4.051   2.119   5.364
 7987TIP3    H123838   4.083   2.053   5.428
 7987TIP3    H223839   4.128   2.178   5.358
 7988TIP3   OH223840   4.997   2.524   4.678
 7988TIP3    H123841   4.976   2.460   4.747
 7988TIP3    H223842   5.016   2.604   4.730
 7989TIP3   OH223843   4.022   2.528   5.095
 7989TIP3    H123844   4.014   2.431   5.094
 7989TIP3    H223845   4.118   2.537   5.078
 7990TIP3   OH223846   3.730   1.724   4.878
 7990TIP3    H123847   3.687   1.811   4.871
 7990TIP3    H223848   3.666   1.675   4.931
 7991TIP3   OH223849   3.789   2.020   5.043
 7991TIP3    H123850   3.839   1.945   5.083
 7991TIP3    H223851   3.850   2.050   4.975
 7992TIP3   OH223852   4.551   2.448   5.048
 7992TIP3    H123853   4.589   2.375   4.997
 7992TIP3    H223854   4.634   2.493   5.074
 7993TIP3   OH223855   5.564   1.772   5.045
 7993TIP3    H123856   5.592   1.854   5.089
 7993TIP3    H223857   5.580   1.794   4.952
 7994TIP3   OH223858   4.965   1.953   5.079
 7994TIP3    H123859   5.004   1.866   5.099
 7994TIP3    H223860   4.931   1.938   4.989
 7995TIP3   OH223861   4.300   1.612   5.044
 7995TIP3    H123862   4.278   1.684   4.982
 7995TIP3    H223863   4.252   1.538   5.002
 7996TIP3   OH223864   4.993   1.702   4.668
 7996TIP3    H123865   5.066   1.686   4.733
 7996TIP3    H223866   5.044   1.738   4.593
 7997TIP3   OH223867   3.932   1.812   5.153
 7997TIP3    H123868   4.015   1.794   5.201
 7997TIP3    H223869   3.947   1.757   5.073
 7998TIP3   OH223870   4.374   2.011   4.943
 7998TIP3    H123871   4.467   1.986   4.958
 7998TIP3    H223872   4.335   1.927   4.912
 7999TIP3   OH223873   5.637   1.981   5.212
 7999TIP3    H123874   5.552   2.027   5.194
 7999TIP3    H223875   5.644   1.995   5.308
 8000TIP3   OH223876   4.297   1.594   5.479
 8000TIP3    H123877   4.236   1.631   5.412
 8000TIP3    H223878   4.245   1.611   5.560
 8001TIP3   OH223879   4.657   2.441   4.480
 8001TIP3    H123880   4.602   2.425   4.402
 8001TIP3    H223881   4.625   2.527   4.511
 8002TIP3   OH223882   4.403   2.370   5.276
 8002TIP3    H123883   4.339   2.436   5.311
 8002TIP3    H223884   4.442   2.420   5.200
 8003TIP3   OH223885   5.206   1.704   4.839
 8003TIP3    H123886   5.191   1.656   4.921
 8003TIP3    H223887   5.256   1.782   4.869
 8004TIP3   OH223888   4.167   1.710   5.264
 8004TIP3    H123889   4.229   1.783   5.286
 8004TIP3    H223890   4.216   1.669   5.189
 8005TIP3   OH223891   4.232   2.564   5.374
 8005TIP3    H123892   4.206   2.646   5.329
 8005TIP3    H223893   4.152   2.550   5.429
 8006TIP3   OH223894   5.073   2.769   4.844
 8006TIP3    H123895   4.987   2.759   4.890
 8006TIP3    H223896   5.059   2.855   4.800
 8007TIP3   OH223897   5.356   1.674   5.211
 8007TIP3    H123898   5.267   1.700   5.182
 8007TIP3    H223899   5.413   1.704   5.138
 8008TIP3   OH223900   4.652   1.315   5.193
 8008TIP3    H123901   4.640   1.221   5.214
 8008TIP3    H223902   4.575   1.353   5.239
 8009TIP3   OH223903   4.776   2.812   4.515
 8009TIP3    H123904   4.832   2.736   4.493
 8009TIP3    H223905   4.830   2.886   4.481
 8010TIP3   OH223906   4.919   2.595   4.421
 8010TIP3    H123907   4.863   2.521   4.395
 8010TIP3    H223908   4.951   2.565   4.509
 8011TIP3   OH223909   5.293   2.683   5.191
 8011TIP3    H123910   5.279   2.606   5.133
 8011TIP3    H223911   5.271   2.758   5.131
 8012TIP3   OH223912   4.583   2.076   4.449
 8012TIP3    H123913   4.501   2.126   4.429
 8012TIP3    H223914   4.626   2.075   4.362
 8013TIP3   OH223915   4.545   1.863   4.162
 8013TIP3    H123916   4.612   1.912   4.213
 8013TIP3    H223917   4.601   1.798   4.115
 8014TIP3   OH223918   5.488   2.322   5.037
 8014TIP3    H123919   5.403   2.372   5.043
 8014TIP3    H223920   5.515   2.345   4.945
 8015TIP3   OH223921   4.931   2.160   4.421
 8015TIP3    H123922   4.874   2.184   4.498
 8015TIP3    H223923   5.013   2.133   4.467
 8016TIP3   OH223924   5.166   2.199   5.331
 8016TIP3    H123925   5.161   2.284   5.380
 8016TIP3    H223926   5.078   2.201   5.286
 8017TIP3   OH223927   4.159   2.154   4.834
 8017TIP3    H123928   4.116   2.093   4.772
 8017TIP3    H223929   4.237   2.102   4.864
 8018TIP3   OH223930   4.283   2.539   4.998
 8018TIP3    H123931   4.269   2.529   4.902
 8018TIP3    H223932   4.379   2.525   5.007
 8019TIP3   OH223933   4.301   2.128   5.191
 8019TIP3    H123934   4.332   2.110   5.100
 8019TIP3    H223935   4.341   2.215   5.211
 8020TIP3   OH223936   4.844   2.762   4.978
 8020TIP3    H123937   4.805   2.843   5.016
 8020TIP3    H223938   4.812   2.692   5.038
 8021TIP3   OH223939   4.436   2.683   5.518
 8021TIP3    H123940   4.375   2.748   5.560
 8021TIP3    H223941   4.371   2.631   5.466
 8022TIP3   OH223942   4.774   2.015   4.247
 8022TIP3    H123943   4.831   2.076   4.299
 8022TIP3    H223944   4.798   2.040   4.155
 8023TIP3   OH223945   4.190   2.239   5.617
 8023TIP3    H123946   4.195   2.327   5.660
 8023TIP3    H223947   4.095   2.221   5.625
 8024TIP3   OH223948   4.232   2.855   5.602
 8024TIP3    H123949   4.199   2.853   5.510
 8024TIP3    H223950   4.150   2.832   5.653
 8025TIP3   OH223951   5.286   1.258   4.295
 8025TIP3    H123952   5.204   1.276   4.347
 8025TIP3    H223953   5.297   1.342   4.246
 8026TIP3   OH223954   4.005   1.984   4.639
 8026TIP3    H123955   3.963   2.008   4.555
 8026TIP3    H223956   3.968   1.894   4.648
 8027TIP3   OH223957   5.083   2.625   3.841
 8027TIP3    H123958   5.089   2.723   3.829
 8027TIP3    H223959   5.176   2.598   3.829
 8028TIP3   OH223960   3.809   2.384   5.549
 8028TIP3    H123961   3.743   2.364   5.480
 8028TIP3    H223962   3.845   2.296   5.571
 8029TIP3   OH223963   3.664   2.576   5.182
 8029TIP3    H123964   3.760   2.571   5.170
 8029TIP3    H223965   3.655   2.656   5.235
 8030TIP3   OH223966   5.530   3.028   5.237
 8030TIP3    H123967   5.527   2.932   5.251
 8030TIP3    H223968   5.446   3.054   5.282
 8031TIP3   OH223969   4.638   2.811   5.376
 8031TIP3    H123970   4.634   2.905   5.405
 8031TIP3    H223971   4.563   2.774   5.427
 8032TIP3   OH223972   3.828   2.799   4.713
 8032TIP3    H123973   3.881   2.786   4.794
 8032TIP3    H223974   3.776   2.715   4.714
 8033TIP3   OH223975   4.599   2.847   3.965
 8033TIP3    H123976   4.656   2.775   3.931
 8033TIP3    H223977   4.626   2.853   4.059
 8034TIP3   OH223978   4.636   2.894   4.246
 8034TIP3    H123979   4.552   2.894   4.294
 8034TIP3    H223980   4.696   2.862   4.315
 8035TIP3   OH223981   5.420   2.161   5.510
 8035TIP3    H123982   5.337   2.174   5.462
 8035TIP3    H223983   5.434   2.065   5.500
 8036TIP3   OH223984   4.015   2.567   5.539
 8036TIP3    H123985   4.065   2.548   5.621
 8036TIP3    H223986   3.940   2.504   5.545
 8037TIP3   OH223987   4.412   1.393   5.318
 8037TIP3    H123988   4.323   1.360   5.294
 8037TIP3    H223989   4.388   1.473   5.367
 8038TIP3   OH223990   4.947   1.506   5.517
 8038TIP3    H123991   5.015   1.477   5.581
 8038TIP3    H223992   4.863   1.484   5.562
 8039TIP3   OH223993   5.191   1.937   5.437
 8039TIP3    H123994   5.140   1.932   5.521
 8039TIP3    H223995   5.161   2.022   5.400
 8040TIP3   OH223996   4.848   2.061   3.990
 8040TIP3    H123997   4.814   2.037   3.901
 8040TIP3    H223998   4.924   2.117   3.966
 8041TIP3   OH223999   4.563   1.437   4.293
 8041TIP3    H124000   4.528   1.437   4.384
 8041TIP3    H224001   4.520   1.356   4.259
 8042TIP3   OH224002   4.346   1.905   5.340
 8042TIP3    H124003   4.295   1.925   5.421
 8042TIP3    H224004   4.330   1.986   5.287
 8043TIP3   OH224005   4.230   1.790   4.850
 8043TIP3    H124006   4.137   1.766   4.870
 8043TIP3    H224007   4.240   1.751   4.761
 8044TIP3   OH224008   4.719   1.877   4.582
 8044TIP3    H124009   4.666   1.948   4.541
 8044TIP3    H224010   4.773   1.847   4.506
 8045TIP3   OH224011   4.895   2.157   5.670
 8045TIP3    H124012   4.871   2.083   5.731
 8045TIP3    H224013   4.989   2.168   5.691
 8046TIP3   OH224014   4.878   1.907   4.821
 8046TIP3    H124015   4.817   1.938   4.751
 8046TIP3    H224016   4.909   1.824   4.778
 8047TIP3   OH224017   4.166   1.934   5.550
 8047TIP3    H124018   4.189   1.998   5.618
 8047TIP3    H224019   4.154   1.852   5.601
 8048TIP3   OH224020   4.217   1.415   4.260
 8048TIP3    H124021   4.201   1.410   4.356
 8048TIP3    H224022   4.141   1.470   4.232
 8049TIP3   OH224023   3.753   1.458   5.130
 8049TIP3    H124024   3.830   1.488   5.182
 8049TIP3    H224025   3.792   1.424   5.048
 8050TIP3   OH224026   3.732   1.464   4.637
 8050TIP3    H124027   3.785   1.485   4.558
 8050TIP3    H224028   3.713   1.556   4.661
 8051TIP3   OH224029   4.892   2.153   5.245
 8051TIP3    H124030   4.922   2.081   5.186
 8051TIP3    H224031   4.860   2.100   5.322
 8052TIP3   OH224032   4.557   1.615   4.916
 8052TIP3    H124033   4.474   1.612   4.969
 8052TIP3    H224034   4.624   1.612   4.986
 8053TIP3   OH224035   3.994   1.669   4.925
 8053TIP3    H124036   3.903   1.678   4.889
 8053TIP3    H224037   4.018   1.578   4.899
 8054TIP3   OH224038   4.266   1.670   4.601
 8054TIP3    H124039   4.364   1.679   4.600
 8054TIP3    H224040   4.240   1.707   4.516
 8055TIP3   OH224041   5.049   1.689   5.117
 8055TIP3    H124042   5.016   1.701   5.208
 8055TIP3    H224043   4.982   1.627   5.081
 8056TIP3   OH224044   5.219   3.377   5.336
 8056TIP3    H124045   5.214   3.402   5.242
 8056TIP3    H224046   5.294   3.431   5.367
 8057TIP3   OH224047   4.175   2.487   5.758
 8057TIP3    H124048   4.254   2.519   5.805
 8057TIP3    H224049   4.110   2.487   5.830
 8058TIP3   OH224050   4.640   1.943   5.014
 8058TIP3    H124051   4.711   1.900   4.965
 8058TIP3    H224052   4.647   1.900   5.102
 8059TIP3   OH224053   4.164   1.428   4.892
 8059TIP3    H124054   4.129   1.350   4.938
 8059TIP3    H224055   4.213   1.389   4.819
 8060TIP3   OH224056   4.617   1.840   5.300
 8060TIP3    H124057   4.526   1.874   5.317
 8060TIP3    H224058   4.673   1.899   5.353
 8061TIP3   OH224059   4.355   2.227   4.399
 8061TIP3    H124060   4.280   2.165   4.387
 8061TIP3    H224061   4.336   2.262   4.489
 8062TIP3   OH224062   5.254   2.463   5.028
 8062TIP3    H124063   5.275   2.514   4.947
 8062TIP3    H224064   5.167   2.423   5.005
 8063TIP3   OH224065   4.811   1.543   4.256
 8063TIP3    H124066   4.715   1.525   4.268
 8063TIP3    H224067   4.820   1.637   4.283
 8064TIP3   OH224068   4.756   2.548   5.397
 8064TIP3    H124069   4.770   2.528   5.489
 8064TIP3    H224070   4.716   2.637   5.400
 8065TIP3   OH224071   4.881   1.787   4.363
 8065TIP3    H124072   4.977   1.796   4.379
 8065TIP3    H224073   4.860   1.868   4.311
 8066TIP3   OH224074   4.042   2.247   5.074
 8066TIP3    H124075   4.084   2.225   4.989
 8066TIP3    H224076   4.086   2.187   5.136
 8067TIP3   OH224077   4.498   2.381   4.220
 8067TIP3    H124078   4.450   2.467   4.224
 8067TIP3    H224079   4.442   2.325   4.278
 8068TIP3   OH224080   3.926   2.170   5.686
 8068TIP3    H124081   3.944   2.156   5.781
 8068TIP3    H224082   3.855   2.105   5.670
 8069TIP3   OH224083   4.650   2.285   5.708
 8069TIP3    H124084   4.590   2.228   5.658
 8069TIP3    H224085   4.737   2.252   5.678
 8070TIP3   OH224086   4.918   2.802   5.296
 8070TIP3    H124087   4.821   2.804   5.301
 8070TIP3    H224088   4.941   2.858   5.373
 8071TIP3   OH224089   5.327   1.878   4.197
 8071TIP3    H124090   5.263   1.832   4.137
 8071TIP3    H224091   5.320   1.968   4.158
 8072TIP3   OH224092   5.542   2.737   5.280
 8072TIP3    H124093   5.444   2.732   5.272
 8072TIP3    H224094   5.567   2.707   5.190
 8073TIP3   OH224095   5.032   2.697   4.110
 8073TIP3    H124096   4.994   2.633   4.173
 8073TIP3    H224097   5.033   2.649   4.026
 8074TIP3   OH224098   5.020   2.326   4.947
 8074TIP3    H124099   4.927   2.302   4.961
 8074TIP3    H224100   5.053   2.247   4.901
 8075TIP3   OH224101   4.151   2.552   4.699
 8075TIP3    H124102   4.163   2.635   4.647
 8075TIP3    H224103   4.055   2.552   4.706
 8076TIP3   OH224104   4.286   2.321   4.644
 8076TIP3    H124105   4.249   2.410   4.661
 8076TIP3    H224106   4.249   2.271   4.719
 8077TIP3   OH224107   4.416   2.899   5.168
 8077TIP3    H124108   4.453   2.971   5.113
 8077TIP3    H224109   4.496   2.867   5.213
 8078TIP3   OH224110   4.065   2.780   4.545
 8078TIP3    H124111   3.988   2.814   4.594
 8078TIP3    H224112   4.135   2.846   4.566
 8079TIP3   OH224113   4.802   2.529   5.128
 8079TIP3    H124114   4.794   2.530   5.226
 8079TIP3    H224115   4.884   2.480   5.116
 8080TIP3   OH224116   4.778   2.425   4.007
 8080TIP3    H124117   4.829   2.399   4.087
 8080TIP3    H224118   4.688   2.400   4.035
 8081TIP3   OH224119   5.053   3.066   5.176
 8081TIP3    H124120   4.973   3.011   5.167
 8081TIP3    H224121   5.038   3.132   5.105
 8082TIP3   OH224122   5.117   2.900   3.830
 8082TIP3    H124123   5.152   2.971   3.773
 8082TIP3    H224124   5.038   2.946   3.865
 8083TIP3   OH224125   4.139   1.677   5.696
 8083TIP3    H124126   4.043   1.677   5.709
 8083TIP3    H224127   4.168   1.617   5.766
 8084TIP3   OH224128   4.937   2.353   4.220
 8084TIP3    H124129   4.927   2.292   4.296
 8084TIP3    H224130   5.034   2.357   4.213
 8085TIP3   OH224131   3.851   2.763   5.328
 8085TIP3    H124132   3.906   2.687   5.356
 8085TIP3    H224133   3.886   2.832   5.385
 8086TIP3   OH224134   4.146   2.403   4.009
 8086TIP3    H124135   4.157   2.310   3.983
 8086TIP3    H224136   4.125   2.394   4.105
 8087TIP3   OH224137   4.100   2.405   4.280
 8087TIP3    H124138   4.167   2.390   4.347
 8087TIP3    H224139   4.086   2.502   4.286
 8088TIP3   OH224140   3.807   2.184   4.471
 8088TIP3    H124141   3.820   2.177   4.565
 8088TIP3    H224142   3.895   2.206   4.440
 8089TIP3   OH224143   4.976   1.741   5.376
 8089TIP3    H124144   5.055   1.777   5.419
 8089TIP3    H224145   4.958   1.660   5.428
 8090TIP3   OH224146   4.856   1.493   4.539
 8090TIP3    H124147   4.840   1.518   4.446
 8090TIP3    H224148   4.894   1.575   4.577
 8091TIP3   OH224149   4.359   2.615   4.231
 8091TIP3    H124150   4.271   2.635   4.268
 8091TIP3    H224151   4.369   2.692   4.173
 8092TIP3   OH224152   4.541   1.673   4.645
 8092TIP3    H124153   4.607   1.744   4.627
 8092TIP3    H224154   4.549   1.665   4.743
 8093TIP3   OH224155   4.813   1.991   5.452
 8093TIP3    H124156   4.832   2.045   5.530
 8093TIP3    H224157   4.868   1.912   5.467
 8094TIP3   OH224158   4.689   1.401   4.747
 8094TIP3    H124159   4.682   1.477   4.807
 8094TIP3    H224160   4.750   1.437   4.678
 8095TIP3   OH224161   4.095   2.678   4.293
 8095TIP3    H124162   4.070   2.752   4.232
 8095TIP3    H224163   4.080   2.720   4.381
 8096TIP3   OH224164   4.199   1.397   4.537
 8096TIP3    H124165   4.196   1.488   4.571
 8096TIP3    H224166   4.296   1.380   4.543
 8097TIP3   OH224167   5.456   1.891   5.427
 8097TIP3    H124168   5.358   1.893   5.440
 8097TIP3    H224169   5.459   1.842   5.344
 8098TIP3   OH224170   5.105   2.084   4.819
 8098TIP3    H124171   5.027   2.027   4.832
 8098TIP3    H224172   5.175   2.037   4.869
 8099TIP3   OH224173   5.075   3.043   4.772
 8099TIP3    H124174   5.030   3.088   4.697
 8099TIP3    H224175   5.168   3.060   4.748
 8100TIP3   OH224176   4.149   1.309   5.298
 8100TIP3    H124177   4.118   1.275   5.211
 8100TIP3    H224178   4.139   1.231   5.356
 8101TIP3   OH224179   3.701   2.547   4.685
 8101TIP3    H124180   3.619   2.555   4.735
 8101TIP3    H224181   3.669   2.570   4.594
 8102TIP3   OH224182   3.844   3.070   5.749
 8102TIP3    H124183   3.930   3.069   5.796
 8102TIP3    H224184   3.822   2.975   5.747
 8103TIP3   OH224185   4.327   3.032   5.797
 8103TIP3    H124186   4.422   3.017   5.798
 8103TIP3    H224187   4.300   2.976   5.721
 8104TIP3   OH224188   4.307   2.606   3.916
 8104TIP3    H124189   4.249   2.539   3.960
 8104TIP3    H224190   4.382   2.550   3.890
 8105TIP3   OH224191   4.965   2.944   5.528
 8105TIP3    H124192   4.957   2.872   5.595
 8105TIP3    H224193   5.042   2.993   5.559
 8106TIP3   OH224194   4.745   2.652   3.833
 8106TIP3    H124195   4.787   2.585   3.890
 8106TIP3    H224196   4.801   2.652   3.753
 8107TIP3   OH224197   3.975   2.478   5.950
 8107TIP3    H124198   3.992   2.382   5.952
 8107TIP3    H224199   3.888   2.481   5.906
 8108TIP3   OH224200   3.946   2.112   4.134
 8108TIP3    H124201   3.998   2.084   4.211
 8108TIP3    H224202   4.017   2.130   4.070
 8109TIP3   OH224203   4.582   2.561   5.723
 8109TIP3    H124204   4.539   2.579   5.637
 8109TIP3    H224205   4.612   2.468   5.714
 8110TIP3   OH224206   4.466   2.327   3.949
 8110TIP3    H124207   4.463   2.340   4.046
 8110TIP3    H224208   4.461   2.229   3.944
 8111TIP3   OH224209   5.077   2.568   5.329
 8111TIP3    H124210   5.149   2.617   5.284
 8111TIP3    H224211   5.004   2.632   5.319
 8112TIP3   OH224212   4.094   2.213   5.930
 8112TIP3    H124213   4.166   2.152   5.909
 8112TIP3    H224214   4.119   2.242   6.020
 8113TIP3   OH224215   4.156   2.029   4.373
 8113TIP3    H124216   4.134   1.973   4.449
 8113TIP3    H224217   4.194   1.961   4.312
 8114TIP3   OH224218   4.430   2.097   5.593
 8114TIP3    H124219   4.351   2.155   5.596
 8114TIP3    H224220   4.478   2.130   5.514
 8115TIP3   OH224221   4.269   1.835   4.218
 8115TIP3    H124222   4.228   1.818   4.131
 8115TIP3    H224223   4.364   1.838   4.196
 8116TIP3   OH224224   4.946   2.497   5.728
 8116TIP3    H124225   5.024   2.471   5.677
 8116TIP3    H224226   4.943   2.429   5.797
 8117TIP3   OH224227   5.088   2.156   3.866
 8117TIP3    H124228   5.062   2.109   3.784
 8117TIP3    H224229   5.054   2.246   3.843
 8118TIP3   OH224230   4.553   1.884   5.719
 8118TIP3    H124231   4.552   1.803   5.664
 8118TIP3    H224232   4.509   1.949   5.661
 8119TIP3   OH224233   4.555   1.671   5.526
 8119TIP3    H124234   4.582   1.710   5.440
 8119TIP3    H224235   4.462   1.646   5.508
 8120TIP3   OH224236   4.583   2.207   5.400
 8120TIP3    H124237   4.665   2.215   5.349
 8120TIP3    H224238   4.525   2.273   5.356
 8121TIP3   OH224239   5.165   2.173   5.781
 8121TIP3    H124240   5.211   2.088   5.792
 8121TIP3    H224241   5.234   2.230   5.746
 8122TIP3   OH224242   5.206   2.426   5.518
 8122TIP3    H124243   5.147   2.479   5.458
 8122TIP3    H224244   5.293   2.445   5.477
 8123TIP3   OH224245   4.432   1.995   5.951
 8123TIP3    H124246   4.362   1.928   5.964
 8123TIP3    H224247   4.466   1.970   5.862
 8124TIP3   OH224248   4.688   1.434   5.591
 8124TIP3    H124249   4.638   1.516   5.570
 8124TIP3    H224250   4.618   1.366   5.581
 8125TIP3   OH224251   4.813   1.939   5.809
 8125TIP3    H124252   4.800   1.925   5.905
 8125TIP3    H224253   4.724   1.914   5.778
 8126TIP3   OH224254   5.053   1.888   5.664
 8126TIP3    H124255   4.976   1.888   5.725
 8126TIP3    H224256   5.125   1.855   5.722
 8127TIP3   OH224257   5.287   1.829   5.815
 8127TIP3    H124258   5.296   1.733   5.833
 8127TIP3    H224259   5.279   1.866   5.906
 8128TIP3   OH224260   4.270   1.776   6.002
 8128TIP3    H124261   4.275   1.685   5.967
 8128TIP3    H224262   4.306   1.763   6.092
 8129TIP3   OH224263   4.783   1.446   5.849
 8129TIP3    H124264   4.849   1.373   5.845
 8129TIP3    H224265   4.742   1.437   5.761
 8130TIP3   OH224266   4.849   1.659   6.007
 8130TIP3    H124267   4.827   1.587   5.944
 8130TIP3    H224268   4.770   1.717   6.002
 8131TIP3   OH224269   4.068   2.883   4.106
 8131TIP3    H124270   4.166   2.882   4.098
 8131TIP3    H224271   4.045   2.936   4.028
 8132TIP3   OH224272   3.461   2.881   4.740
 8132TIP3    H124273   3.394   2.818   4.705
 8132TIP3    H224274   3.508   2.824   4.805
 8133TIP3   OH224275   3.595   2.734   4.928
 8133TIP3    H124276   3.588   2.659   4.990
 8133TIP3    H224277   3.651   2.794   4.980
 8134TIP3   OH224278   5.332   3.125   4.725
 8134TIP3    H124279   5.350   3.160   4.814
 8134TIP3    H224280   5.380   3.186   4.668
 8135TIP3   OH224281   5.357   3.152   5.006
 8135TIP3    H124282   5.310   3.066   5.003
 8135TIP3    H224283   5.427   3.129   5.069
 8136TIP3   OH224284   5.403   2.829   5.581
 8136TIP3    H124285   5.329   2.836   5.644
 8136TIP3    H224286   5.442   2.919   5.586
 8137TIP3   OH224287   5.220   2.340   4.201
 8137TIP3    H124288   5.286   2.407   4.176
 8137TIP3    H224289   5.261   2.302   4.281
 8138TIP3   OH224290   5.347   2.209   4.406
 8138TIP3    H124291   5.278   2.165   4.461
 8138TIP3    H224292   5.404   2.251   4.473
 8139TIP3   OH224293   5.402   2.603   4.841
 8139TIP3    H124294   5.452   2.540   4.786
 8139TIP3    H224295   5.386   2.676   4.779
 8140TIP3   OH224296   5.231   2.902   5.033
 8140TIP3    H124297   5.159   2.945   5.084
 8140TIP3    H224298   5.181   2.856   4.962
 8141TIP3   OH224299   5.285   2.118   4.050
 8141TIP3    H124300   5.212   2.120   3.983
 8141TIP3    H224301   5.256   2.193   4.106
 8142TIP3   OH224302   5.158   1.789   4.004
 8142TIP3    H124303   5.109   1.830   3.932
 8142TIP3    H224304   5.132   1.695   3.994
 8143TIP3   OH224305   5.162   2.065   4.550
 8143TIP3    H124306   5.166   1.968   4.546
 8143TIP3    H224307   5.146   2.081   4.646
 8144TIP3   OH224308   3.786   2.136   5.298
 8144TIP3    H124309   3.785   2.109   5.204
 8144TIP3    H224310   3.884   2.140   5.314
 8145TIP3   OH224311   5.448   2.490   5.409
 8145TIP3    H124312   5.521   2.425   5.398
 8145TIP3    H224313   5.473   2.560   5.346
 8146TIP3   OH224314   5.636   2.298   5.422
 8146TIP3    H124315   5.560   2.249   5.461
 8146TIP3    H224316   5.707   2.232   5.438
 8147TIP3   OH224317   5.099   1.523   3.990
 8147TIP3    H124318   5.171   1.493   4.048
 8147TIP3    H224319   5.024   1.467   4.016
 8148TIP3   OH224320   5.156   1.782   4.447
 8148TIP3    H124321   5.196   1.693   4.463
 8148TIP3    H224322   5.214   1.814   4.376
 8149TIP3   OH224323   5.318   1.955   4.941
 8149TIP3    H124324   5.404   1.982   4.902
 8149TIP3    H224325   5.329   1.992   5.031
 8150TIP3   OH224326   5.386   2.101   5.172
 8150TIP3    H124327   5.308   2.133   5.222
 8150TIP3    H224328   5.416   2.183   5.129
 8151TIP3   OH224329   4.003   1.825   5.969
 8151TIP3    H124330   4.100   1.819   5.972
 8151TIP3    H224331   3.978   1.741   6.012
 8152TIP3   OH224332   5.840   1.694   5.729
 8152TIP3    H124333   5.896   1.625   5.686
 8152TIP3    H224334   5.811   1.747   5.653
 8153TIP3   OH224335   5.265   1.531   4.483
 8153TIP3    H124336   5.312   1.515   4.568
 8153TIP3    H224337   5.204   1.455   4.481
 8154TIP3   OH224338   3.963   1.517   5.301
 8154TIP3    H124339   4.026   1.443   5.314
 8154TIP3    H224340   4.025   1.593   5.297
 8155TIP3   OH224341   3.765   1.791   5.376
 8155TIP3    H124342   3.816   1.786   5.293
 8155TIP3    H224343   3.789   1.878   5.409
 8156TIP3   OH224344   5.710   1.832   5.534
 8156TIP3    H124345   5.623   1.870   5.557
 8156TIP3    H224346   5.680   1.759   5.476
 8157TIP3   OH224347   5.346   1.467   4.117
 8157TIP3    H124348   5.384   1.394   4.064
 8157TIP3    H224349   5.414   1.537   4.108
 8158TIP3   OH224350   3.747   1.310   4.870
 8158TIP3    H124351   3.653   1.298   4.892
 8158TIP3    H224352   3.742   1.365   4.789
 8159TIP3   OH224353   4.911   3.002   4.378
 8159TIP3    H124354   4.964   2.987   4.298
 8159TIP3    H224355   4.961   3.069   4.426
 8160TIP3   OH224356   3.972   1.381   5.694
 8160TIP3    H124357   3.921   1.371   5.776
 8160TIP3    H224358   3.904   1.414   5.633
 8161TIP3   OH224359   4.011   2.801   5.767
 8161TIP3    H124360   3.919   2.776   5.747
 8161TIP3    H224361   4.016   2.787   5.862
 8162TIP3   OH224362   4.190   2.837   5.319
 8162TIP3    H124363   4.141   2.911   5.278
 8162TIP3    H224364   4.274   2.848   5.269
 8163TIP3   OH224365   4.634   3.078   5.455
 8163TIP3    H124366   4.676   3.081   5.543
 8163TIP3    H224367   4.698   3.130   5.401
 8164TIP3   OH224368   4.810   3.232   5.313
 8164TIP3    H124369   4.879   3.181   5.268
 8164TIP3    H224370   4.864   3.288   5.373
 8165TIP3   OH224371   5.608   1.593   5.412
 8165TIP3    H124372   5.516   1.584   5.382
 8165TIP3    H224373   5.639   1.500   5.401
 8166TIP3   OH224374   3.864   3.091   5.340
 8166TIP3    H124375   3.776   3.126   5.315
 8166TIP3    H224376   3.873   3.128   5.429
 8167TIP3   OH224377   4.103   3.073   5.201
 8167TIP3    H124378   4.015   3.085   5.242
 8167TIP3    H224379   4.086   3.100   5.108
 8168TIP3   OH224380   4.530   3.099   5.005
 8168TIP3    H124381   4.458   3.111   4.939
 8168TIP3    H224382   4.538   3.190   5.039
 8169TIP3   OH224383   4.796   3.040   5.049
 8169TIP3    H124384   4.700   3.050   5.030
 8169TIP3    H224385   4.832   3.115   5.000
 8170TIP3   OH224386   5.012   3.235   4.963
 8170TIP3    H124387   4.991   3.318   4.915
 8170TIP3    H224388   5.031   3.173   4.890
 8171TIP3   OH224389   3.775   2.886   5.085
 8171TIP3    H124390   3.804   2.860   5.175
 8171TIP3    H224391   3.847   2.843   5.033
 8172TIP3   OH224392   3.965   2.754   4.943
 8172TIP3    H124393   3.983   2.670   4.991
 8172TIP3    H224394   4.055   2.793   4.944
 8173TIP3   OH224395   4.217   2.847   4.959
 8173TIP3    H124396   4.276   2.804   4.895
 8173TIP3    H224397   4.278   2.872   5.030
 8174TIP3   OH224398   4.812   1.508   5.031
 8174TIP3    H124399   4.768   1.440   5.085
 8174TIP3    H224400   4.884   1.458   4.988
 8175TIP3   OH224401   5.336   1.390   4.936
 8175TIP3    H124402   5.371   1.442   4.860
 8175TIP3    H224403   5.240   1.406   4.930
 8176TIP3   OH224404   5.432   1.492   4.700
 8176TIP3    H124405   5.505   1.440   4.661
 8176TIP3    H224406   5.464   1.584   4.685
 8177TIP3   OH224407   4.061   1.217   5.049
 8177TIP3    H124408   3.969   1.184   5.050
 8177TIP3    H224409   4.110   1.132   5.047
 8178TIP3   OH224410   3.854   1.085   4.696
 8178TIP3    H124411   3.880   1.142   4.621
 8178TIP3    H224412   3.818   1.151   4.758
 8179TIP3   OH224413   4.503   1.252   4.928
 8179TIP3    H124414   4.564   1.302   4.871
 8179TIP3    H224415   4.526   1.286   5.016
 8180TIP3   OH224416   5.055   1.396   4.913
 8180TIP3    H124417   5.049   1.357   4.825
 8180TIP3    H224418   5.041   1.316   4.970
 8181TIP3   OH224419   5.082   1.319   4.475
 8181TIP3    H124420   4.995   1.362   4.488
 8181TIP3    H224421   5.067   1.234   4.522
 8182TIP3   OH224422   3.562   2.640   4.470
 8182TIP3    H124423   3.471   2.625   4.437
 8182TIP3    H224424   3.567   2.737   4.461
 8183TIP3   OH224425   3.964   1.246   4.463
 8183TIP3    H124426   4.013   1.185   4.405
 8183TIP3    H224427   4.036   1.302   4.498
 8184TIP3   OH224428   4.478   1.421   4.557
 8184TIP3    H124429   4.536   1.374   4.620
 8184TIP3    H224430   4.499   1.514   4.583
 8185TIP3   OH224431   4.335   2.840   4.053
 8185TIP3    H124432   4.422   2.869   4.020
 8185TIP3    H224433   4.317   2.766   3.992
 8186TIP3   OH224434   5.061   2.965   4.149
 8186TIP3    H124435   5.052   2.868   4.137
 8186TIP3    H224436   5.011   2.999   4.071
 8187TIP3   OH224437   4.269   1.501   5.941
 8187TIP3    H124438   4.235   1.429   5.996
 8187TIP3    H224439   4.364   1.500   5.967
 8188TIP3   OH224440   4.518   1.497   6.059
 8188TIP3    H124441   4.602   1.467   6.019
 8188TIP3    H224442   4.503   1.427   6.126
 8189TIP3   OH224443   3.638   2.674   4.119
 8189TIP3    H124444   3.645   2.718   4.205
 8189TIP3    H224445   3.729   2.640   4.106
 8190TIP3   OH224446   5.342   1.558   5.847
 8190TIP3    H124447   5.361   1.526   5.938
 8190TIP3    H224448   5.430   1.551   5.805
 8191TIP3   OH224449   5.283   3.109   5.337
 8191TIP3    H124450   5.203   3.076   5.290
 8191TIP3    H224451   5.262   3.204   5.341
 8192TIP3   OH224452   6.555   2.487   4.106
 8192TIP3    H124453   6.532   2.580   4.083
 8192TIP3    H224454   6.468   2.447   4.101
 8193TIP3   OH224455   6.543   2.479   4.490
 8193TIP3    H124456   6.581   2.455   4.576
 8193TIP3    H224457   6.506   2.394   4.461
 8194TIP3   OH224458   5.853   2.375   4.843
 8194TIP3    H124459   5.877   2.307   4.909
 8194TIP3    H224460   5.918   2.443   4.863
 8195TIP3   OH224461   6.787   2.780   4.168
 8195TIP3    H124462   6.781   2.711   4.236
 8195TIP3    H224463   6.818   2.857   4.219
 8196TIP3   OH224464   5.819   2.789   4.576
 8196TIP3    H124465   5.807   2.692   4.581
 8196TIP3    H224466   5.915   2.795   4.572
 8197TIP3   OH224467   5.528   1.997   4.360
 8197TIP3    H124468   5.472   2.075   4.376
 8197TIP3    H224469   5.460   1.935   4.326
 8198TIP3   OH224470   5.586   2.280   4.536
 8198TIP3    H124471   5.633   2.202   4.573
 8198TIP3    H224472   5.633   2.294   4.453
 8199TIP3   OH224473   6.439   3.246   4.183
 8199TIP3    H124474   6.486   3.174   4.136
 8199TIP3    H224475   6.428   3.208   4.271
 8200TIP3   OH224476   6.348   2.704   4.531
 8200TIP3    H124477   6.390   2.626   4.492
 8200TIP3    H224478   6.429   2.754   4.554
 8201TIP3   OH224479   7.356   2.032   4.529
 8201TIP3    H124480   7.386   2.114   4.573
 8201TIP3    H224481   7.379   2.051   4.436
 8202TIP3   OH224482   6.759   2.211   4.566
 8202TIP3    H124483   6.800   2.125   4.588
 8202TIP3    H224484   6.727   2.193   4.476
 8203TIP3   OH224485   6.096   1.871   4.529
 8203TIP3    H124486   6.070   1.941   4.466
 8203TIP3    H224487   6.049   1.794   4.489
 8204TIP3   OH224488   6.790   1.963   4.153
 8204TIP3    H124489   6.862   1.945   4.217
 8204TIP3    H224490   6.843   1.994   4.077
 8205TIP3   OH224491   5.731   2.072   4.637
 8205TIP3    H124492   5.812   2.048   4.687
 8205TIP3    H224493   5.739   2.011   4.561
 8206TIP3   OH224494   6.178   2.265   4.416
 8206TIP3    H124495   6.269   2.239   4.444
 8206TIP3    H224496   6.136   2.178   4.401
 8207TIP3   OH224497   7.432   2.234   4.701
 8207TIP3    H124498   7.348   2.282   4.684
 8207TIP3    H224499   7.446   2.256   4.795
 8208TIP3   OH224500   6.094   1.852   4.966
 8208TIP3    H124501   6.031   1.887   4.900
 8208TIP3    H224502   6.042   1.866   5.048
 8209TIP3   OH224503   6.419   2.692   3.979
 8209TIP3    H124504   6.407   2.687   3.883
 8209TIP3    H224505   6.386   2.782   3.997
 8210TIP3   OH224506   6.198   2.627   4.761
 8210TIP3    H124507   6.133   2.690   4.801
 8210TIP3    H224508   6.236   2.680   4.689
 8211TIP3   OH224509   6.999   1.961   4.326
 8211TIP3    H124510   6.990   1.911   4.408
 8211TIP3    H224511   7.055   2.036   4.353
 8212TIP3   OH224512   5.964   1.967   4.750
 8212TIP3    H124513   6.026   2.039   4.774
 8212TIP3    H224514   6.014   1.925   4.677
 8213TIP3   OH224515   6.027   2.819   4.858
 8213TIP3    H124516   6.000   2.906   4.821
 8213TIP3    H224517   5.949   2.803   4.916
 8214TIP3   OH224518   5.428   2.510   4.094
 8214TIP3    H124519   5.377   2.534   4.014
 8214TIP3    H224520   5.450   2.598   4.130
 8215TIP3   OH224521   6.864   3.026   4.335
 8215TIP3    H124522   6.773   3.018   4.373
 8215TIP3    H224523   6.856   3.111   4.287
 8216TIP3   OH224524   7.151   1.929   4.696
 8216TIP3    H124525   7.063   1.957   4.668
 8216TIP3    H224526   7.208   1.962   4.623
 8217TIP3   OH224527   6.449   1.571   4.680
 8217TIP3    H124528   6.437   1.475   4.699
 8217TIP3    H224529   6.371   1.607   4.727
 8218TIP3   OH224530   6.565   3.073   4.013
 8218TIP3    H124531   6.611   2.990   3.988
 8218TIP3    H224532   6.624   3.139   3.969
 8219TIP3   OH224533   6.695   2.852   3.916
 8219TIP3    H124534   6.693   2.774   3.859
 8219TIP3    H224535   6.733   2.817   3.999
 8220TIP3   OH224536   7.077   2.950   4.683
 8220TIP3    H124537   7.076   2.866   4.631
 8220TIP3    H224538   7.068   3.015   4.610
 8221TIP3   OH224539   6.340   2.118   3.662
 8221TIP3    H124540   6.411   2.173   3.699
 8221TIP3    H224541   6.394   2.053   3.612
 8222TIP3   OH224542   7.280   2.577   4.522
 8222TIP3    H124543   7.198   2.631   4.527
 8222TIP3    H224544   7.311   2.599   4.432
 8223TIP3   OH224545   6.726   2.415   3.907
 8223TIP3    H124546   6.676   2.442   3.987
 8223TIP3    H224547   6.811   2.387   3.948
 8224TIP3   OH224548   6.961   2.455   4.818
 8224TIP3    H124549   6.956   2.536   4.872
 8224TIP3    H224550   6.874   2.458   4.773
 8225TIP3   OH224551   5.985   2.407   4.292
 8225TIP3    H124552   5.906   2.350   4.283
 8225TIP3    H224553   6.043   2.357   4.355
 8226TIP3   OH224554   6.088   2.826   4.468
 8226TIP3    H124555   6.063   2.786   4.383
 8226TIP3    H224556   6.177   2.789   4.483
 8227TIP3   OH224557   6.105   2.383   4.671
 8227TIP3    H124558   6.144   2.373   4.583
 8227TIP3    H224559   6.139   2.470   4.701
 8228TIP3   OH224560   6.624   3.024   4.456
 8228TIP3    H124561   6.600   3.103   4.507
 8228TIP3    H224562   6.604   2.949   4.516
 8229TIP3   OH224563   6.232   2.941   4.999
 8229TIP3    H124564   6.174   3.004   5.047
 8229TIP3    H224565   6.164   2.889   4.952
 8230TIP3   OH224566   6.568   2.266   3.736
 8230TIP3    H124567   6.621   2.331   3.788
 8230TIP3    H224568   6.591   2.294   3.644
 8231TIP3   OH224569   5.983   2.500   5.096
 8231TIP3    H124570   5.990   2.585   5.145
 8231TIP3    H224571   5.890   2.477   5.115
 8232TIP3   OH224572   6.313   2.951   4.009
 8232TIP3    H124573   6.390   3.008   4.025
 8232TIP3    H224574   6.248   3.012   3.972
 8233TIP3   OH224575   6.028   3.109   5.090
 8233TIP3    H124576   5.991   3.107   5.000
 8233TIP3    H224577   5.949   3.088   5.145
 8234TIP3   OH224578   7.084   1.515   3.783
 8234TIP3    H124579   7.001   1.535   3.832
 8234TIP3    H224580   7.095   1.597   3.730
 8235TIP3   OH224581   5.827   2.254   4.124
 8235TIP3    H124582   5.754   2.297   4.073
 8235TIP3    H224583   5.787   2.167   4.141
 8236TIP3   OH224584   6.882   2.883   3.332
 8236TIP3    H124585   6.890   2.979   3.315
 8236TIP3    H224586   6.974   2.853   3.318
 8237TIP3   OH224587   5.608   2.640   5.034
 8237TIP3    H124588   5.537   2.620   4.969
 8237TIP3    H224589   5.640   2.551   5.058
 8238TIP3   OH224590   5.459   2.834   4.667
 8238TIP3    H124591   5.556   2.837   4.665
 8238TIP3    H224592   5.438   2.914   4.718
 8239TIP3   OH224593   7.333   3.279   4.712
 8239TIP3    H124594   7.335   3.183   4.726
 8239TIP3    H224595   7.280   3.310   4.787
 8240TIP3   OH224596   6.432   3.068   4.861
 8240TIP3    H124597   6.428   3.162   4.892
 8240TIP3    H224598   6.359   3.029   4.913
 8241TIP3   OH224599   6.190   3.201   3.807
 8241TIP3    H124600   6.142   3.179   3.726
 8241TIP3    H224601   6.154   3.288   3.831
 8242TIP3   OH224602   5.630   3.049   4.192
 8242TIP3    H124603   5.674   3.038   4.279
 8242TIP3    H224604   5.566   2.976   4.196
 8243TIP3   OH224605   6.393   3.099   3.452
 8243TIP3    H124606   6.451   3.030   3.414
 8243TIP3    H224607   6.429   3.108   3.542
 8244TIP3   OH224608   6.443   3.149   3.721
 8244TIP3    H124609   6.355   3.159   3.763
 8244TIP3    H224610   6.494   3.108   3.793
 8245TIP3   OH224611   7.213   2.415   4.997
 8245TIP3    H124612   7.130   2.423   4.947
 8245TIP3    H224613   7.230   2.319   4.990
 8246TIP3   OH224614   5.813   2.821   5.024
 8246TIP3    H124615   5.860   2.807   5.108
 8246TIP3    H224616   5.737   2.759   5.032
 8247TIP3   OH224617   6.210   1.649   4.806
 8247TIP3    H124618   6.121   1.616   4.782
 8247TIP3    H224619   6.183   1.728   4.857
 8248TIP3   OH224620   6.743   1.763   5.004
 8248TIP3    H124621   6.811   1.734   5.068
 8248TIP3    H224622   6.659   1.741   5.049
 8249TIP3   OH224623   6.985   2.192   4.923
 8249TIP3    H124624   6.936   2.186   5.008
 8249TIP3    H224625   6.956   2.278   4.887
 8250TIP3   OH224626   6.642   2.325   3.480
 8250TIP3    H124627   6.608   2.297   3.393
 8250TIP3    H224628   6.726   2.367   3.453
 8251TIP3   OH224629   6.356   1.696   3.780
 8251TIP3    H124630   6.322   1.692   3.871
 8251TIP3    H224631   6.318   1.613   3.745
 8252TIP3   OH224632   6.143   2.162   4.827
 8252TIP3    H124633   6.091   2.181   4.908
 8252TIP3    H224634   6.125   2.243   4.774
 8253TIP3   OH224635   6.017   2.055   4.338
 8253TIP3    H124636   5.929   2.018   4.360
 8253TIP3    H224637   6.034   2.008   4.252
 8254TIP3   OH224638   6.516   2.141   4.056
 8254TIP3    H124639   6.476   2.199   3.990
 8254TIP3    H224640   6.583   2.096   3.999
 8255TIP3   OH224641   6.691   2.414   5.156
 8255TIP3    H124642   6.667   2.341   5.217
 8255TIP3    H224643   6.785   2.426   5.179
 8256TIP3   OH224644   6.674   2.163   4.307
 8256TIP3    H124645   6.617   2.193   4.233
 8256TIP3    H224646   6.710   2.081   4.266
 8257TIP3   OH224647   5.962   2.190   5.036
 8257TIP3    H124648   5.979   2.253   5.108
 8257TIP3    H224649   5.947   2.107   5.085
 8258TIP3   OH224650   6.014   1.672   3.746
 8258TIP3    H124651   6.002   1.663   3.842
 8258TIP3    H224652   5.932   1.717   3.719
 8259TIP3   OH224653   5.553   1.718   4.612
 8259TIP3    H124654   5.630   1.743   4.667
 8259TIP3    H224655   5.593   1.675   4.535
 8260TIP3   OH224656   5.529   1.696   4.136
 8260TIP3    H124657   5.572   1.736   4.057
 8260TIP3    H224658   5.465   1.766   4.158
 8261TIP3   OH224659   6.684   2.412   4.729
 8261TIP3    H124660   6.717   2.338   4.672
 8261TIP3    H224661   6.656   2.360   4.807
 8262TIP3   OH224662   6.352   1.880   4.403
 8262TIP3    H124663   6.270   1.870   4.456
 8262TIP3    H224664   6.421   1.866   4.470
 8263TIP3   OH224665   5.788   1.926   4.406
 8263TIP3    H124666   5.693   1.934   4.384
 8263TIP3    H224667   5.807   1.832   4.389
 8264TIP3   OH224668   6.057   1.937   4.097
 8264TIP3    H124669   6.152   1.933   4.073
 8264TIP3    H224670   6.011   1.947   4.012
 8265TIP3   OH224671   6.845   1.947   4.604
 8265TIP3    H124672   6.811   1.957   4.696
 8265TIP3    H224673   6.780   1.884   4.568
 8266TIP3   OH224674   5.895   1.966   3.877
 8266TIP3    H124675   5.824   1.912   3.837
 8266TIP3    H224676   5.947   1.989   3.798
 8267TIP3   OH224677   7.008   3.635   4.826
 8267TIP3    H124678   7.012   3.654   4.731
 8267TIP3    H224679   7.091   3.676   4.857
 8268TIP3   OH224680   5.973   2.744   5.245
 8268TIP3    H124681   6.051   2.776   5.295
 8268TIP3    H224682   5.907   2.742   5.316
 8269TIP3   OH224683   6.436   2.202   4.502
 8269TIP3    H124684   6.506   2.154   4.455
 8269TIP3    H224685   6.439   2.160   4.590
 8270TIP3   OH224686   5.961   1.683   4.379
 8270TIP3    H124687   5.923   1.607   4.428
 8270TIP3    H224688   6.013   1.638   4.311
 8271TIP3   OH224689   6.413   2.102   4.780
 8271TIP3    H124690   6.322   2.131   4.803
 8271TIP3    H224691   6.469   2.156   4.839
 8272TIP3   OH224692   7.048   2.730   4.520
 8272TIP3    H124693   7.076   2.775   4.437
 8272TIP3    H224694   6.966   2.684   4.492
 8273TIP3   OH224695   6.609   1.796   3.751
 8273TIP3    H124696   6.512   1.779   3.756
 8273TIP3    H224697   6.616   1.892   3.769
 8274TIP3   OH224698   6.564   2.814   4.882
 8274TIP3    H124699   6.566   2.775   4.971
 8274TIP3    H224700   6.507   2.892   4.893
 8275TIP3   OH224701   6.680   2.044   3.856
 8275TIP3    H124702   6.777   2.049   3.864
 8275TIP3    H224703   6.659   2.120   3.797
 8276TIP3   OH224704   5.844   2.511   4.565
 8276TIP3    H124705   5.890   2.482   4.485
 8276TIP3    H224706   5.872   2.446   4.631
 8277TIP3   OH224707   6.297   2.640   3.709
 8277TIP3    H124708   6.255   2.729   3.715
 8277TIP3    H224709   6.229   2.585   3.746
 8278TIP3   OH224710   5.724   2.424   5.171
 8278TIP3    H124711   5.739   2.411   5.267
 8278TIP3    H224712   5.651   2.362   5.155
 8279TIP3   OH224713   6.446   2.544   5.192
 8279TIP3    H124714   6.385   2.482   5.150
 8279TIP3    H224715   6.533   2.507   5.165
 8280TIP3   OH224716   6.721   3.077   4.788
 8280TIP3    H124717   6.628   3.053   4.771
 8280TIP3    H224718   6.712   3.111   4.879
 8281TIP3   OH224719   7.119   2.136   3.687
 8281TIP3    H124720   7.057   2.090   3.626
 8281TIP3    H224721   7.117   2.224   3.644
 8282TIP3   OH224722   7.333   2.999   4.764
 8282TIP3    H124723   7.237   2.983   4.749
 8282TIP3    H224724   7.368   2.969   4.677
 8283TIP3   OH224725   6.818   2.954   3.594
 8283TIP3    H124726   6.796   2.878   3.650
 8283TIP3    H224727   6.833   2.913   3.507
 8284TIP3   OH224728   6.816   2.584   4.434
 8284TIP3    H124729   6.724   2.556   4.445
 8284TIP3    H224730   6.853   2.505   4.390
 8285TIP3   OH224731   5.938   2.806   4.184
 8285TIP3    H124732   5.941   2.888   4.132
 8285TIP3    H224733   5.843   2.797   4.199
 8286TIP3   OH224734   5.508   2.117   3.892
 8286TIP3    H124735   5.546   2.205   3.910
 8286TIP3    H224736   5.427   2.120   3.948
 8287TIP3   OH224737   6.211   3.155   4.653
 8287TIP3    H124738   6.251   3.230   4.604
 8287TIP3    H224739   6.288   3.124   4.705
 8288TIP3   OH224740   5.863   3.049   4.038
 8288TIP3    H124741   5.776   3.056   4.083
 8288TIP3    H224742   5.892   3.142   4.040
 8289TIP3   OH224743   6.604   2.794   4.614
 8289TIP3    H124744   6.593   2.788   4.711
 8289TIP3    H224745   6.675   2.731   4.598
 8290TIP3   OH224746   6.577   2.683   3.497
 8290TIP3    H124747   6.628   2.659   3.578
 8290TIP3    H224748   6.488   2.653   3.522
 8291TIP3   OH224749   6.846   3.315   4.668
 8291TIP3    H124750   6.758   3.276   4.645
 8291TIP3    H224751   6.847   3.391   4.605
 8292TIP3   OH224752   6.914   3.158   3.316
 8292TIP3    H124753   6.952   3.228   3.261
 8292TIP3    H224754   6.834   3.205   3.348
 8293TIP3   OH224755   5.933   1.934   5.181
 8293TIP3    H124756   5.837   1.939   5.195
 8293TIP3    H224757   5.960   1.874   5.252
 8294TIP3   OH224758   6.735   2.626   3.724
 8294TIP3    H124759   6.725   2.550   3.785
 8294TIP3    H224760   6.831   2.618   3.702
 8295TIP3   OH224761   5.656   3.019   4.811
 8295TIP3    H124762   5.703   2.943   4.850
 8295TIP3    H224763   5.671   3.087   4.878
 8296TIP3   OH224764   5.941   2.665   3.494
 8296TIP3    H124765   5.951   2.574   3.460
 8296TIP3    H224766   5.927   2.649   3.590
 8297TIP3   OH224767   5.902   2.666   3.769
 8297TIP3    H124768   5.930   2.656   3.860
 8297TIP3    H224769   5.894   2.764   3.763
 8298TIP3   OH224770   5.630   2.367   3.974
 8298TIP3    H124771   5.559   2.407   4.030
 8298TIP3    H224772   5.633   2.436   3.903
 8299TIP3   OH224773   6.770   1.998   4.863
 8299TIP3    H124774   6.850   2.034   4.906
 8299TIP3    H224775   6.754   1.916   4.916
 8300TIP3   OH224776   6.644   1.755   4.029
 8300TIP3    H124777   6.635   1.773   3.934
 8300TIP3    H224778   6.690   1.835   4.061
 8301TIP3   OH224779   6.154   2.868   3.719
 8301TIP3    H124780   6.065   2.894   3.752
 8301TIP3    H224781   6.166   2.934   3.649
 8302TIP3   OH224782   6.340   1.932   4.131
 8302TIP3    H124783   6.410   1.998   4.114
 8302TIP3    H224784   6.346   1.922   4.229
 8303TIP3   OH224785   6.612   2.250   4.937
 8303TIP3    H124786   6.629   2.302   5.018
 8303TIP3    H224787   6.664   2.169   4.953
 8304TIP3   OH224788   6.485   1.657   4.234
 8304TIP3    H124789   6.486   1.732   4.297
 8304TIP3    H224790   6.544   1.692   4.163
 8305TIP3   OH224791   5.894   2.936   3.786
 8305TIP3    H124792   5.867   3.007   3.723
 8305TIP3    H224793   5.878   2.980   3.872
 8306TIP3   OH224794   5.995   1.652   4.021
 8306TIP3    H124795   5.989   1.739   4.065
 8306TIP3    H224796   6.091   1.634   4.029
 8307TIP3   OH224797   7.250   2.148   4.917
 8307TIP3    H124798   7.152   2.148   4.927
 8307TIP3    H224799   7.259   2.104   4.832
 8308TIP3   OH224800   6.900   2.344   4.309
 8308TIP3    H124801   6.826   2.282   4.320
 8308TIP3    H224802   6.973   2.296   4.355
 8309TIP3   OH224803   5.613   2.569   3.782
 8309TIP3    H124804   5.659   2.655   3.780
 8309TIP3    H224805   5.660   2.522   3.710
 8310TIP3   OH224806   5.561   1.847   3.909
 8310TIP3    H124807   5.553   1.945   3.906
 8310TIP3    H224808   5.477   1.819   3.871
 8311TIP3   OH224809   6.870   3.298   4.259
 8311TIP3    H124810   6.826   3.344   4.184
 8311TIP3    H224811   6.964   3.318   4.237
 8312TIP3   OH224812   5.947   1.566   4.783
 8312TIP3    H124813   5.914   1.531   4.698
 8312TIP3    H224814   5.937   1.488   4.842
 8313TIP3   OH224815   5.482   2.782   4.163
 8313TIP3    H124816   5.417   2.814   4.227
 8313TIP3    H224817   5.452   2.826   4.080
 8314TIP3   OH224818   5.641   3.326   5.233
 8314TIP3    H124819   5.725   3.325   5.282
 8314TIP3    H224820   5.616   3.232   5.235
 8315TIP3   OH224821   6.125   3.292   5.279
 8315TIP3    H124822   6.218   3.266   5.287
 8315TIP3    H224823   6.096   3.234   5.206
 8316TIP3   OH224824   6.105   2.870   3.411
 8316TIP3    H124825   6.050   2.796   3.445
 8316TIP3    H224826   6.177   2.820   3.367
 8317TIP3   OH224827   6.812   3.184   5.023
 8317TIP3    H124828   6.772   3.112   5.079
 8317TIP3    H224829   6.838   3.242   5.096
 8318TIP3   OH224830   6.540   2.909   3.319
 8318TIP3    H124831   6.588   2.846   3.376
 8318TIP3    H224832   6.594   2.910   3.238
 8319TIP3   OH224833   5.772   2.734   5.435
 8319TIP3    H124834   5.788   2.638   5.441
 8319TIP3    H224835   5.684   2.737   5.393
 8320TIP3   OH224836   5.745   2.392   3.621
 8320TIP3    H124837   5.791   2.338   3.686
 8320TIP3    H224838   5.812   2.395   3.549
 8321TIP3   OH224839   6.383   2.819   5.207
 8321TIP3    H124840   6.333   2.832   5.124
 8321TIP3    H224841   6.410   2.725   5.202
 8322TIP3   OH224842   6.261   2.583   3.436
 8322TIP3    H124843   6.264   2.596   3.533
 8322TIP3    H224844   6.262   2.485   3.431
 8323TIP3   OH224845   6.872   2.823   4.823
 8323TIP3    H124846   6.934   2.866   4.762
 8323TIP3    H224847   6.789   2.871   4.808
 8324TIP3   OH224848   5.893   2.469   5.417
 8324TIP3    H124849   5.961   2.403   5.402
 8324TIP3    H224850   5.916   2.501   5.506
 8325TIP3   OH224851   5.991   2.261   3.887
 8325TIP3    H124852   5.912   2.209   3.909
 8325TIP3    H224853   6.024   2.207   3.810
 8326TIP3   OH224854   6.228   2.356   5.082
 8326TIP3    H124855   6.147   2.412   5.084
 8326TIP3    H224856   6.274   2.389   5.002
 8327TIP3   OH224857   6.059   2.087   3.689
 8327TIP3    H124858   6.030   2.085   3.595
 8327TIP3    H224859   6.156   2.087   3.679
 8328TIP3   OH224860   6.744   2.758   5.211
 8328TIP3    H124861   6.827   2.730   5.171
 8328TIP3    H224862   6.734   2.694   5.284
 8329TIP3   OH224863   6.878   2.412   3.356
 8329TIP3    H124864   6.859   2.365   3.273
 8329TIP3    H224865   6.847   2.502   3.330
 8330TIP3   OH224866   6.350   2.140   5.205
 8330TIP3    H124867   6.348   2.059   5.151
 8330TIP3    H224868   6.304   2.206   5.148
 8331TIP3   OH224869   6.352   1.928   5.011
 8331TIP3    H124870   6.377   1.964   4.924
 8331TIP3    H224871   6.258   1.903   4.995
 8332TIP3   OH224872   6.380   2.464   4.885
 8332TIP3    H124873   6.460   2.467   4.832
 8332TIP3    H224874   6.322   2.529   4.840
 8333TIP3   OH224875   6.960   2.428   5.267
 8333TIP3    H124876   7.005   2.344   5.283
 8333TIP3    H224877   7.033   2.483   5.235
 8334TIP3   OH224878   7.007   2.680   5.005
 8334TIP3    H124879   6.947   2.733   4.947
 8334TIP3    H224880   7.093   2.698   4.963
 8335TIP3   OH224881   6.228   2.252   5.435
 8335TIP3    H124882   6.158   2.185   5.451
 8335TIP3    H224883   6.262   2.224   5.348
 8336TIP3   OH224884   6.484   1.691   5.078
 8336TIP3    H124885   6.434   1.772   5.057
 8336TIP3    H224886   6.414   1.622   5.068
 8337TIP3   OH224887   6.609   2.197   5.296
 8337TIP3    H124888   6.598   2.182   5.392
 8337TIP3    H224889   6.519   2.170   5.266
 8338TIP3   OH224890   6.849   2.143   5.151
 8338TIP3    H124891   6.773   2.144   5.212
 8338TIP3    H224892   6.921   2.111   5.208
 8339TIP3   OH224893   7.080   2.084   5.301
 8339TIP3    H124894   7.092   1.989   5.320
 8339TIP3    H224895   7.074   2.123   5.391
 8340TIP3   OH224896   6.068   2.032   5.488
 8340TIP3    H124897   6.072   1.940   5.454
 8340TIP3    H224898   6.103   2.019   5.579
 8341TIP3   OH224899   6.580   1.702   5.335
 8341TIP3    H124900   6.646   1.630   5.332
 8341TIP3    H224901   6.539   1.693   5.247
 8342TIP3   OH224902   6.645   1.917   5.494
 8342TIP3    H124903   6.623   1.844   5.431
 8342TIP3    H224904   6.566   1.973   5.489
 8343TIP3   OH224905   5.863   3.140   3.608
 8343TIP3    H124906   5.951   3.146   3.567
 8343TIP3    H224907   5.804   3.176   3.542
 8344TIP3   OH224908   5.344   2.523   3.813
 8344TIP3    H124909   5.439   2.544   3.800
 8344TIP3    H224910   5.336   2.436   3.769
 8345TIP3   OH224911   5.261   3.137   4.225
 8345TIP3    H124912   5.192   3.077   4.189
 8345TIP3    H224913   5.304   3.079   4.291
 8346TIP3   OH224914   5.399   2.987   4.411
 8346TIP3    H124915   5.379   2.916   4.475
 8346TIP3    H224916   5.443   3.051   4.470
 8347TIP3   OH224917   7.123   3.389   4.215
 8347TIP3    H124918   7.150   3.439   4.293
 8347TIP3    H224919   7.179   3.428   4.146
 8348TIP3   OH224920   7.147   3.411   4.502
 8348TIP3    H124921   7.115   3.321   4.486
 8348TIP3    H224922   7.237   3.392   4.535
 8349TIP3   OH224923   7.012   2.601   3.688
 8349TIP3    H124924   7.081   2.663   3.658
 8349TIP3    H224925   7.057   2.560   3.766
 8350TIP3   OH224926   7.141   2.468   3.891
 8350TIP3    H124927   7.077   2.424   3.951
 8350TIP3    H224928   7.208   2.504   3.953
 8351TIP3   OH224929   7.194   2.857   4.324
 8351TIP3    H124930   7.249   2.793   4.275
 8351TIP3    H224931   7.192   2.933   4.262
 8352TIP3   OH224932   7.023   3.156   4.520
 8352TIP3    H124933   6.948   3.213   4.543
 8352TIP3    H224934   6.984   3.107   4.443
 8353TIP3   OH224935   7.079   2.375   3.539
 8353TIP3    H124936   7.008   2.376   3.471
 8353TIP3    H224937   7.052   2.452   3.593
 8354TIP3   OH224938   6.947   2.049   3.496
 8354TIP3    H124939   6.912   2.086   3.414
 8354TIP3    H224940   6.924   1.954   3.486
 8355TIP3   OH224941   6.955   2.322   4.037
 8355TIP3    H124942   6.965   2.225   4.031
 8355TIP3    H224943   6.943   2.335   4.134
 8356TIP3   OH224944   5.584   2.394   4.786
 8356TIP3    H124945   5.580   2.365   4.693
 8356TIP3    H224946   5.682   2.396   4.800
 8357TIP3   OH224947   7.249   2.751   4.893
 8357TIP3    H124948   7.315   2.678   4.893
 8357TIP3    H224949   7.284   2.809   4.824
 8358TIP3   OH224950   7.428   2.554   4.917
 8358TIP3    H124951   7.354   2.499   4.952
 8358TIP3    H224952   7.502   2.491   4.928
 8359TIP3   OH224953   6.893   1.784   3.484
 8359TIP3    H124954   6.969   1.749   3.534
 8359TIP3    H224955   6.821   1.721   3.503
 8360TIP3   OH224956   6.954   2.040   3.933
 8360TIP3    H124957   6.994   1.951   3.948
 8360TIP3    H224958   7.011   2.071   3.861
 8361TIP3   OH224959   7.114   2.215   4.427
 8361TIP3    H124960   7.200   2.240   4.387
 8361TIP3    H224961   7.128   2.249   4.517
 8362TIP3   OH224962   7.183   2.357   4.660
 8362TIP3    H124963   7.105   2.390   4.709
 8362TIP3    H224964   7.214   2.438   4.614
 8363TIP3   OH224965   5.801   2.085   5.463
 8363TIP3    H124966   5.899   2.076   5.463
 8363TIP3    H224967   5.775   1.999   5.501
 8364TIP3   OH224968   7.632   1.948   5.217
 8364TIP3    H124969   7.692   1.881   5.176
 8364TIP3    H224970   7.608   2.004   5.140
 8365TIP3   OH224971   7.059   1.789   3.973
 8365TIP3    H124972   7.108   1.771   4.056
 8365TIP3    H224973   6.999   1.711   3.969
 8366TIP3   OH224974   5.762   1.773   4.784
 8366TIP3    H124975   5.823   1.699   4.799
 8366TIP3    H224976   5.824   1.849   4.785
 8367TIP3   OH224977   5.565   2.048   4.864
 8367TIP3    H124978   5.613   2.044   4.779
 8367TIP3    H224979   5.589   2.136   4.896
 8368TIP3   OH224980   7.506   2.089   5.021
 8368TIP3    H124981   7.419   2.127   5.043
 8368TIP3    H224982   7.478   2.014   4.965
 8369TIP3   OH224983   7.143   1.723   3.604
 8369TIP3    H124984   7.181   1.651   3.549
 8369TIP3    H224985   7.209   1.794   3.594
 8370TIP3   OH224986   5.547   1.556   4.367
 8370TIP3    H124987   5.453   1.549   4.392
 8370TIP3    H224988   5.543   1.612   4.286
 8371TIP3   OH224989   6.705   3.255   3.871
 8371TIP3    H124990   6.755   3.240   3.788
 8371TIP3    H224991   6.759   3.323   3.913
 8372TIP3   OH224992   5.768   1.635   5.179
 8372TIP3    H124993   5.717   1.625   5.262
 8372TIP3    H224994   5.699   1.671   5.120
 8373TIP3   OH224995   5.809   3.055   5.256
 8373TIP3    H124996   5.715   3.033   5.238
 8373TIP3    H224997   5.814   3.041   5.352
 8374TIP3   OH224998   5.987   3.089   4.804
 8374TIP3    H124999   5.932   3.161   4.768
 8374TIP3    H225000   6.070   3.109   4.757
 8375TIP3   OH225001   6.431   3.332   4.940
 8375TIP3    H125002   6.471   3.335   5.030
 8375TIP3    H225003   6.493   3.389   4.890
 8376TIP3   OH225004   6.607   3.488   4.803
 8376TIP3    H125005   6.677   3.452   4.747
 8376TIP3    H225006   6.659   3.546   4.863
 8377TIP3   OH225007   7.405   1.849   4.901
 8377TIP3    H125008   7.312   1.844   4.871
 8377TIP3    H225009   7.435   1.758   4.884
 8378TIP3   OH225010   5.664   3.352   4.826
 8378TIP3    H125011   5.574   3.382   4.801
 8378TIP3    H225012   5.669   3.386   4.916
 8379TIP3   OH225013   5.898   3.328   4.683
 8379TIP3    H125014   5.813   3.340   4.731
 8379TIP3    H225015   5.873   3.360   4.594
 8380TIP3   OH225016   6.328   3.355   4.480
 8380TIP3    H125017   6.255   3.374   4.418
 8380TIP3    H225018   6.338   3.442   4.525
 8381TIP3   OH225019   6.597   3.297   4.539
 8381TIP3    H125020   6.503   3.313   4.519
 8381TIP3    H225021   6.638   3.371   4.492
 8382TIP3   OH225022   6.804   3.484   4.456
 8382TIP3    H125023   6.787   3.570   4.411
 8382TIP3    H225024   6.828   3.428   4.379
 8383TIP3   OH225025   5.577   3.147   4.570
 8383TIP3    H125026   5.599   3.118   4.661
 8383TIP3    H225027   5.646   3.099   4.520
 8384TIP3   OH225028   5.767   3.013   4.427
 8384TIP3    H125029   5.781   2.930   4.478
 8384TIP3    H225030   5.858   3.050   4.425
 8385TIP3   OH225031   6.035   3.111   4.429
 8385TIP3    H125032   6.063   3.019   4.418
 8385TIP3    H225033   6.076   3.131   4.516
 8386TIP3   OH225034   6.604   1.762   4.514
 8386TIP3    H125035   6.563   1.695   4.571
 8386TIP3    H225036   6.678   1.714   4.474
 8387TIP3   OH225037   7.137   1.650   4.427
 8387TIP3    H125038   7.169   1.699   4.348
 8387TIP3    H225039   7.041   1.661   4.420
 8388TIP3   OH225040   7.228   1.746   4.189
 8388TIP3    H125041   7.299   1.694   4.145
 8388TIP3    H225042   7.260   1.837   4.172
 8389TIP3   OH225043   5.857   1.475   4.534
 8389TIP3    H125044   5.766   1.440   4.536
 8389TIP3    H225045   5.907   1.390   4.532
 8390TIP3   OH225046   5.643   1.344   4.184
 8390TIP3    H125047   5.671   1.402   4.111
 8390TIP3    H225048   5.613   1.408   4.251
 8391TIP3   OH225049   6.297   1.511   4.414
 8391TIP3    H125050   6.362   1.557   4.358
 8391TIP3    H225051   6.322   1.541   4.502
 8392TIP3   OH225052   6.854   1.653   4.400
 8392TIP3    H125053   6.848   1.615   4.311
 8392TIP3    H225054   6.839   1.573   4.456
 8393TIP3   OH225055   6.878   1.575   3.963
 8393TIP3    H125056   6.789   1.612   3.969
 8393TIP3    H225057   6.865   1.489   4.009
 8394TIP3   OH225058   5.363   2.914   3.961
 8394TIP3    H125059   5.277   2.881   3.929
 8394TIP3    H225060   5.351   3.009   3.941
 8395TIP3   OH225061   5.760   1.505   3.944
 8395TIP3    H125062   5.807   1.439   3.889
 8395TIP3    H225063   5.835   1.556   3.982
 8396TIP3   OH225064   6.271   1.681   4.045
 8396TIP3    H125065   6.328   1.629   4.104
 8396TIP3    H225066   6.299   1.771   4.072
 8397TIP3   OH225067   6.130   3.110   3.536
 8397TIP3    H125068   6.221   3.128   3.505
 8397TIP3    H225069   6.112   3.029   3.482
 8398TIP3   OH225070   6.849   3.221   3.638
 8398TIP3    H125071   6.841   3.124   3.623
 8398TIP3    H225072   6.807   3.255   3.557
 8399TIP3   OH225073   6.065   1.759   5.429
 8399TIP3    H125074   6.031   1.686   5.484
 8399TIP3    H225075   6.160   1.757   5.455
 8400TIP3   OH225076   6.315   1.753   5.546
 8400TIP3    H125077   6.399   1.722   5.508
 8400TIP3    H225078   6.299   1.683   5.614
 8401TIP3   OH225079   5.433   2.939   3.602
 8401TIP3    H125080   5.425   2.978   3.691
 8401TIP3    H225081   5.525   2.907   3.599
 8402TIP3   OH225082   7.138   1.814   5.334
 8402TIP3    H125083   7.157   1.783   5.425
 8402TIP3    H225084   7.227   1.808   5.292
 8403TIP3   OH225085   8.343   2.738   3.593
 8403TIP3    H125086   8.315   2.829   3.571
 8403TIP3    H225087   8.268   2.688   3.557
 8404TIP3   OH225088   8.339   2.741   3.975
 8404TIP3    H125089   8.374   2.709   4.060
 8404TIP3    H225090   8.304   2.659   3.936
 8405TIP3   OH225091   7.641   2.636   4.343
 8405TIP3    H125092   7.675   2.568   4.405
 8405TIP3    H225093   7.723   2.684   4.322
 8406TIP3   OH225094   8.587   3.041   3.653
 8406TIP3    H125095   8.573   2.970   3.718
 8406TIP3    H225096   8.615   3.115   3.710
 8407TIP3   OH225097   7.614   3.042   4.066
 8407TIP3    H125098   7.606   2.944   4.066
 8407TIP3    H225099   7.711   3.051   4.055
 8408TIP3   OH225100   7.318   2.246   3.850
 8408TIP3    H125101   7.270   2.330   3.860
 8408TIP3    H225102   7.250   2.192   3.807
 8409TIP3   OH225103   7.379   2.533   4.020
 8409TIP3    H125104   7.429   2.457   4.056
 8409TIP3    H225105   7.438   2.564   3.950
 8410TIP3   OH225106   8.235   3.502   3.670
 8410TIP3    H125107   8.281   3.431   3.621
 8410TIP3    H225108   8.231   3.465   3.759
 8411TIP3   OH225109   8.142   2.963   4.022
 8411TIP3    H125110   8.181   2.886   3.977
 8411TIP3    H225111   8.225   3.009   4.046
 8412TIP3   OH225112   9.085   2.310   4.028
 8412TIP3    H125113   9.151   2.359   4.083
 8412TIP3    H225114   9.134   2.303   3.945
 8413TIP3   OH225115   8.549   2.466   4.054
 8413TIP3    H125116   8.596   2.383   4.074
 8413TIP3    H225117   8.523   2.450   3.961
 8414TIP3   OH225118   7.889   2.124   4.022
 8414TIP3    H125119   7.873   2.197   3.958
 8414TIP3    H225120   7.844   2.051   3.973
 8415TIP3   OH225121   8.586   2.217   3.641
 8415TIP3    H125122   8.658   2.201   3.706
 8415TIP3    H225123   8.638   2.251   3.566
 8416TIP3   OH225124   7.525   2.326   4.127
 8416TIP3    H125125   7.610   2.307   4.172
 8416TIP3    H225126   7.537   2.272   4.046
 8417TIP3   OH225127   7.966   2.524   3.922
 8417TIP3    H125128   8.060   2.500   3.932
 8417TIP3    H225129   7.928   2.441   3.887
 8418TIP3   OH225130   9.224   2.490   4.186
 8418TIP3    H125131   9.140   2.540   4.186
 8418TIP3    H225132   9.269   2.523   4.265
 8419TIP3   OH225133   7.884   2.105   4.455
 8419TIP3    H125134   7.828   2.146   4.386
 8419TIP3    H225135   7.833   2.128   4.535
 8420TIP3   OH225136   8.234   2.958   3.463
 8420TIP3    H125137   8.196   2.938   3.377
 8420TIP3    H225138   8.190   3.043   3.485
 8421TIP3   OH225139   7.994   2.883   4.248
 8421TIP3    H125140   7.933   2.951   4.284
 8421TIP3    H225141   8.039   2.933   4.176
 8422TIP3   OH225142   8.795   2.218   3.815
 8422TIP3    H125143   8.798   2.165   3.895
 8422TIP3    H225144   8.854   2.292   3.837
 8423TIP3   OH225145   7.759   2.223   4.239
 8423TIP3    H125146   7.821   2.297   4.260
 8423TIP3    H225147   7.807   2.183   4.162
 8424TIP3   OH225148   7.822   3.078   4.346
 8424TIP3    H125149   7.797   3.163   4.305
 8424TIP3    H225150   7.743   3.064   4.403
 8425TIP3   OH225151   7.216   2.767   3.582
 8425TIP3    H125152   7.178   2.791   3.496
 8425TIP3    H225153   7.247   2.853   3.617
 8426TIP3   OH225154   8.657   3.282   3.821
 8426TIP3    H125155   8.567   3.274   3.860
 8426TIP3    H225156   8.650   3.369   3.776
 8427TIP3   OH225157   8.927   2.176   4.198
 8427TIP3    H125158   8.839   2.205   4.167
 8427TIP3    H225159   8.985   2.217   4.130
 8428TIP3   OH225160   8.244   1.827   4.159
 8428TIP3    H125161   8.239   1.732   4.178
 8428TIP3    H225162   8.167   1.861   4.211
 8429TIP3   OH225163   8.358   3.330   3.496
 8429TIP3    H125164   8.408   3.247   3.475
 8429TIP3    H225165   8.417   3.396   3.453
 8430TIP3   OH225166   8.500   3.115   3.402
 8430TIP3    H125167   8.471   3.034   3.358
 8430TIP3    H225168   8.537   3.081   3.486
 8431TIP3   OH225169   8.879   3.196   4.165
 8431TIP3    H125170   8.869   3.119   4.105
 8431TIP3    H225171   8.863   3.271   4.104
 8432TIP3   OH225172   8.175   2.591   3.422
 8432TIP3    H125173   8.095   2.641   3.397
 8432TIP3    H225174   8.223   2.586   3.337
 8433TIP3   OH225175   8.134   2.374   3.140
 8433TIP3    H125176   8.203   2.424   3.187
 8433TIP3    H225177   8.189   2.310   3.091
 8434TIP3   OH225178   9.076   2.830   4.009
 8434TIP3    H125179   8.993   2.883   4.014
 8434TIP3    H225180   9.105   2.849   3.918
 8435TIP3   OH225181   8.521   2.674   3.394
 8435TIP3    H125182   8.467   2.697   3.474
 8435TIP3    H225183   8.604   2.644   3.437
 8436TIP3   OH225184   8.756   2.712   4.307
 8436TIP3    H125185   8.755   2.794   4.359
 8436TIP3    H225186   8.671   2.718   4.260
 8437TIP3   OH225187   7.754   2.670   3.812
 8437TIP3    H125188   7.712   2.613   3.745
 8437TIP3    H225189   7.831   2.617   3.840
 8438TIP3   OH225190   7.881   3.078   3.961
 8438TIP3    H125191   7.864   3.039   3.874
 8438TIP3    H225192   7.972   3.046   3.979
 8439TIP3   OH225193   7.886   2.643   4.165
 8439TIP3    H125194   7.922   2.619   4.077
 8439TIP3    H225195   7.933   2.727   4.185
 8440TIP3   OH225196   8.416   3.279   3.942
 8440TIP3    H125197   8.402   3.359   3.996
 8440TIP3    H225198   8.402   3.206   4.005
 8441TIP3   OH225199   8.029   3.198   4.489
 8441TIP3    H125200   7.970   3.262   4.535
 8441TIP3    H225201   7.963   3.145   4.440
 8442TIP3   OH225202   8.361   2.532   3.220
 8442TIP3    H125203   8.423   2.588   3.272
 8442TIP3    H225204   8.387   2.556   3.128
 8443TIP3   OH225205   7.784   2.754   4.593
 8443TIP3    H125206   7.788   2.841   4.637
 8443TIP3    H225207   7.688   2.737   4.596
 8444TIP3   OH225208   8.104   3.211   3.497
 8444TIP3    H125209   8.185   3.264   3.512
 8444TIP3    H225210   8.045   3.275   3.456
 8445TIP3   OH225211   7.824   3.367   4.574
 8445TIP3    H125212   7.790   3.366   4.483
 8445TIP3    H225213   7.745   3.346   4.627
 8446TIP3   OH225214   8.883   1.788   3.294
 8446TIP3    H125215   8.794   1.806   3.329
 8446TIP3    H225216   8.890   1.851   3.220
 8447TIP3   OH225217   7.618   2.514   3.620
 8447TIP3    H125218   7.555   2.559   3.561
 8447TIP3    H225219   7.581   2.425   3.624
 8448TIP3   OH225220   8.677   3.139   2.816
 8448TIP3    H125221   8.684   3.236   2.801
 8448TIP3    H225222   8.770   3.111   2.803
 8449TIP3   OH225223   7.399   2.898   4.525
 8449TIP3    H125224   7.340   2.875   4.451
 8449TIP3    H225225   7.438   2.811   4.549
 8450TIP3   OH225226   7.256   3.087   4.163
 8450TIP3    H125227   7.351   3.080   4.144
 8450TIP3    H225228   7.252   3.172   4.210
 8451TIP3   OH225229   9.115   3.543   4.206
 8451TIP3    H125230   9.118   3.447   4.222
 8451TIP3    H225231   9.033   3.567   4.256
 8452TIP3   OH225232   8.227   3.328   4.345
 8452TIP3    H125233   8.226   3.421   4.378
 8452TIP3    H225234   8.156   3.288   4.400
 8453TIP3   OH225235   7.986   3.456   3.298
 8453TIP3    H125236   7.941   3.436   3.214
 8453TIP3    H225237   7.954   3.545   3.320
 8454TIP3   OH225238   7.424   3.305   3.681
 8454TIP3    H125239   7.473   3.295   3.766
 8454TIP3    H225240   7.368   3.226   3.683
 8455TIP3   OH225241   8.190   3.358   2.938
 8455TIP3    H125242   8.248   3.287   2.902
 8455TIP3    H225243   8.223   3.365   3.030
 8456TIP3   OH225244   8.239   3.407   3.208
 8456TIP3    H125245   8.150   3.415   3.250
 8456TIP3    H225246   8.290   3.364   3.279
 8457TIP3   OH225247   9.018   2.677   4.478
 8457TIP3    H125248   8.936   2.685   4.427
 8457TIP3    H225249   9.035   2.581   4.471
 8458TIP3   OH225250   7.606   3.081   4.514
 8458TIP3    H125251   7.659   3.061   4.594
 8458TIP3    H225252   7.535   3.014   4.520
 8459TIP3   OH225253   8.010   1.896   4.306
 8459TIP3    H125254   7.922   1.869   4.272
 8459TIP3    H225255   7.988   1.986   4.337
 8460TIP3   OH225256   8.544   2.017   4.489
 8460TIP3    H125257   8.616   1.991   4.550
 8460TIP3    H225258   8.464   1.999   4.542
 8461TIP3   OH225259   8.770   2.444   4.402
 8461TIP3    H125260   8.729   2.444   4.491
 8461TIP3    H225261   8.755   2.535   4.372
 8462TIP3   OH225262   8.437   2.582   2.965
 8462TIP3    H125263   8.406   2.552   2.877
 8462TIP3    H225264   8.523   2.623   2.941
 8463TIP3   OH225265   8.150   1.954   3.266
 8463TIP3    H125266   8.118   1.950   3.358
 8463TIP3    H225267   8.114   1.869   3.233
 8464TIP3   OH225268   7.935   2.419   4.313
 8464TIP3    H125269   7.889   2.442   4.395
 8464TIP3    H225270   7.921   2.500   4.259
 8465TIP3   OH225271   7.822   2.304   3.829
 8465TIP3    H125272   7.729   2.278   3.845
 8465TIP3    H225273   7.837   2.265   3.740
 8466TIP3   OH225274   8.312   2.390   3.555
 8466TIP3    H125275   8.260   2.462   3.512
 8466TIP3    H225276   8.368   2.360   3.481
 8467TIP3   OH225277   8.487   2.670   4.643
 8467TIP3    H125278   8.466   2.596   4.704
 8467TIP3    H225279   8.582   2.683   4.662
 8468TIP3   OH225280   8.466   2.418   3.794
 8468TIP3    H125281   8.409   2.446   3.720
 8468TIP3    H225282   8.503   2.337   3.753
 8469TIP3   OH225283   7.754   2.450   4.525
 8469TIP3    H125284   7.794   2.510   4.590
 8469TIP3    H225285   7.745   2.367   4.576
 8470TIP3   OH225286   7.807   1.925   3.233
 8470TIP3    H125287   7.798   1.922   3.330
 8470TIP3    H225288   7.728   1.976   3.208
 8471TIP3   OH225289   7.349   1.971   4.106
 8471TIP3    H125290   7.428   2.002   4.154
 8471TIP3    H225291   7.384   1.940   4.021
 8472TIP3   OH225292   7.324   1.951   3.625
 8472TIP3    H125293   7.367   1.989   3.545
 8472TIP3    H225294   7.262   2.024   3.645
 8473TIP3   OH225295   8.475   2.666   4.218
 8473TIP3    H125296   8.510   2.595   4.159
 8473TIP3    H225297   8.450   2.612   4.296
 8474TIP3   OH225298   8.148   2.130   3.889
 8474TIP3    H125299   8.069   2.126   3.947
 8474TIP3    H225300   8.221   2.124   3.954
 8475TIP3   OH225301   7.582   2.181   3.900
 8475TIP3    H125302   7.488   2.188   3.871
 8475TIP3    H225303   7.607   2.092   3.872
 8476TIP3   OH225304   7.852   2.180   3.586
 8476TIP3    H125305   7.947   2.194   3.567
 8476TIP3    H225306   7.808   2.203   3.502
 8477TIP3   OH225307   8.640   2.206   4.095
 8477TIP3    H125308   8.600   2.215   4.185
 8477TIP3    H225309   8.579   2.143   4.053
 8478TIP3   OH225310   7.693   2.214   3.364
 8478TIP3    H125311   7.624   2.167   3.314
 8478TIP3    H225312   7.746   2.250   3.290
 8479TIP3   OH225313   8.810   3.892   4.310
 8479TIP3    H125314   8.810   3.916   4.215
 8479TIP3    H225315   8.889   3.940   4.342
 8480TIP3   OH225316   7.765   3.002   4.733
 8480TIP3    H125317   7.848   3.032   4.776
 8480TIP3    H225318   7.706   3.003   4.810
 8481TIP3   OH225319   8.233   2.454   3.984
 8481TIP3    H125320   8.305   2.419   3.929
 8481TIP3    H225321   8.250   2.412   4.070
 8482TIP3   OH225322   7.758   1.944   3.863
 8482TIP3    H125323   7.725   1.861   3.903
 8482TIP3    H225324   7.808   1.911   3.787
 8483TIP3   OH225325   8.208   2.346   4.286
 8483TIP3    H125326   8.121   2.390   4.293
 8483TIP3    H225327   8.269   2.409   4.329
 8484TIP3   OH225328   7.944   2.744   3.370
 8484TIP3    H125329   7.872   2.678   3.360
 8484TIP3    H225330   7.927   2.776   3.462
 8485TIP3   OH225331   8.844   2.978   4.000
 8485TIP3    H125332   8.867   3.025   3.917
 8485TIP3    H225333   8.759   2.936   3.977
 8486TIP3   OH225334   8.404   2.054   3.237
 8486TIP3    H125335   8.307   2.040   3.242
 8486TIP3    H225336   8.415   2.150   3.256
 8487TIP3   OH225337   8.339   3.057   4.370
 8487TIP3    H125338   8.373   3.041   4.459
 8487TIP3    H225339   8.308   3.149   4.375
 8488TIP3   OH225340   8.474   2.303   3.338
 8488TIP3    H125341   8.571   2.307   3.350
 8488TIP3    H225342   8.458   2.380   3.280
 8489TIP3   OH225343   7.636   2.762   4.048
 8489TIP3    H125344   7.674   2.738   3.960
 8489TIP3    H225345   7.684   2.702   4.106
 8490TIP3   OH225346   8.091   2.893   3.192
 8490TIP3    H125347   8.044   2.979   3.200
 8490TIP3    H225348   8.037   2.836   3.252
 8491TIP3   OH225349   7.512   2.691   4.666
 8491TIP3    H125350   7.541   2.672   4.757
 8491TIP3    H225351   7.452   2.616   4.648
 8492TIP3   OH225352   8.244   2.798   4.681
 8492TIP3    H125353   8.189   2.742   4.625
 8492TIP3    H225354   8.334   2.767   4.656
 8493TIP3   OH225355   8.505   3.317   4.267
 8493TIP3    H125356   8.408   3.320   4.277
 8493TIP3    H225357   8.533   3.371   4.344
 8494TIP3   OH225358   8.907   2.385   3.186
 8494TIP3    H125359   8.848   2.339   3.121
 8494TIP3    H225360   8.934   2.458   3.127
 8495TIP3   OH225361   9.132   3.240   4.246
 8495TIP3    H125362   9.034   3.240   4.241
 8495TIP3    H225363   9.153   3.207   4.156
 8496TIP3   OH225364   8.614   3.212   3.081
 8496TIP3    H125365   8.593   3.141   3.143
 8496TIP3    H225366   8.629   3.165   2.997
 8497TIP3   OH225367   8.611   2.842   3.921
 8497TIP3    H125368   8.517   2.816   3.933
 8497TIP3    H225369   8.644   2.763   3.874
 8498TIP3   OH225370   7.739   3.069   3.676
 8498TIP3    H125371   7.743   3.149   3.620
 8498TIP3    H225372   7.644   3.052   3.677
 8499TIP3   OH225373   7.303   2.373   3.376
 8499TIP3    H125374   7.349   2.457   3.396
 8499TIP3    H225375   7.225   2.379   3.436
 8500TIP3   OH225376   7.876   2.834   3.617
 8500TIP3    H125377   7.843   2.924   3.635
 8500TIP3    H225378   7.840   2.785   3.693
 8501TIP3   OH225379   8.008   3.411   4.142
 8501TIP3    H125380   8.048   3.484   4.091
 8501TIP3    H225381   8.085   3.378   4.190
 8502TIP3   OH225382   7.659   3.307   3.526
 8502TIP3    H125383   7.572   3.316   3.570
 8502TIP3    H225384   7.691   3.400   3.528
 8503TIP3   OH225385   8.396   3.048   4.100
 8503TIP3    H125386   8.387   3.044   4.198
 8503TIP3    H225387   8.476   2.995   4.086
 8504TIP3   OH225388   8.371   2.941   2.983
 8504TIP3    H125389   8.424   2.916   3.061
 8504TIP3    H225390   8.283   2.911   3.011
 8505TIP3   OH225391   8.645   3.580   4.151
 8505TIP3    H125392   8.565   3.524   4.141
 8505TIP3    H225393   8.631   3.645   4.078
 8506TIP3   OH225394   8.708   3.415   2.799
 8506TIP3    H125395   8.748   3.493   2.757
 8506TIP3    H225396   8.627   3.456   2.835
 8507TIP3   OH225397   7.731   2.191   4.670
 8507TIP3    H125398   7.635   2.196   4.686
 8507TIP3    H225399   7.760   2.135   4.744
 8508TIP3   OH225400   8.528   2.877   3.202
 8508TIP3    H125401   8.519   2.807   3.270
 8508TIP3    H225402   8.625   2.873   3.187
 8509TIP3   OH225403   7.442   3.277   4.305
 8509TIP3    H125404   7.499   3.203   4.332
 8509TIP3    H225405   7.483   3.350   4.355
 8510TIP3   OH225406   7.736   2.920   2.983
 8510TIP3    H125407   7.751   2.829   2.952
 8510TIP3    H225408   7.717   2.906   3.078
 8511TIP3   OH225409   7.681   2.924   3.256
 8511TIP3    H125410   7.756   2.897   3.311
 8511TIP3    H225411   7.686   3.022   3.263
 8512TIP3   OH225412   7.418   2.618   3.458
 8512TIP3    H125413   7.352   2.663   3.514
 8512TIP3    H225414   7.434   2.687   3.390
 8513TIP3   OH225415   8.560   2.258   4.354
 8513TIP3    H125416   8.645   2.297   4.381
 8513TIP3    H225417   8.556   2.176   4.406
 8514TIP3   OH225418   8.440   2.010   3.515
 8514TIP3    H125419   8.431   2.031   3.420
 8514TIP3    H225420   8.485   2.090   3.550
 8515TIP3   OH225421   7.947   3.122   3.205
 8515TIP3    H125422   7.860   3.151   3.239
 8515TIP3    H225423   7.964   3.192   3.139
 8516TIP3   OH225424   8.133   2.187   3.617
 8516TIP3    H125425   8.200   2.256   3.597
 8516TIP3    H225426   8.142   2.179   3.714
 8517TIP3   OH225427   8.404   2.502   4.426
 8517TIP3    H125428   8.430   2.555   4.505
 8517TIP3    H225429   8.463   2.425   4.434
 8518TIP3   OH225430   8.280   1.911   3.719
 8518TIP3    H125431   8.280   1.986   3.782
 8518TIP3    H225432   8.340   1.947   3.649
 8519TIP3   OH225433   7.690   3.198   3.271
 8519TIP3    H125434   7.661   3.267   3.207
 8519TIP3    H225435   7.675   3.242   3.357
 8520TIP3   OH225436   7.791   1.910   3.511
 8520TIP3    H125437   7.791   2.002   3.544
 8520TIP3    H225438   7.888   1.892   3.517
 8521TIP3   OH225439   9.040   2.409   4.407
 8521TIP3    H125440   8.942   2.400   4.406
 8521TIP3    H225441   9.062   2.376   4.319
 8522TIP3   OH225442   8.686   2.606   3.790
 8522TIP3    H125443   8.615   2.540   3.802
 8522TIP3    H225444   8.761   2.563   3.838
 8523TIP3   OH225445   7.409   2.828   3.264
 8523TIP3    H125446   7.477   2.898   3.272
 8523TIP3    H225447   7.453   2.772   3.197
 8524TIP3   OH225448   7.353   2.102   3.400
 8524TIP3    H125449   7.352   2.200   3.393
 8524TIP3    H225450   7.276   2.078   3.347
 8525TIP3   OH225451   8.665   3.554   3.743
 8525TIP3    H125452   8.623   3.600   3.667
 8525TIP3    H225453   8.760   3.574   3.724
 8526TIP3   OH225454   7.743   1.812   4.266
 8526TIP3    H125455   7.723   1.803   4.170
 8526TIP3    H225456   7.687   1.742   4.301
 8527TIP3   OH225457   7.282   3.043   3.653
 8527TIP3    H125458   7.206   3.074   3.704
 8527TIP3    H225459   7.261   3.082   3.565
 8528TIP3   OH225460   7.441   3.584   4.725
 8528TIP3    H125461   7.526   3.590   4.774
 8528TIP3    H225462   7.434   3.488   4.712
 8529TIP3   OH225463   7.917   3.548   4.769
 8529TIP3    H125464   8.012   3.532   4.776
 8529TIP3    H225465   7.895   3.490   4.693
 8530TIP3   OH225466   7.901   3.124   2.896
 8530TIP3    H125467   7.845   3.052   2.935
 8530TIP3    H225468   7.975   3.071   2.862
 8531TIP3   OH225469   8.556   3.455   4.501
 8531TIP3    H125470   8.549   3.384   4.569
 8531TIP3    H225471   8.635   3.504   4.530
 8532TIP3   OH225472   8.337   3.165   2.808
 8532TIP3    H125473   8.379   3.099   2.866
 8532TIP3    H225474   8.393   3.162   2.728
 8533TIP3   OH225475   7.563   2.985   4.926
 8533TIP3    H125476   7.588   2.890   4.924
 8533TIP3    H225477   7.481   2.985   4.872
 8534TIP3   OH225478   7.544   2.641   3.117
 8534TIP3    H125479   7.600   2.606   3.188
 8534TIP3    H225480   7.610   2.645   3.044
 8535TIP3   OH225481   8.173   3.073   4.697
 8535TIP3    H125482   8.137   3.090   4.609
 8535TIP3    H225483   8.208   2.981   4.689
 8536TIP3   OH225484   8.053   2.838   2.923
 8536TIP3    H125485   8.057   2.851   3.020
 8536TIP3    H225486   8.055   2.740   2.918
 8537TIP3   OH225487   8.667   3.084   4.302
 8537TIP3    H125488   8.743   3.127   4.258
 8537TIP3    H225489   8.598   3.151   4.288
 8538TIP3   OH225490   7.685   2.725   4.904
 8538TIP3    H125491   7.760   2.670   4.879
 8538TIP3    H225492   7.712   2.755   4.994
 8539TIP3   OH225493   7.753   2.543   3.338
 8539TIP3    H125494   7.729   2.498   3.420
 8539TIP3    H225495   7.790   2.470   3.284
 8540TIP3   OH225496   8.017   2.603   4.561
 8540TIP3    H125497   7.945   2.669   4.567
 8540TIP3    H225498   8.070   2.639   4.486
 8541TIP3   OH225499   7.854   2.338   3.179
 8541TIP3    H125500   7.827   2.339   3.085
 8541TIP3    H225501   7.952   2.343   3.171
 8542TIP3   OH225502   8.538   3.009   4.699
 8542TIP3    H125503   8.620   2.990   4.653
 8542TIP3    H225504   8.538   2.943   4.770
 8543TIP3   OH225505   8.674   2.670   2.840
 8543TIP3    H125506   8.652   2.620   2.759
 8543TIP3    H225507   8.640   2.759   2.814
 8544TIP3   OH225508   8.141   2.396   4.695
 8544TIP3    H125509   8.146   2.316   4.639
 8544TIP3    H225510   8.101   2.462   4.634
 8545TIP3   OH225511   8.146   2.179   4.499
 8545TIP3    H125512   8.175   2.226   4.418
 8545TIP3    H225513   8.051   2.162   4.479
 8546TIP3   OH225514   8.174   2.718   4.374
 8546TIP3    H125515   8.258   2.723   4.328
 8546TIP3    H225516   8.121   2.786   4.328
 8547TIP3   OH225517   8.759   2.687   4.756
 8547TIP3    H125518   8.806   2.602   4.763
 8547TIP3    H225519   8.830   2.744   4.723
 8548TIP3   OH225520   8.797   2.939   4.490
 8548TIP3    H125521   8.741   2.993   4.429
 8548TIP3    H225522   8.885   2.956   4.450
 8549TIP3   OH225523   8.019   2.511   4.922
 8549TIP3    H125524   7.953   2.440   4.936
 8549TIP3    H225525   8.057   2.484   4.836
 8550TIP3   OH225526   8.282   1.953   4.572
 8550TIP3    H125527   8.238   2.038   4.547
 8550TIP3    H225528   8.231   1.888   4.522
 8551TIP3   OH225529   8.405   2.453   4.784
 8551TIP3    H125530   8.399   2.440   4.880
 8551TIP3    H225531   8.315   2.426   4.757
 8552TIP3   OH225532   8.646   2.404   4.639
 8552TIP3    H125533   8.571   2.402   4.701
 8552TIP3    H225534   8.720   2.371   4.694
 8553TIP3   OH225535   8.868   2.340   4.791
 8553TIP3    H125536   8.884   2.245   4.808
 8553TIP3    H225537   8.868   2.378   4.881
 8554TIP3   OH225538   7.861   2.290   4.977
 8554TIP3    H125539   7.869   2.199   4.942
 8554TIP3    H225540   7.899   2.277   5.066
 8555TIP3   OH225541   8.373   1.955   4.829
 8555TIP3    H125542   8.443   1.887   4.823
 8555TIP3    H225543   8.337   1.952   4.738
 8556TIP3   OH225544   8.439   2.171   4.985
 8556TIP3    H125545   8.417   2.099   4.921
 8556TIP3    H225546   8.361   2.230   4.976
 8557TIP3   OH225547   7.661   3.400   3.083
 8557TIP3    H125548   7.756   3.396   3.063
 8557TIP3    H225549   7.630   3.448   3.005
 8558TIP3   OH225550   7.141   2.780   3.302
 8558TIP3    H125551   7.235   2.803   3.286
 8558TIP3    H225552   7.135   2.692   3.259
 8559TIP3   OH225553   7.052   3.394   3.713
 8559TIP3    H125554   6.986   3.331   3.677
 8559TIP3    H225555   7.098   3.337   3.778
 8560TIP3   OH225556   7.189   3.247   3.900
 8560TIP3    H125557   7.180   3.171   3.960
 8560TIP3    H225558   7.244   3.307   3.954
 8561TIP3   OH225559   8.919   3.645   3.700
 8561TIP3    H125560   8.945   3.680   3.787
 8561TIP3    H225561   8.981   3.690   3.641
 8562TIP3   OH225562   8.946   3.666   3.983
 8562TIP3    H125563   8.906   3.577   3.979
 8562TIP3    H225564   9.024   3.646   4.038
 8563TIP3   OH225565   8.992   3.344   4.552
 8563TIP3    H125566   8.921   3.351   4.619
 8563TIP3    H225567   9.035   3.432   4.559
 8564TIP3   OH225568   8.803   2.860   3.173
 8564TIP3    H125569   8.873   2.924   3.150
 8564TIP3    H225570   8.844   2.816   3.251
 8565TIP3   OH225571   8.921   2.725   3.376
 8565TIP3    H125572   8.857   2.678   3.433
 8565TIP3    H225573   8.983   2.763   3.440
 8566TIP3   OH225574   8.988   3.109   3.804
 8566TIP3    H125575   9.037   3.055   3.741
 8566TIP3    H225576   8.978   3.193   3.755
 8567TIP3   OH225577   8.823   3.414   4.005
 8567TIP3    H125578   8.754   3.458   4.058
 8567TIP3    H225579   8.770   3.367   3.937
 8568TIP3   OH225580   8.881   2.641   3.017
 8568TIP3    H125581   8.803   2.635   2.958
 8568TIP3    H225582   8.850   2.711   3.078
 8569TIP3   OH225583   8.730   2.308   2.992
 8569TIP3    H125584   8.722   2.341   2.901
 8569TIP3    H225585   8.711   2.213   2.980
 8570TIP3   OH225586   8.748   2.577   3.523
 8570TIP3    H125587   8.760   2.480   3.517
 8570TIP3    H225588   8.734   2.591   3.620
 8571TIP3   OH225589   7.378   2.654   4.272
 8571TIP3    H125590   7.377   2.622   4.179
 8571TIP3    H225591   7.475   2.656   4.288
 8572TIP3   OH225592   9.040   3.002   4.380
 8572TIP3    H125593   9.115   2.939   4.373
 8572TIP3    H225594   9.070   3.075   4.323
 8573TIP3   OH225595   9.237   2.818   4.403
 8573TIP3    H125596   9.158   2.769   4.437
 8573TIP3    H225597   9.303   2.746   4.411
 8574TIP3   OH225598   8.685   2.042   2.974
 8574TIP3    H125599   8.765   2.004   3.016
 8574TIP3    H225600   8.616   1.976   2.992
 8575TIP3   OH225601   8.750   2.298   3.418
 8575TIP3    H125602   8.791   2.210   3.435
 8575TIP3    H225603   8.806   2.329   3.344
 8576TIP3   OH225604   8.900   2.493   3.904
 8576TIP3    H125605   8.984   2.521   3.862
 8576TIP3    H225606   8.926   2.496   3.998
 8577TIP3   OH225607   8.979   2.616   4.155
 8577TIP3    H125608   8.898   2.648   4.198
 8577TIP3    H225609   9.008   2.694   4.104
 8578TIP3   OH225610   7.595   2.342   4.947
 8578TIP3    H125611   7.693   2.335   4.949
 8578TIP3    H225612   7.571   2.256   4.987
 8579TIP3   OH225613   8.853   2.046   3.468
 8579TIP3    H125614   8.893   2.029   3.555
 8579TIP3    H225615   8.794   1.968   3.459
 8580TIP3   OH225616   7.560   2.030   4.279
 8580TIP3    H125617   7.626   1.959   4.292
 8580TIP3    H225618   7.618   2.108   4.271
 8581TIP3   OH225619   7.360   2.306   4.350
 8581TIP3    H125620   7.408   2.298   4.265
 8581TIP3    H225621   7.392   2.391   4.381
 8582TIP3   OH225622   9.287   2.333   4.524
 8582TIP3    H125623   9.207   2.385   4.544
 8582TIP3    H225624   9.251   2.270   4.458
 8583TIP3   OH225625   8.939   1.964   3.076
 8583TIP3    H125626   8.984   1.879   3.059
 8583TIP3    H225627   8.993   2.023   3.019
 8584TIP3   OH225628   7.343   1.816   3.858
 8584TIP3    H125629   7.248   1.807   3.876
 8584TIP3    H225630   7.343   1.869   3.775
 8585TIP3   OH225631   8.500   3.512   3.356
 8585TIP3    H125632   8.556   3.497   3.277
 8585TIP3    H225633   8.553   3.577   3.406
 8586TIP3   OH225634   7.543   1.869   4.649
 8586TIP3    H125635   7.514   1.878   4.742
 8586TIP3    H225636   7.480   1.928   4.603
 8587TIP3   OH225637   7.608   3.318   4.742
 8587TIP3    H125638   7.518   3.286   4.723
 8587TIP3    H225639   7.616   3.304   4.838
 8588TIP3   OH225640   7.779   3.349   4.289
 8588TIP3    H125641   7.734   3.426   4.250
 8588TIP3    H225642   7.866   3.360   4.246
 8589TIP3   OH225643   8.226   3.594   4.428
 8589TIP3    H125644   8.269   3.594   4.516
 8589TIP3    H225645   8.293   3.644   4.376
 8590TIP3   OH225646   8.406   3.744   4.286
 8590TIP3    H125647   8.477   3.694   4.245
 8590TIP3    H225648   8.457   3.802   4.347
 8591TIP3   OH225649   9.189   2.107   4.393
 8591TIP3    H125650   9.105   2.106   4.345
 8591TIP3    H225651   9.229   2.023   4.362
 8592TIP3   OH225652   7.457   3.602   4.317
 8592TIP3    H125653   7.368   3.635   4.291
 8592TIP3    H225654   7.471   3.652   4.398
 8593TIP3   OH225655   7.692   3.583   4.171
 8593TIP3    H125656   7.606   3.597   4.215
 8593TIP3    H225657   7.674   3.617   4.081
 8594TIP3   OH225658   8.119   3.613   3.970
 8594TIP3    H125659   8.051   3.635   3.903
 8594TIP3    H225660   8.133   3.700   4.012
 8595TIP3   OH225661   8.388   3.552   4.020
 8595TIP3    H125662   8.294   3.570   4.001
 8595TIP3    H225663   8.432   3.628   3.979
 8596TIP3   OH225664   8.594   3.743   3.936
 8596TIP3    H125665   8.581   3.829   3.889
 8596TIP3    H225666   8.621   3.685   3.862
 8597TIP3   OH225667   7.367   3.397   4.058
 8597TIP3    H125668   7.395   3.375   4.149
 8597TIP3    H225669   7.441   3.357   4.008
 8598TIP3   OH225670   7.562   3.271   3.916
 8598TIP3    H125671   7.580   3.186   3.963
 8598TIP3    H225672   7.653   3.309   3.911
 8599TIP3   OH225673   7.827   3.366   3.919
 8599TIP3    H125674   7.860   3.276   3.904
 8599TIP3    H225675   7.873   3.387   4.002
 8600TIP3   OH225676   8.400   2.021   3.999
 8600TIP3    H125677   8.362   1.948   4.051
 8600TIP3    H225678   8.477   1.978   3.956
 8601TIP3   OH225679   8.926   1.911   3.935
 8601TIP3    H125680   8.962   1.956   3.855
 8601TIP3    H225681   8.830   1.919   3.920
 8602TIP3   OH225682   9.015   2.003   3.697
 8602TIP3    H125683   9.095   1.960   3.661
 8602TIP3    H225684   9.040   2.097   3.682
 8603TIP3   OH225685   7.653   1.732   4.020
 8603TIP3    H125686   7.561   1.700   4.018
 8603TIP3    H225687   7.702   1.647   4.018
 8604TIP3   OH225688   7.444   1.599   3.672
 8604TIP3    H125689   7.473   1.654   3.597
 8604TIP3    H225690   7.412   1.667   3.735
 8605TIP3   OH225691   8.096   1.767   3.905
 8605TIP3    H125692   8.151   1.811   3.838
 8605TIP3    H225693   8.134   1.801   3.987
 8606TIP3   OH225694   8.636   1.908   3.889
 8606TIP3    H125695   8.655   1.870   3.802
 8606TIP3    H225696   8.627   1.827   3.944
 8607TIP3   OH225697   8.664   1.837   3.453
 8607TIP3    H125698   8.576   1.877   3.466
 8607TIP3    H225699   8.651   1.750   3.497
 8608TIP3   OH225700   7.156   3.172   3.452
 8608TIP3    H125701   7.071   3.139   3.416
 8608TIP3    H225702   7.147   3.266   3.430
 8609TIP3   OH225703   7.557   1.759   3.435
 8609TIP3    H125704   7.604   1.696   3.377
 8609TIP3    H225705   7.631   1.813   3.470
 8610TIP3   OH225706   8.068   1.935   3.532
 8610TIP3    H125707   8.131   1.889   3.590
 8610TIP3    H225708   8.090   2.028   3.557
 8611TIP3   OH225709   7.929   3.360   3.032
 8611TIP3    H125710   8.017   3.383   2.995
 8611TIP3    H225711   7.907   3.285   2.972
 8612TIP3   OH225712   8.651   3.477   3.124
 8612TIP3    H125713   8.642   3.379   3.114
 8612TIP3    H225714   8.604   3.507   3.044
 8613TIP3   OH225715   7.863   2.021   4.911
 8613TIP3    H125716   7.828   1.941   4.954
 8613TIP3    H225717   7.956   2.017   4.941
 8614TIP3   OH225718   8.110   2.009   5.031
 8614TIP3    H125719   8.197   1.984   4.995
 8614TIP3    H225720   8.098   1.938   5.099
 8615TIP3   OH225721   7.233   3.195   3.088
 8615TIP3    H125722   7.236   3.224   3.181
 8615TIP3    H225723   7.322   3.154   3.076
 8616TIP3   OH225724   8.932   2.071   4.822
 8616TIP3    H125725   8.955   2.039   4.911
 8616TIP3    H225726   9.018   2.068   4.776
 8617TIP3   OH225727   8.872   3.623   4.314
 8617TIP3    H125728   8.793   3.592   4.265
 8617TIP3    H225729   8.854   3.719   4.316
 8618TIP3   OH225730   9.095   2.507   3.351
 8618TIP3    H125731   9.027   2.577   3.348
 8618TIP3    H225732   9.049   2.436   3.302
 8619TIP3   OH225733   9.154   2.793   3.509
 8619TIP3    H125734   9.180   2.707   3.544
 8619TIP3    H225735   9.193   2.788   3.420
 8620TIP3   OH225736   9.006   3.031   3.094
 8620TIP3    H125737   8.992   3.034   2.998
 8620TIP3    H225738   9.041   3.120   3.113
 8621TIP3   OH225739   9.194   3.139   3.999
 8621TIP3    H125740   9.124   3.108   3.937
 8621TIP3    H225741   9.229   3.055   4.036
 8622TIP3   OH225742   9.057   3.347   3.647
 8622TIP3    H125743   9.153   3.351   3.640
 8622TIP3    H225744   9.038   3.428   3.696
 8623TIP3   OH225745   9.188   3.568   3.189
 8623TIP3    H125746   9.247   3.562   3.267
 8623TIP3    H225747   9.148   3.479   3.189
 8624TIP3   OH225748   9.343   3.361   4.019
 8624TIP3    H125749   9.375   3.340   4.109
 8624TIP3    H225750   9.280   3.287   4.005
 8625TIP3   OH225751   9.106   2.247   3.622
 8625TIP3    H125752   9.182   2.287   3.666
 8625TIP3    H225753   9.124   2.266   3.529
 8626TIP3   OH225754   9.296   2.935   4.150
 8626TIP3    H125755   9.319   2.906   4.239
 8626TIP3    H225756   9.229   2.869   4.124
 8627TIP3   OH225757   9.079   2.705   2.837
 8627TIP3    H125758   9.152   2.691   2.900
 8627TIP3    H225759   9.003   2.678   2.894
 8628TIP3   OH225760   9.237   3.536   3.795
 8628TIP3    H125761   9.278   3.467   3.850
 8628TIP3    H225762   9.266   3.617   3.840
 8629TIP3   OH225763   9.075   3.300   3.141
 8629TIP3    H125764   8.997   3.324   3.192
 8629TIP3    H225765   9.053   3.341   3.054
 8630TIP3   OH225766   9.229   3.834   4.211
 8630TIP3    H125767   9.319   3.824   4.247
 8630TIP3    H225768   9.203   3.740   4.205
 8631TIP3   OH225769   9.361   3.272   4.396
 8631TIP3    H125770   9.392   3.189   4.436
 8631TIP3    H225771   9.277   3.247   4.353
 8632TIP3   OH225772   8.935   3.045   2.778
 8632TIP3    H125773   9.031   3.035   2.788
 8632TIP3    H225774   8.916   2.961   2.730
 8633TIP3   OH225775   8.849   3.654   3.199
 8633TIP3    H125776   8.783   3.589   3.166
 8633TIP3    H225777   8.896   3.599   3.265
 8634TIP3   OH225778   8.977   3.504   3.392
 8634TIP3    H125779   8.970   3.430   3.454
 8634TIP3    H225780   9.035   3.563   3.444
 8635TIP3   OH225781   9.198   2.908   3.757
 8635TIP3    H125782   9.175   2.872   3.668
 8635TIP3    H225783   9.282   2.952   3.739
 8636TIP3   OH225784   9.375   2.585   4.413
 8636TIP3    H125785   9.467   2.618   4.426
 8636TIP3    H225786   9.373   2.509   4.474
 8637TIP3   OH225787   9.150   2.579   3.804
 8637TIP3    H125788   9.210   2.502   3.817
 8637TIP3    H225789   9.194   2.650   3.852
 8638TIP3   OH225790   9.096   2.123   3.323
 8638TIP3    H125791   9.001   2.103   3.332
 8638TIP3    H225792   9.107   2.126   3.227
 8639TIP3   OH225793   9.394   3.580   4.249
 8639TIP3    H125794   9.310   3.547   4.214
 8639TIP3    H225795   9.398   3.539   4.336
 8640TIP3   OH225796   9.244   3.853   3.804
 8640TIP3    H125797   9.158   3.892   3.779
 8640TIP3    H225798   9.264   3.907   3.882
 8641TIP3   OH225799   9.492   3.835   3.666
 8641TIP3    H125800   9.402   3.845   3.702
 8641TIP3    H225801   9.482   3.874   3.577
 8642TIP3   OH225802   9.167   3.653   3.542
 8642TIP3    H125803   9.193   3.633   3.634
 8642TIP3    H225804   9.246   3.619   3.494
 8643TIP3   OH225805   9.375   3.544   3.389
 8643TIP3    H125806   9.399   3.450   3.396
 8643TIP3    H225807   9.463   3.586   3.401
 8644TIP3   OH225808   8.953   3.422   2.934
 8644TIP3    H125809   8.868   3.390   2.899
 8644TIP3    H225810   8.940   3.518   2.925
 8645TIP3   OH225811   9.050   3.471   2.591
 8645TIP3    H125812   9.022   3.480   2.683
 8645TIP3    H225813   9.110   3.394   2.596
 8646TIP3   OH225814   0.798   3.527   5.282
 8646TIP3    H125815   0.769   3.618   5.261
 8646TIP3    H225816   0.722   3.476   5.247
 8647TIP3   OH225817   0.796   3.526   5.662
 8647TIP3    H125818   0.827   3.497   5.750
 8647TIP3    H225819   0.753   3.447   5.628
 8648TIP3   OH225820   0.091   3.423   6.023
 8648TIP3    H125821   0.118   3.353   6.085
 8648TIP3    H225822   0.171   3.477   6.018
 8649TIP3   OH225823   1.039   3.831   5.343
 8649TIP3    H125824   1.024   3.760   5.407
 8649TIP3    H225825   1.068   3.904   5.400
 8650TIP3   OH225826   0.075   3.832   5.755
 8650TIP3    H125827   0.061   3.735   5.757
 8650TIP3    H225828   0.172   3.835   5.750
 8651TIP3   OH225829  -0.279   3.028   5.537
 8651TIP3    H125830  -0.280   3.120   5.569
 8651TIP3    H225831  -0.274   2.979   5.621
 8652TIP3   OH225832  -0.158   3.325   5.709
 8652TIP3    H125833  -0.109   3.249   5.748
 8652TIP3    H225834  -0.106   3.345   5.630
 8653TIP3   OH225835   0.688   4.291   5.362
 8653TIP3    H125836   0.734   4.220   5.312
 8653TIP3    H225837   0.685   4.252   5.450
 8654TIP3   OH225838   0.594   3.753   5.710
 8654TIP3    H125839   0.631   3.676   5.664
 8654TIP3    H225840   0.679   3.796   5.735
 8655TIP3   OH225841   1.607   3.072   5.708
 8655TIP3    H125842   1.636   3.155   5.750
 8655TIP3    H225843   1.629   3.089   5.615
 8656TIP3   OH225844   1.007   3.254   5.743
 8656TIP3    H125845   1.049   3.168   5.763
 8656TIP3    H225846   0.976   3.239   5.652
 8657TIP3   OH225847   0.345   2.913   5.710
 8657TIP3    H125848   0.324   2.986   5.647
 8657TIP3    H225849   0.298   2.839   5.666
 8658TIP3   OH225850   1.038   3.002   5.331
 8658TIP3    H125851   1.111   2.989   5.396
 8658TIP3    H225852   1.088   3.040   5.256
 8659TIP3   OH225853  -0.021   3.111   5.810
 8659TIP3    H125854   0.056   3.094   5.867
 8659TIP3    H225855  -0.002   3.053   5.734
 8660TIP3   OH225856   0.419   3.313   5.607
 8660TIP3    H125857   0.512   3.286   5.622
 8660TIP3    H225858   0.379   3.229   5.575
 8661TIP3   OH225859   1.681   3.280   5.877
 8661TIP3    H125860   1.597   3.327   5.859
 8661TIP3    H225861   1.694   3.304   5.970
 8662TIP3   OH225862   0.341   2.896   6.143
 8662TIP3    H125863   0.282   2.932   6.074
 8662TIP3    H225864   0.290   2.917   6.224
 8663TIP3   OH225865   0.692   3.749   5.149
 8663TIP3    H125866   0.647   3.723   5.068
 8663TIP3    H225867   0.644   3.832   5.172
 8664TIP3   OH225868   0.450   3.671   5.938
 8664TIP3    H125869   0.386   3.735   5.975
 8664TIP3    H225870   0.491   3.723   5.866
 8665TIP3   OH225871   1.248   3.007   5.503
 8665TIP3    H125872   1.240   2.958   5.585
 8665TIP3    H225873   1.303   3.082   5.529
 8666TIP3   OH225874   0.212   3.010   5.929
 8666TIP3    H125875   0.273   3.085   5.949
 8666TIP3    H225876   0.259   2.970   5.853
 8667TIP3   OH225877   0.279   3.863   6.034
 8667TIP3    H125878   0.253   3.949   5.996
 8667TIP3    H225879   0.200   3.848   6.091
 8668TIP3   OH225880  -0.272   3.605   5.211
 8668TIP3    H125881  -0.364   3.612   5.178
 8668TIP3    H225882  -0.285   3.617   5.306
 8669TIP3   OH225883   1.108   4.070   5.510
 8669TIP3    H125884   1.019   4.061   5.550
 8669TIP3    H225885   1.101   4.158   5.468
 8670TIP3   OH225886   1.401   2.972   5.874
 8670TIP3    H125887   1.313   3.001   5.845
 8670TIP3    H225888   1.459   3.004   5.802
 8671TIP3   OH225889   0.699   2.617   5.857
 8671TIP3    H125890   0.686   2.521   5.872
 8671TIP3    H225891   0.621   2.654   5.903
 8672TIP3   OH225892   0.811   4.120   5.186
 8672TIP3    H125893   0.861   4.037   5.167
 8672TIP3    H225894   0.870   4.185   5.143
 8673TIP3   OH225895   0.955   3.906   5.090
 8673TIP3    H125896   0.914   3.826   5.054
 8673TIP3    H225897   0.991   3.872   5.175
 8674TIP3   OH225898   1.333   3.985   5.857
 8674TIP3    H125899   1.326   3.909   5.796
 8674TIP3    H225900   1.322   4.061   5.797
 8675TIP3   OH225901   0.630   3.380   5.112
 8675TIP3    H125902   0.547   3.426   5.090
 8675TIP3    H225903   0.673   3.373   5.025
 8676TIP3   OH225904   0.590   3.167   4.828
 8676TIP3    H125905   0.661   3.216   4.874
 8676TIP3    H225906   0.643   3.100   4.781
 8677TIP3   OH225907   1.532   3.621   5.700
 8677TIP3    H125908   1.449   3.673   5.707
 8677TIP3    H225909   1.560   3.645   5.609
 8678TIP3   OH225910   0.975   3.463   5.084
 8678TIP3    H125911   0.920   3.487   5.162
 8678TIP3    H225912   1.058   3.435   5.128
 8679TIP3   OH225913   1.210   3.500   5.996
 8679TIP3    H125914   1.207   3.584   6.044
 8679TIP3    H225915   1.123   3.503   5.950
 8680TIP3   OH225916   0.212   3.464   5.502
 8680TIP3    H125917   0.162   3.403   5.442
 8680TIP3    H225918   0.286   3.407   5.530
 8681TIP3   OH225919   0.342   3.875   5.645
 8681TIP3    H125920   0.317   3.826   5.565
 8681TIP3    H225921   0.430   3.838   5.665
 8682TIP3   OH225922   0.349   3.426   5.857
 8682TIP3    H125923   0.377   3.409   5.765
 8682TIP3    H225924   0.388   3.515   5.875
 8683TIP3   OH225925   0.867   4.067   5.631
 8683TIP3    H125926   0.856   4.146   5.687
 8683TIP3    H225927   0.854   3.993   5.694
 8684TIP3   OH225928   0.482   3.986   6.179
 8684TIP3    H125929   0.423   4.050   6.224
 8684TIP3    H225930   0.415   3.933   6.129
 8685TIP3   OH225931   0.819   3.317   4.911
 8685TIP3    H125932   0.877   3.377   4.962
 8685TIP3    H225933   0.843   3.343   4.818
 8686TIP3   OH225934   0.247   3.544   6.277
 8686TIP3    H125935   0.248   3.634   6.316
 8686TIP3    H225936   0.151   3.523   6.286
 8687TIP3   OH225937   0.559   3.996   5.185
 8687TIP3    H125938   0.637   4.052   5.203
 8687TIP3    H225939   0.496   4.058   5.147
 8688TIP3   OH225940   0.280   4.157   6.266
 8688TIP3    H125941   0.243   4.149   6.176
 8688TIP3    H225942   0.208   4.119   6.321
 8689TIP3   OH225943   1.329   2.566   4.960
 8689TIP3    H125944   1.246   2.589   5.007
 8689TIP3    H225945   1.343   2.647   4.905
 8690TIP3   OH225946   0.070   3.297   5.339
 8690TIP3    H125947   0.012   3.342   5.274
 8690TIP3    H225948   0.050   3.205   5.317
 8691TIP3   OH225949   1.134   3.925   4.508
 8691TIP3    H125950   1.149   4.020   4.487
 8691TIP3    H225951   1.224   3.889   4.494
 8692TIP3   OH225952  -0.144   3.700   6.207
 8692TIP3    H125953  -0.190   3.657   6.134
 8692TIP3    H225954  -0.110   3.620   6.254
 8693TIP3   OH225955   0.677   4.117   6.035
 8693TIP3    H125956   0.677   4.209   6.068
 8693TIP3    H225957   0.607   4.076   6.090
 8694TIP3   OH225958   0.442   4.248   4.984
 8694TIP3    H125959   0.391   4.222   4.905
 8694TIP3    H225960   0.405   4.335   5.007
 8695TIP3   OH225961  -0.088   4.086   5.345
 8695TIP3    H125962  -0.064   4.055   5.435
 8695TIP3    H225963  -0.167   4.033   5.323
 8696TIP3   OH225964   0.646   4.148   4.627
 8696TIP3    H125965   0.701   4.073   4.594
 8696TIP3    H225966   0.673   4.153   4.721
 8697TIP3   OH225967   0.693   4.194   4.896
 8697TIP3    H125968   0.604   4.205   4.936
 8697TIP3    H225969   0.740   4.149   4.967
 8698TIP3   OH225970   1.465   3.461   6.176
 8698TIP3    H125971   1.384   3.476   6.123
 8698TIP3    H225972   1.479   3.365   6.164
 8699TIP3   OH225973   0.066   3.873   6.200
 8699TIP3    H125974   0.111   3.864   6.286
 8699TIP3    H225975  -0.006   3.806   6.208
 8700TIP3   OH225976   0.460   2.691   5.986
 8700TIP3    H125977   0.371   2.658   5.961
 8700TIP3    H225978   0.434   2.774   6.029
 8701TIP3   OH225979   0.992   2.807   6.180
 8701TIP3    H125980   1.061   2.779   6.244
 8701TIP3    H225981   0.908   2.786   6.226
 8702TIP3   OH225982   1.233   3.236   6.098
 8702TIP3    H125983   1.183   3.233   6.183
 8702TIP3    H225984   1.207   3.323   6.062
 8703TIP3   OH225985   0.894   3.369   4.655
 8703TIP3    H125986   0.858   3.341   4.569
 8703TIP3    H225987   0.977   3.412   4.628
 8704TIP3   OH225988   0.608   2.736   4.957
 8704TIP3    H125989   0.572   2.737   5.048
 8704TIP3    H225990   0.561   2.658   4.922
 8705TIP3   OH225991   0.393   3.204   6.004
 8705TIP3    H125992   0.340   3.225   6.084
 8705TIP3    H225993   0.378   3.286   5.950
 8706TIP3   OH225994   0.276   3.091   5.518
 8706TIP3    H125995   0.181   3.071   5.531
 8706TIP3    H225996   0.289   3.053   5.428
 8707TIP3   OH225997   0.765   3.180   5.246
 8707TIP3    H125998   0.712   3.251   5.204
 8707TIP3    H225999   0.819   3.149   5.170
 8708TIP3   OH226000   0.939   3.458   6.332
 8708TIP3    H126001   0.917   3.384   6.394
 8708TIP3    H226002   1.033   3.470   6.354
 8709TIP3   OH226003   0.923   3.208   5.484
 8709TIP3    H126004   0.862   3.237   5.413
 8709TIP3    H226005   0.955   3.125   5.442
 8710TIP3   OH226006   0.214   3.237   6.210
 8710TIP3    H126007   0.227   3.303   6.280
 8710TIP3    H226008   0.198   3.156   6.261
 8711TIP3   OH226009   0.259   2.712   4.924
 8711TIP3    H126010   0.249   2.710   5.021
 8711TIP3    H226011   0.185   2.770   4.899
 8712TIP3   OH226012  -0.177   2.799   5.745
 8712TIP3    H126013  -0.129   2.812   5.829
 8712TIP3    H226014  -0.156   2.708   5.726
 8713TIP3   OH226015  -0.212   2.765   5.332
 8713TIP3    H126016  -0.180   2.784   5.241
 8713TIP3    H226017  -0.260   2.847   5.349
 8714TIP3   OH226018   0.933   3.454   5.908
 8714TIP3    H126019   0.965   3.382   5.849
 8714TIP3    H226020   0.903   3.401   5.985
 8715TIP3   OH226021   0.601   2.913   5.579
 8715TIP3    H126022   0.518   2.913   5.631
 8715TIP3    H226023   0.668   2.915   5.650
 8716TIP3   OH226024   0.033   2.969   5.578
 8716TIP3    H126025  -0.059   2.955   5.550
 8716TIP3    H226026   0.070   2.879   5.570
 8717TIP3   OH226027   0.307   2.968   5.275
 8717TIP3    H126028   0.399   2.987   5.248
 8717TIP3    H226029   0.256   2.990   5.193
 8718TIP3   OH226030   1.094   2.990   5.782
 8718TIP3    H126031   1.058   3.003   5.873
 8718TIP3    H226032   1.028   2.930   5.744
 8719TIP3   OH226033   0.147   2.988   5.056
 8719TIP3    H126034   0.078   2.954   4.996
 8719TIP3    H226035   0.201   3.037   4.990
 8720TIP3   OH226036   1.260   4.686   5.998
 8720TIP3    H126037   1.263   4.704   5.902
 8720TIP3    H226038   1.342   4.729   6.028
 8721TIP3   OH226039   0.228   3.786   6.420
 8721TIP3    H126040   0.306   3.820   6.467
 8721TIP3    H226041   0.160   3.795   6.490
 8722TIP3   OH226042   0.686   3.243   5.677
 8722TIP3    H126043   0.758   3.203   5.626
 8722TIP3    H226044   0.695   3.201   5.764
 8723TIP3   OH226045   0.207   2.732   5.557
 8723TIP3    H126046   0.173   2.651   5.601
 8723TIP3    H226047   0.252   2.696   5.479
 8724TIP3   OH226048   0.662   3.138   5.968
 8724TIP3    H126049   0.572   3.174   5.981
 8724TIP3    H226050   0.718   3.200   6.018
 8725TIP3   OH226051   0.398   3.529   5.062
 8725TIP3    H126052   0.321   3.471   5.052
 8725TIP3    H226053   0.383   3.565   5.154
 8726TIP3   OH226054   1.299   3.765   5.691
 8726TIP3    H126055   1.323   3.815   5.610
 8726TIP3    H226056   1.213   3.726   5.667
 8727TIP3   OH226057   0.858   2.841   4.925
 8727TIP3    H126058   0.761   2.826   4.932
 8727TIP3    H226059   0.867   2.936   4.945
 8728TIP3   OH226060   0.798   3.849   6.058
 8728TIP3    H126061   0.820   3.826   6.149
 8728TIP3    H226062   0.758   3.937   6.066
 8729TIP3   OH226063   0.926   3.089   5.027
 8729TIP3    H126064   1.022   3.096   5.041
 8729TIP3    H226065   0.906   3.168   4.973
 8730TIP3   OH226066   0.095   3.559   5.738
 8730TIP3    H126067   0.133   3.527   5.653
 8730TIP3    H226068   0.119   3.488   5.799
 8731TIP3   OH226069   0.544   3.681   4.886
 8731TIP3    H126070   0.496   3.767   4.893
 8731TIP3    H226071   0.489   3.623   4.942
 8732TIP3   OH226072  -0.007   3.479   6.352
 8732TIP3    H126073   0.003   3.465   6.447
 8732TIP3    H226074  -0.096   3.440   6.334
 8733TIP3   OH226075   0.695   3.586   6.373
 8733TIP3    H126076   0.634   3.529   6.322
 8733TIP3    H226077   0.782   3.553   6.342
 8734TIP3   OH226078   0.957   4.110   5.953
 8734TIP3    H126079   0.861   4.108   5.967
 8734TIP3    H226080   0.986   4.161   6.032
 8735TIP3   OH226081   1.369   3.180   4.863
 8735TIP3    H126082   1.306   3.134   4.802
 8735TIP3    H226083   1.365   3.269   4.821
 8736TIP3   OH226084   1.591   4.013   5.954
 8736TIP3    H126085   1.496   4.039   5.948
 8736TIP3    H226086   1.611   4.004   5.859
 8737TIP3   OH226087   1.063   4.001   4.769
 8737TIP3    H126088   1.041   3.931   4.833
 8737TIP3    H226089   1.079   3.950   4.688
 8738TIP3   OH226090   1.063   3.629   5.609
 8738TIP3    H126091   0.970   3.603   5.623
 8738TIP3    H226092   1.098   3.549   5.565
 8739TIP3   OH226093   0.195   3.857   5.362
 8739TIP3    H126094   0.196   3.937   5.305
 8739TIP3    H226095   0.100   3.841   5.372
 8740TIP3   OH226096  -0.248   3.163   5.064
 8740TIP3    H126097  -0.167   3.215   5.045
 8740TIP3    H226098  -0.295   3.230   5.117
 8741TIP3   OH226099   0.333   3.624   5.307
 8741TIP3    H126100   0.296   3.712   5.326
 8741TIP3    H226101   0.294   3.572   5.381
 8742TIP3   OH226102   0.461   4.202   5.830
 8742TIP3    H126103   0.505   4.273   5.780
 8742TIP3    H226104   0.536   4.165   5.880
 8743TIP3   OH226105   0.139   4.100   5.204
 8743TIP3    H126106   0.053   4.102   5.251
 8743TIP3    H226107   0.162   4.195   5.208
 8744TIP3   OH226108   0.850   3.835   5.789
 8744TIP3    H126109   0.840   3.834   5.887
 8744TIP3    H226110   0.929   3.781   5.777
 8745TIP3   OH226111   0.821   3.733   4.671
 8745TIP3    H126112   0.874   3.707   4.750
 8745TIP3    H226113   0.734   3.697   4.695
 8746TIP3   OH226114   1.097   4.368   5.840
 8746TIP3    H126115   1.019   4.310   5.832
 8746TIP3    H226116   1.081   4.432   5.767
 8747TIP3   OH226117   1.179   4.200   4.483
 8747TIP3    H126118   1.227   4.281   4.455
 8747TIP3    H226119   1.096   4.236   4.514
 8748TIP3   OH226120   0.192   2.977   6.366
 8748TIP3    H126121   0.096   2.980   6.381
 8748TIP3    H226122   0.220   2.911   6.432
 8749TIP3   OH226123   0.982   3.664   4.888
 8749TIP3    H126124   0.971   3.597   4.958
 8749TIP3    H226125   1.080   3.660   4.876
 8750TIP3   OH226126  -0.071   4.086   5.983
 8750TIP3    H126127  -0.041   3.994   5.986
 8750TIP3    H226128  -0.060   4.112   6.075
 8751TIP3   OH226129   0.192   3.703   4.671
 8751TIP3    H126130   0.208   3.613   4.637
 8751TIP3    H226131   0.166   3.684   4.763
 8752TIP3   OH226132   0.133   3.717   4.946
 8752TIP3    H126133   0.202   3.687   5.006
 8752TIP3    H226134   0.140   3.814   4.952
 8753TIP3   OH226135  -0.110   3.392   5.163
 8753TIP3    H126136  -0.163   3.474   5.171
 8753TIP3    H226137  -0.081   3.396   5.069
 8754TIP3   OH226138   1.018   3.044   6.041
 8754TIP3    H126139   1.100   3.081   6.079
 8754TIP3    H226140   1.005   2.963   6.094
 8755TIP3   OH226141   0.907   2.790   5.202
 8755TIP3    H126142   0.887   2.817   5.110
 8755TIP3    H226143   0.942   2.874   5.239
 8756TIP3   OH226144   0.403   3.912   4.896
 8756TIP3    H126145   0.314   3.937   4.929
 8756TIP3    H226146   0.413   3.975   4.824
 8757TIP3   OH226147   0.593   2.971   5.306
 8757TIP3    H126148   0.656   3.045   5.289
 8757TIP3    H226149   0.595   2.966   5.404
 8758TIP3   OH226150   0.857   3.292   6.115
 8758TIP3    H126151   0.878   3.346   6.193
 8758TIP3    H226152   0.914   3.214   6.127
 8759TIP3   OH226153   0.734   2.702   5.410
 8759TIP3    H126154   0.722   2.779   5.468
 8759TIP3    H226155   0.795   2.740   5.342
 8760TIP3   OH226156   0.147   3.989   4.955
 8760TIP3    H126157   0.113   4.059   4.895
 8760TIP3    H226158   0.138   4.032   5.043
 8761TIP3   OH226159   0.245   2.698   5.202
 8761TIP3    H126160   0.239   2.791   5.231
 8761TIP3    H226161   0.341   2.684   5.210
 8762TIP3   OH226162   1.499   3.193   6.094
 8762TIP3    H126163   1.401   3.192   6.102
 8762TIP3    H226164   1.509   3.151   6.008
 8763TIP3   OH226165   1.149   3.387   5.484
 8763TIP3    H126166   1.073   3.327   5.495
 8763TIP3    H226167   1.220   3.340   5.532
 8764TIP3   OH226168  -0.133   3.645   4.930
 8764TIP3    H126169  -0.044   3.683   4.945
 8764TIP3    H226170  -0.105   3.556   4.900
 8765TIP3   OH226171  -0.201   2.889   5.090
 8765TIP3    H126172  -0.193   2.986   5.090
 8765TIP3    H226173  -0.266   2.875   5.020
 8766TIP3   OH226174   1.116   4.343   5.433
 8766TIP3    H126175   1.077   4.390   5.357
 8766TIP3    H226176   1.211   4.361   5.416
 8767TIP3   OH226177   0.198   2.606   5.961
 8767TIP3    H126178   0.163   2.577   5.874
 8767TIP3    H226179   0.181   2.528   6.017
 8768TIP3   OH226180  -0.237   3.819   5.387
 8768TIP3    H126181  -0.318   3.861   5.355
 8768TIP3    H226182  -0.195   3.796   5.303
 8769TIP3   OH226183   0.365   4.347   6.453
 8769TIP3    H126184   0.458   4.325   6.469
 8769TIP3    H226185   0.343   4.282   6.382
 8770TIP3   OH226186   0.353   3.909   4.589
 8770TIP3    H126187   0.295   3.839   4.626
 8770TIP3    H226188   0.427   3.854   4.557
 8771TIP3   OH226189   1.009   4.243   6.190
 8771TIP3    H126190   1.001   4.172   6.258
 8771TIP3    H226191   1.088   4.292   6.220
 8772TIP3   OH226192   0.796   3.957   4.500
 8772TIP3    H126193   0.829   3.885   4.557
 8772TIP3    H226194   0.848   3.945   4.418
 8773TIP3   OH226195   0.037   3.761   6.620
 8773TIP3    H126196   0.072   3.670   6.616
 8773TIP3    H226197  -0.057   3.742   6.602
 8774TIP3   OH226198   0.629   3.862   6.385
 8774TIP3    H126199   0.586   3.877   6.299
 8774TIP3    H226200   0.659   3.768   6.378
 8775TIP3   OH226201   0.511   3.631   4.613
 8775TIP3    H126202   0.508   3.638   4.710
 8775TIP3    H226203   0.504   3.533   4.604
 8776TIP3   OH226204   1.120   3.870   5.992
 8776TIP3    H126205   1.195   3.915   5.949
 8776TIP3    H226206   1.050   3.936   5.979
 8777TIP3   OH226207   0.128   3.494   6.610
 8777TIP3    H126208   0.209   3.455   6.573
 8777TIP3    H226209   0.160   3.529   6.696
 8778TIP3   OH226210   0.480   3.399   6.259
 8778TIP3    H126211   0.400   3.455   6.260
 8778TIP3    H226212   0.526   3.430   6.178
 8779TIP3   OH226213   0.312   3.098   4.870
 8779TIP3    H126214   0.272   3.124   4.785
 8779TIP3    H226215   0.404   3.129   4.859
 8780TIP3   OH226216   0.991   3.798   6.390
 8780TIP3    H126217   1.070   3.775   6.340
 8780TIP3    H226218   0.989   3.730   6.459
 8781TIP3   OH226219   1.128   3.459   4.531
 8781TIP3    H126220   1.107   3.410   4.449
 8781TIP3    H226221   1.095   3.548   4.504
 8782TIP3   OH226222   0.597   3.184   6.384
 8782TIP3    H126223   0.597   3.105   6.326
 8782TIP3    H226224   0.555   3.251   6.326
 8783TIP3   OH226225   0.600   2.970   6.190
 8783TIP3    H126226   0.627   3.012   6.106
 8783TIP3    H226227   0.506   2.948   6.171
 8784TIP3   OH226228   0.629   3.508   6.063
 8784TIP3    H126229   0.711   3.515   6.012
 8784TIP3    H226230   0.571   3.573   6.019
 8785TIP3   OH226231   1.211   3.474   6.446
 8785TIP3    H126232   1.259   3.390   6.449
 8785TIP3    H226233   1.278   3.533   6.408
 8786TIP3   OH226234   1.247   3.726   6.182
 8786TIP3    H126235   1.191   3.780   6.122
 8786TIP3    H226236   1.335   3.744   6.142
 8787TIP3   OH226237   0.474   3.297   6.614
 8787TIP3    H126238   0.407   3.227   6.625
 8787TIP3    H226239   0.509   3.275   6.525
 8788TIP3   OH226240   0.732   2.736   6.257
 8788TIP3    H126241   0.684   2.818   6.233
 8788TIP3    H226242   0.663   2.668   6.244
 8789TIP3   OH226243   0.858   3.239   6.472
 8789TIP3    H126244   0.845   3.228   6.568
 8789TIP3    H226245   0.768   3.214   6.441
 8790TIP3   OH226246   1.099   3.190   6.328
 8790TIP3    H126247   1.022   3.190   6.388
 8790TIP3    H226248   1.171   3.158   6.386
 8791TIP3   OH226249   1.328   3.130   6.481
 8791TIP3    H126250   1.340   3.034   6.497
 8791TIP3    H226251   1.323   3.167   6.571
 8792TIP3   OH226252   0.313   3.079   6.666
 8792TIP3    H126253   0.321   2.990   6.628
 8792TIP3    H226254   0.351   3.064   6.756
 8793TIP3   OH226255   0.825   2.743   6.516
 8793TIP3    H126256   0.894   2.675   6.509
 8793TIP3    H226257   0.786   2.739   6.426
 8794TIP3   OH226258   0.891   2.959   6.674
 8794TIP3    H126259   0.870   2.888   6.609
 8794TIP3    H226260   0.814   3.018   6.665
 8795TIP3   OH226261   0.114   4.197   4.775
 8795TIP3    H126262   0.208   4.187   4.754
 8795TIP3    H226263   0.083   4.238   4.692
 8796TIP3   OH226264  -0.398   3.589   4.927
 8796TIP3    H126265  -0.303   3.603   4.950
 8796TIP3    H226266  -0.399   3.491   4.916
 8797TIP3   OH226267   1.369   4.435   5.389
 8797TIP3    H126268   1.390   4.463   5.481
 8797TIP3    H226269   1.438   4.481   5.338
 8798TIP3   OH226270   1.397   4.463   5.665
 8798TIP3    H126271   1.377   4.369   5.685
 8798TIP3    H226272   1.485   4.475   5.707
 8799TIP3   OH226273   1.448   4.127   6.249
 8799TIP3    H126274   1.373   4.138   6.311
 8799TIP3    H226275   1.484   4.217   6.245
 8800TIP3   OH226276   1.262   3.645   4.865
 8800TIP3    H126277   1.333   3.707   4.837
 8800TIP3    H226278   1.304   3.604   4.944
 8801TIP3   OH226279   1.389   3.513   5.068
 8801TIP3    H126280   1.324   3.468   5.127
 8801TIP3    H226281   1.454   3.550   5.132
 8802TIP3   OH226282   1.443   3.903   5.500
 8802TIP3    H126283   1.498   3.839   5.450
 8802TIP3    H226284   1.434   3.976   5.436
 8803TIP3   OH226285   1.279   4.201   5.695
 8803TIP3    H126286   1.211   4.247   5.748
 8803TIP3    H226287   1.226   4.155   5.628
 8804TIP3   OH226288   1.328   3.420   4.715
 8804TIP3    H126289   1.256   3.422   4.648
 8804TIP3    H226290   1.300   3.496   4.770
 8805TIP3   OH226291   1.197   3.095   4.671
 8805TIP3    H126292   1.158   3.129   4.590
 8805TIP3    H226293   1.174   2.999   4.663
 8806TIP3   OH226294   1.205   3.367   5.213
 8806TIP3    H126295   1.212   3.270   5.208
 8806TIP3    H226296   1.190   3.381   5.310
 8807TIP3   OH226297  -0.169   3.483   5.939
 8807TIP3    H126298  -0.169   3.432   5.855
 8807TIP3    H226299  -0.078   3.464   5.971
 8808TIP3   OH226300   1.489   3.785   6.073
 8808TIP3    H126301   1.564   3.724   6.063
 8808TIP3    H226302   1.516   3.861   6.017
 8809TIP3   OH226303   1.681   3.598   6.089
 8809TIP3    H126304   1.605   3.549   6.127
 8809TIP3    H226305   1.752   3.532   6.103
 8810TIP3   OH226306   1.141   2.830   4.658
 8810TIP3    H126307   1.221   2.796   4.705
 8810TIP3    H226308   1.072   2.765   4.680
 8811TIP3   OH226309   1.200   3.085   5.110
 8811TIP3    H126310   1.241   2.997   5.126
 8811TIP3    H226311   1.259   3.117   5.039
 8812TIP3   OH226312   1.362   3.258   5.604
 8812TIP3    H126313   1.448   3.284   5.564
 8812TIP3    H226314   1.375   3.295   5.694
 8813TIP3   OH226315   1.431   3.402   5.838
 8813TIP3    H126316   1.353   3.436   5.886
 8813TIP3    H226317   1.463   3.483   5.792
 8814TIP3   OH226318   0.038   3.108   6.649
 8814TIP3    H126319   0.131   3.129   6.628
 8814TIP3    H226320   0.051   3.033   6.707
 8815TIP3   OH226321   1.883   2.993   6.393
 8815TIP3    H126322   1.940   2.926   6.351
 8815TIP3    H226323   1.855   3.048   6.317
 8816TIP3   OH226324   1.307   2.834   5.148
 8816TIP3    H126325   1.357   2.819   5.231
 8816TIP3    H226326   1.250   2.756   5.145
 8817TIP3   OH226327   0.009   2.810   5.957
 8817TIP3    H126328   0.076   2.742   5.971
 8817TIP3    H226329   0.062   2.891   5.964
 8818TIP3   OH226330  -0.153   3.107   6.065
 8818TIP3    H126331  -0.132   3.086   5.973
 8818TIP3    H226332  -0.184   3.198   6.059
 8819TIP3   OH226333   1.753   3.132   6.199
 8819TIP3    H126334   1.666   3.171   6.217
 8819TIP3    H226335   1.727   3.059   6.140
 8820TIP3   OH226336   1.388   2.770   4.777
 8820TIP3    H126337   1.438   2.695   4.739
 8820TIP3    H226338   1.456   2.840   4.776
 8821TIP3   OH226339  -0.212   2.578   5.524
 8821TIP3    H126340  -0.284   2.615   5.575
 8821TIP3    H226341  -0.201   2.646   5.454
 8822TIP3   OH226342   0.953   4.303   5.045
 8822TIP3    H126343   1.014   4.285   4.971
 8822TIP3    H226344   1.004   4.365   5.100
 8823TIP3   OH226345   0.013   2.688   6.371
 8823TIP3    H126346  -0.055   2.675   6.438
 8823TIP3    H226347  -0.039   2.719   6.296
 8824TIP3   OH226348   0.086   4.070   6.437
 8824TIP3    H126349   0.003   4.120   6.425
 8824TIP3    H226350   0.087   4.059   6.534
 8825TIP3   OH226351   0.240   4.133   5.983
 8825TIP3    H126352   0.185   4.204   5.945
 8825TIP3    H226353   0.324   4.151   5.935
 8826TIP3   OH226354   0.678   4.384   6.117
 8826TIP3    H126355   0.721   4.381   6.206
 8826TIP3    H226356   0.747   4.432   6.066
 8827TIP3   OH226357   0.859   4.533   5.974
 8827TIP3    H126358   0.931   4.480   5.936
 8827TIP3    H226359   0.910   4.590   6.036
 8828TIP3   OH226360   1.652   2.894   6.077
 8828TIP3    H126361   1.561   2.887   6.043
 8828TIP3    H226362   1.684   2.802   6.064
 8829TIP3   OH226363   0.143   4.375   5.868
 8829TIP3    H126364   0.055   4.376   5.908
 8829TIP3    H226365   0.124   4.408   5.778
 8830TIP3   OH226366   0.573   4.403   5.659
 8830TIP3    H126367   0.506   4.425   5.592
 8830TIP3    H226368   0.587   4.489   5.703
 8831TIP3   OH226369   0.841   4.341   5.709
 8831TIP3    H126370   0.747   4.358   5.689
 8831TIP3    H226371   0.885   4.417   5.669
 8832TIP3   OH226372   1.045   4.533   5.625
 8832TIP3    H126373   1.033   4.618   5.577
 8832TIP3    H226374   1.075   4.473   5.554
 8833TIP3   OH226375  -0.130   4.213   5.741
 8833TIP3    H126376  -0.107   4.172   5.827
 8833TIP3    H226377  -0.076   4.154   5.683
 8834TIP3   OH226378   0.022   4.044   5.593
 8834TIP3    H126379   0.032   3.963   5.648
 8834TIP3    H226380   0.113   4.078   5.592
 8835TIP3   OH226381   0.287   4.156   5.608
 8835TIP3    H126382   0.315   4.063   5.593
 8835TIP3    H226383   0.331   4.172   5.693
 8836TIP3   OH226384   0.858   2.811   5.697
 8836TIP3    H126385   0.814   2.741   5.748
 8836TIP3    H226386   0.930   2.762   5.652
 8837TIP3   OH226387   1.379   2.685   5.598
 8837TIP3    H126388   1.417   2.739   5.525
 8837TIP3    H226389   1.284   2.709   5.594
 8838TIP3   OH226390   1.473   2.794   5.365
 8838TIP3    H126391   1.546   2.740   5.326
 8838TIP3    H226392   1.508   2.884   5.350
 8839TIP3   OH226393   0.106   2.518   5.711
 8839TIP3    H126394   0.015   2.481   5.707
 8839TIP3    H226395   0.157   2.435   5.709
 8840TIP3   OH226396  -0.093   2.382   5.367
 8840TIP3    H126397  -0.078   2.439   5.290
 8840TIP3    H226398  -0.134   2.446   5.430
 8841TIP3   OH226399   0.549   2.550   5.592
 8841TIP3    H126400   0.609   2.599   5.533
 8841TIP3    H226401   0.568   2.590   5.678
 8842TIP3   OH226402   1.097   2.699   5.579
 8842TIP3    H126403   1.091   2.661   5.490
 8842TIP3    H226404   1.084   2.618   5.635
 8843TIP3   OH226405   1.119   2.619   5.136
 8843TIP3    H126406   1.038   2.672   5.150
 8843TIP3    H226407   1.117   2.560   5.212
 8844TIP3   OH226408   0.009   2.550   5.120
 8844TIP3    H126409   0.059   2.488   5.064
 8844TIP3    H226410   0.081   2.603   5.159
 8845TIP3   OH226411   0.523   2.721   5.222
 8845TIP3    H126412   0.582   2.678   5.286
 8845TIP3    H226413   0.541   2.815   5.245
 8846TIP3   OH226414   0.380   4.149   4.717
 8846TIP3    H126415   0.468   4.171   4.682
 8846TIP3    H226416   0.359   4.072   4.661
 8847TIP3   OH226417   1.102   4.264   4.812
 8847TIP3    H126418   1.098   4.165   4.805
 8847TIP3    H226419   1.027   4.288   4.757
 8848TIP3   OH226420   0.311   2.802   6.605
 8848TIP3    H126421   0.278   2.727   6.659
 8848TIP3    H226422   0.405   2.801   6.631
 8849TIP3   OH226423   0.562   2.796   6.724
 8849TIP3    H126424   0.646   2.776   6.679
 8849TIP3    H226425   0.554   2.719   6.783
 8850TIP3   OH226426  -0.300   3.990   4.812
 8850TIP3    H126427  -0.272   4.078   4.844
 8850TIP3    H226428  -0.215   3.948   4.784
 8851TIP3   OH226429   1.387   2.859   6.510
 8851TIP3    H126430   1.408   2.827   6.601
 8851TIP3    H226431   1.475   2.854   6.467
 8852TIP3   OH226432   1.308   4.411   6.021
 8852TIP3    H126433   1.241   4.379   5.958
 8852TIP3    H226434   1.304   4.507   6.005
 8853TIP3   OH226435   2.592   3.784   4.770
 8853TIP3    H126436   2.564   3.875   4.746
 8853TIP3    H226437   2.515   3.734   4.736
 8854TIP3   OH226438   2.589   3.786   5.153
 8854TIP3    H126439   2.622   3.748   5.237
 8854TIP3    H226440   2.550   3.708   5.111
 8855TIP3   OH226441   1.892   3.677   5.512
 8855TIP3    H126442   1.921   3.610   5.576
 8855TIP3    H226443   1.968   3.735   5.509
 8856TIP3   OH226444   2.835   4.083   4.828
 8856TIP3    H126445   2.826   4.017   4.897
 8856TIP3    H226446   2.862   4.162   4.880
 8857TIP3   OH226447   1.866   4.090   5.239
 8857TIP3    H126448   1.853   3.992   5.242
 8857TIP3    H226449   1.963   4.093   5.233
 8858TIP3   OH226450   1.569   3.295   5.025
 8858TIP3    H126451   1.517   3.376   5.038
 8858TIP3    H226452   1.502   3.236   4.987
 8859TIP3   OH226453   1.630   3.579   5.196
 8859TIP3    H126454   1.677   3.501   5.234
 8859TIP3    H226455   1.685   3.600   5.120
 8860TIP3   OH226456   2.478   4.551   4.841
 8860TIP3    H126457   2.527   4.476   4.802
 8860TIP3    H226458   2.474   4.528   4.935
 8861TIP3   OH226459   2.390   4.009   5.197
 8861TIP3    H126460   2.424   3.930   5.151
 8861TIP3    H226461   2.476   4.053   5.215
 8862TIP3   OH226462   3.402   3.329   5.194
 8862TIP3    H126463   3.433   3.411   5.237
 8862TIP3    H226464   3.428   3.346   5.101
 8863TIP3   OH226465   2.803   3.513   5.231
 8863TIP3    H126466   2.845   3.427   5.251
 8863TIP3    H226467   2.772   3.496   5.140
 8864TIP3   OH226468   2.141   3.170   5.195
 8864TIP3    H126469   2.119   3.241   5.132
 8864TIP3    H226470   2.094   3.095   5.152
 8865TIP3   OH226471   2.834   3.260   4.818
 8865TIP3    H126472   2.906   3.244   4.884
 8865TIP3    H226473   2.887   3.294   4.744
 8866TIP3   OH226474   1.774   3.371   5.303
 8866TIP3    H126475   1.857   3.349   5.350
 8866TIP3    H226476   1.785   3.315   5.223
 8867TIP3   OH226477   2.215   3.570   5.095
 8867TIP3    H126478   2.308   3.543   5.109
 8867TIP3    H226479   2.175   3.486   5.064
 8868TIP3   OH226480   3.477   3.536   5.364
 8868TIP3    H126481   3.393   3.583   5.346
 8868TIP3    H226482   3.492   3.560   5.457
 8869TIP3   OH226483   2.138   3.153   5.630
 8869TIP3    H126484   2.077   3.188   5.562
 8869TIP3    H226485   2.085   3.170   5.711
 8870TIP3   OH226486   2.484   4.004   4.638
 8870TIP3    H126487   2.443   3.984   4.553
 8870TIP3    H226488   2.440   4.088   4.661
 8871TIP3   OH226489   2.247   3.929   5.425
 8871TIP3    H126490   2.183   3.993   5.463
 8871TIP3    H226491   2.284   3.979   5.350
 8872TIP3   OH226492   3.043   3.264   4.989
 8872TIP3    H126493   3.040   3.210   5.069
 8872TIP3    H226494   3.100   3.338   5.017
 8873TIP3   OH226495   2.009   3.268   5.414
 8873TIP3    H126496   2.072   3.340   5.436
 8873TIP3    H226497   2.057   3.226   5.338
 8874TIP3   OH226498   2.078   4.120   5.523
 8874TIP3    H126499   2.049   4.205   5.487
 8874TIP3    H226500   2.002   4.100   5.582
 8875TIP3   OH226501   1.467   3.811   4.759
 8875TIP3    H126502   1.427   3.836   4.674
 8875TIP3    H226503   1.498   3.897   4.794
 8876TIP3   OH226504   2.892   4.310   4.982
 8876TIP3    H126505   2.806   4.318   5.029
 8876TIP3    H226506   2.908   4.403   4.958
 8877TIP3   OH226507   3.197   3.230   5.362
 8877TIP3    H126508   3.109   3.258   5.331
 8877TIP3    H226509   3.255   3.261   5.289
 8878TIP3   OH226510   2.495   2.872   5.344
 8878TIP3    H126511   2.482   2.776   5.362
 8878TIP3    H226512   2.416   2.908   5.390
 8879TIP3   OH226513   2.608   4.374   4.675
 8879TIP3    H126514   2.658   4.292   4.652
 8879TIP3    H226515   2.666   4.441   4.632
 8880TIP3   OH226516   2.749   4.160   4.577
 8880TIP3    H126517   2.714   4.079   4.538
 8880TIP3    H226518   2.786   4.126   4.662
 8881TIP3   OH226519   2.423   3.634   4.598
 8881TIP3    H126520   2.342   3.685   4.578
 8881TIP3    H226521   2.469   3.635   4.512
 8882TIP3   OH226522   2.388   3.416   4.306
 8882TIP3    H126523   2.459   3.467   4.349
 8882TIP3    H226524   2.413   3.325   4.330
 8883TIP3   OH226525   3.324   3.877   5.186
 8883TIP3    H126526   3.243   3.931   5.192
 8883TIP3    H226527   3.355   3.902   5.097
 8884TIP3   OH226528   2.769   3.716   4.572
 8884TIP3    H126529   2.716   3.743   4.650
 8884TIP3    H226530   2.853   3.691   4.616
 8885TIP3   OH226531   3.007   3.755   5.483
 8885TIP3    H126532   3.003   3.837   5.535
 8885TIP3    H226533   2.921   3.758   5.437
 8886TIP3   OH226534   2.003   3.715   4.987
 8886TIP3    H126535   1.960   3.657   4.920
 8886TIP3    H226536   2.079   3.660   5.015
 8887TIP3   OH226537   2.137   4.133   5.135
 8887TIP3    H126538   2.109   4.091   5.052
 8887TIP3    H226539   2.224   4.092   5.150
 8888TIP3   OH226540   2.144   3.684   5.343
 8888TIP3    H126541   2.173   3.663   5.252
 8888TIP3    H226542   2.184   3.772   5.360
 8889TIP3   OH226543   2.657   4.325   5.126
 8889TIP3    H126544   2.593   4.371   5.180
 8889TIP3    H226545   2.659   4.237   5.169
 8890TIP3   OH226546   2.617   3.567   4.398
 8890TIP3    H126547   2.673   3.627   4.451
 8890TIP3    H226548   2.641   3.595   4.306
 8891TIP3   OH226549   2.031   3.802   5.765
 8891TIP3    H126550   2.033   3.887   5.812
 8891TIP3    H226551   1.936   3.779   5.775
 8892TIP3   OH226552   2.354   4.255   4.675
 8892TIP3    H126553   2.434   4.311   4.689
 8892TIP3    H226554   2.293   4.317   4.632
 8893TIP3   OH226555   3.128   2.817   4.445
 8893TIP3    H126556   3.045   2.836   4.494
 8893TIP3    H226557   3.140   2.899   4.393
 8894TIP3   OH226558   1.869   3.558   4.794
 8894TIP3    H126559   1.802   3.602   4.737
 8894TIP3    H226560   1.831   3.470   4.804
 8895TIP3   OH226561   2.924   4.186   3.995
 8895TIP3    H126562   2.934   4.282   3.979
 8895TIP3    H226563   3.016   4.154   3.980
 8896TIP3   OH226564   1.653   3.944   5.696
 8896TIP3    H126565   1.584   3.920   5.631
 8896TIP3    H226566   1.687   3.856   5.724
 8897TIP3   OH226567   1.505   4.136   5.329
 8897TIP3    H126568   1.601   4.131   5.327
 8897TIP3    H226569   1.490   4.213   5.386
 8898TIP3   OH226570   2.236   4.500   4.475
 8898TIP3    H126571   2.190   4.480   4.392
 8898TIP3    H226572   2.202   4.589   4.497
 8899TIP3   OH226573   1.672   4.350   4.857
 8899TIP3    H126574   1.719   4.341   4.943
 8899TIP3    H226575   1.618   4.268   4.859
 8900TIP3   OH226576   2.440   4.403   4.113
 8900TIP3    H126577   2.497   4.332   4.077
 8900TIP3    H226578   2.472   4.410   4.205
 8901TIP3   OH226579   2.488   4.451   4.384
 8901TIP3    H126580   2.399   4.461   4.424
 8901TIP3    H226581   2.537   4.408   4.456
 8902TIP3   OH226582   3.255   3.715   5.662
 8902TIP3    H126583   3.175   3.723   5.608
 8902TIP3    H226584   3.274   3.619   5.653
 8903TIP3   OH226585   1.863   4.119   5.687
 8903TIP3    H126586   1.905   4.102   5.774
 8903TIP3    H226587   1.784   4.061   5.692
 8904TIP3   OH226588   2.255   2.949   5.471
 8904TIP3    H126589   2.166   2.916   5.445
 8904TIP3    H226590   2.228   3.030   5.518
 8905TIP3   OH226591   2.788   3.065   5.667
 8905TIP3    H126592   2.856   3.035   5.730
 8905TIP3    H226593   2.704   3.042   5.712
 8906TIP3   OH226594   3.029   3.491   5.586
 8906TIP3    H126595   2.980   3.488   5.671
 8906TIP3    H226596   3.003   3.577   5.549
 8907TIP3   OH226597   2.687   3.629   4.143
 8907TIP3    H126598   2.658   3.596   4.056
 8907TIP3    H226599   2.771   3.672   4.116
 8908TIP3   OH226600   2.420   2.998   4.442
 8908TIP3    H126601   2.383   2.997   4.533
 8908TIP3    H226602   2.377   2.917   4.408
 8909TIP3   OH226603   2.189   3.462   5.493
 8909TIP3    H126604   2.135   3.481   5.572
 8909TIP3    H226605   2.171   3.543   5.439
 8910TIP3   OH226606   2.069   3.351   5.005
 8910TIP3    H126607   1.977   3.322   5.023
 8910TIP3    H226608   2.083   3.310   4.916
 8911TIP3   OH226609   2.562   3.438   4.733
 8911TIP3    H126610   2.508   3.508   4.691
 8911TIP3    H226611   2.615   3.407   4.658
 8912TIP3   OH226612   2.736   3.715   5.820
 8912TIP3    H126613   2.713   3.641   5.881
 8912TIP3    H226614   2.831   3.726   5.842
 8913TIP3   OH226615   2.720   3.465   4.971
 8913TIP3    H126616   2.659   3.492   4.899
 8913TIP3    H226617   2.753   3.382   4.930
 8914TIP3   OH226618   2.007   3.492   5.700
 8914TIP3    H126619   2.025   3.555   5.771
 8914TIP3    H226620   1.993   3.409   5.749
 8915TIP3   OH226621   2.060   2.974   4.409
 8915TIP3    H126622   2.049   2.967   4.506
 8915TIP3    H226623   1.977   3.019   4.384
 8916TIP3   OH226624   1.596   3.019   5.283
 8916TIP3    H126625   1.677   3.045   5.332
 8916TIP3    H226626   1.630   2.981   5.200
 8917TIP3   OH226627   1.572   2.996   4.801
 8917TIP3    H126628   1.617   3.033   4.722
 8917TIP3    H226629   1.511   3.068   4.821
 8918TIP3   OH226630   2.731   3.713   5.396
 8918TIP3    H126631   2.763   3.641   5.336
 8918TIP3    H226632   2.702   3.659   5.472
 8919TIP3   OH226633   2.399   3.177   5.067
 8919TIP3    H126634   2.316   3.171   5.118
 8919TIP3    H226635   2.466   3.168   5.136
 8920TIP3   OH226636   1.832   3.227   5.074
 8920TIP3    H126637   1.738   3.233   5.048
 8920TIP3    H226638   1.855   3.135   5.051
 8921TIP3   OH226639   2.102   3.226   4.763
 8921TIP3    H126640   2.195   3.238   4.739
 8921TIP3    H226641   2.053   3.247   4.680
 8922TIP3   OH226642   2.888   3.249   5.270
 8922TIP3    H126643   2.852   3.259   5.361
 8922TIP3    H226644   2.825   3.186   5.232
 8923TIP3   OH226645   1.942   3.261   4.543
 8923TIP3    H126646   1.870   3.212   4.499
 8923TIP3    H226647   1.992   3.291   4.465
 8924TIP3   OH226648   3.045   4.964   5.483
 8924TIP3    H126649   3.046   4.937   5.390
 8924TIP3    H226650   3.127   5.012   5.494
 8925TIP3   OH226651   2.019   4.050   5.913
 8925TIP3    H126652   2.096   4.075   5.967
 8925TIP3    H226653   1.949   4.046   5.982
 8926TIP3   OH226654   2.482   3.502   5.166
 8926TIP3    H126655   2.550   3.456   5.114
 8926TIP3    H226656   2.487   3.457   5.252
 8927TIP3   OH226657   2.006   2.986   5.043
 8927TIP3    H126658   1.970   2.907   5.090
 8927TIP3    H226659   2.055   2.944   4.971
 8928TIP3   OH226660   2.457   3.398   5.449
 8928TIP3    H126661   2.367   3.430   5.467
 8928TIP3    H226662   2.514   3.456   5.504
 8929TIP3   OH226663   2.194   3.787   4.549
 8929TIP3    H126664   2.122   3.721   4.538
 8929TIP3    H226665   2.176   3.821   4.640
 8930TIP3   OH226666   3.088   4.024   5.192
 8930TIP3    H126667   3.120   4.080   5.118
 8930TIP3    H226668   3.008   3.983   5.153
 8931TIP3   OH226669   2.631   3.140   4.323
 8931TIP3    H126670   2.562   3.087   4.370
 8931TIP3    H226671   2.664   3.198   4.395
 8932TIP3   OH226672   2.616   4.113   5.546
 8932TIP3    H126673   2.623   4.072   5.633
 8932TIP3    H226674   2.576   4.199   5.567
 8933TIP3   OH226675   2.723   3.331   4.508
 8933TIP3    H126676   2.818   3.340   4.530
 8933TIP3    H226677   2.705   3.414   4.460
 8934TIP3   OH226678   1.890   3.813   5.225
 8934TIP3    H126679   1.926   3.781   5.140
 8934TIP3    H226680   1.920   3.745   5.287
 8935TIP3   OH226681   2.340   3.937   4.371
 8935TIP3    H126682   2.292   4.024   4.376
 8935TIP3    H226683   2.284   3.882   4.431
 8936TIP3   OH226684   1.769   3.727   5.834
 8936TIP3    H126685   1.784   3.716   5.929
 8936TIP3    H226686   1.696   3.665   5.818
 8937TIP3   OH226687   2.494   3.840   5.860
 8937TIP3    H126688   2.432   3.781   5.812
 8937TIP3    H226689   2.580   3.805   5.830
 8938TIP3   OH226690   3.156   3.432   4.346
 8938TIP3    H126691   3.091   3.385   4.291
 8938TIP3    H226692   3.153   3.520   4.301
 8939TIP3   OH226693   2.868   4.256   4.260
 8939TIP3    H126694   2.837   4.186   4.320
 8939TIP3    H226695   2.876   4.210   4.174
 8940TIP3   OH226696   2.855   3.884   5.100
 8940TIP3    H126697   2.762   3.854   5.107
 8940TIP3    H226698   2.895   3.808   5.054
 8941TIP3   OH226699   1.988   4.115   4.855
 8941TIP3    H126700   1.989   4.194   4.798
 8941TIP3    H226701   1.893   4.095   4.857
 8942TIP3   OH226702   1.551   3.418   4.553
 8942TIP3    H126703   1.597   3.502   4.574
 8942TIP3    H226704   1.473   3.424   4.613
 8943TIP3   OH226705   2.127   3.880   4.795
 8943TIP3    H126706   2.092   3.970   4.813
 8943TIP3    H226707   2.088   3.829   4.869
 8944TIP3   OH226708   1.908   4.350   4.704
 8944TIP3    H126709   1.821   4.360   4.747
 8944TIP3    H226710   1.941   4.443   4.706
 8945TIP3   OH226711   2.657   4.093   5.274
 8945TIP3    H126712   2.642   4.085   5.371
 8945TIP3    H226713   2.717   4.020   5.255
 8946TIP3   OH226714   2.617   3.988   4.160
 8946TIP3    H126715   2.670   3.961   4.238
 8946TIP3    H226716   2.529   3.957   4.187
 8947TIP3   OH226717   2.960   4.462   3.978
 8947TIP3    H126718   2.999   4.537   3.931
 8947TIP3    H226719   2.879   4.504   4.012
 8948TIP3   OH226720   1.978   3.237   5.846
 8948TIP3    H126721   1.881   3.239   5.857
 8948TIP3    H226722   2.005   3.174   5.915
 8949TIP3   OH226723   2.778   3.919   4.377
 8949TIP3    H126724   2.769   3.851   4.447
 8949TIP3    H226725   2.875   3.916   4.363
 8950TIP3   OH226726   1.705   4.333   5.491
 8950TIP3    H126727   1.747   4.256   5.532
 8950TIP3    H226728   1.702   4.395   5.567
 8951TIP3   OH226729   1.987   3.964   4.159
 8951TIP3    H126730   1.998   3.872   4.129
 8951TIP3    H226731   1.966   3.951   4.254
 8952TIP3   OH226732   1.930   3.968   4.432
 8952TIP3    H126733   2.003   3.942   4.490
 8952TIP3    H226734   1.933   4.066   4.438
 8953TIP3   OH226735   1.667   3.663   4.634
 8953TIP3    H126736   1.601   3.707   4.691
 8953TIP3    H226737   1.681   3.733   4.567
 8954TIP3   OH226738   2.812   3.303   5.530
 8954TIP3    H126739   2.896   3.336   5.566
 8954TIP3    H226740   2.799   3.220   5.581
 8955TIP3   OH226741   2.695   3.058   4.691
 8955TIP3    H126742   2.670   3.101   4.608
 8955TIP3    H226743   2.741   3.132   4.737
 8956TIP3   OH226744   2.197   4.168   4.382
 8956TIP3    H126745   2.109   4.194   4.416
 8956TIP3    H226746   2.212   4.238   4.317
 8957TIP3   OH226747   2.387   3.231   4.795
 8957TIP3    H126748   2.451   3.304   4.779
 8957TIP3    H226749   2.389   3.224   4.893
 8958TIP3   OH226750   2.654   3.549   5.601
 8958TIP3    H126751   2.676   3.600   5.682
 8958TIP3    H226752   2.708   3.469   5.610
 8959TIP3   OH226753   2.530   2.960   4.898
 8959TIP3    H126754   2.523   3.038   4.956
 8959TIP3    H226755   2.590   2.994   4.828
 8960TIP3   OH226756   1.939   4.240   4.449
 8960TIP3    H126757   1.912   4.309   4.383
 8960TIP3    H226758   1.924   4.287   4.534
 8961TIP3   OH226759   2.040   2.955   4.685
 8961TIP3    H126760   2.039   3.044   4.724
 8961TIP3    H226761   2.136   2.934   4.692
 8962TIP3   OH226762   3.296   3.450   5.582
 8962TIP3    H126763   3.198   3.448   5.589
 8962TIP3    H226764   3.306   3.406   5.496
 8963TIP3   OH226765   2.945   3.646   4.972
 8963TIP3    H126766   2.870   3.584   4.982
 8963TIP3    H226767   3.017   3.598   5.019
 8964TIP3   OH226768   1.657   3.873   4.441
 8964TIP3    H126769   1.724   3.944   4.447
 8964TIP3    H226770   1.701   3.817   4.373
 8965TIP3   OH226771   1.605   3.148   4.574
 8965TIP3    H126772   1.599   3.245   4.569
 8965TIP3    H226773   1.525   3.120   4.529
 8966TIP3   OH226774   2.913   4.592   4.922
 8966TIP3    H126775   2.872   4.642   4.848
 8966TIP3    H226776   3.007   4.610   4.905
 8967TIP3   OH226777   1.990   2.867   5.447
 8967TIP3    H126778   1.959   2.834   5.360
 8967TIP3    H226779   1.979   2.788   5.504
 8968TIP3   OH226780   1.534   4.087   4.831
 8968TIP3    H126781   1.461   4.117   4.888
 8968TIP3    H226782   1.508   4.127   4.745
 8969TIP3   OH226783   2.188   4.617   5.944
 8969TIP3    H126784   2.262   4.569   5.985
 8969TIP3    H226785   2.121   4.549   5.929
 8970TIP3   OH226786   2.149   4.169   4.072
 8970TIP3    H126787   2.093   4.097   4.110
 8970TIP3    H226788   2.223   4.116   4.036
 8971TIP3   OH226789   2.587   4.210   3.984
 8971TIP3    H126790   2.626   4.142   4.042
 8971TIP3    H226791   2.644   4.206   3.905
 8972TIP3   OH226792   1.819   4.034   6.101
 8972TIP3    H126793   1.832   3.937   6.104
 8972TIP3    H226794   1.731   4.038   6.057
 8973TIP3   OH226795   1.792   3.687   4.292
 8973TIP3    H126796   1.847   3.650   4.364
 8973TIP3    H226797   1.858   3.690   4.220
 8974TIP3   OH226798   2.416   4.104   5.851
 8974TIP3    H126799   2.371   4.067   5.775
 8974TIP3    H226800   2.469   4.026   5.878
 8975TIP3   OH226801   2.305   3.884   4.101
 8975TIP3    H126802   2.304   3.897   4.198
 8975TIP3    H226803   2.300   3.786   4.095
 8976TIP3   OH226804   2.932   4.125   5.477
 8976TIP3    H126805   2.963   4.126   5.385
 8976TIP3    H226806   2.838   4.146   5.470
 8977TIP3   OH226807   1.938   3.769   6.080
 8977TIP3    H126808   2.008   3.705   6.064
 8977TIP3    H226809   1.961   3.801   6.170
 8978TIP3   OH226810   2.005   3.587   4.517
 8978TIP3    H126811   1.974   3.545   4.599
 8978TIP3    H226812   2.036   3.510   4.465
 8979TIP3   OH226813   2.273   3.658   5.747
 8979TIP3    H126814   2.191   3.713   5.748
 8979TIP3    H226815   2.318   3.690   5.666
 8980TIP3   OH226816   2.101   3.383   4.352
 8980TIP3    H126817   2.067   3.383   4.260
 8980TIP3    H226818   2.196   3.400   4.337
 8981TIP3   OH226819   2.787   4.054   5.875
 8981TIP3    H126820   2.873   4.036   5.836
 8981TIP3    H226821   2.784   3.989   5.947
 8982TIP3   OH226822   2.924   3.704   4.007
 8982TIP3    H126823   2.950   3.668   3.921
 8982TIP3    H226824   2.889   3.793   3.979
 8983TIP3   OH226825   2.393   3.441   5.870
 8983TIP3    H126826   2.393   3.361   5.814
 8983TIP3    H226827   2.349   3.506   5.812
 8984TIP3   OH226828   2.396   3.229   5.676
 8984TIP3    H126829   2.423   3.266   5.590
 8984TIP3    H226830   2.303   3.204   5.658
 8985TIP3   OH226831   2.427   3.769   5.554
 8985TIP3    H126832   2.504   3.763   5.496
 8985TIP3    H226833   2.368   3.831   5.504
 8986TIP3   OH226834   3.006   3.731   5.931
 8986TIP3    H126835   3.050   3.645   5.941
 8986TIP3    H226836   3.078   3.785   5.896
 8987TIP3   OH226837   3.058   3.983   5.667
 8987TIP3    H126838   3.003   4.041   5.609
 8987TIP3    H226839   3.146   4.000   5.627
 8988TIP3   OH226840   2.272   3.554   6.099
 8988TIP3    H126841   2.203   3.485   6.114
 8988TIP3    H226842   2.307   3.527   6.012
 8989TIP3   OH226843   2.528   2.992   5.743
 8989TIP3    H126844   2.479   3.074   5.720
 8989TIP3    H226845   2.459   2.924   5.731
 8990TIP3   OH226846   2.653   3.498   5.960
 8990TIP3    H126847   2.642   3.483   6.055
 8990TIP3    H226848   2.564   3.471   5.929
 8991TIP3   OH226849   2.895   3.449   5.816
 8991TIP3    H126850   2.818   3.445   5.876
 8991TIP3    H226851   2.967   3.414   5.872
 8992TIP3   OH226852   3.124   3.386   5.966
 8992TIP3    H126853   3.136   3.290   5.983
 8992TIP3    H226854   3.119   3.424   6.056
 8993TIP3   OH226855   2.112   3.334   6.152
 8993TIP3    H126856   2.117   3.243   6.117
 8993TIP3    H226857   2.148   3.319   6.242
 8994TIP3   OH226858   2.624   3.002   6.001
 8994TIP3    H126859   2.690   2.931   5.995
 8994TIP3    H226860   2.583   2.995   5.912
 8995TIP3   OH226861   2.689   3.217   6.158
 8995TIP3    H126862   2.667   3.145   6.095
 8995TIP3    H226863   2.610   3.274   6.152
 8996TIP3   OH226864   1.908   4.436   4.261
 8996TIP3    H126865   2.002   4.445   4.239
 8996TIP3    H226866   1.869   4.490   4.189
 8997TIP3   OH226867   1.389   3.825   4.477
 8997TIP3    H126868   1.484   3.847   4.462
 8997TIP3    H226869   1.384   3.736   4.435
 8998TIP3   OH226870   1.302   4.438   4.893
 8998TIP3    H126871   1.238   4.374   4.857
 8998TIP3    H226872   1.349   4.383   4.959
 8999TIP3   OH226873   1.438   4.291   5.079
 8999TIP3    H126874   1.430   4.217   5.140
 8999TIP3    H226875   1.488   4.354   5.135
 9000TIP3   OH226876   3.171   4.686   4.881
 9000TIP3    H126877   3.183   4.750   4.952
 9000TIP3    H226878   3.212   4.730   4.805
 9001TIP3   OH226879   3.059   3.899   4.351
 9001TIP3    H126880   3.128   3.963   4.324
 9001TIP3    H226881   3.101   3.859   4.431
 9002TIP3   OH226882   3.186   3.769   4.556
 9002TIP3    H126883   3.121   3.725   4.616
 9002TIP3    H226884   3.251   3.805   4.618
 9003TIP3   OH226885   3.232   4.150   4.989
 9003TIP3    H126886   3.291   4.090   4.941
 9003TIP3    H226887   3.215   4.220   4.924
 9004TIP3   OH226888   3.117   3.672   4.201
 9004TIP3    H126889   3.047   3.678   4.132
 9004TIP3    H226890   3.093   3.750   4.256
 9005TIP3   OH226891   2.977   3.328   4.144
 9005TIP3    H126892   2.974   3.393   4.071
 9005TIP3    H226893   3.020   3.254   4.100
 9006TIP3   OH226894   3.000   3.624   4.702
 9006TIP3    H126895   3.009   3.527   4.698
 9006TIP3    H226896   2.987   3.639   4.798
 9007TIP3   OH226897   1.626   3.698   5.448
 9007TIP3    H126898   1.625   3.666   5.355
 9007TIP3    H226899   1.723   3.699   5.464
 9008TIP3   OH226900   3.298   4.062   5.549
 9008TIP3    H126901   3.365   3.990   5.553
 9008TIP3    H226902   3.310   4.092   5.457
 9009TIP3   OH226903   3.468   3.857   5.582
 9009TIP3    H126904   3.395   3.801   5.616
 9009TIP3    H226905   3.544   3.796   5.593
 9010TIP3   OH226906   2.994   3.339   4.597
 9010TIP3    H126907   3.036   3.251   4.613
 9010TIP3    H226908   3.055   3.373   4.528
 9011TIP3   OH226909   3.158   3.516   5.090
 9011TIP3    H126910   3.244   3.541   5.050
 9011TIP3    H226911   3.173   3.551   5.181
 9012TIP3   OH226912   3.228   3.658   5.324
 9012TIP3    H126913   3.149   3.692   5.371
 9012TIP3    H226914   3.259   3.738   5.277
 9013TIP3   OH226915   1.845   3.385   6.126
 9013TIP3    H126916   1.943   3.377   6.125
 9013TIP3    H226917   1.820   3.299   6.165
 9014TIP3   OH226918   3.679   3.249   5.880
 9014TIP3    H126919   3.737   3.183   5.837
 9014TIP3    H226920   3.651   3.305   5.804
 9015TIP3   OH226921   3.101   3.091   4.637
 9015TIP3    H126922   3.153   3.073   4.719
 9015TIP3    H226923   3.044   3.012   4.634
 9016TIP3   OH226924   1.806   3.076   5.456
 9016TIP3    H126925   1.868   3.000   5.464
 9016TIP3    H226926   1.869   3.150   5.449
 9017TIP3   OH226927   1.609   3.350   5.528
 9017TIP3    H126928   1.657   3.341   5.443
 9017TIP3    H226929   1.638   3.438   5.557
 9018TIP3   OH226930   3.550   3.390   5.686
 9018TIP3    H126931   3.462   3.428   5.704
 9018TIP3    H226932   3.524   3.316   5.626
 9019TIP3   OH226933   3.196   3.025   4.273
 9019TIP3    H126934   3.219   2.958   4.205
 9019TIP3    H226935   3.262   3.095   4.258
 9020TIP3   OH226936   1.593   2.869   5.040
 9020TIP3    H126937   1.498   2.855   5.054
 9020TIP3    H226938   1.594   2.914   4.952
 9021TIP3   OH226939   2.751   4.557   4.534
 9021TIP3    H126940   2.802   4.540   4.452
 9021TIP3    H226941   2.806   4.622   4.579
 9022TIP3   OH226942   1.813   2.937   5.845
 9022TIP3    H126943   1.760   2.928   5.926
 9022TIP3    H226944   1.745   2.972   5.783
 9023TIP3   OH226945   2.056   4.400   5.473
 9023TIP3    H126946   1.978   4.458   5.459
 9023TIP3    H226947   2.093   4.404   5.384
 9024TIP3   OH226948   3.448   3.151   5.564
 9024TIP3    H126949   3.356   3.143   5.531
 9024TIP3    H226950   3.480   3.059   5.551
 9025TIP3   OH226951   1.714   4.663   5.477
 9025TIP3    H126952   1.623   4.698   5.473
 9025TIP3    H226953   1.714   4.629   5.570
 9026TIP3   OH226954   1.947   4.626   5.345
 9026TIP3    H126955   1.863   4.643   5.395
 9026TIP3    H226956   1.922   4.663   5.258
 9027TIP3   OH226957   2.375   4.665   5.125
 9027TIP3    H126958   2.300   4.682   5.065
 9027TIP3    H226959   2.357   4.726   5.197
 9028TIP3   OH226960   2.875   4.805   5.108
 9028TIP3    H126961   2.835   4.877   5.056
 9028TIP3    H226962   2.870   4.728   5.048
 9029TIP3   OH226963   1.618   4.445   5.239
 9029TIP3    H126964   1.649   4.425   5.330
 9029TIP3    H226965   1.688   4.400   5.187
 9030TIP3   OH226966   1.807   4.315   5.091
 9030TIP3    H126967   1.824   4.230   5.140
 9030TIP3    H226968   1.898   4.349   5.080
 9031TIP3   OH226969   2.070   4.410   5.080
 9031TIP3    H126970   2.107   4.319   5.073
 9031TIP3    H226971   2.115   4.444   5.157
 9032TIP3   OH226972   2.652   3.066   5.182
 9032TIP3    H126973   2.609   2.996   5.235
 9032TIP3    H226974   2.723   3.017   5.137
 9033TIP3   OH226975   3.177   2.950   5.089
 9033TIP3    H126976   3.213   3.000   5.012
 9033TIP3    H226977   3.081   2.964   5.079
 9034TIP3   OH226978   3.272   3.048   4.851
 9034TIP3    H126979   3.345   2.996   4.811
 9034TIP3    H226980   3.306   3.139   4.835
 9035TIP3   OH226981   1.901   2.777   5.200
 9035TIP3    H126982   1.809   2.743   5.197
 9035TIP3    H226983   1.951   2.692   5.196
 9036TIP3   OH226984   1.650   2.651   4.827
 9036TIP3    H126985   1.711   2.699   4.768
 9036TIP3    H226986   1.659   2.700   4.911
 9037TIP3   OH226987   2.342   2.813   5.076
 9037TIP3    H126988   2.406   2.860   5.020
 9037TIP3    H226989   2.368   2.842   5.164
 9038TIP3   OH226990   2.894   2.954   5.062
 9038TIP3    H126991   2.891   2.914   4.974
 9038TIP3    H226992   2.882   2.875   5.119
 9039TIP3   OH226993   2.923   2.876   4.627
 9039TIP3    H126994   2.835   2.915   4.637
 9039TIP3    H226995   2.910   2.789   4.672
 9040TIP3   OH226996   1.411   4.215   4.631
 9040TIP3    H126997   1.331   4.178   4.590
 9040TIP3    H226998   1.396   4.310   4.617
 9041TIP3   OH226999   1.808   2.809   4.602
 9041TIP3    H127000   1.857   2.738   4.555
 9041TIP3    H227001   1.882   2.859   4.642
 9042TIP3   OH227002   2.319   2.982   4.703
 9042TIP3    H127003   2.370   2.927   4.765
 9042TIP3    H227004   2.343   3.072   4.736
 9043TIP3   OH227005   2.180   4.404   4.210
 9043TIP3    H127006   2.267   4.426   4.171
 9043TIP3    H227007   2.154   4.330   4.151
 9044TIP3   OH227008   2.898   4.523   4.301
 9044TIP3    H127009   2.890   4.425   4.289
 9044TIP3    H227010   2.851   4.555   4.221
 9045TIP3   OH227011   2.109   3.059   6.093
 9045TIP3    H127012   2.077   2.986   6.148
 9045TIP3    H227013   2.204   3.058   6.117
 9046TIP3   OH227014   2.359   3.055   6.209
 9046TIP3    H127015   2.443   3.026   6.169
 9046TIP3    H227016   2.346   2.984   6.276
 9047TIP3   OH227017   1.482   4.239   4.269
 9047TIP3    H127018   1.498   4.268   4.360
 9047TIP3    H227019   1.568   4.196   4.247
 9048TIP3   OH227020   3.183   3.116   5.997
 9048TIP3    H127021   3.203   3.084   6.088
 9048TIP3    H227022   3.272   3.110   5.954
 9049TIP3   OH227023   4.390   4.040   4.255
 9049TIP3    H127024   4.361   4.131   4.235
 9049TIP3    H227025   4.313   3.989   4.224
 9050TIP3   OH227026   4.385   4.040   4.640
 9050TIP3    H127027   4.419   4.008   4.725
 9050TIP3    H227028   4.345   3.959   4.603
 9051TIP3   OH227029   3.687   3.932   4.999
 9051TIP3    H127030   3.716   3.864   5.063
 9051TIP3    H227031   3.763   3.991   4.999
 9052TIP3   OH227032   4.631   4.340   4.315
 9052TIP3    H127033   4.621   4.274   4.384
 9052TIP3    H227034   4.658   4.419   4.367
 9053TIP3   OH227035   3.664   4.347   4.726
 9053TIP3    H127036   3.650   4.250   4.729
 9053TIP3    H227037   3.761   4.349   4.713
 9054TIP3   OH227038   3.364   3.550   4.509
 9054TIP3    H127039   3.313   3.632   4.524
 9054TIP3    H227040   3.294   3.492   4.474
 9055TIP3   OH227041   3.426   3.834   4.682
 9055TIP3    H127042   3.473   3.757   4.721
 9055TIP3    H227043   3.484   3.859   4.609
 9056TIP3   OH227044   4.272   4.806   4.327
 9056TIP3    H127045   4.323   4.730   4.292
 9056TIP3    H227046   4.269   4.789   4.422
 9057TIP3   OH227047   4.188   4.268   4.684
 9057TIP3    H127048   4.220   4.187   4.641
 9057TIP3    H227049   4.275   4.310   4.703
 9058TIP3   OH227050   5.202   3.585   4.683
 9058TIP3    H127051   5.229   3.669   4.726
 9058TIP3    H227052   5.216   3.608   4.589
 9059TIP3   OH227053   4.604   3.769   4.716
 9059TIP3    H127054   4.640   3.681   4.737
 9059TIP3    H227055   4.566   3.753   4.628
 9060TIP3   OH227056   3.932   3.427   4.684
 9060TIP3    H127057   3.916   3.497   4.618
 9060TIP3    H227058   3.890   3.351   4.639
 9061TIP3   OH227059   4.632   3.519   4.305
 9061TIP3    H127060   4.704   3.502   4.369
 9061TIP3    H227061   4.683   3.553   4.230
 9062TIP3   OH227062   3.571   3.628   4.789
 9062TIP3    H127063   3.653   3.607   4.837
 9062TIP3    H227064   3.583   3.572   4.709
 9063TIP3   OH227065   4.013   3.827   4.580
 9063TIP3    H127066   4.105   3.799   4.595
 9063TIP3    H227067   3.972   3.742   4.550
 9064TIP3   OH227068   5.274   3.794   4.851
 9064TIP3    H127069   5.190   3.841   4.832
 9064TIP3    H227070   5.287   3.818   4.944
 9065TIP3   OH227071   3.934   3.412   5.118
 9065TIP3    H127072   3.874   3.445   5.049
 9065TIP3    H227073   3.881   3.430   5.198
 9066TIP3   OH227074   4.281   4.262   4.126
 9066TIP3    H127075   4.238   4.239   4.043
 9066TIP3    H227076   4.237   4.346   4.148
 9067TIP3   OH227077   4.035   4.180   4.910
 9067TIP3    H127078   4.009   4.240   4.982
 9067TIP3    H227079   4.075   4.240   4.843
 9068TIP3   OH227080   4.843   3.517   4.476
 9068TIP3    H127081   4.828   3.470   4.559
 9068TIP3    H227082   4.894   3.595   4.505
 9069TIP3   OH227083   3.803   3.525   4.902
 9069TIP3    H127084   3.867   3.596   4.924
 9069TIP3    H227085   3.851   3.483   4.827
 9070TIP3   OH227086   3.263   4.068   4.246
 9070TIP3    H127087   3.218   4.093   4.163
 9070TIP3    H227088   3.291   4.155   4.281
 9071TIP3   OH227089   4.690   4.564   4.469
 9071TIP3    H127090   4.610   4.576   4.524
 9071TIP3    H227091   4.706   4.657   4.441
 9072TIP3   OH227092   4.993   3.487   4.848
 9072TIP3    H127093   4.904   3.513   4.820
 9072TIP3    H227094   5.049   3.518   4.775
 9073TIP3   OH227095   4.312   3.149   4.846
 9073TIP3    H127096   4.313   3.067   4.790
 9073TIP3    H227097   4.219   3.152   4.876
 9074TIP3   OH227098   4.403   4.629   4.160
 9074TIP3    H127099   4.455   4.548   4.138
 9074TIP3    H227100   4.461   4.697   4.119
 9075TIP3   OH227101   4.547   4.416   4.064
 9075TIP3    H127102   4.510   4.334   4.028
 9075TIP3    H227103   4.583   4.383   4.150
 9076TIP3   OH227104   4.220   3.891   4.085
 9076TIP3    H127105   4.139   3.941   4.062
 9076TIP3    H227106   4.267   3.888   4.000
 9077TIP3   OH227107   4.177   3.677   3.802
 9077TIP3    H127108   4.246   3.724   3.852
 9077TIP3    H227109   4.232   3.611   3.755
 9078TIP3   OH227110   5.123   4.131   4.671
 9078TIP3    H127111   5.041   4.185   4.679
 9078TIP3    H227112   5.153   4.159   4.582
 9079TIP3   OH227113   4.567   3.974   4.057
 9079TIP3    H127114   4.512   3.998   4.136
 9079TIP3    H227115   4.650   3.947   4.101
 9080TIP3   OH227116   4.803   4.012   4.969
 9080TIP3    H127117   4.800   4.095   5.020
 9080TIP3    H227118   4.716   4.015   4.924
 9081TIP3   OH227119   3.801   3.972   4.473
 9081TIP3    H127120   3.758   3.913   4.407
 9081TIP3    H227121   3.876   3.917   4.503
 9082TIP3   OH227122   3.931   4.383   4.624
 9082TIP3    H127123   3.908   4.341   4.540
 9082TIP3    H227124   4.021   4.347   4.640
 9083TIP3   OH227125   3.936   3.938   4.826
 9083TIP3    H127126   3.969   3.916   4.736
 9083TIP3    H227127   3.976   4.025   4.844
 9084TIP3   OH227128   4.471   4.595   4.632
 9084TIP3    H127129   4.404   4.644   4.680
 9084TIP3    H227130   4.458   4.504   4.667
 9085TIP3   OH227131   4.407   3.832   3.884
 9085TIP3    H127132   4.467   3.890   3.936
 9085TIP3    H227133   4.433   3.857   3.792
 9086TIP3   OH227134   3.825   4.058   5.248
 9086TIP3    H127135   3.833   4.144   5.295
 9086TIP3    H227136   3.729   4.043   5.257
 9087TIP3   OH227137   4.150   4.513   4.157
 9087TIP3    H127138   4.231   4.565   4.174
 9087TIP3    H227139   4.090   4.580   4.123
 9088TIP3   OH227140   4.924   3.072   3.934
 9088TIP3    H127141   4.841   3.091   3.983
 9088TIP3    H227142   4.935   3.155   3.883
 9089TIP3   OH227143   3.667   3.815   4.277
 9089TIP3    H127144   3.597   3.857   4.223
 9089TIP3    H227145   3.630   3.727   4.293
 9090TIP3   OH227146   4.722   4.440   3.480
 9090TIP3    H127147   4.730   4.537   3.466
 9090TIP3    H227148   4.814   4.411   3.467
 9091TIP3   OH227149   3.442   4.201   5.184
 9091TIP3    H127150   3.376   4.170   5.120
 9091TIP3    H227151   3.485   4.120   5.216
 9092TIP3   OH227152   3.301   4.398   4.805
 9092TIP3    H127153   3.393   4.374   4.825
 9092TIP3    H227154   3.277   4.458   4.877
 9093TIP3   OH227155   4.029   4.756   3.962
 9093TIP3    H127156   3.986   4.739   3.876
 9093TIP3    H227157   3.999   4.847   3.984
 9094TIP3   OH227158   3.469   4.606   4.344
 9094TIP3    H127159   3.516   4.596   4.430
 9094TIP3    H227160   3.414   4.526   4.344
 9095TIP3   OH227161   4.234   4.658   3.602
 9095TIP3    H127162   4.292   4.588   3.565
 9095TIP3    H227163   4.268   4.667   3.693
 9096TIP3   OH227164   4.283   4.706   3.872
 9096TIP3    H127165   4.195   4.715   3.916
 9096TIP3    H227166   4.336   4.668   3.944
 9097TIP3   OH227167   5.054   3.971   5.150
 9097TIP3    H127168   4.973   3.985   5.099
 9097TIP3    H227169   5.069   3.875   5.139
 9098TIP3   OH227170   4.049   3.200   4.962
 9098TIP3    H127171   3.960   3.171   4.933
 9098TIP3    H227172   4.026   3.285   5.004
 9099TIP3   OH227173   4.583   3.326   5.156
 9099TIP3    H127174   4.650   3.293   5.219
 9099TIP3    H227175   4.498   3.301   5.199
 9100TIP3   OH227176   4.829   3.750   5.075
 9100TIP3    H127177   4.777   3.746   5.158
 9100TIP3    H227178   4.800   3.835   5.037
 9101TIP3   OH227179   4.483   3.881   3.628
 9101TIP3    H127180   4.451   3.853   3.540
 9101TIP3    H227181   4.566   3.927   3.603
 9102TIP3   OH227182   4.197   3.255   3.930
 9102TIP3    H127183   4.167   3.252   4.023
 9102TIP3    H227184   4.159   3.171   3.899
 9103TIP3   OH227185   3.984   3.719   4.979
 9103TIP3    H127186   3.932   3.739   5.060
 9103TIP3    H227187   3.966   3.798   4.924
 9104TIP3   OH227188   3.864   3.609   4.491
 9104TIP3    H127189   3.773   3.577   4.510
 9104TIP3    H227190   3.879   3.566   4.404
 9105TIP3   OH227191   4.359   3.694   4.220
 9105TIP3    H127192   4.304   3.764   4.178
 9105TIP3    H227193   4.412   3.662   4.145
 9106TIP3   OH227194   4.534   3.971   5.304
 9106TIP3    H127195   4.508   3.900   5.367
 9106TIP3    H227196   4.627   3.984   5.329
 9107TIP3   OH227197   4.518   3.723   4.457
 9107TIP3    H127198   4.455   3.749   4.387
 9107TIP3    H227199   4.549   3.639   4.416
 9108TIP3   OH227200   3.799   3.750   5.186
 9108TIP3    H127201   3.831   3.812   5.253
 9108TIP3    H227202   3.790   3.667   5.238
 9109TIP3   OH227203   3.854   3.228   3.894
 9109TIP3    H127204   3.848   3.223   3.992
 9109TIP3    H227205   3.766   3.263   3.872
 9110TIP3   OH227206   3.394   3.274   4.767
 9110TIP3    H127207   3.471   3.303   4.819
 9110TIP3    H227208   3.432   3.237   4.686
 9111TIP3   OH227209   3.371   3.255   4.288
 9111TIP3    H127210   3.415   3.294   4.210
 9111TIP3    H227211   3.308   3.326   4.309
 9112TIP3   OH227212   4.526   3.969   4.880
 9112TIP3    H127213   4.559   3.896   4.822
 9112TIP3    H227214   4.497   3.916   4.958
 9113TIP3   OH227215   4.198   3.448   4.556
 9113TIP3    H127216   4.116   3.421   4.601
 9113TIP3    H227217   4.265   3.420   4.621
 9114TIP3   OH227218   3.629   3.483   4.561
 9114TIP3    H127219   3.534   3.487   4.533
 9114TIP3    H227220   3.655   3.392   4.537
 9115TIP3   OH227221   3.897   3.482   4.251
 9115TIP3    H127222   3.993   3.492   4.232
 9115TIP3    H227223   3.853   3.504   4.166
 9116TIP3   OH227224   4.683   3.501   4.754
 9116TIP3    H127225   4.649   3.514   4.845
 9116TIP3    H227226   4.616   3.439   4.719
 9117TIP3   OH227227   3.735   3.522   4.029
 9117TIP3    H127228   3.663   3.471   3.988
 9117TIP3    H227229   3.789   3.545   3.950
 9118TIP3   OH227230   4.852   5.257   4.969
 9118TIP3    H127231   4.873   5.192   4.901
 9118TIP3    H227232   4.927   5.253   5.029
 9119TIP3   OH227233   3.829   4.288   5.402
 9119TIP3    H127234   3.900   4.325   5.458
 9119TIP3    H227235   3.750   4.322   5.447
 9120TIP3   OH227236   4.280   3.762   4.654
 9120TIP3    H127237   4.338   3.708   4.600
 9120TIP3    H227238   4.281   3.714   4.739
 9121TIP3   OH227239   3.800   3.244   4.525
 9121TIP3    H127240   3.767   3.166   4.574
 9121TIP3    H227241   3.873   3.206   4.474
 9122TIP3   OH227242   4.254   3.656   4.936
 9122TIP3    H127243   4.163   3.687   4.955
 9122TIP3    H227244   4.310   3.714   4.991
 9123TIP3   OH227245   3.990   4.047   4.032
 9123TIP3    H127246   3.920   3.978   4.025
 9123TIP3    H227247   3.974   4.079   4.125
 9124TIP3   OH227248   4.891   4.278   4.673
 9124TIP3    H127249   4.917   4.336   4.599
 9124TIP3    H227250   4.806   4.241   4.641
 9125TIP3   OH227251   4.446   3.360   3.890
 9125TIP3    H127252   4.351   3.340   3.905
 9125TIP3    H227253   4.455   3.453   3.920
 9126TIP3   OH227254   4.434   4.364   5.025
 9126TIP3    H127255   4.426   4.313   5.108
 9126TIP3    H227256   4.408   4.453   5.054
 9127TIP3   OH227257   4.517   3.603   4.000
 9127TIP3    H127258   4.614   3.608   4.016
 9127TIP3    H227259   4.500   3.683   3.947
 9128TIP3   OH227260   3.685   4.070   4.711
 9128TIP3    H127261   3.723   4.038   4.627
 9128TIP3    H227262   3.719   4.004   4.774
 9129TIP3   OH227263   4.134   4.193   3.851
 9129TIP3    H127264   4.088   4.279   3.860
 9129TIP3    H227265   4.083   4.138   3.914
 9130TIP3   OH227266   3.558   3.990   5.328
 9130TIP3    H127267   3.583   3.972   5.420
 9130TIP3    H227268   3.494   3.919   5.309
 9131TIP3   OH227269   4.286   4.089   5.356
 9131TIP3    H127270   4.225   4.046   5.293
 9131TIP3    H227271   4.373   4.064   5.320
 9132TIP3   OH227272   4.962   3.693   3.836
 9132TIP3    H127273   4.898   3.648   3.775
 9132TIP3    H227274   4.957   3.782   3.795
 9133TIP3   OH227275   5.167   4.520   4.920
 9133TIP3    H127276   5.076   4.527   4.888
 9133TIP3    H227277   5.214   4.513   4.833
 9134TIP3   OH227278   4.659   4.513   3.745
 9134TIP3    H127279   4.636   4.443   3.807
 9134TIP3    H227280   4.672   4.465   3.661
 9135TIP3   OH227281   4.651   4.142   4.585
 9135TIP3    H127282   4.559   4.112   4.594
 9135TIP3    H227283   4.691   4.065   4.541
 9136TIP3   OH227284   3.783   4.370   4.338
 9136TIP3    H127285   3.784   4.451   4.284
 9136TIP3    H227286   3.688   4.353   4.345
 9137TIP3   OH227287   3.344   3.672   4.043
 9137TIP3    H127288   3.388   3.756   4.065
 9137TIP3    H227289   3.264   3.677   4.100
 9138TIP3   OH227290   3.923   4.137   4.279
 9138TIP3    H127291   3.887   4.225   4.300
 9138TIP3    H227292   3.887   4.084   4.353
 9139TIP3   OH227293   3.702   4.608   4.188
 9139TIP3    H127294   3.617   4.616   4.234
 9139TIP3    H227295   3.734   4.701   4.191
 9140TIP3   OH227296   4.448   4.347   4.753
 9140TIP3    H127297   4.443   4.341   4.851
 9140TIP3    H227298   4.517   4.282   4.733
 9141TIP3   OH227299   4.414   4.238   3.648
 9141TIP3    H127300   4.472   4.214   3.724
 9141TIP3    H227301   4.327   4.215   3.686
 9142TIP3   OH227302   4.755   4.715   3.466
 9142TIP3    H127303   4.793   4.788   3.414
 9142TIP3    H227304   4.675   4.761   3.499
 9143TIP3   OH227305   3.775   3.494   5.334
 9143TIP3    H127306   3.678   3.496   5.344
 9143TIP3    H227307   3.801   3.431   5.402
 9144TIP3   OH227308   4.575   4.173   3.862
 9144TIP3    H127309   4.566   4.108   3.934
 9144TIP3    H227310   4.672   4.173   3.851
 9145TIP3   OH227311   3.778   4.233   3.643
 9145TIP3    H127312   3.830   4.157   3.614
 9145TIP3    H227313   3.766   4.216   3.739
 9146TIP3   OH227314   3.734   4.221   3.913
 9146TIP3    H127315   3.799   4.193   3.978
 9146TIP3    H227316   3.734   4.319   3.924
 9147TIP3   OH227317   3.462   3.920   4.122
 9147TIP3    H127318   3.395   3.962   4.179
 9147TIP3    H227319   3.477   3.992   4.057
 9148TIP3   OH227320   4.612   3.559   5.013
 9148TIP3    H127321   4.692   3.593   5.056
 9148TIP3    H227322   4.593   3.478   5.065
 9149TIP3   OH227323   4.502   3.309   4.172
 9149TIP3    H127324   4.480   3.335   4.081
 9149TIP3    H227325   4.534   3.393   4.212
 9150TIP3   OH227326   3.991   4.422   3.864
 9150TIP3    H127327   3.905   4.450   3.902
 9150TIP3    H227328   4.011   4.499   3.809
 9151TIP3   OH227329   4.178   3.490   4.281
 9151TIP3    H127330   4.245   3.559   4.265
 9151TIP3    H227331   4.184   3.480   4.379
 9152TIP3   OH227332   4.450   3.807   5.088
 9152TIP3    H127333   4.472   3.860   5.168
 9152TIP3    H227334   4.504   3.727   5.100
 9153TIP3   OH227335   4.325   3.230   4.379
 9153TIP3    H127336   4.325   3.302   4.444
 9153TIP3    H227337   4.391   3.259   4.313
 9154TIP3   OH227338   3.732   4.495   3.935
 9154TIP3    H127339   3.705   4.566   3.871
 9154TIP3    H227340   3.718   4.541   4.021
 9155TIP3   OH227341   3.839   3.212   4.168
 9155TIP3    H127342   3.834   3.298   4.214
 9155TIP3    H227343   3.933   3.191   4.181
 9156TIP3   OH227344   5.093   3.703   5.067
 9156TIP3    H127345   4.995   3.704   5.078
 9156TIP3    H227346   5.098   3.663   4.979
 9157TIP3   OH227347   4.742   3.901   4.458
 9157TIP3    H127348   4.665   3.842   4.469
 9157TIP3    H227349   4.812   3.852   4.507
 9158TIP3   OH227350   3.454   4.138   3.934
 9158TIP3    H127351   3.500   4.218   3.964
 9158TIP3    H227352   3.509   4.119   3.856
 9159TIP3   OH227353   3.406   3.404   4.062
 9159TIP3    H127354   3.393   3.501   4.057
 9159TIP3    H227355   3.336   3.370   4.005
 9160TIP3   OH227356   4.715   4.838   4.409
 9160TIP3    H127357   4.666   4.896   4.348
 9160TIP3    H227358   4.807   4.869   4.392
 9161TIP3   OH227359   3.782   3.126   4.936
 9161TIP3    H127360   3.754   3.092   4.848
 9161TIP3    H227361   3.775   3.045   4.991
 9162TIP3   OH227362   3.328   4.349   4.315
 9162TIP3    H127363   3.256   4.373   4.375
 9162TIP3    H227364   3.296   4.387   4.230
 9163TIP3   OH227365   3.946   4.431   3.556
 9163TIP3    H127366   3.889   4.362   3.597
 9163TIP3    H227367   4.020   4.376   3.523
 9164TIP3   OH227368   4.380   4.465   3.469
 9164TIP3    H127369   4.427   4.403   3.528
 9164TIP3    H227370   4.437   4.466   3.390
 9165TIP3   OH227371   3.602   4.281   5.588
 9165TIP3    H127372   3.640   4.191   5.581
 9165TIP3    H227373   3.548   4.287   5.508
 9166TIP3   OH227374   4.076   4.135   3.589
 9166TIP3    H127375   4.095   4.152   3.683
 9166TIP3    H227376   4.094   4.038   3.584
 9167TIP3   OH227377   4.725   4.385   4.968
 9167TIP3    H127378   4.751   4.412   4.879
 9167TIP3    H227379   4.631   4.410   4.972
 9168TIP3   OH227380   3.728   4.021   5.571
 9168TIP3    H127381   3.807   3.973   5.543
 9168TIP3    H227382   3.755   4.054   5.659
 9169TIP3   OH227383   3.807   3.844   4.007
 9169TIP3    H127384   3.771   3.806   4.090
 9169TIP3    H227385   3.838   3.764   3.960
 9170TIP3   OH227386   4.062   3.907   5.228
 9170TIP3    H127387   3.987   3.970   5.232
 9170TIP3    H227388   4.113   3.942   5.152
 9171TIP3   OH227389   3.899   3.640   3.839
 9171TIP3    H127390   3.884   3.618   3.745
 9171TIP3    H227391   3.997   3.647   3.840
 9172TIP3   OH227392   4.585   4.310   5.361
 9172TIP3    H127393   4.671   4.291   5.321
 9172TIP3    H227394   4.580   4.245   5.433
 9173TIP3   OH227395   4.720   3.971   3.505
 9173TIP3    H127396   4.698   3.923   3.422
 9173TIP3    H227397   4.688   4.060   3.480
 9174TIP3   OH227398   4.190   3.698   5.356
 9174TIP3    H127399   4.190   3.618   5.300
 9174TIP3    H227400   4.145   3.763   5.298
 9175TIP3   OH227401   4.193   3.486   5.163
 9175TIP3    H127402   4.220   3.522   5.076
 9175TIP3    H227403   4.100   3.460   5.145
 9176TIP3   OH227404   4.220   4.024   5.041
 9176TIP3    H127405   4.299   4.018   4.986
 9176TIP3    H227406   4.162   4.085   4.991
 9177TIP3   OH227407   4.801   3.988   5.418
 9177TIP3    H127408   4.850   3.904   5.427
 9177TIP3    H227409   4.870   4.047   5.384
 9178TIP3   OH227410   4.844   4.235   5.156
 9178TIP3    H127411   4.791   4.294   5.097
 9178TIP3    H227412   4.933   4.251   5.117
 9179TIP3   OH227413   4.068   3.809   5.587
 9179TIP3    H127414   3.999   3.741   5.599
 9179TIP3    H227415   4.103   3.786   5.499
 9180TIP3   OH227416   4.325   3.251   5.233
 9180TIP3    H127417   4.276   3.331   5.206
 9180TIP3    H227418   4.258   3.181   5.216
 9181TIP3   OH227419   4.451   3.754   5.445
 9181TIP3    H127420   4.438   3.742   5.541
 9181TIP3    H227421   4.361   3.729   5.414
 9182TIP3   OH227422   4.691   3.702   5.301
 9182TIP3    H127423   4.613   3.703   5.361
 9182TIP3    H227424   4.762   3.669   5.360
 9183TIP3   OH227425   4.925   3.643   5.453
 9183TIP3    H127426   4.933   3.547   5.472
 9183TIP3    H227427   4.916   3.682   5.542
 9184TIP3   OH227428   3.905   3.590   5.639
 9184TIP3    H127429   3.912   3.500   5.603
 9184TIP3    H227430   3.942   3.577   5.729
 9185TIP3   OH227431   4.419   3.256   5.490
 9185TIP3    H127432   4.485   3.186   5.481
 9185TIP3    H227433   4.378   3.253   5.401
 9186TIP3   OH227434   4.484   3.472   5.647
 9186TIP3    H127435   4.462   3.401   5.583
 9186TIP3    H227436   4.407   3.532   5.640
 9187TIP3   OH227437   3.705   4.699   3.746
 9187TIP3    H127438   3.801   4.697   3.728
 9187TIP3    H227439   3.675   4.749   3.668
 9188TIP3   OH227440   3.184   4.088   3.966
 9188TIP3    H127441   3.279   4.105   3.953
 9188TIP3    H227442   3.176   3.998   3.926
 9189TIP3   OH227443   3.100   4.695   4.376
 9189TIP3    H127444   3.031   4.634   4.341
 9189TIP3    H227445   3.143   4.637   4.442
 9190TIP3   OH227446   3.233   4.547   4.565
 9190TIP3    H127447   3.227   4.471   4.626
 9190TIP3    H227448   3.287   4.607   4.619
 9191TIP3   OH227449   4.965   4.949   4.365
 9191TIP3    H127450   4.998   5.005   4.436
 9191TIP3    H227451   5.019   4.978   4.290
 9192TIP3   OH227452   5.025   4.644   5.217
 9192TIP3    H127453   4.952   4.639   5.283
 9192TIP3    H227454   5.042   4.738   5.220
 9193TIP3   OH227455   4.854   4.158   3.837
 9193TIP3    H127456   4.924   4.221   3.811
 9193TIP3    H227457   4.896   4.117   3.917
 9194TIP3   OH227458   4.980   4.023   4.039
 9194TIP3    H127459   4.916   3.981   4.101
 9194TIP3    H227460   5.048   4.060   4.100
 9195TIP3   OH227461   5.037   4.415   4.477
 9195TIP3    H127462   5.089   4.350   4.426
 9195TIP3    H227463   5.021   4.486   4.412
 9196TIP3   OH227464   4.921   3.933   3.688
 9196TIP3    H127465   4.848   3.936   3.622
 9196TIP3    H227466   4.894   4.008   3.744
 9197TIP3   OH227467   4.790   3.607   3.643
 9197TIP3    H127468   4.748   3.642   3.564
 9197TIP3    H227469   4.766   3.512   3.637
 9198TIP3   OH227470   4.796   3.879   4.188
 9198TIP3    H127471   4.803   3.783   4.184
 9198TIP3    H227472   4.782   3.895   4.284
 9199TIP3   OH227473   3.422   3.954   4.934
 9199TIP3    H127474   3.422   3.922   4.842
 9199TIP3    H227475   3.519   3.956   4.952
 9200TIP3   OH227476   5.083   4.298   5.049
 9200TIP3    H127477   5.154   4.231   5.040
 9200TIP3    H227478   5.119   4.371   4.994
 9201TIP3   OH227479   5.269   4.108   5.062
 9201TIP3    H127480   5.196   4.056   5.102
 9201TIP3    H227481   5.344   4.047   5.076
 9202TIP3   OH227482   4.734   3.341   3.633
 9202TIP3    H127483   4.809   3.308   3.686
 9202TIP3    H227484   4.661   3.281   3.655
 9203TIP3   OH227485   4.792   3.596   4.083
 9203TIP3    H127486   4.833   3.507   4.099
 9203TIP3    H227487   4.851   3.629   4.013
 9204TIP3   OH227488   4.955   3.769   4.578
 9204TIP3    H127489   5.041   3.797   4.539
 9204TIP3    H227490   4.966   3.807   4.668
 9205TIP3   OH227491   5.023   3.914   4.810
 9205TIP3    H127492   4.946   3.948   4.859
 9205TIP3    H227493   5.054   3.995   4.765
 9206TIP3   OH227494   3.637   3.645   5.613
 9206TIP3    H127495   3.735   3.638   5.611
 9206TIP3    H227496   3.615   3.558   5.652
 9207TIP3   OH227497   5.480   3.509   5.367
 9207TIP3    H127498   5.534   3.440   5.321
 9207TIP3    H227499   5.447   3.562   5.292
 9208TIP3   OH227500   4.901   3.345   4.121
 9208TIP3    H127501   4.947   3.329   4.206
 9208TIP3    H227502   4.839   3.269   4.119
 9209TIP3   OH227503   3.600   3.334   4.944
 9209TIP3    H127504   3.662   3.258   4.951
 9209TIP3    H227505   3.664   3.408   4.935
 9210TIP3   OH227506   3.404   3.608   5.014
 9210TIP3    H127507   3.454   3.598   4.930
 9210TIP3    H227508   3.435   3.694   5.044
 9211TIP3   OH227509   5.346   3.644   5.175
 9211TIP3    H127510   5.260   3.686   5.197
 9211TIP3    H227511   5.315   3.574   5.114
 9212TIP3   OH227512   4.984   3.282   3.754
 9212TIP3    H127513   5.022   3.209   3.700
 9212TIP3    H227514   5.051   3.352   3.745
 9213TIP3   OH227515   3.387   3.115   4.519
 9213TIP3    H127516   3.292   3.106   4.537
 9213TIP3    H227517   3.388   3.168   4.437
 9214TIP3   OH227518   4.544   4.815   4.020
 9214TIP3    H127519   4.598   4.800   3.940
 9214TIP3    H227520   4.600   4.875   4.071
 9215TIP3   OH227521   3.608   3.194   5.331
 9215TIP3    H127522   3.555   3.185   5.412
 9215TIP3    H227523   3.541   3.229   5.269
 9216TIP3   OH227524   5.245   3.409   5.048
 9216TIP3    H127525   5.153   3.404   5.017
 9216TIP3    H227526   5.273   3.315   5.036
 9217TIP3   OH227527   3.498   4.917   4.972
 9217TIP3    H127528   3.407   4.943   4.945
 9217TIP3    H227529   3.506   4.966   5.054
 9218TIP3   OH227530   3.743   4.897   4.830
 9218TIP3    H127531   3.658   4.902   4.876
 9218TIP3    H227532   3.719   4.926   4.740
 9219TIP3   OH227533   4.181   4.920   4.599
 9219TIP3    H127534   4.097   4.941   4.555
 9219TIP3    H227535   4.194   4.998   4.655
 9220TIP3   OH227536   3.415   4.707   4.714
 9220TIP3    H127537   3.446   4.696   4.805
 9220TIP3    H227538   3.484   4.657   4.665
 9221TIP3   OH227539   3.606   4.571   4.579
 9221TIP3    H127540   3.622   4.486   4.626
 9221TIP3    H227541   3.697   4.606   4.571
 9222TIP3   OH227542   3.869   4.668   4.576
 9222TIP3    H127543   3.907   4.579   4.570
 9222TIP3    H227544   3.902   4.697   4.662
 9223TIP3   OH227545   4.448   3.324   4.670
 9223TIP3    H127546   4.400   3.264   4.731
 9223TIP3    H227547   4.501   3.259   4.620
 9224TIP3   OH227548   4.977   3.203   4.575
 9224TIP3    H127549   5.007   3.256   4.499
 9224TIP3    H227550   4.879   3.212   4.569
 9225TIP3   OH227551   5.069   3.303   4.338
 9225TIP3    H127552   5.142   3.253   4.296
 9225TIP3    H227553   5.100   3.395   4.323
 9226TIP3   OH227554   3.697   3.036   4.686
 9226TIP3    H127555   3.605   3.001   4.686
 9226TIP3    H227556   3.748   2.952   4.685
 9227TIP3   OH227557   3.486   2.896   4.329
 9227TIP3    H127558   3.518   2.955   4.258
 9227TIP3    H227559   3.456   2.961   4.396
 9228TIP3   OH227560   4.117   3.122   4.560
 9228TIP3    H127561   4.189   3.121   4.494
 9228TIP3    H227562   4.163   3.068   4.627
 9229TIP3   OH227563   4.698   3.187   4.554
 9229TIP3    H127564   4.672   3.171   4.462
 9229TIP3    H227565   4.674   3.103   4.595
 9230TIP3   OH227566   4.717   3.131   4.113
 9230TIP3    H127567   4.632   3.178   4.125
 9230TIP3    H227568   4.699   3.048   4.161
 9231TIP3   OH227569   3.204   4.470   4.110
 9231TIP3    H127570   3.119   4.436   4.077
 9231TIP3    H227571   3.190   4.565   4.097
 9232TIP3   OH227572   3.603   3.053   4.111
 9232TIP3    H127573   3.648   2.997   4.045
 9232TIP3    H227574   3.676   3.110   4.141
 9233TIP3   OH227575   4.117   3.235   4.194
 9233TIP3    H127576   4.175   3.184   4.254
 9233TIP3    H227577   4.138   3.325   4.226
 9234TIP3   OH227578   3.974   4.662   3.696
 9234TIP3    H127579   4.063   4.685   3.660
 9234TIP3    H227580   3.952   4.587   3.636
 9235TIP3   OH227581   4.693   4.779   3.788
 9235TIP3    H127582   4.683   4.682   3.775
 9235TIP3    H227583   4.648   4.813   3.708
 9236TIP3   OH227584   3.905   3.314   5.578
 9236TIP3    H127585   3.873   3.242   5.635
 9236TIP3    H227586   4.000   3.315   5.603
 9237TIP3   OH227587   4.154   3.311   5.696
 9237TIP3    H127588   4.238   3.286   5.653
 9237TIP3    H227589   4.143   3.239   5.761
 9238TIP3   OH227590   3.278   4.499   3.752
 9238TIP3    H127591   3.276   4.522   3.846
 9238TIP3    H227592   3.367   4.458   3.743
 9239TIP3   OH227593   4.979   3.371   5.484
 9239TIP3    H127594   4.999   3.341   5.575
 9239TIP3    H227595   5.068   3.365   5.442
 9240TIP3   OH227596   6.182   4.292   3.745
 9240TIP3    H127597   6.160   4.386   3.726
 9240TIP3    H227598   6.105   4.248   3.704
 9241TIP3   OH227599   6.196   4.300   4.119
 9241TIP3    H127600   6.213   4.266   4.208
 9241TIP3    H227601   6.141   4.232   4.078
 9242TIP3   OH227602   5.489   4.199   4.489
 9242TIP3    H127603   5.522   4.135   4.554
 9242TIP3    H227604   5.571   4.243   4.461
 9243TIP3   OH227605   6.427   4.595   3.803
 9243TIP3    H127606   6.417   4.534   3.876
 9243TIP3    H227607   6.454   4.677   3.850
 9244TIP3   OH227608   5.452   4.597   4.211
 9244TIP3    H127609   5.438   4.500   4.214
 9244TIP3    H227610   5.548   4.601   4.221
 9245TIP3   OH227611   5.166   3.807   3.996
 9245TIP3    H127612   5.117   3.889   4.012
 9245TIP3    H227613   5.095   3.751   3.960
 9246TIP3   OH227614   5.217   4.093   4.166
 9246TIP3    H127615   5.266   4.017   4.205
 9246TIP3    H227616   5.285   4.138   4.115
 9247TIP3   OH227617   6.068   5.062   3.813
 9247TIP3    H127618   6.121   4.987   3.782
 9247TIP3    H227619   6.063   5.048   3.909
 9248TIP3   OH227620   5.988   4.539   4.145
 9248TIP3    H127621   6.017   4.452   4.116
 9248TIP3    H227622   6.072   4.575   4.180
 9249TIP3   OH227623   6.996   3.841   4.169
 9249TIP3    H127624   7.023   3.924   4.213
 9249TIP3    H227625   7.018   3.861   4.077
 9250TIP3   OH227626   6.382   4.019   4.207
 9250TIP3    H127627   6.434   3.939   4.228
 9250TIP3    H227628   6.365   4.007   4.112
 9251TIP3   OH227629   6.426   3.776   3.793
 9251TIP3    H127630   6.500   3.761   3.857
 9251TIP3    H227631   6.476   3.810   3.717
 9252TIP3   OH227632   5.362   3.891   4.280
 9252TIP3    H127633   5.441   3.867   4.332
 9252TIP3    H227634   5.374   3.832   4.202
 9253TIP3   OH227635   5.800   4.045   4.060
 9253TIP3    H127636   5.850   4.113   4.110
 9253TIP3    H227637   5.713   4.064   4.098
 9254TIP3   OH227638   7.066   4.046   4.343
 9254TIP3    H127639   6.986   4.098   4.322
 9254TIP3    H227640   7.092   4.086   4.428
 9255TIP3   OH227641   5.729   3.665   4.605
 9255TIP3    H127642   5.666   3.704   4.542
 9255TIP3    H227643   5.680   3.682   4.689
 9256TIP3   OH227644   6.079   4.515   3.610
 9256TIP3    H127645   6.035   4.498   3.526
 9256TIP3    H227646   6.038   4.600   3.636
 9257TIP3   OH227647   6.637   3.776   3.965
 9257TIP3    H127648   6.630   3.731   4.050
 9257TIP3    H227649   6.693   3.853   3.987
 9258TIP3   OH227650   5.593   3.779   4.391
 9258TIP3    H127651   5.653   3.856   4.407
 9258TIP3    H227652   5.626   3.741   4.310
 9259TIP3   OH227653   5.061   4.325   3.732
 9259TIP3    H127654   5.018   4.351   3.649
 9259TIP3    H227655   5.089   4.411   3.769
 9260TIP3   OH227656   6.488   4.817   3.957
 9260TIP3    H127657   6.408   4.832   4.011
 9260TIP3    H227658   6.503   4.908   3.922
 9261TIP3   OH227659   6.791   3.734   4.334
 9261TIP3    H127660   6.704   3.770   4.308
 9261TIP3    H227661   6.850   3.769   4.265
 9262TIP3   OH227662   6.087   3.386   4.321
 9262TIP3    H127663   6.072   3.290   4.337
 9262TIP3    H227664   6.009   3.424   4.366
 9263TIP3   OH227665   6.201   4.885   3.647
 9263TIP3    H127666   6.255   4.806   3.624
 9263TIP3    H227667   6.259   4.954   3.607
 9264TIP3   OH227668   6.345   4.671   3.550
 9264TIP3    H127669   6.300   4.592   3.517
 9264TIP3    H227670   6.381   4.639   3.636
 9265TIP3   OH227671   6.015   4.147   3.572
 9265TIP3    H127672   5.934   4.199   3.552
 9265TIP3    H227673   6.060   4.149   3.486
 9266TIP3   OH227674   5.977   3.931   3.290
 9266TIP3    H127675   6.043   3.983   3.338
 9266TIP3    H227676   6.035   3.869   3.242
 9267TIP3   OH227677   6.919   4.385   4.159
 9267TIP3    H127678   6.838   4.440   4.165
 9267TIP3    H227679   6.952   4.413   4.070
 9268TIP3   OH227680   6.361   4.229   3.546
 9268TIP3    H127681   6.307   4.256   3.625
 9268TIP3    H227682   6.446   4.205   3.589
 9269TIP3   OH227683   6.599   4.268   4.458
 9269TIP3    H127684   6.598   4.351   4.509
 9269TIP3    H227685   6.513   4.275   4.411
 9270TIP3   OH227686   5.600   4.219   3.954
 9270TIP3    H127687   5.545   4.172   3.888
 9270TIP3    H227688   5.686   4.177   3.942
 9271TIP3   OH227689   5.732   4.652   4.108
 9271TIP3    H127690   5.708   4.595   4.034
 9271TIP3    H227691   5.820   4.615   4.132
 9272TIP3   OH227692   6.265   4.847   4.114
 9272TIP3    H127693   6.210   4.909   4.163
 9272TIP3    H227694   6.245   4.763   4.158
 9273TIP3   OH227695   6.205   4.086   3.371
 9273TIP3    H127696   6.263   4.147   3.422
 9273TIP3    H227697   6.230   4.111   3.278
 9274TIP3   OH227698   5.627   4.302   4.752
 9274TIP3    H127699   5.631   4.394   4.787
 9274TIP3    H227700   5.530   4.292   4.748
 9275TIP3   OH227701   5.949   4.766   3.644
 9275TIP3    H127702   6.027   4.821   3.664
 9275TIP3    H227703   5.886   4.830   3.610
 9276TIP3   OH227704   6.720   3.330   3.419
 9276TIP3    H127705   6.639   3.351   3.469
 9276TIP3    H227706   6.733   3.412   3.368
 9277TIP3   OH227707   5.465   4.071   3.763
 9277TIP3    H127708   5.396   4.115   3.708
 9277TIP3    H227709   5.421   3.987   3.784
 9278TIP3   OH227710   6.518   4.696   2.966
 9278TIP3    H127711   6.525   4.793   2.953
 9278TIP3    H227712   6.611   4.668   2.954
 9279TIP3   OH227713   5.243   4.455   4.671
 9279TIP3    H127714   5.178   4.432   4.602
 9279TIP3    H227715   5.282   4.369   4.695
 9280TIP3   OH227716   5.098   4.650   4.300
 9280TIP3    H127717   5.194   4.637   4.298
 9280TIP3    H227718   5.088   4.725   4.361
 9281TIP3   OH227719   5.826   5.014   3.448
 9281TIP3    H127720   5.781   4.996   3.363
 9281TIP3    H227721   5.796   5.104   3.470
 9282TIP3   OH227722   5.265   4.863   3.831
 9282TIP3    H127723   5.313   4.853   3.917
 9282TIP3    H227724   5.209   4.784   3.833
 9283TIP3   OH227725   6.030   4.915   3.088
 9283TIP3    H127726   6.088   4.845   3.052
 9283TIP3    H227727   6.064   4.924   3.180
 9284TIP3   OH227728   6.079   4.962   3.359
 9284TIP3    H127729   5.991   4.972   3.401
 9284TIP3    H227730   6.132   4.926   3.432
 9285TIP3   OH227731   6.848   4.226   4.639
 9285TIP3    H127732   6.769   4.241   4.586
 9285TIP3    H227733   6.863   4.130   4.628
 9286TIP3   OH227734   5.455   4.632   4.642
 9286TIP3    H127735   5.507   4.626   4.724
 9286TIP3    H227736   5.380   4.574   4.661
 9287TIP3   OH227737   5.846   3.470   4.442
 9287TIP3    H127738   5.758   3.434   4.418
 9287TIP3    H227739   5.817   3.543   4.500
 9288TIP3   OH227740   6.379   3.574   4.641
 9288TIP3    H127741   6.444   3.552   4.710
 9288TIP3    H227742   6.293   3.557   4.685
 9289TIP3   OH227743   6.618   4.004   4.556
 9289TIP3    H127744   6.572   4.001   4.643
 9289TIP3    H227745   6.596   4.093   4.524
 9290TIP3   OH227746   6.279   4.132   3.114
 9290TIP3    H127747   6.247   4.109   3.025
 9290TIP3    H227748   6.359   4.184   3.092
 9291TIP3   OH227749   5.995   3.521   3.416
 9291TIP3    H127750   5.961   3.522   3.508
 9291TIP3    H227751   5.965   3.435   3.386
 9292TIP3   OH227752   5.772   3.975   4.451
 9292TIP3    H127753   5.725   3.996   4.535
 9292TIP3    H227754   5.771   4.065   4.409
 9293TIP3   OH227755   6.154   3.950   3.700
 9293TIP3    H127756   6.102   4.023   3.660
 9293TIP3    H227757   6.212   3.924   3.625
 9294TIP3   OH227758   6.339   4.225   4.783
 9294TIP3    H127759   6.303   4.162   4.849
 9294TIP3    H227760   6.430   4.237   4.816
 9295TIP3   OH227761   6.306   3.978   3.946
 9295TIP3    H127762   6.253   4.014   3.872
 9295TIP3    H227763   6.340   3.898   3.902
 9296TIP3   OH227764   5.604   4.002   4.670
 9296TIP3    H127765   5.622   4.073   4.734
 9296TIP3    H227766   5.587   3.926   4.728
 9297TIP3   OH227767   5.649   3.479   3.373
 9297TIP3    H127768   5.638   3.476   3.469
 9297TIP3    H227769   5.557   3.465   3.342
 9298TIP3   OH227770   5.187   3.530   4.252
 9298TIP3    H127771   5.265   3.559   4.305
 9298TIP3    H227772   5.226   3.498   4.169
 9299TIP3   OH227773   5.165   3.511   3.773
 9299TIP3    H127774   5.212   3.551   3.696
 9299TIP3    H227775   5.103   3.583   3.795
 9300TIP3   OH227776   6.319   4.226   4.370
 9300TIP3    H127777   6.351   4.152   4.313
 9300TIP3    H227778   6.290   4.175   4.449
 9301TIP3   OH227779   5.426   3.735   4.069
 9301TIP3    H127780   5.337   3.745   4.028
 9301TIP3    H227781   5.463   3.657   4.024
 9302TIP3   OH227782   5.701   3.723   3.732
 9302TIP3    H127783   5.787   3.762   3.711
 9302TIP3    H227784   5.642   3.757   3.661
 9303TIP3   OH227785   6.488   3.762   4.239
 9303TIP3    H127786   6.454   3.772   4.331
 9303TIP3    H227787   6.423   3.702   4.200
 9304TIP3   OH227788   5.533   3.773   3.525
 9304TIP3    H127789   5.452   3.730   3.496
 9304TIP3    H227790   5.577   3.797   3.441
 9305TIP3   OH227791   5.605   4.553   4.881
 9305TIP3    H127792   5.680   4.594   4.929
 9305TIP3    H227793   5.538   4.552   4.953
 9306TIP3   OH227794   6.084   3.945   4.135
 9306TIP3    H127795   6.167   3.966   4.088
 9306TIP3    H227796   6.111   3.955   4.229
 9307TIP3   OH227797   5.616   3.506   4.020
 9307TIP3    H127798   5.574   3.432   4.068
 9307TIP3    H227799   5.637   3.466   3.935
 9308TIP3   OH227800   6.044   3.913   4.428
 9308TIP3    H127801   5.958   3.957   4.446
 9308TIP3    H227802   6.107   3.967   4.481
 9309TIP3   OH227803   5.788   4.299   3.522
 9309TIP3    H127804   5.715   4.235   3.511
 9309TIP3    H227805   5.769   4.334   3.613
 9310TIP3   OH227806   6.689   4.531   4.161
 9310TIP3    H127807   6.716   4.592   4.089
 9310TIP3    H227808   6.602   4.499   4.129
 9311TIP3   OH227809   6.250   3.612   3.387
 9311TIP3    H127810   6.152   3.601   3.391
 9311TIP3    H227811   6.262   3.708   3.406
 9312TIP3   OH227812   6.316   3.860   3.487
 9312TIP3    H127813   6.412   3.868   3.501
 9312TIP3    H227814   6.296   3.939   3.433
 9313TIP3   OH227815   5.464   4.312   4.192
 9313TIP3    H127816   5.514   4.290   4.112
 9313TIP3    H227817   5.528   4.285   4.261
 9314TIP3   OH227818   5.932   4.449   3.343
 9314TIP3    H127819   5.885   4.536   3.348
 9314TIP3    H227820   5.877   4.395   3.403
 9315TIP3   OH227821   5.356   4.242   4.811
 9315TIP3    H127822   5.379   4.224   4.905
 9315TIP3    H227823   5.285   4.177   4.796
 9316TIP3   OH227824   6.082   4.329   4.850
 9316TIP3    H127825   6.015   4.311   4.782
 9316TIP3    H227826   6.163   4.332   4.798
 9317TIP3   OH227827   6.757   3.950   3.324
 9317TIP3    H127828   6.695   3.905   3.262
 9317TIP3    H227829   6.753   4.039   3.282
 9318TIP3   OH227830   6.457   4.770   3.231
 9318TIP3    H127831   6.431   4.701   3.294
 9318TIP3    H227832   6.468   4.721   3.148
 9319TIP3   OH227833   6.451   4.400   4.074
 9319TIP3    H127834   6.358   4.371   4.083
 9319TIP3    H227835   6.489   4.325   4.026
 9320TIP3   OH227836   5.577   4.622   3.814
 9320TIP3    H127837   5.580   4.707   3.766
 9320TIP3    H227838   5.482   4.613   3.832
 9321TIP3   OH227839   5.142   3.931   3.526
 9321TIP3    H127840   5.188   4.015   3.546
 9321TIP3    H227841   5.064   3.937   3.585
 9322TIP3   OH227842   5.720   4.392   3.768
 9322TIP3    H127843   5.689   4.484   3.779
 9322TIP3    H227844   5.676   4.350   3.844
 9323TIP3   OH227845   5.499   4.866   3.675
 9323TIP3    H127846   5.413   4.874   3.721
 9323TIP3    H227847   5.531   4.959   3.679
 9324TIP3   OH227848   6.245   4.602   4.251
 9324TIP3    H127849   6.251   4.584   4.345
 9324TIP3    H227850   6.320   4.551   4.215
 9325TIP3   OH227851   6.211   4.495   3.132
 9325TIP3    H127852   6.264   4.470   3.212
 9325TIP3    H227853   6.122   4.472   3.163
 9326TIP3   OH227854   6.551   4.972   2.953
 9326TIP3    H127855   6.589   5.045   2.901
 9326TIP3    H227856   6.471   5.018   2.987
 9327TIP3   OH227857   5.572   3.743   4.821
 9327TIP3    H127858   5.476   3.753   4.833
 9327TIP3    H227859   5.595   3.685   4.895
 9328TIP3   OH227860   6.371   4.426   3.347
 9328TIP3    H127861   6.363   4.363   3.421
 9328TIP3    H227862   6.468   4.429   3.336
 9329TIP3   OH227863   5.292   4.835   4.465
 9329TIP3    H127864   5.355   4.761   4.470
 9329TIP3    H227865   5.280   4.849   4.562
 9330TIP3   OH227866   5.579   4.477   3.132
 9330TIP3    H127867   5.591   4.385   3.103
 9330TIP3    H227868   5.560   4.466   3.227
 9331TIP3   OH227869   5.524   4.482   3.404
 9331TIP3    H127870   5.592   4.458   3.468
 9331TIP3    H227871   5.526   4.580   3.410
 9332TIP3   OH227872   5.261   4.177   3.609
 9332TIP3    H127873   5.194   4.220   3.666
 9332TIP3    H227874   5.273   4.247   3.542
 9333TIP3   OH227875   6.411   3.806   4.494
 9333TIP3    H127876   6.482   3.853   4.540
 9333TIP3    H227877   6.394   3.730   4.554
 9334TIP3   OH227878   6.285   3.566   3.665
 9334TIP3    H127879   6.274   3.587   3.570
 9334TIP3    H227880   6.328   3.648   3.699
 9335TIP3   OH227881   5.788   4.679   3.353
 9335TIP3    H127882   5.702   4.707   3.389
 9335TIP3    H227883   5.807   4.753   3.293
 9336TIP3   OH227884   5.987   3.746   3.762
 9336TIP3    H127885   6.041   3.816   3.720
 9336TIP3    H227886   6.035   3.735   3.844
 9337TIP3   OH227887   6.243   4.059   4.575
 9337TIP3    H127888   6.257   4.122   4.649
 9337TIP3    H227889   6.302   3.987   4.600
 9338TIP3   OH227890   6.127   3.478   3.875
 9338TIP3    H127891   6.171   3.521   3.952
 9338TIP3    H227892   6.181   3.511   3.800
 9339TIP3   OH227893   5.531   4.755   3.421
 9339TIP3    H127894   5.502   4.825   3.358
 9339TIP3    H227895   5.516   4.799   3.507
 9340TIP3   OH227896   5.637   3.466   3.655
 9340TIP3    H127897   5.632   3.558   3.688
 9340TIP3    H227898   5.733   3.451   3.665
 9341TIP3   OH227899   6.885   3.960   4.560
 9341TIP3    H127900   6.787   3.957   4.562
 9341TIP3    H227901   6.902   3.937   4.468
 9342TIP3   OH227902   6.538   4.157   3.945
 9342TIP3    H127903   6.463   4.096   3.958
 9342TIP3    H227904   6.611   4.110   3.992
 9343TIP3   OH227905   5.249   4.385   3.415
 9343TIP3    H127906   5.313   4.459   3.423
 9343TIP3    H227907   5.295   4.332   3.347
 9344TIP3   OH227908   5.209   3.665   3.544
 9344TIP3    H127909   5.188   3.761   3.544
 9344TIP3    H227910   5.132   3.627   3.501
 9345TIP3   OH227911   6.517   5.080   3.870
 9345TIP3    H127912   6.465   5.144   3.817
 9345TIP3    H227913   6.605   5.121   3.864
 9346TIP3   OH227914   5.588   3.382   4.419
 9346TIP3    H127915   5.552   3.350   4.334
 9346TIP3    H227916   5.574   3.304   4.477
 9347TIP3   OH227917   5.122   4.601   3.802
 9347TIP3    H127918   5.051   4.631   3.860
 9347TIP3    H227919   5.095   4.641   3.716
 9348TIP3   OH227920   5.741   4.682   3.045
 9348TIP3    H127921   5.685   4.611   3.084
 9348TIP3    H227922   5.816   4.630   3.012
 9349TIP3   OH227923   6.177   4.722   2.956
 9349TIP3    H127924   6.224   4.660   3.014
 9349TIP3    H227925   6.233   4.724   2.876
 9350TIP3   OH227926   5.412   4.508   5.071
 9350TIP3    H127927   5.430   4.413   5.062
 9350TIP3    H227928   5.322   4.518   5.037
 9351TIP3   OH227929   5.385   4.200   3.265
 9351TIP3    H127930   5.441   4.167   3.338
 9351TIP3    H227931   5.452   4.203   3.193
 9352TIP3   OH227932   5.896   4.396   3.073
 9352TIP3    H127933   5.897   4.410   3.170
 9352TIP3    H227934   5.893   4.298   3.069
 9353TIP3   OH227935   6.509   4.642   4.450
 9353TIP3    H127936   6.567   4.668   4.377
 9353TIP3    H227937   6.451   4.719   4.457
 9354TIP3   OH227938   5.530   4.259   5.061
 9354TIP3    H127939   5.614   4.221   5.033
 9354TIP3    H227940   5.555   4.304   5.144
 9355TIP3   OH227941   5.597   4.099   3.490
 9355TIP3    H127942   5.564   4.060   3.572
 9355TIP3    H227943   5.628   4.021   3.440
 9356TIP3   OH227944   5.861   4.160   4.708
 9356TIP3    H127945   5.783   4.219   4.720
 9356TIP3    H227946   5.907   4.205   4.634
 9357TIP3   OH227947   5.693   3.890   3.327
 9357TIP3    H127948   5.666   3.900   3.234
 9357TIP3    H227949   5.790   3.902   3.320
 9358TIP3   OH227950   6.388   4.578   4.866
 9358TIP3    H127951   6.458   4.548   4.807
 9358TIP3    H227952   6.378   4.503   4.927
 9359TIP3   OH227953   6.517   4.226   2.992
 9359TIP3    H127954   6.495   4.180   2.909
 9359TIP3    H227955   6.486   4.317   2.969
 9360TIP3   OH227956   5.989   3.958   4.842
 9360TIP3    H127957   5.983   3.878   4.787
 9360TIP3    H227958   5.944   4.025   4.785
 9361TIP3   OH227959   5.990   3.736   4.647
 9361TIP3    H127960   6.012   3.784   4.565
 9361TIP3    H227961   5.895   3.716   4.633
 9362TIP3   OH227962   6.013   4.291   4.521
 9362TIP3    H127963   6.090   4.294   4.463
 9362TIP3    H227964   5.940   4.313   4.460
 9363TIP3   OH227965   6.600   4.243   4.905
 9363TIP3    H127966   6.652   4.162   4.914
 9363TIP3    H227967   6.666   4.306   4.871
 9364TIP3   OH227968   6.645   4.496   4.635
 9364TIP3    H127969   6.586   4.551   4.579
 9364TIP3    H227970   6.732   4.520   4.597
 9365TIP3   OH227971   5.868   4.064   5.077
 9365TIP3    H127972   5.796   3.998   5.087
 9365TIP3    H227973   5.899   4.046   4.986
 9366TIP3   OH227974   6.120   3.503   4.715
 9366TIP3    H127975   6.072   3.586   4.694
 9366TIP3    H227976   6.049   3.437   4.706
 9367TIP3   OH227977   6.249   4.011   4.931
 9367TIP3    H127978   6.234   4.002   5.026
 9367TIP3    H227979   6.158   3.991   4.899
 9368TIP3   OH227980   6.484   3.949   4.785
 9368TIP3    H127981   6.408   3.962   4.845
 9368TIP3    H227982   6.556   3.925   4.846
 9369TIP3   OH227983   6.717   3.898   4.940
 9369TIP3    H127984   6.726   3.803   4.962
 9369TIP3    H227985   6.710   3.940   5.029
 9370TIP3   OH227986   5.703   3.846   5.125
 9370TIP3    H127987   5.708   3.754   5.091
 9370TIP3    H227988   5.737   3.834   5.216
 9371TIP3   OH227989   6.218   3.515   4.972
 9371TIP3    H127990   6.281   3.440   4.966
 9371TIP3    H227991   6.174   3.509   4.885
 9372TIP3   OH227992   6.281   3.729   5.133
 9372TIP3    H127993   6.257   3.660   5.068
 9372TIP3    H227994   6.204   3.790   5.128
 9373TIP3   OH227995   5.501   4.956   3.233
 9373TIP3    H127996   5.597   4.954   3.214
 9373TIP3    H227997   5.471   5.006   3.155
 9374TIP3   OH227998   4.981   4.339   3.449
 9374TIP3    H127999   5.076   4.361   3.437
 9374TIP3    H228000   4.976   4.251   3.407
 9375TIP3   OH228001   4.895   4.952   3.864
 9375TIP3    H128002   4.828   4.890   3.829
 9375TIP3    H228003   4.940   4.894   3.930
 9376TIP3   OH228004   5.032   4.804   4.051
 9376TIP3    H128005   5.020   4.729   4.112
 9376TIP3    H228006   5.087   4.862   4.106
 9377TIP3   OH228007   6.760   5.211   3.853
 9377TIP3    H128008   6.808   5.247   3.928
 9377TIP3    H228009   6.820   5.234   3.779
 9378TIP3   OH228010   6.842   4.901   4.707
 9378TIP3    H128011   6.765   4.907   4.767
 9378TIP3    H228012   6.877   4.992   4.713
 9379TIP3   OH228013   6.652   4.413   3.324
 9379TIP3    H128014   6.719   4.478   3.297
 9379TIP3    H228015   6.695   4.374   3.403
 9380TIP3   OH228016   6.779   4.279   3.527
 9380TIP3    H128017   6.714   4.240   3.588
 9380TIP3    H228018   6.845   4.319   3.588
 9381TIP3   OH228019   6.826   4.668   3.961
 9381TIP3    H128020   6.882   4.608   3.908
 9381TIP3    H228021   6.817   4.745   3.902
 9382TIP3   OH228022   6.716   4.187   3.176
 9382TIP3    H128023   6.645   4.192   3.108
 9382TIP3    H228024   6.691   4.265   3.231
 9383TIP3   OH228025   6.587   3.862   3.132
 9383TIP3    H128026   6.547   3.904   3.055
 9383TIP3    H228027   6.561   3.768   3.118
 9384TIP3   OH228028   6.592   4.137   3.675
 9384TIP3    H128029   6.603   4.041   3.671
 9384TIP3    H228030   6.579   4.154   3.770
 9385TIP3   OH228031   5.222   4.209   4.423
 9385TIP3    H128032   5.221   4.182   4.329
 9385TIP3    H228033   5.319   4.215   4.439
 9386TIP3   OH228034   6.887   4.573   4.523
 9386TIP3    H128035   6.954   4.501   4.523
 9386TIP3    H228036   6.896   4.608   4.433
 9387TIP3   OH228037   7.059   4.368   4.549
 9387TIP3    H128038   6.988   4.314   4.590
 9387TIP3    H228039   7.136   4.309   4.562
 9388TIP3   OH228040   6.531   3.595   3.118
 9388TIP3    H128041   6.609   3.566   3.170
 9388TIP3    H228042   6.461   3.534   3.144
 9389TIP3   OH228043   6.588   3.853   3.571
 9389TIP3    H128044   6.631   3.765   3.585
 9389TIP3    H228045   6.646   3.888   3.501
 9390TIP3   OH228046   6.751   4.027   4.065
 9390TIP3    H128047   6.837   4.053   4.024
 9390TIP3    H228048   6.764   4.066   4.154
 9391TIP3   OH228049   6.818   4.171   4.298
 9391TIP3    H128050   6.741   4.207   4.345
 9391TIP3    H228051   6.851   4.250   4.250
 9392TIP3   OH228052   5.435   3.896   5.096
 9392TIP3    H128053   5.533   3.891   5.098
 9392TIP3    H228054   5.412   3.811   5.139
 9393TIP3   OH228055   7.270   3.760   4.855
 9393TIP3    H128056   7.329   3.696   4.810
 9393TIP3    H228057   7.240   3.816   4.780
 9394TIP3   OH228058   6.698   3.603   3.609
 9394TIP3    H128059   6.747   3.586   3.692
 9394TIP3    H228060   6.638   3.526   3.606
 9395TIP3   OH228061   5.396   3.584   4.427
 9395TIP3    H128062   5.461   3.512   4.438
 9395TIP3    H228063   5.453   3.663   4.429
 9396TIP3   OH228064   5.202   3.862   4.505
 9396TIP3    H128065   5.247   3.861   4.418
 9396TIP3    H228066   5.223   3.952   4.535
 9397TIP3   OH228067   7.142   3.902   4.663
 9397TIP3    H128068   7.056   3.943   4.685
 9397TIP3    H228069   7.112   3.832   4.603
 9398TIP3   OH228070   6.779   3.538   3.241
 9398TIP3    H128071   6.819   3.467   3.187
 9398TIP3    H228072   6.845   3.609   3.234
 9399TIP3   OH228073   5.184   3.370   4.003
 9399TIP3    H128074   5.090   3.364   4.027
 9399TIP3    H228075   5.182   3.426   3.923
 9400TIP3   OH228076   6.340   5.071   3.506
 9400TIP3    H128077   6.395   5.058   3.427
 9400TIP3    H228078   6.394   5.133   3.558
 9401TIP3   OH228079   5.404   3.443   4.814
 9401TIP3    H128080   5.354   3.439   4.897
 9401TIP3    H228081   5.338   3.486   4.756
 9402TIP3   OH228082   7.041   3.668   4.539
 9402TIP3    H128083   6.951   3.668   4.503
 9402TIP3    H228084   7.069   3.575   4.525
 9403TIP3   OH228085   5.299   5.197   4.443
 9403TIP3    H128086   5.208   5.223   4.416
 9403TIP3    H228087   5.281   5.166   4.531
 9404TIP3   OH228088   5.539   5.152   4.320
 9404TIP3    H128089   5.450   5.167   4.360
 9404TIP3    H228090   5.521   5.177   4.228
 9405TIP3   OH228091   5.976   5.178   4.085
 9405TIP3    H128092   5.892   5.204   4.045
 9405TIP3    H228093   5.995   5.249   4.147
 9406TIP3   OH228094   5.212   4.955   4.213
 9406TIP3    H128095   5.242   4.930   4.303
 9406TIP3    H228096   5.283   4.913   4.160
 9407TIP3   OH228097   5.402   4.826   4.065
 9407TIP3    H128098   5.419   4.741   4.112
 9407TIP3    H228099   5.494   4.862   4.058
 9408TIP3   OH228100   5.665   4.923   4.061
 9408TIP3    H128101   5.700   4.832   4.056
 9408TIP3    H228102   5.700   4.951   4.146
 9409TIP3   OH228103   6.231   3.564   4.122
 9409TIP3    H128104   6.198   3.509   4.196
 9409TIP3    H228105   6.321   3.527   4.107
 9410TIP3   OH228106   6.768   3.459   4.063
 9410TIP3    H128107   6.807   3.510   3.989
 9410TIP3    H228108   6.674   3.482   4.056
 9411TIP3   OH228109   6.864   3.558   3.827
 9411TIP3    H128110   6.936   3.507   3.785
 9411TIP3    H228111   6.897   3.650   3.812
 9412TIP3   OH228112   5.496   3.291   4.174
 9412TIP3    H128113   5.403   3.260   4.172
 9412TIP3    H228114   5.543   3.206   4.168
 9413TIP3   OH228115   5.287   3.152   3.825
 9413TIP3    H128116   5.320   3.208   3.751
 9413TIP3    H228117   5.252   3.220   3.885
 9414TIP3   OH228118   5.946   3.316   4.050
 9414TIP3    H128119   6.004   3.372   3.995
 9414TIP3    H228120   5.960   3.354   4.138
 9415TIP3   OH228121   6.482   3.469   4.039
 9415TIP3    H128122   6.487   3.434   3.949
 9415TIP3    H228123   6.470   3.386   4.092
 9416TIP3   OH228124   6.515   3.390   3.599
 9416TIP3    H128125   6.428   3.432   3.609
 9416TIP3    H228126   6.500   3.304   3.644
 9417TIP3   OH228127   4.998   4.728   3.599
 9417TIP3    H128128   4.913   4.696   3.565
 9417TIP3    H228129   4.988   4.823   3.582
 9418TIP3   OH228130   5.403   3.300   3.619
 9418TIP3    H128131   5.428   3.270   3.530
 9418TIP3    H228132   5.473   3.365   3.637
 9419TIP3   OH228133   5.916   3.491   3.678
 9419TIP3    H128134   5.971   3.450   3.747
 9419TIP3    H228135   5.926   3.585   3.704
 9420TIP3   OH228136   5.770   4.917   3.182
 9420TIP3    H128137   5.858   4.941   3.146
 9420TIP3    H228138   5.748   4.843   3.123
 9421TIP3   OH228139   6.490   5.037   3.275
 9421TIP3    H128140   6.480   4.939   3.262
 9421TIP3    H228141   6.444   5.070   3.195
 9422TIP3   OH228142   5.702   3.569   5.063
 9422TIP3    H128143   5.667   3.500   5.121
 9422TIP3    H228144   5.796   3.571   5.091
 9423TIP3   OH228145   5.950   3.566   5.183
 9423TIP3    H128146   6.036   3.539   5.146
 9423TIP3    H228147   5.935   3.497   5.251
 9424TIP3   OH228148   5.074   4.754   3.239
 9424TIP3    H128149   5.074   4.781   3.332
 9424TIP3    H228150   5.163   4.713   3.228
 9425TIP3   OH228151   6.777   3.623   4.975
 9425TIP3    H128152   6.804   3.596   5.065
 9425TIP3    H228153   6.863   3.628   4.928
 9426TIP3   OH228154   7.982   4.555   3.223
 9426TIP3    H128155   7.950   4.647   3.213
 9426TIP3    H228156   7.905   4.504   3.193
 9427TIP3   OH228157   7.976   4.550   3.609
 9427TIP3    H128158   8.012   4.529   3.697
 9427TIP3    H228159   7.935   4.466   3.583
 9428TIP3   OH228160   7.282   4.447   3.972
 9428TIP3    H128161   7.315   4.382   4.037
 9428TIP3    H228162   7.351   4.514   3.975
 9429TIP3   OH228163   7.247   4.856   3.692
 9429TIP3    H128164   7.238   4.758   3.698
 9429TIP3    H228165   7.341   4.866   3.714
 9430TIP3   OH228166   6.957   4.059   3.486
 9430TIP3    H128167   6.911   4.144   3.501
 9430TIP3    H228168   6.886   4.008   3.443
 9431TIP3   OH228169   7.016   4.347   3.654
 9431TIP3    H128170   7.067   4.272   3.693
 9431TIP3    H228171   7.079   4.383   3.590
 9432TIP3   OH228172   7.876   5.286   3.295
 9432TIP3    H128173   7.955   5.240   3.325
 9432TIP3    H228174   7.838   5.314   3.380
 9433TIP3   OH228175   7.780   4.776   3.654
 9433TIP3    H128176   7.823   4.698   3.614
 9433TIP3    H228177   7.861   4.823   3.682
 9434TIP3   OH228178   8.789   4.100   3.655
 9434TIP3    H128179   8.818   4.180   3.702
 9434TIP3    H228180   8.816   4.122   3.564
 9435TIP3   OH228181   8.191   4.280   3.690
 9435TIP3    H128182   8.234   4.194   3.711
 9435TIP3    H228183   8.160   4.264   3.599
 9436TIP3   OH228184   7.529   3.939   3.656
 9436TIP3    H128185   7.509   4.012   3.594
 9436TIP3    H228186   7.481   3.866   3.612
 9437TIP3   OH228187   8.223   4.029   3.279
 9437TIP3    H128188   8.296   4.015   3.344
 9437TIP3    H228189   8.274   4.067   3.205
 9438TIP3   OH228190   7.162   4.140   3.764
 9438TIP3    H128191   7.246   4.123   3.811
 9438TIP3    H228192   7.175   4.086   3.684
 9439TIP3   OH228193   7.605   4.339   3.551
 9439TIP3    H128194   7.698   4.313   3.568
 9439TIP3    H228195   7.565   4.255   3.522
 9440TIP3   OH228196   8.862   4.303   3.828
 9440TIP3    H128197   8.779   4.354   3.811
 9440TIP3    H228198   8.888   4.338   3.915
 9441TIP3   OH228199   7.525   3.922   4.091
 9441TIP3    H128200   7.467   3.960   4.022
 9441TIP3    H228201   7.473   3.943   4.171
 9442TIP3   OH228202   7.900   4.803   3.099
 9442TIP3    H128203   7.855   4.759   3.025
 9442TIP3    H228204   7.840   4.879   3.115
 9443TIP3   OH228205   7.626   4.700   3.889
 9443TIP3    H128206   7.559   4.762   3.928
 9443TIP3    H228207   7.670   4.757   3.824
 9444TIP3   OH228208   8.436   4.033   3.450
 9444TIP3    H128209   8.421   3.987   3.534
 9444TIP3    H228210   8.487   4.110   3.478
 9445TIP3   OH228211   7.396   4.037   3.875
 9445TIP3    H128212   7.457   4.112   3.897
 9445TIP3    H228213   7.446   3.997   3.800
 9446TIP3   OH228214   7.439   4.885   3.984
 9446TIP3    H128215   7.460   4.979   3.973
 9446TIP3    H228216   7.396   4.888   4.071
 9447TIP3   OH228217   6.856   4.582   3.219
 9447TIP3    H128218   6.814   4.608   3.136
 9447TIP3    H228219   6.885   4.668   3.256
 9448TIP3   OH228220   8.288   5.101   3.435
 9448TIP3    H128221   8.207   5.088   3.489
 9448TIP3    H228222   8.285   5.197   3.417
 9449TIP3   OH228223   8.586   3.994   3.819
 9449TIP3    H128224   8.499   4.029   3.793
 9449TIP3    H228225   8.645   4.029   3.750
 9450TIP3   OH228226   7.883   3.643   3.803
 9450TIP3    H128227   7.870   3.547   3.820
 9450TIP3    H228228   7.805   3.680   3.850
 9451TIP3   OH228229   8.519   5.011   3.804
 9451TIP3    H128230   8.510   4.934   3.744
 9451TIP3    H228231   8.504   5.086   3.743
 9452TIP3   OH228232   7.812   4.406   3.059
 9452TIP3    H128233   7.729   4.453   3.036
 9452TIP3    H228234   7.856   4.399   2.973
 9453TIP3   OH228235   7.771   4.187   2.779
 9453TIP3    H128236   7.841   4.238   2.824
 9453TIP3    H228237   7.827   4.124   2.729
 9454TIP3   OH228238   8.715   4.643   3.644
 9454TIP3    H128239   8.634   4.698   3.652
 9454TIP3    H228240   8.745   4.670   3.555
 9455TIP3   OH228241   8.161   4.490   3.028
 9455TIP3    H128242   8.105   4.512   3.107
 9455TIP3    H228243   8.243   4.460   3.073
 9456TIP3   OH228244   8.394   4.525   3.944
 9456TIP3    H128245   8.394   4.609   3.995
 9456TIP3    H228246   8.309   4.534   3.896
 9457TIP3   OH228247   7.394   4.485   3.446
 9457TIP3    H128248   7.351   4.427   3.379
 9457TIP3    H228249   7.470   4.431   3.475
 9458TIP3   OH228250   7.531   4.906   3.590
 9458TIP3    H128251   7.501   4.850   3.517
 9458TIP3    H228252   7.617   4.866   3.613
 9459TIP3   OH228253   7.533   4.456   3.800
 9459TIP3    H128254   7.566   4.440   3.710
 9459TIP3    H228255   7.571   4.543   3.823
 9460TIP3   OH228256   8.055   5.091   3.571
 9460TIP3    H128257   8.039   5.173   3.623
 9460TIP3    H228258   8.040   5.021   3.638
 9461TIP3   OH228259   8.001   4.344   2.859
 9461TIP3    H128260   8.060   4.404   2.909
 9461TIP3    H228261   8.026   4.367   2.766
 9462TIP3   OH228262   7.418   4.561   4.226
 9462TIP3    H128263   7.429   4.649   4.271
 9462TIP3    H228264   7.321   4.554   4.232
 9463TIP3   OH228265   7.777   5.055   3.126
 9463TIP3    H128266   7.775   5.125   3.193
 9463TIP3    H228267   7.695   5.073   3.077
 9464TIP3   OH228268   8.510   3.579   2.907
 9464TIP3    H128269   8.431   3.592   2.963
 9464TIP3    H228270   8.524   3.668   2.872
 9465TIP3   OH228271   7.259   4.327   3.252
 9465TIP3    H128272   7.193   4.374   3.196
 9465TIP3    H228273   7.215   4.242   3.265
 9466TIP3   OH228274   8.316   4.958   2.463
 9466TIP3    H128275   8.324   5.053   2.438
 9466TIP3    H228276   8.407   4.926   2.445
 9467TIP3   OH228277   7.031   4.710   4.159
 9467TIP3    H128278   6.972   4.680   4.088
 9467TIP3    H228279   7.079   4.630   4.186
 9468TIP3   OH228280   6.894   4.903   3.793
 9468TIP3    H128281   6.990   4.899   3.784
 9468TIP3    H228282   6.885   4.983   3.848
 9469TIP3   OH228283   8.758   5.354   3.848
 9469TIP3    H128284   8.757   5.258   3.867
 9469TIP3    H228285   8.676   5.381   3.894
 9470TIP3   OH228286   7.858   5.138   4.001
 9470TIP3    H128287   7.873   5.233   4.021
 9470TIP3    H228288   7.760   5.142   4.008
 9471TIP3   OH228289   7.625   5.273   2.932
 9471TIP3    H128290   7.576   5.253   2.851
 9471TIP3    H228291   7.590   5.360   2.957
 9472TIP3   OH228292   7.062   5.119   3.317
 9472TIP3    H128293   7.110   5.111   3.402
 9472TIP3    H228294   7.001   5.044   3.323
 9473TIP3   OH228295   7.827   5.172   2.575
 9473TIP3    H128296   7.884   5.102   2.537
 9473TIP3    H228297   7.862   5.179   2.666
 9474TIP3   OH228298   7.877   5.224   2.846
 9474TIP3    H128299   7.784   5.234   2.880
 9474TIP3    H228300   7.920   5.189   2.925
 9475TIP3   OH228301   8.648   4.486   4.125
 9475TIP3    H128302   8.568   4.500   4.073
 9475TIP3    H228303   8.663   4.390   4.114
 9476TIP3   OH228304   7.643   3.717   3.933
 9476TIP3    H128305   7.554   3.687   3.907
 9476TIP3    H228306   7.620   3.801   3.977
 9477TIP3   OH228307   8.177   3.832   4.127
 9477TIP3    H128308   8.246   3.806   4.192
 9477TIP3    H228309   8.094   3.812   4.174
 9478TIP3   OH228310   8.414   4.261   4.042
 9478TIP3    H128311   8.368   4.258   4.129
 9478TIP3    H228312   8.392   4.350   4.009
 9479TIP3   OH228313   8.082   4.397   2.607
 9479TIP3    H128314   8.042   4.371   2.521
 9479TIP3    H228315   8.163   4.441   2.577
 9480TIP3   OH228316   7.790   3.764   2.903
 9480TIP3    H128317   7.756   3.764   2.995
 9480TIP3    H228318   7.749   3.682   2.870
 9481TIP3   OH228319   7.574   4.232   3.950
 9481TIP3    H128320   7.524   4.255   4.031
 9481TIP3    H228321   7.559   4.314   3.897
 9482TIP3   OH228322   7.459   4.118   3.465
 9482TIP3    H128323   7.366   4.093   3.482
 9482TIP3    H228324   7.472   4.078   3.376
 9483TIP3   OH228325   7.949   4.206   3.192
 9483TIP3    H128326   7.896   4.277   3.150
 9483TIP3    H228327   8.003   4.175   3.117
 9484TIP3   OH228328   8.124   4.481   4.276
 9484TIP3    H128329   8.103   4.410   4.340
 9484TIP3    H228330   8.217   4.500   4.299
 9485TIP3   OH228331   8.106   4.232   3.432
 9485TIP3    H128332   8.046   4.262   3.361
 9485TIP3    H228333   8.139   4.151   3.390
 9486TIP3   OH228334   7.394   4.263   4.160
 9486TIP3    H128335   7.418   4.332   4.224
 9486TIP3    H228336   7.385   4.184   4.216
 9487TIP3   OH228337   7.445   3.740   2.870
 9487TIP3    H128338   7.435   3.737   2.967
 9487TIP3    H228339   7.366   3.792   2.845
 9488TIP3   OH228340   6.986   3.782   3.743
 9488TIP3    H128341   7.062   3.817   3.795
 9488TIP3    H228342   7.027   3.755   3.660
 9489TIP3   OH228343   6.959   3.766   3.260
 9489TIP3    H128344   7.004   3.805   3.181
 9489TIP3    H228345   6.899   3.839   3.282
 9490TIP3   OH228346   8.111   4.480   3.853
 9490TIP3    H128347   8.148   4.409   3.796
 9490TIP3    H228348   8.086   4.428   3.932
 9491TIP3   OH228349   7.785   3.941   3.526
 9491TIP3    H128350   7.704   3.940   3.580
 9491TIP3    H228351   7.854   3.942   3.595
 9492TIP3   OH228352   7.220   3.997   3.535
 9492TIP3    H128353   7.125   4.004   3.508
 9492TIP3    H228354   7.244   3.907   3.510
 9493TIP3   OH228355   7.490   3.992   3.222
 9493TIP3    H128356   7.584   4.010   3.201
 9493TIP3    H228357   7.443   4.017   3.140
 9494TIP3   OH228358   8.277   4.016   3.725
 9494TIP3    H128359   8.246   4.029   3.818
 9494TIP3    H228360   8.209   3.956   3.691
 9495TIP3   OH228361   7.331   4.026   3.002
 9495TIP3    H128362   7.260   3.981   2.953
 9495TIP3    H228363   7.384   4.063   2.927
 9496TIP3   OH228364   8.448   5.705   3.947
 9496TIP3    H128365   8.447   5.731   3.854
 9496TIP3    H228366   8.528   5.751   3.980
 9497TIP3   OH228367   7.421   4.790   4.377
 9497TIP3    H128368   7.490   4.844   4.419
 9497TIP3    H228369   7.341   4.826   4.420
 9498TIP3   OH228370   7.870   4.269   3.622
 9498TIP3    H128371   7.944   4.230   3.573
 9498TIP3    H228372   7.880   4.230   3.711
 9499TIP3   OH228373   7.392   3.757   3.502
 9499TIP3    H128374   7.360   3.677   3.547
 9499TIP3    H228375   7.442   3.721   3.427
 9500TIP3   OH228376   7.845   4.164   3.918
 9500TIP3    H128377   7.757   4.204   3.929
 9500TIP3    H228378   7.904   4.226   3.965
 9501TIP3   OH228379   7.583   4.557   3.009
 9501TIP3    H128380   7.511   4.492   2.997
 9501TIP3    H228381   7.564   4.590   3.100
 9502TIP3   OH228382   8.486   4.794   3.638
 9502TIP3    H128383   8.507   4.841   3.555
 9502TIP3    H228384   8.399   4.751   3.617
 9503TIP3   OH228385   8.042   3.868   2.874
 9503TIP3    H128386   7.945   3.851   2.879
 9503TIP3    H228387   8.048   3.964   2.893
 9504TIP3   OH228388   7.976   4.880   4.006
 9504TIP3    H128389   8.008   4.866   4.096
 9504TIP3    H228390   7.935   4.969   4.013
 9505TIP3   OH228391   8.110   4.117   2.974
 9505TIP3    H128392   8.207   4.125   2.989
 9505TIP3    H228393   8.090   4.195   2.920
 9506TIP3   OH228394   7.272   4.574   3.685
 9506TIP3    H128395   7.315   4.548   3.601
 9506TIP3    H228396   7.315   4.515   3.749
 9507TIP3   OH228397   7.729   4.708   2.832
 9507TIP3    H128398   7.682   4.794   2.839
 9507TIP3    H228399   7.674   4.652   2.891
 9508TIP3   OH228400   7.152   4.500   4.300
 9508TIP3    H128401   7.176   4.485   4.393
 9508TIP3    H228402   7.084   4.433   4.284
 9509TIP3   OH228403   7.882   4.608   4.323
 9509TIP3    H128404   7.823   4.555   4.267
 9509TIP3    H228405   7.970   4.580   4.291
 9510TIP3   OH228406   8.140   5.132   3.902
 9510TIP3    H128407   8.044   5.132   3.919
 9510TIP3    H228408   8.170   5.184   3.979
 9511TIP3   OH228409   8.551   4.202   2.814
 9511TIP3    H128410   8.497   4.155   2.747
 9511TIP3    H228411   8.555   4.289   2.769
 9512TIP3   OH228412   8.769   5.061   3.894
 9512TIP3    H128413   8.671   5.058   3.885
 9512TIP3    H228414   8.795   5.034   3.803
 9513TIP3   OH228415   8.248   5.006   2.728
 9513TIP3    H128416   8.228   4.916   2.754
 9513TIP3    H228417   8.269   4.993   2.633
 9514TIP3   OH228418   8.254   4.649   3.571
 9514TIP3    H128419   8.158   4.630   3.575
 9514TIP3    H228420   8.285   4.574   3.517
 9515TIP3   OH228421   7.374   4.881   3.301
 9515TIP3    H128422   7.369   4.966   3.253
 9515TIP3    H228423   7.281   4.867   3.324
 9516TIP3   OH228424   6.940   4.187   3.013
 9516TIP3    H128425   6.985   4.272   3.033
 9516TIP3    H228426   6.862   4.194   3.073
 9517TIP3   OH228427   7.519   4.651   3.255
 9517TIP3    H128428   7.477   4.739   3.271
 9517TIP3    H228429   7.481   4.600   3.329
 9518TIP3   OH228430   7.297   5.121   3.163
 9518TIP3    H128431   7.210   5.129   3.207
 9518TIP3    H228432   7.328   5.214   3.166
 9519TIP3   OH228433   8.033   4.861   3.737
 9519TIP3    H128434   8.021   4.864   3.834
 9519TIP3    H228435   8.116   4.812   3.731
 9520TIP3   OH228436   8.008   4.755   2.621
 9520TIP3    H128437   8.059   4.730   2.701
 9520TIP3    H228438   7.919   4.724   2.645
 9521TIP3   OH228439   8.283   5.391   3.786
 9521TIP3    H128440   8.202   5.337   3.780
 9521TIP3    H228441   8.267   5.458   3.716
 9522TIP3   OH228442   8.346   5.231   2.441
 9522TIP3    H128443   8.386   5.300   2.386
 9522TIP3    H228444   8.266   5.279   2.471
 9523TIP3   OH228445   7.368   4.004   4.308
 9523TIP3    H128446   7.272   4.010   4.321
 9523TIP3    H228447   7.395   3.945   4.380
 9524TIP3   OH228448   8.175   4.702   2.840
 9524TIP3    H128449   8.158   4.632   2.907
 9524TIP3    H228450   8.270   4.687   2.824
 9525TIP3   OH228451   7.083   5.087   3.943
 9525TIP3    H128452   7.129   5.008   3.974
 9525TIP3    H228453   7.103   5.147   4.015
 9526TIP3   OH228454   7.376   4.733   2.619
 9526TIP3    H128455   7.387   4.641   2.589
 9526TIP3    H228456   7.355   4.721   2.714
 9527TIP3   OH228457   7.321   4.739   2.890
 9527TIP3    H128458   7.387   4.712   2.955
 9527TIP3    H228459   7.322   4.837   2.898
 9528TIP3   OH228460   7.055   4.433   3.095
 9528TIP3    H128461   6.989   4.477   3.152
 9528TIP3    H228462   7.068   4.502   3.028
 9529TIP3   OH228463   8.205   4.067   3.984
 9529TIP3    H128464   8.283   4.109   4.025
 9529TIP3    H228465   8.192   3.988   4.040
 9530TIP3   OH228466   8.086   3.820   3.151
 9530TIP3    H128467   8.069   3.844   3.058
 9530TIP3    H228468   8.123   3.902   3.188
 9531TIP3   OH228469   7.590   4.942   2.850
 9531TIP3    H128470   7.498   4.966   2.877
 9531TIP3    H228471   7.601   5.005   2.777
 9532TIP3   OH228472   7.774   4.000   3.254
 9532TIP3    H128473   7.839   4.072   3.237
 9532TIP3    H228474   7.778   3.993   3.352
 9533TIP3   OH228475   8.042   4.318   4.063
 9533TIP3    H128476   8.063   4.375   4.139
 9533TIP3    H228477   8.100   4.241   4.078
 9534TIP3   OH228478   7.918   3.727   3.357
 9534TIP3    H128479   7.910   3.803   3.417
 9534TIP3    H228480   7.979   3.763   3.289
 9535TIP3   OH228481   7.330   5.012   2.908
 9535TIP3    H128482   7.299   5.080   2.844
 9535TIP3    H228483   7.312   5.056   2.994
 9536TIP3   OH228484   7.429   3.724   3.147
 9536TIP3    H128485   7.426   3.816   3.182
 9536TIP3    H228486   7.525   3.707   3.154
 9537TIP3   OH228487   8.682   4.218   4.046
 9537TIP3    H128488   8.584   4.215   4.049
 9537TIP3    H228489   8.698   4.186   3.956
 9538TIP3   OH228490   8.334   4.412   3.429
 9538TIP3    H128491   8.258   4.354   3.445
 9538TIP3    H228492   8.406   4.367   3.479
 9539TIP3   OH228493   7.045   4.642   2.902
 9539TIP3    H128494   7.108   4.716   2.909
 9539TIP3    H228495   7.092   4.588   2.834
 9540TIP3   OH228496   6.991   3.917   3.035
 9540TIP3    H128497   6.991   4.015   3.031
 9540TIP3    H228498   6.909   3.895   2.989
 9541TIP3   OH228499   8.301   5.367   3.375
 9541TIP3    H128500   8.262   5.417   3.299
 9541TIP3    H228501   8.396   5.388   3.360
 9542TIP3   OH228502   7.379   3.637   3.908
 9542TIP3    H128503   7.347   3.606   3.820
 9542TIP3    H228504   7.367   3.557   3.964
 9543TIP3   OH228505   6.916   4.852   3.288
 9543TIP3    H128506   6.849   4.886   3.349
 9543TIP3    H228507   6.889   4.896   3.204
 9544TIP3   OH228508   7.539   4.938   2.535
 9544TIP3    H128509   7.482   4.865   2.570
 9544TIP3    H228510   7.612   4.886   2.496
 9545TIP3   OH228511   8.201   5.268   4.133
 9545TIP3    H128512   8.193   5.198   4.202
 9545TIP3    H228513   8.276   5.320   4.166
 9546TIP3   OH228514   7.974   4.980   2.444
 9546TIP3    H128515   8.019   4.914   2.499
 9546TIP3    H228516   8.027   4.980   2.362
 9547TIP3   OH228517   7.193   4.795   4.546
 9547TIP3    H128518   7.237   4.708   4.548
 9547TIP3    H228519   7.104   4.771   4.523
 9548TIP3   OH228520   7.182   4.456   2.752
 9548TIP3    H128521   7.237   4.422   2.825
 9548TIP3    H228522   7.248   4.459   2.680
 9549TIP3   OH228523   7.804   4.880   4.329
 9549TIP3    H128524   7.769   4.885   4.240
 9549TIP3    H228525   7.845   4.791   4.331
 9550TIP3   OH228526   7.695   4.653   2.562
 9550TIP3    H128527   7.693   4.666   2.659
 9550TIP3    H228528   7.694   4.555   2.556
 9551TIP3   OH228529   8.303   4.896   3.938
 9551TIP3    H128530   8.378   4.943   3.896
 9551TIP3    H228531   8.233   4.964   3.928
 9552TIP3   OH228532   7.320   4.525   4.549
 9552TIP3    H128533   7.404   4.496   4.512
 9552TIP3    H228534   7.348   4.566   4.633
 9553TIP3   OH228535   7.393   4.358   2.976
 9553TIP3    H128536   7.363   4.316   3.059
 9553TIP3    H228537   7.426   4.282   2.925
 9554TIP3   OH228538   7.659   4.422   4.203
 9554TIP3    H128539   7.581   4.482   4.207
 9554TIP3    H228540   7.707   4.456   4.124
 9555TIP3   OH228541   7.491   4.151   2.816
 9555TIP3    H128542   7.463   4.154   2.722
 9555TIP3    H228543   7.588   4.158   2.807
 9556TIP3   OH228544   8.168   4.817   4.335
 9556TIP3    H128545   8.255   4.810   4.294
 9556TIP3    H228546   8.175   4.754   4.409
 9557TIP3   OH228547   8.315   4.484   2.480
 9557TIP3    H128548   8.293   4.437   2.397
 9557TIP3    H228549   8.283   4.574   2.454
 9558TIP3   OH228550   7.780   4.211   4.331
 9558TIP3    H128551   7.783   4.132   4.273
 9558TIP3    H228552   7.739   4.278   4.273
 9559TIP3   OH228553   7.784   3.995   4.136
 9559TIP3    H128554   7.812   4.039   4.054
 9559TIP3    H228555   7.691   3.974   4.117
 9560TIP3   OH228556   7.810   4.533   4.009
 9560TIP3    H128557   7.894   4.544   3.962
 9560TIP3    H228558   7.754   4.601   3.967
 9561TIP3   OH228559   8.395   4.501   4.393
 9561TIP3    H128560   8.447   4.419   4.398
 9561TIP3    H228561   8.461   4.563   4.358
 9562TIP3   OH228562   8.435   4.750   4.123
 9562TIP3    H128563   8.377   4.805   4.066
 9562TIP3    H228564   8.523   4.773   4.084
 9563TIP3   OH228565   7.663   4.322   4.565
 9563TIP3    H128566   7.591   4.256   4.574
 9563TIP3    H228567   7.696   4.301   4.475
 9564TIP3   OH228568   7.917   3.762   4.205
 9564TIP3    H128569   7.869   3.844   4.180
 9564TIP3    H228570   7.847   3.694   4.191
 9565TIP3   OH228571   8.044   4.264   4.420
 9565TIP3    H128572   8.033   4.255   4.516
 9565TIP3    H228573   7.954   4.241   4.390
 9566TIP3   OH228574   8.282   4.211   4.272
 9566TIP3    H128575   8.207   4.216   4.335
 9566TIP3    H228576   8.355   4.183   4.331
 9567TIP3   OH228577   8.507   4.155   4.428
 9567TIP3    H128578   8.522   4.060   4.445
 9567TIP3    H228579   8.506   4.194   4.517
 9568TIP3   OH228580   7.496   4.103   4.614
 9568TIP3    H128581   7.508   4.015   4.575
 9568TIP3    H228582   7.533   4.090   4.703
 9569TIP3   OH228583   8.009   3.769   4.463
 9569TIP3    H128584   8.079   3.701   4.456
 9569TIP3    H228585   7.971   3.765   4.373
 9570TIP3   OH228586   8.075   3.983   4.622
 9570TIP3    H128587   8.054   3.914   4.556
 9570TIP3    H228588   7.999   4.045   4.613
 9571TIP3   OH228589   7.298   5.212   2.720
 9571TIP3    H128590   7.393   5.211   2.699
 9571TIP3    H228591   7.265   5.262   2.643
 9572TIP3   OH228592   6.777   4.595   2.937
 9572TIP3    H128593   6.872   4.617   2.924
 9572TIP3    H228594   6.772   4.507   2.895
 9573TIP3   OH228595   6.693   5.208   3.350
 9573TIP3    H128596   6.624   5.147   3.315
 9573TIP3    H228597   6.736   5.151   3.416
 9574TIP3   OH228598   6.829   5.057   3.534
 9574TIP3    H128599   6.814   4.986   3.599
 9574TIP3    H228600   6.883   5.118   3.587
 9575TIP3   OH228601   8.552   5.460   3.337
 9575TIP3    H128602   8.578   5.492   3.425
 9575TIP3    H228603   8.615   5.507   3.280
 9576TIP3   OH228604   8.584   5.480   3.618
 9576TIP3    H128605   8.544   5.390   3.618
 9576TIP3    H228606   8.660   5.464   3.676
 9577TIP3   OH228607   8.632   5.157   4.191
 9577TIP3    H128608   8.559   5.166   4.255
 9577TIP3    H228609   8.674   5.245   4.196
 9578TIP3   OH228610   8.449   4.672   2.813
 9578TIP3    H128611   8.519   4.733   2.782
 9578TIP3    H228612   8.494   4.630   2.890
 9579TIP3   OH228613   8.575   4.538   3.015
 9579TIP3    H128614   8.512   4.494   3.076
 9579TIP3    H228615   8.643   4.573   3.076
 9580TIP3   OH228616   8.623   4.927   3.439
 9580TIP3    H128617   8.685   4.866   3.395
 9580TIP3    H228618   8.626   5.006   3.382
 9581TIP3   OH228619   8.459   5.227   3.641
 9581TIP3    H128620   8.392   5.272   3.696
 9581TIP3    H228621   8.407   5.181   3.574
 9582TIP3   OH228622   8.513   4.443   2.666
 9582TIP3    H128623   8.444   4.448   2.596
 9582TIP3    H228624   8.487   4.520   2.719
 9583TIP3   OH228625   8.399   4.106   2.608
 9583TIP3    H128626   8.355   4.161   2.542
 9583TIP3    H228627   8.354   4.020   2.596
 9584TIP3   OH228628   8.388   4.393   3.160
 9584TIP3    H128629   8.398   4.296   3.157
 9584TIP3    H228630   8.374   4.408   3.256
 9585TIP3   OH228631   7.016   4.462   3.910
 9585TIP3    H128632   7.014   4.436   3.816
 9585TIP3    H228633   7.113   4.467   3.925
 9586TIP3   OH228634   8.677   4.818   4.017
 9586TIP3    H128635   8.750   4.753   4.009
 9586TIP3    H228636   8.707   4.891   3.961
 9587TIP3   OH228637   8.862   4.624   4.034
 9587TIP3    H128638   8.789   4.574   4.075
 9587TIP3    H228639   8.936   4.561   4.048
 9588TIP3   OH228640   8.336   3.835   2.612
 9588TIP3    H128641   8.361   3.795   2.696
 9588TIP3    H228642   8.245   3.800   2.601
 9589TIP3   OH228643   8.386   4.109   3.057
 9589TIP3    H128644   8.428   4.022   3.072
 9589TIP3    H228645   8.444   4.145   2.987
 9590TIP3   OH228646   8.546   4.284   3.551
 9590TIP3    H128647   8.632   4.311   3.512
 9590TIP3    H228648   8.558   4.321   3.641
 9591TIP3   OH228649   8.613   4.427   3.784
 9591TIP3    H128650   8.536   4.462   3.833
 9591TIP3    H228651   8.646   4.508   3.739
 9592TIP3   OH228652   7.227   4.152   4.578
 9592TIP3    H128653   7.325   4.150   4.581
 9592TIP3    H228654   7.206   4.069   4.624
 9593TIP3   OH228655   9.067   4.017   4.341
 9593TIP3    H128656   9.124   3.951   4.298
 9593TIP3    H228657   9.039   4.073   4.266
 9594TIP3   OH228658   8.499   3.855   3.090
 9594TIP3    H128659   8.542   3.844   3.177
 9594TIP3    H228660   8.433   3.782   3.094
 9595TIP3   OH228661   7.194   3.846   3.917
 9595TIP3    H128662   7.258   3.772   3.925
 9595TIP3    H228663   7.254   3.922   3.909
 9596TIP3   OH228664   6.997   4.119   3.989
 9596TIP3    H128665   7.047   4.115   3.905
 9596TIP3    H228666   7.019   4.209   4.018
 9597TIP3   OH228667   8.938   4.158   4.149
 9597TIP3    H128668   8.851   4.198   4.169
 9597TIP3    H228669   8.910   4.088   4.087
 9598TIP3   OH228670   6.980   3.623   3.488
 9598TIP3    H128671   6.886   3.622   3.513
 9598TIP3    H228672   6.979   3.681   3.409
 9599TIP3   OH228673   8.162   5.257   3.021
 9599TIP3    H128674   8.194   5.279   2.930
 9599TIP3    H228675   8.175   5.346   3.063
 9600TIP3   OH228676   7.197   3.695   4.302
 9600TIP3    H128677   7.149   3.702   4.386
 9600TIP3    H228678   7.134   3.740   4.241
 9601TIP3   OH228679   7.883   5.404   4.061
 9601TIP3    H128680   7.915   5.408   4.154
 9601TIP3    H228681   7.946   5.462   4.014
 9602TIP3   OH228682   8.052   5.563   3.917
 9602TIP3    H128683   8.125   5.508   3.889
 9602TIP3    H228684   8.097   5.623   3.981
 9603TIP3   OH228685   8.837   3.922   4.024
 9603TIP3    H128686   8.746   3.916   3.990
 9603TIP3    H228687   8.869   3.829   4.011
 9604TIP3   OH228688   7.060   5.401   3.921
 9604TIP3    H128689   6.980   5.456   3.931
 9604TIP3    H228690   7.103   5.407   4.006
 9605TIP3   OH228691   7.777   5.447   3.565
 9605TIP3    H128692   7.685   5.459   3.535
 9605TIP3    H228693   7.783   5.517   3.633
 9606TIP3   OH228694   8.030   5.363   3.644
 9606TIP3    H128695   7.935   5.382   3.631
 9606TIP3    H228696   8.069   5.449   3.623
 9607TIP3   OH228697   8.235   5.560   3.573
 9607TIP3    H128698   8.219   5.646   3.528
 9607TIP3    H228699   8.259   5.502   3.498
 9608TIP3   OH228700   7.000   5.210   3.692
 9608TIP3    H128701   7.034   5.206   3.784
 9608TIP3    H228702   7.076   5.168   3.645
 9609TIP3   OH228703   7.200   5.085   3.549
 9609TIP3    H128704   7.214   5.001   3.598
 9609TIP3    H228705   7.291   5.121   3.546
 9610TIP3   OH228706   7.467   5.178   3.551
 9610TIP3    H128707   7.498   5.085   3.549
 9610TIP3    H228708   7.496   5.205   3.639
 9611TIP3   OH228709   8.042   3.836   3.641
 9611TIP3    H128710   7.999   3.767   3.694
 9611TIP3    H228711   8.115   3.788   3.598
 9612TIP3   OH228712   8.564   3.713   3.546
 9612TIP3    H128713   8.601   3.768   3.473
 9612TIP3    H228714   8.470   3.735   3.543
 9613TIP3   OH228715   8.659   3.819   3.311
 9613TIP3    H128716   8.733   3.765   3.277
 9613TIP3    H228717   8.695   3.909   3.296
 9614TIP3   OH228718   7.290   3.545   3.660
 9614TIP3    H128719   7.198   3.512   3.659
 9614TIP3    H228720   7.340   3.461   3.656
 9615TIP3   OH228721   7.079   3.414   3.308
 9615TIP3    H128722   7.108   3.471   3.234
 9615TIP3    H228723   7.048   3.480   3.373
 9616TIP3   OH228724   7.734   3.578   3.540
 9616TIP3    H128725   7.792   3.627   3.480
 9616TIP3    H228726   7.757   3.616   3.625
 9617TIP3   OH228727   8.281   3.724   3.524
 9617TIP3    H128728   8.279   3.686   3.435
 9617TIP3    H228729   8.268   3.643   3.580
 9618TIP3   OH228730   8.311   3.647   3.086
 9618TIP3    H128731   8.224   3.690   3.098
 9618TIP3    H228732   8.295   3.562   3.133
 9619TIP3   OH228733   6.795   4.985   3.086
 9619TIP3    H128734   6.710   4.953   3.052
 9619TIP3    H228735   6.784   5.080   3.070
 9620TIP3   OH228736   7.194   3.573   3.072
 9620TIP3    H128737   7.242   3.511   3.014
 9620TIP3    H228738   7.267   3.628   3.107
 9621TIP3   OH228739   7.706   3.749   3.169
 9621TIP3    H128740   7.767   3.703   3.229
 9621TIP3    H228741   7.727   3.842   3.194
 9622TIP3   OH228742   7.566   5.174   2.669
 9622TIP3    H128743   7.653   5.199   2.630
 9622TIP3    H228744   7.543   5.100   2.609
 9623TIP3   OH228745   8.276   5.286   2.766
 9623TIP3    H128746   8.271   5.190   2.744
 9623TIP3    H228747   8.239   5.326   2.684
 9624TIP3   OH228748   7.498   3.822   4.546
 9624TIP3    H128749   7.466   3.755   4.609
 9624TIP3    H228750   7.593   3.826   4.573
 9625TIP3   OH228751   7.746   3.823   4.668
 9625TIP3    H128752   7.832   3.803   4.627
 9625TIP3    H228753   7.739   3.751   4.733
 9626TIP3   OH228754   6.870   5.010   2.725
 9626TIP3    H128755   6.869   5.038   2.818
 9626TIP3    H228756   6.959   4.970   2.716
 9627TIP3   OH228757   8.572   3.885   4.457
 9627TIP3    H128758   8.593   3.853   4.548
 9627TIP3    H228759   8.660   3.881   4.414
 9628TIP3   OH228760   8.513   5.437   3.947
 9628TIP3    H128761   8.432   5.406   3.902
 9628TIP3    H228762   8.494   5.533   3.953
 9629TIP3   OH228763   9.075   4.703   3.462
 9629TIP3    H128764   9.107   4.635   3.524
 9629TIP3    H228765   9.151   4.764   3.463
 9630TIP3   OH228766   9.037   5.112   3.190
 9630TIP3    H128767   9.034   5.014   3.193
 9630TIP3    H228768   9.133   5.127   3.178
 9631TIP3   OH228769   8.751   4.311   2.970
 9631TIP3    H128770   8.707   4.396   2.987
 9631TIP3    H228771   8.680   4.262   2.925
 9632TIP3   OH228772   8.812   4.603   3.141
 9632TIP3    H128773   8.862   4.529   3.180
 9632TIP3    H228774   8.876   4.640   3.079
 9633TIP3   OH228775   9.555   5.516   2.817
 9633TIP3    H128776   9.638   5.529   2.766
 9633TIP3    H228777   9.589   5.519   2.907
 9634TIP3   OH228778   9.525   5.049   3.139
 9634TIP3    H128779   9.538   4.989   3.063
 9634TIP3    H228780   9.619   5.057   3.168
 9635TIP3   OH228781   9.304   4.198   3.154
 9635TIP3    H128782   9.311   4.264   3.083
 9635TIP3    H228783   9.274   4.120   3.103
 9636TIP3   OH228784   8.958   4.400   3.250
 9636TIP3    H128785   9.039   4.380   3.300
 9636TIP3    H228786   8.975   4.346   3.170
 9637TIP3   OH228787   9.363   4.614   3.027
 9637TIP3    H128788   9.457   4.592   3.045
 9637TIP3    H228789   9.329   4.526   3.001
 9638TIP3   OH228790   9.316   4.177   3.581
 9638TIP3    H128791   9.258   4.215   3.513
 9638TIP3    H228792   9.265   4.198   3.662
 9639TIP3   OH228793   9.399   4.961   3.364
 9639TIP3    H128794   9.344   5.031   3.407
 9639TIP3    H228795   9.445   5.013   3.294
 9640TIP3   OH228796   9.183   4.296   3.370
 9640TIP3    H128797   9.247   4.367   3.390
 9640TIP3    H228798   9.229   4.253   3.294
 9641TIP3   OH228799   9.249   5.157   3.471
 9641TIP3    H128800   9.225   5.245   3.436
 9641TIP3    H228801   9.171   5.141   3.529
 9642TIP3   OH228802   8.649   4.838   2.707
 9642TIP3    H128803   8.611   4.864   2.620
 9642TIP3    H228804   8.680   4.925   2.742
 9643TIP3   OH228805   9.163   4.758   2.920
 9643TIP3    H128806   9.126   4.696   2.853
 9643TIP3    H228807   9.239   4.706   2.954
 9644TIP3   OH228808   9.287   5.166   3.074
 9644TIP3    H128809   9.274   5.123   2.988
 9644TIP3    H228810   9.374   5.131   3.102
 9645TIP3   OH228811   9.324   4.710   3.289
 9645TIP3    H128812   9.348   4.699   3.195
 9645TIP3    H228813   9.357   4.800   3.310
 9646TIP3   OH228814   9.459   5.269   3.617
 9646TIP3    H128815   9.400   5.332   3.663
 9646TIP3    H228816   9.393   5.217   3.566
 9647TIP3   OH228817   9.211   4.829   3.714
 9647TIP3    H128818   9.216   4.916   3.758
 9647TIP3    H228819   9.116   4.809   3.727
 9648TIP3   OH228820   9.512   5.311   2.642
 9648TIP3    H128821   9.517   5.377   2.714
 9648TIP3    H228822   9.453   5.357   2.580
 9649TIP3   OH228823   9.256   5.435   3.699
 9649TIP3    H128824   9.218   5.436   3.609
 9649TIP3    H228825   9.177   5.416   3.755
 9650TIP3   OH228826   9.054   4.580   2.731
 9650TIP3    H128827   8.987   4.627   2.677
 9650TIP3    H228828   9.008   4.498   2.752
 9651TIP3   OH228829   8.834   4.966   3.648
 9651TIP3    H128830   8.771   4.939   3.578
 9651TIP3    H228831   8.873   4.880   3.676
 9652TIP3   OH228832   8.690   5.160   3.279
 9652TIP3    H128833   8.786   5.154   3.271
 9652TIP3    H228834   8.681   5.239   3.335
 9653TIP3   OH228835   9.640   5.402   3.461
 9653TIP3    H128836   9.652   5.491   3.499
 9653TIP3    H228837   9.576   5.362   3.524
 9654TIP3   OH228838   9.404   5.521   2.433
 9654TIP3    H128839   9.376   5.512   2.340
 9654TIP3    H228840   9.389   5.616   2.450
 9655TIP3   OH228841   8.857   5.376   2.805
 9655TIP3    H128842   8.908   5.368   2.889
 9655TIP3    H228843   8.797   5.300   2.815
 9656TIP3   OH228844   9.037   5.151   3.638
 9656TIP3    H128845   9.087   5.138   3.721
 9656TIP3    H228846   8.964   5.087   3.647
 9657TIP3   OH228847   9.426   3.970   3.433
 9657TIP3    H128848   9.337   3.945   3.403
 9657TIP3    H228849   9.407   4.054   3.476
 9658TIP3   OH228850   9.373   4.481   3.429
 9658TIP3    H128851   9.329   4.504   3.514
 9658TIP3    H228852   9.362   4.565   3.380
 9659TIP3   OH228853   9.254   4.374   2.949
 9659TIP3    H128854   9.164   4.345   2.974
 9659TIP3    H228855   9.258   4.341   2.856
 9660TIP3   OH228856   9.187   4.514   3.645
 9660TIP3    H128857   9.223   4.576   3.711
 9660TIP3    H228858   9.177   4.433   3.697
 9661TIP3   OH228859   9.229   4.023   2.366
 9661TIP3    H128860   9.201   3.976   2.446
 9661TIP3    H228861   9.149   4.022   2.311
 9662TIP3   OH228862   8.793   4.035   3.219
 9662TIP3    H128863   8.849   4.077   3.288
 9662TIP3    H228864   8.860   4.009   3.155
 9663TIP3   OH228865   9.016   4.258   3.021
 9663TIP3    H128866   8.921   4.260   2.996
 9663TIP3    H228867   9.044   4.167   3.001
 9664TIP3   OH228868   9.263   4.276   2.691
 9664TIP3    H128869   9.338   4.295   2.634
 9664TIP3    H228870   9.190   4.284   2.625
 9665TIP3   OH228871   9.101   4.284   2.478
 9665TIP3    H128872   9.042   4.236   2.416
 9665TIP3    H228873   9.170   4.315   2.415
 9666TIP3   OH228874   9.202   5.071   3.857
 9666TIP3    H128875   9.281   5.104   3.905
 9666TIP3    H228876   9.136   5.074   3.929
 9667TIP3   OH228877   9.178   4.016   2.981
 9667TIP3    H128878   9.151   3.937   3.032
 9667TIP3    H228879   9.242   3.980   2.918
 9668TIP3   OH228880   9.350   4.822   2.490
 9668TIP3    H128881   9.285   4.750   2.496
 9668TIP3    H228882   9.364   4.849   2.582
 9669TIP3   OH228883   9.728   5.133   3.514
 9669TIP3    H128884   9.768   5.121   3.601
 9669TIP3    H228885   9.706   5.228   3.513
 9670TIP3   OH228886   9.065   4.833   3.174
 9670TIP3    H128887   9.101   4.810   3.086
 9670TIP3    H228888   9.112   4.771   3.233
 9671TIP3   OH228889   8.951   4.757   3.786
 9671TIP3    H128890   8.977   4.745   3.879
 9671TIP3    H228891   8.884   4.688   3.775
 9672TIP3   OH228892   9.639   4.832   3.830
 9672TIP3    H128893   9.559   4.790   3.793
 9672TIP3    H228894   9.707   4.771   3.796
 9673TIP3   OH228895   9.173   5.137   2.793
 9673TIP3    H128896   9.177   5.219   2.739
 9673TIP3    H228897   9.077   5.126   2.802
 9674TIP3   OH228898   8.730   4.452   2.493
 9674TIP3    H128899   8.779   4.532   2.520
 9674TIP3    H228900   8.658   4.450   2.560
 9675TIP3   OH228901   9.338   4.916   2.764
 9675TIP3    H128902   9.288   5.001   2.760
 9675TIP3    H228903   9.279   4.863   2.820
 9676TIP3   OH228904   9.441   5.479   3.264
 9676TIP3    H128905   9.480   5.554   3.216
 9676TIP3    H228906   9.517   5.450   3.319
 9677TIP3   OH228907   9.093   5.378   2.650
 9677TIP3    H128908   9.007   5.389   2.695
 9677TIP3    H228909   9.126   5.471   2.652
 9678TIP3   OH228910   9.163   4.261   3.798
 9678TIP3    H128911   9.067   4.265   3.811
 9678TIP3    H228912   9.191   4.197   3.867
 9679TIP3   OH228913   8.878   5.345   3.425
 9679TIP3    H128914   8.933   5.274   3.461
 9679TIP3    H228915   8.902   5.419   3.482
 9680TIP3   OH228916   9.174   4.988   2.105
 9680TIP3    H128917   9.191   4.896   2.081
 9680TIP3    H228918   9.158   4.981   2.202
 9681TIP3   OH228919   9.120   4.992   2.378
 9681TIP3    H128920   9.205   4.964   2.418
 9681TIP3    H228921   9.123   5.090   2.390
 9682TIP3   OH228922   8.851   4.692   2.584
 9682TIP3    H128923   8.785   4.737   2.640
 9682TIP3    H228924   8.867   4.760   2.516
 9683TIP3   OH228925   9.369   5.215   2.328
 9683TIP3    H128926   9.281   5.233   2.365
 9683TIP3    H228927   9.389   5.300   2.286
 9684TIP3   OH228928   9.107   5.268   2.395
 9684TIP3    H128929   9.084   5.340   2.332
 9684TIP3    H228930   9.099   5.314   2.482
 9685TIP3   OH228931   9.243   3.989   2.650
 9685TIP3    H128932   9.205   4.071   2.687
 9685TIP3    H228933   9.319   4.026   2.601
 9686TIP3   OH228934   8.842   4.902   2.391
 9686TIP3    H128935   8.910   4.971   2.400
 9686TIP3    H228936   8.885   4.846   2.323
 9687TIP3   OH228937   9.160   3.894   3.396
 9687TIP3    H128938   9.137   3.858   3.308
 9687TIP3    H228939   9.160   3.815   3.452
 9688TIP3   OH228940   8.712   5.106   2.777
 9688TIP3    H128941   8.640   5.147   2.827
 9688TIP3    H228942   8.699   5.148   2.689
 9689TIP3   OH228943   8.873   5.656   3.845
 9689TIP3    H128944   8.957   5.659   3.896
 9689TIP3    H228945   8.853   5.561   3.848
 9690TIP3   OH228946   9.349   5.624   3.886
 9690TIP3    H128947   9.442   5.608   3.905
 9690TIP3    H228948   9.332   5.559   3.815
 9691TIP3   OH228949   9.320   5.205   2.018
 9691TIP3    H128950   9.270   5.131   2.060
 9691TIP3    H228951   9.412   5.173   2.030
 9692TIP3   OH228952   9.002   5.058   4.046
 9692TIP3    H128953   9.017   4.962   4.051
 9692TIP3    H228954   8.913   5.063   4.004
 9693TIP3   OH228955   8.974   4.713   2.245
 9693TIP3    H128956   9.032   4.683   2.318
 9693TIP3    H228957   9.040   4.721   2.173
 9694TIP3   OH228958   9.602   5.136   3.819
 9694TIP3    H128959   9.564   5.164   3.733
 9694TIP3    H228960   9.604   5.039   3.812
 9695TIP3   OH228961   9.121   4.788   4.029
 9695TIP3    H128962   9.202   4.738   4.009
 9695TIP3    H228963   9.144   4.826   4.116
 9696TIP3   OH228964   9.176   4.608   2.465
 9696TIP3    H128965   9.150   4.573   2.552
 9696TIP3    H228966   9.212   4.529   2.420
 9697TIP3   OH228967   9.428   4.673   3.704
 9697TIP3    H128968   9.352   4.734   3.708
 9697TIP3    H228969   9.474   4.710   3.625
 9698TIP3   OH228970   9.284   4.402   2.313
 9698TIP3    H128971   9.249   4.400   2.221
 9698TIP3    H228972   9.377   4.426   2.298
 9699TIP3   OH228973   9.544   4.466   3.837
 9699TIP3    H128974   9.566   4.384   3.788
 9699TIP3    H228975   9.493   4.518   3.772
 9700TIP3   OH228976   9.564   4.275   3.639
 9700TIP3    H128977   9.610   4.262   3.555
 9700TIP3    H228978   9.479   4.229   3.623
 9701TIP3   OH228979   9.553   4.796   3.509
 9701TIP3    H128980   9.623   4.774   3.444
 9701TIP3    H228981   9.508   4.871   3.465
 9702TIP3   OH228982   9.430   4.595   4.045
 9702TIP3    H128983   9.370   4.521   4.064
 9702TIP3    H228984   9.474   4.563   3.964
 9703TIP3   OH228985   9.292   4.363   4.102
 9703TIP3    H128986   9.309   4.278   4.057
 9703TIP3    H228987   9.327   4.346   4.191
 9704TIP3   OH228988   9.091   5.469   2.203
 9704TIP3    H128989   9.188   5.470   2.190
 9704TIP3    H228990   9.064   5.522   2.127
 9705TIP3   OH228991   8.573   4.852   2.426
 9705TIP3    H128992   8.668   4.875   2.411
 9705TIP3    H228993   8.568   4.764   2.382
 9706TIP3   OH228994   8.486   5.462   2.837
 9706TIP3    H128995   8.419   5.400   2.803
 9706TIP3    H228996   8.531   5.406   2.904
 9707TIP3   OH228997   8.624   5.314   3.025
 9707TIP3    H128998   8.623   5.242   3.090
 9707TIP3    H228999   8.674   5.381   3.076
 9708TIP3   OH229000   8.812   4.728   3.394
 9708TIP3    H129001   8.812   4.696   3.302
 9708TIP3    H229002   8.909   4.728   3.412
 9709TIP3   OH229003   9.024   4.408   4.064
 9709TIP3    H129004   9.122   4.405   4.069
 9709TIP3    H229005   9.003   4.324   4.111
 9710TIP3   OH229006   8.983   4.105   3.402
 9710TIP3    H129007   9.045   4.030   3.412
 9710TIP3    H229008   9.046   4.179   3.398
 9711TIP3   OH229009   8.792   4.376   3.473
 9711TIP3    H129010   8.843   4.373   3.390
 9711TIP3    H229011   8.822   4.460   3.511
 9712TIP3   OH229012   8.750   3.879   2.935
 9712TIP3    H129013   8.677   3.871   3.000
 9712TIP3    H229014   8.755   3.974   2.924
 9713TIP3   OH229015   8.991   3.959   3.787
 9713TIP3    H129016   8.944   3.957   3.872
 9713TIP3    H229017   8.924   3.999   3.729
 9714TIP3   OH229018   9.038   5.382   3.865
 9714TIP3    H129019   8.944   5.360   3.853
 9714TIP3    H229020   9.048   5.374   3.961
 9715TIP3   OH229021   9.212   5.421   3.411
 9715TIP3    H129022   9.166   5.498   3.374
 9715TIP3    H229023   9.299   5.433   3.367
 9716TIP3   OH229024   9.674   5.669   3.543
 9716TIP3    H129025   9.694   5.661   3.639
 9716TIP3    H229026   9.750   5.720   3.514
 9717TIP3   OH229027   8.891   5.673   3.438
 9717TIP3    H129028   8.801   5.708   3.416
 9717TIP3    H229029   8.905   5.717   3.524
 9718TIP3   OH229030   9.127   5.655   3.295
 9718TIP3    H129031   9.041   5.668   3.341
 9718TIP3    H229032   9.106   5.690   3.206
 9719TIP3   OH229033   9.537   5.685   3.090
 9719TIP3    H129034   9.467   5.706   3.025
 9719TIP3    H229035   9.552   5.771   3.133
 9720TIP3   OH229036   9.806   5.649   3.122
 9720TIP3    H129037   9.710   5.644   3.110
 9720TIP3    H229038   9.824   5.743   3.107
 9721TIP3   OH229039   8.801   5.469   3.181
 9721TIP3    H129040   8.827   5.445   3.272
 9721TIP3    H229041   8.874   5.427   3.131
 9722TIP3   OH229042   8.995   5.341   3.037
 9722TIP3    H129043   9.011   5.258   3.087
 9722TIP3    H229044   9.085   5.380   3.035
 9723TIP3   OH229045   9.258   5.443   3.042
 9723TIP3    H129046   9.283   5.349   3.031
 9723TIP3    H229047   9.304   5.463   3.125
 9724TIP3   OH229048   9.076   3.807   3.138
 9724TIP3    H129049   8.986   3.770   3.148
 9724TIP3    H229050   9.128   3.723   3.144
 9725TIP3   OH229051   8.867   3.664   2.803
 9725TIP3    H129052   8.927   3.718   2.750
 9725TIP3    H229053   8.826   3.732   2.861
 9726TIP3   OH229054   8.588   5.244   2.578
 9726TIP3    H129055   8.504   5.213   2.538
 9726TIP3    H229056   8.581   5.339   2.557
 9727TIP3   OH229057   9.366   5.440   2.158
 9727TIP3    H129058   9.462   5.449   2.148
 9727TIP3    H229059   9.345   5.365   2.099
 9728TIP3   OH229060   9.263   4.073   4.014
 9728TIP3    H129061   9.229   4.010   4.080
 9728TIP3    H229062   9.356   4.080   4.045
 9729TIP3   OH229063   9.495   4.085   4.149
 9729TIP3    H129064   9.592   4.092   4.137
 9729TIP3    H229065   9.494   4.014   4.217
 9730TIP3   OH229066   8.665   5.266   2.213
 9730TIP3    H129067   8.669   5.298   2.305
 9730TIP3    H229068   8.754   5.226   2.201
 9731TIP3   OH229069   0.435   5.339   4.917
 9731TIP3    H129070   0.408   5.432   4.900
 9731TIP3    H229071   0.355   5.292   4.888
 9732TIP3   OH229072   0.441   5.335   5.294
 9732TIP3    H129073   0.468   5.312   5.385
 9732TIP3    H229074   0.395   5.254   5.267
 9733TIP3   OH229075   0.676   5.643   4.981
 9733TIP3    H129076   0.662   5.575   5.049
 9733TIP3    H229077   0.704   5.719   5.034
 9734TIP3   OH229078   0.320   6.105   4.991
 9734TIP3    H129079   0.368   6.029   4.952
 9734TIP3    H229080   0.307   6.076   5.082
 9735TIP3   OH229081   0.219   5.511   5.324
 9735TIP3    H129082   0.300   5.465   5.295
 9735TIP3    H229083   0.258   5.591   5.363
 9736TIP3   OH229084   1.241   4.888   5.344
 9736TIP3    H129085   1.272   4.969   5.391
 9736TIP3    H229086   1.269   4.908   5.253
 9737TIP3   OH229087   0.642   5.069   5.382
 9737TIP3    H129088   0.686   4.984   5.402
 9737TIP3    H229089   0.612   5.053   5.290
 9738TIP3   OH229090   0.018   4.724   5.350
 9738TIP3    H129091  -0.023   4.802   5.306
 9738TIP3    H229092  -0.025   4.653   5.298
 9739TIP3   OH229093   0.675   4.818   4.968
 9739TIP3    H129094   0.747   4.803   5.034
 9739TIP3    H229095   0.727   4.855   4.895
 9740TIP3   OH229096   0.056   5.136   5.260
 9740TIP3    H129097   0.150   5.105   5.264
 9740TIP3    H229098   0.013   5.059   5.218
 9741TIP3   OH229099   1.317   5.094   5.514
 9741TIP3    H129100   1.232   5.141   5.497
 9741TIP3    H229101   1.331   5.115   5.607
 9742TIP3   OH229102   0.327   5.562   4.787
 9742TIP3    H129103   0.285   5.541   4.703
 9742TIP3    H229104   0.282   5.646   4.811
 9743TIP3   OH229105   0.886   4.822   5.139
 9743TIP3    H129106   0.877   4.773   5.222
 9743TIP3    H229107   0.940   4.898   5.167
 9744TIP3   OH229108   0.747   5.884   5.146
 9744TIP3    H129109   0.658   5.876   5.188
 9744TIP3    H229110   0.740   5.971   5.104
 9745TIP3   OH229111   1.037   4.786   5.509
 9745TIP3    H129112   0.951   4.819   5.481
 9745TIP3    H229113   1.097   4.819   5.439
 9746TIP3   OH229114   0.333   4.425   5.490
 9746TIP3    H129115   0.329   4.329   5.509
 9746TIP3    H229116   0.262   4.458   5.548
 9747TIP3   OH229117   0.448   5.928   4.823
 9747TIP3    H129118   0.500   5.848   4.800
 9747TIP3    H229119   0.506   5.997   4.783
 9748TIP3   OH229120   0.592   5.716   4.728
 9748TIP3    H129121   0.553   5.635   4.692
 9748TIP3    H229122   0.629   5.683   4.813
 9749TIP3   OH229123   0.973   5.799   5.493
 9749TIP3    H129124   0.962   5.722   5.433
 9749TIP3    H229125   0.955   5.874   5.433
 9750TIP3   OH229126   0.264   5.189   4.748
 9750TIP3    H129127   0.184   5.240   4.724
 9750TIP3    H229128   0.313   5.190   4.664
 9751TIP3   OH229129   0.223   4.978   4.467
 9751TIP3    H129130   0.291   5.027   4.517
 9751TIP3    H229131   0.279   4.914   4.419
 9752TIP3   OH229132   1.168   5.435   5.336
 9752TIP3    H129133   1.086   5.487   5.342
 9752TIP3    H229134   1.198   5.459   5.245
 9753TIP3   OH229135   0.612   5.274   4.721
 9753TIP3    H129136   0.557   5.299   4.799
 9753TIP3    H229137   0.695   5.248   4.766
 9754TIP3   OH229138   0.847   5.314   5.634
 9754TIP3    H129139   0.846   5.397   5.685
 9754TIP3    H229140   0.762   5.322   5.586
 9755TIP3   OH229141  -0.014   5.230   5.504
 9755TIP3    H129142   0.019   5.200   5.416
 9755TIP3    H229143   0.038   5.311   5.518
 9756TIP3   OH229144   0.508   5.881   5.270
 9756TIP3    H129145   0.490   5.959   5.325
 9756TIP3    H229146   0.491   5.806   5.331
 9757TIP3   OH229147   0.454   5.132   4.548
 9757TIP3    H129148   0.513   5.192   4.600
 9757TIP3    H229149   0.479   5.157   4.456
 9758TIP3   OH229150   0.191   5.817   4.824
 9758TIP3    H129151   0.276   5.859   4.846
 9758TIP3    H229152   0.146   5.888   4.777
 9759TIP3   OH229153   0.767   5.740   4.142
 9759TIP3    H129154   0.775   5.837   4.130
 9759TIP3    H229155   0.860   5.712   4.130
 9760TIP3   OH229156   1.211   6.143   5.538
 9760TIP3    H129157   1.209   6.047   5.553
 9760TIP3    H229158   1.128   6.169   5.583
 9761TIP3   OH229159   0.337   5.909   5.684
 9761TIP3    H129160   0.341   6.004   5.713
 9761TIP3    H229161   0.242   5.900   5.666
 9762TIP3   OH229162   0.103   6.040   4.649
 9762TIP3    H129163   0.068   6.019   4.560
 9762TIP3    H229164   0.075   6.131   4.661
 9763TIP3   OH229165   0.281   5.959   4.266
 9763TIP3    H129166   0.337   5.888   4.227
 9763TIP3    H229167   0.322   5.970   4.354
 9764TIP3   OH229168   0.345   6.002   4.531
 9764TIP3    H129169   0.263   6.003   4.586
 9764TIP3    H229170   0.409   5.969   4.596
 9765TIP3   OH229171   1.101   5.276   5.813
 9765TIP3    H129172   1.020   5.288   5.762
 9765TIP3    H229173   1.117   5.180   5.802
 9766TIP3   OH229174   0.088   4.508   5.625
 9766TIP3    H129175   0.017   4.469   5.572
 9766TIP3    H229176   0.085   4.600   5.596
 9767TIP3   OH229177   0.631   4.621   5.817
 9767TIP3    H129178   0.701   4.594   5.880
 9767TIP3    H229179   0.549   4.599   5.865
 9768TIP3   OH229180   0.867   5.049   5.733
 9768TIP3    H129181   0.821   5.046   5.820
 9768TIP3    H229182   0.845   5.138   5.700
 9769TIP3   OH229183   0.529   5.176   4.290
 9769TIP3    H129184   0.496   5.153   4.200
 9769TIP3    H229185   0.607   5.230   4.268
 9770TIP3   OH229186   0.245   4.554   4.593
 9770TIP3    H129187   0.213   4.551   4.685
 9770TIP3    H229188   0.205   4.472   4.559
 9771TIP3   OH229189   0.016   5.005   5.651
 9771TIP3    H129190  -0.027   5.039   5.730
 9771TIP3    H229191   0.006   5.081   5.590
 9772TIP3   OH229192  -0.094   4.898   5.159
 9772TIP3    H129193  -0.190   4.909   5.148
 9772TIP3    H229194  -0.072   4.855   5.074
 9773TIP3   OH229195   0.401   4.992   4.882
 9773TIP3    H129196   0.349   5.064   4.840
 9773TIP3    H229197   0.457   4.963   4.807
 9774TIP3   OH229198   0.579   5.270   5.967
 9774TIP3    H129199   0.556   5.198   6.030
 9774TIP3    H229200   0.673   5.285   5.991
 9775TIP3   OH229201   0.558   5.021   5.123
 9775TIP3    H129202   0.500   5.053   5.051
 9775TIP3    H229203   0.591   4.939   5.080
 9776TIP3   OH229204  -0.098   4.533   4.562
 9776TIP3    H129205  -0.108   4.528   4.659
 9776TIP3    H229206  -0.190   4.537   4.532
 9777TIP3   OH229207   0.561   5.268   5.544
 9777TIP3    H129208   0.599   5.198   5.486
 9777TIP3    H229209   0.541   5.215   5.624
 9778TIP3   OH229210   0.255   4.734   5.210
 9778TIP3    H129211   0.174   4.734   5.266
 9778TIP3    H229212   0.325   4.726   5.277
 9779TIP3   OH229213  -0.051   4.786   4.909
 9779TIP3    H129214   0.045   4.800   4.897
 9779TIP3    H229215  -0.090   4.823   4.828
 9780TIP3   OH229216   0.729   4.806   5.418
 9780TIP3    H129217   0.696   4.817   5.510
 9780TIP3    H229218   0.665   4.743   5.382
 9781TIP3   OH229219  -0.234   4.845   4.688
 9781TIP3    H129220  -0.271   4.755   4.676
 9781TIP3    H229221  -0.173   4.855   4.612
 9782TIP3   OH229222   0.901   6.493   5.637
 9782TIP3    H129223   0.899   6.519   5.543
 9782TIP3    H229224   0.978   6.543   5.669
 9783TIP3   OH229225   0.324   5.057   5.311
 9783TIP3    H129226   0.396   5.019   5.259
 9783TIP3    H229227   0.337   5.015   5.398
 9784TIP3   OH229228  -0.119   4.548   5.194
 9784TIP3    H129229  -0.187   4.478   5.208
 9784TIP3    H229230  -0.073   4.512   5.116
 9785TIP3   OH229231   0.299   4.950   5.610
 9785TIP3    H129232   0.210   4.990   5.621
 9785TIP3    H229233   0.358   5.012   5.657
 9786TIP3   OH229234   0.041   5.339   4.684
 9786TIP3    H129235  -0.035   5.276   4.681
 9786TIP3    H229236   0.029   5.378   4.774
 9787TIP3   OH229237   0.936   5.581   5.328
 9787TIP3    H129238   0.961   5.630   5.247
 9787TIP3    H229239   0.850   5.541   5.303
 9788TIP3   OH229240   0.495   4.659   4.555
 9788TIP3    H129241   0.400   4.639   4.567
 9788TIP3    H229242   0.502   4.752   4.583
 9789TIP3   OH229243   0.429   5.651   5.702
 9789TIP3    H129244   0.462   5.646   5.792
 9789TIP3    H229245   0.395   5.743   5.697
 9790TIP3   OH229246   0.563   4.904   4.662
 9790TIP3    H129247   0.659   4.912   4.681
 9790TIP3    H229248   0.544   4.985   4.612
 9791TIP3   OH229249   0.190   5.487   4.513
 9791TIP3    H129250   0.144   5.573   4.524
 9791TIP3    H229251   0.135   5.431   4.572
 9792TIP3   OH229252   0.344   5.407   6.016
 9792TIP3    H129253   0.287   5.337   5.977
 9792TIP3    H229254   0.432   5.377   5.984
 9793TIP3   OH229255   0.601   5.919   5.592
 9793TIP3    H129256   0.505   5.914   5.608
 9793TIP3    H229257   0.628   5.973   5.669
 9794TIP3   OH229258   0.998   4.994   4.502
 9794TIP3    H129259   0.941   4.945   4.439
 9794TIP3    H229260   0.997   5.082   4.459
 9795TIP3   OH229261   1.223   5.851   5.582
 9795TIP3    H129262   1.125   5.847   5.573
 9795TIP3    H229263   1.249   5.823   5.491
 9796TIP3   OH229264   0.702   5.814   4.407
 9796TIP3    H129265   0.682   5.744   4.470
 9796TIP3    H229266   0.717   5.766   4.324
 9797TIP3   OH229267   0.702   5.443   5.246
 9797TIP3    H129268   0.609   5.417   5.259
 9797TIP3    H229269   0.737   5.363   5.201
 9798TIP3   OH229270   0.011   5.438   4.933
 9798TIP3    H129271   0.003   5.531   4.954
 9798TIP3    H229272  -0.029   5.397   5.011
 9799TIP3   OH229273   0.488   5.648   5.429
 9799TIP3    H129274   0.474   5.645   5.525
 9799TIP3    H229275   0.570   5.598   5.419
 9800TIP3   OH229276   0.461   5.540   4.309
 9800TIP3    H129277   0.513   5.516   4.389
 9800TIP3    H229278   0.372   5.514   4.338
 9801TIP3   OH229279   0.736   6.181   5.478
 9801TIP3    H129280   0.657   6.125   5.472
 9801TIP3    H229281   0.719   6.246   5.406
 9802TIP3   OH229282   0.800   6.016   4.130
 9802TIP3    H129283   0.839   6.089   4.079
 9802TIP3    H229284   0.720   6.062   4.163
 9803TIP3   OH229285   0.620   5.473   4.525
 9803TIP3    H129286   0.611   5.408   4.598
 9803TIP3    H229287   0.717   5.473   4.514
 9804TIP3   OH229288  -0.122   5.498   4.331
 9804TIP3    H129289  -0.111   5.409   4.290
 9804TIP3    H229290  -0.139   5.474   4.423
 9805TIP3   OH229291   0.654   4.859   5.677
 9805TIP3    H129292   0.735   4.897   5.714
 9805TIP3    H229293   0.643   4.777   5.731
 9806TIP3   OH229294   0.538   4.609   4.841
 9806TIP3    H129295   0.523   4.636   4.748
 9806TIP3    H229296   0.578   4.691   4.879
 9807TIP3   OH229297   0.045   5.712   4.536
 9807TIP3    H129298  -0.043   5.743   4.561
 9807TIP3    H229299   0.064   5.769   4.459
 9808TIP3   OH229300   0.224   4.791   4.943
 9808TIP3    H129301   0.290   4.861   4.925
 9808TIP3    H229302   0.235   4.780   5.040
 9809TIP3   OH229303   0.491   5.107   5.754
 9809TIP3    H129304   0.515   5.161   5.832
 9809TIP3    H229305   0.548   5.029   5.765
 9810TIP3   OH229306   0.372   4.517   5.047
 9810TIP3    H129307   0.366   4.593   5.108
 9810TIP3    H229308   0.434   4.551   4.979
 9811TIP3   OH229309  -0.113   4.527   4.843
 9811TIP3    H129310  -0.094   4.614   4.883
 9811TIP3    H229311  -0.022   4.489   4.846
 9812TIP3   OH229312   1.135   5.010   5.731
 9812TIP3    H129313   1.037   5.007   5.738
 9812TIP3    H229314   1.148   4.961   5.649
 9813TIP3   OH229315   0.786   5.202   5.120
 9813TIP3    H129316   0.711   5.142   5.135
 9813TIP3    H229317   0.858   5.156   5.169
 9814TIP3   OH229318   0.755   6.155   5.069
 9814TIP3    H129319   0.713   6.202   4.994
 9814TIP3    H229320   0.849   6.175   5.050
 9815TIP3   OH229321   0.024   5.715   4.238
 9815TIP3    H129322  -0.026   5.638   4.273
 9815TIP3    H229323   0.083   5.672   4.174
 9816TIP3   OH229324   0.657   6.054   5.824
 9816TIP3    H129325   0.648   5.983   5.892
 9816TIP3    H229326   0.730   6.107   5.859
 9817TIP3   OH229327   0.427   5.767   4.133
 9817TIP3    H129328   0.472   5.705   4.193
 9817TIP3    H229329   0.485   5.768   4.054
 9818TIP3   OH229330   0.284   5.682   6.014
 9818TIP3    H129331   0.219   5.667   5.945
 9818TIP3    H229332   0.315   5.590   6.030
 9819TIP3   OH229333   0.161   5.434   4.244
 9819TIP3    H129334   0.157   5.451   4.340
 9819TIP3    H229335   0.154   5.336   4.243
 9820TIP3   OH229336   0.757   5.685   5.627
 9820TIP3    H129337   0.833   5.730   5.585
 9820TIP3    H229338   0.688   5.752   5.616
 9821TIP3   OH229339  -0.151   5.143   4.668
 9821TIP3    H129340  -0.183   5.088   4.740
 9821TIP3    H229341  -0.118   5.074   4.606
 9822TIP3   OH229342   0.185   5.217   5.885
 9822TIP3    H129343   0.096   5.258   5.886
 9822TIP3    H229344   0.216   5.245   5.796
 9823TIP3   OH229345  -0.052   4.938   4.506
 9823TIP3    H129346  -0.077   4.946   4.411
 9823TIP3    H229347   0.045   4.946   4.499
 9824TIP3   OH229348   0.626   5.604   6.027
 9824TIP3    H129349   0.709   5.588   5.981
 9824TIP3    H229350   0.629   5.541   6.101
 9825TIP3   OH229351   0.765   5.270   4.167
 9825TIP3    H129352   0.743   5.226   4.083
 9825TIP3    H229353   0.734   5.361   4.145
 9826TIP3   OH229354   0.245   4.984   6.031
 9826TIP3    H129355   0.236   4.908   5.970
 9826TIP3    H229356   0.216   5.060   5.977
 9827TIP3   OH229357   0.228   4.778   5.820
 9827TIP3    H129358   0.268   4.824   5.743
 9827TIP3    H229359   0.134   4.784   5.801
 9828TIP3   OH229360   0.264   5.338   5.652
 9828TIP3    H129361   0.355   5.322   5.625
 9828TIP3    H229362   0.257   5.434   5.639
 9829TIP3   OH229363   0.846   5.288   6.081
 9829TIP3    H129364   0.894   5.205   6.094
 9829TIP3    H229365   0.916   5.346   6.047
 9830TIP3   OH229366   0.887   5.540   5.815
 9830TIP3    H129367   0.829   5.595   5.757
 9830TIP3    H229368   0.975   5.561   5.776
 9831TIP3   OH229369   0.370   4.549   5.892
 9831TIP3    H129370   0.319   4.629   5.869
 9831TIP3    H229371   0.301   4.479   5.887
 9832TIP3   OH229372   0.499   5.056   6.112
 9832TIP3    H129373   0.489   5.046   6.209
 9832TIP3    H229374   0.409   5.026   6.085
 9833TIP3   OH229375   0.735   5.002   5.964
 9833TIP3    H129376   0.660   5.004   6.026
 9833TIP3    H229377   0.808   4.971   6.021
 9834TIP3   OH229378   0.963   4.943   6.115
 9834TIP3    H129379   0.976   4.848   6.133
 9834TIP3    H229380   0.959   4.982   6.205
 9835TIP3   OH229381   0.463   4.560   6.151
 9835TIP3    H129382   0.533   4.490   6.148
 9835TIP3    H229383   0.426   4.551   6.061
 9836TIP3   OH229384   0.530   4.774   6.308
 9836TIP3    H129385   0.507   4.702   6.245
 9836TIP3    H229386   0.454   4.835   6.299
 9837TIP3   OH229387   1.008   6.247   5.026
 9837TIP3    H129388   1.032   6.279   5.114
 9837TIP3    H229389   1.068   6.297   4.969
 9838TIP3   OH229390   1.037   6.266   5.307
 9838TIP3    H129391   0.994   6.178   5.305
 9838TIP3    H229392   1.111   6.247   5.366
 9839TIP3   OH229393   1.084   5.945   5.881
 9839TIP3    H129394   1.011   5.953   5.946
 9839TIP3    H229395   1.125   6.034   5.886
 9840TIP3   OH229396   0.900   5.457   4.500
 9840TIP3    H129397   0.968   5.522   4.473
 9840TIP3    H229398   0.943   5.419   4.580
 9841TIP3   OH229399   1.026   5.326   4.705
 9841TIP3    H129400   0.962   5.284   4.766
 9841TIP3    H229401   1.093   5.364   4.766
 9842TIP3   OH229402   1.081   5.717   5.137
 9842TIP3    H129403   1.136   5.654   5.087
 9842TIP3    H229404   1.073   5.792   5.075
 9843TIP3   OH229405   0.913   6.016   5.333
 9843TIP3    H129406   0.843   6.060   5.385
 9843TIP3    H229407   0.861   5.969   5.264
 9844TIP3   OH229408   0.961   5.229   4.353
 9844TIP3    H129409   0.892   5.241   4.284
 9844TIP3    H229410   0.940   5.307   4.409
 9845TIP3   OH229411   0.831   4.887   4.302
 9845TIP3    H129412   0.817   4.972   4.258
 9845TIP3    H229413   0.783   4.828   4.242
 9846TIP3   OH229414   0.840   5.182   4.852
 9846TIP3    H129415   0.852   5.085   4.851
 9846TIP3    H229416   0.827   5.200   4.948
 9847TIP3   OH229417   1.130   5.606   5.708
 9847TIP3    H129418   1.203   5.541   5.699
 9847TIP3    H229419   1.157   5.677   5.648
 9848TIP3   OH229420   1.316   5.412   5.724
 9848TIP3    H129421   1.241   5.363   5.764
 9848TIP3    H229422   1.389   5.348   5.739
 9849TIP3   OH229423   0.837   4.896   4.746
 9849TIP3    H129424   0.880   4.809   4.761
 9849TIP3    H229425   0.897   4.934   4.680
 9850TIP3   OH229426   0.998   5.073   5.240
 9850TIP3    H129427   1.085   5.099   5.201
 9850TIP3    H229428   1.012   5.108   5.330
 9851TIP3   OH229429   1.066   5.216   5.473
 9851TIP3    H129430   0.989   5.250   5.523
 9851TIP3    H229431   1.099   5.297   5.429
 9852TIP3   OH229432   1.527   4.800   6.027
 9852TIP3    H129433   1.575   4.728   5.981
 9852TIP3    H229434   1.501   4.857   5.952
 9853TIP3   OH229435   0.947   4.643   4.775
 9853TIP3    H129436   0.995   4.630   4.860
 9853TIP3    H229437   0.885   4.567   4.779
 9854TIP3   OH229438   1.391   4.947   5.838
 9854TIP3    H129439   1.302   4.983   5.856
 9854TIP3    H229440   1.368   4.872   5.779
 9855TIP3   OH229441   0.589   6.114   4.684
 9855TIP3    H129442   0.644   6.102   4.603
 9855TIP3    H229443   0.640   6.180   4.733
 9856TIP3   OH229444   0.352   6.168   5.763
 9856TIP3    H129445   0.354   6.208   5.852
 9856TIP3    H229446   0.393   6.238   5.709
 9857TIP3   OH229447   0.493   6.355   5.611
 9857TIP3    H129448   0.560   6.296   5.574
 9857TIP3    H229449   0.547   6.407   5.674
 9858TIP3   OH229450   1.289   4.710   5.714
 9858TIP3    H129451   1.198   4.695   5.682
 9858TIP3    H229452   1.327   4.620   5.703
 9859TIP3   OH229453   0.216   6.240   5.263
 9859TIP3    H129454   0.120   6.253   5.257
 9859TIP3    H229455   0.241   6.318   5.317
 9860TIP3   OH229456   0.478   6.159   5.346
 9860TIP3    H129457   0.388   6.176   5.313
 9860TIP3    H229458   0.527   6.233   5.306
 9861TIP3   OH229459   0.683   6.344   5.263
 9861TIP3    H129460   0.673   6.431   5.217
 9861TIP3    H229461   0.711   6.286   5.189
 9862TIP3   OH229462   0.492   4.622   5.330
 9862TIP3    H129463   0.452   4.551   5.382
 9862TIP3    H229464   0.567   4.577   5.287
 9863TIP3   OH229465   1.017   4.502   5.233
 9863TIP3    H129466   1.053   4.557   5.160
 9863TIP3    H229467   0.922   4.524   5.231
 9864TIP3   OH229468   1.109   4.607   4.995
 9864TIP3    H129469   1.184   4.553   4.962
 9864TIP3    H229470   1.147   4.697   4.983
 9865TIP3   OH229471   0.191   4.374   5.227
 9865TIP3    H129472   0.252   4.422   5.169
 9865TIP3    H229473   0.224   4.398   5.315
 9866TIP3   OH229474   0.731   4.512   5.214
 9866TIP3    H129475   0.733   4.471   5.127
 9866TIP3    H229476   0.720   4.432   5.272
 9867TIP3   OH229477   0.767   4.432   4.765
 9867TIP3    H129478   0.681   4.474   4.782
 9867TIP3    H229479   0.754   4.347   4.812
 9868TIP3   OH229480  -0.326   4.291   4.802
 9868TIP3    H129481  -0.318   4.268   4.708
 9868TIP3    H229482  -0.286   4.379   4.806
 9869TIP3   OH229483   0.165   4.538   4.857
 9869TIP3    H129484   0.222   4.489   4.919
 9869TIP3    H229485   0.187   4.630   4.884
 9870TIP3   OH229486   0.032   5.969   4.389
 9870TIP3    H129487   0.118   5.969   4.342
 9870TIP3    H229488  -0.026   5.936   4.316
 9871TIP3   OH229489   0.737   6.081   4.451
 9871TIP3    H129490   0.727   5.984   4.438
 9871TIP3    H229491   0.693   6.115   4.371
 9872TIP3   OH229492   0.196   4.587   6.347
 9872TIP3    H129493   0.281   4.578   6.300
 9872TIP3    H229494   0.210   4.528   6.422
 9873TIP3   OH229495   1.023   4.673   6.147
 9873TIP3    H129496   1.044   4.642   6.237
 9873TIP3    H229497   1.111   4.668   6.103
 9874TIP3   OH229498   0.965   6.225   5.638
 9874TIP3    H129499   0.885   6.193   5.591
 9874TIP3    H229500   0.945   6.321   5.642
 9875TIP3   OH229501   2.231   5.599   4.405
 9875TIP3    H129502   2.202   5.690   4.384
 9875TIP3    H229503   2.155   5.548   4.372
 9876TIP3   OH229504   2.230   5.597   4.786
 9876TIP3    H129505   2.260   5.567   4.873
 9876TIP3    H229506   2.187   5.517   4.751
 9877TIP3   OH229507   1.528   5.492   5.152
 9877TIP3    H129508   1.560   5.425   5.215
 9877TIP3    H229509   1.606   5.549   5.145
 9878TIP3   OH229510   2.474   5.899   4.467
 9878TIP3    H129511   2.456   5.830   4.532
 9878TIP3    H229512   2.500   5.974   4.523
 9879TIP3   OH229513   1.500   5.902   4.876
 9879TIP3    H129514   1.490   5.804   4.878
 9879TIP3    H229515   1.597   5.910   4.872
 9880TIP3   OH229516   1.205   5.105   4.662
 9880TIP3    H129517   1.158   5.190   4.676
 9880TIP3    H229518   1.134   5.052   4.624
 9881TIP3   OH229519   1.266   5.391   4.831
 9881TIP3    H129520   1.315   5.316   4.869
 9881TIP3    H229521   1.327   5.421   4.762
 9882TIP3   OH229522   2.121   6.362   4.483
 9882TIP3    H129523   2.168   6.290   4.436
 9882TIP3    H229524   2.113   6.326   4.572
 9883TIP3   OH229525   2.027   5.823   4.835
 9883TIP3    H129526   2.065   5.747   4.787
 9883TIP3    H229527   2.111   5.867   4.859
 9884TIP3   OH229528   3.046   5.144   4.831
 9884TIP3    H129529   3.071   5.228   4.874
 9884TIP3    H229530   3.064   5.164   4.737
 9885TIP3   OH229531   2.442   5.325   4.867
 9885TIP3    H129532   2.482   5.238   4.885
 9885TIP3    H229533   2.408   5.311   4.777
 9886TIP3   OH229534   1.778   4.983   4.832
 9886TIP3    H129535   1.757   5.056   4.770
 9886TIP3    H229536   1.733   4.909   4.787
 9887TIP3   OH229537   2.471   5.076   4.455
 9887TIP3    H129538   2.544   5.059   4.520
 9887TIP3    H229539   2.523   5.110   4.381
 9888TIP3   OH229540   1.412   5.186   4.940
 9888TIP3    H129541   1.495   5.166   4.987
 9888TIP3    H229542   1.424   5.131   4.860
 9889TIP3   OH229543   1.853   5.385   4.733
 9889TIP3    H129544   1.946   5.358   4.746
 9889TIP3    H229545   1.812   5.301   4.701
 9890TIP3   OH229546   3.117   5.354   5.000
 9890TIP3    H129547   3.032   5.399   4.982
 9890TIP3    H229548   3.122   5.366   5.096
 9891TIP3   OH229549   1.778   4.969   5.267
 9891TIP3    H129550   1.715   5.003   5.200
 9891TIP3    H229551   1.725   4.981   5.348
 9892TIP3   OH229552   2.126   5.821   4.273
 9892TIP3    H129553   2.078   5.794   4.194
 9892TIP3    H229554   2.079   5.904   4.297
 9893TIP3   OH229555   1.881   5.742   5.063
 9893TIP3    H129556   1.818   5.808   5.100
 9893TIP3    H229557   1.923   5.794   4.990
 9894TIP3   OH229558   2.684   5.077   4.625
 9894TIP3    H129559   2.671   5.026   4.706
 9894TIP3    H229560   2.735   5.153   4.656
 9895TIP3   OH229561   1.645   5.082   5.051
 9895TIP3    H129562   1.708   5.154   5.073
 9895TIP3    H229563   1.694   5.040   4.976
 9896TIP3   OH229564   1.709   5.936   5.159
 9896TIP3    H129565   1.683   6.022   5.121
 9896TIP3    H229566   1.631   5.920   5.216
 9897TIP3   OH229567   1.103   5.627   4.396
 9897TIP3    H129568   1.064   5.654   4.312
 9897TIP3    H229569   1.134   5.712   4.433
 9898TIP3   OH229570   2.544   6.142   4.636
 9898TIP3    H129571   2.455   6.133   4.676
 9898TIP3    H229572   2.535   6.228   4.591
 9899TIP3   OH229573   2.830   5.061   4.998
 9899TIP3    H129574   2.741   5.078   4.964
 9899TIP3    H229575   2.887   5.082   4.921
 9900TIP3   OH229576   2.131   4.691   4.980
 9900TIP3    H129577   2.115   4.595   4.986
 9900TIP3    H229578   2.052   4.725   5.027
 9901TIP3   OH229579   2.246   6.189   4.311
 9901TIP3    H129580   2.296   6.107   4.289
 9901TIP3    H229581   2.305   6.255   4.268
 9902TIP3   OH229582   2.389   5.974   4.215
 9902TIP3    H129583   2.343   5.896   4.181
 9902TIP3    H229584   2.425   5.940   4.299
 9903TIP3   OH229585   2.770   6.056   4.979
 9903TIP3    H129586   2.758   5.978   4.920
 9903TIP3    H229587   2.751   6.130   4.917
 9904TIP3   OH229588   2.062   5.451   4.236
 9904TIP3    H129589   1.978   5.497   4.215
 9904TIP3    H229590   2.103   5.444   4.148
 9905TIP3   OH229591   2.021   5.249   3.950
 9905TIP3    H129592   2.100   5.284   3.995
 9905TIP3    H229593   2.052   5.162   3.921
 9906TIP3   OH229594   2.965   5.693   4.824
 9906TIP3    H129595   2.881   5.744   4.829
 9906TIP3    H229596   2.993   5.716   4.733
 9907TIP3   OH229597   2.409   5.534   4.209
 9907TIP3    H129598   2.353   5.558   4.286
 9907TIP3    H229599   2.491   5.506   4.254
 9908TIP3   OH229600   2.644   5.570   5.120
 9908TIP3    H129601   2.640   5.654   5.169
 9908TIP3    H229602   2.557   5.573   5.074
 9909TIP3   OH229603   1.641   5.531   4.625
 9909TIP3    H129604   1.596   5.473   4.560
 9909TIP3    H229605   1.717   5.476   4.653
 9910TIP3   OH229606   1.771   5.942   4.772
 9910TIP3    H129607   1.749   5.897   4.689
 9910TIP3    H229608   1.860   5.908   4.791
 9911TIP3   OH229609   1.777   5.500   4.979
 9911TIP3    H129610   1.809   5.479   4.889
 9911TIP3    H229611   1.820   5.586   4.998
 9912TIP3   OH229612   2.303   6.138   4.756
 9912TIP3    H129613   2.288   6.217   4.810
 9912TIP3    H229614   2.288   6.064   4.819
 9913TIP3   OH229615   1.914   6.056   5.303
 9913TIP3    H129616   1.855   6.119   5.349
 9913TIP3    H229617   1.848   6.004   5.254
 9914TIP3   OH229618   2.256   5.385   4.036
 9914TIP3    H129619   2.311   5.447   4.088
 9914TIP3    H229620   2.278   5.412   3.944
 9915TIP3   OH229621   1.669   5.613   5.404
 9915TIP3    H129622   1.673   5.700   5.448
 9915TIP3    H229623   1.573   5.594   5.413
 9916TIP3   OH229624   1.992   6.068   4.308
 9916TIP3    H129625   2.070   6.124   4.327
 9916TIP3    H229626   1.930   6.132   4.271
 9917TIP3   OH229627   1.709   6.225   5.390
 9917TIP3    H129628   1.673   6.223   5.299
 9917TIP3    H229629   1.630   6.204   5.444
 9918TIP3   OH229630   2.764   4.631   4.083
 9918TIP3    H129631   2.682   4.648   4.133
 9918TIP3    H229632   2.774   4.715   4.034
 9919TIP3   OH229633   1.501   5.374   4.440
 9919TIP3    H129634   1.438   5.416   4.377
 9919TIP3    H229635   1.473   5.282   4.437
 9920TIP3   OH229636   2.562   5.997   3.629
 9920TIP3    H129637   2.570   6.094   3.617
 9920TIP3    H229638   2.656   5.969   3.617
 9921TIP3   OH229639   1.288   5.756   5.336
 9921TIP3    H129640   1.222   5.733   5.268
 9921TIP3    H229641   1.325   5.668   5.361
 9922TIP3   OH229642   1.141   5.948   4.969
 9922TIP3    H129643   1.238   5.944   4.962
 9922TIP3    H229644   1.130   6.028   5.023
 9923TIP3   OH229645   3.007   6.401   5.023
 9923TIP3    H129646   3.006   6.304   5.037
 9923TIP3    H229647   2.924   6.425   5.069
 9924TIP3   OH229648   2.113   6.186   5.160
 9924TIP3    H129649   2.112   6.278   5.192
 9924TIP3    H229650   2.041   6.146   5.214
 9925TIP3   OH229651   1.873   6.316   4.111
 9925TIP3    H129652   1.825   6.296   4.028
 9925TIP3    H229653   1.840   6.405   4.134
 9926TIP3   OH229654   1.311   6.164   4.495
 9926TIP3    H129655   1.358   6.155   4.580
 9926TIP3    H229656   1.252   6.087   4.499
 9927TIP3   OH229657   2.075   6.217   3.752
 9927TIP3    H129658   2.133   6.146   3.716
 9927TIP3    H229659   2.108   6.225   3.843
 9928TIP3   OH229660   2.125   6.264   4.022
 9928TIP3    H129661   2.036   6.274   4.063
 9928TIP3    H229662   2.174   6.222   4.093
 9929TIP3   OH229663   2.898   5.532   5.298
 9929TIP3    H129664   2.816   5.544   5.248
 9929TIP3    H229665   2.913   5.436   5.288
 9930TIP3   OH229666   1.494   5.938   5.325
 9930TIP3    H129667   1.542   5.923   5.408
 9930TIP3    H229668   1.419   5.875   5.333
 9931TIP3   OH229669   1.891   4.763   5.109
 9931TIP3    H129670   1.801   4.732   5.084
 9931TIP3    H229671   1.867   4.845   5.156
 9932TIP3   OH229672   2.664   5.306   5.223
 9932TIP3    H129673   2.616   5.303   5.308
 9932TIP3    H229674   2.640   5.394   5.188
 9933TIP3   OH229675   2.325   5.436   3.778
 9933TIP3    H129676   2.292   5.408   3.690
 9933TIP3    H229677   2.404   5.486   3.754
 9934TIP3   OH229678   1.825   5.277   5.128
 9934TIP3    H129679   1.773   5.296   5.209
 9934TIP3    H229680   1.807   5.358   5.075
 9935TIP3   OH229681   1.708   5.166   4.644
 9935TIP3    H129682   1.616   5.138   4.658
 9935TIP3    H229683   1.723   5.131   4.553
 9936TIP3   OH229684   2.200   5.254   4.371
 9936TIP3    H129685   2.144   5.323   4.329
 9936TIP3    H229686   2.250   5.220   4.294
 9937TIP3   OH229687   2.373   5.527   5.456
 9937TIP3    H129688   2.350   5.455   5.519
 9937TIP3    H229689   2.466   5.543   5.479
 9938TIP3   OH229690   2.356   5.280   4.608
 9938TIP3    H129691   2.295   5.308   4.537
 9938TIP3    H229692   2.389   5.197   4.567
 9939TIP3   OH229693   1.644   5.306   5.337
 9939TIP3    H129694   1.666   5.369   5.407
 9939TIP3    H229695   1.631   5.223   5.387
 9940TIP3   OH229696   1.241   4.827   4.912
 9940TIP3    H129697   1.307   4.863   4.974
 9940TIP3    H229698   1.296   4.799   4.837
 9941TIP3   OH229699   1.219   4.825   4.452
 9941TIP3    H129700   1.259   4.854   4.367
 9941TIP3    H229701   1.154   4.895   4.464
 9942TIP3   OH229702   2.368   5.525   5.032
 9942TIP3    H129703   2.400   5.453   4.973
 9942TIP3    H229704   2.338   5.472   5.108
 9943TIP3   OH229705   2.037   4.987   4.703
 9943TIP3    H129706   1.953   4.984   4.753
 9943TIP3    H229707   2.102   4.984   4.775
 9944TIP3   OH229708   1.470   5.041   4.713
 9944TIP3    H129709   1.376   5.046   4.683
 9944TIP3    H229710   1.497   4.952   4.685
 9945TIP3   OH229711   1.743   5.058   4.397
 9945TIP3    H129712   1.837   5.050   4.370
 9945TIP3    H229713   1.696   5.067   4.312
 9946TIP3   OH229714   2.528   5.062   4.902
 9946TIP3    H129715   2.495   5.071   4.994
 9946TIP3    H229716   2.462   4.999   4.866
 9947TIP3   OH229717   1.575   5.071   4.177
 9947TIP3    H129718   1.506   5.026   4.126
 9947TIP3    H229719   1.640   5.089   4.106
 9948TIP3   OH229720   2.697   6.749   5.124
 9948TIP3    H129721   2.693   6.775   5.030
 9948TIP3    H229722   2.772   6.803   5.157
 9949TIP3   OH229723   1.654   5.860   5.546
 9949TIP3    H129724   1.733   5.892   5.593
 9949TIP3    H229725   1.588   5.860   5.618
 9950TIP3   OH229726   2.119   5.316   4.802
 9950TIP3    H129727   2.187   5.271   4.749
 9950TIP3    H229728   2.127   5.272   4.888
 9951TIP3   OH229729   1.643   4.804   4.673
 9951TIP3    H129730   1.616   4.720   4.714
 9951TIP3    H229731   1.676   4.776   4.586
 9952TIP3   OH229732   2.095   5.210   5.092
 9952TIP3    H129733   2.004   5.244   5.105
 9952TIP3    H229734   2.150   5.273   5.142
 9953TIP3   OH229735   1.831   5.603   4.185
 9953TIP3    H129736   1.758   5.538   4.176
 9953TIP3    H229737   1.814   5.636   4.277
 9954TIP3   OH229738   2.732   5.837   4.815
 9954TIP3    H129739   2.755   5.886   4.734
 9954TIP3    H229740   2.646   5.796   4.791
 9955TIP3   OH229741   2.266   4.918   4.046
 9955TIP3    H129742   2.169   4.925   4.051
 9955TIP3    H229743   2.295   5.008   4.071
 9956TIP3   OH229744   2.234   5.921   5.182
 9956TIP3    H129745   2.251   5.898   5.274
 9956TIP3    H229746   2.191   6.009   5.189
 9957TIP3   OH229747   2.362   5.155   4.146
 9957TIP3    H129748   2.457   5.165   4.166
 9957TIP3    H229749   2.341   5.238   4.098
 9958TIP3   OH229750   1.523   5.623   4.862
 9958TIP3    H129751   1.562   5.596   4.776
 9958TIP3    H229752   1.563   5.560   4.923
 9959TIP3   OH229753   1.976   5.751   4.005
 9959TIP3    H129754   1.929   5.837   4.013
 9959TIP3    H229755   1.922   5.695   4.065
 9960TIP3   OH229756   1.404   5.544   5.474
 9960TIP3    H129757   1.424   5.530   5.569
 9960TIP3    H229758   1.335   5.476   5.459
 9961TIP3   OH229759   2.129   5.658   5.495
 9961TIP3    H129760   2.068   5.600   5.446
 9961TIP3    H229761   2.216   5.624   5.466
 9962TIP3   OH229762   2.392   6.181   5.076
 9962TIP3    H129763   2.295   6.178   5.089
 9962TIP3    H229764   2.419   6.231   5.156
 9963TIP3   OH229765   2.803   5.250   3.986
 9963TIP3    H129766   2.740   5.204   3.925
 9963TIP3    H229767   2.798   5.339   3.945
 9964TIP3   OH229768   3.020   6.110   5.067
 9964TIP3    H129769   2.922   6.104   5.060
 9964TIP3    H229770   3.045   6.079   4.977
 9965TIP3   OH229771   2.503   6.070   3.896
 9965TIP3    H129772   2.475   6.002   3.958
 9965TIP3    H229773   2.513   6.022   3.812
 9966TIP3   OH229774   2.497   5.699   4.734
 9966TIP3    H129775   2.404   5.674   4.747
 9966TIP3    H229776   2.532   5.620   4.689
 9967TIP3   OH229777   1.624   5.927   4.486
 9967TIP3    H129778   1.624   6.008   4.432
 9967TIP3    H229779   1.529   5.912   4.496
 9968TIP3   OH229780   1.184   5.234   4.184
 9968TIP3    H129781   1.234   5.315   4.207
 9968TIP3    H229782   1.111   5.238   4.249
 9969TIP3   OH229783   1.766   5.695   4.432
 9969TIP3    H129784   1.728   5.783   4.449
 9969TIP3    H229785   1.727   5.643   4.506
 9970TIP3   OH229786   1.894   6.271   4.955
 9970TIP3    H129787   1.934   6.344   4.905
 9970TIP3    H229788   1.970   6.237   5.005
 9971TIP3   OH229789   1.544   6.166   4.338
 9971TIP3    H129790   1.458   6.174   4.384
 9971TIP3    H229791   1.575   6.259   4.342
 9972TIP3   OH229792   2.283   5.906   4.913
 9972TIP3    H129793   2.273   5.905   5.011
 9972TIP3    H229794   2.361   5.851   4.901
 9973TIP3   OH229795   2.256   5.798   3.796
 9973TIP3    H129796   2.309   5.773   3.875
 9973TIP3    H229797   2.167   5.771   3.825
 9974TIP3   OH229798   2.532   6.439   4.965
 9974TIP3    H129799   2.453   6.381   4.959
 9974TIP3    H229800   2.514   6.503   4.893
 9975TIP3   OH229801   2.596   6.273   3.616
 9975TIP3    H129802   2.634   6.346   3.564
 9975TIP3    H229803   2.516   6.319   3.650
 9976TIP3   OH229804   1.617   5.050   5.484
 9976TIP3    H129805   1.521   5.051   5.496
 9976TIP3    H229806   1.645   4.986   5.552
 9977TIP3   OH229807   2.416   5.730   4.010
 9977TIP3    H129808   2.406   5.666   4.084
 9977TIP3    H229809   2.513   5.730   4.000
 9978TIP3   OH229810   1.333   6.134   5.114
 9978TIP3    H129811   1.385   6.060   5.148
 9978TIP3    H229812   1.357   6.204   5.175
 9979TIP3   OH229813   1.623   5.778   3.796
 9979TIP3    H129814   1.636   5.685   3.768
 9979TIP3    H229815   1.604   5.766   3.891
 9980TIP3   OH229816   1.566   5.784   4.067
 9980TIP3    H129817   1.637   5.753   4.126
 9980TIP3    H229818   1.573   5.881   4.077
 9981TIP3   OH229819   1.302   5.475   4.271
 9981TIP3    H129820   1.238   5.521   4.329
 9981TIP3    H229821   1.320   5.545   4.205
 9982TIP3   OH229822   2.458   5.108   5.163
 9982TIP3    H129823   2.536   5.155   5.198
 9982TIP3    H229824   2.432   5.050   5.235
 9983TIP3   OH229825   2.338   4.863   4.328
 9983TIP3    H129826   2.312   4.889   4.237
 9983TIP3    H229827   2.374   4.947   4.364
 9984TIP3   OH229828   1.834   5.982   4.017
 9984TIP3    H129829   1.747   6.008   4.053
 9984TIP3    H229830   1.850   6.055   3.955
 9985TIP3   OH229831   2.030   5.040   4.427
 9985TIP3    H129832   2.090   5.115   4.414
 9985TIP3    H229833   2.027   5.033   4.524
 9986TIP3   OH229834   2.292   5.364   5.240
 9986TIP3    H129835   2.309   5.422   5.317
 9986TIP3    H229836   2.349   5.289   5.258
 9987TIP3   OH229837   2.171   4.773   4.537
 9987TIP3    H129838   2.153   4.854   4.589
 9987TIP3    H229839   2.230   4.809   4.467
 9988TIP3   OH229840   1.577   6.057   4.085
 9988TIP3    H129841   1.547   6.127   4.022
 9988TIP3    H229842   1.561   6.100   4.171
 9989TIP3   OH229843   1.666   4.755   4.351
 9989TIP3    H129844   1.669   4.851   4.337
 9989TIP3    H229845   1.762   4.735   4.340
 9990TIP3   OH229846   2.931   5.264   5.212
 9990TIP3    H129847   2.834   5.263   5.226
 9990TIP3    H229848   2.934   5.215   5.128
 9991TIP3   OH229849   2.583   5.458   4.608
 9991TIP3    H129850   2.506   5.399   4.619
 9991TIP3    H229851   2.653   5.409   4.656
 9992TIP3   OH229852   1.295   5.688   4.076
 9992TIP3    H129853   1.362   5.757   4.086
 9992TIP3    H229854   1.341   5.631   4.010
 9993TIP3   OH229855   1.233   4.963   4.219
 9993TIP3    H129856   1.243   5.059   4.206
 9993TIP3    H229857   1.169   4.939   4.151
 9994TIP3   OH229858   2.551   6.414   4.557
 9994TIP3    H129859   2.508   6.461   4.482
 9994TIP3    H229860   2.645   6.432   4.536
 9995TIP3   OH229861   1.627   4.683   5.085
 9995TIP3    H129862   1.595   4.648   4.999
 9995TIP3    H229863   1.616   4.606   5.144
 9996TIP3   OH229864   1.166   5.900   4.465
 9996TIP3    H129865   1.096   5.932   4.524
 9996TIP3    H229866   1.140   5.942   4.380
 9997TIP3   OH229867   1.323   6.442   5.534
 9997TIP3    H129868   1.409   6.442   5.583
 9997TIP3    H229869   1.302   6.347   5.535
 9998TIP3   OH229870   1.805   6.407   5.581
 9998TIP3    H129871   1.900   6.388   5.588
 9998TIP3    H229872   1.780   6.349   5.507
 9999TIP3   OH229873   1.785   5.982   3.709
 9999TIP3    H129874   1.728   5.912   3.749
 9999TIP3    H229875   1.861   5.928   3.679
10000TIP3   OH229876   2.446   6.312   5.312
10000TIP3    H129877   2.435   6.243   5.381
10000TIP3    H229878   2.521   6.364   5.345
10001TIP3   OH229879   2.222   6.024   3.621
10001TIP3    H129880   2.265   5.959   3.679
10001TIP3    H229881   2.280   6.023   3.542
10002TIP3   OH229882   1.454   5.849   5.737
10002TIP3    H129883   1.470   5.752   5.740
10002TIP3    H229884   1.365   5.852   5.694
10003TIP3   OH229885   1.430   5.499   3.930
10003TIP3    H129886   1.483   5.462   4.002
10003TIP3    H229887   1.499   5.503   3.859
10004TIP3   OH229888   2.062   5.933   5.509
10004TIP3    H129889   2.018   5.949   5.423
10004TIP3    H229890   2.092   5.840   5.502
10005TIP3   OH229891   1.941   5.698   3.735
10005TIP3    H129892   1.942   5.710   3.833
10005TIP3    H229893   1.939   5.599   3.730
10006TIP3   OH229894   2.555   5.941   5.116
10006TIP3    H129895   2.627   5.989   5.072
10006TIP3    H229896   2.481   6.003   5.104
10007TIP3   OH229897   1.571   5.583   5.719
10007TIP3    H129898   1.644   5.524   5.698
10007TIP3    H229899   1.597   5.616   5.807
10008TIP3   OH229900   1.633   5.411   4.158
10008TIP3    H129901   1.614   5.357   4.235
10008TIP3    H229902   1.671   5.344   4.096
10009TIP3   OH229903   1.909   5.469   5.382
10009TIP3    H129904   1.830   5.527   5.384
10009TIP3    H229905   1.956   5.502   5.302
10010TIP3   OH229906   1.737   5.222   3.996
10010TIP3    H129907   1.713   5.162   3.923
10010TIP3    H229908   1.834   5.212   3.994
10011TIP3   OH229909   2.423   5.869   5.514
10011TIP3    H129910   2.505   5.846   5.467
10011TIP3    H229911   2.421   5.803   5.585
10012TIP3   OH229912   2.562   5.528   3.653
10012TIP3    H129913   2.538   5.481   3.570
10012TIP3    H229914   2.530   5.618   3.630
10013TIP3   OH229915   2.034   5.256   5.506
10013TIP3    H129916   2.030   5.176   5.450
10013TIP3    H229917   1.988   5.322   5.449
10014TIP3   OH229918   2.037   5.042   5.315
10014TIP3    H129919   2.061   5.082   5.229
10014TIP3    H229920   1.944   5.016   5.299
10015TIP3   OH229921   2.062   5.578   5.187
10015TIP3    H129922   2.143   5.586   5.136
10015TIP3    H229923   2.004   5.645   5.143
10016TIP3   OH229924   2.643   5.542   5.568
10016TIP3    H129925   2.692   5.459   5.580
10016TIP3    H229926   2.711   5.601   5.534
10017TIP3   OH229927   2.684   5.797   5.304
10017TIP3    H129928   2.626   5.851   5.245
10017TIP3    H229929   2.771   5.817   5.264
10018TIP3   OH229930   1.912   5.366   5.738
10018TIP3    H129931   1.842   5.299   5.752
10018TIP3    H229932   1.944   5.342   5.648
10019TIP3   OH229933   2.170   4.800   5.374
10019TIP3    H129934   2.129   4.887   5.359
10019TIP3    H229935   2.094   4.740   5.368
10020TIP3   OH229936   2.293   5.308   5.597
10020TIP3    H129937   2.279   5.302   5.693
10020TIP3    H229938   2.203   5.287   5.565
10021TIP3   OH229939   2.524   5.250   5.447
10021TIP3    H129940   2.452   5.262   5.512
10021TIP3    H229941   2.601   5.228   5.504
10022TIP3   OH229942   2.748   5.209   5.601
10022TIP3    H129943   2.779   5.117   5.620
10022TIP3    H229944   2.751   5.248   5.691
10023TIP3   OH229945   1.749   5.150   5.790
10023TIP3    H129946   1.747   5.057   5.757
10023TIP3    H229947   1.783   5.136   5.880
10024TIP3   OH229948   2.303   5.015   5.789
10024TIP3    H129949   2.287   4.994   5.696
10024TIP3    H229950   2.241   5.089   5.802
10025TIP3   OH229951   1.546   6.260   3.897
10025TIP3    H129952   1.642   6.255   3.877
10025TIP3    H229953   1.516   6.309   3.818
10026TIP3   OH229954   1.026   5.641   4.113
10026TIP3    H129955   1.121   5.663   4.100
10026TIP3    H229956   1.022   5.552   4.072
10027TIP3   OH229957   0.942   6.252   4.526
10027TIP3    H129958   0.873   6.191   4.492
10027TIP3    H229959   0.985   6.195   4.593
10028TIP3   OH229960   1.077   6.104   4.713
10028TIP3    H129961   1.065   6.031   4.777
10028TIP3    H229962   1.127   6.167   4.769
10029TIP3   OH229963   2.805   6.503   4.513
10029TIP3    H129964   2.829   6.536   4.601
10029TIP3    H229965   2.865   6.552   4.455
10030TIP3   OH229966   2.835   6.525   4.795
10030TIP3    H129967   2.788   6.438   4.790
10030TIP3    H229968   2.906   6.500   4.856
10031TIP3   OH229969   2.880   6.202   5.368
10031TIP3    H129970   2.806   6.209   5.432
10031TIP3    H229971   2.920   6.291   5.373
10032TIP3   OH229972   2.697   5.714   3.988
10032TIP3    H129973   2.765   5.778   3.961
10032TIP3    H229974   2.738   5.675   4.068
10033TIP3   OH229975   2.823   5.582   4.192
10033TIP3    H129976   2.758   5.539   4.251
10033TIP3    H229977   2.887   5.620   4.256
10034TIP3   OH229978   2.879   5.975   4.626
10034TIP3    H129979   2.931   5.910   4.575
10034TIP3    H229980   2.868   6.047   4.561
10035TIP3   OH229981   2.709   6.275   4.819
10035TIP3    H129982   2.638   6.317   4.872
10035TIP3    H229983   2.658   6.227   4.751
10036TIP3   OH229984   2.761   5.489   3.838
10036TIP3    H129985   2.689   5.493   3.771
10036TIP3    H229986   2.735   5.565   3.894
10037TIP3   OH229987   2.633   5.158   3.794
10037TIP3    H129988   2.589   5.201   3.720
10037TIP3    H229989   2.609   5.064   3.778
10038TIP3   OH229990   2.638   5.438   4.338
10038TIP3    H129991   2.645   5.341   4.334
10038TIP3    H229992   2.624   5.453   4.434
10039TIP3   OH229993   1.264   5.512   5.084
10039TIP3    H129994   1.263   5.481   4.991
10039TIP3    H229995   1.361   5.514   5.101
10040TIP3   OH229996   2.927   5.862   5.196
10040TIP3    H129997   2.999   5.797   5.186
10040TIP3    H229998   2.953   5.932   5.133
10041TIP3   OH229999   3.114   5.669   5.211
10041TIP3    H130000   3.038   5.619   5.250
10041TIP3    H230001   3.185   5.603   5.226
10042TIP3   OH230002   2.581   4.886   3.767
10042TIP3    H130003   2.652   4.865   3.831
10042TIP3    H230004   2.503   4.838   3.802
10043TIP3   OH230005   2.634   5.155   4.234
10043TIP3    H130006   2.674   5.066   4.250
10043TIP3    H230007   2.693   5.187   4.164
10044TIP3   OH230008   2.796   5.327   4.729
10044TIP3    H130009   2.882   5.355   4.689
10044TIP3    H230010   2.808   5.365   4.818
10045TIP3   OH230011   2.865   5.473   4.960
10045TIP3    H130012   2.787   5.505   5.009
10045TIP3    H230013   2.896   5.555   4.916
10046TIP3   OH230014   1.481   5.199   5.763
10046TIP3    H130015   1.579   5.191   5.762
10046TIP3    H230016   1.457   5.113   5.802
10047TIP3   OH230017   2.743   4.904   4.271
10047TIP3    H130018   2.789   4.887   4.355
10047TIP3    H230019   2.681   4.828   4.269
10048TIP3   OH230020   1.440   4.891   5.091
10048TIP3    H130021   1.503   4.817   5.103
10048TIP3    H230022   1.503   4.966   5.085
10049TIP3   OH230023   1.244   5.165   5.162
10049TIP3    H130024   1.295   5.160   5.079
10049TIP3    H230025   1.274   5.250   5.197
10050TIP3   OH230026   3.189   5.203   5.328
10050TIP3    H130027   3.102   5.237   5.355
10050TIP3    H230028   3.162   5.123   5.279
10051TIP3   OH230029   2.823   4.842   3.902
10051TIP3    H130030   2.864   4.768   3.853
10051TIP3    H230031   2.892   4.911   3.897
10052TIP3   OH230032   1.220   4.649   4.653
10052TIP3    H130033   1.138   4.674   4.699
10052TIP3    H230034   1.228   4.720   4.585
10053TIP3   OH230035   2.388   6.371   4.170
10053TIP3    H130036   2.440   6.356   4.089
10053TIP3    H230037   2.441   6.438   4.216
10054TIP3   OH230038   1.450   4.752   5.478
10054TIP3    H130039   1.405   4.739   5.563
10054TIP3    H230040   1.378   4.786   5.422
10055TIP3   OH230041   1.490   6.172   5.556
10055TIP3    H130042   1.397   6.148   5.539
10055TIP3    H230043   1.497   6.158   5.651
10056TIP3   OH230044   1.667   6.206   5.104
10056TIP3    H130045   1.617   6.282   5.066
10056TIP3    H230046   1.752   6.221   5.058
10057TIP3   OH230047   2.112   6.452   5.240
10057TIP3    H130048   2.153   6.452   5.329
10057TIP3    H230049   2.178   6.503   5.189
10058TIP3   OH230050   2.291   6.604   5.099
10058TIP3    H130051   2.363   6.552   5.060
10058TIP3    H230052   2.341   6.661   5.161
10059TIP3   OH230053   3.083   4.961   5.200
10059TIP3    H130054   2.991   4.981   5.173
10059TIP3    H230055   3.074   4.864   5.200
10060TIP3   OH230056   1.344   6.465   5.127
10060TIP3    H130057   1.254   6.498   5.104
10060TIP3    H230058   1.354   6.502   5.215
10061TIP3   OH230059   1.580   6.443   4.985
10061TIP3    H130060   1.494   6.456   5.031
10061TIP3    H230061   1.558   6.477   4.895
10062TIP3   OH230062   2.006   6.472   4.782
10062TIP3    H130063   1.936   6.493   4.718
10062TIP3    H230064   2.018   6.559   4.826
10063TIP3   OH230065   2.274   6.412   4.833
10063TIP3    H130066   2.179   6.427   4.815
10063TIP3    H230067   2.314   6.491   4.792
10064TIP3   OH230068   2.486   6.605   4.750
10064TIP3    H130069   2.468   6.689   4.702
10064TIP3    H230070   2.508   6.544   4.676
10065TIP3   OH230071   1.255   6.259   4.871
10065TIP3    H130072   1.280   6.233   4.962
10065TIP3    H230073   1.328   6.215   4.821
10066TIP3   OH230074   1.449   6.130   4.728
10066TIP3    H130075   1.464   6.045   4.777
10066TIP3    H230076   1.540   6.166   4.725
10067TIP3   OH230077   1.715   6.225   4.731
10067TIP3    H130078   1.745   6.133   4.720
10067TIP3    H230079   1.758   6.246   4.816
10068TIP3   OH230080   2.294   4.884   4.825
10068TIP3    H130081   2.248   4.814   4.875
10068TIP3    H230082   2.359   4.832   4.774
10069TIP3   OH230083   2.817   4.763   4.726
10069TIP3    H130084   2.850   4.814   4.649
10069TIP3    H230085   2.721   4.776   4.719
10070TIP3   OH230086   2.910   4.862   4.488
10070TIP3    H130087   2.982   4.810   4.447
10070TIP3    H230088   2.942   4.954   4.472
10071TIP3   OH230089   1.537   4.589   4.838
10071TIP3    H130090   1.446   4.552   4.840
10071TIP3    H230091   1.589   4.506   4.834
10072TIP3   OH230092   1.305   4.456   4.475
10072TIP3    H130093   1.349   4.510   4.407
10072TIP3    H230094   1.289   4.524   4.544
10073TIP3   OH230095   1.985   4.617   4.720
10073TIP3    H130096   2.037   4.669   4.656
10073TIP3    H230097   2.006   4.663   4.803
10074TIP3   OH230098   2.537   4.770   4.697
10074TIP3    H130099   2.525   4.732   4.609
10074TIP3    H230100   2.519   4.691   4.754
10075TIP3   OH230101   2.560   4.692   4.262
10075TIP3    H130102   2.474   4.735   4.277
10075TIP3    H230103   2.544   4.606   4.308
10076TIP3   OH230104   1.043   6.029   4.263
10076TIP3    H130105   0.958   5.998   4.228
10076TIP3    H230106   1.032   6.125   4.248
10077TIP3   OH230107   1.444   4.616   4.250
10077TIP3    H130108   1.495   4.558   4.191
10077TIP3    H230109   1.516   4.670   4.289
10078TIP3   OH230110   1.944   4.779   4.370
10078TIP3    H130111   2.019   4.748   4.423
10078TIP3    H230112   1.969   4.873   4.359
10079TIP3   OH230113   1.814   6.219   3.845
10079TIP3    H130114   1.902   6.241   3.809
10079TIP3    H230115   1.792   6.143   3.786
10080TIP3   OH230116   2.535   6.337   3.938
10080TIP3    H130117   2.526   6.240   3.925
10080TIP3    H230118   2.489   6.370   3.858
10081TIP3   OH230119   1.742   4.882   5.733
10081TIP3    H130120   1.714   4.788   5.744
10081TIP3    H230121   1.836   4.874   5.758
10082TIP3   OH230122   1.996   4.875   5.848
10082TIP3    H130123   2.089   4.849   5.839
10082TIP3    H230124   1.968   4.815   5.920
10083TIP3   OH230125   1.118   6.056   3.902
10083TIP3    H130126   1.118   6.081   3.996
10083TIP3    H230127   1.207   6.015   3.892
10084TIP3   OH230128   2.847   4.970   5.670
10084TIP3    H130129   2.865   4.911   5.746
10084TIP3    H230130   2.917   4.944   5.606
10085TIP3   OH230131   2.762   6.481   5.124
10085TIP3    H130132   2.682   6.448   5.078
10085TIP3    H230133   2.740   6.577   5.130
10086TIP3   OH230134   4.026   5.853   3.894
10086TIP3    H130135   3.996   5.944   3.872
10086TIP3    H230136   3.951   5.802   3.859
10087TIP3   OH230137   4.024   5.856   4.275
10087TIP3    H130138   4.056   5.822   4.360
10087TIP3    H230139   3.985   5.777   4.235
10088TIP3   OH230140   3.325   5.749   4.638
10088TIP3    H130141   3.355   5.682   4.701
10088TIP3    H230142   3.404   5.804   4.630
10089TIP3   OH230143   4.271   6.152   3.956
10089TIP3    H130144   4.255   6.081   4.019
10089TIP3    H230145   4.298   6.225   4.014
10090TIP3   OH230146   3.298   6.160   4.365
10090TIP3    H130147   3.286   6.062   4.366
10090TIP3    H230148   3.394   6.166   4.356
10091TIP3   OH230149   3.003   5.364   4.149
10091TIP3    H130150   2.952   5.447   4.163
10091TIP3    H230151   2.933   5.308   4.111
10092TIP3   OH230152   3.063   5.650   4.320
10092TIP3    H130153   3.111   5.573   4.357
10092TIP3    H230154   3.120   5.675   4.247
10093TIP3   OH230155   3.918   6.621   3.974
10093TIP3    H130156   3.962   6.551   3.921
10093TIP3    H230157   3.905   6.576   4.058
10094TIP3   OH230158   3.824   6.080   4.322
10094TIP3    H130159   3.859   6.002   4.275
10094TIP3    H230160   3.909   6.124   4.344
10095TIP3   OH230161   4.843   5.399   4.315
10095TIP3    H130162   4.867   5.484   4.358
10095TIP3    H230163   4.863   5.419   4.222
10096TIP3   OH230164   4.236   5.582   4.354
10096TIP3    H130165   4.279   5.497   4.374
10096TIP3    H230166   4.205   5.566   4.263
10097TIP3   OH230167   3.572   5.241   4.320
10097TIP3    H130168   3.553   5.313   4.256
10097TIP3    H230169   3.526   5.167   4.276
10098TIP3   OH230170   4.267   5.332   3.941
10098TIP3    H130171   4.340   5.316   4.006
10098TIP3    H230172   4.319   5.367   3.866
10099TIP3   OH230173   3.208   5.443   4.427
10099TIP3    H130174   3.291   5.422   4.474
10099TIP3    H230175   3.219   5.387   4.347
10100TIP3   OH230176   3.648   5.641   4.220
10100TIP3    H130177   3.742   5.615   4.233
10100TIP3    H230178   3.609   5.557   4.187
10101TIP3   OH230179   4.915   5.611   4.486
10101TIP3    H130180   4.828   5.654   4.467
10101TIP3    H230181   4.914   5.617   4.582
10102TIP3   OH230182   3.568   5.225   4.754
10102TIP3    H130183   3.511   5.259   4.683
10102TIP3    H230184   3.513   5.247   4.832
10103TIP3   OH230185   3.909   6.070   3.769
10103TIP3    H130186   3.881   6.054   3.678
10103TIP3    H230187   3.868   6.157   3.787
10104TIP3   OH230188   3.678   5.999   4.549
10104TIP3    H130189   3.614   6.064   4.585
10104TIP3    H230190   3.719   6.050   4.475
10105TIP3   OH230191   4.478   5.334   4.113
10105TIP3    H130192   4.470   5.283   4.194
10105TIP3    H230193   4.533   5.410   4.141
10106TIP3   OH230194   3.442   5.339   4.538
10106TIP3    H130195   3.504   5.412   4.559
10106TIP3    H230196   3.490   5.298   4.462
10107TIP3   OH230197   3.506   6.193   4.648
10107TIP3    H130198   3.477   6.277   4.607
10107TIP3    H230199   3.427   6.175   4.704
10108TIP3   OH230200   2.901   5.883   3.883
10108TIP3    H130201   2.859   5.909   3.799
10108TIP3    H230202   2.930   5.969   3.918
10109TIP3   OH230203   4.338   6.392   4.126
10109TIP3    H130204   4.248   6.384   4.164
10109TIP3    H230205   4.330   6.475   4.077
10110TIP3   OH230206   4.647   5.321   4.506
10110TIP3    H130207   4.555   5.319   4.475
10110TIP3    H230208   4.697   5.331   4.422
10111TIP3   OH230209   3.925   4.946   4.463
10111TIP3    H130210   3.918   4.851   4.481
10111TIP3    H230211   3.846   4.980   4.511
10112TIP3   OH230212   4.041   6.452   3.800
10112TIP3    H130213   4.084   6.364   3.780
10112TIP3    H230214   4.108   6.510   3.757
10113TIP3   OH230215   4.171   6.233   3.709
10113TIP3    H130216   4.169   6.159   3.646
10113TIP3    H230217   4.211   6.191   3.788
10114TIP3   OH230218   4.564   6.314   4.464
10114TIP3    H130219   4.555   6.234   4.407
10114TIP3    H230220   4.552   6.386   4.399
10115TIP3   OH230221   3.857   5.706   3.723
10115TIP3    H130222   3.777   5.757   3.700
10115TIP3    H230223   3.904   5.703   3.638
10116TIP3   OH230224   3.816   5.490   3.440
10116TIP3    H130225   3.884   5.540   3.488
10116TIP3    H230226   3.872   5.426   3.392
10117TIP3   OH230227   4.761   5.950   4.311
10117TIP3    H130228   4.677   6.001   4.316
10117TIP3    H230229   4.789   5.972   4.219
10118TIP3   OH230230   4.204   5.786   3.696
10118TIP3    H130231   4.150   5.812   3.774
10118TIP3    H230232   4.287   5.760   3.740
10119TIP3   OH230233   4.440   5.827   4.607
10119TIP3    H130234   4.437   5.910   4.656
10119TIP3    H230235   4.354   5.830   4.560
10120TIP3   OH230236   3.436   5.786   4.112
10120TIP3    H130237   3.394   5.728   4.044
10120TIP3    H230238   3.513   5.732   4.140
10121TIP3   OH230239   3.567   6.199   4.259
10121TIP3    H130240   3.544   6.157   4.175
10121TIP3    H230241   3.656   6.163   4.276
10122TIP3   OH230242   3.574   5.756   4.466
10122TIP3    H130243   3.606   5.735   4.376
10122TIP3    H230244   3.617   5.842   4.484
10123TIP3   OH230245   4.096   6.396   4.245
10123TIP3    H130246   4.084   6.472   4.303
10123TIP3    H230247   4.084   6.319   4.304
10124TIP3   OH230248   3.709   6.317   4.786
10124TIP3    H130249   3.648   6.376   4.835
10124TIP3    H230250   3.645   6.262   4.738
10125TIP3   OH230251   4.044   5.646   3.521
10125TIP3    H130252   4.104   5.704   3.573
10125TIP3    H230253   4.070   5.670   3.429
10126TIP3   OH230254   3.464   5.871   4.890
10126TIP3    H130255   3.468   5.957   4.936
10126TIP3    H230256   3.369   5.850   4.900
10127TIP3   OH230257   3.787   6.328   3.798
10127TIP3    H130258   3.867   6.382   3.812
10127TIP3    H230259   3.727   6.389   3.754
10128TIP3   OH230260   3.502   6.489   4.880
10128TIP3    H130261   3.470   6.479   4.788
10128TIP3    H230262   3.424   6.460   4.932
10129TIP3   OH230263   4.561   4.887   3.569
10129TIP3    H130264   4.479   4.907   3.620
10129TIP3    H230265   4.573   4.970   3.519
10130TIP3   OH230266   3.302   5.629   3.918
10130TIP3    H130267   3.236   5.673   3.860
10130TIP3    H230268   3.262   5.542   3.929
10131TIP3   OH230269   4.358   6.262   3.103
10131TIP3    H130270   4.364   6.345   3.154
10131TIP3    H230271   4.450   6.231   3.105
10132TIP3   OH230272   3.085   6.013   4.822
10132TIP3    H130273   3.018   5.991   4.755
10132TIP3    H230274   3.121   5.925   4.847
10133TIP3   OH230275   2.937   6.205   4.455
10133TIP3    H130276   3.033   6.201   4.447
10133TIP3    H230277   2.925   6.285   4.509
10134TIP3   OH230278   4.803   6.654   4.512
10134TIP3    H130279   4.802   6.558   4.527
10134TIP3    H230280   4.719   6.680   4.557
10135TIP3   OH230281   3.906   6.449   4.649
10135TIP3    H130282   3.897   6.539   4.683
10135TIP3    H230283   3.834   6.403   4.698
10136TIP3   OH230284   3.669   6.571   3.599
10136TIP3    H130285   3.624   6.549   3.515
10136TIP3    H230286   3.635   6.661   3.618
10137TIP3   OH230287   3.107   6.421   3.982
10137TIP3    H130288   3.153   6.411   4.068
10137TIP3    H230289   3.050   6.342   3.982
10138TIP3   OH230290   3.871   6.471   3.240
10138TIP3    H130291   3.929   6.402   3.199
10138TIP3    H230292   3.911   6.480   3.328
10139TIP3   OH230293   3.923   6.524   3.513
10139TIP3    H130294   3.833   6.531   3.551
10139TIP3    H230295   3.966   6.465   3.578
10140TIP3   OH230296   4.692   5.788   4.785
10140TIP3    H130297   4.611   5.799   4.733
10140TIP3    H230298   4.710   5.692   4.773
10141TIP3   OH230299   3.289   6.197   4.814
10141TIP3    H130300   3.339   6.176   4.896
10141TIP3    H230301   3.215   6.133   4.819
10142TIP3   OH230302   3.685   5.021   4.591
10142TIP3    H130303   3.596   4.990   4.565
10142TIP3    H230304   3.661   5.103   4.637
10143TIP3   OH230305   4.208   5.138   4.777
10143TIP3    H130306   4.269   5.094   4.838
10143TIP3    H230307   4.120   5.113   4.814
10144TIP3   OH230308   4.459   5.562   4.712
10144TIP3    H130309   4.411   5.560   4.797
10144TIP3    H230310   4.435   5.650   4.675
10145TIP3   OH230311   4.120   5.692   3.264
10145TIP3    H130312   4.088   5.667   3.175
10145TIP3    H230313   4.200   5.742   3.241
10146TIP3   OH230314   3.833   5.068   3.566
10146TIP3    H130315   3.801   5.066   3.659
10146TIP3    H230316   3.795   4.984   3.534
10147TIP3   OH230317   3.620   5.534   4.615
10147TIP3    H130318   3.569   5.554   4.696
10147TIP3    H230319   3.604   5.615   4.561
10148TIP3   OH230320   3.503   5.421   4.128
10148TIP3    H130321   3.411   5.394   4.146
10148TIP3    H230322   3.517   5.380   4.040
10149TIP3   OH230323   3.994   5.507   3.856
10149TIP3    H130324   3.941   5.578   3.814
10149TIP3    H230325   4.049   5.476   3.781
10150TIP3   OH230326   4.169   5.786   4.944
10150TIP3    H130327   4.146   5.712   5.005
10150TIP3    H230328   4.263   5.798   4.965
10151TIP3   OH230329   4.152   5.536   4.095
10151TIP3    H130330   4.092   5.564   4.022
10151TIP3    H230331   4.186   5.453   4.053
10152TIP3   OH230332   3.439   5.566   4.823
10152TIP3    H130333   3.463   5.628   4.893
10152TIP3    H230334   3.425   5.483   4.873
10153TIP3   OH230335   3.489   5.041   3.533
10153TIP3    H130336   3.480   5.037   3.631
10153TIP3    H230337   3.410   5.093   3.509
10154TIP3   OH230338   3.032   5.087   4.403
10154TIP3    H130339   3.108   5.118   4.456
10154TIP3    H230340   3.073   5.052   4.322
10155TIP3   OH230341   3.005   5.066   3.922
10155TIP3    H130342   3.050   5.106   3.845
10155TIP3    H230343   2.944   5.139   3.945
10156TIP3   OH230344   4.162   5.782   4.519
10156TIP3    H130345   4.195   5.710   4.460
10156TIP3    H230346   4.134   5.729   4.596
10157TIP3   OH230347   3.830   5.246   4.190
10157TIP3    H130348   3.750   5.242   4.245
10157TIP3    H230349   3.901   5.237   4.257
10158TIP3   OH230350   3.265   5.298   4.198
10158TIP3    H130351   3.171   5.305   4.172
10158TIP3    H230352   3.289   5.207   4.175
10159TIP3   OH230353   3.535   5.295   3.886
10159TIP3    H130354   3.629   5.310   3.866
10159TIP3    H230355   3.489   5.318   3.803
10160TIP3   OH230356   4.323   5.319   4.393
10160TIP3    H130357   4.285   5.331   4.483
10160TIP3    H230358   4.260   5.255   4.355
10161TIP3   OH230359   3.375   5.329   3.665
10161TIP3    H130360   3.304   5.284   3.616
10161TIP3    H230361   3.428   5.364   3.590
10162TIP3   OH230362   4.490   7.009   4.611
10162TIP3    H130363   4.492   7.031   4.516
10162TIP3    H230364   4.571   7.054   4.643
10163TIP3   OH230365   3.450   6.119   5.032
10163TIP3    H130366   3.529   6.148   5.082
10163TIP3    H230367   3.385   6.114   5.105
10164TIP3   OH230368   3.915   5.572   4.288
10164TIP3    H130369   3.985   5.530   4.235
10164TIP3    H230370   3.924   5.527   4.374
10165TIP3   OH230371   3.437   5.058   4.166
10165TIP3    H130372   3.403   4.978   4.211
10165TIP3    H230373   3.489   5.020   4.094
10166TIP3   OH230374   3.890   5.466   4.578
10166TIP3    H130375   3.801   5.503   4.592
10166TIP3    H230376   3.948   5.527   4.628
10167TIP3   OH230377   3.626   5.859   3.671
10167TIP3    H130378   3.554   5.793   3.661
10167TIP3    H230379   3.610   5.892   3.763
10168TIP3   OH230380   4.527   6.095   4.302
10168TIP3    H130381   4.552   6.142   4.220
10168TIP3    H230382   4.442   6.053   4.277
10169TIP3   OH230383   4.086   5.171   3.535
10169TIP3    H130384   3.989   5.155   3.543
10169TIP3    H230385   4.096   5.265   3.557
10170TIP3   OH230386   4.032   6.180   4.669
10170TIP3    H130387   4.051   6.148   4.758
10170TIP3    H230388   3.987   6.264   4.684
10171TIP3   OH230389   4.155   5.418   3.637
10171TIP3    H130390   4.251   5.424   3.652
10171TIP3    H230391   4.137   5.497   3.583
10172TIP3   OH230392   3.321   5.883   4.349
10172TIP3    H130393   3.358   5.853   4.263
10172TIP3    H230394   3.357   5.817   4.410
10173TIP3   OH230395   3.772   6.008   3.492
10173TIP3    H130396   3.726   6.094   3.500
10173TIP3    H230397   3.719   5.952   3.553
10174TIP3   OH230398   3.200   5.800   4.961
10174TIP3    H130399   3.218   5.785   5.055
10174TIP3    H230400   3.130   5.734   4.944
10175TIP3   OH230401   3.926   5.916   4.981
10175TIP3    H130402   3.866   5.857   4.932
10175TIP3    H230403   4.013   5.881   4.954
10176TIP3   OH230404   4.188   6.447   4.561
10176TIP3    H130405   4.092   6.434   4.576
10176TIP3    H230406   4.213   6.493   4.643
10177TIP3   OH230407   4.598   5.508   3.474
10177TIP3    H130408   4.536   5.462   3.412
10177TIP3    H230409   4.594   5.597   3.432
10178TIP3   OH230410   4.814   6.366   4.555
10178TIP3    H130411   4.716   6.359   4.546
10178TIP3    H230412   4.841   6.336   4.465
10179TIP3   OH230413   4.293   5.957   4.221
10179TIP3    H130414   4.200   5.929   4.233
10179TIP3    H230415   4.329   5.877   4.177
10180TIP3   OH230416   3.420   6.185   3.977
10180TIP3    H130417   3.421   6.265   3.920
10180TIP3    H230418   3.326   6.166   3.981
10181TIP3   OH230419   2.983   5.489   3.676
10181TIP3    H130420   3.030   5.572   3.697
10181TIP3    H230421   2.906   5.495   3.737
10182TIP3   OH230422   3.559   5.950   3.918
10182TIP3    H130423   3.525   6.040   3.936
10182TIP3    H230424   3.522   5.900   3.993
10183TIP3   OH230425   3.689   6.528   4.443
10183TIP3    H130426   3.729   6.600   4.390
10183TIP3    H230427   3.768   6.490   4.485
10184TIP3   OH230428   3.340   6.423   3.826
10184TIP3    H130429   3.254   6.430   3.871
10184TIP3    H230430   3.371   6.516   3.828
10185TIP3   OH230431   4.081   6.165   4.399
10185TIP3    H130432   4.072   6.161   4.497
10185TIP3    H230433   4.156   6.105   4.384
10186TIP3   OH230434   4.050   6.051   3.285
10186TIP3    H130435   4.106   6.033   3.364
10186TIP3    H230436   3.963   6.025   3.319
10187TIP3   OH230437   4.324   6.699   4.458
10187TIP3    H130438   4.249   6.637   4.449
10187TIP3    H230439   4.309   6.760   4.382
10188TIP3   OH230440   3.400   5.314   4.962
10188TIP3    H130441   3.304   5.328   4.971
10188TIP3    H230442   3.417   5.255   5.036
10189TIP3   OH230443   4.207   5.992   3.508
10189TIP3    H130444   4.205   5.920   3.574
10189TIP3    H230445   4.303   5.995   3.488
10190TIP3   OH230446   3.130   6.391   4.600
10190TIP3    H130447   3.179   6.314   4.631
10190TIP3    H230448   3.154   6.457   4.667
10191TIP3   OH230449   3.417   6.036   3.283
10191TIP3    H130450   3.434   5.945   3.253
10191TIP3    H230451   3.399   6.022   3.378
10192TIP3   OH230452   3.364   6.040   3.556
10192TIP3    H130453   3.437   6.012   3.613
10192TIP3    H230454   3.369   6.138   3.563
10193TIP3   OH230455   3.100   5.733   3.758
10193TIP3    H130456   3.034   5.778   3.815
10193TIP3    H230457   3.115   5.803   3.691
10194TIP3   OH230458   4.244   5.379   4.650
10194TIP3    H130459   4.329   5.411   4.687
10194TIP3    H230460   4.229   5.296   4.699
10195TIP3   OH230461   4.128   5.123   3.815
10195TIP3    H130462   4.115   5.146   3.721
10195TIP3    H230463   4.168   5.204   3.851
10196TIP3   OH230464   3.630   6.239   3.506
10196TIP3    H130465   3.543   6.267   3.539
10196TIP3    H230466   3.646   6.305   3.437
10197TIP3   OH230467   3.817   5.302   3.917
10197TIP3    H130468   3.883   5.372   3.899
10197TIP3    H230469   3.823   5.294   4.015
10198TIP3   OH230470   4.086   5.620   4.726
10198TIP3    H130471   4.110   5.671   4.805
10198TIP3    H230472   4.143   5.541   4.733
10199TIP3   OH230473   3.963   5.028   4.019
10199TIP3    H130474   3.962   5.102   4.082
10199TIP3    H230475   4.023   5.064   3.950
10200TIP3   OH230476   3.373   6.314   3.571
10200TIP3    H130477   3.343   6.383   3.508
10200TIP3    H230478   3.357   6.357   3.657
10201TIP3   OH230479   3.474   5.026   3.810
10201TIP3    H130480   3.471   5.117   3.846
10201TIP3    H230481   3.570   5.008   3.818
10202TIP3   OH230482   4.725   5.523   4.694
10202TIP3    H130483   4.628   5.524   4.712
10202TIP3    H230484   4.724   5.465   4.616
10203TIP3   OH230485   4.378   5.716   4.096
10203TIP3    H130486   4.303   5.655   4.106
10203TIP3    H230487   4.450   5.668   4.143
10204TIP3   OH230488   3.091   5.944   3.564
10204TIP3    H130489   3.158   6.014   3.573
10204TIP3    H230490   3.136   5.888   3.497
10205TIP3   OH230491   3.037   5.219   3.697
10205TIP3    H130492   3.036   5.317   3.693
10205TIP3    H230493   2.951   5.197   3.659
10206TIP3   OH230494   4.352   6.663   4.046
10206TIP3    H130495   4.317   6.720   3.974
10206TIP3    H230496   4.438   6.701   4.069
10207TIP3   OH230497   3.422   4.942   4.568
10207TIP3    H130498   3.391   4.909   4.481
10207TIP3    H230499   3.412   4.861   4.624
10208TIP3   OH230500   2.964   6.161   3.953
10208TIP3    H130501   2.892   6.189   4.010
10208TIP3    H230502   2.936   6.200   3.866
10209TIP3   OH230503   3.119   6.697   5.018
10209TIP3    H130504   3.202   6.691   5.069
10209TIP3    H230505   3.090   6.604   5.019
10210TIP3   OH230506   3.640   6.684   5.021
10210TIP3    H130507   3.704   6.623   5.063
10210TIP3    H230508   3.582   6.617   4.977
10211TIP3   OH230509   3.582   6.240   3.198
10211TIP3    H130510   3.528   6.167   3.234
10211TIP3    H230511   3.658   6.189   3.162
10212TIP3   OH230512   4.231   6.576   4.804
10212TIP3    H130513   4.227   6.501   4.868
10212TIP3    H230514   4.315   6.619   4.830
10213TIP3   OH230515   4.018   6.280   3.105
10213TIP3    H130516   4.069   6.223   3.166
10213TIP3    H230517   4.078   6.286   3.028
10214TIP3   OH230518   3.250   6.106   5.222
10214TIP3    H130519   3.266   6.010   5.229
10214TIP3    H230520   3.161   6.108   5.180
10215TIP3   OH230521   3.226   5.757   3.417
10215TIP3    H130522   3.282   5.723   3.489
10215TIP3    H230523   3.293   5.760   3.345
10216TIP3   OH230524   3.858   6.190   4.995
10216TIP3    H130525   3.815   6.201   4.909
10216TIP3    H230526   3.890   6.097   4.991
10217TIP3   OH230527   3.731   5.953   3.223
10217TIP3    H130528   3.737   5.967   3.320
10217TIP3    H230529   3.734   5.854   3.219
10218TIP3   OH230530   4.351   6.198   4.604
10218TIP3    H130531   4.424   6.244   4.558
10218TIP3    H230532   4.278   6.259   4.588
10219TIP3   OH230533   3.369   5.842   5.204
10219TIP3    H130534   3.440   5.779   5.187
10219TIP3    H230535   3.393   5.872   5.295
10220TIP3   OH230536   3.434   5.659   3.639
10220TIP3    H130537   3.409   5.617   3.722
10220TIP3    H230538   3.471   5.584   3.587
10221TIP3   OH230539   3.705   5.725   4.869
10221TIP3    H130540   3.626   5.784   4.870
10221TIP3    H230541   3.753   5.758   4.789
10222TIP3   OH230542   3.536   5.453   3.480
10222TIP3    H130543   3.509   5.455   3.385
10222TIP3    H230544   3.633   5.460   3.471
10223TIP3   OH230545   4.221   6.127   5.000
10223TIP3    H130546   4.302   6.102   4.953
10223TIP3    H230547   4.218   6.061   5.071
10224TIP3   OH230548   4.357   5.784   3.142
10224TIP3    H130549   4.336   5.739   3.058
10224TIP3    H230550   4.327   5.875   3.119
10225TIP3   OH230551   3.824   5.510   4.994
10225TIP3    H130552   3.827   5.432   4.935
10225TIP3    H230553   3.783   5.577   4.936
10226TIP3   OH230554   3.827   5.300   4.800
10226TIP3    H130555   3.856   5.340   4.715
10226TIP3    H230556   3.734   5.277   4.780
10227TIP3   OH230557   3.857   5.836   4.675
10227TIP3    H130558   3.939   5.838   4.624
10227TIP3    H230559   3.801   5.902   4.628
10228TIP3   OH230560   4.438   5.803   5.053
10228TIP3    H130561   4.485   5.720   5.072
10228TIP3    H230562   4.509   5.858   5.018
10229TIP3   OH230563   4.480   6.055   4.792
10229TIP3    H130564   4.423   6.108   4.732
10229TIP3    H230565   4.568   6.073   4.752
10230TIP3   OH230566   3.705   5.625   5.224
10230TIP3    H130567   3.634   5.560   5.239
10230TIP3    H230568   3.739   5.597   5.136
10231TIP3   OH230569   3.960   5.068   4.868
10231TIP3    H130570   3.907   5.146   4.840
10231TIP3    H230571   3.896   4.994   4.855
10232TIP3   OH230572   4.087   5.568   5.083
10232TIP3    H130573   4.077   5.556   5.179
10232TIP3    H230574   3.997   5.541   5.055
10233TIP3   OH230575   4.327   5.514   4.941
10233TIP3    H130576   4.251   5.517   5.002
10233TIP3    H230577   4.399   5.481   5.000
10234TIP3   OH230578   4.547   5.443   5.097
10234TIP3    H130579   4.593   5.364   5.126
10234TIP3    H230580   4.547   5.498   5.179
10235TIP3   OH230581   3.549   5.399   5.274
10235TIP3    H130582   3.604   5.329   5.237
10235TIP3    H230583   3.575   5.392   5.369
10236TIP3   OH230584   4.011   5.087   5.135
10236TIP3    H130585   4.037   4.995   5.146
10236TIP3    H230586   3.989   5.088   5.039
10237TIP3   OH230587   4.123   5.293   5.279
10237TIP3    H130588   4.087   5.225   5.219
10237TIP3    H230589   4.048   5.356   5.283
10238TIP3   OH230590   3.343   6.517   3.385
10238TIP3    H130591   3.439   6.512   3.364
10238TIP3    H230592   3.312   6.565   3.305
10239TIP3   OH230593   2.822   5.897   3.600
10239TIP3    H130594   2.917   5.919   3.587
10239TIP3    H230595   2.817   5.809   3.559
10240TIP3   OH230596   2.737   6.510   4.013
10240TIP3    H130597   2.669   6.448   3.978
10240TIP3    H230598   2.781   6.453   4.079
10241TIP3   OH230599   2.873   6.362   4.201
10241TIP3    H130600   2.860   6.288   4.262
10241TIP3    H230601   2.922   6.423   4.258
10242TIP3   OH230602   4.619   6.782   4.288
10242TIP3    H130603   4.584   6.691   4.287
10242TIP3    H230604   4.705   6.766   4.331
10243TIP3   OH230605   4.674   6.460   4.854
10243TIP3    H130606   4.603   6.467   4.921
10243TIP3    H230607   4.717   6.547   4.860
10244TIP3   OH230608   4.490   5.968   3.476
10244TIP3    H130609   4.555   6.034   3.446
10244TIP3    H230610   4.536   5.930   3.554
10245TIP3   OH230611   4.621   5.839   3.680
10245TIP3    H130612   4.555   5.796   3.739
10245TIP3    H230613   4.685   5.876   3.743
10246TIP3   OH230614   4.672   6.230   4.111
10246TIP3    H130615   4.727   6.166   4.062
10246TIP3    H230616   4.664   6.305   4.049
10247TIP3   OH230617   4.503   6.531   4.302
10247TIP3    H130618   4.433   6.564   4.361
10247TIP3    H230619   4.453   6.477   4.238
10248TIP3   OH230620   4.557   5.745   3.326
10248TIP3    H130621   4.486   5.749   3.258
10248TIP3    H230622   4.530   5.822   3.380
10249TIP3   OH230623   4.428   5.420   3.282
10249TIP3    H130624   4.388   5.460   3.204
10249TIP3    H230625   4.403   5.325   3.270
10250TIP3   OH230626   4.434   5.694   3.826
10250TIP3    H130627   4.442   5.598   3.820
10250TIP3    H230628   4.421   5.709   3.922
10251TIP3   OH230629   3.060   5.768   4.572
10251TIP3    H130630   3.058   5.737   4.479
10251TIP3    H230631   3.157   5.770   4.588
10252TIP3   OH230632   4.722   6.120   4.681
10252TIP3    H130633   4.793   6.053   4.674
10252TIP3    H230634   4.752   6.190   4.621
10253TIP3   OH230635   4.907   5.928   4.701
10253TIP3    H130636   4.832   5.875   4.738
10253TIP3    H230637   4.980   5.864   4.714
10254TIP3   OH230638   4.373   5.153   3.266
10254TIP3    H130639   4.448   5.123   3.321
10254TIP3    H230640   4.300   5.094   3.292
10255TIP3   OH230641   4.430   5.411   3.721
10255TIP3    H130642   4.471   5.323   3.736
10255TIP3    H230643   4.488   5.444   3.650
10256TIP3   OH230644   4.592   5.586   4.214
10256TIP3    H130645   4.678   5.613   4.175
10256TIP3    H230646   4.605   5.620   4.305
10257TIP3   OH230647   4.661   5.729   4.447
10257TIP3    H130648   4.584   5.762   4.496
10257TIP3    H230649   4.693   5.811   4.402
10258TIP3   OH230650   3.279   5.454   5.251
10258TIP3    H130651   3.377   5.443   5.253
10258TIP3    H230652   3.252   5.370   5.292
10259TIP3   OH230653   5.108   5.369   5.015
10259TIP3    H130654   5.134   5.281   4.985
10259TIP3    H230655   5.063   5.405   4.935
10260TIP3   OH230656   4.538   5.161   3.758
10260TIP3    H130657   4.586   5.144   3.842
10260TIP3    H230658   4.478   5.084   3.756
10261TIP3   OH230659   3.239   5.148   4.578
10261TIP3    H130660   3.301   5.073   4.586
10261TIP3    H230661   3.301   5.223   4.571
10262TIP3   OH230662   3.043   5.421   4.652
10262TIP3    H130663   3.091   5.414   4.567
10262TIP3    H230664   3.070   5.508   4.682
10263TIP3   OH230665   4.982   5.465   4.796
10263TIP3    H130666   4.896   5.497   4.831
10263TIP3    H230667   4.949   5.386   4.748
10264TIP3   OH230668   4.620   5.096   3.391
10264TIP3    H130669   4.660   5.024   3.338
10264TIP3    H230670   4.687   5.167   3.383
10265TIP3   OH230671   3.025   4.926   4.153
10265TIP3    H130672   2.931   4.922   4.179
10265TIP3    H230673   3.022   4.983   4.074
10266TIP3   OH230674   4.213   6.616   3.656
10266TIP3    H130675   4.232   6.577   3.569
10266TIP3    H230676   4.221   6.711   3.639
10267TIP3   OH230677   3.239   5.000   4.970
10267TIP3    H130678   3.186   4.996   5.052
10267TIP3    H230679   3.175   5.044   4.910
10268TIP3   OH230680   3.286   6.434   5.049
10268TIP3    H130681   3.195   6.407   5.025
10268TIP3    H230682   3.291   6.406   5.141
10269TIP3   OH230683   3.465   6.466   4.596
10269TIP3    H130684   3.413   6.538   4.555
10269TIP3    H230685   3.548   6.479   4.547
10270TIP3   OH230686   3.912   6.732   4.742
10270TIP3    H130687   3.974   6.697   4.810
10270TIP3    H230688   3.976   6.765   4.675
10271TIP3   OH230689   4.091   6.857   4.585
10271TIP3    H130690   4.160   6.806   4.539
10271TIP3    H230691   4.146   6.915   4.642
10272TIP3   OH230692   4.881   5.223   4.673
10272TIP3    H130693   4.789   5.242   4.646
10272TIP3    H230694   4.878   5.128   4.691
10273TIP3   OH230695   3.141   6.725   4.613
10273TIP3    H130696   3.052   6.757   4.587
10273TIP3    H230697   3.143   6.752   4.705
10274TIP3   OH230698   3.378   6.702   4.474
10274TIP3    H130699   3.291   6.715   4.518
10274TIP3    H230700   3.358   6.734   4.384
10275TIP3   OH230701   3.800   6.729   4.269
10275TIP3    H130702   3.731   6.746   4.203
10275TIP3    H230703   3.811   6.818   4.308
10276TIP3   OH230704   4.068   6.673   4.324
10276TIP3    H130705   3.973   6.684   4.300
10276TIP3    H230706   4.107   6.751   4.282
10277TIP3   OH230707   4.273   6.864   4.238
10277TIP3    H130708   4.260   6.950   4.193
10277TIP3    H230709   4.286   6.803   4.163
10278TIP3   OH230710   3.052   6.517   4.359
10278TIP3    H130711   3.078   6.489   4.450
10278TIP3    H230712   3.123   6.472   4.308
10279TIP3   OH230713   3.244   6.387   4.216
10279TIP3    H130714   3.260   6.302   4.264
10279TIP3    H230715   3.336   6.422   4.211
10280TIP3   OH230716   3.512   6.483   4.217
10280TIP3    H130717   3.541   6.391   4.203
10280TIP3    H230718   3.554   6.501   4.303
10281TIP3   OH230719   4.082   5.136   4.300
10281TIP3    H130720   4.043   5.067   4.357
10281TIP3    H230721   4.158   5.089   4.261
10282TIP3   OH230722   4.612   5.016   4.213
10282TIP3    H130723   4.647   5.067   4.137
10282TIP3    H230724   4.516   5.034   4.208
10283TIP3   OH230725   4.705   5.119   3.975
10283TIP3    H130726   4.778   5.067   3.935
10283TIP3    H230727   4.738   5.210   3.960
10284TIP3   OH230728   3.335   4.846   4.323
10284TIP3    H130729   3.243   4.812   4.324
10284TIP3    H230730   3.385   4.762   4.320
10285TIP3   OH230731   3.119   4.717   3.969
10285TIP3    H130732   3.151   4.775   3.897
10285TIP3    H230733   3.092   4.781   4.037
10286TIP3   OH230734   3.778   4.880   4.204
10286TIP3    H130735   3.837   4.928   4.143
10286TIP3    H230736   3.805   4.915   4.290
10287TIP3   OH230737   4.326   5.027   4.187
10287TIP3    H130738   4.327   4.989   4.099
10287TIP3    H230739   4.311   4.947   4.243
10288TIP3   OH230740   4.356   4.947   3.749
10288TIP3    H130741   4.269   4.990   3.761
10288TIP3    H230742   4.341   4.863   3.796
10289TIP3   OH230743   2.839   6.286   3.749
10289TIP3    H130744   2.754   6.253   3.716
10289TIP3    H230745   2.828   6.381   3.731
10290TIP3   OH230746   3.239   4.878   3.733
10290TIP3    H130747   3.287   4.814   3.677
10290TIP3    H230748   3.312   4.931   3.770
10291TIP3   OH230749   3.752   5.050   3.832
10291TIP3    H130750   3.812   5.005   3.893
10291TIP3    H230751   3.772   5.143   3.857
10292TIP3   OH230752   3.611   6.476   3.333
10292TIP3    H130753   3.700   6.497   3.296
10292TIP3    H230754   3.588   6.401   3.273
10293TIP3   OH230755   3.790   5.132   5.338
10293TIP3    H130756   3.861   5.120   5.274
10293TIP3    H230757   3.790   5.047   5.383
10294TIP3   OH230758   2.915   6.312   3.389
10294TIP3    H130759   2.915   6.337   3.482
10294TIP3    H230760   3.004   6.271   3.378
10295TIP3   OH230761   4.556   6.739   4.614
10295TIP3    H130762   4.477   6.708   4.565
10295TIP3    H230763   4.538   6.835   4.617
10296TIP3   OH230764   5.822   6.110   3.379
10296TIP3    H130765   5.794   6.202   3.358
10296TIP3    H230766   5.746   6.060   3.345
10297TIP3   OH230767   5.820   6.111   3.761
10297TIP3    H130768   5.852   6.081   3.847
10297TIP3    H230769   5.780   6.031   3.724
10298TIP3   OH230770   5.119   6.007   4.127
10298TIP3    H130771   5.152   5.940   4.189
10298TIP3    H230772   5.200   6.059   4.112
10299TIP3   OH230773   6.065   6.412   3.441
10299TIP3    H130774   6.051   6.343   3.507
10299TIP3    H230775   6.093   6.487   3.496
10300TIP3   OH230776   5.092   6.415   3.851
10300TIP3    H130777   5.084   6.317   3.853
10300TIP3    H230778   5.189   6.424   3.843
10301TIP3   OH230779   4.798   5.620   3.636
10301TIP3    H130780   4.748   5.703   3.649
10301TIP3    H230781   4.729   5.564   3.596
10302TIP3   OH230782   4.859   5.907   3.809
10302TIP3    H130783   4.908   5.830   3.844
10302TIP3    H230784   4.915   5.933   3.734
10303TIP3   OH230785   5.714   6.874   3.458
10303TIP3    H130786   5.759   6.803   3.407
10303TIP3    H230787   5.710   6.835   3.546
10304TIP3   OH230788   5.620   6.336   3.809
10304TIP3    H130789   5.658   6.259   3.762
10304TIP3    H230790   5.703   6.381   3.833
10305TIP3   OH230791   6.643   5.656   3.798
10305TIP3    H130792   6.662   5.741   3.843
10305TIP3    H230793   6.663   5.678   3.705
10306TIP3   OH230794   6.032   5.838   3.841
10306TIP3    H130795   6.076   5.753   3.861
10306TIP3    H230796   6.001   5.823   3.750
10307TIP3   OH230797   5.369   5.497   3.807
10307TIP3    H130798   5.350   5.570   3.743
10307TIP3    H230799   5.322   5.423   3.762
10308TIP3   OH230800   6.063   5.588   3.428
10308TIP3    H130801   6.136   5.572   3.493
10308TIP3    H230802   6.115   5.623   3.354
10309TIP3   OH230803   5.004   5.699   3.914
10309TIP3    H130804   5.087   5.678   3.960
10309TIP3    H230805   5.015   5.643   3.834
10310TIP3   OH230806   5.444   5.897   3.708
10310TIP3    H130807   5.538   5.872   3.720
10310TIP3    H230808   5.405   5.813   3.674
10311TIP3   OH230809   6.710   5.868   3.972
10311TIP3    H130810   6.623   5.908   3.954
10311TIP3    H230811   6.718   5.889   4.066
10312TIP3   OH230812   5.366   5.483   4.240
10312TIP3    H130813   5.308   5.517   4.169
10312TIP3    H230814   5.312   5.503   4.318
10313TIP3   OH230815   5.713   6.331   3.249
10313TIP3    H130816   5.672   6.311   3.164
10313TIP3    H230817   5.669   6.415   3.272
10314TIP3   OH230818   5.473   6.255   4.036
10314TIP3    H130819   5.411   6.322   4.072
10314TIP3    H230820   5.516   6.306   3.964
10315TIP3   OH230821   6.274   5.591   3.600
10315TIP3    H130822   6.265   5.541   3.682
10315TIP3    H230823   6.328   5.667   3.628
10316TIP3   OH230824   5.238   5.596   4.024
10316TIP3    H130825   5.300   5.669   4.046
10316TIP3    H230826   5.286   5.555   3.949
10317TIP3   OH230827   5.301   6.450   4.133
10317TIP3    H130828   5.275   6.535   4.093
10317TIP3    H230829   5.223   6.434   4.190
10318TIP3   OH230830   4.694   6.136   3.367
10318TIP3    H130831   4.648   6.158   3.284
10318TIP3    H230832   4.699   6.223   3.410
10319TIP3   OH230833   6.135   6.655   3.610
10319TIP3    H130834   6.045   6.647   3.648
10319TIP3    H230835   6.128   6.741   3.564
10320TIP3   OH230836   6.430   5.599   3.978
10320TIP3    H130837   6.340   5.584   3.944
10320TIP3    H230838   6.484   5.596   3.897
10321TIP3   OH230839   5.720   5.203   3.949
10321TIP3    H130840   5.715   5.108   3.967
10321TIP3    H230841   5.641   5.235   3.997
10322TIP3   OH230842   5.836   6.702   3.283
10322TIP3    H130843   5.886   6.620   3.262
10322TIP3    H230844   5.896   6.768   3.241
10323TIP3   OH230845   5.978   6.487   3.190
10323TIP3    H130846   5.944   6.407   3.148
10323TIP3    H230847   6.015   6.452   3.274
10324TIP3   OH230848   6.361   6.569   3.953
10324TIP3    H130849   6.351   6.491   3.893
10324TIP3    H230850   6.344   6.643   3.892
10325TIP3   OH230851   5.653   5.963   3.210
10325TIP3    H130852   5.572   6.013   3.187
10325TIP3    H230853   5.699   5.960   3.124
10326TIP3   OH230854   5.612   5.746   2.927
10326TIP3    H130855   5.680   5.796   2.975
10326TIP3    H230856   5.668   5.682   2.879
10327TIP3   OH230857   6.557   6.205   3.797
10327TIP3    H130858   6.474   6.257   3.802
10327TIP3    H230859   6.586   6.229   3.706
10328TIP3   OH230860   6.000   6.045   3.182
10328TIP3    H130861   5.945   6.070   3.260
10328TIP3    H230862   6.083   6.018   3.226
10329TIP3   OH230863   6.236   6.084   4.093
10329TIP3    H130864   6.233   6.168   4.142
10329TIP3    H230865   6.150   6.087   4.046
10330TIP3   OH230866   5.232   6.043   3.599
10330TIP3    H130867   5.190   5.985   3.531
10330TIP3    H230868   5.309   5.989   3.627
10331TIP3   OH230869   5.360   6.452   3.748
10331TIP3    H130870   5.341   6.412   3.662
10331TIP3    H230871   5.451   6.419   3.766
10332TIP3   OH230872   5.367   6.014   3.953
10332TIP3    H130873   5.400   5.992   3.864
10332TIP3    H230874   5.412   6.099   3.972
10333TIP3   OH230875   5.893   6.652   3.729
10333TIP3    H130876   5.880   6.731   3.784
10333TIP3    H230877   5.880   6.578   3.792
10334TIP3   OH230878   5.507   6.570   4.277
10334TIP3    H130879   5.447   6.633   4.323
10334TIP3    H230880   5.441   6.517   4.228
10335TIP3   OH230881   5.842   5.902   3.008
10335TIP3    H130882   5.901   5.961   3.060
10335TIP3    H230883   5.867   5.926   2.916
10336TIP3   OH230884   5.262   6.126   4.380
10336TIP3    H130885   5.266   6.213   4.423
10336TIP3    H230886   5.166   6.108   4.385
10337TIP3   OH230887   5.583   6.583   3.286
10337TIP3    H130888   5.664   6.636   3.299
10337TIP3    H230889   5.524   6.646   3.242
10338TIP3   OH230890   5.301   6.740   4.363
10338TIP3    H130891   5.266   6.736   4.271
10338TIP3    H230892   5.221   6.718   4.416
10339TIP3   OH230893   6.357   5.143   3.056
10339TIP3    H130894   6.275   5.163   3.107
10339TIP3    H230895   6.369   5.227   3.006
10340TIP3   OH230896   5.097   5.886   3.406
10340TIP3    H130897   5.033   5.931   3.348
10340TIP3    H230898   5.058   5.799   3.414
10341TIP3   OH230899   6.155   6.511   2.605
10341TIP3    H130900   6.163   6.608   2.590
10341TIP3    H230901   6.248   6.482   2.591
10342TIP3   OH230902   4.879   6.269   4.310
10342TIP3    H130903   4.816   6.245   4.240
10342TIP3    H230904   4.917   6.182   4.336
10343TIP3   OH230905   4.730   6.480   3.960
10343TIP3    H130906   4.806   6.444   3.912
10343TIP3    H230907   4.775   6.541   4.022
10344TIP3   OH230908   6.598   6.912   3.999
10344TIP3    H130909   6.597   6.816   4.012
10344TIP3    H230910   6.515   6.938   4.044
10345TIP3   OH230911   5.705   6.700   4.133
10345TIP3    H130912   5.704   6.793   4.166
10345TIP3    H230913   5.634   6.660   4.188
10346TIP3   OH230914   5.464   6.827   3.086
10346TIP3    H130915   5.420   6.807   3.001
10346TIP3    H230916   5.433   6.918   3.106
10347TIP3   OH230917   4.900   6.682   3.472
10347TIP3    H130918   4.951   6.670   3.555
10347TIP3    H230919   4.857   6.594   3.465
10348TIP3   OH230920   5.667   6.730   2.725
10348TIP3    H130921   5.725   6.659   2.689
10348TIP3    H230922   5.702   6.738   2.817
10349TIP3   OH230923   5.717   6.778   2.996
10349TIP3    H130924   5.628   6.786   3.038
10349TIP3    H230925   5.768   6.737   3.067
10350TIP3   OH230926   6.489   6.042   4.272
10350TIP3    H130927   6.408   6.056   4.220
10350TIP3    H230928   6.503   5.946   4.259
10351TIP3   OH230929   5.085   6.452   4.300
10351TIP3    H130930   5.136   6.434   4.382
10351TIP3    H230931   5.011   6.388   4.307
10352TIP3   OH230932   5.483   5.275   4.080
10352TIP3    H130933   5.393   5.244   4.056
10352TIP3    H230934   5.459   5.358   4.126
10353TIP3   OH230935   6.007   5.392   4.279
10353TIP3    H130936   6.052   5.370   4.361
10353TIP3    H230937   5.915   5.369   4.302
10354TIP3   OH230938   6.263   5.823   4.201
10354TIP3    H130939   6.208   5.818   4.283
10354TIP3    H230940   6.235   5.907   4.161
10355TIP3   OH230941   5.918   5.949   2.752
10355TIP3    H130942   5.884   5.924   2.664
10355TIP3    H230943   5.998   5.998   2.727
10356TIP3   OH230944   5.630   5.324   3.054
10356TIP3    H130945   5.598   5.322   3.146
10356TIP3    H230946   5.591   5.241   3.021
10357TIP3   OH230947   5.416   5.791   4.101
10357TIP3    H130948   5.366   5.811   4.182
10357TIP3    H230949   5.400   5.872   4.047
10358TIP3   OH230950   5.300   5.677   3.615
10358TIP3    H130951   5.207   5.651   3.632
10358TIP3    H230952   5.313   5.637   3.527
10359TIP3   OH230953   5.790   5.763   3.343
10359TIP3    H130954   5.737   5.834   3.301
10359TIP3    H230955   5.845   5.733   3.268
10360TIP3   OH230956   5.965   6.042   4.430
10360TIP3    H130957   5.943   5.968   4.491
10360TIP3    H230958   6.059   6.055   4.451
10361TIP3   OH230959   5.948   5.792   3.582
10361TIP3    H130960   5.888   5.821   3.510
10361TIP3    H230961   5.981   5.710   3.540
10362TIP3   OH230962   5.235   5.822   4.309
10362TIP3    H130963   5.262   5.885   4.378
10362TIP3    H230964   5.222   5.741   4.361
10363TIP3   OH230965   5.286   5.298   3.020
10363TIP3    H130966   5.276   5.295   3.117
10363TIP3    H230967   5.207   5.349   2.995
10364TIP3   OH230968   4.828   5.344   3.891
10364TIP3    H130969   4.905   5.374   3.943
10364TIP3    H230970   4.868   5.310   3.809
10365TIP3   OH230971   4.801   5.323   3.410
10365TIP3    H130972   4.845   5.363   3.332
10365TIP3    H230973   4.739   5.396   3.432
10366TIP3   OH230974   5.957   6.038   4.006
10366TIP3    H130975   5.990   5.966   3.947
10366TIP3    H230976   5.929   5.985   4.083
10367TIP3   OH230977   5.626   5.502   3.677
10367TIP3    H130978   5.546   5.498   3.732
10367TIP3    H230979   5.697   5.494   3.743
10368TIP3   OH230980   5.061   5.555   3.686
10368TIP3    H130981   4.967   5.561   3.658
10368TIP3    H230982   5.085   5.464   3.661
10369TIP3   OH230983   5.331   5.551   3.373
10369TIP3    H130984   5.425   5.567   3.352
10369TIP3    H230985   5.284   5.575   3.290
10370TIP3   OH230986   6.119   5.575   3.879
10370TIP3    H130987   6.083   5.586   3.970
10370TIP3    H230988   6.056   5.511   3.842
10371TIP3   OH230989   5.172   5.585   3.152
10371TIP3    H130990   5.101   5.540   3.104
10371TIP3    H230991   5.224   5.621   3.077
10372TIP3   OH230992   6.289   7.264   4.097
10372TIP3    H130993   6.287   7.287   4.003
10372TIP3    H230994   6.368   7.312   4.128
10373TIP3   OH230995   5.245   6.374   4.519
10373TIP3    H130996   5.325   6.405   4.566
10373TIP3    H230997   5.181   6.373   4.593
10374TIP3   OH230998   5.711   5.828   3.774
10374TIP3    H130999   5.782   5.787   3.721
10374TIP3    H231000   5.721   5.784   3.860
10375TIP3   OH231001   5.233   5.315   3.653
10375TIP3    H131002   5.200   5.234   3.698
10375TIP3    H231003   5.285   5.278   3.580
10376TIP3   OH231004   5.687   5.722   4.067
10376TIP3    H131005   5.597   5.760   4.079
10376TIP3    H231006   5.745   5.784   4.115
10377TIP3   OH231007   5.423   6.116   3.158
10377TIP3    H131008   5.351   6.050   3.148
10377TIP3    H231009   5.406   6.148   3.250
10378TIP3   OH231010   6.324   6.351   3.789
10378TIP3    H131011   6.349   6.400   3.707
10378TIP3    H231012   6.238   6.310   3.763
10379TIP3   OH231013   5.882   5.427   3.021
10379TIP3    H131014   5.785   5.411   3.029
10379TIP3    H231015   5.891   5.522   3.044
10380TIP3   OH231016   5.821   6.432   4.157
10380TIP3    H131017   5.847   6.412   4.247
10380TIP3    H231018   5.785   6.521   4.163
10381TIP3   OH231019   5.951   5.674   3.124
10381TIP3    H131020   6.047   5.680   3.140
10381TIP3    H231021   5.932   5.753   3.071
10382TIP3   OH231022   5.115   6.138   3.835
10382TIP3    H131023   5.153   6.110   3.749
10382TIP3    H231024   5.157   6.074   3.895
10383TIP3   OH231025   5.570   6.265   2.981
10383TIP3    H131026   5.522   6.351   2.987
10383TIP3    H231027   5.515   6.209   3.040
10384TIP3   OH231028   4.995   6.059   4.449
10384TIP3    H131029   5.016   6.044   4.543
10384TIP3    H231030   4.927   5.990   4.433
10385TIP3   OH231031   5.722   6.171   4.469
10385TIP3    H131032   5.663   6.114   4.416
10385TIP3    H231033   5.810   6.138   4.441
10386TIP3   OH231034   5.984   6.692   4.053
10386TIP3    H131035   5.887   6.691   4.064
10386TIP3    H231036   6.011   6.744   4.131
10387TIP3   OH231037   6.395   5.764   2.960
10387TIP3    H131038   6.332   5.719   2.899
10387TIP3    H231039   6.390   5.853   2.919
10388TIP3   OH231040   6.611   6.622   4.042
10388TIP3    H131041   6.513   6.616   4.033
10388TIP3    H231042   6.638   6.593   3.952
10389TIP3   OH231043   6.094   6.583   2.869
10389TIP3    H131044   6.069   6.512   2.929
10389TIP3    H231045   6.106   6.538   2.784
10390TIP3   OH231046   6.089   6.213   3.708
10390TIP3    H131047   5.996   6.187   3.720
10390TIP3    H231048   6.124   6.133   3.663
10391TIP3   OH231049   5.218   6.441   3.463
10391TIP3    H131050   5.220   6.522   3.408
10391TIP3    H231051   5.123   6.423   3.466
10392TIP3   OH231052   4.781   5.745   3.164
10392TIP3    H131053   4.826   5.830   3.183
10392TIP3    H231054   4.703   5.752   3.223
10393TIP3   OH231055   5.356   6.206   3.405
10393TIP3    H131056   5.322   6.296   3.423
10393TIP3    H231057   5.318   6.156   3.480
10394TIP3   OH231058   5.486   6.784   3.929
10394TIP3    H131059   5.526   6.856   3.878
10394TIP3    H231060   5.563   6.750   3.977
10395TIP3   OH231061   5.136   6.680   3.314
10395TIP3    H131062   5.050   6.692   3.358
10395TIP3    H231063   5.170   6.772   3.315
10396TIP3   OH231064   5.875   6.420   3.887
10396TIP3    H131065   5.866   6.417   3.985
10396TIP3    H231066   5.954   6.366   3.873
10397TIP3   OH231067   5.849   6.311   2.770
10397TIP3    H131068   5.901   6.286   2.850
10397TIP3    H231069   5.760   6.284   2.798
10398TIP3   OH231070   6.123   6.954   3.939
10398TIP3    H131071   6.044   6.897   3.930
10398TIP3    H231072   6.108   7.018   3.866
10399TIP3   OH231073   6.188   6.786   2.590
10399TIP3    H131074   6.226   6.858   2.537
10399TIP3    H231075   6.108   6.833   2.623
10400TIP3   OH231076   5.198   5.569   4.451
10400TIP3    H131077   5.102   5.586   4.460
10400TIP3    H231078   5.209   5.492   4.508
10401TIP3   OH231079   6.008   6.247   2.988
10401TIP3    H131080   5.999   6.179   3.058
10401TIP3    H231081   6.105   6.244   2.975
10402TIP3   OH231082   4.915   6.641   4.093
10402TIP3    H131083   4.978   6.572   4.118
10402TIP3    H231084   4.949   6.716   4.145
10403TIP3   OH231085   5.215   6.293   2.770
10403TIP3    H131086   5.228   6.201   2.739
10403TIP3    H231087   5.196   6.278   2.865
10404TIP3   OH231088   5.160   6.297   3.043
10404TIP3    H131089   5.234   6.270   3.100
10404TIP3    H231090   5.165   6.395   3.049
10405TIP3   OH231091   4.897   5.991   3.245
10405TIP3    H131092   4.829   6.035   3.300
10405TIP3    H231093   4.911   6.060   3.177
10406TIP3   OH231094   6.042   5.631   4.139
10406TIP3    H131095   6.127   5.663   4.174
10406TIP3    H231096   6.028   5.548   4.190
10407TIP3   OH231097   5.925   5.379   3.301
10407TIP3    H131098   5.911   5.403   3.208
10407TIP3    H231099   5.965   5.460   3.338
10408TIP3   OH231100   5.426   6.495   2.993
10408TIP3    H131101   5.339   6.523   3.026
10408TIP3    H231102   5.442   6.563   2.926
10409TIP3   OH231103   5.614   5.558   3.404
10409TIP3    H131104   5.679   5.629   3.387
10409TIP3    H231105   5.619   5.550   3.502
10410TIP3   OH231106   5.882   5.875   4.213
10410TIP3    H131107   5.906   5.928   4.291
10410TIP3    H231108   5.939   5.797   4.222
10411TIP3   OH231109   5.759   5.284   3.506
10411TIP3    H131110   5.757   5.359   3.569
10411TIP3    H231111   5.820   5.320   3.437
10412TIP3   OH231112   5.169   6.570   3.058
10412TIP3    H131113   5.140   6.638   2.994
10412TIP3    H231114   5.153   6.616   3.144
10413TIP3   OH231115   5.270   5.282   3.297
10413TIP3    H131116   5.267   5.373   3.332
10413TIP3    H231117   5.366   5.265   3.305
10414TIP3   OH231118   6.527   5.767   4.184
10414TIP3    H131119   6.430   5.775   4.202
10414TIP3    H231120   6.519   5.716   4.101
10415TIP3   OH231121   6.175   5.972   3.582
10415TIP3    H131122   6.099   5.911   3.593
10415TIP3    H231123   6.247   5.924   3.629
10416TIP3   OH231124   4.889   6.201   3.052
10416TIP3    H131125   4.957   6.271   3.056
10416TIP3    H231126   4.930   6.144   2.984
10417TIP3   OH231127   4.832   5.475   3.185
10417TIP3    H131128   4.832   5.573   3.181
10417TIP3    H231129   4.750   5.453   3.140
10418TIP3   OH231130   6.143   6.927   3.531
10418TIP3    H131131   6.100   6.974   3.456
10418TIP3    H231132   6.237   6.946   3.511
10419TIP3   OH231133   5.218   5.195   4.059
10419TIP3    H131134   5.188   5.162   3.972
10419TIP3    H231135   5.209   5.115   4.116
10420TIP3   OH231136   4.776   6.441   3.445
10420TIP3    H131137   4.678   6.449   3.450
10420TIP3    H231138   4.785   6.432   3.350
10421TIP3   OH231139   4.915   6.955   4.511
10421TIP3    H131140   5.002   6.956   4.557
10421TIP3    H231141   4.896   6.860   4.509
10422TIP3   OH231142   5.396   6.921   4.554
10422TIP3    H131143   5.490   6.902   4.563
10422TIP3    H231144   5.372   6.862   4.480
10423TIP3   OH231145   5.379   6.496   2.684
10423TIP3    H131146   5.323   6.424   2.721
10423TIP3    H231147   5.453   6.445   2.648
10424TIP3   OH231148   6.034   6.828   4.288
10424TIP3    H131149   6.027   6.756   4.356
10424TIP3    H231150   6.113   6.877   4.318
10425TIP3   OH231151   5.815   6.537   2.594
10425TIP3    H131152   5.860   6.473   2.651
10425TIP3    H231153   5.870   6.537   2.514
10426TIP3   OH231154   5.045   6.362   4.711
10426TIP3    H131155   5.063   6.266   4.714
10426TIP3    H231156   4.957   6.364   4.667
10427TIP3   OH231157   5.022   6.014   2.904
10427TIP3    H131158   5.078   5.979   2.975
10427TIP3    H231159   5.088   6.017   2.831
10428TIP3   OH231160   5.653   6.446   4.484
10428TIP3    H131161   5.613   6.462   4.396
10428TIP3    H231162   5.685   6.353   4.476
10429TIP3   OH231163   5.534   6.211   2.711
10429TIP3    H131164   5.535   6.224   2.808
10429TIP3    H231165   5.532   6.113   2.706
10430TIP3   OH231166   6.146   6.455   4.090
10430TIP3    H131167   6.221   6.499   4.045
10430TIP3    H231168   6.076   6.521   4.076
10431TIP3   OH231169   5.163   6.098   4.692
10431TIP3    H131170   5.236   6.040   4.670
10431TIP3    H231171   5.189   6.129   4.782
10432TIP3   OH231172   5.233   5.916   3.126
10432TIP3    H131173   5.205   5.872   3.208
10432TIP3    H231174   5.267   5.840   3.074
10433TIP3   OH231175   5.500   5.980   4.354
10433TIP3    H131176   5.423   6.040   4.357
10433TIP3    H231177   5.549   6.013   4.276
10434TIP3   OH231178   5.332   5.709   2.966
10434TIP3    H131179   5.304   5.712   2.872
10434TIP3    H231180   5.429   5.716   2.957
10435TIP3   OH231181   6.016   6.382   4.487
10435TIP3    H131182   6.097   6.360   4.439
10435TIP3    H231183   6.015   6.315   4.558
10436TIP3   OH231184   6.154   6.041   2.629
10436TIP3    H131185   6.132   5.994   2.546
10436TIP3    H231186   6.123   6.131   2.605
10437TIP3   OH231187   5.619   5.766   4.482
10437TIP3    H131188   5.624   5.689   4.421
10437TIP3    H231189   5.579   5.834   4.423
10438TIP3   OH231190   5.624   5.558   4.288
10438TIP3    H131191   5.653   5.597   4.204
10438TIP3    H231192   5.531   5.534   4.267
10439TIP3   OH231193   5.653   6.091   4.162
10439TIP3    H131194   5.736   6.097   4.113
10439TIP3    H231195   5.597   6.158   4.117
10440TIP3   OH231196   6.236   6.058   4.542
10440TIP3    H131197   6.284   5.974   4.547
10440TIP3    H231198   6.303   6.117   4.506
10441TIP3   OH231199   6.276   6.311   4.278
10441TIP3    H131200   6.218   6.365   4.218
10441TIP3    H231201   6.363   6.330   4.238
10442TIP3   OH231202   5.502   5.882   4.711
10442TIP3    H131203   5.429   5.819   4.725
10442TIP3    H231204   5.535   5.855   4.623
10443TIP3   OH231205   5.754   5.324   4.354
10443TIP3    H131206   5.703   5.404   4.331
10443TIP3    H231207   5.686   5.254   4.343
10444TIP3   OH231208   5.883   5.823   4.570
10444TIP3    H131209   5.873   5.813   4.667
10444TIP3    H231210   5.793   5.798   4.541
10445TIP3   OH231211   6.120   5.772   4.424
10445TIP3    H131212   6.044   5.773   4.486
10445TIP3    H231213   6.195   5.746   4.482
10446TIP3   OH231214   6.347   5.726   4.577
10446TIP3    H131215   6.366   5.633   4.604
10446TIP3    H231216   6.344   5.770   4.665
10447TIP3   OH231217   5.342   5.660   4.761
10447TIP3    H131218   5.391   5.593   4.712
10447TIP3    H231219   5.375   5.646   4.853
10448TIP3   OH231220   5.883   5.326   4.597
10448TIP3    H131221   5.881   5.232   4.621
10448TIP3    H231222   5.833   5.324   4.513
10449TIP3   OH231223   5.919   5.541   4.770
10449TIP3    H131224   5.904   5.472   4.701
10449TIP3    H231225   5.840   5.599   4.760
10450TIP3   OH231226   5.140   6.773   2.872
10450TIP3    H131227   5.235   6.770   2.851
10450TIP3    H231228   5.107   6.820   2.793
10451TIP3   OH231229   4.621   6.148   3.092
10451TIP3    H131230   4.714   6.172   3.075
10451TIP3    H231231   4.613   6.062   3.046
10452TIP3   OH231232   4.521   6.736   3.542
10452TIP3    H131233   4.461   6.685   3.482
10452TIP3    H231234   4.601   6.699   3.502
10453TIP3   OH231235   6.395   7.019   3.487
10453TIP3    H131236   6.423   7.053   3.573
10453TIP3    H231237   6.458   7.062   3.427
10454TIP3   OH231238   6.425   7.039   3.770
10454TIP3    H131239   6.382   6.951   3.765
10454TIP3    H231240   6.502   7.017   3.825
10455TIP3   OH231241   6.472   6.715   4.342
10455TIP3    H131242   6.399   6.723   4.407
10455TIP3    H231243   6.513   6.804   4.347
10456TIP3   OH231244   6.288   6.228   2.962
10456TIP3    H131245   6.356   6.292   2.934
10456TIP3    H231246   6.331   6.188   3.041
10457TIP3   OH231247   6.416   6.095   3.165
10457TIP3    H131248   6.350   6.053   3.225
10457TIP3    H231249   6.480   6.133   3.228
10458TIP3   OH231250   6.469   6.487   3.598
10458TIP3    H131251   6.523   6.423   3.548
10458TIP3    H231252   6.463   6.562   3.535
10459TIP3   OH231253   6.302   6.787   3.793
10459TIP3    H131254   6.230   6.829   3.845
10459TIP3    H231255   6.251   6.739   3.724
10460TIP3   OH231256   6.354   6.003   2.813
10460TIP3    H131257   6.282   6.006   2.745
10460TIP3    H231258   6.327   6.079   2.868
10461TIP3   OH231259   6.225   5.676   2.767
10461TIP3    H131260   6.182   5.716   2.691
10461TIP3    H231261   6.200   5.581   2.756
10462TIP3   OH231262   6.230   5.951   3.312
10462TIP3    H131263   6.238   5.854   3.307
10462TIP3    H231264   6.216   5.966   3.408
10463TIP3   OH231265   4.855   6.028   4.058
10463TIP3    H131266   4.854   5.995   3.966
10463TIP3    H231267   4.953   6.029   4.076
10464TIP3   OH231268   6.518   6.376   4.169
10464TIP3    H131269   6.591   6.310   4.160
10464TIP3    H231270   6.546   6.446   4.108
10465TIP3   OH231271   6.703   6.182   4.188
10465TIP3    H131272   6.629   6.131   4.225
10465TIP3    H231273   6.776   6.118   4.200
10466TIP3   OH231274   6.169   5.409   2.752
10466TIP3    H131275   6.243   5.379   2.808
10466TIP3    H231276   6.095   5.351   2.778
10467TIP3   OH231277   6.226   5.668   3.207
10467TIP3    H131278   6.267   5.579   3.223
10467TIP3    H231279   6.284   5.701   3.137
10468TIP3   OH231280   6.388   5.842   3.701
10468TIP3    H131281   6.474   5.869   3.662
10468TIP3    H231282   6.401   5.875   3.792
10469TIP3   OH231283   6.458   5.986   3.935
10469TIP3    H131284   6.379   6.019   3.982
10469TIP3    H231285   6.489   6.067   3.889
10470TIP3   OH231286   5.076   5.719   4.739
10470TIP3    H131287   5.173   5.705   4.739
10470TIP3    H231288   5.046   5.631   4.770
10471TIP3   OH231289   6.941   5.591   4.488
10471TIP3    H131290   6.926   5.498   4.466
10471TIP3    H231291   6.886   5.637   4.421
10472TIP3   OH231292   6.335   5.417   3.245
10472TIP3    H131293   6.383   5.401   3.328
10472TIP3    H231294   6.274   5.341   3.243
10473TIP3   OH231295   5.035   5.405   4.066
10473TIP3    H131296   5.097   5.329   4.074
10473TIP3    H231297   5.098   5.479   4.058
10474TIP3   OH231298   4.839   5.678   4.138
10474TIP3    H131299   4.886   5.669   4.053
10474TIP3    H231300   4.870   5.764   4.168
10475TIP3   OH231301   6.778   5.716   4.308
10475TIP3    H131302   6.693   5.755   4.338
10475TIP3    H231303   6.749   5.673   4.226
10476TIP3   OH231304   6.416   5.353   2.878
10476TIP3    H131305   6.456   5.281   2.825
10476TIP3    H231306   6.483   5.424   2.871
10477TIP3   OH231307   4.821   5.183   3.641
10477TIP3    H131308   4.727   5.179   3.665
10477TIP3    H231309   4.819   5.240   3.561
10478TIP3   OH231310   5.980   6.885   3.145
10478TIP3    H131311   6.030   6.869   3.062
10478TIP3    H231312   6.035   6.951   3.189
10479TIP3   OH231313   5.038   5.261   4.452
10479TIP3    H131314   4.984   5.255   4.534
10479TIP3    H231315   4.972   5.301   4.391
10480TIP3   OH231316   5.081   6.690   4.530
10480TIP3    H131317   4.989   6.661   4.513
10480TIP3    H231318   5.091   6.670   4.623
10481TIP3   OH231319   5.258   6.721   4.077
10481TIP3    H131320   5.212   6.798   4.038
10481TIP3    H231321   5.344   6.732   4.033
10482TIP3   OH231322   5.704   6.966   4.215
10482TIP3    H131323   5.746   6.966   4.304
10482TIP3    H231324   5.770   7.016   4.163
10483TIP3   OH231325   5.883   7.117   4.073
10483TIP3    H131326   5.954   7.066   4.031
10483TIP3    H231327   5.935   7.174   4.134
10484TIP3   OH231328   4.934   6.975   4.099
10484TIP3    H131329   4.845   7.010   4.077
10484TIP3    H231330   4.946   7.014   4.187
10485TIP3   OH231331   5.172   6.957   3.959
10485TIP3    H131332   5.085   6.969   4.003
10485TIP3    H231333   5.153   6.989   3.869
10486TIP3   OH231334   5.597   6.985   3.757
10486TIP3    H131335   5.530   7.006   3.690
10486TIP3    H231336   5.611   7.073   3.799
10487TIP3   OH231337   5.867   6.925   3.809
10487TIP3    H131338   5.773   6.941   3.788
10487TIP3    H231339   5.910   7.000   3.764
10488TIP3   OH231340   6.074   7.117   3.723
10488TIP3    H131341   6.059   7.202   3.675
10488TIP3    H231342   6.100   7.057   3.649
10489TIP3   OH231343   4.826   6.766   3.840
10489TIP3    H131344   4.855   6.750   3.931
10489TIP3    H231345   4.899   6.722   3.791
10490TIP3   OH231346   5.036   6.645   3.706
10490TIP3    H131347   5.054   6.560   3.753
10490TIP3    H231348   5.127   6.682   3.701
10491TIP3   OH231349   5.305   6.739   3.706
10491TIP3    H131350   5.336   6.648   3.691
10491TIP3    H231351   5.351   6.759   3.790
10492TIP3   OH231352   5.878   5.393   3.787
10492TIP3    H131353   5.839   5.324   3.844
10492TIP3    H231354   5.955   5.346   3.748
10493TIP3   OH231355   6.407   5.272   3.697
10493TIP3    H131356   6.442   5.325   3.623
10493TIP3    H231357   6.311   5.292   3.694
10494TIP3   OH231358   6.501   5.376   3.461
10494TIP3    H131359   6.575   5.324   3.422
10494TIP3    H231360   6.535   5.467   3.447
10495TIP3   OH231361   5.132   5.103   3.811
10495TIP3    H131362   5.040   5.069   3.810
10495TIP3    H231363   5.181   5.018   3.807
10496TIP3   OH231364   4.918   4.972   3.457
10496TIP3    H131365   4.948   5.030   3.384
10496TIP3    H231366   4.889   5.038   3.523
10497TIP3   OH231367   5.574   5.137   3.691
10497TIP3    H131368   5.633   5.186   3.631
10497TIP3    H231369   5.602   5.171   3.777
10498TIP3   OH231370   6.122   5.284   3.674
10498TIP3    H131371   6.122   5.246   3.586
10498TIP3    H231372   6.107   5.204   3.730
10499TIP3   OH231373   6.152   5.204   3.235
10499TIP3    H131374   6.065   5.247   3.248
10499TIP3    H231375   6.137   5.119   3.283
10500TIP3   OH231376   5.035   5.132   3.221
10500TIP3    H131377   5.083   5.070   3.164
10500TIP3    H231378   5.108   5.186   3.257
10501TIP3   OH231379   5.548   5.307   3.319
10501TIP3    H131380   5.608   5.261   3.380
10501TIP3    H231381   5.568   5.400   3.344
10502TIP3   OH231382   5.408   6.733   2.820
10502TIP3    H131383   5.495   6.755   2.782
10502TIP3    H231384   5.385   6.658   2.760
10503TIP3   OH231385   6.125   6.850   2.912
10503TIP3    H131386   6.117   6.753   2.898
10503TIP3    H231387   6.081   6.884   2.832
10504TIP3   OH231388   4.707   6.572   2.874
10504TIP3    H131389   4.697   6.609   2.963
10504TIP3    H231390   4.796   6.533   2.875
10505TIP3   OH231391   6.423   5.480   4.660
10505TIP3    H131392   6.433   5.438   4.749
10505TIP3    H231393   6.494   5.436   4.612
10506TIP3   OH231394   6.352   6.995   4.100
10506TIP3    H131395   6.273   6.963   4.051
10506TIP3    H231396   6.333   7.091   4.103
10507TIP3   OH231397   7.619   6.368   2.865
10507TIP3    H131398   7.590   6.459   2.846
10507TIP3    H231399   7.542   6.318   2.832
10508TIP3   OH231400   7.615   6.366   3.248
10508TIP3    H131401   7.649   6.340   3.335
10508TIP3    H231402   7.575   6.284   3.216
10509TIP3   OH231403   6.917   6.263   3.612
10509TIP3    H131404   6.948   6.196   3.676
10509TIP3    H231405   6.996   6.318   3.604
10510TIP3   OH231406   7.858   6.675   2.928
10510TIP3    H131407   7.848   6.601   2.990
10510TIP3    H231408   7.890   6.746   2.988
10511TIP3   OH231409   6.888   6.672   3.337
10511TIP3    H131410   6.879   6.574   3.339
10511TIP3    H231411   6.985   6.680   3.334
10512TIP3   OH231412   6.595   5.877   3.122
10512TIP3    H131413   6.545   5.959   3.136
10512TIP3    H231414   6.525   5.821   3.083
10513TIP3   OH231415   6.654   6.163   3.294
10513TIP3    H131416   6.703   6.086   3.331
10513TIP3    H231417   6.713   6.192   3.223
10514TIP3   OH231418   7.505   7.101   2.931
10514TIP3    H131419   7.592   7.058   2.924
10514TIP3    H231420   7.494   7.109   3.027
10515TIP3   OH231421   7.417   6.592   3.294
10515TIP3    H131422   7.456   6.515   3.250
10515TIP3    H231423   7.500   6.638   3.319
10516TIP3   OH231424   8.428   5.913   3.292
10516TIP3    H131425   8.456   5.995   3.339
10516TIP3    H231426   8.452   5.935   3.200
10517TIP3   OH231427   7.829   6.095   3.327
10517TIP3    H131428   7.870   6.009   3.349
10517TIP3    H231429   7.798   6.079   3.236
10518TIP3   OH231430   7.166   5.755   3.292
10518TIP3    H131431   7.145   5.827   3.229
10518TIP3    H231432   7.118   5.681   3.250
10519TIP3   OH231433   7.862   5.843   2.916
10519TIP3    H131434   7.935   5.830   2.981
10519TIP3    H231435   7.911   5.880   2.841
10520TIP3   OH231436   6.800   5.956   3.400
10520TIP3    H131437   6.883   5.935   3.447
10520TIP3    H231438   6.812   5.900   3.321
10521TIP3   OH231439   7.241   6.154   3.192
10521TIP3    H131440   7.334   6.128   3.206
10521TIP3    H231441   7.201   6.070   3.161
10522TIP3   OH231442   8.500   6.117   3.465
10522TIP3    H131443   8.417   6.168   3.448
10522TIP3    H231444   8.524   6.150   3.553
10523TIP3   OH231445   7.163   5.739   3.728
10523TIP3    H131446   7.106   5.770   3.655
10523TIP3    H231447   7.107   5.761   3.805
10524TIP3   OH231448   7.511   6.590   2.736
10524TIP3    H131449   7.470   6.565   2.652
10524TIP3    H231450   7.475   6.680   2.749
10525TIP3   OH231451   7.269   6.512   3.522
10525TIP3    H131452   7.206   6.578   3.560
10525TIP3    H231453   7.313   6.564   3.452
10526TIP3   OH231454   8.071   5.844   3.091
10526TIP3    H131455   8.055   5.809   3.179
10526TIP3    H231456   8.126   5.923   3.111
10527TIP3   OH231457   7.035   5.851   3.511
10527TIP3    H131458   7.096   5.925   3.534
10527TIP3    H231459   7.084   5.810   3.436
10528TIP3   OH231460   7.096   6.706   3.619
10528TIP3    H131461   7.071   6.793   3.581
10528TIP3    H231462   7.018   6.691   3.676
10529TIP3   OH231463   6.493   6.396   2.856
10529TIP3    H131464   6.451   6.421   2.772
10529TIP3    H231465   6.522   6.483   2.892
10530TIP3   OH231466   7.928   6.909   3.090
10530TIP3    H131467   7.840   6.903   3.133
10530TIP3    H231468   7.924   7.000   3.054
10531TIP3   OH231469   8.222   5.807   3.453
10531TIP3    H131470   8.136   5.847   3.430
10531TIP3    H231471   8.282   5.845   3.386
10532TIP3   OH231472   7.519   5.456   3.440
10532TIP3    H131473   7.503   5.362   3.460
10532TIP3    H231474   7.441   5.496   3.485
10533TIP3   OH231475   7.700   6.998   2.750
10533TIP3    H131476   7.704   6.899   2.747
10533TIP3    H231477   7.612   7.014   2.711
10534TIP3   OH231478   7.783   6.751   2.676
10534TIP3    H131479   7.755   6.672   2.627
10534TIP3    H231480   7.809   6.710   2.762
10535TIP3   OH231481   8.156   6.825   3.440
10535TIP3    H131482   8.148   6.748   3.380
10535TIP3    H231483   8.142   6.900   3.379
10536TIP3   OH231484   7.449   6.219   2.696
10536TIP3    H131485   7.368   6.269   2.674
10536TIP3    H231486   7.495   6.216   2.610
10537TIP3   OH231487   7.408   6.003   2.414
10537TIP3    H131488   7.477   6.053   2.462
10537TIP3    H231489   7.465   5.939   2.366
10538TIP3   OH231490   8.352   6.458   3.282
10538TIP3    H131491   8.271   6.513   3.289
10538TIP3    H231492   8.383   6.484   3.193
10539TIP3   OH231493   7.796   6.302   2.667
10539TIP3    H131494   7.742   6.326   2.746
10539TIP3    H231495   7.880   6.274   2.711
10540TIP3   OH231496   8.032   6.340   3.581
10540TIP3    H131497   8.031   6.423   3.633
10540TIP3    H231498   7.946   6.347   3.535
10541TIP3   OH231499   7.030   6.300   3.084
10541TIP3    H131500   6.988   6.241   3.017
10541TIP3    H231501   7.106   6.246   3.113
10542TIP3   OH231502   7.160   6.712   3.232
10542TIP3    H131503   7.138   6.664   3.151
10542TIP3    H231504   7.250   6.678   3.252
10543TIP3   OH231505   7.165   6.270   3.439
10543TIP3    H131506   7.199   6.250   3.350
10543TIP3    H231507   7.208   6.356   3.459
10544TIP3   OH231508   7.689   6.908   3.214
10544TIP3    H131509   7.676   6.988   3.268
10544TIP3    H231510   7.676   6.835   3.279
10545TIP3   OH231511   7.303   6.827   3.763
10545TIP3    H131512   7.244   6.890   3.810
10545TIP3    H231513   7.236   6.774   3.714
10546TIP3   OH231514   7.637   6.158   2.495
10546TIP3    H131515   7.697   6.217   2.546
10546TIP3    H231516   7.663   6.183   2.402
10547TIP3   OH231517   7.057   6.383   3.865
10547TIP3    H131518   7.062   6.470   3.909
10547TIP3    H231519   6.962   6.364   3.873
10548TIP3   OH231520   7.413   6.868   2.754
10548TIP3    H131521   7.414   6.922   2.835
10548TIP3    H231522   7.328   6.893   2.714
10549TIP3   OH231523   7.097   6.996   3.850
10549TIP3    H131524   7.062   6.993   3.758
10549TIP3    H231525   7.017   6.974   3.903
10550TIP3   OH231526   8.153   5.401   2.544
10550TIP3    H131527   8.071   5.424   2.593
10550TIP3    H231528   8.167   5.483   2.492
10551TIP3   OH231529   6.895   6.142   2.890
10551TIP3    H131530   6.829   6.187   2.833
10551TIP3    H231531   6.854   6.056   2.903
10552TIP3   OH231532   7.943   6.787   2.102
10552TIP3    H131533   7.931   6.870   2.049
10552TIP3    H231534   8.034   6.761   2.080
10553TIP3   OH231535   6.676   6.526   3.797
10553TIP3    H131536   6.611   6.503   3.727
10553TIP3    H231537   6.713   6.438   3.821
10554TIP3   OH231538   6.530   6.717   3.431
10554TIP3    H131539   6.626   6.712   3.420
10554TIP3    H231540   6.522   6.798   3.485
10555TIP3   OH231541   8.394   7.168   3.485
10555TIP3    H131542   8.393   7.072   3.501
10555TIP3    H231543   8.311   7.194   3.531
10556TIP3   OH231544   7.500   6.957   3.619
10556TIP3    H131545   7.500   7.049   3.653
10556TIP3    H231546   7.430   6.917   3.674
10557TIP3   OH231547   7.263   7.089   2.567
10557TIP3    H131548   7.215   7.069   2.485
10557TIP3    H231549   7.228   7.177   2.591
10558TIP3   OH231550   6.700   6.934   2.954
10558TIP3    H131551   6.747   6.924   3.040
10558TIP3    H231552   6.642   6.856   2.957
10559TIP3   OH231553   7.464   6.982   2.219
10559TIP3    H131554   7.518   6.914   2.172
10559TIP3    H231555   7.517   6.998   2.298
10560TIP3   OH231556   7.520   7.028   2.516
10560TIP3    H131557   7.427   7.054   2.539
10560TIP3    H231558   7.516   6.934   2.539
10561TIP3   OH231559   8.285   6.300   3.761
10561TIP3    H131560   8.204   6.312   3.709
10561TIP3    H231561   8.300   6.204   3.753
10562TIP3   OH231562   6.882   6.708   3.786
10562TIP3    H131563   6.932   6.692   3.869
10562TIP3    H231564   6.807   6.645   3.794
10563TIP3   OH231565   7.285   5.538   3.561
10563TIP3    H131566   7.197   5.498   3.548
10563TIP3    H231567   7.260   5.611   3.620
10564TIP3   OH231568   7.823   5.643   3.760
10564TIP3    H131569   7.887   5.619   3.829
10564TIP3    H231570   7.737   5.627   3.804
10565TIP3   OH231571   8.051   6.075   3.679
10565TIP3    H131572   8.006   6.072   3.766
10565TIP3    H231573   8.029   6.164   3.647
10566TIP3   OH231574   7.713   6.206   2.239
10566TIP3    H131575   7.680   6.181   2.150
10566TIP3    H231576   7.795   6.253   2.213
10567TIP3   OH231577   7.427   5.580   2.540
10567TIP3    H131578   7.393   5.579   2.632
10567TIP3    H231579   7.387   5.497   2.507
10568TIP3   OH231580   7.212   6.047   3.587
10568TIP3    H131581   7.162   6.068   3.669
10568TIP3    H231582   7.196   6.128   3.534
10569TIP3   OH231583   7.095   5.934   3.101
10569TIP3    H131584   7.003   5.908   3.119
10569TIP3    H231585   7.108   5.893   3.013
10570TIP3   OH231586   7.586   6.019   2.829
10570TIP3    H131587   7.533   6.091   2.788
10570TIP3    H231588   7.641   5.990   2.754
10571TIP3   OH231589   7.761   6.298   3.916
10571TIP3    H131590   7.739   6.225   3.977
10571TIP3    H231591   7.855   6.313   3.938
10572TIP3   OH231592   7.744   6.047   3.069
10572TIP3    H131593   7.685   6.079   2.998
10572TIP3    H231594   7.776   5.965   3.026
10573TIP3   OH231595   7.031   6.079   3.796
10573TIP3    H131596   7.060   6.143   3.864
10573TIP3    H231597   7.019   5.997   3.848
10574TIP3   OH231598   7.082   5.554   2.507
10574TIP3    H131599   7.072   5.551   2.604
10574TIP3    H231600   7.003   5.606   2.482
10575TIP3   OH231601   6.625   5.600   3.377
10575TIP3    H131602   6.701   5.631   3.431
10575TIP3    H231603   6.666   5.566   3.296
10576TIP3   OH231604   6.597   5.580   2.896
10576TIP3    H131605   6.641   5.620   2.818
10576TIP3    H231606   6.536   5.652   2.919
10577TIP3   OH231607   7.750   6.295   3.491
10577TIP3    H131608   7.786   6.223   3.433
10577TIP3    H231609   7.725   6.242   3.570
10578TIP3   OH231610   7.422   5.754   3.163
10578TIP3    H131611   7.340   5.754   3.217
10578TIP3    H231612   7.490   5.755   3.232
10579TIP3   OH231613   6.858   5.812   3.171
10579TIP3    H131614   6.763   5.819   3.145
10579TIP3    H231615   6.881   5.720   3.149
10580TIP3   OH231616   7.128   5.807   2.859
10580TIP3    H131617   7.221   5.824   2.838
10580TIP3    H231618   7.080   5.831   2.777
10581TIP3   OH231619   7.913   5.830   3.363
10581TIP3    H131620   7.884   5.843   3.456
10581TIP3    H231621   7.843   5.771   3.330
10582TIP3   OH231622   6.968   5.841   2.639
10582TIP3    H131623   6.897   5.796   2.591
10582TIP3    H231624   7.020   5.877   2.564
10583TIP3   OH231625   8.085   7.521   3.584
10583TIP3    H131626   8.084   7.545   3.490
10583TIP3    H231627   8.165   7.568   3.615
10584TIP3   OH231628   7.042   6.630   4.006
10584TIP3    H131629   7.122   6.661   4.053
10584TIP3    H231630   6.978   6.631   4.080
10585TIP3   OH231631   7.507   6.084   3.260
10585TIP3    H131632   7.580   6.044   3.212
10585TIP3    H231633   7.515   6.043   3.349
10586TIP3   OH231634   7.029   5.572   3.140
10586TIP3    H131635   6.995   5.492   3.186
10586TIP3    H231636   7.078   5.533   3.066
10587TIP3   OH231637   7.484   5.982   3.549
10587TIP3    H131638   7.394   6.017   3.565
10587TIP3    H231639   7.541   6.041   3.601
10588TIP3   OH231640   7.219   6.372   2.645
10588TIP3    H131641   7.147   6.306   2.634
10588TIP3    H231642   7.202   6.405   2.737
10589TIP3   OH231643   8.121   6.608   3.274
10589TIP3    H131644   8.147   6.656   3.193
10589TIP3    H231645   8.035   6.568   3.249
10590TIP3   OH231646   7.679   5.683   2.510
10590TIP3    H131647   7.582   5.668   2.516
10590TIP3    H231648   7.688   5.778   2.530
10591TIP3   OH231649   7.616   6.688   3.643
10591TIP3    H131650   7.646   6.668   3.733
10591TIP3    H231651   7.581   6.778   3.651
10592TIP3   OH231652   7.748   5.931   2.611
10592TIP3    H131653   7.844   5.937   2.626
10592TIP3    H231654   7.729   6.010   2.557
10593TIP3   OH231655   6.912   6.393   3.321
10593TIP3    H131656   6.951   6.365   3.236
10593TIP3    H231657   6.953   6.331   3.383
10594TIP3   OH231658   7.366   6.523   2.469
10594TIP3    H131659   7.317   6.609   2.475
10594TIP3    H231660   7.310   6.466   2.527
10595TIP3   OH231661   6.791   6.314   3.935
10595TIP3    H131662   6.813   6.300   4.029
10595TIP3    H231663   6.723   6.247   3.920
10596TIP3   OH231664   7.518   6.427   3.956
10596TIP3    H131665   7.461   6.370   3.903
10596TIP3    H231666   7.607   6.395   3.929
10597TIP3   OH231667   7.779   6.948   3.539
10597TIP3    H131668   7.682   6.949   3.552
10597TIP3    H231669   7.808   7.000   3.616
10598TIP3   OH231670   8.189   6.021   2.447
10598TIP3    H131671   8.127   5.976   2.386
10598TIP3    H231672   8.186   6.110   2.406
10599TIP3   OH231673   8.406   6.877   3.530
10599TIP3    H131674   8.308   6.872   3.521
10599TIP3    H231675   8.433   6.849   3.440
10600TIP3   OH231676   7.902   6.844   2.390
10600TIP3    H131677   7.872   6.755   2.413
10600TIP3    H231678   7.911   6.837   2.293
10601TIP3   OH231679   7.885   6.471   3.192
10601TIP3    H131680   7.792   6.444   3.206
10601TIP3    H231681   7.920   6.390   3.149
10602TIP3   OH231682   7.012   6.697   2.943
10602TIP3    H131683   7.008   6.781   2.892
10602TIP3    H231684   6.918   6.680   2.958
10603TIP3   OH231685   6.577   6.002   2.651
10603TIP3    H131686   6.622   6.086   2.670
10603TIP3    H231687   6.499   6.008   2.710
10604TIP3   OH231688   7.153   6.465   2.892
10604TIP3    H131689   7.114   6.553   2.909
10604TIP3    H231690   7.116   6.413   2.966
10605TIP3   OH231691   7.282   7.040   3.416
10605TIP3    H131692   7.323   7.114   3.366
10605TIP3    H231693   7.359   7.007   3.466
10606TIP3   OH231694   6.935   6.935   2.801
10606TIP3    H131695   6.848   6.944   2.845
10606TIP3    H231696   6.966   7.029   2.803
10607TIP3   OH231697   7.671   6.676   3.374
10607TIP3    H131698   7.660   6.674   3.472
10607TIP3    H231699   7.752   6.625   3.363
10608TIP3   OH231700   7.644   6.565   2.260
10608TIP3    H131701   7.697   6.541   2.339
10608TIP3    H231702   7.556   6.538   2.287
10609TIP3   OH231703   7.919   7.209   3.425
10609TIP3    H131704   7.839   7.153   3.416
10609TIP3    H231705   7.904   7.274   3.352
10610TIP3   OH231706   6.994   5.826   3.937
10610TIP3    H131707   6.898   5.842   3.945
10610TIP3    H231708   7.005   5.751   3.996
10611TIP3   OH231709   7.806   6.511   2.482
10611TIP3    H131710   7.796   6.439   2.547
10611TIP3    H231711   7.902   6.503   2.463
10612TIP3   OH231712   6.720   6.904   3.576
10612TIP3    H131713   6.773   6.829   3.608
10612TIP3    H231714   6.750   6.975   3.634
10613TIP3   OH231715   7.012   6.548   2.256
10613TIP3    H131716   7.025   6.456   2.226
10613TIP3    H231717   6.991   6.535   2.351
10614TIP3   OH231718   6.957   6.553   2.529
10614TIP3    H131719   7.027   6.526   2.590
10614TIP3    H231720   6.960   6.651   2.536
10615TIP3   OH231721   6.692   6.247   2.732
10615TIP3    H131722   6.626   6.291   2.789
10615TIP3    H231723   6.706   6.317   2.665
10616TIP3   OH231724   7.842   5.881   3.622
10616TIP3    H131725   7.920   5.922   3.664
10616TIP3    H231726   7.830   5.800   3.676
10617TIP3   OH231727   7.724   5.634   2.788
10617TIP3    H131728   7.707   5.658   2.695
10617TIP3    H231729   7.762   5.717   2.824
10618TIP3   OH231730   7.226   6.757   2.484
10618TIP3    H131731   7.136   6.781   2.513
10618TIP3    H231732   7.236   6.817   2.409
10619TIP3   OH231733   7.412   5.813   2.891
10619TIP3    H131734   7.476   5.885   2.874
10619TIP3    H231735   7.415   5.807   2.989
10620TIP3   OH231736   7.680   6.133   3.700
10620TIP3    H131737   7.701   6.188   3.778
10620TIP3    H231738   7.737   6.055   3.715
10621TIP3   OH231739   7.557   5.542   2.995
10621TIP3    H131740   7.547   5.619   3.054
10621TIP3    H231741   7.616   5.580   2.925
10622TIP3   OH231742   6.967   6.826   2.545
10622TIP3    H131743   6.937   6.895   2.481
10622TIP3    H231744   6.949   6.871   2.631
10623TIP3   OH231745   7.066   5.539   2.784
10623TIP3    H131746   7.063   5.630   2.819
10623TIP3    H231747   7.163   5.522   2.792
10624TIP3   OH231748   8.318   6.033   3.682
10624TIP3    H131749   8.220   6.030   3.686
10624TIP3    H231750   8.334   6.001   3.592
10625TIP3   OH231751   7.971   6.228   3.068
10625TIP3    H131752   7.896   6.168   3.082
10625TIP3    H231753   8.043   6.182   3.117
10626TIP3   OH231754   6.683   6.457   2.539
10626TIP3    H131755   6.748   6.529   2.545
10626TIP3    H231756   6.728   6.402   2.471
10627TIP3   OH231757   6.629   5.731   2.670
10627TIP3    H131758   6.628   5.829   2.667
10627TIP3    H231759   6.545   5.709   2.629
10628TIP3   OH231760   7.940   7.176   3.014
10628TIP3    H131761   7.898   7.226   2.940
10628TIP3    H231762   8.034   7.201   2.999
10629TIP3   OH231763   7.017   5.453   3.546
10629TIP3    H131764   6.986   5.417   3.461
10629TIP3    H231765   7.007   5.375   3.606
10630TIP3   OH231766   6.555   6.671   2.926
10630TIP3    H131767   6.483   6.702   2.983
10630TIP3    H231768   6.530   6.712   2.840
10631TIP3   OH231769   6.711   7.212   3.998
10631TIP3    H131770   6.798   7.212   4.044
10631TIP3    H231771   6.691   7.117   3.995
10632TIP3   OH231772   7.192   7.177   4.041
10632TIP3    H131773   7.287   7.159   4.050
10632TIP3    H231774   7.169   7.119   3.967
10633TIP3   OH231775   7.176   6.752   2.172
10633TIP3    H131776   7.120   6.678   2.207
10633TIP3    H231777   7.250   6.702   2.132
10634TIP3   OH231778   7.832   7.083   3.774
10634TIP3    H131779   7.824   7.012   3.842
10634TIP3    H231780   7.910   7.132   3.804
10635TIP3   OH231781   7.607   6.795   2.080
10635TIP3    H131782   7.662   6.736   2.134
10635TIP3    H231783   7.662   6.806   2.000
10636TIP3   OH231784   6.841   6.618   4.198
10636TIP3    H131785   6.859   6.522   4.200
10636TIP3    H231786   6.754   6.621   4.153
10637TIP3   OH231787   6.819   6.270   2.390
10637TIP3    H131788   6.874   6.236   2.462
10637TIP3    H231789   6.885   6.274   2.318
10638TIP3   OH231790   7.449   6.702   3.971
10638TIP3    H131791   7.409   6.719   3.883
10638TIP3    H231792   7.482   6.610   3.963
10639TIP3   OH231793   7.329   6.467   2.199
10639TIP3    H131794   7.330   6.480   2.295
10639TIP3    H231795   7.328   6.368   2.193
10640TIP3   OH231796   7.941   6.711   3.574
10640TIP3    H131797   8.017   6.756   3.532
10640TIP3    H231798   7.872   6.779   3.563
10641TIP3   OH231799   6.959   6.352   4.179
10641TIP3    H131800   7.037   6.299   4.156
10641TIP3    H231801   6.985   6.384   4.268
10642TIP3   OH231802   7.029   6.173   2.613
10642TIP3    H131803   7.000   6.130   2.696
10642TIP3    H231804   7.063   6.097   2.562
10643TIP3   OH231805   7.295   6.236   3.840
10643TIP3    H131806   7.219   6.298   3.843
10643TIP3    H231807   7.345   6.270   3.762
10644TIP3   OH231808   7.128   5.966   2.453
10644TIP3    H131809   7.100   5.969   2.359
10644TIP3    H231810   7.225   5.973   2.444
10645TIP3   OH231811   7.811   6.637   3.973
10645TIP3    H131812   7.895   6.619   3.930
10645TIP3    H231813   7.811   6.573   4.046
10646TIP3   OH231814   7.948   6.297   2.117
10646TIP3    H131815   7.928   6.252   2.033
10646TIP3    H231816   7.920   6.389   2.093
10647TIP3   OH231817   7.412   6.022   3.970
10647TIP3    H131818   7.420   5.946   3.910
10647TIP3    H231819   7.374   6.091   3.910
10648TIP3   OH231820   7.419   5.818   3.774
10648TIP3    H131821   7.448   5.855   3.689
10648TIP3    H231822   7.326   5.793   3.754
10649TIP3   OH231823   7.448   6.346   3.647
10649TIP3    H131824   7.532   6.354   3.601
10649TIP3    H231825   7.394   6.414   3.603
10650TIP3   OH231826   8.031   6.315   4.028
10650TIP3    H131827   8.079   6.232   4.040
10650TIP3    H231828   8.101   6.374   3.996
10651TIP3   OH231829   8.072   6.566   3.761
10651TIP3    H131830   8.015   6.621   3.703
10651TIP3    H231831   8.160   6.587   3.722
10652TIP3   OH231832   7.295   6.140   4.197
10652TIP3    H131833   7.223   6.075   4.212
10652TIP3    H231834   7.331   6.112   4.111
10653TIP3   OH231835   7.564   5.589   3.825
10653TIP3    H131836   7.509   5.669   3.810
10653TIP3    H231837   7.499   5.517   3.820
10654TIP3   OH231838   7.679   6.081   4.057
10654TIP3    H131839   7.675   6.069   4.153
10654TIP3    H231840   7.588   6.053   4.032
10655TIP3   OH231841   7.919   6.029   3.910
10655TIP3    H131842   7.844   6.028   3.972
10655TIP3    H231843   7.993   5.998   3.967
10656TIP3   OH231844   8.144   5.969   4.063
10656TIP3    H131845   8.160   5.874   4.082
10656TIP3    H231846   8.142   6.008   4.153
10657TIP3   OH231847   7.136   5.916   4.249
10657TIP3    H131848   7.190   5.852   4.200
10657TIP3    H231849   7.170   5.902   4.340
10658TIP3   OH231850   7.695   5.608   4.072
10658TIP3    H131851   7.739   5.521   4.083
10658TIP3    H231852   7.639   5.589   3.994
10659TIP3   OH231853   7.715   5.802   4.262
10659TIP3    H131854   7.708   5.735   4.190
10659TIP3    H231855   7.635   5.857   4.248
10660TIP3   OH231856   6.935   7.027   2.358
10660TIP3    H131857   7.030   7.025   2.337
10660TIP3    H231858   6.903   7.077   2.280
10661TIP3   OH231859   6.415   6.410   2.575
10661TIP3    H131860   6.509   6.432   2.561
10661TIP3    H231861   6.409   6.321   2.532
10662TIP3   OH231862   6.328   7.022   2.988
10662TIP3    H131863   6.261   6.960   2.952
10662TIP3    H231864   6.373   6.965   3.053
10663TIP3   OH231865   6.465   6.874   3.174
10663TIP3    H131866   6.453   6.801   3.236
10663TIP3    H231867   6.516   6.936   3.229
10664TIP3   OH231868   8.189   7.277   2.974
10664TIP3    H131869   8.217   7.310   3.061
10664TIP3    H231870   8.253   7.320   2.914
10665TIP3   OH231871   8.220   7.295   3.256
10665TIP3    H131872   8.181   7.205   3.254
10665TIP3    H231873   8.298   7.277   3.310
10666TIP3   OH231874   8.266   6.972   3.828
10666TIP3    H131875   8.195   6.980   3.894
10666TIP3    H231876   8.309   7.060   3.833
10667TIP3   OH231877   8.083   6.485   2.450
10667TIP3    H131878   8.151   6.547   2.419
10667TIP3    H231879   8.128   6.445   2.527
10668TIP3   OH231880   8.211   6.352   2.652
10668TIP3    H131881   8.148   6.310   2.713
10668TIP3    H231882   8.280   6.388   2.712
10669TIP3   OH231883   8.261   6.742   3.079
10669TIP3    H131884   8.321   6.679   3.034
10669TIP3    H231885   8.260   6.818   3.018
10670TIP3   OH231886   8.097   7.042   3.279
10670TIP3    H131887   8.027   7.086   3.332
10670TIP3    H231888   8.045   6.994   3.211
10671TIP3   OH231889   8.149   6.259   2.300
10671TIP3    H131890   8.078   6.263   2.232
10671TIP3    H231891   8.124   6.336   2.354
10672TIP3   OH231892   8.020   5.932   2.255
10672TIP3    H131893   7.980   5.974   2.178
10672TIP3    H231894   7.995   5.838   2.242
10673TIP3   OH231895   8.025   6.208   2.798
10673TIP3    H131896   8.035   6.112   2.794
10673TIP3    H231897   8.012   6.224   2.895
10674TIP3   OH231898   6.652   6.282   3.546
10674TIP3    H131899   6.651   6.251   3.453
10674TIP3    H231900   6.749   6.284   3.562
10675TIP3   OH231901   8.314   6.632   3.654
10675TIP3    H131902   8.387   6.567   3.647
10675TIP3    H231903   8.345   6.704   3.597
10676TIP3   OH231904   8.499   6.438   3.672
10676TIP3    H131905   8.426   6.387   3.712
10676TIP3    H231906   8.573   6.376   3.685
10677TIP3   OH231907   7.965   5.666   2.239
10677TIP3    H131908   8.040   5.636   2.295
10677TIP3    H231909   7.892   5.608   2.265
10678TIP3   OH231910   8.021   5.925   2.694
10678TIP3    H131911   8.064   5.837   2.708
10678TIP3    H231912   8.079   5.959   2.624
10679TIP3   OH231913   8.183   6.098   3.188
10679TIP3    H131914   8.269   6.125   3.148
10679TIP3    H231915   8.196   6.135   3.277
10680TIP3   OH231916   8.251   6.241   3.421
10680TIP3    H131917   8.174   6.277   3.471
10680TIP3    H231918   8.284   6.322   3.376
10681TIP3   OH231919   6.868   5.967   4.223
10681TIP3    H131920   6.965   5.959   4.222
10681TIP3    H231921   6.844   5.885   4.270
10682TIP3   OH231922   8.696   5.828   3.976
10682TIP3    H131923   8.761   5.766   3.935
10682TIP3    H231924   8.676   5.889   3.902
10683TIP3   OH231925   8.132   5.676   2.731
10683TIP3    H131926   8.181   5.660   2.814
10683TIP3    H231927   8.071   5.599   2.730
10684TIP3   OH231928   6.832   5.661   3.550
10684TIP3    H131929   6.895   5.586   3.561
10684TIP3    H231930   6.895   5.735   3.544
10685TIP3   OH231931   6.635   5.934   3.625
10685TIP3    H131932   6.684   5.927   3.541
10685TIP3    H231933   6.663   6.021   3.656
10686TIP3   OH231934   8.576   5.976   3.782
10686TIP3    H131935   8.490   6.014   3.808
10686TIP3    H231936   8.546   5.902   3.725
10687TIP3   OH231937   8.212   5.608   2.365
10687TIP3    H131938   8.254   5.538   2.311
10687TIP3    H231939   8.277   5.681   2.359
10688TIP3   OH231940   6.617   5.437   3.126
10688TIP3    H131941   6.523   5.435   3.152
10688TIP3    H231942   6.615   5.496   3.047
10689TIP3   OH231943   6.821   5.531   3.966
10689TIP3    H131944   6.748   5.491   4.014
10689TIP3    H231945   6.772   5.569   3.890
10690TIP3   OH231946   6.877   6.944   4.016
10690TIP3    H131947   6.785   6.918   4.000
10690TIP3    H231948   6.887   6.927   4.110
10691TIP3   OH231949   7.055   6.976   3.564
10691TIP3    H131950   7.007   7.053   3.525
10691TIP3    H231951   7.141   6.990   3.519
10692TIP3   OH231952   7.501   7.223   3.702
10692TIP3    H131953   7.542   7.222   3.790
10692TIP3    H231954   7.568   7.272   3.650
10693TIP3   OH231955   7.681   7.372   3.560
10693TIP3    H131956   7.755   7.322   3.521
10693TIP3    H231957   7.731   7.431   3.621
10694TIP3   OH231958   8.475   5.737   3.660
10694TIP3    H131959   8.383   5.731   3.630
10694TIP3    H231960   8.506   5.644   3.648
10695TIP3   OH231961   6.732   7.233   3.588
10695TIP3    H131962   6.643   7.268   3.564
10695TIP3    H231963   6.742   7.272   3.676
10696TIP3   OH231964   6.968   7.211   3.445
10696TIP3    H131965   6.881   7.225   3.490
10696TIP3    H231966   6.948   7.247   3.355
10697TIP3   OH231967   7.396   7.244   3.236
10697TIP3    H131968   7.321   7.266   3.178
10697TIP3    H231969   7.409   7.329   3.283
10698TIP3   OH231970   7.663   7.180   3.290
10698TIP3    H131971   7.569   7.200   3.274
10698TIP3    H231972   7.706   7.260   3.255
10699TIP3   OH231973   7.867   7.372   3.209
10699TIP3    H131974   7.854   7.459   3.165
10699TIP3    H231975   7.896   7.316   3.134
10700TIP3   OH231976   6.642   7.028   3.333
10700TIP3    H131977   6.670   7.003   3.423
10700TIP3    H231978   6.715   6.986   3.282
10701TIP3   OH231979   6.837   6.900   3.189
10701TIP3    H131980   6.852   6.816   3.238
10701TIP3    H231981   6.928   6.937   3.186
10702TIP3   OH231982   7.103   6.993   3.192
10702TIP3    H131983   7.133   6.900   3.184
10702TIP3    H231984   7.147   7.017   3.276
10703TIP3   OH231985   7.676   5.652   3.278
10703TIP3    H131986   7.634   5.586   3.336
10703TIP3    H231987   7.751   5.603   3.239
10704TIP3   OH231988   8.195   5.510   3.170
10704TIP3    H131989   8.238   5.570   3.104
10704TIP3    H231990   8.107   5.552   3.178
10705TIP3   OH231991   8.297   5.631   2.947
10705TIP3    H131992   8.371   5.580   2.908
10705TIP3    H231993   8.331   5.723   2.934
10706TIP3   OH231994   6.928   5.359   3.296
10706TIP3    H131995   6.836   5.326   3.297
10706TIP3    H231996   6.978   5.275   3.293
10707TIP3   OH231997   6.715   5.229   2.944
10707TIP3    H131998   6.743   5.287   2.871
10707TIP3    H231999   6.685   5.294   3.010
10708TIP3   OH232000   7.373   5.390   3.176
10708TIP3    H132001   7.430   5.445   3.121
10708TIP3    H232002   7.387   5.429   3.264
10709TIP3   OH232003   7.910   5.530   3.165
10709TIP3    H132004   7.900   5.513   3.071
10709TIP3    H232005   7.901   5.440   3.204
10710TIP3   OH232006   7.948   5.463   2.724
10710TIP3    H132007   7.863   5.510   2.733
10710TIP3    H232008   7.926   5.376   2.764
10711TIP3   OH232009   6.431   6.800   2.724
10711TIP3    H132010   6.346   6.767   2.690
10711TIP3    H232011   6.421   6.895   2.705
10712TIP3   OH232012   6.831   5.389   2.708
10712TIP3    H132013   6.879   5.327   2.651
10712TIP3    H232014   6.904   5.443   2.744
10713TIP3   OH232015   7.344   5.563   2.806
10713TIP3    H132016   7.404   5.518   2.868
10713TIP3    H232017   7.364   5.656   2.831
10714TIP3   OH232018   7.203   6.989   2.305
10714TIP3    H132019   7.291   7.011   2.269
10714TIP3    H232020   7.180   6.915   2.244
10715TIP3   OH232021   6.507   6.824   2.363
10715TIP3    H132022   6.508   6.853   2.455
10715TIP3    H232023   6.596   6.783   2.352
10716TIP3   OH232024   8.210   5.700   4.095
10716TIP3    H132025   8.229   5.669   4.186
10716TIP3    H232026   8.299   5.696   4.054
10717TIP3   OH232027   8.148   7.252   3.586
10717TIP3    H132028   8.069   7.221   3.538
10717TIP3    H232029   8.130   7.348   3.590
10718TIP3   OH232030   9.422   6.612   2.337
10718TIP3    H132031   9.404   6.707   2.327
10718TIP3    H232032   9.335   6.574   2.319
10719TIP3   OH232033   9.365   6.624   2.745
10719TIP3    H132034   9.428   6.610   2.817
10719TIP3    H232035   9.368   6.540   2.698
10720TIP3   OH232036   8.712   6.519   3.101
10720TIP3    H132037   8.744   6.453   3.165
10720TIP3    H232038   8.790   6.575   3.090
10721TIP3   OH232039   8.683   6.926   2.823
10721TIP3    H132040   8.676   6.828   2.825
10721TIP3    H232041   8.780   6.936   2.819
10722TIP3   OH232042   8.389   6.130   2.609
10722TIP3    H132043   8.344   6.215   2.624
10722TIP3    H232044   8.318   6.079   2.568
10723TIP3   OH232045   8.449   6.417   2.778
10723TIP3    H132046   8.499   6.342   2.817
10723TIP3    H232047   8.514   6.455   2.717
10724TIP3   OH232048   9.298   7.375   2.443
10724TIP3    H132049   9.340   7.291   2.417
10724TIP3    H232050   9.289   7.362   2.538
10725TIP3   OH232051   9.207   6.850   2.784
10725TIP3    H132052   9.250   6.767   2.754
10725TIP3    H232053   9.289   6.901   2.802
10726TIP3   OH232054   9.630   6.376   2.812
10726TIP3    H132055   9.629   6.281   2.836
10726TIP3    H232056   9.608   6.369   2.717
10727TIP3   OH232057   8.959   6.010   2.782
10727TIP3    H132058   8.942   6.084   2.719
10727TIP3    H232059   8.911   5.938   2.736
10728TIP3   OH232060   9.645   6.099   2.419
10728TIP3    H132061   9.716   6.064   2.475
10728TIP3    H232062   9.693   6.166   2.367
10729TIP3   OH232063   8.596   6.212   2.887
10729TIP3    H132064   8.679   6.194   2.935
10729TIP3    H232065   8.610   6.158   2.807
10730TIP3   OH232066   9.037   6.410   2.679
10730TIP3    H132067   9.131   6.385   2.693
10730TIP3    H232068   9.000   6.325   2.647
10731TIP3   OH232069   8.958   5.992   3.214
10731TIP3    H132070   8.900   6.032   3.146
10731TIP3    H232071   8.906   6.012   3.295
10732TIP3   OH232072   9.310   6.850   2.221
10732TIP3    H132073   9.263   6.826   2.140
10732TIP3    H232074   9.264   6.933   2.246
10733TIP3   OH232075   9.064   6.767   3.010
10733TIP3    H132076   9.004   6.836   3.046
10733TIP3    H232077   9.111   6.817   2.940
10734TIP3   OH232078   8.828   6.109   3.000
10734TIP3    H132079   8.890   6.183   3.021
10734TIP3    H232080   8.878   6.069   2.925
10735TIP3   OH232081   8.892   6.963   3.105
10735TIP3    H132082   8.869   7.050   3.067
10735TIP3    H232083   8.814   6.949   3.163
10736TIP3   OH232084   8.286   6.651   2.344
10736TIP3    H132085   8.247   6.674   2.257
10736TIP3    H232086   8.316   6.737   2.377
10737TIP3   OH232087   9.309   5.713   2.925
10737TIP3    H132088   9.301   5.617   2.940
10737TIP3    H232089   9.231   5.746   2.974
10738TIP3   OH232090   9.430   7.215   2.242
10738TIP3    H132091   9.502   7.157   2.271
10738TIP3    H232092   9.471   7.304   2.245
10739TIP3   OH232093   9.234   6.466   2.174
10739TIP3    H132094   9.154   6.522   2.166
10739TIP3    H232095   9.279   6.484   2.091
10740TIP3   OH232096   9.202   6.260   1.896
10740TIP3    H132097   9.259   6.300   1.964
10740TIP3    H232098   9.263   6.197   1.854
10741TIP3   OH232099   8.825   6.555   2.572
10741TIP3    H132100   8.787   6.496   2.504
10741TIP3    H232101   8.903   6.503   2.602
10742TIP3   OH232102   8.953   6.965   2.721
10742TIP3    H132103   8.940   6.920   2.637
10742TIP3    H232104   9.045   6.936   2.744
10743TIP3   OH232105   8.958   6.529   2.924
10743TIP3    H132106   8.997   6.507   2.836
10743TIP3    H232107   9.004   6.613   2.947
10744TIP3   OH232108   9.446   7.165   2.688
10744TIP3    H132109   9.472   7.247   2.733
10744TIP3    H232110   9.464   7.097   2.756
10745TIP3   OH232111   9.098   7.080   3.255
10745TIP3    H132112   9.039   7.145   3.298
10745TIP3    H232113   9.033   7.029   3.203
10746TIP3   OH232114   9.449   6.422   1.988
10746TIP3    H132115   9.486   6.485   2.052
10746TIP3    H232116   9.474   6.461   1.903
10747TIP3   OH232117   8.854   6.639   3.352
10747TIP3    H132118   8.860   6.726   3.395
10747TIP3    H232119   8.758   6.622   3.360
10748TIP3   OH232120   9.171   7.094   2.254
10748TIP3    H132121   9.248   7.150   2.275
10748TIP3    H232122   9.107   7.158   2.219
10749TIP3   OH232123   8.893   7.251   3.335
10749TIP3    H132124   8.858   7.251   3.244
10749TIP3    H232125   8.812   7.231   3.389
10750TIP3   OH232126   8.693   6.397   2.373
10750TIP3    H132127   8.626   6.444   2.318
10750TIP3    H232128   8.650   6.313   2.389
10751TIP3   OH232129   8.471   6.782   3.285
10751TIP3    H132130   8.410   6.756   3.214
10751TIP3    H232131   8.511   6.696   3.312
10752TIP3   OH232132   8.328   6.976   2.912
10752TIP3    H132133   8.424   6.965   2.905
10752TIP3    H232134   8.323   7.053   2.970
10753TIP3   OH232135   9.291   7.214   3.104
10753TIP3    H132136   9.294   7.307   3.136
10753TIP3    H232137   9.225   7.174   3.165
10754TIP3   OH232138   9.053   7.348   2.056
10754TIP3    H132139   9.006   7.326   1.974
10754TIP3    H232140   9.017   7.436   2.079
10755TIP3   OH232141   8.492   7.188   2.443
10755TIP3    H132142   8.544   7.182   2.526
10755TIP3    H232143   8.442   7.105   2.448
10756TIP3   OH232144   9.266   7.242   1.715
10756TIP3    H132145   9.343   7.191   1.686
10756TIP3    H232146   9.290   7.260   1.809
10757TIP3   OH232147   9.305   7.287   1.981
10757TIP3    H132148   9.214   7.300   2.018
10757TIP3    H232149   9.350   7.248   2.058
10758TIP3   OH232150   8.677   6.965   3.273
10758TIP3    H132151   8.728   6.950   3.355
10758TIP3    H232152   8.603   6.902   3.282
10759TIP3   OH232153   9.076   5.787   3.058
10759TIP3    H132154   8.986   5.759   3.033
10759TIP3    H232155   9.054   5.872   3.101
10760TIP3   OH232156   9.600   5.902   3.255
10760TIP3    H132157   9.647   5.894   3.339
10760TIP3    H232158   9.507   5.883   3.284
10761TIP3   OH232159   9.229   5.838   2.029
10761TIP3    H132160   9.198   5.838   2.122
10761TIP3    H232161   9.186   5.757   1.998
10762TIP3   OH232162   9.006   6.305   3.072
10762TIP3    H132163   8.960   6.328   3.155
10762TIP3    H232164   8.991   6.386   3.019
10763TIP3   OH232165   8.892   6.188   2.589
10763TIP3    H132166   8.799   6.163   2.607
10763TIP3    H232167   8.905   6.147   2.501
10764TIP3   OH232168   9.374   6.268   2.307
10764TIP3    H132169   9.323   6.344   2.272
10764TIP3    H232170   9.440   6.252   2.238
10765TIP3   OH232171   9.560   6.553   3.401
10765TIP3    H132172   9.535   6.483   3.465
10765TIP3    H232173   9.654   6.567   3.424
10766TIP3   OH232174   9.518   6.303   2.571
10766TIP3    H132175   9.492   6.355   2.493
10766TIP3    H232176   9.554   6.224   2.526
10767TIP3   OH232177   8.826   6.334   3.285
10767TIP3    H132178   8.858   6.398   3.350
10767TIP3    H232179   8.817   6.253   3.338
10768TIP3   OH232180   8.879   5.810   1.993
10768TIP3    H132181   8.871   5.809   2.091
10768TIP3    H232182   8.800   5.863   1.969
10769TIP3   OH232183   8.421   5.854   2.865
10769TIP3    H132184   8.494   5.889   2.920
10769TIP3    H232185   8.466   5.827   2.784
10770TIP3   OH232186   8.392   5.836   2.383
10770TIP3    H132187   8.437   5.876   2.305
10770TIP3    H232188   8.332   5.910   2.406
10771TIP3   OH232189   9.520   6.560   2.976
10771TIP3    H132190   9.575   6.502   2.918
10771TIP3    H232191   9.511   6.502   3.054
10772TIP3   OH232192   9.214   6.005   2.649
10772TIP3    H132193   9.135   6.012   2.706
10772TIP3    H232194   9.285   6.024   2.712
10773TIP3   OH232195   8.653   6.068   2.659
10773TIP3    H132196   8.558   6.074   2.632
10773TIP3    H232197   8.678   5.978   2.634
10774TIP3   OH232198   8.921   6.060   2.348
10774TIP3    H132199   9.016   6.078   2.333
10774TIP3    H232200   8.878   6.088   2.264
10775TIP3   OH232201   9.617   6.109   2.858
10775TIP3    H132202   9.625   6.108   2.956
10775TIP3    H232203   9.580   6.021   2.837
10776TIP3   OH232204   8.764   6.097   2.125
10776TIP3    H132205   8.692   6.053   2.076
10776TIP3    H232206   8.816   6.134   2.050
10777TIP3   OH232207   8.838   6.886   3.493
10777TIP3    H132208   8.918   6.917   3.538
10777TIP3    H232209   8.774   6.888   3.567
10778TIP3   OH232210   9.297   6.321   2.741
10778TIP3    H132211   9.377   6.304   2.687
10778TIP3    H232212   9.325   6.294   2.829
10779TIP3   OH232213   8.823   5.830   2.625
10779TIP3    H132214   8.793   5.748   2.670
10779TIP3    H232215   8.881   5.795   2.556
10780TIP3   OH232216   9.279   6.231   3.052
10780TIP3    H132217   9.191   6.273   3.052
10780TIP3    H232218   9.336   6.300   3.093
10781TIP3   OH232219   9.014   6.626   2.133
10781TIP3    H132220   8.940   6.562   2.123
10781TIP3    H232221   8.996   6.661   2.224
10782TIP3   OH232222   9.469   5.961   1.972
10782TIP3    H132223   9.381   5.934   2.008
10782TIP3    H232224   9.489   6.043   2.021
10783TIP3   OH232225   9.407   6.940   3.136
10783TIP3    H132226   9.434   6.935   3.228
10783TIP3    H232227   9.385   7.035   3.127
10784TIP3   OH232228   9.566   6.192   2.083
10784TIP3    H132229   9.653   6.223   2.113
10784TIP3    H232230   9.533   6.269   2.034
10785TIP3   OH232231   8.703   6.643   2.808
10785TIP3    H132232   8.746   6.621   2.723
10785TIP3    H232233   8.755   6.589   2.870
10786TIP3   OH232234   9.156   6.774   1.954
10786TIP3    H132235   9.112   6.862   1.960
10786TIP3    H232236   9.101   6.721   2.015
10787TIP3   OH232237   8.587   6.573   3.423
10787TIP3    H132238   8.614   6.561   3.516
10787TIP3    H232239   8.522   6.502   3.412
10788TIP3   OH232240   9.314   6.682   3.442
10788TIP3    H132241   9.256   6.628   3.386
10788TIP3    H232242   9.402   6.653   3.411
10789TIP3   OH232243   9.572   7.191   3.029
10789TIP3    H132244   9.477   7.211   3.025
10789TIP3    H232245   9.601   7.249   3.102
10790TIP3   OH232246   8.809   6.952   2.429
10790TIP3    H132247   8.812   7.035   2.379
10790TIP3    H232248   8.714   6.942   2.444
10791TIP3   OH232249   8.373   6.257   2.137
10791TIP3    H132250   8.419   6.342   2.156
10791TIP3    H232251   8.295   6.265   2.197
10792TIP3   OH232252   8.946   6.719   2.377
10792TIP3    H132253   8.912   6.809   2.394
10792TIP3    H232254   8.913   6.671   2.455
10793TIP3   OH232255   9.079   7.296   2.902
10793TIP3    H132256   9.121   7.368   2.852
10793TIP3    H232257   9.155   7.261   2.951
10794TIP3   OH232258   8.729   7.193   2.286
10794TIP3    H132259   8.642   7.203   2.331
10794TIP3    H232260   8.762   7.286   2.290
10795TIP3   OH232261   9.461   6.933   2.861
10795TIP3    H132262   9.456   6.936   2.959
10795TIP3    H232263   9.542   6.882   2.848
10796TIP3   OH232264   8.803   6.075   3.431
10796TIP3    H132265   8.707   6.081   3.447
10796TIP3    H232266   8.832   6.018   3.504
10797TIP3   OH232267   8.513   7.159   3.063
10797TIP3    H132268   8.571   7.088   3.095
10797TIP3    H232269   8.543   7.233   3.116
10798TIP3   OH232270   8.808   6.804   1.743
10798TIP3    H132271   8.820   6.711   1.716
10798TIP3    H232272   8.790   6.793   1.839
10799TIP3   OH232273   8.754   6.810   2.015
10799TIP3    H132274   8.823   6.785   2.079
10799TIP3    H232275   8.756   6.908   2.021
10800TIP3   OH232276   8.488   6.503   2.218
10800TIP3    H132277   8.422   6.548   2.275
10800TIP3    H232278   8.503   6.573   2.151
10801TIP3   OH232279   9.668   6.141   3.136
10801TIP3    H132280   9.698   6.187   3.217
10801TIP3    H232281   9.633   6.058   3.174
10802TIP3   OH232282   9.484   5.915   2.278
10802TIP3    H132283   9.518   5.914   2.187
10802TIP3    H232284   9.545   5.978   2.322
10803TIP3   OH232285   9.018   7.008   1.963
10803TIP3    H132286   8.932   7.035   2.000
10803TIP3    H232287   9.034   7.080   1.900
10804TIP3   OH232288   9.197   6.071   2.378
10804TIP3    H132289   9.267   6.138   2.358
10804TIP3    H232290   9.207   6.062   2.476
10805TIP3   OH232291   9.477   6.387   3.188
10805TIP3    H132292   9.492   6.450   3.262
10805TIP3    H232293   9.541   6.318   3.207
10806TIP3   OH232294   9.349   5.794   2.482
10806TIP3    H132295   9.341   5.870   2.543
10806TIP3    H232296   9.402   5.835   2.410
10807TIP3   OH232297   8.761   7.082   2.033
10807TIP3    H132298   8.732   7.151   1.968
10807TIP3    H232299   8.745   7.127   2.118
10808TIP3   OH232300   8.864   5.795   2.269
10808TIP3    H132301   8.860   5.886   2.306
10808TIP3    H232302   8.960   5.779   2.279
10809TIP3   OH232303   8.480   6.715   2.027
10809TIP3    H132304   8.545   6.787   2.031
10809TIP3    H232305   8.523   6.660   1.958
10810TIP3   OH232306   8.424   5.987   2.157
10810TIP3    H132307   8.426   6.085   2.154
10810TIP3    H232308   8.340   5.968   2.115
10811TIP3   OH232309   8.811   5.709   3.032
10811TIP3    H132310   8.781   5.676   2.945
10811TIP3    H232311   8.801   5.630   3.089
10812TIP3   OH232312   8.354   6.930   2.410
10812TIP3    H132313   8.270   6.963   2.444
10812TIP3    H232314   8.351   6.966   2.320
10813TIP3   OH232315   8.507   7.469   3.486
10813TIP3    H132316   8.594   7.471   3.532
10813TIP3    H232317   8.490   7.373   3.483
10814TIP3   OH232318   8.984   7.433   3.531
10814TIP3    H132319   9.081   7.426   3.538
10814TIP3    H232320   8.967   7.375   3.454
10815TIP3   OH232321   8.969   7.009   1.658
10815TIP3    H132322   8.912   6.939   1.697
10815TIP3    H232323   9.042   6.955   1.625
10816TIP3   OH232324   9.637   7.330   3.258
10816TIP3    H132325   9.616   7.263   3.327
10816TIP3    H232326   9.698   7.389   3.304
10817TIP3   OH232327   8.638   6.875   3.685
10817TIP3    H132328   8.656   6.779   3.689
10817TIP3    H232329   8.550   6.877   3.641
10818TIP3   OH232330   8.616   6.527   1.877
10818TIP3    H132331   8.671   6.495   1.951
10818TIP3    H232332   8.682   6.532   1.806
10819TIP3   OH232333   9.246   6.958   3.458
10819TIP3    H132334   9.206   6.979   3.371
10819TIP3    H232335   9.277   6.866   3.447
10820TIP3   OH232336   9.122   6.724   1.684
10820TIP3    H132337   9.133   6.742   1.780
10820TIP3    H232338   9.115   6.626   1.685
10821TIP3   OH232339   8.755   6.606   3.665
10821TIP3    H132340   8.834   6.554   3.644
10821TIP3    H232341   8.780   6.640   3.754
10822TIP3   OH232342   8.822   6.428   2.099
10822TIP3    H132343   8.796   6.390   2.185
10822TIP3    H232344   8.856   6.351   2.051
10823TIP3   OH232345   9.090   6.490   3.322
10823TIP3    H132346   9.016   6.554   3.328
10823TIP3    H232347   9.141   6.526   3.245
10824TIP3   OH232348   8.922   6.221   1.939
10824TIP3    H132349   8.894   6.225   1.845
10824TIP3    H232350   9.019   6.232   1.929
10825TIP3   OH232351   9.599   6.895   3.467
10825TIP3    H132352   9.676   6.874   3.413
10825TIP3    H232353   9.601   6.827   3.537
10826TIP3   OH232354   9.216   6.283   3.453
10826TIP3    H132355   9.215   6.202   3.398
10826TIP3    H232356   9.173   6.349   3.395
10827TIP3   OH232357   9.217   6.063   3.263
10827TIP3    H132358   9.244   6.113   3.182
10827TIP3    H232359   9.123   6.043   3.244
10828TIP3   OH232360   9.249   6.602   3.132
10828TIP3    H132361   9.331   6.610   3.081
10828TIP3    H232362   9.193   6.672   3.090
10829TIP3   OH232363   9.836   6.574   3.512
10829TIP3    H132364   9.868   6.492   3.551
10829TIP3    H232365   9.918   6.625   3.504
10830TIP3   OH232366   9.092   6.395   3.682
10830TIP3    H132367   9.023   6.326   3.697
10830TIP3    H232368   9.128   6.367   3.596
10831TIP3   OH232369   9.347   5.830   3.322
10831TIP3    H132370   9.298   5.913   3.304
10831TIP3    H232371   9.277   5.763   3.313
10832TIP3   OH232372   9.479   6.335   3.541
10832TIP3    H132373   9.470   6.325   3.637
10832TIP3    H232374   9.388   6.313   3.513
10833TIP3   OH232375   9.706   6.251   3.388
10833TIP3    H132376   9.631   6.277   3.445
10833TIP3    H232377   9.776   6.240   3.455
10834TIP3   OH232378   9.921   6.205   3.569
10834TIP3    H132379   9.970   6.137   3.616
10834TIP3    H232380   9.917   6.275   3.639
10835TIP3   OH232381   8.931   6.174   3.736
10835TIP3    H132382   8.942   6.083   3.703
10835TIP3    H232383   8.968   6.164   3.827
10836TIP3   OH232384   9.450   5.845   3.578
10836TIP3    H132385   9.512   5.770   3.576
10836TIP3    H232386   9.404   5.835   3.492
10837TIP3   OH232387   9.512   6.060   3.739
10837TIP3    H132388   9.487   5.988   3.677
10837TIP3    H232389   9.434   6.118   3.738
10838TIP3   OH232390   8.731   7.282   1.846
10838TIP3    H132391   8.826   7.282   1.824
10838TIP3    H232392   8.697   7.331   1.768
10839TIP3   OH232393   8.211   6.667   2.067
10839TIP3    H132394   8.304   6.689   2.047
10839TIP3    H232395   8.202   6.581   2.020
10840TIP3   OH232396   8.103   7.267   2.478
10840TIP3    H132397   8.088   7.217   2.396
10840TIP3    H232398   8.161   7.209   2.531
10841TIP3   OH232399   8.246   7.121   2.666
10841TIP3    H132400   8.267   7.049   2.729
10841TIP3    H232401   8.294   7.194   2.710
10842TIP3   OH232402   8.449   6.541   3.032
10842TIP3    H132403   8.448   6.510   2.939
10842TIP3    H232404   8.546   6.543   3.050
10843TIP3   OH232405   8.664   6.224   3.701
10843TIP3    H132406   8.762   6.221   3.707
10843TIP3    H232407   8.641   6.140   3.746
10844TIP3   OH232408   8.627   5.917   3.039
10844TIP3    H132409   8.691   5.844   3.050
10844TIP3    H232410   8.687   5.993   3.033
10845TIP3   OH232411   8.429   6.190   3.110
10845TIP3    H132412   8.480   6.186   3.027
10845TIP3    H232413   8.459   6.275   3.146
10846TIP3   OH232414   8.412   5.689   2.609
10846TIP3    H132415   8.319   5.693   2.637
10846TIP3    H232416   8.412   5.750   2.532
10847TIP3   OH232417   8.632   5.770   3.424
10847TIP3    H132418   8.585   5.770   3.509
10847TIP3    H232419   8.566   5.812   3.366
10848TIP3   OH232420   8.672   7.201   3.502
10848TIP3    H132421   8.580   7.174   3.488
10848TIP3    H232422   8.685   7.185   3.597
10849TIP3   OH232423   8.851   7.233   3.049
10849TIP3    H132424   8.806   7.311   3.010
10849TIP3    H232425   8.938   7.246   3.007
10850TIP3   OH232426   9.294   7.480   3.186
10850TIP3    H132427   9.338   7.482   3.273
10850TIP3    H232428   9.360   7.528   3.131
10851TIP3   OH232429   9.472   7.627   3.039
10851TIP3    H132430   9.552   7.607   2.988
10851TIP3    H232431   9.515   7.678   3.112
10852TIP3   OH232432   8.525   7.487   3.075
10852TIP3    H132433   8.437   7.523   3.054
10852TIP3    H232434   8.542   7.530   3.160
10853TIP3   OH232435   8.761   7.466   2.931
10853TIP3    H132436   8.675   7.480   2.976
10853TIP3    H232437   8.743   7.503   2.842
10854TIP3   OH232438   9.188   7.494   2.723
10854TIP3    H132439   9.114   7.520   2.666
10854TIP3    H232440   9.204   7.578   2.774
10855TIP3   OH232441   9.459   7.432   2.766
10855TIP3    H132442   9.365   7.455   2.761
10855TIP3    H232443   9.504   7.517   2.753
10856TIP3   OH232444   8.434   7.281   2.816
10856TIP3    H132445   8.463   7.259   2.907
10856TIP3    H232446   8.508   7.240   2.766
10857TIP3   OH232447   8.633   7.155   2.675
10857TIP3    H132448   8.650   7.071   2.724
10857TIP3    H232449   8.724   7.193   2.674
10858TIP3   OH232450   8.898   7.250   2.682
10858TIP3    H132451   8.932   7.159   2.670
10858TIP3    H232452   8.945   7.273   2.765
10859TIP3   OH232453   9.470   5.874   2.756
10859TIP3    H132454   9.414   5.816   2.812
10859TIP3    H232455   9.505   5.810   2.692
10860TIP3   OH232456   8.724   5.616   2.784
10860TIP3    H132457   8.632   5.583   2.782
10860TIP3    H232458   8.774   5.532   2.780
10861TIP3   OH232459   8.512   5.485   2.431
10861TIP3    H132460   8.541   5.543   2.359
10861TIP3    H232461   8.481   5.550   2.497
10862TIP3   OH232462   9.163   5.649   2.663
10862TIP3    H132463   9.220   5.695   2.600
10862TIP3    H232464   9.189   5.689   2.747
10863TIP3   OH232465   8.202   7.068   2.223
10863TIP3    H132466   8.132   7.028   2.170
10863TIP3    H232467   8.207   7.156   2.179
10864TIP3   OH232468   8.627   5.645   2.196
10864TIP3    H132469   8.677   5.584   2.138
10864TIP3    H232470   8.699   5.701   2.232
10865TIP3   OH232471   9.141   5.819   2.292
10865TIP3    H132472   9.203   5.776   2.353
10865TIP3    H232473   9.158   5.913   2.317
10866TIP3   OH232474   8.999   7.246   1.793
10866TIP3    H132475   9.086   7.270   1.754
10866TIP3    H232476   8.975   7.173   1.731
10867TIP3   OH232477   8.932   5.893   3.670
10867TIP3    H132478   8.898   5.826   3.732
10867TIP3    H232479   9.026   5.896   3.699
10868TIP3   OH232480   9.178   5.891   3.793
10868TIP3    H132481   9.267   5.867   3.761
10868TIP3    H232482   9.165   5.824   3.863
10869TIP3   OH232483   8.306   7.087   1.849
10869TIP3    H132484   8.301   7.121   1.939
10869TIP3    H232485   8.396   7.047   1.845
10870TIP3   OH232486   0.373   7.456   4.603
10870TIP3    H132487   0.416   7.395   4.665
10870TIP3    H232488   0.407   7.542   4.633
10871TIP3   OH232489   0.883   6.702   4.982
10871TIP3    H132490   0.911   6.785   5.027
10871TIP3    H232491   0.900   6.725   4.889
10872TIP3   OH232492   0.356   6.879   5.007
10872TIP3    H132493   0.384   6.789   5.030
10872TIP3    H232494   0.322   6.864   4.918
10873TIP3   OH232495   0.310   6.629   4.610
10873TIP3    H132496   0.386   6.615   4.671
10873TIP3    H232497   0.356   6.665   4.532
10874TIP3   OH232498   0.959   6.908   5.151
10874TIP3    H132499   0.875   6.955   5.132
10874TIP3    H232500   0.973   6.936   5.244
10875TIP3   OH232501   0.525   6.633   4.777
10875TIP3    H132502   0.500   6.599   4.865
10875TIP3    H232503   0.580   6.710   4.801
10876TIP3   OH232504   0.683   6.595   5.149
10876TIP3    H132505   0.598   6.639   5.136
10876TIP3    H232506   0.737   6.630   5.075
10877TIP3   OH232507   0.247   7.527   4.346
10877TIP3    H132508   0.182   7.458   4.323
10877TIP3    H232509   0.290   7.489   4.424
10878TIP3   OH232510   0.623   7.620   5.134
10878TIP3    H132511   0.590   7.538   5.094
10878TIP3    H232512   0.593   7.686   5.069
10879TIP3   OH232513   0.825   7.237   4.970
10879TIP3    H132514   0.740   7.285   4.980
10879TIP3    H232515   0.849   7.268   4.880
10880TIP3   OH232516   0.259   7.093   4.347
10880TIP3    H132517   0.197   7.121   4.419
10880TIP3    H232518   0.337   7.062   4.398
10881TIP3   OH232519   0.506   7.147   5.244
10881TIP3    H132520   0.502   7.216   5.313
10881TIP3    H232521   0.414   7.143   5.216
10882TIP3   OH232522   0.157   6.905   4.167
10882TIP3    H132523   0.168   6.974   4.236
10882TIP3    H232524   0.120   6.959   4.096
10883TIP3   OH232525   0.605   6.188   4.231
10883TIP3    H132526   0.525   6.209   4.284
10883TIP3    H232527   0.618   6.272   4.183
10884TIP3   OH232528   0.405   7.556   3.778
10884TIP3    H132529   0.416   7.653   3.770
10884TIP3    H232530   0.498   7.526   3.766
10885TIP3   OH232531   0.861   7.949   5.170
10885TIP3    H132532   0.861   7.854   5.192
10885TIP3    H232533   0.769   7.973   5.193
10886TIP3   OH232534   0.746   7.091   5.440
10886TIP3    H132535   0.656   7.103   5.405
10886TIP3    H232536   0.751   6.994   5.448
10887TIP3   OH232537   0.283   6.428   5.453
10887TIP3    H132538   0.355   6.396   5.512
10887TIP3    H232539   0.205   6.414   5.509
10888TIP3   OH232540   0.535   6.876   5.347
10888TIP3    H132541   0.497   6.864   5.437
10888TIP3    H232542   0.479   6.948   5.314
10889TIP3   OH232543   0.150   7.018   3.905
10889TIP3    H132544   0.140   6.964   3.825
10889TIP3    H232545   0.244   7.042   3.901
10890TIP3   OH232546   0.210   6.839   4.766
10890TIP3    H132547   0.132   6.864   4.714
10890TIP3    H232548   0.235   6.756   4.720
10891TIP3   OH232549   0.381   6.606   5.028
10891TIP3    H132550   0.378   6.609   5.127
10891TIP3    H232551   0.305   6.547   5.012
10892TIP3   OH232552   0.600   7.381   4.966
10892TIP3    H132553   0.620   7.438   4.889
10892TIP3    H232554   0.502   7.389   4.970
10893TIP3   OH232555   0.084   6.481   4.188
10893TIP3    H132556   0.008   6.538   4.210
10893TIP3    H232557   0.156   6.546   4.209
10894TIP3   OH232558   0.239   6.675   4.278
10894TIP3    H132559   0.321   6.710   4.317
10894TIP3    H232560   0.198   6.759   4.244
10895TIP3   OH232561   0.644   6.808   4.136
10895TIP3    H132562   0.582   6.763   4.074
10895TIP3    H232563   0.638   6.897   4.097
10896TIP3   OH232564   0.870   7.668   5.220
10896TIP3    H132565   0.772   7.662   5.212
10896TIP3    H232566   0.894   7.638   5.129
10897TIP3   OH232567   0.340   7.632   4.048
10897TIP3    H132568   0.316   7.569   4.118
10897TIP3    H232569   0.358   7.575   3.971
10898TIP3   OH232570   0.336   7.260   4.857
10898TIP3    H132571   0.268   7.219   4.912
10898TIP3    H232572   0.382   7.181   4.821
10899TIP3   OH232573   0.435   7.835   3.766
10899TIP3    H132574   0.488   7.907   3.726
10899TIP3    H232575   0.347   7.872   3.753
10900TIP3   OH232576   0.252   7.286   4.145
10900TIP3    H132577   0.240   7.220   4.215
10900TIP3    H232578   0.349   7.289   4.142
10901TIP3   OH232579   0.377   6.637   5.293
10901TIP3    H132580   0.419   6.713   5.339
10901TIP3    H232581   0.361   6.574   5.366
10902TIP3   OH232582   0.188   6.415   4.463
10902TIP3    H132583   0.157   6.462   4.385
10902TIP3    H232584   0.213   6.489   4.522
10903TIP3   OH232585   0.790   6.808   5.367
10903TIP3    H132586   0.693   6.823   5.366
10903TIP3    H232587   0.803   6.779   5.276
10904TIP3   OH232588   0.429   7.019   4.752
10904TIP3    H132589   0.354   6.958   4.757
10904TIP3    H232590   0.498   6.971   4.804
10905TIP3   OH232591   0.452   7.909   4.700
10905TIP3    H132592   0.373   7.963   4.680
10905TIP3    H232593   0.525   7.969   4.670
10906TIP3   OH232594   0.403   7.090   3.803
10906TIP3    H132595   0.384   7.039   3.722
10906TIP3    H232596   0.377   7.179   3.773
10907TIP3   OH232597   0.513   7.093   5.684
10907TIP3    H132598   0.544   7.029   5.749
10907TIP3    H232599   0.550   7.175   5.717
10908TIP3   OH232600   0.530   7.349   5.430
10908TIP3    H132601   0.474   7.418   5.393
10908TIP3    H232602   0.619   7.373   5.395
10909TIP3   OH232603   0.421   6.818   5.577
10909TIP3    H132604   0.343   6.826   5.634
10909TIP3    H232605   0.492   6.802   5.643
10910TIP3   OH232606   0.605   6.753   5.766
10910TIP3    H132607   0.619   6.658   5.786
10910TIP3    H232608   0.590   6.795   5.853
10911TIP3   OH232609   0.657   8.078   4.657
10911TIP3    H132610   0.674   8.115   4.746
10911TIP3    H232611   0.715   8.133   4.603
10912TIP3   OH232612   0.679   8.089   4.936
10912TIP3    H132613   0.646   7.998   4.933
10912TIP3    H232614   0.745   8.081   5.006
10913TIP3   OH232615   0.716   7.765   5.510
10913TIP3    H132616   0.667   7.762   5.592
10913TIP3    H232617   0.763   7.851   5.516
10914TIP3   OH232618   0.538   7.274   4.137
10914TIP3    H132619   0.609   7.336   4.112
10914TIP3    H232620   0.576   7.233   4.217
10915TIP3   OH232621   0.665   7.141   4.340
10915TIP3    H132622   0.599   7.095   4.398
10915TIP3    H232623   0.728   7.178   4.405
10916TIP3   OH232624   0.705   7.530   4.762
10916TIP3    H132625   0.768   7.468   4.722
10916TIP3    H232626   0.718   7.611   4.707
10917TIP3   OH232627   0.520   7.816   4.958
10917TIP3    H132628   0.473   7.889   5.002
10917TIP3    H232629   0.499   7.834   4.864
10918TIP3   OH232630   0.603   7.048   3.989
10918TIP3    H132631   0.530   7.052   3.923
10918TIP3    H232632   0.577   7.123   4.046
10919TIP3   OH232633   0.481   6.719   3.937
10919TIP3    H132634   0.430   6.759   3.866
10919TIP3    H232635   0.452   6.625   3.931
10920TIP3   OH232636   0.485   6.993   4.486
10920TIP3    H132637   0.490   6.896   4.480
10920TIP3    H232638   0.472   7.008   4.582
10921TIP3   OH232639   0.772   7.423   5.343
10921TIP3    H132640   0.843   7.356   5.335
10921TIP3    H232641   0.802   7.491   5.280
10922TIP3   OH232642   0.958   7.230   5.358
10922TIP3    H132643   0.881   7.179   5.394
10922TIP3    H232644   1.029   7.164   5.375
10923TIP3   OH232645   0.418   6.453   3.931
10923TIP3    H132646   0.498   6.428   3.982
10923TIP3    H232647   0.350   6.391   3.962
10924TIP3   OH232648   0.487   6.718   4.396
10924TIP3    H132649   0.526   6.629   4.409
10924TIP3    H232650   0.539   6.748   4.319
10925TIP3   OH232651   0.638   6.883   4.873
10925TIP3    H132652   0.725   6.911   4.837
10925TIP3    H232653   0.646   6.921   4.963
10926TIP3   OH232654   0.711   7.024   5.104
10926TIP3    H132655   0.637   7.060   5.157
10926TIP3    H232656   0.745   7.105   5.062
10927TIP3   OH232657   1.159   6.619   5.670
10927TIP3    H132658   1.216   6.553   5.624
10927TIP3    H232659   1.130   6.676   5.596
10928TIP3   OH232660   0.587   6.462   4.419
10928TIP3    H132661   0.633   6.446   4.505
10928TIP3    H232662   0.524   6.387   4.418
10929TIP3   OH232663   1.036   6.760   5.477
10929TIP3    H132664   0.949   6.801   5.496
10929TIP3    H232665   1.007   6.691   5.415
10930TIP3   OH232666   0.664   6.399   4.052
10930TIP3    H132667   0.707   6.326   4.003
10930TIP3    H232668   0.732   6.469   4.048
10931TIP3   OH232669   0.930   6.523   5.350
10931TIP3    H132670   0.838   6.522   5.318
10931TIP3    H232671   0.956   6.429   5.336
10932TIP3   OH232672   0.177   6.412   4.991
10932TIP3    H132673   0.165   6.332   5.044
10932TIP3    H232674   0.250   6.384   4.931
10933TIP3   OH232675   0.658   6.315   4.872
10933TIP3    H132676   0.695   6.371   4.800
10933TIP3    H232677   0.564   6.341   4.870
10934TIP3   OH232678   0.751   6.419   4.637
10934TIP3    H132679   0.825   6.369   4.597
10934TIP3    H232680   0.783   6.511   4.624
10935TIP3   OH232681   0.382   6.318   4.841
10935TIP3    H132682   0.387   6.283   4.751
10935TIP3    H232683   0.367   6.236   4.894
10936TIP3   OH232684   0.403   6.250   4.409
10936TIP3    H132685   0.320   6.300   4.427
10936TIP3    H232686   0.384   6.166   4.456
10937TIP3   OH232687   0.382   7.900   4.070
10937TIP3    H132688   0.373   7.802   4.082
10937TIP3    H232689   0.332   7.910   3.988
10938TIP3   OH232690   0.662   6.485   5.786
10938TIP3    H132691   0.683   6.453   5.877
10938TIP3    H232692   0.750   6.480   5.743
10939TIP3   OH232693   0.607   8.031   5.215
10939TIP3    H132694   0.530   7.988   5.253
10939TIP3    H232695   0.610   8.110   5.271
10940TIP3   OH232696   1.868   7.414   4.041
10940TIP3    H132697   1.838   7.505   4.019
10940TIP3    H232698   1.791   7.363   4.011
10941TIP3   OH232699   1.871   7.410   4.422
10941TIP3    H132700   1.899   7.382   4.511
10941TIP3    H232701   1.825   7.332   4.389
10942TIP3   OH232702   1.164   7.306   4.787
10942TIP3    H132703   1.195   7.239   4.851
10942TIP3    H232704   1.239   7.367   4.788
10943TIP3   OH232705   2.115   7.708   4.103
10943TIP3    H132706   2.089   7.640   4.167
10943TIP3    H232707   2.127   7.786   4.160
10944TIP3   OH232708   1.136   7.716   4.513
10944TIP3    H132709   1.128   7.618   4.515
10944TIP3    H232710   1.233   7.725   4.511
10945TIP3   OH232711   0.844   6.922   4.299
10945TIP3    H132712   0.795   7.004   4.313
10945TIP3    H232713   0.774   6.866   4.263
10946TIP3   OH232714   0.902   7.208   4.471
10946TIP3    H132715   0.951   7.132   4.509
10946TIP3    H232716   0.962   7.238   4.402
10947TIP3   OH232717   1.751   8.176   4.115
10947TIP3    H132718   1.805   8.102   4.081
10947TIP3    H232719   1.742   8.155   4.209
10948TIP3   OH232720   1.665   7.637   4.470
10948TIP3    H132721   1.702   7.561   4.422
10948TIP3    H232722   1.748   7.681   4.497
10949TIP3   OH232723   2.679   6.958   4.469
10949TIP3    H132724   2.707   7.041   4.513
10949TIP3    H232725   2.698   6.978   4.376
10950TIP3   OH232726   2.080   7.140   4.504
10950TIP3    H132727   2.119   7.053   4.524
10950TIP3    H232728   2.046   7.124   4.413
10951TIP3   OH232729   1.416   6.798   4.469
10951TIP3    H132730   1.394   6.871   4.407
10951TIP3    H232731   1.366   6.725   4.426
10952TIP3   OH232732   2.109   6.889   4.092
10952TIP3    H132733   2.181   6.873   4.157
10952TIP3    H232734   2.160   6.925   4.017
10953TIP3   OH232735   1.049   7.002   4.577
10953TIP3    H132736   1.132   6.980   4.624
10953TIP3    H232737   1.061   6.945   4.497
10954TIP3   OH232738   1.490   7.199   4.366
10954TIP3    H132739   1.583   7.172   4.383
10954TIP3    H232740   1.450   7.114   4.336
10955TIP3   OH232741   2.753   7.167   4.637
10955TIP3    H132742   2.667   7.212   4.620
10955TIP3    H232743   2.761   7.184   4.732
10956TIP3   OH232744   1.412   6.781   4.904
10956TIP3    H132745   1.351   6.818   4.837
10956TIP3    H232746   1.360   6.798   4.985
10957TIP3   OH232747   1.763   7.636   3.911
10957TIP3    H132748   1.716   7.612   3.830
10957TIP3    H232749   1.718   7.721   3.934
10958TIP3   OH232750   1.517   7.557   4.700
10958TIP3    H132751   1.454   7.622   4.738
10958TIP3    H232752   1.559   7.610   4.629
10959TIP3   OH232753   2.320   6.891   4.263
10959TIP3    H132754   2.306   6.843   4.346
10959TIP3    H232755   2.373   6.968   4.292
10960TIP3   OH232756   1.283   6.897   4.688
10960TIP3    H132757   1.344   6.970   4.711
10960TIP3    H232758   1.332   6.856   4.614
10961TIP3   OH232759   1.345   7.750   4.795
10961TIP3    H132760   1.321   7.838   4.758
10961TIP3    H232761   1.267   7.735   4.853
10962TIP3   OH232762   0.744   7.442   4.034
10962TIP3    H132763   0.701   7.469   3.951
10962TIP3    H232764   0.773   7.527   4.071
10963TIP3   OH232765   2.184   7.945   4.269
10963TIP3    H132766   2.096   7.941   4.314
10963TIP3    H232767   2.173   8.029   4.220
10964TIP3   OH232768   2.471   6.859   4.636
10964TIP3    H132769   2.383   6.886   4.607
10964TIP3    H232770   2.528   6.890   4.562
10965TIP3   OH232771   1.769   6.501   4.618
10965TIP3    H132772   1.755   6.406   4.636
10965TIP3    H232773   1.691   6.539   4.664
10966TIP3   OH232774   1.891   8.000   3.957
10966TIP3    H132775   1.938   7.919   3.928
10966TIP3    H232776   1.945   8.068   3.910
10967TIP3   OH232777   2.030   7.786   3.851
10967TIP3    H132778   1.981   7.710   3.816
10967TIP3    H232779   2.065   7.750   3.935
10968TIP3   OH232780   2.408   7.869   4.613
10968TIP3    H132781   2.395   7.791   4.556
10968TIP3    H232782   2.378   7.942   4.556
10969TIP3   OH232783   1.698   7.263   3.873
10969TIP3    H132784   1.616   7.313   3.853
10969TIP3    H232785   1.743   7.261   3.787
10970TIP3   OH232786   1.656   7.048   3.590
10970TIP3    H132787   1.724   7.097   3.639
10970TIP3    H232788   1.713   6.984   3.542
10971TIP3   OH232789   2.600   7.508   4.466
10971TIP3    H132790   2.518   7.562   4.468
10971TIP3    H232791   2.630   7.528   4.375
10972TIP3   OH232792   2.045   7.346   3.845
10972TIP3    H132793   1.990   7.371   3.922
10972TIP3    H232794   2.128   7.319   3.890
10973TIP3   OH232795   2.281   7.387   4.755
10973TIP3    H132796   2.276   7.468   4.808
10973TIP3    H232797   2.192   7.389   4.712
10974TIP3   OH232798   1.278   7.343   4.260
10974TIP3    H132799   1.236   7.285   4.193
10974TIP3    H232800   1.355   7.290   4.289
10975TIP3   OH232801   1.407   7.755   4.410
10975TIP3    H132802   1.387   7.710   4.326
10975TIP3    H232803   1.497   7.722   4.429
10976TIP3   OH232804   1.417   7.314   4.615
10976TIP3    H132805   1.449   7.296   4.524
10976TIP3    H232806   1.457   7.401   4.636
10977TIP3   OH232807   1.951   7.951   4.402
10977TIP3    H132808   1.916   8.022   4.457
10977TIP3    H232809   1.933   7.872   4.456
10978TIP3   OH232810   1.551   7.870   4.940
10978TIP3    H132811   1.493   7.934   4.986
10978TIP3    H232812   1.485   7.818   4.891
10979TIP3   OH232813   1.887   7.202   3.671
10979TIP3    H132814   1.946   7.262   3.723
10979TIP3    H232815   1.912   7.227   3.579
10980TIP3   OH232816   1.305   7.428   5.038
10980TIP3    H132817   1.311   7.514   5.084
10980TIP3    H232818   1.210   7.408   5.053
10981TIP3   OH232819   1.632   7.883   3.943
10981TIP3    H132820   1.704   7.942   3.971
10981TIP3    H232821   1.566   7.945   3.908
10982TIP3   OH232822   1.348   8.039   5.026
10982TIP3    H132823   1.311   8.039   4.936
10982TIP3    H232824   1.269   8.018   5.081
10983TIP3   OH232825   2.401   6.445   3.720
10983TIP3    H132826   2.320   6.464   3.771
10983TIP3    H232827   2.413   6.528   3.670
10984TIP3   OH232828   1.145   7.186   4.064
10984TIP3    H132829   1.078   7.231   4.009
10984TIP3    H232830   1.102   7.101   4.081
10985TIP3   OH232831   2.199   7.812   3.267
10985TIP3    H132832   2.207   7.909   3.253
10985TIP3    H232833   2.292   7.784   3.254
10986TIP3   OH232834   0.927   7.569   4.973
10986TIP3    H132835   0.862   7.542   4.906
10986TIP3    H232836   0.965   7.483   5.002
10987TIP3   OH232837   0.781   7.762   4.613
10987TIP3    H132838   0.877   7.758   4.599
10987TIP3    H232839   0.773   7.846   4.661
10988TIP3   OH232840   2.642   8.210   4.663
10988TIP3    H132841   2.644   8.115   4.685
10988TIP3    H232842   2.556   8.235   4.704
10989TIP3   OH232843   1.750   8.002   4.795
10989TIP3    H132844   1.753   8.095   4.826
10989TIP3    H232845   1.680   7.965   4.852
10990TIP3   OH232846   1.511   8.131   3.748
10990TIP3    H132847   1.462   8.114   3.665
10990TIP3    H232848   1.478   8.219   3.774
10991TIP3   OH232849   0.948   7.979   4.132
10991TIP3    H132850   0.998   7.970   4.216
10991TIP3    H232851   0.887   7.904   4.139
10992TIP3   OH232852   1.712   8.032   3.388
10992TIP3    H132853   1.770   7.961   3.353
10992TIP3    H232854   1.745   8.040   3.480
10993TIP3   OH232855   1.762   8.078   3.658
10993TIP3    H132856   1.673   8.089   3.699
10993TIP3    H232857   1.811   8.039   3.731
10994TIP3   OH232858   2.536   7.347   4.934
10994TIP3    H132859   2.451   7.359   4.889
10994TIP3    H232860   2.549   7.251   4.926
10995TIP3   OH232861   1.131   7.752   4.962
10995TIP3    H132862   1.181   7.738   5.045
10995TIP3    H232863   1.057   7.689   4.970
10996TIP3   OH232864   1.529   6.578   4.746
10996TIP3    H132865   1.440   6.546   4.721
10996TIP3    H232866   1.504   6.659   4.793
10997TIP3   OH232867   2.062   6.692   4.941
10997TIP3    H132868   2.129   6.665   5.006
10997TIP3    H232869   1.978   6.672   4.987
10998TIP3   OH232870   2.307   7.125   4.863
10998TIP3    H132871   2.255   7.118   4.947
10998TIP3    H232872   2.275   7.209   4.826
10999TIP3   OH232873   1.962   7.250   3.415
10999TIP3    H132874   1.929   7.225   3.327
10999TIP3    H232875   2.042   7.300   3.390
11000TIP3   OH232876   1.676   6.625   3.717
11000TIP3    H132877   1.643   6.624   3.809
11000TIP3    H232878   1.636   6.542   3.684
11001TIP3   OH232879   1.462   7.091   4.765
11001TIP3    H132880   1.411   7.111   4.846
11001TIP3    H232881   1.445   7.173   4.712
11002TIP3   OH232882   1.344   6.978   4.278
11002TIP3    H132883   1.252   6.952   4.297
11002TIP3    H232884   1.357   6.937   4.190
11003TIP3   OH232885   1.836   7.065   4.007
11003TIP3    H132886   1.782   7.136   3.965
11003TIP3    H232887   1.889   7.034   3.932
11004TIP3   OH232888   2.010   7.342   5.091
11004TIP3    H132889   1.986   7.270   5.154
11004TIP3    H232890   2.102   7.358   5.116
11005TIP3   OH232891   1.994   7.094   4.245
11005TIP3    H132892   1.932   7.122   4.175
11005TIP3    H232893   2.026   7.011   4.203
11006TIP3   OH232894   1.280   7.121   4.973
11006TIP3    H132895   1.303   7.185   5.042
11006TIP3    H232896   1.267   7.039   5.025
11007TIP3   OH232897   1.330   6.599   3.683
11007TIP3    H132898   1.321   6.596   3.781
11007TIP3    H232899   1.251   6.651   3.659
11008TIP3   OH232900   0.873   6.644   4.552
11008TIP3    H132901   0.947   6.675   4.608
11008TIP3    H232902   0.918   6.610   4.473
11009TIP3   OH232903   0.846   6.624   4.072
11009TIP3    H132904   0.890   6.665   3.995
11009TIP3    H232905   0.784   6.697   4.095
11010TIP3   OH232906   2.008   7.340   4.669
11010TIP3    H132907   2.039   7.267   4.610
11010TIP3    H232908   1.976   7.288   4.746
11011TIP3   OH232909   1.672   6.801   4.340
11011TIP3    H132910   1.589   6.799   4.392
11011TIP3    H232911   1.739   6.799   4.411
11012TIP3   OH232912   1.107   6.857   4.348
11012TIP3    H132913   1.012   6.864   4.322
11012TIP3    H232914   1.129   6.765   4.325
11013TIP3   OH232915   1.376   6.851   4.036
11013TIP3    H132916   1.470   6.869   4.014
11013TIP3    H232917   1.328   6.876   3.954
11014TIP3   OH232918   2.165   6.875   4.540
11014TIP3    H132919   2.132   6.887   4.632
11014TIP3    H232920   2.097   6.815   4.505
11015TIP3   OH232921   1.217   6.885   3.816
11015TIP3    H132922   1.144   6.841   3.769
11015TIP3    H232923   1.268   6.921   3.740
11016TIP3   OH232924   2.372   8.552   4.743
11016TIP3    H132925   2.291   8.569   4.692
11016TIP3    H232926   2.381   8.633   4.794
11017TIP3   OH232927   1.292   7.674   5.182
11017TIP3    H132928   1.371   7.706   5.230
11017TIP3    H232929   1.227   7.673   5.256
11018TIP3   OH232930   1.755   7.130   4.439
11018TIP3    H132931   1.826   7.086   4.390
11018TIP3    H232932   1.762   7.088   4.527
11019TIP3   OH232933   1.278   6.616   4.317
11019TIP3    H132934   1.244   6.536   4.363
11019TIP3    H232935   1.329   6.576   4.244
11020TIP3   OH232936   1.732   7.027   4.725
11020TIP3    H132937   1.641   7.061   4.742
11020TIP3    H232938   1.788   7.087   4.778
11021TIP3   OH232939   1.470   7.415   3.823
11021TIP3    H132940   1.396   7.351   3.811
11021TIP3    H232941   1.451   7.450   3.913
11022TIP3   OH232942   2.368   7.657   4.438
11022TIP3    H132943   2.361   7.676   4.343
11022TIP3    H232944   2.284   7.608   4.450
11023TIP3   OH232945   1.926   6.729   3.683
11023TIP3    H132946   1.830   6.712   3.693
11023TIP3    H232947   1.935   6.823   3.708
11024TIP3   OH232948   1.867   7.734   4.818
11024TIP3    H132949   1.887   7.713   4.910
11024TIP3    H232950   1.831   7.824   4.824
11025TIP3   OH232951   1.996   6.975   3.788
11025TIP3    H132952   2.092   6.982   3.803
11025TIP3    H232953   1.976   7.054   3.735
11026TIP3   OH232954   1.160   7.437   4.499
11026TIP3    H132955   1.200   7.409   4.414
11026TIP3    H232956   1.199   7.374   4.562
11027TIP3   OH232957   1.613   7.566   3.643
11027TIP3    H132958   1.566   7.652   3.650
11027TIP3    H232959   1.559   7.510   3.703
11028TIP3   OH232960   1.043   7.359   5.112
11028TIP3    H132961   1.060   7.344   5.207
11028TIP3    H232962   0.976   7.291   5.093
11029TIP3   OH232963   1.766   7.473   5.132
11029TIP3    H132964   1.706   7.413   5.084
11029TIP3    H232965   1.853   7.439   5.103
11030TIP3   OH232966   2.034   7.977   4.722
11030TIP3    H132967   1.938   7.990   4.726
11030TIP3    H232968   2.063   8.040   4.791
11031TIP3   OH232969   2.440   7.065   3.623
11031TIP3    H132970   2.377   7.020   3.562
11031TIP3    H232971   2.436   7.154   3.582
11032TIP3   OH232972   2.657   7.922   4.702
11032TIP3    H132973   2.559   7.917   4.700
11032TIP3    H232974   2.677   7.891   4.611
11033TIP3   OH232975   2.145   7.884   3.534
11033TIP3    H132976   2.111   7.817   3.594
11033TIP3    H232977   2.151   7.838   3.449
11034TIP3   OH232978   2.137   7.511   4.375
11034TIP3    H132979   2.043   7.487   4.388
11034TIP3    H232980   2.169   7.432   4.328
11035TIP3   OH232981   1.261   7.740   4.119
11035TIP3    H132982   1.261   7.823   4.069
11035TIP3    H232983   1.167   7.729   4.136
11036TIP3   OH232984   0.825   7.046   3.827
11036TIP3    H132985   0.871   7.130   3.848
11036TIP3    H232986   0.748   7.052   3.888
11037TIP3   OH232987   1.402   7.508   4.068
11037TIP3    H132988   1.365   7.597   4.084
11037TIP3    H232989   1.364   7.458   4.143
11038TIP3   OH232990   1.530   8.084   4.591
11038TIP3    H132991   1.568   8.157   4.537
11038TIP3    H232992   1.608   8.058   4.643
11039TIP3   OH232993   1.182   7.980   3.976
11039TIP3    H132994   1.096   7.989   4.021
11039TIP3    H232995   1.214   8.073   3.980
11040TIP3   OH232996   1.920   7.718   4.550
11040TIP3    H132997   1.906   7.722   4.648
11040TIP3    H232998   1.998   7.662   4.545
11041TIP3   OH232999   1.893   7.613   3.433
11041TIP3    H133000   1.945   7.587   3.512
11041TIP3    H233001   1.804   7.587   3.462
11042TIP3   OH233002   2.232   8.088   3.253
11042TIP3    H133003   2.266   8.158   3.196
11042TIP3    H233004   2.153   8.133   3.289
11043TIP3   OH233005   1.253   6.864   5.119
11043TIP3    H133006   1.157   6.870   5.134
11043TIP3    H233007   1.280   6.806   5.192
11044TIP3   OH233008   2.053   7.545   3.648
11044TIP3    H133009   2.043   7.480   3.721
11044TIP3    H233010   2.150   7.545   3.638
11045TIP3   OH233011   0.970   7.947   4.751
11045TIP3    H133012   1.024   7.876   4.789
11045TIP3    H233013   0.994   8.022   4.807
11046TIP3   OH233014   1.261   7.592   3.433
11046TIP3    H133015   1.273   7.500   3.405
11046TIP3    H233016   1.242   7.581   3.528
11047TIP3   OH233017   1.206   7.598   3.704
11047TIP3    H133018   1.274   7.572   3.767
11047TIP3    H233019   1.208   7.696   3.712
11048TIP3   OH233020   0.941   7.291   3.908
11048TIP3    H133021   0.875   7.336   3.967
11048TIP3    H233022   0.955   7.362   3.842
11049TIP3   OH233023   2.093   6.926   4.799
11049TIP3    H133024   2.168   6.965   4.846
11049TIP3    H233025   2.074   6.846   4.852
11050TIP3   OH233026   1.970   6.680   3.964
11050TIP3    H133027   1.956   6.704   3.871
11050TIP3    H233028   2.009   6.762   4.001
11051TIP3   OH233029   1.470   7.796   3.654
11051TIP3    H133030   1.383   7.822   3.690
11051TIP3    H233031   1.487   7.871   3.594
11052TIP3   OH233032   1.660   6.858   4.068
11052TIP3    H133033   1.725   6.931   4.051
11052TIP3    H233034   1.664   6.852   4.166
11053TIP3   OH233035   1.929   7.178   4.875
11053TIP3    H133036   1.947   7.235   4.954
11053TIP3    H233037   1.983   7.100   4.894
11054TIP3   OH233038   1.804   6.587   4.172
11054TIP3    H133039   1.795   6.664   4.230
11054TIP3    H233040   1.864   6.623   4.102
11055TIP3   OH233041   1.213   7.870   3.722
11055TIP3    H133042   1.184   7.940   3.659
11055TIP3    H233043   1.198   7.915   3.808
11056TIP3   OH233044   1.315   6.583   3.960
11056TIP3    H133045   1.312   6.674   3.996
11056TIP3    H233046   1.411   6.566   3.968
11057TIP3   OH233047   2.571   7.076   4.852
11057TIP3    H133048   2.473   7.079   4.865
11057TIP3    H233049   2.573   7.030   4.767
11058TIP3   OH233050   2.220   7.272   4.245
11058TIP3    H133051   2.143   7.214   4.256
11058TIP3    H233052   2.290   7.224   4.293
11059TIP3   OH233053   0.930   7.502   3.715
11059TIP3    H133054   0.995   7.574   3.724
11059TIP3    H233055   0.977   7.448   3.648
11060TIP3   OH233056   0.878   6.776   3.845
11060TIP3    H133057   0.876   6.874   3.843
11060TIP3    H233058   0.790   6.754   3.811
11061TIP3   OH233059   2.203   8.199   4.173
11061TIP3    H133060   2.135   8.251   4.125
11061TIP3    H233061   2.278   8.260   4.161
11062TIP3   OH233062   1.266   6.496   4.721
11062TIP3    H133063   1.233   6.463   4.635
11062TIP3    H233064   1.254   6.418   4.779
11063TIP3   OH233065   0.802   7.711   4.103
11063TIP3    H133066   0.733   7.746   4.161
11063TIP3    H233067   0.779   7.754   4.018
11064TIP3   OH233068   0.959   8.253   5.176
11064TIP3    H133069   1.045   8.258   5.223
11064TIP3    H233070   0.946   8.157   5.172
11065TIP3   OH233071   1.440   8.221   5.219
11065TIP3    H133072   1.535   8.206   5.227
11065TIP3    H233073   1.417   8.163   5.144
11066TIP3   OH233074   1.422   7.797   3.345
11066TIP3    H133075   1.366   7.727   3.385
11066TIP3    H233076   1.497   7.744   3.314
11067TIP3   OH233077   2.089   8.121   4.949
11067TIP3    H133078   2.077   8.055   5.020
11067TIP3    H233079   2.158   8.180   4.985
11068TIP3   OH233080   1.860   7.838   3.258
11068TIP3    H133081   1.902   7.772   3.315
11068TIP3    H233082   1.916   7.837   3.178
11069TIP3   OH233083   1.095   7.662   5.376
11069TIP3    H133084   1.112   7.566   5.380
11069TIP3    H233085   1.008   7.665   5.331
11070TIP3   OH233086   1.067   7.315   3.566
11070TIP3    H133087   1.122   7.281   3.640
11070TIP3    H233088   1.135   7.319   3.495
11071TIP3   OH233089   1.701   7.749   5.146
11071TIP3    H133090   1.656   7.765   5.061
11071TIP3    H233091   1.730   7.655   5.138
11072TIP3   OH233092   1.579   7.512   3.374
11072TIP3    H133093   1.579   7.526   3.471
11072TIP3    H233094   1.577   7.414   3.370
11073TIP3   OH233095   2.192   7.749   4.749
11073TIP3    H133096   2.263   7.805   4.713
11073TIP3    H233097   2.117   7.813   4.746
11074TIP3   OH233098   1.212   7.398   5.355
11074TIP3    H133099   1.284   7.336   5.339
11074TIP3    H233100   1.235   7.430   5.445
11075TIP3   OH233101   1.276   7.218   3.789
11075TIP3    H133102   1.248   7.177   3.873
11075TIP3    H233103   1.311   7.140   3.740
11076TIP3   OH233104   1.545   7.282   5.017
11076TIP3    H133105   1.467   7.341   5.021
11076TIP3    H233106   1.592   7.316   4.938
11077TIP3   OH233107   1.376   7.010   3.630
11077TIP3    H133108   1.349   7.013   3.536
11077TIP3    H233109   1.473   7.018   3.621
11078TIP3   OH233110   2.059   7.681   5.151
11078TIP3    H133111   2.144   7.661   5.109
11078TIP3    H233112   2.056   7.617   5.224
11079TIP3   OH233113   2.200   7.343   3.292
11079TIP3    H133114   2.177   7.295   3.209
11079TIP3    H233115   2.167   7.433   3.268
11080TIP3   OH233116   1.669   7.070   5.143
11080TIP3    H133117   1.667   6.990   5.087
11080TIP3    H233118   1.624   7.136   5.086
11081TIP3   OH233119   1.671   6.855   4.948
11081TIP3    H133120   1.697   6.897   4.864
11081TIP3    H233121   1.577   6.833   4.932
11082TIP3   OH233122   1.697   7.391   4.822
11082TIP3    H133123   1.780   7.403   4.774
11082TIP3    H233124   1.640   7.459   4.780
11083TIP3   OH233125   2.278   7.359   5.204
11083TIP3    H133126   2.327   7.277   5.222
11083TIP3    H233127   2.348   7.419   5.174
11084TIP3   OH233128   2.322   7.610   4.939
11084TIP3    H133129   2.262   7.663   4.881
11084TIP3    H233130   2.409   7.631   4.898
11085TIP3   OH233131   1.547   7.182   5.373
11085TIP3    H133132   1.477   7.115   5.388
11085TIP3    H233133   1.581   7.154   5.286
11086TIP3   OH233134   1.802   6.620   5.016
11086TIP3    H133135   1.754   6.702   4.994
11086TIP3    H233136   1.732   6.553   5.006
11087TIP3   OH233137   1.930   7.125   5.233
11087TIP3    H133138   1.918   7.114   5.329
11087TIP3    H233139   1.839   7.100   5.203
11088TIP3   OH233140   2.167   7.069   5.086
11088TIP3    H133141   2.091   7.074   5.148
11088TIP3    H233142   2.239   7.040   5.146
11089TIP3   OH233143   2.402   7.014   5.238
11089TIP3    H133144   2.410   6.919   5.259
11089TIP3    H233145   2.392   7.054   5.327
11090TIP3   OH233146   1.386   6.962   5.425
11090TIP3    H133147   1.392   6.870   5.392
11090TIP3    H233148   1.420   6.951   5.516
11091TIP3   OH233149   1.898   6.630   5.274
11091TIP3    H133150   1.965   6.559   5.269
11091TIP3    H233151   1.857   6.624   5.186
11092TIP3   OH233152   1.963   6.845   5.433
11092TIP3    H133153   1.940   6.774   5.369
11092TIP3    H233154   1.885   6.904   5.428
11093TIP3   OH233155   1.183   8.070   3.532
11093TIP3    H133156   1.278   8.069   3.514
11093TIP3    H233157   1.152   8.122   3.456
11094TIP3   OH233158   0.662   7.455   3.749
11094TIP3    H133159   0.757   7.478   3.738
11094TIP3    H233160   0.660   7.366   3.709
11095TIP3   OH233161   0.586   8.063   4.157
11095TIP3    H133162   0.515   8.005   4.123
11095TIP3    H233163   0.626   8.007   4.228
11096TIP3   OH233164   0.715   7.919   4.352
11096TIP3    H133165   0.703   7.847   4.417
11096TIP3    H233166   0.765   7.983   4.406
11097TIP3   OH233167   2.454   8.314   4.154
11097TIP3    H133168   2.467   8.371   4.233
11097TIP3    H233169   2.484   8.374   4.084
11098TIP3   OH233170   2.487   8.321   4.428
11098TIP3    H133171   2.415   8.271   4.471
11098TIP3    H233172   2.546   8.336   4.503
11099TIP3   OH233173   2.518   8.016   5.002
11099TIP3    H133174   2.444   8.021   5.067
11099TIP3    H233175   2.556   8.105   5.010
11100TIP3   OH233176   2.333   7.528   3.626
11100TIP3    H133177   2.402   7.592   3.598
11100TIP3    H233178   2.376   7.489   3.705
11101TIP3   OH233179   2.461   7.397   3.830
11101TIP3    H133180   2.395   7.353   3.888
11101TIP3    H233181   2.524   7.435   3.895
11102TIP3   OH233182   2.338   8.085   4.446
11102TIP3    H133183   2.275   8.127   4.507
11102TIP3    H233184   2.274   8.035   4.389
11103TIP3   OH233185   2.399   7.304   3.476
11103TIP3    H133186   2.327   7.307   3.409
11103TIP3    H233187   2.371   7.380   3.531
11104TIP3   OH233188   2.271   6.977   3.430
11104TIP3    H133189   2.226   7.016   3.354
11104TIP3    H233190   2.245   6.883   3.420
11105TIP3   OH233191   2.276   7.252   3.975
11105TIP3    H133192   2.282   7.155   3.970
11105TIP3    H233193   2.261   7.266   4.071
11106TIP3   OH233194   0.900   7.335   4.720
11106TIP3    H133195   0.898   7.300   4.629
11106TIP3    H233196   0.997   7.334   4.737
11107TIP3   OH233197   2.564   7.677   4.830
11107TIP3    H133198   2.635   7.610   4.823
11107TIP3    H233199   2.596   7.748   4.772
11108TIP3   OH233200   2.750   7.484   4.846
11108TIP3    H133201   2.675   7.435   4.885
11108TIP3    H233202   2.822   7.420   4.862
11109TIP3   OH233203   2.213   6.711   3.416
11109TIP3    H133204   2.287   6.680   3.472
11109TIP3    H233205   2.140   6.653   3.442
11110TIP3   OH233206   2.271   6.969   3.871
11110TIP3    H133207   2.311   6.881   3.887
11110TIP3    H233208   2.329   7.002   3.800
11111TIP3   OH233209   2.433   7.142   4.365
11111TIP3    H133210   2.519   7.169   4.326
11111TIP3    H233211   2.445   7.179   4.455
11112TIP3   OH233212   2.500   7.285   4.598
11112TIP3    H133213   2.423   7.318   4.649
11112TIP3    H233214   2.532   7.368   4.555
11113TIP3   OH233215   1.118   7.012   5.394
11113TIP3    H133216   1.216   7.008   5.398
11113TIP3    H233217   1.095   6.929   5.439
11114TIP3   OH233218   2.959   6.881   5.154
11114TIP3    H133219   3.011   6.812   5.108
11114TIP3    H233220   2.926   6.935   5.079
11115TIP3   OH233221   2.380   6.719   3.908
11115TIP3    H133222   2.427   6.702   3.993
11115TIP3    H233223   2.319   6.642   3.906
11116TIP3   OH233224   1.081   6.704   4.724
11116TIP3    H133225   1.144   6.631   4.738
11116TIP3    H233226   1.141   6.780   4.722
11117TIP3   OH233227   0.885   6.976   4.801
11117TIP3    H133228   0.934   6.976   4.717
11117TIP3    H233229   0.911   7.061   4.840
11118TIP3   OH233230   2.825   7.018   4.961
11118TIP3    H133231   2.740   7.058   4.987
11118TIP3    H233232   2.792   6.948   4.901
11119TIP3   OH233233   2.461   6.654   3.541
11119TIP3    H133234   2.500   6.581   3.488
11119TIP3    H233235   2.528   6.724   3.533
11120TIP3   OH233236   0.865   6.479   4.300
11120TIP3    H133237   0.773   6.480   4.330
11120TIP3    H233238   0.863   6.539   4.223
11121TIP3   OH233239   2.026   8.181   3.808
11121TIP3    H133240   2.080   8.173   3.727
11121TIP3    H233241   2.070   8.253   3.855
11122TIP3   OH233242   1.085   6.560   5.115
11122TIP3    H133243   1.037   6.556   5.199
11122TIP3    H233244   1.018   6.601   5.057
11123TIP3   OH233245   1.133   7.987   5.194
11123TIP3    H133246   1.040   7.962   5.176
11123TIP3    H233247   1.139   7.973   5.289
11124TIP3   OH233248   1.305   8.020   4.739
11124TIP3    H133249   1.256   8.096   4.702
11124TIP3    H233250   1.390   8.035   4.694
11125TIP3   OH233251   1.769   8.277   4.865
11125TIP3    H133252   1.802   8.276   4.958
11125TIP3    H233253   1.849   8.308   4.818
11126TIP3   OH233254   2.723   6.781   4.836
11126TIP3    H133255   2.631   6.775   4.806
11126TIP3    H233256   2.753   6.687   4.825
11127TIP3   OH233257   0.982   8.275   4.767
11127TIP3    H133258   0.893   8.308   4.742
11127TIP3    H233259   0.994   8.319   4.852
11128TIP3   OH233260   1.215   8.254   4.621
11128TIP3    H133261   1.129   8.268   4.667
11128TIP3    H233262   1.196   8.291   4.532
11129TIP3   OH233263   1.633   8.276   4.418
11129TIP3    H133264   1.569   8.314   4.357
11129TIP3    H233265   1.672   8.357   4.458
11130TIP3   OH233266   0.898   8.074   4.504
11130TIP3    H133267   0.920   8.048   4.596
11130TIP3    H233268   0.971   8.028   4.456
11131TIP3   OH233269   1.089   7.941   4.362
11131TIP3    H133270   1.104   7.859   4.413
11131TIP3    H233271   1.179   7.980   4.361
11132TIP3   OH233272   1.351   8.038   4.369
11132TIP3    H133273   1.383   7.946   4.363
11132TIP3    H233274   1.395   8.065   4.452
11133TIP3   OH233275   1.928   6.695   4.457
11133TIP3    H133276   1.884   6.627   4.510
11133TIP3    H233277   1.999   6.645   4.412
11134TIP3   OH233278   2.452   6.576   4.362
11134TIP3    H133279   2.487   6.629   4.286
11134TIP3    H233280   2.356   6.594   4.355
11135TIP3   OH233281   2.546   6.677   4.125
11135TIP3    H133282   2.619   6.625   4.085
11135TIP3    H233283   2.579   6.768   4.110
11136TIP3   OH233284   1.176   6.404   4.472
11136TIP3    H133285   1.084   6.370   4.474
11136TIP3    H233286   1.226   6.320   4.470
11137TIP3   OH233287   0.960   6.274   4.120
11137TIP3    H133288   0.991   6.332   4.049
11137TIP3    H233289   0.932   6.339   4.188
11138TIP3   OH233290   1.619   6.437   4.352
11138TIP3    H133291   1.679   6.487   4.295
11138TIP3    H233292   1.639   6.473   4.440
11139TIP3   OH233293   2.170   6.583   4.337
11139TIP3    H133294   2.163   6.546   4.248
11139TIP3    H233295   2.156   6.503   4.393
11140TIP3   OH233296   2.197   6.506   3.899
11140TIP3    H133297   2.110   6.548   3.912
11140TIP3    H233298   2.182   6.420   3.946
11141TIP3   OH233299   0.682   7.843   3.901
11141TIP3    H133300   0.595   7.813   3.869
11141TIP3    H233301   0.673   7.939   3.888
11142TIP3   OH233302   1.079   6.434   3.883
11142TIP3    H133303   1.129   6.371   3.828
11142TIP3    H233304   1.152   6.488   3.921
11143TIP3   OH233305   1.593   6.608   3.982
11143TIP3    H133306   1.651   6.561   4.044
11143TIP3    H233307   1.613   6.701   4.008
11144TIP3   OH233308   1.452   8.033   3.483
11144TIP3    H133309   1.539   8.057   3.446
11144TIP3    H233310   1.429   7.958   3.423
11145TIP3   OH233311   2.175   8.153   3.574
11145TIP3    H133312   2.165   8.055   3.562
11145TIP3    H233313   2.126   8.186   3.497
11146TIP3   OH233314   1.384   6.685   5.363
11146TIP3    H133315   1.350   6.616   5.422
11146TIP3    H233316   1.479   6.686   5.390
11147TIP3   OH233317   1.632   6.682   5.483
11147TIP3    H133318   1.718   6.656   5.445
11147TIP3    H233319   1.619   6.612   5.550
11148TIP3   OH233320   0.754   7.868   3.540
11148TIP3    H133321   0.758   7.898   3.632
11148TIP3    H233322   0.843   7.828   3.528
11149TIP3   OH233323   2.457   6.742   5.271
11149TIP3    H133324   2.476   6.713   5.363
11149TIP3    H233325   2.545   6.737   5.230
11150TIP3   OH233326   2.387   8.283   4.744
11150TIP3    H133327   2.291   8.269   4.741
11150TIP3    H233328   2.386   8.382   4.750
11151TIP3   OH233329   3.662   7.672   3.533
11151TIP3    H133330   3.628   7.760   3.505
11151TIP3    H233331   3.591   7.615   3.496
11152TIP3   OH233332   3.673   7.675   3.911
11152TIP3    H133333   3.692   7.628   3.994
11152TIP3    H233334   3.629   7.606   3.860
11153TIP3   OH233335   2.962   7.564   4.276
11153TIP3    H133336   2.993   7.496   4.339
11153TIP3    H233337   3.041   7.619   4.268
11154TIP3   OH233338   3.930   7.960   3.609
11154TIP3    H133339   3.862   7.897   3.639
11154TIP3    H233340   3.889   8.047   3.627
11155TIP3   OH233341   2.939   7.976   4.001
11155TIP3    H133342   2.927   7.878   4.004
11155TIP3    H233343   3.036   7.981   3.993
11156TIP3   OH233344   2.640   7.179   3.786
11156TIP3    H133345   2.588   7.261   3.799
11156TIP3    H233346   2.571   7.122   3.748
11157TIP3   OH233347   2.698   7.467   3.963
11157TIP3    H133348   2.747   7.390   4.000
11157TIP3    H233349   2.753   7.490   3.887
11158TIP3   OH233350   3.548   8.429   3.605
11158TIP3    H133351   3.600   8.359   3.560
11158TIP3    H233352   3.547   8.399   3.696
11159TIP3   OH233353   3.459   7.896   3.958
11159TIP3    H133354   3.494   7.819   3.909
11159TIP3    H233355   3.543   7.941   3.979
11160TIP3   OH233356   4.472   7.213   3.954
11160TIP3    H133357   4.501   7.295   3.998
11160TIP3    H233358   4.499   7.231   3.862
11161TIP3   OH233359   3.873   7.398   3.991
11161TIP3    H133360   3.913   7.311   4.011
11161TIP3    H233361   3.842   7.383   3.900
11162TIP3   OH233362   3.212   7.055   3.956
11162TIP3    H133363   3.190   7.127   3.893
11162TIP3    H233364   3.164   6.981   3.913
11163TIP3   OH233365   3.907   7.148   3.580
11163TIP3    H133366   3.982   7.130   3.641
11163TIP3    H233367   3.955   7.181   3.502
11164TIP3   OH233368   2.845   7.258   4.064
11164TIP3    H133369   2.928   7.235   4.111
11164TIP3    H233370   2.855   7.202   3.984
11165TIP3   OH233371   3.285   7.456   3.856
11165TIP3    H133372   3.378   7.429   3.870
11165TIP3    H233373   3.245   7.372   3.824
11166TIP3   OH233374   4.546   7.418   4.128
11166TIP3    H133375   4.463   7.467   4.111
11166TIP3    H233376   4.569   7.449   4.217
11167TIP3   OH233377   3.208   7.038   4.391
11167TIP3    H133378   3.148   7.074   4.323
11167TIP3    H233379   3.155   7.055   4.472
11168TIP3   OH233380   3.551   7.888   3.405
11168TIP3    H133381   3.517   7.867   3.317
11168TIP3    H233382   3.507   7.973   3.423
11169TIP3   OH233383   3.314   7.814   4.187
11169TIP3    H133384   3.250   7.878   4.225
11169TIP3    H233385   3.354   7.866   4.115
11170TIP3   OH233386   4.118   7.145   3.752
11170TIP3    H133387   4.099   7.103   3.838
11170TIP3    H233388   4.172   7.222   3.778
11171TIP3   OH233389   3.079   7.153   4.175
11171TIP3    H133390   3.142   7.226   4.197
11171TIP3    H233391   3.128   7.112   4.100
11172TIP3   OH233392   3.142   8.007   4.283
11172TIP3    H133393   3.116   8.093   4.244
11172TIP3    H233394   3.064   7.990   4.340
11173TIP3   OH233395   2.538   7.697   3.519
11173TIP3    H133396   2.494   7.720   3.435
11173TIP3    H233397   2.564   7.784   3.554
11174TIP3   OH233398   3.971   8.204   3.764
11174TIP3    H133399   3.880   8.214   3.801
11174TIP3    H233400   3.977   8.289   3.714
11175TIP3   OH233401   4.265   7.110   4.117
11175TIP3    H133402   4.178   7.144   4.089
11175TIP3    H233403   4.324   7.147   4.048
11176TIP3   OH233404   3.565   6.757   4.106
11176TIP3    H133405   3.551   6.662   4.121
11176TIP3    H233406   3.487   6.794   4.152
11177TIP3   OH233407   3.683   8.258   3.441
11177TIP3    H133408   3.728   8.176   3.409
11177TIP3    H233409   3.739   8.325   3.396
11178TIP3   OH233410   3.815   8.040   3.344
11178TIP3    H133411   3.798   7.967   3.283
11178TIP3    H233412   3.867   7.997   3.414
11179TIP3   OH233413   3.497   7.523   3.361
11179TIP3    H133414   3.415   7.571   3.338
11179TIP3    H233415   3.541   7.516   3.275
11180TIP3   OH233416   3.454   7.304   3.078
11180TIP3    H133417   3.523   7.355   3.123
11180TIP3    H233418   3.509   7.239   3.029
11181TIP3   OH233419   4.385   7.761   3.940
11181TIP3    H133420   4.336   7.843   3.945
11181TIP3    H233421   4.428   7.772   3.852
11182TIP3   OH233422   3.840   7.604   3.333
11182TIP3    H133423   3.786   7.627   3.412
11182TIP3    H233424   3.923   7.575   3.375
11183TIP3   OH233425   4.079   7.642   4.245
11183TIP3    H133426   4.074   7.718   4.305
11183TIP3    H233427   3.990   7.642   4.205
11184TIP3   OH233428   3.073   7.601   3.748
11184TIP3    H133429   3.030   7.543   3.682
11184TIP3    H233430   3.149   7.546   3.776
11185TIP3   OH233431   3.203   8.013   3.896
11185TIP3    H133432   3.181   7.969   3.812
11185TIP3    H233433   3.292   7.978   3.914
11186TIP3   OH233434   3.212   7.570   4.104
11186TIP3    H133435   3.242   7.550   4.013
11186TIP3    H233436   3.253   7.657   4.122
11187TIP3   OH233437   3.733   8.209   3.882
11187TIP3    H133438   3.719   8.294   3.929
11187TIP3    H233439   3.723   8.143   3.953
11188TIP3   OH233440   3.348   8.126   4.427
11188TIP3    H133441   3.289   8.190   4.474
11188TIP3    H233442   3.280   8.074   4.378
11189TIP3   OH233443   3.681   7.461   3.157
11189TIP3    H133444   3.742   7.519   3.208
11189TIP3    H233445   3.706   7.484   3.064
11190TIP3   OH233446   3.103   7.685   4.527
11190TIP3    H133447   3.108   7.771   4.573
11190TIP3    H233448   3.008   7.665   4.539
11191TIP3   OH233449   3.425   8.142   3.436
11191TIP3    H133450   3.503   8.198   3.453
11191TIP3    H233451   3.365   8.203   3.392
11192TIP3   OH233452   3.142   8.295   4.513
11192TIP3    H133453   3.105   8.295   4.423
11192TIP3    H233454   3.063   8.275   4.568
11193TIP3   OH233455   4.190   6.711   3.210
11193TIP3    H133456   4.111   6.731   3.263
11193TIP3    H233457   4.202   6.789   3.154
11194TIP3   OH233458   2.939   7.444   3.556
11194TIP3    H133459   2.873   7.488   3.498
11194TIP3    H233460   2.899   7.356   3.565
11195TIP3   OH233461   3.997   8.069   2.758
11195TIP3    H133462   4.007   8.165   2.739
11195TIP3    H233463   4.089   8.038   2.743
11196TIP3   OH233464   2.720   7.816   4.453
11196TIP3    H133465   2.694   7.769   4.372
11196TIP3    H233466   2.764   7.742   4.502
11197TIP3   OH233467   4.443   8.476   4.151
11197TIP3    H133468   4.441   8.380   4.164
11197TIP3    H233469   4.358   8.502   4.193
11198TIP3   OH233470   3.547   8.254   4.284
11198TIP3    H133471   3.548   8.347   4.315
11198TIP3    H233472   3.476   8.217   4.339
11199TIP3   OH233473   3.298   8.381   3.239
11199TIP3    H133474   3.263   8.364   3.149
11199TIP3    H233475   3.279   8.476   3.253
11200TIP3   OH233476   2.747   8.236   3.618
11200TIP3    H133477   2.791   8.224   3.705
11200TIP3    H233478   2.687   8.158   3.618
11201TIP3   OH233479   3.506   8.285   2.878
11201TIP3    H133480   3.565   8.216   2.839
11201TIP3    H233481   3.543   8.295   2.967
11202TIP3   OH233482   3.554   8.337   3.148
11202TIP3    H133483   3.468   8.340   3.194
11202TIP3    H233484   3.611   8.297   3.215
11203TIP3   OH233485   4.327   7.601   4.424
11203TIP3    H133486   4.249   7.608   4.368
11203TIP3    H233487   4.346   7.505   4.418
11204TIP3   OH233488   2.926   8.005   4.449
11204TIP3    H133489   2.976   7.993   4.532
11204TIP3    H233490   2.853   7.942   4.459
11205TIP3   OH233491   3.326   6.834   4.233
11205TIP3    H133492   3.237   6.802   4.207
11205TIP3    H233493   3.300   6.916   4.279
11206TIP3   OH233494   3.858   6.950   4.428
11206TIP3    H133495   3.927   6.916   4.489
11206TIP3    H233496   3.774   6.926   4.473
11207TIP3   OH233497   4.098   7.376   4.344
11207TIP3    H133498   4.050   7.372   4.430
11207TIP3    H233499   4.071   7.462   4.309
11208TIP3   OH233500   3.756   7.510   2.902
11208TIP3    H133501   3.725   7.482   2.814
11208TIP3    H233502   3.841   7.552   2.876
11209TIP3   OH233503   3.470   6.883   3.203
11209TIP3    H133504   3.437   6.880   3.295
11209TIP3    H233505   3.433   6.799   3.170
11210TIP3   OH233506   3.259   7.348   4.253
11210TIP3    H133507   3.207   7.367   4.333
11210TIP3    H233508   3.242   7.429   4.200
11211TIP3   OH233509   3.141   7.236   3.766
11211TIP3    H133510   3.048   7.209   3.783
11211TIP3    H233511   3.154   7.196   3.677
11212TIP3   OH233512   3.633   7.322   3.494
11212TIP3    H133513   3.579   7.392   3.450
11212TIP3    H233514   3.687   7.290   3.420
11213TIP3   OH233515   3.806   7.596   4.579
11213TIP3    H133516   3.783   7.526   4.643
11213TIP3    H233517   3.898   7.614   4.604
11214TIP3   OH233518   3.791   7.352   3.730
11214TIP3    H133519   3.729   7.378   3.659
11214TIP3    H233520   3.825   7.270   3.690
11215TIP3   OH233521   3.077   7.378   4.460
11215TIP3    H133522   3.100   7.440   4.531
11215TIP3    H233523   3.062   7.295   4.510
11216TIP3   OH233524   3.126   6.856   3.171
11216TIP3    H133525   3.116   6.852   3.268
11216TIP3    H233526   3.047   6.907   3.146
11217TIP3   OH233527   2.668   6.902   4.040
11217TIP3    H133528   2.746   6.931   4.093
11217TIP3    H233529   2.708   6.866   3.960
11218TIP3   OH233530   2.643   6.881   3.560
11218TIP3    H133531   2.686   6.921   3.482
11218TIP3    H233532   2.581   6.953   3.583
11219TIP3   OH233533   3.812   7.599   4.160
11219TIP3    H133534   3.838   7.526   4.099
11219TIP3    H233535   3.776   7.547   4.234
11220TIP3   OH233536   3.470   7.058   3.829
11220TIP3    H133537   3.385   7.055   3.877
11220TIP3    H233538   3.534   7.057   3.901
11221TIP3   OH233539   2.903   7.113   3.835
11221TIP3    H133540   2.808   7.120   3.809
11221TIP3    H233541   2.925   7.021   3.812
11222TIP3   OH233542   3.173   7.111   3.523
11222TIP3    H133543   3.266   7.124   3.500
11222TIP3    H233544   3.124   7.133   3.440
11223TIP3   OH233545   3.958   7.132   4.028
11223TIP3    H133546   3.925   7.145   4.120
11223TIP3    H233547   3.892   7.071   3.993
11224TIP3   OH233548   3.013   7.144   3.303
11224TIP3    H133549   2.942   7.098   3.255
11224TIP3    H233550   3.065   7.179   3.227
11225TIP3   OH233551   4.131   8.820   4.248
11225TIP3    H133552   4.127   8.846   4.154
11225TIP3    H233553   4.207   8.872   4.279
11226TIP3   OH233554   3.087   7.931   4.669
11226TIP3    H133555   3.167   7.963   4.717
11226TIP3    H233556   3.023   7.930   4.742
11227TIP3   OH233557   3.552   7.387   3.927
11227TIP3    H133558   3.621   7.344   3.875
11227TIP3    H233559   3.560   7.342   4.013
11228TIP3   OH233560   3.076   6.872   3.804
11228TIP3    H133561   3.041   6.792   3.849
11228TIP3    H233562   3.122   6.833   3.728
11229TIP3   OH233563   3.528   7.282   4.213
11229TIP3    H133564   3.437   7.315   4.228
11229TIP3    H233565   3.583   7.342   4.265
11230TIP3   OH233566   3.264   7.674   3.309
11230TIP3    H133567   3.192   7.607   3.299
11230TIP3    H233568   3.247   7.706   3.401
11231TIP3   OH233569   3.724   6.983   3.178
11231TIP3    H133570   3.627   6.968   3.180
11231TIP3    H233571   3.732   7.079   3.193
11232TIP3   OH233572   3.671   7.992   4.304
11232TIP3    H133573   3.680   7.967   4.397
11232TIP3    H233574   3.628   8.079   4.310
11233TIP3   OH233575   3.792   7.234   3.277
11233TIP3    H133576   3.889   7.238   3.287
11233TIP3    H233577   3.773   7.310   3.218
11234TIP3   OH233578   2.959   7.698   3.986
11234TIP3    H133579   2.995   7.667   3.900
11234TIP3    H233580   2.992   7.630   4.047
11235TIP3   OH233581   3.412   7.822   3.132
11235TIP3    H133582   3.365   7.908   3.138
11235TIP3    H233583   3.356   7.766   3.191
11236TIP3   OH233584   2.837   7.620   4.601
11236TIP3    H133585   2.859   7.605   4.695
11236TIP3    H233586   2.769   7.551   4.586
11237TIP3   OH233587   3.562   7.729   4.618
11237TIP3    H133588   3.502   7.670   4.571
11237TIP3    H233589   3.649   7.695   4.589
11238TIP3   OH233590   3.822   8.269   4.188
11238TIP3    H133591   3.729   8.255   4.210
11238TIP3    H233592   3.855   8.307   4.272
11239TIP3   OH233593   4.236   7.323   3.111
11239TIP3    H133594   4.173   7.276   3.050
11239TIP3    H233595   4.232   7.410   3.067
11240TIP3   OH233596   4.443   8.175   4.193
11240TIP3    H133597   4.349   8.196   4.187
11240TIP3    H233598   4.466   8.150   4.101
11241TIP3   OH233599   3.932   8.140   3.019
11241TIP3    H133600   3.913   8.062   3.072
11241TIP3    H233601   3.949   8.102   2.931
11242TIP3   OH233602   3.940   7.790   3.855
11242TIP3    H133603   3.849   7.760   3.873
11242TIP3    H233604   3.976   7.708   3.816
11243TIP3   OH233605   3.058   7.996   3.612
11243TIP3    H133606   3.060   8.075   3.555
11243TIP3    H233607   2.963   7.980   3.619
11244TIP3   OH233608   2.621   7.303   3.314
11244TIP3    H133609   2.667   7.387   3.334
11244TIP3    H233610   2.543   7.309   3.374
11245TIP3   OH233611   3.199   7.764   3.557
11245TIP3    H133612   3.162   7.853   3.574
11245TIP3    H233613   3.159   7.713   3.630
11246TIP3   OH233614   3.326   8.341   4.079
11246TIP3    H133615   3.365   8.416   4.029
11246TIP3    H233616   3.403   8.311   4.130
11247TIP3   OH233617   2.973   8.235   3.458
11247TIP3    H133618   2.889   8.239   3.508
11247TIP3    H233619   3.011   8.322   3.475
11248TIP3   OH233620   3.728   7.972   4.038
11248TIP3    H133621   3.717   7.985   4.135
11248TIP3    H233622   3.770   7.885   4.036
11249TIP3   OH233623   3.689   7.870   2.924
11249TIP3    H133624   3.742   7.846   3.002
11249TIP3    H233625   3.601   7.840   2.952
11250TIP3   OH233626   3.968   8.510   4.088
11250TIP3    H133627   3.890   8.451   4.084
11250TIP3    H233628   3.949   8.572   4.014
11251TIP3   OH233629   4.029   8.344   2.740
11251TIP3    H133630   4.067   8.414   2.685
11251TIP3    H233631   3.949   8.392   2.773
11252TIP3   OH233632   3.048   7.121   4.606
11252TIP3    H133633   2.951   7.128   4.619
11252TIP3    H233634   3.073   7.060   4.677
11253TIP3   OH233635   3.850   7.813   3.148
11253TIP3    H133636   3.840   7.738   3.209
11253TIP3    H233637   3.945   7.805   3.126
11254TIP3   OH233638   2.734   8.185   4.258
11254TIP3    H133639   2.812   8.127   4.266
11254TIP3    H233640   2.768   8.266   4.299
11255TIP3   OH233641   3.054   7.851   2.921
11255TIP3    H133642   3.070   7.760   2.889
11255TIP3    H233643   3.035   7.835   3.015
11256TIP3   OH233644   3.001   7.853   3.194
11256TIP3    H133645   3.075   7.825   3.250
11256TIP3    H233646   3.007   7.951   3.199
11257TIP3   OH233647   2.738   7.548   3.395
11257TIP3    H133648   2.671   7.592   3.452
11257TIP3    H233649   2.752   7.618   3.328
11258TIP3   OH233650   3.885   7.186   4.287
11258TIP3    H133651   3.965   7.223   4.328
11258TIP3    H233652   3.869   7.105   4.341
11259TIP3   OH233653   3.758   6.940   3.454
11259TIP3    H133654   3.747   6.958   3.358
11259TIP3    H233655   3.802   7.022   3.485
11260TIP3   OH233656   3.269   8.052   3.144
11260TIP3    H133657   3.181   8.082   3.175
11260TIP3    H233658   3.286   8.116   3.073
11261TIP3   OH233659   3.457   7.115   3.555
11261TIP3    H133660   3.522   7.186   3.536
11261TIP3    H233661   3.461   7.111   3.653
11262TIP3   OH233662   3.725   7.436   4.361
11262TIP3    H133663   3.745   7.489   4.440
11262TIP3    H233664   3.779   7.356   4.374
11263TIP3   OH233665   3.602   6.845   3.662
11263TIP3    H133666   3.585   6.926   3.713
11263TIP3    H233667   3.659   6.881   3.590
11264TIP3   OH233668   3.011   8.127   3.205
11264TIP3    H133669   2.981   8.198   3.144
11264TIP3    H233670   2.994   8.168   3.293
11265TIP3   OH233671   3.110   6.840   3.448
11265TIP3    H133672   3.108   6.931   3.483
11265TIP3    H233673   3.207   6.822   3.454
11266TIP3   OH233674   4.365   7.335   4.346
11266TIP3    H133675   4.267   7.332   4.349
11266TIP3    H233676   4.381   7.298   4.258
11267TIP3   OH233677   4.015   7.538   3.739
11267TIP3    H133678   3.940   7.476   3.743
11267TIP3    H233679   4.086   7.485   3.782
11268TIP3   OH233680   2.728   7.758   3.202
11268TIP3    H133681   2.797   7.827   3.209
11268TIP3    H233682   2.771   7.701   3.134
11269TIP3   OH233683   2.674   7.033   3.334
11269TIP3    H133684   2.671   7.130   3.330
11269TIP3    H233685   2.590   7.009   3.292
11270TIP3   OH233686   3.989   8.469   3.678
11270TIP3    H133687   3.943   8.519   3.607
11270TIP3    H233688   4.082   8.498   3.660
11271TIP3   OH233689   3.062   6.753   4.208
11271TIP3    H133690   3.029   6.720   4.122
11271TIP3    H233691   3.050   6.675   4.265
11272TIP3   OH233692   2.599   7.980   3.592
11272TIP3    H133693   2.518   8.006   3.638
11272TIP3    H233694   2.579   8.014   3.502
11273TIP3   OH233695   2.758   8.506   4.656
11273TIP3    H133696   2.843   8.509   4.704
11273TIP3    H233697   2.737   8.411   4.660
11274TIP3   OH233698   3.237   8.477   4.705
11274TIP3    H133699   3.332   8.462   4.714
11274TIP3    H233700   3.215   8.418   4.630
11275TIP3   OH233701   3.220   8.055   2.836
11275TIP3    H133702   3.165   7.981   2.871
11275TIP3    H233703   3.295   8.005   2.798
11276TIP3   OH233704   3.883   8.379   4.434
11276TIP3    H133705   3.871   8.312   4.505
11276TIP3    H233706   3.955   8.434   4.468
11277TIP3   OH233707   3.654   8.095   2.744
11277TIP3    H133708   3.703   8.032   2.800
11277TIP3    H233709   3.708   8.097   2.663
11278TIP3   OH233710   2.888   7.921   4.861
11278TIP3    H133711   2.904   7.826   4.870
11278TIP3    H233712   2.799   7.922   4.819
11279TIP3   OH233713   2.863   7.572   3.054
11279TIP3    H133714   2.918   7.536   3.125
11279TIP3    H233715   2.929   7.575   2.981
11280TIP3   OH233716   3.497   8.005   4.633
11280TIP3    H133717   3.452   8.021   4.548
11280TIP3    H233718   3.525   7.911   4.626
11281TIP3   OH233719   3.371   7.768   2.862
11281TIP3    H133720   3.375   7.781   2.959
11281TIP3    H233721   3.373   7.670   2.857
11282TIP3   OH233722   3.007   7.654   4.841
11282TIP3    H133723   3.077   7.590   4.826
11282TIP3    H233724   3.030   7.687   4.931
11283TIP3   OH233725   3.074   7.473   3.277
11283TIP3    H133726   3.046   7.429   3.358
11283TIP3    H233727   3.109   7.399   3.224
11284TIP3   OH233728   3.342   7.539   4.507
11284TIP3    H133729   3.263   7.597   4.510
11284TIP3    H233730   3.389   7.573   4.427
11285TIP3   OH233731   3.173   7.268   3.117
11285TIP3    H133732   3.146   7.269   3.023
11285TIP3    H233733   3.270   7.273   3.108
11286TIP3   OH233734   3.857   7.936   4.637
11286TIP3    H133735   3.950   7.926   4.615
11286TIP3    H233736   3.847   7.873   4.711
11287TIP3   OH233737   3.991   7.598   2.783
11287TIP3    H133738   3.980   7.550   2.698
11287TIP3    H233739   3.963   7.688   2.754
11288TIP3   OH233740   3.468   7.327   4.628
11288TIP3    H133741   3.464   7.247   4.572
11288TIP3    H233742   3.422   7.394   4.573
11289TIP3   OH233743   3.467   7.113   4.438
11289TIP3    H133744   3.493   7.152   4.353
11289TIP3    H233745   3.374   7.088   4.420
11290TIP3   OH233746   3.493   7.650   4.312
11290TIP3    H133747   3.574   7.655   4.259
11290TIP3    H233748   3.435   7.717   4.269
11291TIP3   OH233749   4.077   7.615   4.691
11291TIP3    H133750   4.125   7.533   4.707
11291TIP3    H233751   4.148   7.674   4.663
11292TIP3   OH233752   4.115   7.869   4.414
11292TIP3    H133753   4.062   7.943   4.382
11292TIP3    H233754   4.203   7.888   4.374
11293TIP3   OH233755   3.348   7.435   4.861
11293TIP3    H133756   3.275   7.371   4.875
11293TIP3    H233757   3.378   7.411   4.771
11294TIP3   OH233758   3.605   6.880   4.511
11294TIP3    H133759   3.555   6.961   4.488
11294TIP3    H233760   3.537   6.811   4.501
11295TIP3   OH233761   3.727   7.377   4.722
11295TIP3    H133762   3.706   7.366   4.817
11295TIP3    H233763   3.638   7.355   4.685
11296TIP3   OH233764   3.961   7.328   4.571
11296TIP3    H133765   3.887   7.335   4.634
11296TIP3    H233766   4.035   7.300   4.630
11297TIP3   OH233767   4.181   7.266   4.726
11297TIP3    H133768   4.204   7.173   4.747
11297TIP3    H233769   4.186   7.310   4.814
11298TIP3   OH233770   3.182   7.219   4.911
11298TIP3    H133771   3.184   7.127   4.879
11298TIP3    H233772   3.214   7.208   5.003
11299TIP3   OH233773   2.980   8.351   3.038
11299TIP3    H133774   3.073   8.334   3.013
11299TIP3    H233775   2.947   8.384   2.952
11300TIP3   OH233776   2.460   7.711   3.239
11300TIP3    H133777   2.555   7.732   3.224
11300TIP3    H233778   2.453   7.623   3.196
11301TIP3   OH233779   2.376   8.328   3.641
11301TIP3    H133780   2.306   8.267   3.609
11301TIP3    H233781   2.418   8.273   3.711
11302TIP3   OH233782   2.510   8.187   3.831
11302TIP3    H133783   2.503   8.103   3.879
11302TIP3    H233784   2.566   8.240   3.890
11303TIP3   OH233785   4.237   8.572   3.639
11303TIP3    H133786   4.263   8.617   3.721
11303TIP3    H233787   4.291   8.620   3.574
11304TIP3   OH233788   4.264   8.597   3.923
11304TIP3    H133789   4.228   8.507   3.918
11304TIP3    H233790   4.345   8.581   3.974
11305TIP3   OH233791   4.310   8.271   4.487
11305TIP3    H133792   4.239   8.280   4.555
11305TIP3    H233793   4.353   8.359   4.493
11306TIP3   OH233794   4.126   7.788   3.114
11306TIP3    H133795   4.195   7.850   3.080
11306TIP3    H233796   4.173   7.747   3.189
11307TIP3   OH233797   4.256   7.655   3.316
11307TIP3    H133798   4.192   7.610   3.375
11307TIP3    H233799   4.323   7.690   3.379
11308TIP3   OH233800   4.276   8.032   3.752
11308TIP3    H133801   4.340   7.973   3.709
11308TIP3    H233802   4.295   8.117   3.705
11309TIP3   OH233803   4.147   8.341   3.955
11309TIP3    H133804   4.084   8.386   4.014
11309TIP3    H233805   4.089   8.311   3.883
11310TIP3   OH233806   4.193   7.561   2.964
11310TIP3    H133807   4.123   7.562   2.895
11310TIP3    H233808   4.166   7.639   3.015
11311TIP3   OH233809   4.060   7.236   2.923
11311TIP3    H133810   4.035   7.275   2.838
11311TIP3    H233811   4.037   7.142   2.910
11312TIP3   OH233812   4.069   7.510   3.463
11312TIP3    H133813   4.079   7.413   3.454
11312TIP3    H233814   4.058   7.521   3.560
11313TIP3   OH233815   2.697   7.589   4.222
11313TIP3    H133816   2.686   7.563   4.129
11313TIP3    H233817   2.795   7.585   4.231
11314TIP3   OH233818   4.356   7.936   4.308
11314TIP3    H133819   4.427   7.868   4.307
11314TIP3    H233820   4.399   8.010   4.262
11315TIP3   OH233821   4.540   7.743   4.341
11315TIP3    H133822   4.468   7.688   4.378
11315TIP3    H233823   4.616   7.682   4.353
11316TIP3   OH233824   4.009   6.970   2.908
11316TIP3    H133825   4.087   6.937   2.957
11316TIP3    H233826   3.940   6.905   2.929
11317TIP3   OH233827   4.068   7.230   3.358
11317TIP3    H133828   4.108   7.141   3.372
11317TIP3    H233829   4.125   7.260   3.285
11318TIP3   OH233830   4.228   7.400   3.851
11318TIP3    H133831   4.314   7.426   3.810
11318TIP3    H233832   4.244   7.435   3.941
11319TIP3   OH233833   4.299   7.543   4.085
11319TIP3    H133834   4.221   7.576   4.134
11319TIP3    H233835   4.327   7.622   4.035
11320TIP3   OH233836   2.915   7.271   4.885
11320TIP3    H133837   3.013   7.264   4.887
11320TIP3    H233838   2.890   7.186   4.926
11321TIP3   OH233839   4.744   7.130   4.641
11321TIP3    H133840   4.805   7.066   4.599
11321TIP3    H233841   4.721   7.189   4.565
11322TIP3   OH233842   4.170   6.980   3.399
11322TIP3    H133843   4.218   6.962   3.482
11322TIP3    H233844   4.114   6.900   3.392
11323TIP3   OH233845   2.877   6.961   4.214
11323TIP3    H133846   2.939   6.887   4.225
11323TIP3    H233847   2.939   7.036   4.209
11324TIP3   OH233848   2.679   7.236   4.288
11324TIP3    H133849   2.726   7.227   4.203
11324TIP3    H233850   2.712   7.321   4.319
11325TIP3   OH233851   4.622   7.277   4.446
11325TIP3    H133852   4.534   7.313   4.466
11325TIP3    H233853   4.596   7.202   4.388
11326TIP3   OH233854   4.258   6.910   3.027
11326TIP3    H133855   4.291   6.832   2.977
11326TIP3    H233856   4.329   6.976   3.013
11327TIP3   OH233857   2.662   6.742   3.792
11327TIP3    H133858   2.568   6.737   3.816
11327TIP3    H233859   2.659   6.798   3.711
11328TIP3   OH233860   3.821   8.439   3.296
11328TIP3    H133861   3.871   8.426   3.213
11328TIP3    H233862   3.871   8.511   3.338
11329TIP3   OH233863   2.883   6.820   4.604
11329TIP3    H133864   2.832   6.813   4.686
11329TIP3    H233865   2.816   6.858   4.544
11330TIP3   OH233866   2.922   8.241   4.680
11330TIP3    H133867   2.829   8.217   4.664
11330TIP3    H233868   2.931   8.226   4.774
11331TIP3   OH233869   3.097   8.276   4.225
11331TIP3    H133870   3.052   8.356   4.189
11331TIP3    H233871   3.184   8.289   4.182
11332TIP3   OH233872   3.545   8.520   4.363
11332TIP3    H133873   3.586   8.523   4.452
11332TIP3    H233874   3.611   8.573   4.312
11333TIP3   OH233875   3.725   8.674   4.224
11333TIP3    H133876   3.798   8.625   4.184
11333TIP3    H233877   3.774   8.733   4.285
11334TIP3   OH233878   4.520   7.037   4.325
11334TIP3    H133879   4.429   7.027   4.294
11334TIP3    H233880   4.553   6.944   4.314
11335TIP3   OH233881   2.773   8.525   4.253
11335TIP3    H133882   2.684   8.561   4.231
11335TIP3    H233883   2.790   8.574   4.336
11336TIP3   OH233884   3.010   8.511   4.108
11336TIP3    H133885   2.924   8.527   4.154
11336TIP3    H233886   2.992   8.550   4.020
11337TIP3   OH233887   3.438   8.543   3.906
11337TIP3    H133888   3.371   8.565   3.839
11337TIP3    H233889   3.451   8.630   3.950
11338TIP3   OH233890   3.707   8.480   3.950
11338TIP3    H133891   3.612   8.502   3.936
11338TIP3    H233892   3.751   8.560   3.916
11339TIP3   OH233893   3.911   8.671   3.871
11339TIP3    H133894   3.898   8.759   3.829
11339TIP3    H233895   3.940   8.618   3.795
11340TIP3   OH233896   2.690   8.326   3.990
11340TIP3    H133897   2.714   8.312   4.083
11340TIP3    H233898   2.766   8.284   3.945
11341TIP3   OH233899   2.884   8.198   3.852
11341TIP3    H133900   2.900   8.114   3.902
11341TIP3    H233901   2.975   8.235   3.850
11342TIP3   OH233902   3.148   8.295   3.854
11342TIP3    H133903   3.180   8.204   3.845
11342TIP3    H233904   3.191   8.319   3.938
11343TIP3   OH233905   3.728   6.953   3.951
11343TIP3    H133906   3.679   6.886   4.002
11343TIP3    H233907   3.786   6.898   3.896
11344TIP3   OH233908   4.274   6.835   3.855
11344TIP3    H133909   4.290   6.893   3.776
11344TIP3    H233910   4.176   6.834   3.853
11345TIP3   OH233911   4.345   6.935   3.614
11345TIP3    H133912   4.414   6.890   3.562
11345TIP3    H233913   4.372   7.029   3.599
11346TIP3   OH233914   2.972   6.661   3.960
11346TIP3    H133915   2.880   6.627   3.961
11346TIP3    H233916   3.022   6.576   3.957
11347TIP3   OH233917   2.760   6.530   3.608
11347TIP3    H133918   2.789   6.587   3.535
11347TIP3    H233919   2.730   6.595   3.674
11348TIP3   OH233920   3.415   6.694   3.839
11348TIP3    H133921   3.476   6.742   3.781
11348TIP3    H233922   3.436   6.731   3.925
11349TIP3   OH233923   3.993   6.833   3.824
11349TIP3    H133924   3.960   6.808   3.737
11349TIP3    H233925   3.964   6.757   3.880
11350TIP3   OH233926   3.991   6.767   3.399
11350TIP3    H133927   3.901   6.803   3.398
11350TIP3    H233928   3.975   6.677   3.434
11351TIP3   OH233929   2.477   8.102   3.385
11351TIP3    H133930   2.392   8.068   3.353
11351TIP3    H233931   2.463   8.196   3.368
11352TIP3   OH233932   2.876   6.690   3.371
11352TIP3    H133933   2.924   6.627   3.314
11352TIP3    H233934   2.949   6.744   3.407
11353TIP3   OH233935   3.388   6.865   3.469
11353TIP3    H133936   3.446   6.815   3.528
11353TIP3    H233937   3.411   6.957   3.495
11354TIP3   OH233938   3.245   8.292   2.971
11354TIP3    H133939   3.333   8.314   2.934
11354TIP3    H233940   3.224   8.217   2.911
11355TIP3   OH233941   3.964   8.407   3.063
11355TIP3    H133942   3.956   8.310   3.047
11355TIP3    H233943   3.923   8.442   2.982
11356TIP3   OH233944   3.179   6.945   4.853
11356TIP3    H133945   3.143   6.873   4.908
11356TIP3    H233946   3.273   6.945   4.881
11357TIP3   OH233947   3.426   6.936   4.978
11357TIP3    H133948   3.499   6.885   4.943
11357TIP3    H233949   3.397   6.877   5.051
11358TIP3   OH233950   2.553   8.127   3.025
11358TIP3    H133951   2.548   8.150   3.119
11358TIP3    H233952   2.641   8.084   3.018
11359TIP3   OH233953   4.254   6.999   4.760
11359TIP3    H133954   4.278   6.967   4.850
11359TIP3    H233955   4.341   6.997   4.715
11360TIP3   OH233956   4.194   8.551   4.250
11360TIP3    H133957   4.114   8.523   4.201
11360TIP3    H233958   4.178   8.648   4.253
11361TIP3   OH233959   5.459   7.924   3.017
11361TIP3    H133960   5.431   8.016   2.996
11361TIP3    H233961   5.383   7.875   2.981
11362TIP3   OH233962   5.457   7.926   3.398
11362TIP3    H133963   5.489   7.895   3.484
11362TIP3    H233964   5.418   7.846   3.360
11363TIP3   OH233965   4.753   7.824   3.771
11363TIP3    H133966   4.789   7.755   3.830
11363TIP3    H233967   4.834   7.870   3.744
11364TIP3   OH233968   5.702   8.226   3.078
11364TIP3    H133969   5.688   8.157   3.144
11364TIP3    H233970   5.731   8.301   3.133
11365TIP3   OH233971   4.730   8.228   3.491
11365TIP3    H133972   4.722   8.130   3.491
11365TIP3    H233973   4.826   8.237   3.479
11366TIP3   OH233974   4.432   7.432   3.276
11366TIP3    H133975   4.383   7.516   3.284
11366TIP3    H233976   4.366   7.378   3.230
11367TIP3   OH233977   4.493   7.722   3.449
11367TIP3    H133978   4.544   7.645   3.482
11367TIP3    H233979   4.549   7.751   3.376
11368TIP3   OH233980   5.351   8.689   3.095
11368TIP3    H133981   5.397   8.618   3.045
11368TIP3    H233982   5.345   8.650   3.183
11369TIP3   OH233983   5.257   8.150   3.447
11369TIP3    H133984   5.295   8.074   3.399
11369TIP3    H233985   5.340   8.195   3.470
11370TIP3   OH233986   6.270   7.470   3.442
11370TIP3    H133987   6.298   7.553   3.486
11370TIP3    H233988   6.293   7.488   3.350
11371TIP3   OH233989   5.668   7.652   3.479
11371TIP3    H133990   5.712   7.567   3.498
11371TIP3    H233991   5.638   7.637   3.387
11372TIP3   OH233992   5.006   7.311   3.445
11372TIP3    H133993   4.987   7.384   3.381
11372TIP3    H233994   4.960   7.237   3.399
11373TIP3   OH233995   5.701   7.403   3.066
11373TIP3    H133996   5.774   7.388   3.130
11373TIP3    H233997   5.751   7.438   2.990
11374TIP3   OH233998   4.640   7.512   3.551
11374TIP3    H133999   4.725   7.492   3.596
11374TIP3    H234000   4.651   7.458   3.470
11375TIP3   OH234001   5.080   7.711   3.348
11375TIP3    H134002   5.175   7.686   3.357
11375TIP3    H234003   5.042   7.628   3.312
11376TIP3   OH234004   6.343   7.676   3.614
11376TIP3    H134005   6.260   7.725   3.595
11376TIP3    H234006   6.362   7.707   3.704
11377TIP3   OH234007   5.004   7.295   3.877
11377TIP3    H134008   4.945   7.331   3.809
11377TIP3    H234009   4.952   7.313   3.958
11378TIP3   OH234010   5.350   8.145   2.887
11378TIP3    H134011   5.310   8.125   2.801
11378TIP3    H234012   5.306   8.229   2.910
11379TIP3   OH234013   5.110   8.069   3.672
11379TIP3    H134014   5.048   8.137   3.708
11379TIP3    H234015   5.154   8.119   3.600
11380TIP3   OH234016   5.911   7.405   3.237
11380TIP3    H134017   5.906   7.355   3.319
11380TIP3    H234018   5.967   7.481   3.263
11381TIP3   OH234019   4.874   7.410   3.662
11381TIP3    H134020   4.937   7.482   3.684
11381TIP3    H234021   4.922   7.369   3.586
11382TIP3   OH234022   4.938   8.264   3.771
11382TIP3    H134023   4.913   8.349   3.729
11382TIP3    H234024   4.859   8.250   3.827
11383TIP3   OH234025   4.330   7.953   3.007
11383TIP3    H134026   4.294   7.973   2.918
11383TIP3    H234027   4.361   8.040   3.038
11384TIP3   OH234028   5.773   8.469   3.248
11384TIP3    H134029   5.682   8.461   3.285
11384TIP3    H234030   5.765   8.555   3.201
11385TIP3   OH234031   6.064   7.370   3.609
11385TIP3    H134032   5.976   7.400   3.579
11385TIP3    H234033   6.123   7.402   3.537
11386TIP3   OH234034   5.360   7.014   3.590
11386TIP3    H134035   5.349   6.919   3.608
11386TIP3    H234036   5.283   7.050   3.637
11387TIP3   OH234037   5.473   8.517   2.921
11387TIP3    H134038   5.523   8.434   2.899
11387TIP3    H234039   5.533   8.583   2.878
11388TIP3   OH234040   5.615   8.302   2.827
11388TIP3    H134041   5.583   8.221   2.784
11388TIP3    H234042   5.651   8.267   2.911
11389TIP3   OH234043   5.998   8.383   3.590
11389TIP3    H134044   5.989   8.306   3.530
11389TIP3    H234045   5.982   8.458   3.529
11390TIP3   OH234046   5.291   7.777   2.847
11390TIP3    H134047   5.210   7.828   2.825
11390TIP3    H234048   5.336   7.774   2.761
11391TIP3   OH234049   5.249   7.561   2.565
11391TIP3    H134050   5.318   7.611   2.612
11391TIP3    H234051   5.305   7.497   2.516
11392TIP3   OH234052   6.193   8.018   3.434
11392TIP3    H134053   6.111   8.072   3.439
11392TIP3    H234054   6.224   8.042   3.344
11393TIP3   OH234055   5.636   7.859   2.819
11393TIP3    H134056   5.582   7.884   2.898
11393TIP3    H234057   5.720   7.833   2.863
11394TIP3   OH234058   5.873   7.898   3.731
11394TIP3    H134059   5.870   7.982   3.780
11394TIP3    H234060   5.787   7.902   3.684
11395TIP3   OH234061   4.868   7.857   3.237
11395TIP3    H134062   4.826   7.800   3.169
11395TIP3    H234063   4.945   7.804   3.264
11396TIP3   OH234064   4.996   8.264   3.386
11396TIP3    H134065   4.978   8.228   3.298
11396TIP3    H234066   5.087   8.232   3.403
11397TIP3   OH234067   4.999   7.830   3.591
11397TIP3    H134068   5.035   7.805   3.503
11397TIP3    H234069   5.046   7.913   3.610
11398TIP3   OH234070   5.530   8.466   3.367
11398TIP3    H134071   5.517   8.546   3.422
11398TIP3    H234072   5.517   8.393   3.430
11399TIP3   OH234073   5.144   8.385   3.914
11399TIP3    H134074   5.084   8.448   3.959
11399TIP3    H234075   5.078   8.332   3.864
11400TIP3   OH234076   5.478   7.716   2.645
11400TIP3    H134077   5.538   7.776   2.697
11400TIP3    H234078   5.504   7.741   2.553
11401TIP3   OH234079   4.902   7.941   4.018
11401TIP3    H134080   4.904   8.029   4.062
11401TIP3    H234081   4.806   7.924   4.017
11402TIP3   OH234082   5.220   8.397   2.924
11402TIP3    H134083   5.301   8.451   2.937
11402TIP3    H234084   5.160   8.459   2.879
11403TIP3   OH234085   4.938   8.555   4.000
11403TIP3    H134086   4.905   8.553   3.908
11403TIP3    H234087   4.859   8.532   4.052
11404TIP3   OH234088   5.994   6.958   2.693
11404TIP3    H134089   5.913   6.978   2.744
11404TIP3    H234090   6.007   7.041   2.642
11405TIP3   OH234091   4.733   7.700   3.046
11405TIP3    H134092   4.671   7.747   2.986
11405TIP3    H234093   4.694   7.612   3.046
11406TIP3   OH234094   5.793   8.325   2.242
11406TIP3    H134095   5.801   8.422   2.227
11406TIP3    H234096   5.885   8.296   2.228
11407TIP3   OH234097   4.512   8.081   3.951
11407TIP3    H134098   4.477   8.056   3.863
11407TIP3    H234099   4.558   7.998   3.979
11408TIP3   OH234100   4.371   8.262   3.608
11408TIP3    H134101   4.461   8.262   3.574
11408TIP3    H234102   4.363   8.353   3.640
11409TIP3   OH234103   6.235   8.727   3.635
11409TIP3    H134104   6.234   8.630   3.648
11409TIP3    H234105   6.152   8.751   3.681
11410TIP3   OH234106   5.343   8.514   3.771
11410TIP3    H134107   5.341   8.607   3.803
11410TIP3    H234108   5.271   8.474   3.825
11411TIP3   OH234109   5.102   8.643   2.723
11411TIP3    H134110   5.056   8.622   2.639
11411TIP3    H234111   5.069   8.732   2.745
11412TIP3   OH234112   4.539   8.492   3.105
11412TIP3    H134113   4.587   8.482   3.190
11412TIP3    H234114   4.483   8.412   3.107
11413TIP3   OH234115   5.304   8.544   2.362
11413TIP3    H134116   5.362   8.474   2.326
11413TIP3    H234117   5.339   8.552   2.454
11414TIP3   OH234118   5.354   8.592   2.632
11414TIP3    H134119   5.266   8.602   2.674
11414TIP3    H234120   5.405   8.550   2.704
11415TIP3   OH234121   6.125   7.858   3.911
11415TIP3    H134122   6.046   7.871   3.857
11415TIP3    H234123   6.141   7.762   3.900
11416TIP3   OH234124   4.722   8.264   3.937
11416TIP3    H134125   4.774   8.250   4.019
11416TIP3    H234126   4.647   8.203   3.949
11417TIP3   OH234127   5.121   7.089   3.720
11417TIP3    H134128   5.031   7.059   3.695
11417TIP3    H234129   5.098   7.173   3.764
11418TIP3   OH234130   5.656   7.206   3.914
11418TIP3    H134131   5.724   7.178   3.978
11418TIP3    H234132   5.572   7.184   3.961
11419TIP3   OH234133   5.893   7.633   3.831
11419TIP3    H134134   5.846   7.631   3.917
11419TIP3    H234135   5.870   7.721   3.796
11420TIP3   OH234136   5.554   7.764   2.389
11420TIP3    H134137   5.521   7.738   2.301
11420TIP3    H234138   5.636   7.812   2.364
11421TIP3   OH234139   5.267   7.138   2.691
11421TIP3    H134140   5.234   7.136   2.782
11421TIP3    H234141   5.229   7.055   2.657
11422TIP3   OH234142   5.052   7.605   3.737
11422TIP3    H134143   5.005   7.628   3.820
11422TIP3    H234144   5.036   7.686   3.684
11423TIP3   OH234145   4.937   7.491   3.253
11423TIP3    H134146   4.844   7.466   3.268
11423TIP3    H234147   4.951   7.452   3.164
11424TIP3   OH234148   5.427   7.578   2.980
11424TIP3    H134149   5.375   7.649   2.938
11424TIP3    H234150   5.482   7.547   2.905
11425TIP3   OH234151   5.602   7.857   4.068
11425TIP3    H134152   5.580   7.783   4.129
11425TIP3    H234153   5.697   7.869   4.088
11426TIP3   OH234154   5.584   7.606   3.219
11426TIP3    H134155   5.525   7.636   3.147
11426TIP3    H234156   5.618   7.525   3.177
11427TIP3   OH234157   4.869   7.636   3.950
11427TIP3    H134158   4.910   7.696   4.014
11427TIP3    H234159   4.862   7.553   4.000
11428TIP3   OH234160   4.923   7.113   2.658
11428TIP3    H134161   4.912   7.107   2.755
11428TIP3    H234162   4.843   7.163   2.633
11429TIP3   OH234163   4.461   7.163   3.538
11429TIP3    H134164   4.545   7.193   3.579
11429TIP3    H234165   4.487   7.135   3.448
11430TIP3   OH234166   4.443   7.135   3.052
11430TIP3    H134167   4.484   7.174   2.971
11430TIP3    H234168   4.379   7.206   3.072
11431TIP3   OH234169   5.594   7.852   3.643
11431TIP3    H134170   5.627   7.781   3.584
11431TIP3    H234171   5.566   7.799   3.720
11432TIP3   OH234172   5.264   7.315   3.315
11432TIP3    H134173   5.183   7.312   3.369
11432TIP3    H234174   5.334   7.312   3.382
11433TIP3   OH234175   4.696   7.368   3.324
11433TIP3    H134176   4.602   7.375   3.295
11433TIP3    H234177   4.722   7.278   3.296
11434TIP3   OH234178   4.968   7.367   3.011
11434TIP3    H134179   5.062   7.381   2.988
11434TIP3    H234180   4.921   7.390   2.927
11435TIP3   OH234181   5.757   7.390   3.518
11435TIP3    H134182   5.719   7.401   3.608
11435TIP3    H234183   5.692   7.329   3.479
11436TIP3   OH234184   4.809   7.399   2.790
11436TIP3    H134185   4.738   7.354   2.742
11436TIP3    H234186   4.861   7.435   2.715
11437TIP3   OH234187   5.925   9.079   3.734
11437TIP3    H134188   5.924   9.100   3.639
11437TIP3    H234189   6.006   9.126   3.763
11438TIP3   OH234190   4.882   8.187   4.157
11438TIP3    H134191   4.963   8.219   4.202
11438TIP3    H234192   4.819   8.191   4.231
11439TIP3   OH234193   5.348   7.641   3.410
11439TIP3    H134194   5.420   7.603   3.357
11439TIP3    H234195   5.361   7.598   3.496
11440TIP3   OH234196   4.874   7.131   3.286
11440TIP3    H134197   4.846   7.047   3.328
11440TIP3    H234198   4.920   7.100   3.207
11441TIP3   OH234199   5.324   7.535   3.705
11441TIP3    H134200   5.235   7.574   3.716
11441TIP3    H234201   5.382   7.597   3.753
11442TIP3   OH234202   5.061   7.930   2.796
11442TIP3    H134203   4.989   7.864   2.785
11442TIP3    H234204   5.043   7.963   2.887
11443TIP3   OH234205   5.961   8.166   3.426
11443TIP3    H134206   5.987   8.214   3.344
11443TIP3    H234207   5.876   8.125   3.400
11444TIP3   OH234208   5.520   7.241   2.660
11444TIP3    H134209   5.423   7.225   2.667
11444TIP3    H234210   5.529   7.336   2.681
11445TIP3   OH234211   5.457   8.245   3.794
11445TIP3    H134212   5.485   8.227   3.885
11445TIP3    H234213   5.422   8.336   3.799
11446TIP3   OH234214   5.588   7.489   2.762
11446TIP3    H134215   5.685   7.495   2.776
11446TIP3    H234216   5.569   7.568   2.707
11447TIP3   OH234217   4.751   7.948   3.473
11447TIP3    H134218   4.787   7.926   3.384
11447TIP3    H234219   4.802   7.887   3.529
11448TIP3   OH234220   5.207   8.080   2.618
11448TIP3    H134221   5.159   8.166   2.624
11448TIP3    H234222   5.152   8.024   2.677
11449TIP3   OH234223   4.629   7.876   4.089
11449TIP3    H134224   4.665   7.868   4.180
11449TIP3    H234225   4.575   7.796   4.082
11450TIP3   OH234226   5.359   7.985   4.106
11450TIP3    H134227   5.303   7.929   4.050
11450TIP3    H234228   5.448   7.953   4.079
11451TIP3   OH234229   5.621   8.506   3.691
11451TIP3    H134230   5.524   8.506   3.701
11451TIP3    H234231   5.648   8.559   3.769
11452TIP3   OH234232   6.031   7.579   2.598
11452TIP3    H134233   5.969   7.533   2.536
11452TIP3    H234234   6.027   7.668   2.556
11453TIP3   OH234235   6.248   8.437   3.679
11453TIP3    H134236   6.151   8.431   3.670
11453TIP3    H234237   6.275   8.407   3.589
11454TIP3   OH234238   5.730   8.398   2.506
11454TIP3    H134239   5.706   8.326   2.566
11454TIP3    H234240   5.743   8.353   2.420
11455TIP3   OH234241   5.726   8.027   3.346
11455TIP3    H134242   5.633   8.001   3.357
11455TIP3    H234243   5.761   7.948   3.300
11456TIP3   OH234244   4.854   8.256   3.101
11456TIP3    H134245   4.858   8.336   3.046
11456TIP3    H234246   4.759   8.238   3.101
11457TIP3   OH234247   4.418   7.557   2.799
11457TIP3    H134248   4.463   7.643   2.815
11457TIP3    H234249   4.339   7.567   2.856
11458TIP3   OH234250   4.993   8.021   3.043
11458TIP3    H134251   4.959   8.111   3.060
11458TIP3    H234252   4.954   7.972   3.118
11459TIP3   OH234253   5.123   8.598   3.567
11459TIP3    H134254   5.162   8.671   3.515
11459TIP3    H234255   5.201   8.565   3.613
11460TIP3   OH234256   4.775   8.493   2.951
11460TIP3    H134257   4.688   8.503   2.995
11460TIP3    H234258   4.807   8.586   2.953
11461TIP3   OH234259   5.512   8.234   3.524
11461TIP3    H134260   5.503   8.230   3.622
11461TIP3    H234261   5.591   8.181   3.509
11462TIP3   OH234262   5.485   8.126   2.407
11462TIP3    H134263   5.538   8.101   2.487
11462TIP3    H234264   5.397   8.098   2.435
11463TIP3   OH234265   5.759   8.769   3.577
11463TIP3    H134266   5.681   8.712   3.566
11463TIP3    H234267   5.746   8.833   3.503
11464TIP3   OH234268   5.825   8.601   2.227
11464TIP3    H134269   5.866   8.673   2.176
11464TIP3    H234270   5.745   8.648   2.259
11465TIP3   OH234271   4.847   7.379   4.094
11465TIP3    H134272   4.751   7.379   4.107
11465TIP3    H234273   4.876   7.318   4.164
11466TIP3   OH234274   5.645   8.062   2.626
11466TIP3    H134275   5.636   7.994   2.695
11466TIP3    H234276   5.742   8.059   2.612
11467TIP3   OH234277   4.560   8.464   3.727
11467TIP3    H134278   4.617   8.391   3.756
11467TIP3    H234279   4.593   8.537   3.781
11468TIP3   OH234280   4.853   8.105   2.408
11468TIP3    H134281   4.863   8.013   2.377
11468TIP3    H234282   4.830   8.091   2.502
11469TIP3   OH234283   4.796   8.114   2.682
11469TIP3    H134284   4.870   8.086   2.737
11469TIP3    H234285   4.802   8.212   2.688
11470TIP3   OH234286   4.535   7.806   2.883
11470TIP3    H134287   4.467   7.852   2.936
11470TIP3    H234288   4.550   7.872   2.812
11471TIP3   OH234289   5.678   7.444   3.777
11471TIP3    H134290   5.762   7.481   3.811
11471TIP3    H234291   5.668   7.362   3.829
11472TIP3   OH234292   5.560   7.194   2.939
11472TIP3    H134293   5.547   7.216   2.845
11472TIP3    H234294   5.601   7.276   2.974
11473TIP3   OH234295   5.064   8.310   2.630
11473TIP3    H134296   4.977   8.338   2.664
11473TIP3    H234297   5.079   8.378   2.563
11474TIP3   OH234298   5.252   7.372   3.042
11474TIP3    H134299   5.317   7.443   3.023
11474TIP3    H234300   5.257   7.366   3.139
11475TIP3   OH234301   5.519   7.690   3.851
11475TIP3    H134302   5.543   7.743   3.929
11475TIP3    H234303   5.576   7.611   3.860
11476TIP3   OH234304   5.396   7.099   3.144
11476TIP3    H134305   5.389   7.177   3.203
11476TIP3    H234306   5.456   7.135   3.075
11477TIP3   OH234307   4.808   8.387   2.696
11477TIP3    H134308   4.777   8.455   2.632
11477TIP3    H234309   4.791   8.431   2.782
11478TIP3   OH234310   4.907   7.097   2.936
11478TIP3    H134311   4.906   7.189   2.968
11478TIP3    H234312   5.004   7.079   2.942
11479TIP3   OH234313   6.161   7.592   3.831
11479TIP3    H134314   6.063   7.589   3.836
11479TIP3    H234315   6.174   7.554   3.743
11480TIP3   OH234316   5.812   7.786   3.220
11480TIP3    H134317   5.737   7.725   3.230
11480TIP3    H234318   5.884   7.739   3.267
11481TIP3   OH234319   4.523   8.018   2.690
11481TIP3    H134320   4.593   8.085   2.694
11481TIP3    H234321   4.566   7.957   2.626
11482TIP3   OH234322   4.467   7.288   2.825
11482TIP3    H134323   4.467   7.386   2.819
11482TIP3    H234324   4.390   7.265   2.772
11483TIP3   OH234325   5.780   8.742   3.169
11483TIP3    H134326   5.737   8.788   3.093
11483TIP3    H234327   5.874   8.760   3.148
11484TIP3   OH234328   4.855   7.009   3.700
11484TIP3    H134329   4.826   6.977   3.612
11484TIP3    H234330   4.845   6.929   3.755
11485TIP3   OH234331   4.397   8.232   3.079
11485TIP3    H134332   4.319   8.263   3.126
11485TIP3    H234333   4.380   8.268   2.990
11486TIP3   OH234334   4.553   8.770   4.148
11486TIP3    H134335   4.639   8.770   4.195
11486TIP3    H234336   4.532   8.675   4.146
11487TIP3   OH234337   5.035   8.735   4.192
11487TIP3    H134338   5.129   8.713   4.199
11487TIP3    H234339   5.009   8.677   4.117
11488TIP3   OH234340   5.015   8.310   2.321
11488TIP3    H134341   4.959   8.238   2.359
11488TIP3    H234342   5.090   8.257   2.287
11489TIP3   OH234343   5.670   8.643   3.927
11489TIP3    H134344   5.663   8.571   3.993
11489TIP3    H234345   5.750   8.691   3.955
11490TIP3   OH234346   5.452   8.352   2.231
11490TIP3    H134347   5.496   8.287   2.289
11490TIP3    H234348   5.508   8.351   2.151
11491TIP3   OH234349   4.680   8.175   4.347
11491TIP3    H134350   4.700   8.080   4.351
11491TIP3    H234351   4.593   8.176   4.303
11492TIP3   OH234352   4.672   7.840   2.555
11492TIP3    H134353   4.732   7.794   2.615
11492TIP3    H234354   4.722   7.836   2.471
11493TIP3   OH234355   5.290   8.260   4.121
11493TIP3    H134356   5.250   8.277   4.033
11493TIP3    H234357   5.322   8.168   4.113
11494TIP3   OH234358   5.172   8.026   2.348
11494TIP3    H134359   5.171   8.039   2.445
11494TIP3    H234360   5.169   7.928   2.343
11495TIP3   OH234361   5.783   8.270   3.727
11495TIP3    H134362   5.858   8.313   3.682
11495TIP3    H234363   5.713   8.336   3.713
11496TIP3   OH234364   4.798   7.906   4.327
11496TIP3    H134365   4.877   7.856   4.304
11496TIP3    H234366   4.824   7.940   4.416
11497TIP3   OH234367   4.874   7.728   2.766
11497TIP3    H134368   4.843   7.683   2.846
11497TIP3    H234369   4.907   7.653   2.712
11498TIP3   OH234370   5.133   7.790   3.987
11498TIP3    H134371   5.060   7.855   3.993
11498TIP3    H234372   5.185   7.826   3.911
11499TIP3   OH234373   4.969   7.523   2.604
11499TIP3    H134374   4.941   7.526   2.510
11499TIP3    H234375   5.066   7.530   2.594
11500TIP3   OH234376   5.653   8.196   4.124
11500TIP3    H134377   5.733   8.174   4.076
11500TIP3    H234378   5.652   8.129   4.195
11501TIP3   OH234379   5.791   7.856   2.266
11501TIP3    H134380   5.769   7.809   2.183
11501TIP3    H234381   5.759   7.946   2.242
11502TIP3   OH234382   5.258   7.582   4.119
11502TIP3    H134383   5.261   7.502   4.063
11502TIP3    H234384   5.216   7.648   4.058
11503TIP3   OH234385   5.262   7.369   3.926
11503TIP3    H134386   5.291   7.410   3.842
11503TIP3    H234387   5.169   7.346   3.905
11504TIP3   OH234388   5.289   7.905   3.800
11504TIP3    H134389   5.373   7.911   3.752
11504TIP3    H234390   5.235   7.973   3.754
11505TIP3   OH234391   5.873   7.873   4.180
11505TIP3    H134392   5.920   7.788   4.187
11505TIP3    H234393   5.942   7.930   4.143
11506TIP3   OH234394   5.913   8.126   3.916
11506TIP3    H134395   5.856   8.180   3.855
11506TIP3    H234396   6.001   8.145   3.875
11507TIP3   OH234397   5.135   7.696   4.347
11507TIP3    H134398   5.068   7.627   4.360
11507TIP3    H234399   5.173   7.670   4.260
11508TIP3   OH234400   5.395   7.134   3.992
11508TIP3    H134401   5.347   7.216   3.968
11508TIP3    H234402   5.326   7.066   3.979
11509TIP3   OH234403   5.520   7.639   4.207
11509TIP3    H134404   5.511   7.626   4.304
11509TIP3    H234405   5.430   7.613   4.179
11510TIP3   OH234406   5.761   7.590   4.063
11510TIP3    H134407   5.685   7.588   4.124
11510TIP3    H234408   5.834   7.557   4.120
11511TIP3   OH234409   5.988   7.527   4.215
11511TIP3    H134410   6.002   7.432   4.232
11511TIP3    H234411   5.985   7.566   4.305
11512TIP3   OH234412   4.975   7.476   4.401
11512TIP3    H134413   4.984   7.386   4.365
11512TIP3    H234414   5.013   7.463   4.490
11513TIP3   OH234415   5.488   7.143   4.250
11513TIP3    H134416   5.557   7.073   4.244
11513TIP3    H234417   5.450   7.137   4.160
11514TIP3   OH234418   5.554   7.357   4.408
11514TIP3    H134419   5.533   7.286   4.343
11514TIP3    H234420   5.476   7.417   4.400
11515TIP3   OH234421   4.776   8.588   2.509
11515TIP3    H134422   4.872   8.584   2.488
11515TIP3    H234423   4.744   8.636   2.430
11516TIP3   OH234424   4.256   7.965   2.734
11516TIP3    H134425   4.349   7.988   2.712
11516TIP3    H234426   4.248   7.878   2.687
11517TIP3   OH234427   4.167   8.581   3.136
11517TIP3    H134428   4.101   8.518   3.100
11517TIP3    H234429   4.213   8.524   3.202
11518TIP3   OH234430   4.304   8.436   3.323
11518TIP3    H134431   4.295   8.359   3.381
11518TIP3    H234432   4.358   8.495   3.379
11519TIP3   OH234433   6.032   8.834   3.124
11519TIP3    H134434   6.062   8.868   3.210
11519TIP3    H234435   6.095   8.874   3.062
11520TIP3   OH234436   6.062   8.854   3.409
11520TIP3    H134437   6.019   8.766   3.402
11520TIP3    H234438   6.140   8.830   3.462
11521TIP3   OH234439   6.109   8.530   3.979
11521TIP3    H134440   6.036   8.538   4.044
11521TIP3    H234441   6.150   8.618   3.984
11522TIP3   OH234442   5.925   8.043   2.599
11522TIP3    H134443   5.993   8.106   2.570
11522TIP3    H234444   5.968   8.003   2.678
11523TIP3   OH234445   6.053   7.910   2.802
11523TIP3    H134446   5.988   7.868   2.862
11523TIP3    H234447   6.119   7.947   2.864
11524TIP3   OH234448   6.106   8.301   3.234
11524TIP3    H134449   6.160   8.237   3.185
11524TIP3    H234450   6.101   8.376   3.172
11525TIP3   OH234451   5.939   8.602   3.431
11525TIP3    H134452   5.867   8.643   3.481
11525TIP3    H234453   5.890   8.553   3.361
11526TIP3   OH234454   5.991   7.817   2.450
11526TIP3    H134455   5.919   7.820   2.383
11526TIP3    H234456   5.964   7.894   2.505
11527TIP3   OH234457   5.861   7.491   2.405
11527TIP3    H134458   5.820   7.530   2.327
11527TIP3    H234459   5.837   7.396   2.394
11528TIP3   OH234460   5.866   7.766   2.949
11528TIP3    H134461   5.875   7.669   2.944
11528TIP3    H234462   5.853   7.781   3.045
11529TIP3   OH234463   4.489   7.849   3.700
11529TIP3    H134464   4.487   7.815   3.607
11529TIP3    H234465   4.587   7.849   3.715
11530TIP3   OH234466   6.155   8.190   3.806
11530TIP3    H134467   6.228   8.125   3.798
11530TIP3    H234468   6.183   8.259   3.744
11531TIP3   OH234469   6.340   7.997   3.826
11531TIP3    H134470   6.266   7.945   3.864
11531TIP3    H234471   6.414   7.933   3.839
11532TIP3   OH234472   5.806   7.224   2.391
11532TIP3    H134473   5.880   7.193   2.445
11532TIP3    H234474   5.732   7.165   2.415
11533TIP3   OH234475   5.863   7.482   2.845
11533TIP3    H134476   5.904   7.394   2.860
11533TIP3    H234477   5.921   7.516   2.774
11534TIP3   OH234478   6.025   7.657   3.339
11534TIP3    H134479   6.111   7.683   3.298
11534TIP3    H234480   6.039   7.694   3.428
11535TIP3   OH234481   6.094   7.801   3.573
11535TIP3    H134482   6.015   7.835   3.620
11535TIP3    H234483   6.126   7.881   3.526
11536TIP3   OH234484   4.708   7.529   4.368
11536TIP3    H134485   4.806   7.524   4.370
11536TIP3    H234486   4.685   7.444   4.411
11537TIP3   OH234487   6.544   7.390   4.128
11537TIP3    H134488   6.603   7.324   4.085
11537TIP3    H234489   6.517   7.446   4.052
11538TIP3   OH234490   5.972   7.232   2.883
11538TIP3    H134491   6.020   7.215   2.966
11538TIP3    H234492   5.912   7.155   2.880
11539TIP3   OH234493   4.674   7.219   3.711
11539TIP3    H134494   4.737   7.145   3.717
11539TIP3    H234495   4.735   7.294   3.698
11540TIP3   OH234496   4.474   7.494   3.773
11540TIP3    H134497   4.520   7.478   3.688
11540TIP3    H234498   4.517   7.575   3.801
11541TIP3   OH234499   6.416   7.531   3.934
11541TIP3    H134500   6.328   7.570   3.952
11541TIP3    H234501   6.390   7.458   3.874
11542TIP3   OH234502   6.053   7.167   2.515
11542TIP3    H134503   6.093   7.095   2.462
11542TIP3    H234504   6.120   7.238   2.508
11543TIP3   OH234505   4.456   7.016   3.298
11543TIP3    H134506   4.361   6.995   3.298
11543TIP3    H234507   4.467   7.053   3.208
11544TIP3   OH234508   5.617   8.699   2.782
11544TIP3    H134509   5.667   8.683   2.700
11544TIP3    H234510   5.673   8.766   2.826
11545TIP3   OH234511   4.679   7.082   4.092
11545TIP3    H134512   4.629   7.070   4.174
11545TIP3    H234513   4.612   7.120   4.033
11546TIP3   OH234514   4.721   8.499   4.167
11546TIP3    H134515   4.627   8.479   4.151
11546TIP3    H234516   4.728   8.488   4.263
11547TIP3   OH234517   4.896   8.536   3.715
11547TIP3    H134518   4.848   8.612   3.675
11547TIP3    H234519   4.982   8.548   3.670
11548TIP3   OH234520   5.342   8.780   3.853
11548TIP3    H134521   5.385   8.781   3.941
11548TIP3    H234522   5.408   8.830   3.800
11549TIP3   OH234523   5.520   8.931   3.711
11549TIP3    H134524   5.590   8.880   3.667
11549TIP3    H234525   5.573   8.988   3.771
11550TIP3   OH234526   6.315   7.294   3.811
11550TIP3    H134527   6.224   7.287   3.777
11550TIP3    H234528   6.346   7.201   3.798
11551TIP3   OH234529   4.573   8.789   3.740
11551TIP3    H134530   4.483   8.821   3.714
11551TIP3    H234531   4.583   8.834   3.825
11552TIP3   OH234532   4.808   8.770   3.596
11552TIP3    H134533   4.722   8.783   3.640
11552TIP3    H234534   4.790   8.804   3.506
11553TIP3   OH234535   5.234   8.799   3.395
11553TIP3    H134536   5.167   8.819   3.327
11553TIP3    H234537   5.247   8.888   3.435
11554TIP3   OH234538   5.503   8.740   3.447
11554TIP3    H134539   5.409   8.756   3.426
11554TIP3    H234540   5.546   8.814   3.400
11555TIP3   OH234541   5.712   8.932   3.360
11555TIP3    H134542   5.697   9.016   3.312
11555TIP3    H234543   5.737   8.872   3.287
11556TIP3   OH234544   4.482   8.584   3.482
11556TIP3    H134545   4.509   8.561   3.573
11556TIP3    H234546   4.557   8.543   3.432
11557TIP3   OH234547   4.677   8.457   3.341
11557TIP3    H134548   4.696   8.373   3.387
11557TIP3    H234549   4.768   8.496   3.335
11558TIP3   OH234550   4.942   8.553   3.343
11558TIP3    H134551   4.975   8.463   3.327
11558TIP3    H234552   4.988   8.574   3.426
11559TIP3   OH234553   5.519   7.209   3.430
11559TIP3    H134554   5.477   7.138   3.481
11559TIP3    H234555   5.592   7.162   3.384
11560TIP3   OH234556   6.043   7.091   3.337
11560TIP3    H134557   6.080   7.141   3.261
11560TIP3    H234558   5.947   7.108   3.328
11561TIP3   OH234559   6.138   7.188   3.100
11561TIP3    H134560   6.211   7.137   3.059
11561TIP3    H234561   6.172   7.280   3.085
11562TIP3   OH234562   4.768   6.919   3.453
11562TIP3    H134563   4.686   6.901   3.404
11562TIP3    H234564   4.816   6.834   3.446
11563TIP3   OH234565   4.604   6.798   3.086
11563TIP3    H134566   4.595   6.860   3.013
11563TIP3    H234567   4.520   6.806   3.134
11564TIP3   OH234568   5.212   6.950   3.328
11564TIP3    H134569   5.269   6.998   3.266
11564TIP3    H234570   5.240   6.987   3.413
11565TIP3   OH234571   5.758   7.097   3.311
11565TIP3    H134572   5.758   7.060   3.222
11565TIP3    H234573   5.746   7.015   3.366
11566TIP3   OH234574   5.790   7.019   2.873
11566TIP3    H134575   5.702   7.061   2.883
11566TIP3    H234576   5.774   6.933   2.919
11567TIP3   OH234577   4.270   8.359   2.878
11567TIP3    H134578   4.187   8.325   2.840
11567TIP3    H234579   4.261   8.453   2.854
11568TIP3   OH234580   4.670   6.956   2.848
11568TIP3    H134581   4.718   6.886   2.799
11568TIP3    H234582   4.744   7.003   2.892
11569TIP3   OH234583   5.184   7.122   2.956
11569TIP3    H134584   5.245   7.075   3.015
11569TIP3    H234585   5.206   7.214   2.981
11570TIP3   OH234586   5.044   8.547   2.456
11570TIP3    H134587   5.132   8.569   2.419
11570TIP3    H234588   5.021   8.472   2.397
11571TIP3   OH234589   5.762   8.664   2.549
11571TIP3    H134590   5.754   8.567   2.535
11571TIP3    H234591   5.719   8.698   2.468
11572TIP3   OH234592   4.976   7.198   4.338
11572TIP3    H134593   4.944   7.127   4.396
11572TIP3    H234594   5.071   7.200   4.363
11573TIP3   OH234595   5.225   7.196   4.456
11573TIP3    H134596   5.310   7.172   4.416
11573TIP3    H234597   5.214   7.125   4.522
11574TIP3   OH234598   4.350   8.387   2.513
11574TIP3    H134599   4.352   8.410   2.607
11574TIP3    H234600   4.437   8.343   2.501
11575TIP3   OH234601   6.050   7.257   4.245
11575TIP3    H134602   6.070   7.226   4.335
11575TIP3    H234603   6.138   7.253   4.202
11576TIP3   OH234604   5.988   8.809   3.739
11576TIP3    H134605   5.910   8.777   3.688
11576TIP3    H234606   5.969   8.905   3.740
11577TIP3   OH234607   7.254   8.181   2.505
11577TIP3    H134608   7.226   8.272   2.483
11577TIP3    H234609   7.178   8.131   2.469
11578TIP3   OH234610   7.213   8.177   2.905
11578TIP3    H134611   7.300   8.155   2.942
11578TIP3    H234612   7.205   8.112   2.834
11579TIP3   OH234613   6.553   8.078   3.252
11579TIP3    H134614   6.585   8.011   3.315
11579TIP3    H234615   6.634   8.128   3.235
11580TIP3   OH234616   7.496   8.487   2.561
11580TIP3    H134617   7.489   8.411   2.620
11580TIP3    H234618   7.528   8.556   2.621
11581TIP3   OH234619   6.526   8.486   2.976
11581TIP3    H134620   6.517   8.388   2.977
11581TIP3    H234621   6.623   8.494   2.967
11582TIP3   OH234622   6.231   7.689   2.760
11582TIP3    H134623   6.183   7.773   2.773
11582TIP3    H234624   6.161   7.636   2.719
11583TIP3   OH234625   6.291   7.976   2.930
11583TIP3    H134626   6.341   7.900   2.968
11583TIP3    H234627   6.352   8.008   2.862
11584TIP3   OH234628   7.148   8.946   2.582
11584TIP3    H134629   7.193   8.875   2.531
11584TIP3    H234630   7.143   8.906   2.669
11585TIP3   OH234631   7.052   8.408   2.936
11585TIP3    H134632   7.090   8.321   2.909
11585TIP3    H234633   7.137   8.455   2.951
11586TIP3   OH234634   8.068   7.725   2.932
11586TIP3    H134635   8.094   7.810   2.973
11586TIP3    H234636   8.083   7.745   2.838
11587TIP3   OH234637   7.432   7.894   2.971
11587TIP3    H134638   7.497   7.825   2.990
11587TIP3    H234639   7.422   7.886   2.874
11588TIP3   OH234640   6.801   7.568   2.931
11588TIP3    H134641   6.784   7.641   2.869
11588TIP3    H234642   6.753   7.495   2.885
11589TIP3   OH234643   7.498   7.657   2.554
11589TIP3    H134644   7.571   7.645   2.619
11589TIP3    H234645   7.547   7.697   2.480
11590TIP3   OH234646   6.437   7.770   3.038
11590TIP3    H134647   6.520   7.750   3.084
11590TIP3    H234648   6.449   7.715   2.957
11591TIP3   OH234649   6.878   7.967   2.832
11591TIP3    H134650   6.972   7.939   2.845
11591TIP3    H234651   6.839   7.883   2.799
11592TIP3   OH234652   8.139   7.933   3.103
11592TIP3    H134653   8.055   7.981   3.084
11592TIP3    H234654   8.156   7.962   3.194
11593TIP3   OH234655   6.799   7.550   3.364
11593TIP3    H134656   6.741   7.588   3.295
11593TIP3    H234657   6.747   7.571   3.445
11594TIP3   OH234658   7.146   8.401   2.373
11594TIP3    H134659   7.106   8.382   2.288
11594TIP3    H234660   7.102   8.486   2.397
11595TIP3   OH234661   6.906   8.326   3.159
11595TIP3    H134662   6.844   8.394   3.195
11595TIP3    H234663   6.951   8.376   3.087
11596TIP3   OH234664   7.706   7.660   2.730
11596TIP3    H134665   7.694   7.623   2.818
11596TIP3    H234666   7.758   7.740   2.748
11597TIP3   OH234667   6.670   7.666   3.149
11597TIP3    H134668   6.732   7.740   3.171
11597TIP3    H234669   6.719   7.625   3.074
11598TIP3   OH234670   6.735   8.521   3.258
11598TIP3    H134671   6.709   8.606   3.217
11598TIP3    H234672   6.656   8.506   3.314
11599TIP3   OH234673   6.129   8.210   2.494
11599TIP3    H134674   6.089   8.236   2.408
11599TIP3    H234675   6.159   8.297   2.529
11600TIP3   OH234676   7.567   8.727   2.736
11600TIP3    H134677   7.477   8.714   2.775
11600TIP3    H234678   7.554   8.812   2.690
11601TIP3   OH234679   7.859   7.623   3.094
11601TIP3    H134680   7.772   7.653   3.064
11601TIP3    H234681   7.918   7.659   3.024
11602TIP3   OH234682   7.158   7.269   3.080
11602TIP3    H134683   7.141   7.175   3.097
11602TIP3    H234684   7.080   7.309   3.124
11603TIP3   OH234685   7.268   8.774   2.405
11603TIP3    H134686   7.319   8.692   2.385
11603TIP3    H234687   7.328   8.840   2.365
11604TIP3   OH234688   7.410   8.559   2.311
11604TIP3    H134689   7.378   8.477   2.272
11604TIP3    H234690   7.447   8.527   2.396
11605TIP3   OH234691   7.799   8.632   3.065
11605TIP3    H134692   7.782   8.560   3.001
11605TIP3    H234693   7.779   8.711   3.010
11606TIP3   OH234694   7.085   8.033   2.332
11606TIP3    H134695   7.005   8.085   2.309
11606TIP3    H234696   7.133   8.031   2.248
11607TIP3   OH234697   7.045   7.818   2.050
11607TIP3    H134698   7.113   7.867   2.100
11607TIP3    H234699   7.102   7.754   2.002
11608TIP3   OH234700   7.986   8.283   2.922
11608TIP3    H134701   7.889   8.299   2.925
11608TIP3    H234702   8.007   8.307   2.830
11609TIP3   OH234703   7.431   8.116   2.306
11609TIP3    H134704   7.380   8.140   2.386
11609TIP3    H234705   7.516   8.088   2.347
11610TIP3   OH234706   6.666   8.113   2.723
11610TIP3    H134707   6.626   8.055   2.655
11610TIP3    H234708   6.744   8.060   2.752
11611TIP3   OH234709   6.794   8.523   2.872
11611TIP3    H134710   6.776   8.482   2.786
11611TIP3    H234711   6.885   8.490   2.890
11612TIP3   OH234712   6.798   8.087   3.075
11612TIP3    H134713   6.835   8.062   2.988
11612TIP3    H234714   6.845   8.170   3.096
11613TIP3   OH234715   7.323   8.722   2.855
11613TIP3    H134716   7.316   8.798   2.914
11613TIP3    H234717   7.317   8.645   2.916
11614TIP3   OH234718   6.939   8.642   3.402
11614TIP3    H134719   6.878   8.705   3.446
11614TIP3    H234720   6.875   8.588   3.351
11615TIP3   OH234721   7.274   7.974   2.132
11615TIP3    H134722   7.334   8.032   2.184
11615TIP3    H234723   7.300   7.999   2.040
11616TIP3   OH234724   6.695   8.198   3.504
11616TIP3    H134725   6.698   8.286   3.547
11616TIP3    H234726   6.599   8.179   3.507
11617TIP3   OH234727   7.016   8.654   2.408
11617TIP3    H134728   7.097   8.706   2.423
11617TIP3    H234729   6.957   8.719   2.368
11618TIP3   OH234730   6.734   8.812   3.487
11618TIP3    H134731   6.701   8.809   3.395
11618TIP3    H234732   6.653   8.790   3.539
11619TIP3   OH234733   7.819   7.245   2.238
11619TIP3    H134734   7.723   7.240   2.252
11619TIP3    H234735   7.827   7.237   2.141
11620TIP3   OH234736   6.532   7.956   2.528
11620TIP3    H134737   6.467   8.001   2.470
11620TIP3    H234738   6.491   7.870   2.538
11621TIP3   OH234739   7.588   8.580   1.727
11621TIP3    H134740   7.589   8.676   1.706
11621TIP3    H234741   7.681   8.554   1.708
11622TIP3   OH234742   6.313   8.341   3.434
11622TIP3    H134743   6.249   8.317   3.363
11622TIP3    H234744   6.350   8.254   3.459
11623TIP3   OH234745   6.168   8.531   3.070
11623TIP3    H134746   6.263   8.524   3.056
11623TIP3    H234747   6.161   8.612   3.122
11624TIP3   OH234748   8.025   8.985   3.120
11624TIP3    H134749   8.029   8.888   3.126
11624TIP3    H234750   7.938   9.003   3.163
11625TIP3   OH234751   7.138   8.770   3.260
11625TIP3    H134752   7.136   8.863   3.290
11625TIP3    H234753   7.066   8.731   3.313
11626TIP3   OH234754   6.897   8.899   2.210
11626TIP3    H134755   6.853   8.880   2.125
11626TIP3    H234756   6.865   8.988   2.232
11627TIP3   OH234757   6.335   8.748   2.593
11627TIP3    H134758   6.384   8.739   2.678
11627TIP3    H234759   6.280   8.668   2.595
11628TIP3   OH234760   7.101   8.800   1.850
11628TIP3    H134761   7.158   8.730   1.813
11628TIP3    H234762   7.135   8.808   1.942
11629TIP3   OH234763   7.150   8.846   2.121
11629TIP3    H134764   7.061   8.856   2.163
11629TIP3    H234765   7.201   8.805   2.192
11630TIP3   OH234766   7.925   8.118   3.399
11630TIP3    H134767   7.852   8.136   3.337
11630TIP3    H234768   7.936   8.021   3.388
11631TIP3   OH234769   6.518   8.524   3.424
11631TIP3    H134770   6.569   8.505   3.506
11631TIP3    H234771   6.444   8.460   3.431
11632TIP3   OH234772   6.918   7.345   3.206
11632TIP3    H134773   6.827   7.316   3.182
11632TIP3    H234774   6.896   7.430   3.249
11633TIP3   OH234775   7.451   7.459   3.400
11633TIP3    H134776   7.519   7.435   3.466
11633TIP3    H234777   7.367   7.441   3.447
11634TIP3   OH234778   7.694   7.899   3.319
11634TIP3    H134779   7.644   7.893   3.404
11634TIP3    H234780   7.642   7.963   3.268
11635TIP3   OH234781   7.348   8.021   1.875
11635TIP3    H134782   7.318   7.994   1.786
11635TIP3    H234783   7.431   8.068   1.852
11636TIP3   OH234784   7.060   7.397   2.177
11636TIP3    H134785   7.030   7.394   2.269
11636TIP3    H234786   7.024   7.312   2.145
11637TIP3   OH234787   6.845   7.862   3.223
11637TIP3    H134788   6.799   7.885   3.306
11637TIP3    H234789   6.831   7.944   3.170
11638TIP3   OH234790   6.733   7.747   2.739
11638TIP3    H134791   6.640   7.721   2.756
11638TIP3    H234792   6.747   7.707   2.650
11639TIP3   OH234793   7.221   7.832   2.463
11639TIP3    H134794   7.169   7.904   2.421
11639TIP3    H234795   7.278   7.803   2.388
11640TIP3   OH234796   7.399   8.119   3.559
11640TIP3    H134797   7.375   8.041   3.613
11640TIP3    H234798   7.495   8.124   3.574
11641TIP3   OH234799   7.368   7.861   2.706
11641TIP3    H134800   7.316   7.891   2.629
11641TIP3    H234801   7.411   7.783   2.666
11642TIP3   OH234802   6.666   7.893   3.436
11642TIP3    H134803   6.703   7.954   3.501
11642TIP3    H234804   6.657   7.810   3.487
11643TIP3   OH234805   6.718   7.367   2.144
11643TIP3    H134806   6.709   7.366   2.242
11643TIP3    H234807   6.639   7.420   2.120
11644TIP3   OH234808   6.261   7.413   3.016
11644TIP3    H134809   6.337   7.445   3.069
11644TIP3    H234810   6.301   7.382   2.934
11645TIP3   OH234811   6.234   7.394   2.534
11645TIP3    H134812   6.278   7.433   2.456
11645TIP3    H234813   6.173   7.467   2.556
11646TIP3   OH234814   7.058   7.559   2.800
11646TIP3    H134815   6.977   7.565   2.855
11646TIP3    H234816   7.126   7.587   2.864
11647TIP3   OH234817   6.494   7.626   2.810
11647TIP3    H134818   6.399   7.632   2.782
11647TIP3    H234819   6.519   7.535   2.785
11648TIP3   OH234820   6.765   7.621   2.497
11648TIP3    H134821   6.859   7.638   2.477
11648TIP3    H234822   6.719   7.646   2.413
11649TIP3   OH234823   7.560   7.638   3.005
11649TIP3    H134824   7.522   7.657   3.094
11649TIP3    H234825   7.487   7.587   2.966
11650TIP3   OH234826   6.605   7.656   2.275
11650TIP3    H134827   6.534   7.611   2.226
11650TIP3    H234828   6.658   7.692   2.201
11651TIP3   OH234829   7.716   9.331   3.221
11651TIP3    H134830   7.715   9.349   3.125
11651TIP3    H234831   7.790   9.386   3.251
11652TIP3   OH234832   6.678   8.445   3.644
11652TIP3    H134833   6.758   8.476   3.690
11652TIP3    H234834   6.614   8.445   3.718
11653TIP3   OH234835   7.137   7.872   2.888
11653TIP3    H134836   7.220   7.862   2.838
11653TIP3    H234837   7.168   7.859   2.979
11654TIP3   OH234838   6.666   7.386   2.776
11654TIP3    H134839   6.633   7.305   2.821
11654TIP3    H234840   6.716   7.350   2.701
11655TIP3   OH234841   7.115   7.781   3.199
11655TIP3    H134842   7.029   7.828   3.202
11655TIP3    H234843   7.175   7.843   3.247
11656TIP3   OH234844   6.856   8.187   2.281
11656TIP3    H134845   6.783   8.121   2.271
11656TIP3    H234846   6.839   8.220   2.372
11657TIP3   OH234847   7.315   7.497   2.146
11657TIP3    H134848   7.218   7.484   2.153
11657TIP3    H234849   7.328   7.592   2.168
11658TIP3   OH234850   7.253   8.504   3.277
11658TIP3    H134851   7.280   8.482   3.367
11658TIP3    H234852   7.216   8.593   3.286
11659TIP3   OH234853   7.384   7.744   2.247
11659TIP3    H134854   7.481   7.750   2.264
11659TIP3    H234855   7.368   7.824   2.193
11660TIP3   OH234856   6.547   8.206   2.958
11660TIP3    H134857   6.586   8.181   2.872
11660TIP3    H234858   6.595   8.146   3.018
11661TIP3   OH234859   7.002   8.335   2.102
11661TIP3    H134860   6.955   8.422   2.110
11661TIP3    H234861   6.948   8.280   2.163
11662TIP3   OH234862   6.426   8.131   3.573
11662TIP3    H134863   6.451   8.115   3.667
11662TIP3    H234864   6.361   8.061   3.557
11663TIP3   OH234865   7.154   8.242   3.594
11663TIP3    H134866   7.098   8.188   3.536
11663TIP3    H234867   7.243   8.209   3.568
11664TIP3   OH234868   7.411   8.781   3.166
11664TIP3    H134869   7.317   8.768   3.183
11664TIP3    H234870   7.440   8.822   3.250
11665TIP3   OH234871   7.829   7.834   2.084
11665TIP3    H134872   7.766   7.789   2.024
11665TIP3    H234873   7.825   7.923   2.042
11666TIP3   OH234874   8.045   8.700   3.162
11666TIP3    H134875   7.948   8.686   3.154
11666TIP3    H234876   8.073   8.664   3.075
11667TIP3   OH234877   7.522   8.652   1.990
11667TIP3    H134878   7.503   8.581   2.054
11667TIP3    H234879   7.538   8.604   1.907
11668TIP3   OH234880   6.650   8.512   2.586
11668TIP3    H134881   6.653   8.593   2.531
11668TIP3    H234882   6.555   8.496   2.590
11669TIP3   OH234883   6.213   7.816   2.287
11669TIP3    H134884   6.260   7.900   2.307
11669TIP3    H234885   6.136   7.823   2.347
11670TIP3   OH234886   6.787   8.277   2.527
11670TIP3    H134887   6.754   8.367   2.546
11670TIP3    H234888   6.753   8.228   2.604
11671TIP3   OH234889   6.919   8.855   3.053
11671TIP3    H134890   6.959   8.928   3.001
11671TIP3    H234891   6.997   8.820   3.098
11672TIP3   OH234892   6.570   8.751   2.436
11672TIP3    H134893   6.484   8.759   2.482
11672TIP3    H234894   6.602   8.843   2.439
11673TIP3   OH234895   7.320   8.488   3.011
11673TIP3    H134896   7.304   8.483   3.108
11673TIP3    H234897   7.395   8.427   3.002
11674TIP3   OH234898   7.282   8.381   1.895
11674TIP3    H134899   7.336   8.357   1.974
11674TIP3    H234900   7.194   8.355   1.925
11675TIP3   OH234901   7.557   9.027   3.066
11675TIP3    H134902   7.481   8.966   3.060
11675TIP3    H234903   7.539   9.088   2.991
11676TIP3   OH234904   7.603   8.854   1.701
11676TIP3    H134905   7.647   8.921   1.647
11676TIP3    H234906   7.529   8.906   1.739
11677TIP3   OH234907   6.642   7.635   3.581
11677TIP3    H134908   6.545   7.638   3.593
11677TIP3    H234909   6.669   7.574   3.651
11678TIP3   OH234910   7.442   8.317   2.112
11678TIP3    H134911   7.432   8.250   2.182
11678TIP3    H234912   7.539   8.315   2.099
11679TIP3   OH234913   6.356   8.719   3.214
11679TIP3    H134914   6.409   8.643   3.241
11679TIP3    H234915   6.391   8.788   3.272
11680TIP3   OH234916   6.648   8.364   1.894
11680TIP3    H134917   6.662   8.272   1.864
11680TIP3    H234918   6.629   8.350   1.989
11681TIP3   OH234919   6.593   8.367   2.167
11681TIP3    H134920   6.667   8.341   2.224
11681TIP3    H234921   6.597   8.465   2.174
11682TIP3   OH234922   6.329   8.061   2.369
11682TIP3    H134923   6.263   8.106   2.426
11682TIP3    H234924   6.345   8.130   2.302
11683TIP3   OH234925   7.481   7.699   3.262
11683TIP3    H134926   7.560   7.732   3.306
11683TIP3    H234927   7.461   7.618   3.313
11684TIP3   OH234928   7.356   7.451   2.427
11684TIP3    H134929   7.344   7.474   2.332
11684TIP3    H234930   7.399   7.532   2.462
11685TIP3   OH234931   6.858   8.565   2.115
11685TIP3    H134932   6.772   8.594   2.150
11685TIP3    H234933   6.876   8.635   2.051
11686TIP3   OH234934   7.047   7.628   2.528
11686TIP3    H134935   7.112   7.699   2.509
11686TIP3    H234936   7.053   7.622   2.626
11687TIP3   OH234937   7.290   7.929   3.353
11687TIP3    H134938   7.330   8.001   3.404
11687TIP3    H234939   7.365   7.871   3.334
11688TIP3   OH234940   7.193   7.356   2.633
11688TIP3    H134941   7.179   7.433   2.691
11688TIP3    H234942   7.252   7.396   2.564
11689TIP3   OH234943   6.601   8.641   2.182
11689TIP3    H134944   6.573   8.711   2.119
11689TIP3    H234945   6.586   8.685   2.268
11690TIP3   OH234946   6.704   7.353   2.421
11690TIP3    H134947   6.701   7.445   2.456
11690TIP3    H234948   6.800   7.336   2.429
11691TIP3   OH234949   7.959   7.848   3.320
11691TIP3    H134950   7.860   7.852   3.324
11691TIP3    H234951   7.970   7.817   3.229
11692TIP3   OH234952   7.616   8.023   2.682
11692TIP3    H134953   7.531   8.003   2.726
11692TIP3    H234954   7.680   8.003   2.753
11693TIP3   OH234955   6.320   8.272   2.175
11693TIP3    H134956   6.387   8.342   2.184
11693TIP3    H234957   6.365   8.216   2.108
11694TIP3   OH234958   6.265   7.546   2.309
11694TIP3    H134959   6.265   7.643   2.304
11694TIP3    H234960   6.182   7.524   2.264
11695TIP3   OH234961   7.549   8.993   2.655
11695TIP3    H134962   7.509   9.042   2.581
11695TIP3    H234963   7.644   9.012   2.636
11696TIP3   OH234964   6.652   7.266   3.182
11696TIP3    H134965   6.621   7.234   3.095
11696TIP3    H234966   6.641   7.187   3.239
11697TIP3   OH234967   6.193   8.487   2.564
11697TIP3    H134968   6.119   8.517   2.618
11697TIP3    H234969   6.170   8.526   2.477
11698TIP3   OH234970   6.348   9.026   3.635
11698TIP3    H134971   6.435   9.025   3.681
11698TIP3    H234972   6.328   8.931   3.632
11699TIP3   OH234973   6.830   8.990   3.679
11699TIP3    H134974   6.925   8.971   3.684
11699TIP3    H234975   6.804   8.933   3.604
11700TIP3   OH234976   6.812   8.568   1.808
11700TIP3    H134977   6.756   8.496   1.846
11700TIP3    H234978   6.887   8.515   1.773
11701TIP3   OH234979   7.463   8.901   3.414
11701TIP3    H134980   7.457   8.826   3.478
11701TIP3    H234981   7.543   8.947   3.442
11702TIP3   OH234982   7.247   8.608   1.719
11702TIP3    H134983   7.293   8.545   1.777
11702TIP3    H234984   7.302   8.607   1.638
11703TIP3   OH234985   6.478   8.433   3.835
11703TIP3    H134986   6.496   8.337   3.837
11703TIP3    H234987   6.391   8.435   3.790
11704TIP3   OH234988   6.456   8.084   2.028
11704TIP3    H134989   6.512   8.051   2.100
11704TIP3    H234990   6.522   8.088   1.956
11705TIP3   OH234991   7.086   8.517   3.608
11705TIP3    H134992   7.046   8.533   3.520
11705TIP3    H234993   7.117   8.424   3.600
11706TIP3   OH234994   6.964   8.281   1.834
11706TIP3    H134995   6.968   8.295   1.930
11706TIP3    H234996   6.964   8.183   1.830
11707TIP3   OH234997   7.582   8.548   3.244
11707TIP3    H134998   7.653   8.562   3.179
11707TIP3    H234999   7.508   8.592   3.201
11708TIP3   OH235000   6.596   8.167   3.816
11708TIP3    H135001   6.672   8.113   3.791
11708TIP3    H235002   6.623   8.198   3.905
11709TIP3   OH235003   6.663   7.987   2.249
11709TIP3    H135004   6.639   7.945   2.333
11709TIP3    H235005   6.700   7.912   2.198
11710TIP3   OH235006   6.929   8.048   3.477
11710TIP3    H135007   6.855   8.113   3.479
11710TIP3    H235008   6.982   8.083   3.401
11711TIP3   OH235009   6.765   7.780   2.091
11711TIP3    H135010   6.738   7.783   1.997
11711TIP3    H235011   6.863   7.787   2.082
11712TIP3   OH235012   7.456   8.456   3.612
11712TIP3    H135013   7.523   8.426   3.549
11712TIP3    H235014   7.450   8.382   3.674
11713TIP3   OH235015   7.585   8.112   1.753
11713TIP3    H135016   7.565   8.064   1.670
11713TIP3    H235017   7.553   8.202   1.728
11714TIP3   OH235018   7.054   7.839   3.607
11714TIP3    H135019   7.060   7.760   3.549
11714TIP3    H235020   7.016   7.905   3.545
11715TIP3   OH235021   7.058   7.621   3.416
11715TIP3    H135022   7.088   7.667   3.334
11715TIP3    H235023   6.965   7.601   3.394
11716TIP3   OH235024   7.084   8.165   3.292
11716TIP3    H135025   7.161   8.153   3.235
11716TIP3    H235026   7.032   8.231   3.241
11717TIP3   OH235027   7.674   8.131   3.670
11717TIP3    H135028   7.718   8.044   3.672
11717TIP3    H235029   7.737   8.184   3.619
11718TIP3   OH235030   7.710   8.386   3.423
11718TIP3    H135031   7.650   8.425   3.355
11718TIP3    H235032   7.793   8.393   3.372
11719TIP3   OH235033   6.934   7.952   3.835
11719TIP3    H135034   6.865   7.884   3.847
11719TIP3    H235035   6.969   7.928   3.747
11720TIP3   OH235036   7.192   7.389   3.478
11720TIP3    H135037   7.144   7.472   3.456
11720TIP3    H235038   7.121   7.322   3.466
11721TIP3   OH235039   7.318   7.896   3.694
11721TIP3    H135040   7.302   7.882   3.789
11721TIP3    H235041   7.230   7.871   3.658
11722TIP3   OH235042   7.560   7.849   3.549
11722TIP3    H135043   7.481   7.847   3.606
11722TIP3    H235044   7.630   7.815   3.608
11723TIP3   OH235045   7.786   7.784   3.703
11723TIP3    H135046   7.799   7.689   3.720
11723TIP3    H235047   7.783   7.822   3.793
11724TIP3   OH235048   6.772   7.732   3.888
11724TIP3    H135049   6.781   7.643   3.850
11724TIP3    H235050   6.809   7.718   3.977
11725TIP3   OH235051   7.285   7.399   3.736
11725TIP3    H135052   7.353   7.330   3.730
11725TIP3    H235053   7.246   7.394   3.647
11726TIP3   OH235054   7.350   7.614   3.895
11726TIP3    H135055   7.329   7.543   3.830
11726TIP3    H235056   7.274   7.674   3.887
11727TIP3   OH235057   6.572   8.843   1.994
11727TIP3    H135058   6.668   8.840   1.975
11727TIP3    H235059   6.541   8.892   1.915
11728TIP3   OH235060   6.052   8.224   2.212
11728TIP3    H135061   6.147   8.247   2.198
11728TIP3    H235062   6.047   8.136   2.170
11729TIP3   OH235063   5.964   8.837   2.625
11729TIP3    H135064   5.898   8.774   2.589
11729TIP3    H235065   6.010   8.780   2.690
11730TIP3   OH235066   6.101   8.690   2.811
11730TIP3    H135067   6.091   8.615   2.872
11730TIP3    H235068   6.154   8.750   2.867
11731TIP3   OH235069   7.792   9.092   2.606
11731TIP3    H135070   7.838   9.115   2.689
11731TIP3    H235071   7.846   9.141   2.543
11732TIP3   OH235072   7.862   9.107   2.889
11732TIP3    H135073   7.815   9.021   2.888
11732TIP3    H235074   7.945   9.080   2.932
11733TIP3   OH235075   7.913   8.791   3.471
11733TIP3    H135076   7.831   8.790   3.523
11733TIP3    H235077   7.942   8.884   3.479
11734TIP3   OH235078   7.721   8.300   2.087
11734TIP3    H135079   7.792   8.361   2.058
11734TIP3    H235080   7.763   8.259   2.166
11735TIP3   OH235081   7.851   8.169   2.287
11735TIP3    H135082   7.785   8.123   2.344
11735TIP3    H235083   7.913   8.206   2.353
11736TIP3   OH235084   7.916   8.567   2.733
11736TIP3    H135085   7.953   8.493   2.681
11736TIP3    H235086   7.887   8.628   2.664
11737TIP3   OH235087   7.734   8.859   2.917
11737TIP3    H135088   7.661   8.899   2.967
11737TIP3    H235089   7.686   8.809   2.847
11738TIP3   OH235090   7.787   8.074   1.937
11738TIP3    H135091   7.714   8.077   1.870
11738TIP3    H235092   7.761   8.151   1.992
11739TIP3   OH235093   7.655   7.750   1.893
11739TIP3    H135094   7.617   7.783   1.811
11739TIP3    H235095   7.632   7.654   1.887
11740TIP3   OH235096   7.665   8.019   2.421
11740TIP3    H135097   7.671   7.922   2.414
11740TIP3    H235098   7.652   8.030   2.518
11741TIP3   OH235099   6.289   8.096   3.183
11741TIP3    H135100   6.288   8.065   3.090
11741TIP3    H235101   6.387   8.099   3.200
11742TIP3   OH235102   7.956   8.448   3.301
11742TIP3    H135103   8.024   8.380   3.286
11742TIP3    H235104   7.966   8.505   3.223
11743TIP3   OH235105   8.141   8.254   3.313
11743TIP3    H135106   8.065   8.203   3.350
11743TIP3    H235107   8.212   8.188   3.326
11744TIP3   OH235108   7.600   7.485   1.884
11744TIP3    H135109   7.683   7.451   1.925
11744TIP3    H235110   7.535   7.417   1.907
11745TIP3   OH235111   7.655   7.744   2.328
11745TIP3    H135112   7.694   7.655   2.349
11745TIP3    H235113   7.716   7.773   2.258
11746TIP3   OH235114   7.824   7.908   2.835
11746TIP3    H135115   7.908   7.937   2.793
11746TIP3    H235116   7.831   7.955   2.920
11747TIP3   OH235117   7.898   8.061   3.065
11747TIP3    H135118   7.807   8.098   3.073
11747TIP3    H235119   7.937   8.138   3.019
11748TIP3   OH235120   6.505   7.783   3.858
11748TIP3    H135121   6.603   7.777   3.858
11748TIP3    H235122   6.482   7.698   3.899
11749TIP3   OH235123   8.338   7.646   3.615
11749TIP3    H135124   8.399   7.581   3.573
11749TIP3    H235125   8.314   7.703   3.539
11750TIP3   OH235126   7.760   7.501   2.379
11750TIP3    H135127   7.812   7.480   2.460
11750TIP3    H235128   7.728   7.412   2.354
11751TIP3   OH235129   6.468   7.475   3.191
11751TIP3    H135130   6.531   7.401   3.200
11751TIP3    H235131   6.530   7.550   3.183
11752TIP3   OH235132   6.271   7.749   3.262
11752TIP3    H135133   6.320   7.741   3.177
11752TIP3    H235134   6.302   7.836   3.292
11753TIP3   OH235135   8.212   7.789   3.420
11753TIP3    H135136   8.122   7.826   3.432
11753TIP3    H235137   8.190   7.714   3.361
11754TIP3   OH235138   7.851   7.415   1.979
11754TIP3    H135139   7.893   7.334   1.945
11754TIP3    H235140   7.923   7.481   1.976
11755TIP3   OH235141   6.254   7.253   2.764
11755TIP3    H135142   6.160   7.250   2.788
11755TIP3    H235143   6.253   7.310   2.684
11756TIP3   OH235144   7.413   8.958   2.270
11756TIP3    H135145   7.461   8.938   2.186
11756TIP3    H235146   7.475   9.018   2.313
11757TIP3   OH235147   6.474   7.333   3.578
11757TIP3    H135148   6.423   7.327   3.660
11757TIP3    H235149   6.408   7.371   3.517
11758TIP3   OH235150   6.514   8.761   3.654
11758TIP3    H135151   6.423   8.732   3.636
11758TIP3    H235152   6.523   8.740   3.748
11759TIP3   OH235153   6.692   8.793   3.203
11759TIP3    H135154   6.645   8.869   3.163
11759TIP3    H235155   6.778   8.805   3.157
11760TIP3   OH235156   7.137   9.037   3.341
11760TIP3    H135157   7.181   9.038   3.429
11760TIP3    H235158   7.202   9.086   3.287
11761TIP3   OH235159   7.314   9.188   3.198
11761TIP3    H135160   7.381   9.137   3.151
11761TIP3    H235161   7.369   9.244   3.256
11762TIP3   OH235162   8.112   7.551   3.299
11762TIP3    H135163   8.022   7.548   3.264
11762TIP3    H235164   8.142   7.458   3.285
11763TIP3   OH235165   6.369   9.048   3.224
11763TIP3    H135166   6.280   9.083   3.200
11763TIP3    H235167   6.377   9.084   3.314
11764TIP3   OH235168   6.605   9.027   3.083
11764TIP3    H135169   6.519   9.041   3.127
11764TIP3    H235170   6.587   9.061   2.993
11765TIP3   OH235171   7.030   9.056   2.881
11765TIP3    H135172   6.963   9.076   2.813
11765TIP3    H235173   7.044   9.145   2.921
11766TIP3   OH235174   7.300   9.000   2.936
11766TIP3    H135175   7.206   9.013   2.913
11766TIP3    H235176   7.343   9.071   2.885
11767TIP3   OH235177   7.506   9.190   2.846
11767TIP3    H135178   7.497   9.274   2.798
11767TIP3    H235179   7.527   9.128   2.773
11768TIP3   OH235180   6.279   8.842   2.970
11768TIP3    H135181   6.307   8.817   3.061
11768TIP3    H235182   6.352   8.800   2.919
11769TIP3   OH235183   6.474   8.714   2.827
11769TIP3    H135184   6.490   8.630   2.875
11769TIP3    H235185   6.564   8.751   2.822
11770TIP3   OH235186   6.739   8.809   2.830
11770TIP3    H135187   6.772   8.718   2.815
11770TIP3    H235188   6.785   8.830   2.913
11771TIP3   OH235189   7.320   7.468   2.920
11771TIP3    H135190   7.271   7.400   2.970
11771TIP3    H235191   7.390   7.417   2.876
11772TIP3   OH235192   7.838   7.323   2.812
11772TIP3    H135193   7.877   7.380   2.742
11772TIP3    H235194   7.746   7.355   2.813
11773TIP3   OH235195   7.932   7.450   2.591
11773TIP3    H135196   8.000   7.396   2.546
11773TIP3    H235197   7.966   7.541   2.574
11774TIP3   OH235198   6.565   7.174   2.934
11774TIP3    H135199   6.473   7.140   2.934
11774TIP3    H235200   6.614   7.089   2.930
11775TIP3   OH235201   6.353   7.043   2.582
11775TIP3    H135202   6.382   7.100   2.508
11775TIP3    H235203   6.322   7.109   2.647
11776TIP3   OH235204   7.010   7.205   2.814
11776TIP3    H135205   7.065   7.259   2.755
11776TIP3    H235206   7.027   7.246   2.899
11777TIP3   OH235207   7.551   7.344   2.804
11777TIP3    H135208   7.537   7.332   2.709
11777TIP3    H235209   7.535   7.254   2.840
11778TIP3   OH235210   7.570   7.268   2.364
11778TIP3    H135211   7.490   7.323   2.378
11778TIP3    H235212   7.551   7.190   2.418
11779TIP3   OH235213   6.068   8.614   2.362
11779TIP3    H135214   5.983   8.581   2.327
11779TIP3    H235215   6.057   8.709   2.343
11780TIP3   OH235216   6.468   7.203   2.346
11780TIP3    H135217   6.517   7.141   2.288
11780TIP3    H235218   6.541   7.258   2.381
11781TIP3   OH235219   6.981   7.377   2.444
11781TIP3    H135220   7.043   7.333   2.504
11781TIP3    H235221   7.001   7.470   2.468
11782TIP3   OH235222   6.840   8.804   1.943
11782TIP3    H135223   6.929   8.826   1.907
11782TIP3    H235224   6.818   8.729   1.884
11783TIP3   OH235225   7.550   8.917   2.035
11783TIP3    H135226   7.543   8.819   2.021
11783TIP3    H235227   7.511   8.950   1.952
11784TIP3   OH235228   6.772   7.454   3.825
11784TIP3    H135229   6.740   7.383   3.883
11784TIP3    H235230   6.867   7.456   3.850
11785TIP3   OH235231   7.021   7.453   3.943
11785TIP3    H135232   7.106   7.429   3.903
11785TIP3    H235233   7.010   7.381   4.009
11786TIP3   OH235234   6.145   8.639   2.000
11786TIP3    H135235   6.148   8.665   2.093
11786TIP3    H235236   6.233   8.597   1.986
11787TIP3   OH235237   7.846   7.513   3.732
11787TIP3    H135238   7.867   7.482   3.822
11787TIP3    H235239   7.934   7.510   3.689
11788TIP3   OH235240   7.780   9.062   3.232
11788TIP3    H135241   7.705   9.030   3.177
11788TIP3    H235242   7.763   9.158   3.227
11789TIP3   OH235243   8.353   8.325   2.730
11789TIP3    H135244   8.379   8.262   2.800
11789TIP3    H235245   8.418   8.396   2.743
11790TIP3   OH235246   8.302   8.717   2.466
11790TIP3    H135247   8.316   8.620   2.462
11790TIP3    H235248   8.390   8.750   2.485
11791TIP3   OH235249   8.028   7.949   2.247
11791TIP3    H135250   7.977   8.031   2.260
11791TIP3    H235251   7.960   7.892   2.208
11792TIP3   OH235252   8.091   8.236   2.417
11792TIP3    H135253   8.137   8.157   2.453
11792TIP3    H235254   8.145   8.256   2.339
11793TIP3   OH235255   8.593   7.826   2.419
11793TIP3    H135256   8.578   7.898   2.354
11793TIP3    H235257   8.549   7.752   2.372
11794TIP3   OH235258   8.234   8.028   2.524
11794TIP3    H135259   8.316   8.004   2.572
11794TIP3    H235260   8.245   7.972   2.444
11795TIP3   OH235261   8.670   8.237   2.317
11795TIP3    H135262   8.765   8.215   2.309
11795TIP3    H235263   8.629   8.153   2.286
11796TIP3   OH235264   8.593   7.806   2.851
11796TIP3    H135265   8.533   7.842   2.783
11796TIP3    H235266   8.542   7.826   2.932
11797TIP3   OH235267   8.466   7.924   2.637
11797TIP3    H135268   8.531   7.995   2.657
11797TIP3    H235269   8.513   7.881   2.561
11798TIP3   OH235270   7.926   8.461   1.977
11798TIP3    H135271   7.874   8.496   1.904
11798TIP3    H235272   7.948   8.544   2.026
11799TIP3   OH235273   8.946   7.516   2.569
11799TIP3    H135274   8.936   7.422   2.592
11799TIP3    H235275   8.869   7.555   2.617
11800TIP3   OH235276   8.434   8.348   2.220
11800TIP3    H135277   8.404   8.309   2.135
11800TIP3    H235278   8.525   8.315   2.224
11801TIP3   OH235279   8.612   8.354   2.560
11801TIP3    H135280   8.611   8.315   2.469
11801TIP3    H235281   8.589   8.447   2.542
11802TIP3   OH235282   8.486   8.452   2.978
11802TIP3    H135283   8.489   8.535   3.029
11802TIP3    H235284   8.392   8.427   2.994
11803TIP3   OH235285   8.331   8.211   2.002
11803TIP3    H135286   8.260   8.253   1.949
11803TIP3    H235287   8.290   8.127   2.025
11804TIP3   OH235288   8.106   8.591   2.923
11804TIP3    H135289   8.036   8.577   2.856
11804TIP3    H235290   8.135   8.499   2.941
11805TIP3   OH235291   7.967   8.799   2.541
11805TIP3    H135292   8.060   8.774   2.530
11805TIP3    H235293   7.970   8.862   2.615
11806TIP3   OH235294   8.299   8.777   2.919
11806TIP3    H135295   8.354   8.741   2.992
11806TIP3    H235296   8.233   8.705   2.910
11807TIP3   OH235297   8.712   7.601   2.695
11807TIP3    H135298   8.621   7.573   2.671
11807TIP3    H235299   8.692   7.686   2.738
11808TIP3   OH235300   9.250   7.706   2.876
11808TIP3    H135301   9.323   7.699   2.941
11808TIP3    H235302   9.171   7.703   2.932
11809TIP3   OH235303   8.852   7.637   1.669
11809TIP3    H135304   8.815   7.642   1.758
11809TIP3    H235305   8.805   7.558   1.634
11810TIP3   OH235306   8.640   8.125   2.710
11810TIP3    H135307   8.586   8.136   2.792
11810TIP3    H235308   8.620   8.207   2.661
11811TIP3   OH235309   8.529   8.010   2.228
11811TIP3    H135310   8.437   7.980   2.243
11811TIP3    H235311   8.546   7.971   2.140
11812TIP3   OH235312   8.465   8.146   2.923
11812TIP3    H135313   8.493   8.205   2.995
11812TIP3    H235314   8.453   8.062   2.970
11813TIP3   OH235315   8.509   7.623   1.637
11813TIP3    H135316   8.500   7.619   1.734
11813TIP3    H235317   8.427   7.670   1.612
11814TIP3   OH235318   8.054   7.674   2.506
11814TIP3    H135319   8.135   7.702   2.554
11814TIP3    H235320   8.087   7.641   2.421
11815TIP3   OH235321   8.035   7.650   2.023
11815TIP3    H135322   8.078   7.690   1.945
11815TIP3    H235323   7.971   7.720   2.045
11816TIP3   OH235324   8.839   7.838   2.286
11816TIP3    H135325   8.764   7.831   2.349
11816TIP3    H235326   8.915   7.813   2.344
11817TIP3   OH235327   8.291   7.884   2.295
11817TIP3    H135328   8.196   7.890   2.268
11817TIP3    H235329   8.315   7.792   2.271
11818TIP3   OH235330   8.560   7.878   1.986
11818TIP3    H135331   8.653   7.902   1.968
11818TIP3    H235332   8.514   7.901   1.902
11819TIP3   OH235333   8.396   7.907   1.765
11819TIP3    H135334   8.317   7.858   1.736
11819TIP3    H235335   8.426   7.942   1.681
11820TIP3   OH235336   8.463   8.685   3.124
11820TIP3    H135337   8.541   8.737   3.149
11820TIP3    H235338   8.409   8.688   3.205
11821TIP3   OH235339   8.464   7.644   2.261
11821TIP3    H135340   8.433   7.562   2.307
11821TIP3    H235341   8.510   7.609   2.184
11822TIP3   OH235342   8.913   8.030   2.693
11822TIP3    H135343   8.830   8.080   2.683
11822TIP3    H235344   8.981   8.099   2.695
11823TIP3   OH235345   8.359   8.452   2.457
11823TIP3    H135346   8.377   8.415   2.368
11823TIP3    H235347   8.361   8.374   2.514
11824TIP3   OH235348   8.228   8.378   3.057
11824TIP3    H135349   8.243   8.364   3.152
11824TIP3    H235350   8.153   8.318   3.039
11825TIP3   OH235351   8.009   8.073   1.773
11825TIP3    H135352   8.055   8.157   1.792
11825TIP3    H235353   7.932   8.080   1.834
11826TIP3   OH235354   8.437   7.893   3.066
11826TIP3    H135355   8.340   7.893   3.080
11826TIP3    H235356   8.466   7.833   3.137
11827TIP3   OH235357   8.144   8.964   2.770
11827TIP3    H135358   8.169   8.880   2.814
11827TIP3    H235359   8.212   9.021   2.810
11828TIP3   OH235360   8.130   8.319   1.849
11828TIP3    H135361   8.066   8.372   1.902
11828TIP3    H235362   8.193   8.387   1.817
11829TIP3   OH235363   8.844   7.878   2.017
11829TIP3    H135364   8.925   7.930   2.006
11829TIP3    H235365   8.838   7.875   2.116
11830TIP3   OH235366   8.982   7.620   2.125
11830TIP3    H135367   8.965   7.681   2.199
11830TIP3    H235368   9.048   7.674   2.076
11831TIP3   OH235369   8.498   7.610   1.912
11831TIP3    H135370   8.498   7.701   1.946
11831TIP3    H235371   8.594   7.591   1.919
11832TIP3   OH235372   8.067   7.804   1.796
11832TIP3    H135373   8.058   7.901   1.791
11832TIP3    H235374   7.985   7.775   1.753
11833TIP3   OH235375   8.448   7.523   2.671
11833TIP3    H135376   8.418   7.491   2.583
11833TIP3    H235377   8.437   7.443   2.727
11834TIP3   OH235378   7.960   8.717   2.066
11834TIP3    H135379   7.894   8.777   2.104
11834TIP3    H235380   7.972   8.755   1.978
11835TIP3   OH235381   8.117   9.261   3.175
11835TIP3    H135382   8.211   9.257   3.150
11835TIP3    H235383   8.088   9.173   3.143
11836TIP3   OH235384   8.269   8.694   3.326
11836TIP3    H135385   8.288   8.599   3.331
11836TIP3    H235386   8.184   8.693   3.276
11837TIP3   OH235387   8.396   8.426   3.300
11837TIP3    H135388   8.468   8.366   3.278
11837TIP3    H235389   8.421   8.453   3.391
11838TIP3   OH235390   8.448   8.209   1.714
11838TIP3    H135391   8.414   8.177   1.799
11838TIP3    H235392   8.517   8.144   1.692
11839TIP3   OH235393   8.722   8.307   2.958
11839TIP3    H135394   8.646   8.368   2.971
11839TIP3    H235395   8.737   8.312   2.863
11840TIP3   OH235396   8.832   8.088   3.097
11840TIP3    H135397   8.844   8.009   3.040
11840TIP3    H235398   8.806   8.157   3.033
11841TIP3   OH235399   8.850   7.876   2.907
11841TIP3    H135400   8.882   7.921   2.826
11841TIP3    H235401   8.758   7.854   2.883
11842TIP3   OH235402   8.718   8.215   3.319
11842TIP3    H135403   8.659   8.138   3.333
11842TIP3    H235404   8.764   8.187   3.237
11843TIP3   OH235405   8.986   7.644   2.966
11843TIP3    H135406   8.939   7.728   2.945
11843TIP3    H235407   8.915   7.578   2.954
11844TIP3   OH235408   9.046   8.231   3.231
11844TIP3    H135409   9.102   8.170   3.282
11844TIP3    H235410   9.000   8.169   3.172
11845TIP3   OH235411   8.569   7.988   3.377
11845TIP3    H135412   8.583   7.901   3.336
11845TIP3    H235413   8.609   7.973   3.465
11846TIP3   OH235414   9.076   7.651   3.224
11846TIP3    H135415   9.150   7.586   3.217
11846TIP3    H235416   9.042   7.647   3.132
11847TIP3   OH235417   9.137   7.862   3.384
11847TIP3    H135418   9.120   7.792   3.317
11847TIP3    H235419   9.056   7.917   3.378
11848TIP3   OH235420   7.845   8.480   1.689
11848TIP3    H135421   7.940   8.499   1.690
11848TIP3    H235422   7.843   8.388   1.654
11849TIP3   OH235423   7.743   9.091   2.117
11849TIP3    H135424   7.684   9.022   2.080
11849TIP3    H235425   7.803   9.037   2.173
11850TIP3   OH235426   7.890   8.938   2.293
11850TIP3    H135427   7.893   8.867   2.359
11850TIP3    H235428   7.934   9.009   2.341
11851TIP3   OH235429   8.084   8.348   2.669
11851TIP3    H135430   8.080   8.319   2.576
11851TIP3    H235431   8.181   8.350   2.684
11852TIP3   OH235432   8.303   8.040   3.347
11852TIP3    H135433   8.401   8.032   3.347
11852TIP3    H235434   8.279   7.954   3.387
11853TIP3   OH235435   8.266   7.731   2.675
11853TIP3    H135436   8.329   7.657   2.686
11853TIP3    H235437   8.327   7.807   2.670
11854TIP3   OH235438   8.069   8.007   2.752
11854TIP3    H135439   8.114   7.996   2.666
11854TIP3    H235440   8.093   8.097   2.775
11855TIP3   OH235441   8.050   7.519   2.261
11855TIP3    H135442   7.955   7.504   2.273
11855TIP3    H235443   8.052   7.568   2.176
11856TIP3   OH235444   8.270   7.588   3.064
11856TIP3    H135445   8.220   7.585   3.147
11856TIP3    H235446   8.204   7.628   3.004
11857TIP3   OH235447   8.304   9.025   3.206
11857TIP3    H135448   8.253   9.013   3.124
11857TIP3    H235449   8.282   8.943   3.252
11858TIP3   OH235450   9.050   7.714   2.397
11858TIP3    H135451   9.036   7.644   2.464
11858TIP3    H235452   9.144   7.707   2.375
11859TIP3   OH235453   8.364   7.433   2.423
11859TIP3    H135454   8.271   7.408   2.407
11859TIP3    H235455   8.409   7.345   2.417
11860TIP3   OH235456   8.182   7.300   2.085
11860TIP3    H135457   8.189   7.348   2.001
11860TIP3    H235458   8.115   7.352   2.133
11861TIP3   OH235459   8.804   7.461   2.304
11861TIP3    H135460   8.862   7.512   2.245
11861TIP3    H235461   8.829   7.495   2.391
11862TIP3   OH235462   9.425   7.499   2.234
11862TIP3    H135463   9.371   7.574   2.205
11862TIP3    H235464   9.371   7.465   2.309
11863TIP3   OH235465   7.833   8.863   1.858
11863TIP3    H135466   7.759   8.811   1.823
11863TIP3    H235467   7.810   8.950   1.820
11864TIP3   OH235468   8.264   7.463   1.828
11864TIP3    H135469   8.312   7.399   1.772
11864TIP3    H235470   8.337   7.513   1.869
11865TIP3   OH235471   8.773   7.630   1.935
11865TIP3    H135472   8.836   7.589   1.996
11865TIP3    H235473   8.790   7.724   1.956
11866TIP3   OH235474   8.568   7.708   3.309
11866TIP3    H135475   8.537   7.639   3.369
11866TIP3    H235476   8.663   7.712   3.334
11867TIP3   OH235477   8.815   7.709   3.429
11867TIP3    H135478   8.902   7.692   3.388
11867TIP3    H235479   8.810   7.636   3.494
11868TIP3   OH235480   9.618   7.744   3.236
11868TIP3    H135481   9.648   7.752   3.328
11868TIP3    H235482   9.673   7.810   3.190
11869TIP3   OH235483   0.546   8.534   4.624
11869TIP3    H135484   0.502   8.618   4.643
11869TIP3    H235485   0.556   8.543   4.527
11870TIP3   OH235486   0.800   8.439   5.313
11870TIP3    H135487   0.853   8.371   5.266
11870TIP3    H235488   0.762   8.489   5.239
11871TIP3   OH235489   0.664   8.571   5.111
11871TIP3    H135490   0.576   8.607   5.128
11871TIP3    H235491   0.642   8.493   5.057
11872TIP3   OH235492   0.294   8.224   3.686
11872TIP3    H135493   0.337   8.146   3.646
11872TIP3    H235494   0.365   8.290   3.686
11873TIP3   OH235495   0.570   8.346   4.980
11873TIP3    H135496   0.476   8.340   4.959
11873TIP3    H235497   0.598   8.252   4.974
11874TIP3   OH235498   0.374   8.220   4.243
11874TIP3    H135499   0.462   8.182   4.222
11874TIP3    H235500   0.397   8.314   4.254
11875TIP3   OH235501   0.464   8.730   3.932
11875TIP3    H135502   0.452   8.822   3.960
11875TIP3    H235503   0.409   8.683   3.996
11876TIP3   OH235504   2.329   8.771   4.097
11876TIP3    H135505   2.348   8.852   4.149
11876TIP3    H235506   2.330   8.807   4.007
11877TIP3   OH235507   1.716   8.956   4.133
11877TIP3    H135508   1.755   8.870   4.157
11877TIP3    H235509   1.677   8.933   4.046
11878TIP3   OH235510   1.053   8.612   4.107
11878TIP3    H135511   1.034   8.686   4.045
11878TIP3    H235512   1.002   8.540   4.062
11879TIP3   OH235513   1.748   8.697   3.732
11879TIP3    H135514   1.822   8.684   3.795
11879TIP3    H235515   1.795   8.738   3.658
11880TIP3   OH235516   0.672   8.793   4.218
11880TIP3    H135517   0.757   8.795   4.265
11880TIP3    H235518   0.699   8.759   4.131
11881TIP3   OH235519   1.141   9.014   3.988
11881TIP3    H135520   1.225   8.976   4.020
11881TIP3    H235521   1.090   8.936   3.962
11882TIP3   OH235522   2.400   8.975   4.274
11882TIP3    H135523   2.319   9.021   4.243
11882TIP3    H235524   2.391   8.989   4.370
11883TIP3   OH235525   1.049   8.595   4.541
11883TIP3    H135526   0.988   8.629   4.473
11883TIP3    H235527   0.996   8.613   4.622
11884TIP3   OH235528   1.960   8.703   3.903
11884TIP3    H135529   1.935   8.667   3.989
11884TIP3    H235530   2.007   8.786   3.928
11885TIP3   OH235531   0.918   8.706   4.326
11885TIP3    H135532   0.975   8.784   4.342
11885TIP3    H235533   0.967   8.665   4.251
11886TIP3   OH235534   2.129   8.702   4.291
11886TIP3    H135535   2.036   8.690   4.267
11886TIP3    H235536   2.172   8.710   4.204
11887TIP3   OH235537   1.402   8.320   4.247
11887TIP3    H135538   1.394   8.225   4.270
11887TIP3    H235539   1.325   8.357   4.297
11888TIP3   OH235540   1.299   8.825   3.261
11888TIP3    H135541   1.342   8.904   3.297
11888TIP3    H235542   1.360   8.799   3.190
11889TIP3   OH235543   1.945   9.200   4.379
11889TIP3    H135544   1.955   9.285   4.332
11889TIP3    H235545   1.853   9.175   4.351
11890TIP3   OH235546   2.039   8.259   3.357
11890TIP3    H135547   1.957   8.278   3.408
11890TIP3    H235548   2.050   8.343   3.309
11891TIP3   OH235549   2.166   9.163   4.567
11891TIP3    H135550   2.084   9.160   4.514
11891TIP3    H235551   2.191   9.069   4.567
11892TIP3   OH235552   1.168   8.392   4.384
11892TIP3    H135553   1.078   8.362   4.359
11892TIP3    H235554   1.145   8.475   4.429
11893TIP3   OH235555   1.698   8.506   4.565
11893TIP3    H135556   1.772   8.481   4.622
11893TIP3    H235557   1.619   8.482   4.617
11894TIP3   OH235558   1.948   8.932   4.506
11894TIP3    H135559   1.896   8.922   4.589
11894TIP3    H235560   1.908   9.009   4.464
11895TIP3   OH235561   1.317   8.436   3.354
11895TIP3    H135562   1.282   8.439   3.446
11895TIP3    H235563   1.274   8.354   3.323
11896TIP3   OH235564   1.088   8.914   4.386
11896TIP3    H135565   1.036   8.923   4.468
11896TIP3    H235566   1.065   8.995   4.338
11897TIP3   OH235567   0.984   8.790   3.916
11897TIP3    H135568   0.890   8.767   3.930
11897TIP3    H235569   0.998   8.755   3.826
11898TIP3   OH235570   1.482   8.879   3.645
11898TIP3    H135571   1.402   8.932   3.625
11898TIP3    H235572   1.520   8.864   3.557
11899TIP3   OH235573   1.647   9.146   4.724
11899TIP3    H135574   1.631   9.073   4.787
11899TIP3    H235575   1.737   9.173   4.749
11900TIP3   OH235576   1.620   8.895   3.885
11900TIP3    H135577   1.560   8.914   3.809
11900TIP3    H235578   1.663   8.815   3.847
11901TIP3   OH235579   0.936   8.931   4.627
11901TIP3    H135580   0.894   8.982   4.699
11901TIP3    H235581   0.908   8.841   4.652
11902TIP3   OH235582   0.966   8.413   3.323
11902TIP3    H135583   0.960   8.411   3.421
11902TIP3    H235584   0.891   8.470   3.301
11903TIP3   OH235585   0.514   8.459   4.168
11903TIP3    H135586   0.570   8.496   4.240
11903TIP3    H235587   0.581   8.412   4.117
11904TIP3   OH235588   0.481   8.454   3.717
11904TIP3    H135589   0.520   8.478   3.630
11904TIP3    H235590   0.456   8.542   3.747
11905TIP3   OH235591   1.691   9.140   4.328
11905TIP3    H135592   1.691   9.073   4.255
11905TIP3    H235593   1.618   9.105   4.383
11906TIP3   OH235594   1.308   8.604   3.976
11906TIP3    H135595   1.225   8.610   4.028
11906TIP3    H235596   1.373   8.626   4.045
11907TIP3   OH235597   0.741   8.675   3.974
11907TIP3    H135598   0.646   8.669   3.949
11907TIP3    H235599   0.774   8.584   3.961
11908TIP3   OH235600   1.017   8.664   3.672
11908TIP3    H135601   1.108   8.692   3.650
11908TIP3    H235602   0.965   8.693   3.594
11909TIP3   OH235603   1.795   8.690   4.175
11909TIP3    H135604   1.767   8.703   4.268
11909TIP3    H235605   1.726   8.628   4.144
11910TIP3   OH235606   0.846   8.681   3.452
11910TIP3    H135607   0.783   8.651   3.384
11910TIP3    H235608   0.897   8.748   3.401
11911TIP3   OH235609   1.386   8.916   4.069
11911TIP3    H135610   1.472   8.903   4.026
11911TIP3    H235611   1.406   8.906   4.164
11912TIP3   OH235612   0.909   8.434   3.954
11912TIP3    H135613   0.880   8.351   3.999
11912TIP3    H235614   0.963   8.400   3.881
11913TIP3   OH235615   1.365   8.831   4.372
11913TIP3    H135616   1.278   8.874   4.368
11913TIP3    H235617   1.421   8.898   4.416
11914TIP3   OH235618   1.561   8.555   3.317
11914TIP3    H135619   1.465   8.534   3.330
11914TIP3    H235620   1.566   8.650   3.340
11915TIP3   OH235621   1.633   8.812   3.406
11915TIP3    H135622   1.725   8.800   3.438
11915TIP3    H235623   1.637   8.901   3.367
11916TIP3   OH235624   1.393   9.166   4.837
11916TIP3    H135625   1.317   9.216   4.801
11916TIP3    H235626   1.448   9.152   4.758
11917TIP3   OH235627   2.076   8.871   3.265
11917TIP3    H135628   2.011   8.833   3.201
11917TIP3    H235629   2.076   8.963   3.234
11918TIP3   OH235630   0.896   8.672   4.762
11918TIP3    H135631   0.806   8.687   4.794
11918TIP3    H235632   0.930   8.612   4.831
11919TIP3   OH235633   1.728   8.749   4.437
11919TIP3    H135634   1.812   8.774   4.479
11919TIP3    H235635   1.707   8.665   4.483
11920TIP3   OH235636   1.613   8.491   3.599
11920TIP3    H135637   1.593   8.521   3.508
11920TIP3    H235638   1.649   8.573   3.640
11921TIP3   OH235639   1.305   8.670   3.706
11921TIP3    H135640   1.369   8.742   3.691
11921TIP3    H235641   1.302   8.664   3.804
11922TIP3   OH235642   1.555   8.985   4.510
11922TIP3    H135643   1.585   9.036   4.588
11922TIP3    H235644   1.612   8.906   4.514
11923TIP3   OH235645   1.442   8.400   3.809
11923TIP3    H135646   1.427   8.476   3.868
11923TIP3    H235647   1.502   8.439   3.742
11924TIP3   OH235648   0.953   8.397   3.599
11924TIP3    H135649   0.948   8.491   3.628
11924TIP3    H235650   1.049   8.383   3.608
11925TIP3   OH235651   2.214   8.893   4.488
11925TIP3    H135652   2.117   8.894   4.507
11925TIP3    H235653   2.211   8.835   4.410
11926TIP3   OH235654   1.850   9.067   3.860
11926TIP3    H135655   1.777   9.016   3.898
11926TIP3    H235656   1.924   9.045   3.921
11927TIP3   OH235657   0.507   8.591   3.483
11927TIP3    H135658   0.529   8.685   3.474
11927TIP3    H235659   0.429   8.580   3.428
11928TIP3   OH235660   0.906   8.310   4.357
11928TIP3    H135661   0.871   8.279   4.271
11928TIP3    H235662   0.895   8.231   4.414
11929TIP3   OH235663   0.876   9.200   4.967
11929TIP3    H135664   0.913   9.117   5.000
11929TIP3    H235665   0.864   9.254   5.048
11930TIP3   OH235666   1.204   9.047   4.608
11930TIP3    H135667   1.109   9.050   4.630
11930TIP3    H235668   1.203   9.052   4.511
11931TIP3   OH235669   1.023   8.817   3.295
11931TIP3    H135670   0.997   8.765   3.216
11931TIP3    H235671   1.121   8.816   3.291
11932TIP3   OH235672   1.307   8.866   4.789
11932TIP3    H135673   1.311   8.784   4.736
11932TIP3    H235674   1.275   8.930   4.722
11933TIP3   OH235675   1.309   8.664   4.588
11933TIP3    H135676   1.335   8.712   4.507
11933TIP3    H235677   1.214   8.645   4.570
11934TIP3   OH235678   1.926   9.181   4.838
11934TIP3    H135679   1.942   9.087   4.856
11934TIP3    H235680   2.014   9.210   4.812
11935TIP3   OH235681   1.173   9.000   5.007
11935TIP3    H135682   1.113   8.923   5.017
11935TIP3    H235683   1.219   8.980   4.924
11936TIP3   OH235684   1.440   8.432   4.658
11936TIP3    H135685   1.393   8.515   4.633
11936TIP3    H235686   1.369   8.366   4.644
11937TIP3   OH235687   1.571   8.926   4.871
11937TIP3    H135688   1.558   8.924   4.967
11937TIP3    H235689   1.479   8.909   4.843
11938TIP3   OH235690   1.808   8.887   4.730
11938TIP3    H135691   1.730   8.881   4.788
11938TIP3    H235692   1.880   8.854   4.788
11939TIP3   OH235693   2.044   8.845   4.879
11939TIP3    H135694   2.060   8.748   4.893
11939TIP3    H235695   2.033   8.878   4.970
11940TIP3   OH235696   1.027   8.773   5.064
11940TIP3    H135697   1.034   8.683   5.029
11940TIP3    H235698   1.062   8.761   5.155
11941TIP3   OH235699   1.537   8.441   4.914
11941TIP3    H135700   1.609   8.377   4.902
11941TIP3    H235701   1.495   8.437   4.825
11942TIP3   OH235702   1.598   8.659   5.072
11942TIP3    H135703   1.577   8.588   5.007
11942TIP3    H235704   1.521   8.719   5.065
11943TIP3   OH235705   1.906   8.794   3.064
11943TIP3    H135706   1.878   8.822   2.976
11943TIP3    H235707   1.882   8.699   3.062
11944TIP3   OH235708   1.945   9.046   3.608
11944TIP3    H135709   1.940   8.950   3.622
11944TIP3    H235710   1.919   9.076   3.698
11945TIP3   OH235711   2.378   9.318   4.497
11945TIP3    H135712   2.301   9.263   4.523
11945TIP3    H235713   2.449   9.251   4.501
11946TIP3   OH235714   1.850   8.529   3.054
11946TIP3    H135715   1.923   8.496   3.110
11946TIP3    H235716   1.775   8.471   3.078
11947TIP3   OH235717   1.898   8.772   3.507
11947TIP3    H135718   1.943   8.686   3.519
11947TIP3    H235719   1.958   8.814   3.443
11948TIP3   OH235720   2.070   8.948   3.994
11948TIP3    H135721   2.153   8.983   3.953
11948TIP3    H235722   2.082   8.986   4.083
11949TIP3   OH235723   2.147   9.085   4.221
11949TIP3    H135724   2.073   9.113   4.278
11949TIP3    H235725   2.195   9.170   4.209
11950TIP3   OH235726   0.763   8.833   5.039
11950TIP3    H135727   0.859   8.820   5.043
11950TIP3    H235728   0.731   8.747   5.072
11951TIP3   OH235729   2.623   8.703   4.794
11951TIP3    H135730   2.654   8.627   4.741
11951TIP3    H235731   2.569   8.750   4.727
11952TIP3   OH235732   2.021   8.529   3.543
11952TIP3    H135733   2.065   8.516   3.630
11952TIP3    H235734   1.957   8.455   3.543
11953TIP3   OH235735   0.711   8.510   4.354
11953TIP3    H135736   0.782   8.445   4.372
11953TIP3    H235737   0.763   8.593   4.355
11954TIP3   OH235738   0.543   8.794   4.462
11954TIP3    H135739   0.575   8.787   4.370
11954TIP3    H235740   0.517   8.887   4.466
11955TIP3   OH235741   2.461   8.827   4.606
11955TIP3    H135742   2.375   8.869   4.620
11955TIP3    H235743   2.433   8.755   4.545
11956TIP3   OH235744   2.098   8.469   3.178
11956TIP3    H135745   2.137   8.397   3.124
11956TIP3    H235746   2.165   8.539   3.170
11957TIP3   OH235747   0.505   8.281   3.923
11957TIP3    H135748   0.437   8.315   3.983
11957TIP3    H235749   0.505   8.349   3.852
11958TIP3   OH235750   0.726   8.371   4.748
11958TIP3    H135751   0.674   8.370   4.831
11958TIP3    H235752   0.667   8.426   4.692
11959TIP3   OH235753   2.353   8.606   4.453
11959TIP3    H135754   2.258   8.614   4.434
11959TIP3    H235755   2.362   8.511   4.468
11960TIP3   OH235756   1.571   8.512   4.097
11960TIP3    H135757   1.518   8.446   4.145
11960TIP3    H235758   1.638   8.457   4.052
11961TIP3   OH235759   2.091   8.382   3.997
11961TIP3    H135760   2.124   8.440   3.925
11961TIP3    H235761   1.997   8.406   3.999
11962TIP3   OH235762   2.185   8.489   3.762
11962TIP3    H135763   2.258   8.442   3.718
11962TIP3    H235764   2.214   8.583   3.749
11963TIP3   OH235765   0.813   8.218   4.108
11963TIP3    H135766   0.723   8.179   4.111
11963TIP3    H235767   0.867   8.135   4.107
11964TIP3   OH235768   0.598   8.082   3.754
11964TIP3    H135769   0.630   8.141   3.684
11964TIP3    H235770   0.569   8.147   3.822
11965TIP3   OH235771   1.257   8.250   3.991
11965TIP3    H135772   1.314   8.303   3.934
11965TIP3    H235773   1.278   8.287   4.078
11966TIP3   OH235774   1.811   8.396   3.974
11966TIP3    H135775   1.795   8.364   3.885
11966TIP3    H235776   1.792   8.316   4.028
11967TIP3   OH235777   1.834   8.320   3.536
11967TIP3    H135778   1.749   8.367   3.551
11967TIP3    H235779   1.816   8.236   3.583
11968TIP3   OH235780   0.717   8.249   3.524
11968TIP3    H135781   0.767   8.187   3.467
11968TIP3    H235782   0.789   8.305   3.560
11969TIP3   OH235783   1.231   8.422   3.619
11969TIP3    H135784   1.290   8.379   3.683
11969TIP3    H235785   1.247   8.516   3.644
11970TIP3   OH235786   1.021   8.497   4.997
11970TIP3    H135787   0.987   8.431   5.059
11970TIP3    H235788   1.116   8.499   5.025
11971TIP3   OH235789   1.268   8.496   5.120
11971TIP3    H135790   1.354   8.474   5.080
11971TIP3    H235791   1.258   8.425   5.186
11972TIP3   OH235792   2.104   8.584   4.920
11972TIP3    H135793   2.118   8.532   5.001
11972TIP3    H235794   2.098   8.514   4.851
11973TIP3   OH235795   2.283   9.004   3.425
11973TIP3    H135796   2.240   9.081   3.466
11973TIP3    H235797   2.206   8.947   3.406
11974TIP3   OH235798   4.110   9.023   3.593
11974TIP3    H135799   4.137   9.105   3.639
11974TIP3    H235800   4.131   9.047   3.500
11975TIP3   OH235801   3.507   9.210   3.621
11975TIP3    H135802   3.551   9.126   3.644
11975TIP3    H235803   3.473   9.189   3.532
11976TIP3   OH235804   2.831   8.853   3.583
11976TIP3    H135805   2.830   8.933   3.526
11976TIP3    H235806   2.735   8.840   3.596
11977TIP3   OH235807   3.543   8.954   3.218
11977TIP3    H135808   3.619   8.943   3.281
11977TIP3    H235809   3.590   8.993   3.142
11978TIP3   OH235810   2.471   9.052   3.713
11978TIP3    H135811   2.560   9.054   3.749
11978TIP3    H235812   2.486   9.020   3.623
11979TIP3   OH235813   2.936   9.267   3.491
11979TIP3    H135814   3.023   9.226   3.511
11979TIP3    H235815   2.885   9.194   3.452
11980TIP3   OH235816   4.183   9.220   3.776
11980TIP3    H135817   4.111   9.275   3.739
11980TIP3    H235818   4.222   9.282   3.840
11981TIP3   OH235819   2.843   8.850   4.030
11981TIP3    H135820   2.784   8.888   3.963
11981TIP3    H235821   2.791   8.869   4.111
11982TIP3   OH235822   3.754   8.962   3.389
11982TIP3    H135823   3.747   8.921   3.476
11982TIP3    H235824   3.804   9.043   3.410
11983TIP3   OH235825   2.721   8.963   3.812
11983TIP3    H135826   2.768   9.046   3.834
11983TIP3    H235827   2.782   8.927   3.745
11984TIP3   OH235828   3.905   8.921   3.757
11984TIP3    H135829   3.819   8.959   3.731
11984TIP3    H235830   3.966   8.958   3.689
11985TIP3   OH235831   3.201   8.569   3.738
11985TIP3    H135832   3.188   8.476   3.762
11985TIP3    H235833   3.126   8.611   3.785
11986TIP3   OH235834   3.096   9.087   2.730
11986TIP3    H135835   3.146   9.155   2.777
11986TIP3    H235836   3.157   9.063   2.659
11987TIP3   OH235837   3.739   9.454   3.870
11987TIP3    H135838   3.755   9.537   3.821
11987TIP3    H235839   3.647   9.433   3.841
11988TIP3   OH235840   3.835   8.515   2.844
11988TIP3    H135841   3.754   8.538   2.894
11988TIP3    H235842   3.851   8.597   2.793
11989TIP3   OH235843   3.963   9.417   4.054
11989TIP3    H135844   3.884   9.416   3.998
11989TIP3    H235845   3.986   9.322   4.056
11990TIP3   OH235846   2.965   8.648   3.870
11990TIP3    H135847   2.874   8.618   3.849
11990TIP3    H235848   2.943   8.731   3.917
11991TIP3   OH235849   3.496   8.762   4.064
11991TIP3    H135850   3.564   8.738   4.130
11991TIP3    H235851   3.412   8.744   4.110
11992TIP3   OH235852   3.734   9.180   3.982
11992TIP3    H135853   3.690   9.177   4.070
11992TIP3    H235854   3.709   9.267   3.949
11993TIP3   OH235855   3.106   8.695   2.835
11993TIP3    H135856   3.079   8.697   2.928
11993TIP3    H235857   3.067   8.610   2.807
11994TIP3   OH235858   2.883   9.170   3.874
11994TIP3    H135859   2.832   9.182   3.957
11994TIP3    H235860   2.860   9.250   3.823
11995TIP3   OH235861   2.781   9.045   3.404
11995TIP3    H135862   2.685   9.030   3.414
11995TIP3    H235863   2.794   9.016   3.311
11996TIP3   OH235864   3.277   9.133   3.131
11996TIP3    H135865   3.201   9.189   3.107
11996TIP3    H235866   3.322   9.120   3.045
11997TIP3   OH235867   3.444   9.402   4.209
11997TIP3    H135868   3.428   9.329   4.274
11997TIP3    H235869   3.533   9.431   4.235
11998TIP3   OH235870   3.415   9.151   3.371
11998TIP3    H135871   3.357   9.171   3.294
11998TIP3    H235872   3.459   9.072   3.333
11999TIP3   OH235873   2.731   9.185   4.114
11999TIP3    H135874   2.686   9.241   4.178
11999TIP3    H235875   2.702   9.097   4.144
12000TIP3   OH235876   2.759   8.670   2.804
12000TIP3    H135877   2.734   8.669   2.898
12000TIP3    H235878   2.687   8.725   2.767
12001TIP3   OH235879   2.302   8.716   3.673
12001TIP3    H135880   2.376   8.748   3.729
12001TIP3    H235881   2.346   8.681   3.595
12002TIP3   OH235882   2.283   8.695   3.198
12002TIP3    H135883   2.322   8.737   3.118
12002TIP3    H235884   2.219   8.765   3.223
12003TIP3   OH235885   3.486   9.396   3.814
12003TIP3    H135886   3.485   9.329   3.742
12003TIP3    H235887   3.414   9.361   3.870
12004TIP3   OH235888   3.102   8.856   3.463
12004TIP3    H135889   3.022   8.866   3.518
12004TIP3    H235890   3.171   8.887   3.525
12005TIP3   OH235891   2.537   8.919   3.467
12005TIP3    H135892   2.444   8.947   3.451
12005TIP3    H235893   2.539   8.832   3.425
12006TIP3   OH235894   2.818   8.919   3.158
12006TIP3    H135895   2.906   8.955   3.138
12006TIP3    H235896   2.764   8.950   3.082
12007TIP3   OH235897   3.597   8.948   3.666
12007TIP3    H135898   3.561   8.960   3.757
12007TIP3    H235899   3.530   8.889   3.628
12008TIP3   OH235900   2.648   8.932   2.942
12008TIP3    H135901   2.582   8.902   2.876
12008TIP3    H235902   2.696   8.999   2.889
12009TIP3   OH235903   3.184   9.160   3.553
12009TIP3    H135904   3.269   9.162   3.507
12009TIP3    H235905   3.208   9.165   3.646
12010TIP3   OH235906   2.731   8.653   3.418
12010TIP3    H135907   2.681   8.600   3.485
12010TIP3    H235908   2.786   8.712   3.474
12011TIP3   OH235909   3.159   9.086   3.865
12011TIP3    H135910   3.075   9.134   3.856
12011TIP3    H235911   3.218   9.153   3.905
12012TIP3   OH235912   3.363   8.798   2.817
12012TIP3    H135913   3.266   8.786   2.808
12012TIP3    H235914   3.373   8.895   2.811
12013TIP3   OH235915   3.429   9.066   2.897
12013TIP3    H135916   3.522   9.058   2.926
12013TIP3    H235917   3.435   9.137   2.831
12014TIP3   OH235918   3.190   9.423   4.324
12014TIP3    H135919   3.112   9.469   4.287
12014TIP3    H235920   3.244   9.408   4.245
12015TIP3   OH235921   3.869   9.127   2.754
12015TIP3    H135922   3.811   9.085   2.686
12015TIP3    H235923   3.873   9.217   2.718
12016TIP3   OH235924   2.680   8.928   4.241
12016TIP3    H135925   2.584   8.938   4.257
12016TIP3    H235926   2.707   8.875   4.319
12017TIP3   OH235927   3.519   9.001   3.925
12017TIP3    H135928   3.602   9.038   3.960
12017TIP3    H235929   3.508   8.920   3.979
12018TIP3   OH235930   3.398   8.752   3.089
12018TIP3    H135931   3.386   8.775   2.994
12018TIP3    H235932   3.441   8.832   3.124
12019TIP3   OH235933   3.100   8.927   3.191
12019TIP3    H135934   3.166   8.997   3.170
12019TIP3    H235935   3.103   8.926   3.288
12020TIP3   OH235936   3.349   9.241   3.998
12020TIP3    H135937   3.380   9.295   4.073
12020TIP3    H235938   3.408   9.163   4.002
12021TIP3   OH235939   3.245   8.657   3.296
12021TIP3    H135940   3.236   8.732   3.358
12021TIP3    H235941   3.307   8.696   3.230
12022TIP3   OH235942   2.754   8.654   3.082
12022TIP3    H135943   2.730   8.746   3.105
12022TIP3    H235944   2.846   8.668   3.054
12023TIP3   OH235945   4.004   9.147   3.994
12023TIP3    H135946   3.907   9.137   3.987
12023TIP3    H235947   4.031   9.138   3.901
12024TIP3   OH235948   3.644   9.326   3.349
12024TIP3    H135949   3.574   9.268   3.382
12024TIP3    H235950   3.720   9.303   3.406
12025TIP3   OH235951   2.305   8.851   2.972
12025TIP3    H135952   2.319   8.946   2.963
12025TIP3    H235953   2.220   8.836   2.931
12026TIP3   OH235954   2.706   8.564   3.845
12026TIP3    H135955   2.664   8.534   3.761
12026TIP3    H235956   2.689   8.486   3.903
12027TIP3   OH235957   2.680   9.454   4.451
12027TIP3    H135958   2.721   9.375   4.487
12027TIP3    H235959   2.662   9.508   4.531
12028TIP3   OH235960   3.000   9.304   4.094
12028TIP3    H135961   2.904   9.305   4.113
12028TIP3    H235962   3.003   9.312   3.997
12029TIP3   OH235963   2.822   9.069   2.781
12029TIP3    H135964   2.793   9.019   2.702
12029TIP3    H235965   2.920   9.065   2.775
12030TIP3   OH235966   3.105   9.123   4.275
12030TIP3    H135967   3.107   9.041   4.222
12030TIP3    H235968   3.073   9.188   4.208
12031TIP3   OH235969   3.104   8.918   4.076
12031TIP3    H135970   3.130   8.970   3.997
12031TIP3    H235971   3.009   8.902   4.059
12032TIP3   OH235972   3.723   9.439   4.324
12032TIP3    H135973   3.745   9.347   4.346
12032TIP3    H235974   3.809   9.472   4.296
12033TIP3   OH235975   2.972   9.253   4.497
12033TIP3    H135976   2.908   9.179   4.504
12033TIP3    H235977   3.015   9.234   4.412
12034TIP3   OH235978   3.237   8.688   4.141
12034TIP3    H135979   3.190   8.772   4.118
12034TIP3    H235980   3.165   8.622   4.130
12035TIP3   OH235981   3.369   9.182   4.358
12035TIP3    H135982   3.354   9.182   4.454
12035TIP3    H235983   3.276   9.166   4.329
12036TIP3   OH235984   3.605   9.141   4.216
12036TIP3    H135985   3.527   9.138   4.274
12036TIP3    H235986   3.677   9.110   4.276
12037TIP3   OH235987   3.834   9.087   4.369
12037TIP3    H135988   3.845   8.991   4.388
12037TIP3    H235989   3.828   9.126   4.458
12038TIP3   OH235990   2.813   9.032   4.547
12038TIP3    H135991   2.824   8.942   4.513
12038TIP3    H235992   2.853   9.022   4.636
12039TIP3   OH235993   3.330   8.699   4.399
12039TIP3    H135994   3.398   8.629   4.392
12039TIP3    H235995   3.290   8.695   4.310
12040TIP3   OH235996   3.394   8.914   4.560
12040TIP3    H135997   3.371   8.846   4.493
12040TIP3    H235998   3.318   8.976   4.552
12041TIP3   OH235999   3.707   9.049   2.547
12041TIP3    H136000   3.622   9.081   2.513
12041TIP3    H236001   3.692   8.952   2.542
12042TIP3   OH236002   3.738   9.304   3.095
12042TIP3    H136003   3.737   9.208   3.105
12042TIP3    H236004   3.714   9.332   3.186
12043TIP3   OH236005   4.177   9.581   4.014
12043TIP3    H136006   4.098   9.523   4.018
12043TIP3    H236007   4.246   9.514   3.994
12044TIP3   OH236008   3.653   8.784   2.541
12044TIP3    H136009   3.720   8.745   2.600
12044TIP3    H236010   3.572   8.733   2.561
12045TIP3   OH236011   3.696   9.031   2.994
12045TIP3    H136012   3.741   8.944   3.008
12045TIP3    H236013   3.756   9.069   2.927
12046TIP3   OH236014   3.864   9.208   3.478
12046TIP3    H136015   3.948   9.238   3.437
12046TIP3    H236016   3.878   9.246   3.567
12047TIP3   OH236017   3.935   9.335   3.712
12047TIP3    H136018   3.860   9.366   3.766
12047TIP3    H236019   3.985   9.420   3.701
12048TIP3   OH236020   2.546   9.093   4.530
12048TIP3    H136021   2.643   9.083   4.526
12048TIP3    H236022   2.521   9.008   4.569
12049TIP3   OH236023   4.389   8.950   4.279
12049TIP3    H136024   4.445   8.883   4.233
12049TIP3    H236025   4.357   9.004   4.204
12050TIP3   OH236026   3.816   8.787   3.033
12050TIP3    H136027   3.863   8.772   3.117
12050TIP3    H236028   3.755   8.711   3.032
12051TIP3   OH236029   2.516   8.768   3.836
12051TIP3    H136030   2.583   8.704   3.864
12051TIP3    H236031   2.564   8.852   3.842
12052TIP3   OH236032   2.317   9.054   3.935
12052TIP3    H136033   2.363   9.049   3.848
12052TIP3    H236034   2.329   9.147   3.956
12053TIP3   OH236035   4.258   9.088   4.088
12053TIP3    H136036   4.169   9.129   4.099
12053TIP3    H236037   4.234   9.018   4.024
12054TIP3   OH236038   3.898   8.722   2.669
12054TIP3    H136039   3.935   8.652   2.612
12054TIP3    H236040   3.963   8.794   2.659
12055TIP3   OH236041   2.301   8.551   3.425
12055TIP3    H136042   2.208   8.548   3.455
12055TIP3    H236043   2.296   8.609   3.347
12056TIP3   OH236044   2.516   8.619   4.233
12056TIP3    H136045   2.466   8.625   4.317
12056TIP3    H236046   2.456   8.671   4.175
12057TIP3   OH236047   4.156   8.854   3.963
12057TIP3    H136048   4.066   8.855   3.925
12057TIP3    H236049   4.183   8.760   3.947
12058TIP3   OH236050   3.366   8.766   3.578
12058TIP3    H136051   3.320   8.697   3.628
12058TIP3    H236052   3.440   8.718   3.536
12059TIP3   OH236053   3.885   8.641   3.490
12059TIP3    H136054   3.924   8.695   3.418
12059TIP3    H236055   3.791   8.667   3.485
12060TIP3   OH236056   3.979   8.745   3.253
12060TIP3    H136057   4.052   8.695   3.210
12060TIP3    H236058   4.011   8.837   3.238
12061TIP3   OH236059   2.611   8.478   3.597
12061TIP3    H136060   2.518   8.447   3.595
12061TIP3    H236061   2.658   8.392   3.596
12062TIP3   OH236062   2.404   8.346   3.248
12062TIP3    H136063   2.423   8.403   3.172
12062TIP3    H236064   2.368   8.410   3.313
12063TIP3   OH236065   3.030   8.535   3.445
12063TIP3    H136066   3.113   8.573   3.409
12063TIP3    H236067   3.044   8.555   3.540
12064TIP3   OH236068   3.599   8.654   3.463
12064TIP3    H136069   3.601   8.622   3.372
12064TIP3    H236070   3.584   8.570   3.513
12065TIP3   OH236071   3.630   8.577   3.024
12065TIP3    H136072   3.544   8.621   3.030
12065TIP3    H236073   3.612   8.492   3.070
12066TIP3   OH236074   2.508   8.501   3.008
12066TIP3    H136075   2.557   8.440   2.949
12066TIP3    H236076   2.580   8.558   3.042
12067TIP3   OH236077   3.027   8.675   3.128
12067TIP3    H136078   3.114   8.648   3.163
12067TIP3    H236079   3.039   8.773   3.139
12068TIP3   OH236080   2.819   8.751   4.482
12068TIP3    H136081   2.782   8.689   4.546
12068TIP3    H236082   2.912   8.756   4.513
12069TIP3   OH236083   3.066   8.751   4.606
12069TIP3    H136084   3.152   8.728   4.567
12069TIP3    H236085   3.055   8.681   4.673
12070TIP3   OH236086   3.891   8.814   4.395
12070TIP3    H136087   3.911   8.784   4.486
12070TIP3    H236088   3.979   8.810   4.353
12071TIP3   OH236089   4.074   9.259   2.910
12071TIP3    H136090   4.031   9.334   2.955
12071TIP3    H236091   3.998   9.202   2.890
12072TIP3   OH236092   5.906   9.283   3.079
12072TIP3    H136093   5.937   9.365   3.120
12072TIP3    H236094   5.930   9.299   2.985
12073TIP3   OH236095   5.307   9.469   3.109
12073TIP3    H136096   5.348   9.383   3.131
12073TIP3    H236097   5.270   9.449   3.021
12074TIP3   OH236098   4.645   9.124   3.079
12074TIP3    H136099   4.626   9.198   3.018
12074TIP3    H236100   4.597   9.051   3.033
12075TIP3   OH236101   5.339   9.213   2.703
12075TIP3    H136102   5.412   9.199   2.767
12075TIP3    H236103   5.389   9.250   2.628
12076TIP3   OH236104   4.268   9.309   3.199
12076TIP3    H136105   4.357   9.296   3.237
12076TIP3    H236106   4.281   9.278   3.108
12077TIP3   OH236107   4.742   9.530   2.948
12077TIP3    H136108   4.822   9.489   2.987
12077TIP3    H236109   4.684   9.453   2.931
12078TIP3   OH236110   5.991   9.485   3.252
12078TIP3    H136111   5.912   9.533   3.221
12078TIP3    H236112   5.999   9.518   3.343
12079TIP3   OH236113   4.644   9.105   3.512
12079TIP3    H136114   4.580   9.140   3.447
12079TIP3    H236115   4.592   9.113   3.596
12080TIP3   OH236116   5.548   9.220   2.874
12080TIP3    H136117   5.545   9.169   2.955
12080TIP3    H236118   5.601   9.299   2.900
12081TIP3   OH236119   4.512   9.217   3.297
12081TIP3    H136120   4.578   9.288   3.314
12081TIP3    H236121   4.556   9.173   3.221
12082TIP3   OH236122   5.701   9.186   3.247
12082TIP3    H136123   5.613   9.213   3.215
12082TIP3    H236124   5.760   9.217   3.175
12083TIP3   OH236125   5.000   8.829   3.229
12083TIP3    H136126   4.984   8.734   3.244
12083TIP3    H236127   4.921   8.867   3.275
12084TIP3   OH236128   4.888   9.345   2.225
12084TIP3    H136129   4.939   9.411   2.272
12084TIP3    H236130   4.953   9.309   2.162
12085TIP3   OH236131   5.538   9.709   3.354
12085TIP3    H136132   5.549   9.795   3.311
12085TIP3    H236133   5.446   9.686   3.323
12086TIP3   OH236134   5.631   8.773   2.330
12086TIP3    H136135   5.550   8.792   2.381
12086TIP3    H236136   5.642   8.856   2.280
12087TIP3   OH236137   5.758   9.676   3.542
12087TIP3    H136138   5.678   9.672   3.486
12087TIP3    H236139   5.783   9.581   3.542
12088TIP3   OH236140   4.760   8.903   3.357
12088TIP3    H136141   4.671   8.873   3.331
12088TIP3    H236142   4.737   8.987   3.400
12089TIP3   OH236143   5.292   9.021   3.551
12089TIP3    H136144   5.359   8.992   3.615
12089TIP3    H236145   5.208   8.999   3.596
12090TIP3   OH236146   5.536   9.439   3.474
12090TIP3    H136147   5.486   9.434   3.559
12090TIP3    H236148   5.503   9.521   3.435
12091TIP3   OH236149   4.908   8.952   2.328
12091TIP3    H136150   4.873   8.952   2.419
12091TIP3    H236151   4.867   8.869   2.295
12092TIP3   OH236152   4.709   9.403   3.348
12092TIP3    H136153   4.653   9.439   3.421
12092TIP3    H236154   4.711   9.481   3.291
12093TIP3   OH236155   4.577   9.305   2.891
12093TIP3    H136156   4.483   9.281   2.906
12093TIP3    H236157   4.590   9.269   2.801
12094TIP3   OH236158   5.076   9.394   2.620
12094TIP3    H136159   4.995   9.445   2.596
12094TIP3    H236160   5.117   9.377   2.533
12095TIP3   OH236161   5.244   9.659   3.695
12095TIP3    H136162   5.226   9.587   3.760
12095TIP3    H236163   5.334   9.685   3.722
12096TIP3   OH236164   5.214   9.410   2.858
12096TIP3    H136165   5.154   9.426   2.782
12096TIP3    H236166   5.258   9.330   2.821
12097TIP3   OH236167   4.442   9.428   3.710
12097TIP3    H136168   4.462   9.493   3.640
12097TIP3    H236169   4.491   9.350   3.681
12098TIP3   OH236170   4.561   8.928   2.297
12098TIP3    H136171   4.553   8.924   2.394
12098TIP3    H236172   4.482   8.979   2.274
12099TIP3   OH236173   4.099   8.970   3.165
12099TIP3    H136174   4.173   9.004   3.220
12099TIP3    H236175   4.143   8.938   3.085
12100TIP3   OH236176   4.078   8.949   2.684
12100TIP3    H136177   4.122   8.989   2.605
12100TIP3    H236178   4.018   9.022   2.709
12101TIP3   OH236179   5.283   9.656   3.302
12101TIP3    H136180   5.283   9.589   3.229
12101TIP3    H236181   5.209   9.619   3.355
12102TIP3   OH236182   4.901   9.120   2.950
12102TIP3    H136183   4.817   9.124   3.000
12102TIP3    H236184   4.966   9.138   3.020
12103TIP3   OH236185   4.335   9.189   2.955
12103TIP3    H136186   4.241   9.194   2.929
12103TIP3    H236187   4.359   9.097   2.933
12104TIP3   OH236188   4.608   9.179   2.647
12104TIP3    H136189   4.699   9.203   2.623
12104TIP3    H236190   4.556   9.204   2.567
12105TIP3   OH236191   5.391   9.206   3.156
12105TIP3    H136192   5.353   9.216   3.246
12105TIP3    H236193   5.327   9.143   3.117
12106TIP3   OH236194   4.441   9.199   2.427
12106TIP3    H136195   4.376   9.164   2.363
12106TIP3    H236196   4.488   9.264   2.372
12107TIP3   OH236197   4.980   9.431   3.045
12107TIP3    H136198   5.063   9.414   2.998
12107TIP3    H236199   5.004   9.419   3.138
12108TIP3   OH236200   4.507   8.944   2.927
12108TIP3    H136201   4.475   8.863   2.971
12108TIP3    H236202   4.553   8.909   2.849
12109TIP3   OH236203   4.974   9.336   3.343
12109TIP3    H136204   4.882   9.368   3.339
12109TIP3    H236205   5.022   9.408   3.388
12110TIP3   OH236206   5.154   9.066   2.295
12110TIP3    H136207   5.059   9.044   2.306
12110TIP3    H236208   5.158   9.162   2.316
12111TIP3   OH236209   5.224   9.325   2.383
12111TIP3    H136210   5.316   9.309   2.413
12111TIP3    H236211   5.234   9.410   2.337
12112TIP3   OH236212   4.986   9.681   3.818
12112TIP3    H136213   4.909   9.729   3.778
12112TIP3    H236214   5.030   9.649   3.738
12113TIP3   OH236215   5.662   9.384   2.243
12113TIP3    H136216   5.600   9.345   2.177
12113TIP3    H236217   5.674   9.471   2.203
12114TIP3   OH236218   4.495   9.152   3.738
12114TIP3    H136219   4.405   9.183   3.755
12114TIP3    H236220   4.515   9.099   3.817
12115TIP3   OH236221   5.315   9.262   3.417
12115TIP3    H136222   5.402   9.290   3.450
12115TIP3    H236223   5.300   9.178   3.465
12116TIP3   OH236224   5.199   9.007   2.575
12116TIP3    H136225   5.185   9.032   2.482
12116TIP3    H236226   5.240   9.087   2.613
12117TIP3   OH236227   4.896   9.185   2.679
12117TIP3    H136228   4.963   9.255   2.666
12117TIP3    H236229   4.894   9.178   2.777
12118TIP3   OH236230   5.148   9.500   3.485
12118TIP3    H136231   5.182   9.550   3.561
12118TIP3    H236232   5.203   9.420   3.485
12119TIP3   OH236233   5.033   8.914   2.783
12119TIP3    H136234   5.018   8.992   2.840
12119TIP3    H236235   5.093   8.951   2.715
12120TIP3   OH236236   4.545   8.911   2.573
12120TIP3    H136237   4.541   9.004   2.603
12120TIP3    H236238   4.641   8.895   2.581
12121TIP3   OH236239   5.803   9.408   3.469
12121TIP3    H136240   5.705   9.401   3.477
12121TIP3    H236241   5.816   9.368   3.382
12122TIP3   OH236242   5.440   9.585   2.839
12122TIP3    H136243   5.370   9.525   2.867
12122TIP3    H236244   5.516   9.557   2.894
12123TIP3   OH236245   4.100   9.106   2.459
12123TIP3    H136246   4.113   9.201   2.450
12123TIP3    H236247   4.013   9.090   2.421
12124TIP3   OH236248   4.496   8.823   3.332
12124TIP3    H136249   4.463   8.793   3.245
12124TIP3    H236250   4.482   8.744   3.388
12125TIP3   OH236251   4.471   9.727   3.935
12125TIP3    H136252   4.489   9.633   3.947
12125TIP3    H236253   4.463   9.763   4.026
12126TIP3   OH236254   4.805   9.541   3.604
12126TIP3    H136255   4.709   9.557   3.615
12126TIP3    H236256   4.813   9.554   3.509
12127TIP3   OH236257   4.615   9.336   2.266
12127TIP3    H136258   4.587   9.279   2.190
12127TIP3    H236259   4.713   9.327   2.264
12128TIP3   OH236260   4.915   9.364   3.773
12128TIP3    H136261   4.911   9.284   3.718
12128TIP3    H236262   4.879   9.430   3.710
12129TIP3   OH236263   4.902   9.178   3.564
12129TIP3    H136264   4.932   9.223   3.482
12129TIP3    H236265   4.808   9.159   3.542
12130TIP3   OH236266   5.519   9.695   3.812
12130TIP3    H136267   5.538   9.601   3.828
12130TIP3    H236268   5.606   9.726   3.784
12131TIP3   OH236269   4.777   9.505   3.993
12131TIP3    H136270   4.704   9.440   3.993
12131TIP3    H236271   4.811   9.496   3.902
12132TIP3   OH236272   5.033   8.946   3.630
12132TIP3    H136273   4.986   9.029   3.605
12132TIP3    H236274   4.964   8.879   3.616
12133TIP3   OH236275   5.169   9.440   3.847
12133TIP3    H136276   5.153   9.443   3.943
12133TIP3    H236277   5.079   9.412   3.818
12134TIP3   OH236278   5.404   9.401   3.705
12134TIP3    H136279   5.324   9.396   3.762
12134TIP3    H236280   5.474   9.366   3.763
12135TIP3   OH236281   5.631   9.344   3.857
12135TIP3    H136282   5.643   9.248   3.872
12135TIP3    H236283   5.627   9.381   3.947
12136TIP3   OH236284   4.608   9.290   4.036
12136TIP3    H136285   4.618   9.202   3.996
12136TIP3    H236286   4.644   9.273   4.126
12137TIP3   OH236287   5.126   8.957   3.887
12137TIP3    H136288   5.194   8.887   3.880
12137TIP3    H236289   5.087   8.952   3.798
12138TIP3   OH236290   5.191   9.171   4.046
12138TIP3    H136291   5.170   9.101   3.980
12138TIP3    H236292   5.115   9.232   4.035
12139TIP3   OH236293   5.491   9.313   2.038
12139TIP3    H136294   5.476   9.330   1.945
12139TIP3    H236295   5.471   9.216   2.042
12140TIP3   OH236296   5.532   9.561   2.584
12140TIP3    H136297   5.534   9.464   2.593
12140TIP3    H236298   5.508   9.588   2.675
12141TIP3   OH236299   5.968   9.834   3.473
12141TIP3    H136300   5.893   9.776   3.497
12141TIP3    H236301   6.042   9.770   3.476
12142TIP3   OH236302   5.441   9.047   2.033
12142TIP3    H136303   5.519   9.011   2.080
12142TIP3    H236304   5.371   8.983   2.054
12143TIP3   OH236305   5.491   9.287   2.479
12143TIP3    H136306   5.535   9.199   2.494
12143TIP3    H236307   5.551   9.324   2.413
12144TIP3   OH236308   5.660   9.467   2.966
12144TIP3    H136309   5.745   9.496   2.925
12144TIP3    H236310   5.677   9.503   3.056
12145TIP3   OH236311   5.740   9.596   3.199
12145TIP3    H136312   5.664   9.627   3.252
12145TIP3    H236313   5.788   9.680   3.182
12146TIP3   OH236314   4.336   9.348   4.011
12146TIP3    H136315   4.433   9.342   4.000
12146TIP3    H236316   4.317   9.262   4.052
12147TIP3   OH236317   6.181   9.204   3.765
12147TIP3    H136318   6.240   9.139   3.722
12147TIP3    H236319   6.156   9.261   3.689
12148TIP3   OH236320   5.610   9.044   2.519
12148TIP3    H136321   5.658   9.029   2.603
12148TIP3    H236322   5.550   8.967   2.518
12149TIP3   OH236323   4.306   9.027   3.343
12149TIP3    H136324   4.374   8.957   3.350
12149TIP3    H236325   4.361   9.106   3.332
12150TIP3   OH236326   4.111   9.312   3.421
12150TIP3    H136327   4.158   9.304   3.335
12150TIP3    H236328   4.132   9.404   3.443
12151TIP3   OH236329   6.055   9.348   3.569
12151TIP3    H136330   5.964   9.383   3.581
12151TIP3    H236331   6.035   9.273   3.510
12152TIP3   OH236332   5.689   8.983   2.148
12152TIP3    H136333   5.730   8.909   2.099
12152TIP3    H236334   5.759   9.051   2.145
12153TIP3   OH236335   4.096   8.809   2.914
12153TIP3    H136336   4.002   8.807   2.938
12153TIP3    H236337   4.095   8.866   2.834
12154TIP3   OH236338   4.312   8.879   3.725
12154TIP3    H136339   4.263   8.887   3.809
12154TIP3    H236340   4.251   8.925   3.664
12155TIP3   OH236341   5.951   9.108   3.449
12155TIP3    H136342   5.861   9.100   3.414
12155TIP3    H236343   5.984   9.015   3.436
12156TIP3   OH236344   5.165   9.025   3.073
12156TIP3    H136345   5.115   8.956   3.120
12156TIP3    H236346   5.230   8.974   3.022
12157TIP3   OH236347   5.681   8.906   2.975
12157TIP3    H136348   5.717   8.956   2.898
12157TIP3    H236349   5.585   8.921   2.965
12158TIP3   OH236350   5.775   9.004   2.737
12158TIP3    H136351   5.848   8.952   2.697
12158TIP3    H236352   5.809   9.095   2.721
12159TIP3   OH236353   4.405   8.732   3.085
12159TIP3    H136354   4.313   8.699   3.083
12159TIP3    H236355   4.454   8.647   3.081
12160TIP3   OH236356   4.195   8.600   2.734
12160TIP3    H136357   4.224   8.656   2.660
12160TIP3    H236358   4.164   8.666   2.799
12161TIP3   OH236359   4.850   8.763   2.964
12161TIP3    H136360   4.907   8.813   2.904
12161TIP3    H236361   4.868   8.805   3.049
12162TIP3   OH236362   5.399   8.910   2.947
12162TIP3    H136363   5.394   8.873   2.858
12162TIP3    H236364   5.385   8.830   3.002
12163TIP3   OH236365   5.426   8.833   2.510
12163TIP3    H136366   5.339   8.875   2.523
12163TIP3    H236367   5.412   8.747   2.556
12164TIP3   OH236368   4.309   8.762   2.495
12164TIP3    H136369   4.358   8.699   2.438
12164TIP3    H236370   4.382   8.816   2.531
12165TIP3   OH236371   4.822   8.937   2.592
12165TIP3    H136372   4.882   8.891   2.653
12165TIP3    H236373   4.842   9.030   2.618
12166TIP3   OH236374   4.611   9.006   3.975
12166TIP3    H136375   4.580   8.937   4.036
12166TIP3    H236376   4.705   9.012   4.001
12167TIP3   OH236377   4.862   9.012   4.096
12167TIP3    H136378   4.945   8.987   4.051
12167TIP3    H236379   4.851   8.938   4.159
12168TIP3   OH236380   5.687   9.073   3.882
12168TIP3    H136381   5.708   9.040   3.972
12168TIP3    H236382   5.775   9.067   3.838
12169TIP3   OH236383   5.869   9.517   2.396
12169TIP3    H136384   5.826   9.590   2.442
12169TIP3    H236385   5.794   9.457   2.378
12170TIP3   OH236386   7.102   9.735   2.604
12170TIP3    H136387   7.143   9.649   2.622
12170TIP3    H236388   7.074   9.723   2.511
12171TIP3   OH236389   6.440   9.382   2.567
12171TIP3    H136390   6.423   9.456   2.505
12171TIP3    H236391   6.392   9.310   2.521
12172TIP3   OH236392   7.133   9.467   2.199
12172TIP3    H136393   7.205   9.452   2.265
12172TIP3    H236394   7.186   9.507   2.129
12173TIP3   OH236395   6.064   9.567   2.685
12173TIP3    H136396   6.153   9.556   2.723
12173TIP3    H236397   6.079   9.533   2.595
12174TIP3   OH236398   6.516   9.777   2.475
12174TIP3    H136399   6.608   9.747   2.487
12174TIP3    H236400   6.474   9.702   2.430
12175TIP3   OH236401   6.437   9.366   3.003
12175TIP3    H136402   6.378   9.398   2.932
12175TIP3    H236403   6.383   9.386   3.082
12176TIP3   OH236404   7.353   9.473   2.364
12176TIP3    H136405   7.335   9.418   2.441
12176TIP3    H236406   7.434   9.521   2.389
12177TIP3   OH236407   6.307   9.473   2.786
12177TIP3    H136408   6.365   9.550   2.801
12177TIP3    H236409   6.355   9.432   2.710
12178TIP3   OH236410   7.495   9.448   2.725
12178TIP3    H136411   7.401   9.467   2.712
12178TIP3    H236412   7.533   9.471   2.638
12179TIP3   OH236413   6.795   9.085   2.715
12179TIP3    H136414   6.781   8.990   2.732
12179TIP3    H236415   6.717   9.123   2.761
12180TIP3   OH236416   6.678   9.601   1.705
12180TIP3    H136417   6.728   9.659   1.763
12180TIP3    H236418   6.747   9.563   1.647
12181TIP3   OH236419   7.420   9.027   1.811
12181TIP3    H136420   7.342   9.040   1.870
12181TIP3    H236421   7.432   9.116   1.776
12182TIP3   OH236422   6.555   9.159   2.844
12182TIP3    H136423   6.465   9.130   2.819
12182TIP3    H236424   6.533   9.244   2.886
12183TIP3   OH236425   7.088   9.279   3.038
12183TIP3    H136426   7.156   9.248   3.101
12183TIP3    H236427   7.004   9.255   3.083
12184TIP3   OH236428   7.338   9.706   2.960
12184TIP3    H136429   7.289   9.699   3.045
12184TIP3    H236430   7.290   9.775   2.914
12185TIP3   OH236431   6.702   9.210   1.815
12185TIP3    H136432   6.669   9.207   1.907
12185TIP3    H236433   6.664   9.126   1.781
12186TIP3   OH236434   6.474   9.679   2.843
12186TIP3    H136435   6.426   9.697   2.926
12186TIP3    H236436   6.468   9.763   2.795
12187TIP3   OH236437   6.371   9.560   2.375
12187TIP3    H136438   6.278   9.534   2.391
12187TIP3    H236439   6.385   9.523   2.285
12188TIP3   OH236440   6.867   9.641   2.103
12188TIP3    H136441   6.796   9.706   2.083
12188TIP3    H236442   6.913   9.631   2.018
12189TIP3   OH236443   7.037   9.920   3.189
12189TIP3    H136444   7.019   9.844   3.249
12189TIP3    H236445   7.132   9.932   3.203
12190TIP3   OH236446   7.002   9.667   2.354
12190TIP3    H136447   6.955   9.700   2.276
12190TIP3    H236448   7.045   9.589   2.314
12191TIP3   OH236449   6.315   9.705   3.089
12191TIP3    H136450   6.297   9.747   3.174
12191TIP3    H236451   6.289   9.613   3.109
12192TIP3   OH236452   6.358   9.184   1.783
12192TIP3    H136453   6.350   9.181   1.880
12192TIP3    H236454   6.278   9.234   1.759
12193TIP3   OH236455   5.897   9.229   2.650
12193TIP3    H136456   5.971   9.261   2.706
12193TIP3    H236457   5.942   9.193   2.572
12194TIP3   OH236458   5.872   9.204   2.172
12194TIP3    H136459   5.916   9.244   2.094
12194TIP3    H236460   5.813   9.278   2.197
12195TIP3   OH236461   7.047   9.926   2.800
12195TIP3    H136462   7.071   9.869   2.724
12195TIP3    H236463   6.991   9.864   2.851
12196TIP3   OH236464   6.697   9.374   2.437
12196TIP3    H136465   6.615   9.380   2.490
12196TIP3    H236466   6.763   9.400   2.503
12197TIP3   OH236467   6.131   9.444   2.442
12197TIP3    H136468   6.037   9.448   2.415
12197TIP3    H236469   6.158   9.353   2.421
12198TIP3   OH236470   6.403   9.434   2.133
12198TIP3    H136471   6.496   9.456   2.112
12198TIP3    H236472   6.354   9.462   2.053
12199TIP3   OH236473   7.190   9.461   2.647
12199TIP3    H136474   7.147   9.475   2.734
12199TIP3    H236475   7.125   9.402   2.604
12200TIP3   OH236476   6.234   9.456   1.912
12200TIP3    H136477   6.172   9.420   1.846
12200TIP3    H236478   6.284   9.521   1.858
12201TIP3   OH236479   6.775   9.687   2.526
12201TIP3    H136480   6.858   9.681   2.476
12201TIP3    H236481   6.804   9.677   2.617
12202TIP3   OH236482   6.301   9.202   2.413
12202TIP3    H136483   6.271   9.120   2.458
12202TIP3    H236484   6.353   9.168   2.339
12203TIP3   OH236485   6.753   9.596   2.838
12203TIP3    H136486   6.669   9.643   2.824
12203TIP3    H236487   6.810   9.665   2.878
12204TIP3   OH236488   6.950   9.319   1.790
12204TIP3    H136489   6.854   9.293   1.795
12204TIP3    H236490   6.948   9.415   1.803
12205TIP3   OH236491   7.022   9.584   1.864
12205TIP3    H136492   7.112   9.550   1.879
12205TIP3    H236493   7.037   9.650   1.796
12206TIP3   OH236494   6.778   9.936   3.299
12206TIP3    H136495   6.704   9.988   3.260
12206TIP3    H236496   6.834   9.919   3.221
12207TIP3   OH236497   6.274   9.447   3.217
12207TIP3    H136498   6.177   9.447   3.229
12207TIP3    H236499   6.303   9.385   3.286
12208TIP3   OH236500   7.111   9.522   2.908
12208TIP3    H136501   7.199   9.546   2.939
12208TIP3    H236502   7.095   9.437   2.953
12209TIP3   OH236503   6.995   9.260   2.065
12209TIP3    H136504   6.982   9.285   1.971
12209TIP3    H236505   7.036   9.340   2.103
12210TIP3   OH236506   6.687   9.441   2.167
12210TIP3    H136507   6.757   9.509   2.152
12210TIP3    H236508   6.690   9.433   2.265
12211TIP3   OH236509   6.940   9.748   2.978
12211TIP3    H136510   6.978   9.802   3.050
12211TIP3    H236511   7.000   9.671   2.974
12212TIP3   OH236512   6.828   9.169   2.270
12212TIP3    H136513   6.815   9.247   2.328
12212TIP3    H236514   6.889   9.206   2.203
12213TIP3   OH236515   6.341   9.167   2.059
12213TIP3    H136516   6.338   9.260   2.090
12213TIP3    H236517   6.437   9.151   2.067
12214TIP3   OH236518   7.614   9.665   2.931
12214TIP3    H136519   7.521   9.683   2.956
12214TIP3    H236520   7.601   9.612   2.852
12215TIP3   OH236521   5.894   9.365   1.953
12215TIP3    H136522   5.915   9.457   1.933
12215TIP3    H236523   5.819   9.346   1.895
12216TIP3   OH236524   6.290   9.081   2.820
12216TIP3    H136525   6.259   9.048   2.732
12216TIP3    H236526   6.279   9.001   2.876
12217TIP3   OH236527   6.270   9.967   3.425
12217TIP3    H136528   6.319   9.890   3.457
12217TIP3    H236529   6.256  10.020   3.506
12218TIP3   OH236530   6.590   9.813   3.068
12218TIP3    H136531   6.495   9.829   3.080
12218TIP3    H236532   6.603   9.824   2.972
12219TIP3   OH236533   6.408   9.589   1.751
12219TIP3    H136534   6.380   9.533   1.677
12219TIP3    H236535   6.506   9.580   1.749
12220TIP3   OH236536   6.694   9.636   3.251
12220TIP3    H136537   6.701   9.554   3.198
12220TIP3    H236538   6.662   9.698   3.182
12221TIP3   OH236539   6.696   9.434   3.054
12221TIP3    H136540   6.724   9.482   2.972
12221TIP3    H236541   6.603   9.414   3.033
12222TIP3   OH236542   7.325   9.952   3.308
12222TIP3    H136543   7.337   9.856   3.317
12222TIP3    H236544   7.406   9.975   3.262
12223TIP3   OH236545   6.557   9.771   3.468
12223TIP3    H136546   6.500   9.692   3.476
12223TIP3    H236547   6.606   9.751   3.385
12224TIP3   OH236548   6.830   9.203   3.117
12224TIP3    H136549   6.782   9.285   3.092
12224TIP3    H236550   6.761   9.135   3.103
12225TIP3   OH236551   6.959   9.697   3.331
12225TIP3    H136552   6.944   9.691   3.427
12225TIP3    H236553   6.867   9.678   3.301
12226TIP3   OH236554   7.201   9.668   3.191
12226TIP3    H136555   7.121   9.652   3.246
12226TIP3    H236556   7.272   9.628   3.247
12227TIP3   OH236557   7.419   9.599   3.345
12227TIP3    H136558   7.434   9.503   3.359
12227TIP3    H236559   7.422   9.635   3.436
12228TIP3   OH236560   6.406   9.546   3.525
12228TIP3    H136561   6.414   9.457   3.487
12228TIP3    H236562   6.445   9.532   3.614
12229TIP3   OH236563   6.922   9.214   3.374
12229TIP3    H136564   6.990   9.144   3.367
12229TIP3    H236565   6.883   9.209   3.285
12230TIP3   OH236566   6.988   9.429   3.532
12230TIP3    H136567   6.967   9.358   3.467
12230TIP3    H236568   6.911   9.488   3.524
12231TIP3   OH236569   7.223   9.329   1.536
12231TIP3    H136570   7.312   9.298   1.560
12231TIP3    H236571   7.169   9.249   1.536
12232TIP3   OH236572   6.138   9.610   3.502
12232TIP3    H136573   6.235   9.598   3.497
12232TIP3    H236574   6.114   9.523   3.539
12233TIP3   OH236575   7.962   9.472   3.231
12233TIP3    H136576   8.015   9.389   3.214
12233TIP3    H236577   7.923   9.486   3.143
12234TIP3   OH236578   7.371   9.315   2.027
12234TIP3    H136579   7.437   9.295   2.096
12234TIP3    H236580   7.325   9.229   2.018
12235TIP3   OH236581   6.101   9.285   2.832
12235TIP3    H136582   6.168   9.213   2.838
12235TIP3    H236583   6.159   9.362   2.819
12236TIP3   OH236584   5.907   9.571   2.906
12236TIP3    H136585   5.954   9.558   2.821
12236TIP3    H236586   5.932   9.662   2.926
12237TIP3   OH236587   5.891   9.065   2.402
12237TIP3    H136588   5.797   9.063   2.427
12237TIP3    H236589   5.891   9.122   2.322
12238TIP3   OH236590   6.112   9.149   3.216
12238TIP3    H136591   6.058   9.142   3.297
12238TIP3    H236592   6.046   9.185   3.153
12239TIP3   OH236593   7.755   9.362   2.948
12239TIP3    H136594   7.671   9.371   2.901
12239TIP3    H236595   7.785   9.274   2.917
12240TIP3   OH236596   6.962   9.281   2.560
12240TIP3    H136597   6.911   9.212   2.606
12240TIP3    H236598   7.027   9.230   2.509
12241TIP3   OH236599   7.475   9.170   2.459
12241TIP3    H136600   7.512   9.217   2.382
12241TIP3    H236601   7.379   9.180   2.446
12242TIP3   OH236602   7.575   9.274   2.221
12242TIP3    H136603   7.638   9.208   2.182
12242TIP3    H236604   7.626   9.355   2.210
12243TIP3   OH236605   6.201   8.988   2.572
12243TIP3    H136606   6.110   8.954   2.571
12243TIP3    H236607   6.252   8.904   2.568
12244TIP3   OH236608   5.986   8.858   2.218
12244TIP3    H136609   6.019   8.915   2.146
12244TIP3    H236610   5.960   8.923   2.285
12245TIP3   OH236611   6.645   9.021   2.451
12245TIP3    H136612   6.702   9.071   2.391
12245TIP3    H236613   6.668   9.060   2.536
12246TIP3   OH236614   7.196   9.167   2.432
12246TIP3    H136615   7.190   9.128   2.344
12246TIP3    H236616   7.181   9.087   2.489
12247TIP3   OH236617   7.219   9.083   1.995
12247TIP3    H136618   7.133   9.126   2.008
12247TIP3    H236619   7.204   8.998   2.043
12248TIP3   OH236620   6.105   9.019   1.981
12248TIP3    H136621   6.154   8.955   1.925
12248TIP3    H236622   6.179   9.073   2.018
12249TIP3   OH236623   6.618   9.193   2.080
12249TIP3    H136624   6.678   9.147   2.141
12249TIP3    H236625   6.637   9.286   2.106
12250TIP3   OH236626   6.408   9.270   3.464
12250TIP3    H136627   6.378   9.197   3.521
12250TIP3    H236628   6.503   9.271   3.488
12251TIP3   OH236629   6.658   9.268   3.581
12251TIP3    H136630   6.742   9.243   3.538
12251TIP3    H236631   6.647   9.196   3.646
12252TIP3   OH236632   7.482   9.329   3.369
12252TIP3    H136633   7.504   9.297   3.459
12252TIP3    H236634   7.568   9.322   3.323
12253TIP3   OH236635   2.191   0.686   7.833
12253TIP3    H136636   2.253   0.610   7.837
12253TIP3    H236637   2.234   0.752   7.893
12254TIP3   OH236638   1.843   1.090   7.865
12254TIP3    H136639   1.883   1.023   7.805
12254TIP3    H236640   1.886   1.068   7.948
12255TIP3   OH236641   2.265   0.877   8.007
12255TIP3    H136642   2.198   0.916   8.065
12255TIP3    H236643   2.315   0.957   7.979
12256TIP3   OH236644   1.975   0.936   7.680
12256TIP3    H136645   2.022   0.852   7.666
12256TIP3    H236646   2.042   1.000   7.647
12257TIP3   OH236647   2.080   0.698   7.587
12257TIP3    H136648   2.121   0.637   7.522
12257TIP3    H236649   2.140   0.688   7.665
12258TIP3   OH236650   2.521   0.779   8.375
12258TIP3    H136651   2.488   0.706   8.320
12258TIP3    H236652   2.481   0.856   8.328
12259TIP3   OH236653   2.721   0.454   8.207
12259TIP3    H136654   2.626   0.472   8.215
12259TIP3    H236655   2.736   0.471   8.112
12260TIP3   OH236656   2.287   0.749   7.005
12260TIP3    H136657   2.321   0.840   6.992
12260TIP3    H236658   2.367   0.696   7.028
12261TIP3   OH236659   2.745   1.145   8.405
12261TIP3    H136660   2.743   1.048   8.416
12261TIP3    H236661   2.659   1.169   8.446
12262TIP3   OH236662   1.583   1.062   7.485
12262TIP3    H136663   1.578   1.055   7.388
12262TIP3    H236664   1.573   1.158   7.501
12263TIP3   OH236665   1.816   0.957   7.133
12263TIP3    H136666   1.875   0.888   7.094
12263TIP3    H236667   1.854   0.966   7.222
12264TIP3   OH236668   1.859   1.022   7.409
12264TIP3    H136669   1.776   1.008   7.460
12264TIP3    H236670   1.926   1.004   7.477
12265TIP3   OH236671   2.430   1.491   8.499
12265TIP3    H136672   2.422   1.513   8.404
12265TIP3    H236673   2.501   1.550   8.527
12266TIP3   OH236674   2.459   0.573   8.188
12266TIP3    H136675   2.513   0.625   8.123
12266TIP3    H236676   2.370   0.592   8.154
12267TIP3   OH236677   2.764   0.858   8.448
12267TIP3    H136678   2.667   0.843   8.438
12267TIP3    H236679   2.791   0.825   8.359
12268TIP3   OH236680   2.233   0.810   7.272
12268TIP3    H136681   2.225   0.726   7.319
12268TIP3    H236682   2.245   0.778   7.180
12269TIP3   OH236683   2.010   0.550   7.168
12269TIP3    H136684   2.052   0.524   7.253
12269TIP3    H236685   1.915   0.541   7.188
12270TIP3   OH236686   2.267   1.198   8.346
12270TIP3    H136687   2.193   1.137   8.325
12270TIP3    H236688   2.260   1.259   8.270
12271TIP3   OH236689   2.338   1.024   6.995
12271TIP3    H136690   2.378   1.101   6.952
12271TIP3    H236691   2.254   1.064   7.025
12272TIP3   OH236692   2.162   0.501   7.403
12272TIP3    H136693   2.160   0.421   7.462
12272TIP3    H236694   2.240   0.479   7.350
12273TIP3   OH236695   1.975   0.773   7.001
12273TIP3    H136696   2.013   0.704   7.059
12273TIP3    H236697   2.039   0.772   6.928
12274TIP3   OH236698   2.573   1.289   8.197
12274TIP3    H136699   2.533   1.242   8.119
12274TIP3    H236700   2.632   1.221   8.231
12275TIP3   OH236701   2.571   0.297   7.592
12275TIP3    H136702   2.476   0.317   7.605
12275TIP3    H236703   2.614   0.376   7.628
12276TIP3   OH236704   2.615   0.715   8.012
12276TIP3    H136705   2.667   0.651   7.959
12276TIP3    H236706   2.613   0.792   7.951
12277TIP3   OH236707   2.436   0.992   8.239
12277TIP3    H136708   2.393   1.075   8.262
12277TIP3    H236709   2.438   1.002   8.141
12278TIP3   OH236710   2.647   0.601   8.585
12278TIP3    H136711   2.729   0.549   8.587
12278TIP3    H236712   2.668   0.674   8.525
12279TIP3   OH236713   2.845   0.409   8.603
12279TIP3    H136714   2.772   0.346   8.611
12279TIP3    H236715   2.923   0.353   8.608
12280TIP3   OH236716   2.122   1.123   7.552
12280TIP3    H136717   2.175   1.107   7.471
12280TIP3    H236718   2.185   1.175   7.606
12281TIP3   OH236719   2.019   1.365   8.456
12281TIP3    H136720   2.082   1.295   8.437
12281TIP3    H236721   2.065   1.409   8.531
12282TIP3   OH236722   1.774   1.222   8.158
12282TIP3    H136723   1.706   1.238   8.091
12282TIP3    H236724   1.773   1.306   8.210
12283TIP3   OH236725   2.028   1.147   8.201
12283TIP3    H136726   1.938   1.181   8.186
12283TIP3    H236727   2.083   1.219   8.163
12284TIP3   OH236728   2.217   1.342   8.116
12284TIP3    H136729   2.204   1.427   8.069
12284TIP3    H236730   2.271   1.292   8.050
12285TIP3   OH236731   1.552   0.947   7.202
12285TIP3    H136732   1.647   0.967   7.185
12285TIP3    H236733   1.545   0.866   7.148
12286TIP3   OH236734   2.267   1.078   7.319
12286TIP3    H136735   2.259   0.981   7.305
12286TIP3    H236736   2.227   1.112   7.237
12287TIP3   OH236737   2.495   1.224   8.507
12287TIP3    H136738   2.419   1.189   8.456
12287TIP3    H236739   2.476   1.319   8.503
12288TIP3   OH236740   3.763   0.600   7.272
12288TIP3    H136741   3.735   0.691   7.250
12288TIP3    H236742   3.687   0.550   7.238
12289TIP3   OH236743   3.768   0.597   7.649
12289TIP3    H136744   3.791   0.561   7.736
12289TIP3    H236745   3.719   0.523   7.611
12290TIP3   OH236746   3.063   0.496   8.012
12290TIP3    H136747   3.101   0.433   8.075
12290TIP3    H236748   3.136   0.558   8.002
12291TIP3   OH236749   4.008   0.898   7.333
12291TIP3    H136750   3.986   0.829   7.398
12291TIP3    H236751   4.032   0.973   7.390
12292TIP3   OH236752   3.038   0.907   7.746
12292TIP3    H136753   3.025   0.810   7.747
12292TIP3    H236754   3.134   0.911   7.735
12293TIP3   OH236755   2.737   0.091   7.536
12293TIP3    H136756   2.698   0.178   7.562
12293TIP3    H236757   2.658   0.053   7.497
12294TIP3   OH236758   2.816   0.405   7.701
12294TIP3    H136759   2.859   0.323   7.735
12294TIP3    H236760   2.859   0.417   7.616
12295TIP3   OH236761   3.651   1.360   7.348
12295TIP3    H136762   3.703   1.290   7.304
12295TIP3    H236763   3.650   1.329   7.440
12296TIP3   OH236764   3.559   0.822   7.704
12296TIP3    H136765   3.594   0.749   7.650
12296TIP3    H236766   3.644   0.867   7.726
12297TIP3   OH236767   3.977   0.333   7.735
12297TIP3    H136768   4.005   0.244   7.757
12297TIP3    H236769   3.941   0.321   7.644
12298TIP3   OH236770   2.949   0.184   7.805
12298TIP3    H136771   3.022   0.155   7.863
12298TIP3    H236772   2.967   0.129   7.726
12299TIP3   OH236773   3.386   0.386   7.601
12299TIP3    H136774   3.476   0.352   7.618
12299TIP3    H236775   3.339   0.304   7.571
12300TIP3   OH236776   4.621   0.326   7.887
12300TIP3    H136777   4.558   0.397   7.865
12300TIP3    H236778   4.667   0.361   7.966
12301TIP3   OH236779   3.661   0.823   7.139
12301TIP3    H136780   3.610   0.796   7.061
12301TIP3    H236781   3.614   0.906   7.163
12302TIP3   OH236782   3.417   0.744   7.934
12302TIP3    H136783   3.350   0.808   7.968
12302TIP3    H236784   3.453   0.793   7.857
12303TIP3   OH236785   3.197   0.079   7.907
12303TIP3    H136786   3.251   0.158   7.927
12303TIP3    H236787   3.223   0.059   7.816
12304TIP3   OH236788   3.244   0.937   8.028
12304TIP3    H136789   3.217   1.021   7.985
12304TIP3    H236790   3.164   0.921   8.083
12305TIP3   OH236791   2.677   0.622   7.272
12305TIP3    H136792   2.593   0.588   7.234
12305TIP3    H236793   2.655   0.711   7.299
12306TIP3   OH236794   4.081   1.142   7.504
12306TIP3    H136795   3.992   1.135   7.546
12306TIP3    H236796   4.064   1.210   7.437
12307TIP3   OH236797   3.785   1.186   7.186
12307TIP3    H136798   3.832   1.105   7.157
12307TIP3    H236799   3.837   1.253   7.136
12308TIP3   OH236800   3.924   0.972   7.079
12308TIP3    H136801   3.870   0.898   7.050
12308TIP3    H236802   3.959   0.938   7.164
12309TIP3   OH236803   4.303   1.055   7.848
12309TIP3    H136804   4.291   0.980   7.786
12309TIP3    H236805   4.282   1.131   7.790
12310TIP3   OH236806   3.596   0.451   7.103
12310TIP3    H136807   3.512   0.498   7.086
12310TIP3    H236808   3.634   0.446   7.014
12311TIP3   OH236809   3.547   0.241   6.823
12311TIP3    H136810   3.625   0.282   6.864
12311TIP3    H236811   3.591   0.169   6.773
12312TIP3   OH236812   4.498   0.692   7.693
12312TIP3    H136813   4.414   0.743   7.696
12312TIP3    H236814   4.527   0.714   7.602
12313TIP3   OH236815   3.941   0.533   7.075
12313TIP3    H136816   3.885   0.559   7.152
12313TIP3    H236817   4.023   0.506   7.120
12314TIP3   OH236818   4.174   0.578   7.980
12314TIP3    H136819   4.169   0.666   8.023
12314TIP3    H236820   4.088   0.579   7.932
12315TIP3   OH236821   3.174   0.531   7.489
12315TIP3    H136822   3.129   0.474   7.422
12315TIP3    H236823   3.248   0.473   7.517
12316TIP3   OH236824   3.303   0.943   7.638
12316TIP3    H136825   3.279   0.900   7.555
12316TIP3    H236826   3.392   0.907   7.655
12317TIP3   OH236827   3.324   0.494   7.852
12317TIP3    H136828   3.343   0.477   7.758
12317TIP3    H236829   3.355   0.586   7.864
12318TIP3   OH236830   3.840   1.139   7.622
12318TIP3    H136831   3.820   1.221   7.669
12318TIP3    H236832   3.819   1.069   7.687
12319TIP3   OH236833   3.445   1.056   8.173
12319TIP3    H136834   3.384   1.121   8.215
12319TIP3    H236835   3.381   1.004   8.120
12320TIP3   OH236836   3.790   0.377   6.904
12320TIP3    H136837   3.845   0.439   6.956
12320TIP3    H236838   3.812   0.405   6.812
12321TIP3   OH236839   3.194   0.623   8.266
12321TIP3    H136840   3.198   0.708   8.314
12321TIP3    H236841   3.100   0.599   8.280
12322TIP3   OH236842   3.528   1.068   7.175
12322TIP3    H136843   3.601   1.128   7.198
12322TIP3    H236844   3.462   1.129   7.138
12323TIP3   OH236845   3.243   1.228   8.258
12323TIP3    H136846   3.209   1.226   8.167
12323TIP3    H236847   3.162   1.204   8.310
12324TIP3   OH236848   3.040   0.380   7.293
12324TIP3    H136849   2.974   0.424   7.236
12324TIP3    H236850   3.000   0.293   7.306
12325TIP3   OH236851   4.095   0.998   6.495
12325TIP3    H136852   4.103   1.096   6.483
12325TIP3    H236853   4.188   0.970   6.483
12326TIP3   OH236854   2.825   0.756   8.203
12326TIP3    H136855   2.754   0.742   8.136
12326TIP3    H236856   2.854   0.664   8.219
12327TIP3   OH236857   2.670   0.938   7.848
12327TIP3    H136858   2.761   0.970   7.839
12327TIP3    H236859   2.624   1.015   7.886
12328TIP3   OH236860   4.539   1.402   7.894
12328TIP3    H136861   4.535   1.305   7.902
12328TIP3    H236862   4.454   1.426   7.936
12329TIP3   OH236863   3.648   1.183   8.031
12329TIP3    H136864   3.645   1.277   8.059
12329TIP3    H236865   3.572   1.146   8.081
12330TIP3   OH236866   3.406   1.318   6.977
12330TIP3    H136867   3.357   1.297   6.896
12330TIP3    H236868   3.372   1.406   7.001
12331TIP3   OH236869   2.847   1.169   7.361
12331TIP3    H136870   2.889   1.158   7.448
12331TIP3    H236871   2.794   1.086   7.356
12332TIP3   OH236872   3.608   1.219   6.617
12332TIP3    H136873   3.666   1.147   6.583
12332TIP3    H236874   3.639   1.227   6.709
12333TIP3   OH236875   3.656   1.264   6.884
12333TIP3    H136876   3.569   1.274   6.929
12333TIP3    H236877   3.711   1.231   6.957
12334TIP3   OH236878   4.431   0.529   8.179
12334TIP3    H136879   4.356   0.560   8.126
12334TIP3    H236880   4.446   0.440   8.145
12335TIP3   OH236881   3.028   0.939   8.193
12335TIP3    H136882   3.075   0.922   8.277
12335TIP3    H236883   2.953   0.876   8.198
12336TIP3   OH236884   4.112   0.400   8.188
12336TIP3    H136885   4.136   0.309   8.163
12336TIP3    H236886   4.119   0.448   8.103
12337TIP3   OH236887   3.863   0.429   6.645
12337TIP3    H136888   3.825   0.410   6.558
12337TIP3    H236889   3.934   0.491   6.621
12338TIP3   OH236890   3.368   0.272   8.000
12338TIP3    H136891   3.311   0.294   8.077
12338TIP3    H236892   3.354   0.353   7.944
12339TIP3   OH236893   3.231   0.183   7.504
12339TIP3    H136894   3.151   0.135   7.532
12339TIP3    H236895   3.251   0.139   7.419
12340TIP3   OH236896   3.738   0.256   7.234
12340TIP3    H136897   3.683   0.328   7.195
12340TIP3    H236898   3.782   0.220   7.154
12341TIP3   OH236899   3.913   0.584   8.289
12341TIP3    H136900   3.898   0.532   8.371
12341TIP3    H236901   4.005   0.562   8.271
12342TIP3   OH236902   3.896   0.283   7.472
12342TIP3    H136903   3.834   0.315   7.403
12342TIP3    H236904   3.920   0.198   7.434
12343TIP3   OH236905   3.188   0.314   8.204
12343TIP3    H136906   3.182   0.379   8.275
12343TIP3    H236907   3.120   0.250   8.227
12344TIP3   OH236908   3.907   0.528   7.907
12344TIP3    H136909   3.933   0.457   7.844
12344TIP3    H236910   3.862   0.475   7.976
12345TIP3   OH236911   3.001   0.039   7.576
12345TIP3    H136912   2.908   0.061   7.552
12345TIP3    H236913   3.007  -0.053   7.547
12346TIP3   OH236914   3.286   0.056   7.266
12346TIP3    H136915   3.369   0.037   7.220
12346TIP3    H236916   3.221   0.056   7.192
12347TIP3   OH236917   3.110   0.071   7.048
12347TIP3    H136918   3.048   0.024   6.989
12347TIP3    H236919   3.168   0.111   6.980
12348TIP3   OH236920   4.228   1.750   7.988
12348TIP3    H136921   4.217   1.769   7.893
12348TIP3    H236922   4.305   1.804   8.011
12349TIP3   OH236923   3.187   0.861   8.415
12349TIP3    H136924   3.265   0.895   8.463
12349TIP3    H236925   3.121   0.862   8.488
12350TIP3   OH236926   3.658   0.319   7.677
12350TIP3    H136927   3.708   0.259   7.620
12350TIP3    H236928   3.650   0.266   7.759
12351TIP3   OH236929   3.636   0.204   7.970
12351TIP3    H136930   3.543   0.236   7.978
12351TIP3    H236931   3.684   0.265   8.029
12352TIP3   OH236932   3.369   0.602   7.055
12352TIP3    H136933   3.296   0.537   7.042
12352TIP3    H236934   3.348   0.636   7.145
12353TIP3   OH236935   4.265   0.836   7.683
12353TIP3    H136936   4.290   0.886   7.602
12353TIP3    H236937   4.179   0.797   7.657
12354TIP3   OH236938   3.771   0.924   8.049
12354TIP3    H136939   3.769   0.895   8.140
12354TIP3    H236940   3.727   1.011   8.051
12355TIP3   OH236941   3.885   0.134   7.009
12355TIP3    H136942   3.981   0.149   7.020
12355TIP3    H236943   3.858   0.212   6.957
12356TIP3   OH236944   3.070   0.632   7.730
12356TIP3    H136945   3.098   0.600   7.642
12356TIP3    H236946   3.080   0.553   7.785
12357TIP3   OH236947   3.510   0.753   6.874
12357TIP3    H136948   3.462   0.839   6.881
12357TIP3    H236949   3.454   0.697   6.933
12358TIP3   OH236950   2.946   0.534   8.339
12358TIP3    H136951   2.942   0.523   8.436
12358TIP3    H236952   2.864   0.488   8.310
12359TIP3   OH236953   3.654   0.662   8.360
12359TIP3    H136954   3.588   0.605   8.315
12359TIP3    H236955   3.736   0.639   8.312
12360TIP3   OH236956   3.928   1.172   7.952
12360TIP3    H136957   3.831   1.175   7.955
12360TIP3    H236958   3.950   1.235   8.024
12361TIP3   OH236959   4.338   0.249   6.851
12361TIP3    H136960   4.280   0.200   6.789
12361TIP3    H236961   4.331   0.338   6.810
12362TIP3   OH236962   4.553   1.108   7.935
12362TIP3    H136963   4.455   1.103   7.923
12362TIP3    H236964   4.581   1.080   7.845
12363TIP3   OH236965   4.038   1.072   6.763
12363TIP3    H136966   4.006   1.006   6.826
12363TIP3    H236967   4.045   1.023   6.679
12364TIP3   OH236968   4.031   0.699   7.604
12364TIP3    H136969   3.937   0.674   7.614
12364TIP3    H236970   4.065   0.621   7.556
12365TIP3   OH236971   3.156   0.928   7.353
12365TIP3    H136972   3.153   1.010   7.300
12365TIP3    H236973   3.062   0.908   7.363
12366TIP3   OH236974   2.696   0.246   7.059
12366TIP3    H136975   2.761   0.318   7.073
12366TIP3    H236976   2.616   0.292   7.090
12367TIP3   OH236977   3.300   0.696   7.300
12367TIP3    H136978   3.261   0.784   7.316
12367TIP3    H236979   3.259   0.644   7.371
12368TIP3   OH236980   3.427   1.274   7.821
12368TIP3    H136981   3.465   1.347   7.768
12368TIP3    H236982   3.506   1.240   7.866
12369TIP3   OH236983   3.077   1.167   7.205
12369TIP3    H136984   2.991   1.173   7.252
12369TIP3    H236985   3.106   1.261   7.209
12370TIP3   OH236986   3.815   0.906   7.780
12370TIP3    H136987   3.809   0.907   7.878
12370TIP3    H236988   3.893   0.852   7.765
12371TIP3   OH236989   3.788   0.799   6.661
12371TIP3    H136990   3.840   0.774   6.741
12371TIP3    H236991   3.699   0.773   6.689
12372TIP3   OH236992   4.070   1.430   7.835
12372TIP3    H136993   3.985   1.383   7.823
12372TIP3    H236994   4.059   1.502   7.768
12373TIP3   OH236995   4.129   1.275   6.483
12373TIP3    H136996   4.167   1.349   6.433
12373TIP3    H236997   4.049   1.319   6.518
12374TIP3   OH236998   3.949   0.729   6.874
12374TIP3    H136999   3.938   0.666   6.949
12374TIP3    H237000   4.046   0.730   6.866
12375TIP3   OH237001   2.872   1.136   7.977
12375TIP3    H137002   2.916   1.056   8.010
12375TIP3    H237003   2.895   1.200   8.046
12376TIP3   OH237004   3.157   0.780   6.659
12376TIP3    H137005   3.168   0.686   6.632
12376TIP3    H237006   3.140   0.769   6.755
12377TIP3   OH237007   3.108   0.786   6.928
12377TIP3    H137008   3.163   0.755   7.001
12377TIP3    H237009   3.110   0.884   6.941
12378TIP3   OH237010   2.847   0.478   7.123
12378TIP3    H137011   2.785   0.521   7.187
12378TIP3    H237012   2.845   0.548   7.055
12379TIP3   OH237013   3.369   0.985   6.884
12379TIP3    H137014   3.281   1.008   6.920
12379TIP3    H237015   3.382   1.058   6.821
12380TIP3   OH237016   3.584   0.036   7.300
12380TIP3    H137017   3.622   0.125   7.280
12380TIP3    H237018   3.528   0.055   7.377
12381TIP3   OH237019   3.821   0.363   8.123
12381TIP3    H137020   3.829   0.438   8.184
12381TIP3    H237021   3.905   0.318   8.136
12382TIP3   OH237022   3.113   1.059   6.952
12382TIP3    H137023   3.080   1.128   6.889
12382TIP3    H237024   3.094   1.101   7.038
12383TIP3   OH237025   4.116   0.463   7.474
12383TIP3    H137026   4.043   0.400   7.485
12383TIP3    H237027   4.190   0.418   7.522
12384TIP3   OH237028   2.835   0.695   6.940
12384TIP3    H137029   2.905   0.762   6.948
12384TIP3    H237030   2.873   0.637   6.872
12385TIP3   OH237031   2.747  -0.058   7.068
12385TIP3    H137032   2.796   0.027   7.070
12385TIP3    H237033   2.658  -0.025   7.086
12386TIP3   OH237034   2.710   0.927   7.341
12386TIP3    H137035   2.629   0.945   7.390
12386TIP3    H237036   2.682   0.945   7.249
12387TIP3   OH237037   2.847   1.448   8.418
12387TIP3    H137038   2.938   1.438   8.454
12387TIP3    H237039   2.823   1.355   8.402
12388TIP3   OH237040   3.337   1.405   8.452
12388TIP3    H137041   3.433   1.392   8.448
12388TIP3    H237042   3.308   1.349   8.376
12389TIP3   OH237043   3.319   0.984   6.575
12389TIP3    H137044   3.261   0.914   6.614
12389TIP3    H237045   3.393   0.930   6.545
12390TIP3   OH237046   3.970   1.321   8.186
12390TIP3    H137047   3.971   1.246   8.250
12390TIP3    H237048   4.051   1.369   8.208
12391TIP3   OH237049   3.757   1.025   6.488
12391TIP3    H137050   3.798   0.959   6.547
12391TIP3    H237051   3.815   1.023   6.410
12392TIP3   OH237052   2.989   0.839   8.605
12392TIP3    H137053   3.004   0.743   8.596
12392TIP3    H237054   2.901   0.849   8.561
12393TIP3   OH237055   2.966   0.503   6.792
12393TIP3    H137056   3.013   0.471   6.870
12393TIP3    H237057   3.038   0.505   6.726
12394TIP3   OH237058   3.598   0.936   8.374
12394TIP3    H137059   3.548   0.951   8.291
12394TIP3    H237060   3.620   0.841   8.369
12395TIP3   OH237061   3.477   0.702   6.604
12395TIP3    H137062   3.474   0.715   6.701
12395TIP3    H237063   3.474   0.604   6.599
12396TIP3   OH237064   4.090   0.940   7.988
12396TIP3    H137065   4.159   0.989   7.938
12396TIP3    H237066   4.015   1.001   7.976
12397TIP3   OH237067   3.103   0.575   8.594
12397TIP3    H137068   3.182   0.528   8.564
12397TIP3    H237069   3.122   0.587   8.688
12398TIP3   OH237070   3.179   0.405   7.022
12398TIP3    H137071   3.143   0.367   7.104
12398TIP3    H237072   3.208   0.326   6.972
12399TIP3   OH237073   3.442   0.513   8.232
12399TIP3    H137074   3.353   0.557   8.232
12399TIP3    H237075   3.478   0.535   8.144
12400TIP3   OH237076   3.269   0.197   6.861
12400TIP3    H137077   3.242   0.198   6.767
12400TIP3    H237078   3.367   0.205   6.852
12401TIP3   OH237079   3.968   0.876   8.391
12401TIP3    H137080   4.023   0.836   8.322
12401TIP3    H237081   3.952   0.801   8.450
12402TIP3   OH237082   4.099   0.528   6.519
12402TIP3    H137083   4.073   0.484   6.436
12402TIP3    H237084   4.067   0.619   6.499
12403TIP3   OH237085   3.519   0.310   8.385
12403TIP3    H137086   3.526   0.233   8.324
12403TIP3    H237087   3.486   0.380   8.325
12404TIP3   OH237088   3.617   0.592   8.034
12404TIP3    H137089   3.688   0.602   7.969
12404TIP3    H237090   3.550   0.655   8.000
12405TIP3   OH237091   4.198   0.556   8.453
12405TIP3    H137092   4.204   0.465   8.420
12405TIP3    H237093   4.249   0.605   8.388
12406TIP3   OH237094   4.220   0.798   8.174
12406TIP3    H137095   4.160   0.851   8.116
12406TIP3    H237096   4.306   0.820   8.133
12407TIP3   OH237097   3.405   0.396   8.618
12407TIP3    H137098   3.339   0.325   8.623
12407TIP3    H237099   3.455   0.369   8.538
12408TIP3   OH237100   3.886   0.419   8.494
12408TIP3    H137101   3.831   0.398   8.572
12408TIP3    H237102   3.896   0.330   8.454
12409TIP3   OH237103   3.080   1.263   6.764
12409TIP3    H137104   3.175   1.258   6.744
12409TIP3    H237105   3.048   1.309   6.685
12410TIP3   OH237106   2.471   1.255   7.390
12410TIP3    H137107   2.405   1.190   7.359
12410TIP3    H237108   2.518   1.202   7.459
12411TIP3   OH237109   2.603   1.116   7.584
12411TIP3    H137110   2.591   1.040   7.643
12411TIP3    H237111   2.651   1.178   7.643
12412TIP3   OH237112   4.361   1.478   7.378
12412TIP3    H137113   4.326   1.521   7.457
12412TIP3    H237114   4.370   1.554   7.319
12413TIP3   OH237115   4.370   1.530   7.674
12413TIP3    H137116   4.321   1.448   7.656
12413TIP3    H237117   4.447   1.493   7.721
12414TIP3   OH237118   4.417   1.204   8.241
12414TIP3    H137119   4.338   1.215   8.296
12414TIP3    H237120   4.456   1.294   8.241
12415TIP3   OH237121   4.232   0.712   6.853
12415TIP3    H137122   4.298   0.779   6.827
12415TIP3    H237123   4.274   0.675   6.934
12416TIP3   OH237124   4.359   0.579   7.058
12416TIP3    H137125   4.291   0.539   7.117
12416TIP3    H237126   4.421   0.621   7.120
12417TIP3   OH237127   4.413   0.975   7.494
12417TIP3    H137128   4.462   0.913   7.438
12417TIP3    H237129   4.406   1.054   7.436
12418TIP3   OH237130   4.244   1.272   7.690
12418TIP3    H137131   4.173   1.322   7.737
12418TIP3    H237132   4.193   1.227   7.619
12419TIP3   OH237133   4.293   0.486   6.705
12419TIP3    H137134   4.223   0.497   6.637
12419TIP3    H237135   4.270   0.562   6.762
12420TIP3   OH237136   4.178   0.157   6.649
12420TIP3    H137137   4.132   0.233   6.611
12420TIP3    H237138   4.125   0.084   6.613
12421TIP3   OH237139   4.173   0.441   7.207
12421TIP3    H137140   4.176   0.344   7.208
12421TIP3    H237141   4.157   0.461   7.302
12422TIP3   OH237142   2.796   0.514   7.950
12422TIP3    H137143   2.794   0.485   7.856
12422TIP3    H237144   2.893   0.515   7.966
12423TIP3   OH237145   4.464   0.859   8.064
12423TIP3    H137146   4.536   0.795   8.047
12423TIP3    H237147   4.481   0.928   7.999
12424TIP3   OH237148   4.650   0.658   8.075
12424TIP3    H137149   4.580   0.609   8.123
12424TIP3    H237150   4.730   0.613   8.105
12425TIP3   OH237151   4.154   0.156   7.053
12425TIP3    H137152   4.202   0.120   7.130
12425TIP3    H237153   4.226   0.193   6.999
12426TIP3   OH237154   4.335   0.359   7.601
12426TIP3    H137155   4.424   0.371   7.561
12426TIP3    H237156   4.353   0.383   7.693
12427TIP3   OH237157   4.397   0.484   7.847
12427TIP3    H137158   4.313   0.524   7.877
12427TIP3    H237159   4.432   0.556   7.789
12428TIP3   OH237160   2.824   0.158   8.053
12428TIP3    H137161   2.844   0.160   7.957
12428TIP3    H237162   2.789   0.247   8.067
12429TIP3   OH237163   3.912   1.362   7.027
12429TIP3    H137164   3.977   1.359   6.954
12429TIP3    H237165   3.951   1.429   7.087
12430TIP3   OH237166   3.023   1.175   8.429
12430TIP3    H137167   2.931   1.152   8.408
12430TIP3    H237168   3.026   1.157   8.525
12431TIP3   OH237169   3.204   1.209   7.975
12431TIP3    H137170   3.148   1.278   7.935
12431TIP3    H237171   3.286   1.227   7.925
12432TIP3   OH237172   3.647   1.449   8.112
12432TIP3    H137173   3.689   1.459   8.199
12432TIP3    H237174   3.709   1.500   8.055
12433TIP3   OH237175   3.819   1.602   7.968
12433TIP3    H137176   3.882   1.571   7.901
12433TIP3    H237177   3.876   1.660   8.023
12434TIP3   OH237178   2.881   1.472   7.991
12434TIP3    H137179   2.792   1.502   7.961
12434TIP3    H237180   2.876   1.495   8.084
12435TIP3   OH237181   3.115   1.445   7.851
12435TIP3    H137182   3.030   1.458   7.897
12435TIP3    H237183   3.092   1.475   7.761
12436TIP3   OH237184   3.538   1.473   7.650
12436TIP3    H137185   3.469   1.493   7.584
12436TIP3    H237186   3.553   1.562   7.688
12437TIP3   OH237187   3.808   1.406   7.701
12437TIP3    H137188   3.717   1.432   7.680
12437TIP3    H237189   3.858   1.478   7.657
12438TIP3   OH237190   2.791   1.263   7.736
12438TIP3    H137191   2.808   1.237   7.828
12438TIP3    H237192   2.862   1.214   7.690
12439TIP3   OH237193   2.983   1.130   7.595
12439TIP3    H137194   2.997   1.046   7.645
12439TIP3    H237195   3.074   1.166   7.591
12440TIP3   OH237196   3.250   1.228   7.596
12440TIP3    H137197   3.279   1.136   7.584
12440TIP3    H237198   3.291   1.247   7.682
12441TIP3   OH237199   2.578   1.030   7.128
12441TIP3    H137200   2.494   0.996   7.092
12441TIP3    H237201   2.563   1.125   7.118
12442TIP3   OH237202   3.347   1.220   6.710
12442TIP3    H137203   3.435   1.243   6.674
12442TIP3    H237204   3.325   1.144   6.652
12443TIP3   OH237205   4.074   1.340   6.802
12443TIP3    H137206   4.063   1.242   6.792
12443TIP3    H237207   4.023   1.372   6.725
12444TIP3   OH237208   2.654   1.064   6.771
12444TIP3    H137209   2.648   1.076   6.866
12444TIP3    H237210   2.740   1.017   6.761
12445TIP3   OH237211   4.290   1.480   7.999
12445TIP3    H137212   4.215   1.448   7.944
12445TIP3    H237213   4.273   1.577   7.993
12446TIP3   OH237214   5.560   0.855   6.758
12446TIP3    H137215   5.532   0.947   6.738
12446TIP3    H237216   5.483   0.806   6.725
12447TIP3   OH237217   5.561   0.854   7.138
12447TIP3    H137218   5.590   0.826   7.227
12447TIP3    H237219   5.515   0.774   7.107
12448TIP3   OH237220   4.859   0.753   7.503
12448TIP3    H137221   4.896   0.688   7.566
12448TIP3    H237222   4.935   0.811   7.491
12449TIP3   OH237223   5.804   1.156   6.821
12449TIP3    H137224   5.785   1.088   6.886
12449TIP3    H237225   5.829   1.232   6.876
12450TIP3   OH237226   4.832   1.160   7.230
12450TIP3    H137227   4.820   1.062   7.232
12450TIP3    H237228   4.929   1.166   7.224
12451TIP3   OH237229   4.530   0.353   7.022
12451TIP3    H137230   4.483   0.437   7.037
12451TIP3    H237231   4.466   0.308   6.964
12452TIP3   OH237232   4.598   0.649   7.187
12452TIP3    H137233   4.649   0.574   7.224
12452TIP3    H237234   4.656   0.679   7.116
12453TIP3   OH237235   5.452   1.621   6.837
12453TIP3    H137236   5.498   1.548   6.790
12453TIP3    H237237   5.442   1.583   6.925
12454TIP3   OH237238   5.356   1.080   7.189
12454TIP3    H137239   5.393   1.004   7.140
12454TIP3    H237240   5.440   1.124   7.213
12455TIP3   OH237241   5.772   0.592   7.222
12455TIP3    H137242   5.801   0.505   7.253
12455TIP3    H237243   5.740   0.572   7.132
12456TIP3   OH237244   4.743   0.440   7.294
12456TIP3    H137245   4.823   0.414   7.345
12456TIP3    H237246   4.758   0.386   7.214
12457TIP3   OH237247   5.182   0.643   7.090
12457TIP3    H137248   5.273   0.611   7.104
12457TIP3    H237249   5.137   0.560   7.059
12458TIP3   OH237250   6.419   0.585   7.372
12458TIP3    H137251   6.354   0.655   7.352
12458TIP3    H237252   6.462   0.618   7.454
12459TIP3   OH237253   5.455   1.078   6.626
12459TIP3    H137254   5.408   1.053   6.546
12459TIP3    H237255   5.408   1.161   6.650
12460TIP3   OH237256   5.210   1.000   7.417
12460TIP3    H137257   5.146   1.066   7.454
12460TIP3    H237258   5.251   1.051   7.344
12461TIP3   OH237259   4.985   0.343   7.389
12461TIP3    H137260   5.043   0.416   7.417
12461TIP3    H237261   5.027   0.313   7.308
12462TIP3   OH237262   5.037   1.193   7.512
12462TIP3    H137263   5.012   1.279   7.473
12462TIP3    H237264   4.958   1.178   7.569
12463TIP3   OH237265   4.434   0.885   6.749
12463TIP3    H137266   4.391   0.911   6.666
12463TIP3    H237267   4.463   0.971   6.785
12464TIP3   OH237268   5.873   1.399   6.988
12464TIP3    H137269   5.783   1.390   7.029
12464TIP3    H237270   5.864   1.486   6.944
12465TIP3   OH237271   5.576   1.447   6.665
12465TIP3    H137272   5.625   1.365   6.643
12465TIP3    H237273   5.634   1.513   6.621
12466TIP3   OH237274   5.718   1.232   6.568
12466TIP3    H137275   5.673   1.154   6.534
12466TIP3    H237276   5.754   1.197   6.653
12467TIP3   OH237277   6.097   1.314   7.331
12467TIP3    H137278   6.085   1.236   7.272
12467TIP3    H237279   6.080   1.388   7.270
12468TIP3   OH237280   5.391   0.707   6.590
12468TIP3    H137281   5.308   0.755   6.569
12468TIP3    H237282   5.432   0.702   6.502
12469TIP3   OH237283   5.344   0.496   6.311
12469TIP3    H137284   5.422   0.539   6.351
12469TIP3    H237285   5.389   0.425   6.261
12470TIP3   OH237286   6.294   0.946   7.177
12470TIP3    H137287   6.211   0.999   7.184
12470TIP3    H237288   6.322   0.972   7.087
12471TIP3   OH237289   5.738   0.790   6.561
12471TIP3    H137290   5.682   0.815   6.638
12471TIP3    H237291   5.820   0.762   6.606
12472TIP3   OH237292   5.971   0.831   7.468
12472TIP3    H137293   5.971   0.915   7.520
12472TIP3    H237294   5.886   0.842   7.420
12473TIP3   OH237295   4.970   0.787   6.977
12473TIP3    H137296   4.927   0.730   6.911
12473TIP3    H237297   5.045   0.731   7.006
12474TIP3   OH237298   5.100   1.200   7.125
12474TIP3    H137299   5.078   1.155   7.042
12474TIP3    H237300   5.189   1.165   7.144
12475TIP3   OH237301   5.111   0.753   7.337
12475TIP3    H137302   5.139   0.733   7.245
12475TIP3    H237303   5.152   0.841   7.353
12476TIP3   OH237304   5.633   1.395   7.110
12476TIP3    H137305   5.617   1.475   7.163
12476TIP3    H237306   5.617   1.322   7.173
12477TIP3   OH237307   5.243   1.315   7.654
12477TIP3    H137308   5.185   1.378   7.702
12477TIP3    H237309   5.177   1.263   7.606
12478TIP3   OH237310   5.584   0.635   6.390
12478TIP3    H137311   5.641   0.696   6.442
12478TIP3    H237312   5.607   0.662   6.298
12479TIP3   OH237313   4.990   0.880   7.753
12479TIP3    H137314   4.996   0.964   7.803
12479TIP3    H237315   4.896   0.858   7.764
12480TIP3   OH237316   5.322   1.325   6.662
12480TIP3    H137317   5.399   1.382   6.681
12480TIP3    H237318   5.259   1.387   6.623
12481TIP3   OH237319   5.038   1.485   7.743
12481TIP3    H137320   5.005   1.481   7.651
12481TIP3    H237321   4.958   1.462   7.795
12482TIP3   OH237322   4.835   0.636   6.783
12482TIP3    H137323   4.766   0.675   6.726
12482TIP3    H237324   4.804   0.545   6.792
12483TIP3   OH237325   5.892   1.255   5.983
12483TIP3    H137326   5.900   1.352   5.970
12483TIP3    H237327   5.985   1.226   5.970
12484TIP3   OH237328   4.617   1.014   7.689
12484TIP3    H137329   4.550   0.996   7.620
12484TIP3    H237330   4.652   0.925   7.708
12485TIP3   OH237331   4.466   1.207   7.332
12485TIP3    H137332   4.562   1.219   7.323
12485TIP3    H237333   4.438   1.294   7.366
12486TIP3   OH237334   6.337   1.658   7.374
12486TIP3    H137335   6.336   1.562   7.395
12486TIP3    H237336   6.256   1.686   7.422
12487TIP3   OH237337   5.441   1.445   7.512
12487TIP3    H137338   5.440   1.537   7.546
12487TIP3    H237339   5.371   1.404   7.566
12488TIP3   OH237340   5.203   1.575   6.463
12488TIP3    H137341   5.154   1.552   6.382
12488TIP3    H237342   5.168   1.663   6.486
12489TIP3   OH237343   4.640   1.423   6.848
12489TIP3    H137344   4.688   1.412   6.933
12489TIP3    H237345   4.580   1.348   6.851
12490TIP3   OH237346   5.405   1.475   6.105
12490TIP3    H137347   5.462   1.404   6.069
12490TIP3    H237348   5.438   1.482   6.197
12491TIP3   OH237349   5.455   1.522   6.375
12491TIP3    H137350   5.365   1.532   6.415
12491TIP3    H237351   5.503   1.478   6.447
12492TIP3   OH237352   6.230   0.782   7.672
12492TIP3    H137353   6.158   0.827   7.624
12492TIP3    H237354   6.246   0.703   7.619
12493TIP3   OH237355   4.823   1.197   7.680
12493TIP3    H137356   4.872   1.178   7.762
12493TIP3    H237357   4.748   1.133   7.686
12494TIP3   OH237358   5.886   0.644   7.656
12494TIP3    H137359   5.952   0.574   7.654
12494TIP3    H237360   5.917   0.707   7.588
12495TIP3   OH237361   5.658   0.689   6.133
12495TIP3    H137362   5.620   0.668   6.045
12495TIP3    H237363   5.733   0.745   6.107
12496TIP3   OH237364   5.159   0.530   7.486
12496TIP3    H137365   5.103   0.554   7.562
12496TIP3    H237366   5.147   0.610   7.429
12497TIP3   OH237367   5.025   0.441   6.990
12497TIP3    H137368   4.946   0.392   7.018
12497TIP3    H237369   5.047   0.395   6.906
12498TIP3   OH237370   5.533   0.511   6.720
12498TIP3    H137371   5.479   0.583   6.680
12498TIP3    H237372   5.579   0.477   6.641
12499TIP3   OH237373   5.700   0.836   7.771
12499TIP3    H137374   5.692   0.786   7.856
12499TIP3    H237375   5.797   0.838   7.765
12500TIP3   OH237376   5.690   0.537   6.961
12500TIP3    H137377   5.630   0.572   6.891
12500TIP3    H237378   5.718   0.455   6.919
12501TIP3   OH237379   4.977   0.573   7.687
12501TIP3    H137380   4.994   0.632   7.762
12501TIP3    H237381   4.931   0.498   7.727
12502TIP3   OH237382   5.693   0.787   7.390
12502TIP3    H137383   5.725   0.716   7.330
12502TIP3    H237384   5.668   0.736   7.469
12503TIP3   OH237385   4.792   0.297   7.063
12503TIP3    H137386   4.698   0.319   7.042
12503TIP3    H237387   4.797   0.205   7.034
12504TIP3   OH237388   5.081   0.311   6.754
12504TIP3    H137389   5.166   0.294   6.711
12504TIP3    H237390   5.019   0.311   6.677
12505TIP3   OH237391   4.906   0.330   6.535
12505TIP3    H137392   4.844   0.282   6.476
12505TIP3    H237393   4.964   0.370   6.467
12506TIP3   OH237394   6.023   2.012   7.478
12506TIP3    H137395   6.025   2.031   7.383
12506TIP3    H237396   6.104   2.057   7.510
12507TIP3   OH237397   4.982   1.118   7.901
12507TIP3    H137398   5.063   1.148   7.947
12507TIP3    H237399   4.918   1.121   7.976
12508TIP3   OH237400   5.451   0.576   7.159
12508TIP3    H137401   5.509   0.521   7.105
12508TIP3    H237402   5.447   0.525   7.242
12509TIP3   OH237403   5.428   0.457   7.463
12509TIP3    H137404   5.340   0.499   7.466
12509TIP3    H237405   5.483   0.519   7.516
12510TIP3   OH237406   5.161   0.859   6.539
12510TIP3    H137407   5.089   0.793   6.528
12510TIP3    H237408   5.143   0.892   6.630
12511TIP3   OH237409   6.062   1.092   7.168
12511TIP3    H137410   6.086   1.143   7.087
12511TIP3    H237411   5.975   1.054   7.144
12512TIP3   OH237412   5.561   1.178   7.536
12512TIP3    H137413   5.588   1.156   7.626
12512TIP3    H237414   5.522   1.266   7.545
12513TIP3   OH237415   5.679   0.392   6.498
12513TIP3    H137416   5.776   0.406   6.509
12513TIP3    H237417   5.655   0.468   6.443
12514TIP3   OH237418   4.855   0.881   7.215
12514TIP3    H137419   4.893   0.854   7.128
12514TIP3    H237420   4.892   0.814   7.274
12515TIP3   OH237421   5.307   1.010   6.362
12515TIP3    H137422   5.259   1.096   6.369
12515TIP3    H237423   5.251   0.953   6.420
12516TIP3   OH237424   4.732   0.800   7.827
12516TIP3    H137425   4.754   0.784   7.921
12516TIP3    H237426   4.660   0.737   7.811
12517TIP3   OH237427   5.451   0.919   7.847
12517TIP3    H137428   5.392   0.859   7.798
12517TIP3    H237429   5.538   0.898   7.807
12518TIP3   OH237430   5.721   1.440   7.433
12518TIP3    H137431   5.625   1.438   7.447
12518TIP3    H237432   5.750   1.489   7.513
12519TIP3   OH237433   6.132   0.506   6.341
12519TIP3    H137434   6.075   0.456   6.278
12519TIP3    H237435   6.128   0.594   6.297
12520TIP3   OH237436   6.345   1.363   7.424
12520TIP3    H137437   6.247   1.360   7.412
12520TIP3    H237438   6.373   1.336   7.334
12521TIP3   OH237439   5.834   1.328   6.249
12521TIP3    H137440   5.804   1.260   6.311
12521TIP3    H237441   5.842   1.281   6.165
12522TIP3   OH237442   5.827   0.957   7.088
12522TIP3    H137443   5.733   0.932   7.100
12522TIP3    H237444   5.861   0.877   7.042
12523TIP3   OH237445   4.953   1.184   6.838
12523TIP3    H137446   4.952   1.266   6.785
12523TIP3    H237447   4.858   1.169   6.851
12524TIP3   OH237448   4.520   0.485   6.546
12524TIP3    H137449   4.566   0.570   6.562
12524TIP3    H237450   4.442   0.495   6.604
12525TIP3   OH237451   5.095   0.952   6.785
12525TIP3    H137452   5.057   1.040   6.802
12525TIP3    H237453   5.056   0.900   6.859
12526TIP3   OH237454   5.223   1.529   7.309
12526TIP3    H137455   5.265   1.601   7.258
12526TIP3    H237456   5.299   1.494   7.359
12527TIP3   OH237457   4.873   1.424   6.692
12527TIP3    H137458   4.787   1.430   6.738
12527TIP3    H237459   4.902   1.517   6.695
12528TIP3   OH237460   5.611   1.163   7.267
12528TIP3    H137461   5.601   1.163   7.365
12528TIP3    H237462   5.692   1.111   7.256
12529TIP3   OH237463   5.585   1.057   6.148
12529TIP3    H137464   5.636   1.031   6.228
12529TIP3    H237465   5.496   1.029   6.176
12530TIP3   OH237466   5.857   1.697   7.318
12530TIP3    H137467   5.780   1.638   7.312
12530TIP3    H237468   5.841   1.760   7.245
12531TIP3   OH237469   5.925   1.531   5.969
12531TIP3    H137470   5.962   1.605   5.917
12531TIP3    H237471   5.845   1.576   6.004
12532TIP3   OH237472   5.745   0.989   6.364
12532TIP3    H137473   5.734   0.924   6.436
12532TIP3    H237474   5.843   0.987   6.354
12533TIP3   OH237475   4.673   1.392   7.461
12533TIP3    H137476   4.717   1.315   7.500
12533TIP3    H237477   4.688   1.459   7.528
12534TIP3   OH237478   4.953   1.038   6.150
12534TIP3    H137479   4.963   0.947   6.117
12534TIP3    H237480   4.934   1.023   6.244
12535TIP3   OH237481   4.897   1.042   6.422
12535TIP3    H137482   4.966   1.013   6.483
12535TIP3    H237483   4.902   1.139   6.429
12536TIP3   OH237484   4.631   0.734   6.623
12536TIP3    H137485   4.566   0.779   6.681
12536TIP3    H237486   4.646   0.804   6.557
12537TIP3   OH237487   5.164   1.240   6.372
12537TIP3    H137488   5.077   1.266   6.407
12537TIP3    H237489   5.177   1.309   6.304
12538TIP3   OH237490   5.378   0.294   6.787
12538TIP3    H137491   5.419   0.380   6.765
12538TIP3    H237492   5.329   0.314   6.868
12539TIP3   OH237493   5.613   0.614   7.614
12539TIP3    H137494   5.619   0.693   7.672
12539TIP3    H237495   5.705   0.582   7.623
12540TIP3   OH237496   4.908   1.315   6.438
12540TIP3    H137497   4.876   1.384   6.375
12540TIP3    H237498   4.890   1.358   6.524
12541TIP3   OH237499   5.913   0.718   6.960
12541TIP3    H137500   5.839   0.656   6.975
12541TIP3    H237501   5.987   0.675   7.009
12542TIP3   OH237502   4.624   0.945   6.431
12542TIP3    H137503   4.690   1.016   6.439
12542TIP3    H237504   4.669   0.890   6.364
12543TIP3   OH237505   4.542   0.193   6.552
12543TIP3    H137506   4.585   0.280   6.549
12543TIP3    H237507   4.457   0.217   6.590
12544TIP3   OH237508   5.880   1.672   6.910
12544TIP3    H137509   5.837   1.718   6.835
12544TIP3    H237510   5.974   1.690   6.890
12545TIP3   OH237511   4.495   1.158   6.818
12545TIP3    H137512   4.426   1.189   6.878
12545TIP3    H237513   4.467   1.199   6.733
12546TIP3   OH237514   4.652   1.700   7.891
12546TIP3    H137515   4.739   1.696   7.936
12546TIP3    H237516   4.629   1.606   7.885
12547TIP3   OH237517   5.135   1.665   7.933
12547TIP3    H137518   5.229   1.641   7.941
12547TIP3    H237519   5.108   1.607   7.860
12548TIP3   OH237520   5.116   1.241   6.063
12548TIP3    H137521   5.059   1.170   6.102
12548TIP3    H237522   5.190   1.187   6.029
12549TIP3   OH237523   5.777   1.570   7.671
12549TIP3    H137524   5.766   1.499   7.737
12549TIP3    H237525   5.861   1.611   7.700
12550TIP3   OH237526   5.553   1.283   5.975
12550TIP3    H137527   5.594   1.216   6.032
12550TIP3    H237528   5.609   1.280   5.895
12551TIP3   OH237529   4.781   1.106   8.093
12551TIP3    H137530   4.800   1.010   8.093
12551TIP3    H237531   4.695   1.109   8.045
12552TIP3   OH237532   4.759   0.759   6.283
12552TIP3    H137533   4.813   0.723   6.355
12552TIP3    H237534   4.826   0.762   6.211
12553TIP3   OH237535   5.387   1.190   7.865
12553TIP3    H137536   5.349   1.206   7.776
12553TIP3    H237537   5.420   1.098   7.858
12554TIP3   OH237538   5.272   0.959   6.091
12554TIP3    H137539   5.271   0.970   6.188
12554TIP3    H237540   5.270   0.860   6.086
12555TIP3   OH237541   5.882   1.197   7.465
12555TIP3    H137542   5.956   1.247   7.426
12555TIP3    H237543   5.811   1.264   7.459
12556TIP3   OH237544   4.900   0.834   8.074
12556TIP3    H137545   4.978   0.783   8.050
12556TIP3    H237546   4.927   0.867   8.163
12557TIP3   OH237547   4.970   0.661   6.507
12557TIP3    H137548   4.943   0.618   6.590
12557TIP3    H237549   5.004   0.585   6.455
12558TIP3   OH237550   5.235   0.761   7.714
12558TIP3    H137551   5.152   0.814   7.715
12558TIP3    H237552   5.281   0.791   7.632
12559TIP3   OH237553   5.066   0.455   6.348
12559TIP3    H137554   5.039   0.455   6.254
12559TIP3    H237555   5.164   0.461   6.338
12560TIP3   OH237556   5.749   1.131   7.868
12560TIP3    H137557   5.836   1.117   7.829
12560TIP3    H237558   5.748   1.065   7.940
12561TIP3   OH237559   5.893   0.785   6.007
12561TIP3    H137560   5.871   0.740   5.923
12561TIP3    H237561   5.861   0.875   5.985
12562TIP3   OH237562   5.308   0.560   7.870
12562TIP3    H137563   5.331   0.488   7.808
12562TIP3    H237564   5.279   0.631   7.808
12563TIP3   OH237565   5.406   0.841   7.518
12563TIP3    H137566   5.488   0.856   7.469
12563TIP3    H237567   5.347   0.909   7.481
12564TIP3   OH237568   5.973   0.818   7.924
12564TIP3    H137569   6.023   0.736   7.925
12564TIP3    H237570   6.038   0.884   7.897
12565TIP3   OH237571   6.014   1.045   7.646
12565TIP3    H137572   5.953   1.104   7.596
12565TIP3    H237573   6.100   1.076   7.610
12566TIP3   OH237574   5.205   0.657   8.103
12566TIP3    H137575   5.140   0.584   8.104
12566TIP3    H237576   5.256   0.632   8.023
12567TIP3   OH237577   5.673   0.675   7.980
12567TIP3    H137578   5.635   0.651   8.066
12567TIP3    H237579   5.691   0.588   7.941
12568TIP3   OH237580   4.876   1.520   6.252
12568TIP3    H137581   4.971   1.514   6.230
12568TIP3    H237582   4.844   1.565   6.172
12569TIP3   OH237583   4.355   0.898   6.466
12569TIP3    H137584   4.450   0.920   6.454
12569TIP3    H237585   4.350   0.810   6.425
12570TIP3   OH237586   4.274   1.513   6.878
12570TIP3    H137587   4.204   1.452   6.845
12570TIP3    H237588   4.316   1.457   6.946
12571TIP3   OH237589   4.409   1.365   7.066
12571TIP3    H137590   4.387   1.294   7.129
12571TIP3    H237591   4.456   1.427   7.126
12572TIP3   OH237592   6.133   1.763   6.866
12572TIP3    H137593   6.159   1.791   6.955
12572TIP3    H237594   6.196   1.810   6.810
12573TIP3   OH237595   6.166   1.782   7.146
12573TIP3    H137596   6.119   1.696   7.144
12573TIP3    H237597   6.234   1.760   7.212
12574TIP3   OH237598   6.027   0.970   6.341
12574TIP3    H137599   6.094   1.035   6.314
12574TIP3    H237600   6.069   0.931   6.421
12575TIP3   OH237601   6.155   0.837   6.545
12575TIP3    H137602   6.087   0.796   6.603
12575TIP3    H237603   6.217   0.877   6.608
12576TIP3   OH237604   6.208   1.232   6.979
12576TIP3    H137605   6.260   1.168   6.927
12576TIP3    H237606   6.196   1.306   6.916
12577TIP3   OH237607   6.038   1.534   7.171
12577TIP3    H137608   5.968   1.574   7.227
12577TIP3    H237609   5.985   1.485   7.104
12578TIP3   OH237610   6.090   0.744   6.191
12578TIP3    H137611   6.019   0.753   6.123
12578TIP3    H237612   6.066   0.820   6.249
12579TIP3   OH237613   5.972   0.414   6.139
12579TIP3    H137614   5.929   0.487   6.093
12579TIP3    H237615   5.929   0.337   6.098
12580TIP3   OH237616   5.969   0.698   6.693
12580TIP3    H137617   5.973   0.601   6.693
12580TIP3    H237618   5.953   0.717   6.788
12581TIP3   OH237619   4.594   0.761   7.442
12581TIP3    H137620   4.591   0.736   7.347
12581TIP3    H237621   4.691   0.769   7.455
12582TIP3   OH237622   6.255   1.113   7.544
12582TIP3    H137623   6.333   1.054   7.535
12582TIP3    H237624   6.285   1.193   7.497
12583TIP3   OH237625   6.443   0.911   7.554
12583TIP3    H137626   6.377   0.869   7.612
12583TIP3    H237627   6.526   0.882   7.594
12584TIP3   OH237628   5.949   0.414   6.540
12584TIP3    H137629   5.998   0.377   6.617
12584TIP3    H237630   6.021   0.448   6.484
12585TIP3   OH237631   6.131   0.615   7.087
12585TIP3    H137632   6.220   0.626   7.048
12585TIP3    H237633   6.148   0.641   7.179
12586TIP3   OH237634   6.192   0.739   7.333
12586TIP3    H137635   6.110   0.779   7.366
12586TIP3    H237636   6.228   0.812   7.277
12587TIP3   OH237637   4.588   0.427   7.522
12587TIP3    H137638   4.632   0.416   7.435
12587TIP3    H237639   4.605   0.520   7.539
12588TIP3   OH237640   5.718   1.630   6.524
12588TIP3    H137641   5.769   1.614   6.442
12588TIP3    H237642   5.772   1.695   6.570
12589TIP3   OH237643   4.818   1.432   7.909
12589TIP3    H137644   4.725   1.406   7.892
12589TIP3    H237645   4.827   1.416   8.004
12590TIP3   OH237646   4.998   1.464   7.460
12590TIP3    H137647   4.945   1.536   7.420
12590TIP3    H237648   5.082   1.481   7.412
12591TIP3   OH237649   5.442   1.711   7.596
12591TIP3    H137650   5.485   1.709   7.684
12591TIP3    H237651   5.509   1.761   7.544
12592TIP3   OH237652   5.621   1.862   7.452
12592TIP3    H137653   5.693   1.808   7.415
12592TIP3    H237654   5.672   1.919   7.514
12593TIP3   OH237655   4.676   1.728   7.478
12593TIP3    H137656   4.585   1.756   7.453
12593TIP3    H237657   4.675   1.751   7.572
12594TIP3   OH237658   4.911   1.703   7.338
12594TIP3    H137659   4.825   1.715   7.385
12594TIP3    H237660   4.887   1.732   7.248
12595TIP3   OH237661   5.336   1.731   7.135
12595TIP3    H137662   5.264   1.750   7.071
12595TIP3    H237663   5.347   1.818   7.178
12596TIP3   OH237664   5.603   1.670   7.185
12596TIP3    H137665   5.508   1.685   7.167
12596TIP3    H237666   5.644   1.748   7.145
12597TIP3   OH237667   5.814   1.864   7.103
12597TIP3    H137668   5.797   1.947   7.054
12597TIP3    H237669   5.837   1.802   7.030
12598TIP3   OH237670   4.596   1.525   7.216
12598TIP3    H137671   4.607   1.496   7.309
12598TIP3    H237672   4.667   1.472   7.173
12599TIP3   OH237673   4.783   1.382   7.077
12599TIP3    H137674   4.796   1.300   7.130
12599TIP3    H237675   4.873   1.420   7.077
12600TIP3   OH237676   5.047   1.484   7.084
12600TIP3    H137677   5.076   1.392   7.072
12600TIP3    H237678   5.089   1.504   7.170
12601TIP3   OH237679   4.374   1.286   6.614
12601TIP3    H137680   4.288   1.253   6.582
12601TIP3    H237681   4.360   1.381   6.602
12602TIP3   OH237682   5.144   1.477   6.197
12602TIP3    H137683   5.232   1.500   6.161
12602TIP3    H237684   5.121   1.402   6.139
12603TIP3   OH237685   5.865   1.595   6.291
12603TIP3    H137686   5.856   1.498   6.279
12603TIP3    H237687   5.818   1.628   6.212
12604TIP3   OH237688   4.449   1.317   6.256
12604TIP3    H137689   4.446   1.336   6.351
12604TIP3    H237690   4.537   1.273   6.246
12605TIP3   OH237691   6.094   1.744   7.465
12605TIP3    H137692   6.010   1.707   7.431
12605TIP3    H237693   6.067   1.836   7.484
12606TIP3   OH237694   7.353   1.106   6.246
12606TIP3    H137695   7.330   1.200   6.231
12606TIP3    H237696   7.275   1.063   6.208
12607TIP3   OH237697   7.333   1.115   6.623
12607TIP3    H137698   7.366   1.087   6.711
12607TIP3    H237699   7.298   1.032   6.588
12608TIP3   OH237700   6.656   1.008   6.987
12608TIP3    H137701   6.691   0.945   7.053
12608TIP3    H237702   6.728   1.072   6.983
12609TIP3   OH237703   7.598   1.420   6.298
12609TIP3    H137704   7.584   1.343   6.357
12609TIP3    H237705   7.623   1.488   6.362
12610TIP3   OH237706   6.625   1.417   6.715
12610TIP3    H137707   6.616   1.319   6.718
12610TIP3    H237708   6.722   1.425   6.713
12611TIP3   OH237709   6.325   0.613   6.509
12611TIP3    H137710   6.276   0.696   6.523
12611TIP3    H237711   6.263   0.565   6.452
12612TIP3   OH237712   6.395   0.906   6.674
12612TIP3    H137713   6.445   0.830   6.711
12612TIP3    H237714   6.452   0.935   6.602
12613TIP3   OH237715   7.249   1.878   6.324
12613TIP3    H137716   7.294   1.805   6.276
12613TIP3    H237717   7.237   1.838   6.412
12614TIP3   OH237718   7.152   1.337   6.676
12614TIP3    H137719   7.191   1.258   6.634
12614TIP3    H237720   7.235   1.384   6.698
12615TIP3   OH237721   7.572   0.765   6.730
12615TIP3    H137722   7.640   0.739   6.666
12615TIP3    H237723   7.534   0.841   6.682
12616TIP3   OH237724   6.540   0.696   6.781
12616TIP3    H137725   6.619   0.668   6.832
12616TIP3    H237726   6.554   0.641   6.701
12617TIP3   OH237727   6.978   0.899   6.575
12617TIP3    H137728   7.070   0.870   6.586
12617TIP3    H237729   6.934   0.815   6.546
12618TIP3   OH237730   8.217   0.839   6.862
12618TIP3    H137731   8.150   0.907   6.841
12618TIP3    H237732   8.262   0.875   6.940
12619TIP3   OH237733   7.252   1.335   6.113
12619TIP3    H137734   7.204   1.308   6.033
12619TIP3    H237735   7.204   1.417   6.136
12620TIP3   OH237736   7.008   1.255   6.904
12620TIP3    H137737   6.944   1.320   6.942
12620TIP3    H237738   7.049   1.307   6.832
12621TIP3   OH237739   6.784   0.599   6.875
12621TIP3    H137740   6.839   0.673   6.907
12621TIP3    H237741   6.826   0.580   6.790
12622TIP3   OH237742   6.833   1.448   6.998
12622TIP3    H137743   6.808   1.535   6.961
12622TIP3    H237744   6.756   1.433   7.056
12623TIP3   OH237745   6.230   1.141   6.236
12623TIP3    H137746   6.187   1.166   6.152
12623TIP3    H237747   6.259   1.227   6.271
12624TIP3   OH237748   7.672   1.660   6.481
12624TIP3    H137749   7.582   1.645   6.519
12624TIP3    H237750   7.657   1.744   6.433
12625TIP3   OH237751   7.371   1.704   6.151
12625TIP3    H137752   7.420   1.621   6.130
12625TIP3    H237753   7.430   1.769   6.107
12626TIP3   OH237754   7.512   1.491   6.049
12626TIP3    H137755   7.467   1.410   6.020
12626TIP3    H237756   7.551   1.460   6.134
12627TIP3   OH237757   7.895   1.581   6.823
12627TIP3    H137758   7.887   1.500   6.767
12627TIP3    H237759   7.877   1.652   6.759
12628TIP3   OH237760   7.185   0.963   6.075
12628TIP3    H137761   7.102   1.012   6.052
12628TIP3    H237762   7.228   0.957   5.988
12629TIP3   OH237763   7.139   0.753   5.797
12629TIP3    H137764   7.217   0.796   5.838
12629TIP3    H237765   7.184   0.681   5.748
12630TIP3   OH237766   8.098   1.206   6.665
12630TIP3    H137767   8.015   1.258   6.675
12630TIP3    H237768   8.120   1.228   6.572
12631TIP3   OH237769   7.532   1.048   6.047
12631TIP3    H137770   7.479   1.071   6.127
12631TIP3    H237771   7.616   1.019   6.089
12632TIP3   OH237772   7.771   1.067   7.031
12632TIP3    H137773   7.763   1.156   7.071
12632TIP3    H237774   7.746   1.087   6.938
12633TIP3   OH237775   6.767   1.044   6.465
12633TIP3    H137776   6.723   0.986   6.398
12633TIP3    H237777   6.842   0.989   6.493
12634TIP3   OH237778   6.897   1.458   6.611
12634TIP3    H137779   6.875   1.411   6.529
12634TIP3    H237780   6.986   1.423   6.631
12635TIP3   OH237781   6.911   1.009   6.822
12635TIP3    H137782   6.937   0.990   6.730
12635TIP3    H237783   6.948   1.098   6.839
12636TIP3   OH237784   7.428   1.652   6.597
12636TIP3    H137785   7.416   1.729   6.655
12636TIP3    H237786   7.414   1.576   6.657
12637TIP3   OH237787   7.040   1.572   7.139
12637TIP3    H137788   6.984   1.634   7.191
12637TIP3    H237789   6.971   1.520   7.093
12638TIP3   OH237790   7.379   0.893   5.878
12638TIP3    H137791   7.437   0.953   5.930
12638TIP3    H237792   7.403   0.920   5.786
12639TIP3   OH237793   6.786   1.136   7.237
12639TIP3    H137794   6.793   1.220   7.287
12639TIP3    H237795   6.692   1.114   7.254
12640TIP3   OH237796   7.118   1.583   6.148
12640TIP3    H137797   7.196   1.637   6.167
12640TIP3    H237798   7.055   1.646   6.111
12641TIP3   OH237799   6.832   1.741   7.230
12641TIP3    H137800   6.797   1.735   7.140
12641TIP3    H237801   6.754   1.719   7.285
12642TIP3   OH237802   6.630   0.890   6.272
12642TIP3    H137803   6.563   0.932   6.214
12642TIP3    H237804   6.597   0.800   6.278
12643TIP3   OH237805   7.688   1.512   5.469
12643TIP3    H137806   7.697   1.609   5.456
12643TIP3    H237807   7.781   1.483   5.457
12644TIP3   OH237808   6.414   1.270   7.177
12644TIP3    H137809   6.346   1.249   7.110
12644TIP3    H237810   6.450   1.182   7.200
12645TIP3   OH237811   6.267   1.464   6.807
12645TIP3    H137812   6.363   1.459   6.801
12645TIP3    H237813   6.255   1.541   6.864
12646TIP3   OH237814   8.127   1.915   6.856
12646TIP3    H137815   8.131   1.819   6.873
12646TIP3    H237816   8.047   1.937   6.909
12647TIP3   OH237817   7.237   1.702   6.997
12647TIP3    H137818   7.237   1.793   7.034
12647TIP3    H237819   7.166   1.660   7.052
12648TIP3   OH237820   6.999   1.831   5.950
12648TIP3    H137821   6.950   1.809   5.869
12648TIP3    H237822   6.964   1.920   5.973
12649TIP3   OH237823   6.437   1.679   6.335
12649TIP3    H137824   6.483   1.669   6.421
12649TIP3    H237825   6.380   1.600   6.335
12650TIP3   OH237826   7.201   1.732   5.592
12650TIP3    H137827   7.259   1.660   5.556
12650TIP3    H237828   7.234   1.739   5.684
12651TIP3   OH237829   7.251   1.779   5.862
12651TIP3    H137830   7.162   1.789   5.903
12651TIP3    H237831   7.299   1.733   5.933
12652TIP3   OH237832   8.026   1.037   7.153
12652TIP3    H137833   7.945   1.074   7.113
12652TIP3    H237834   8.039   0.959   7.098
12653TIP3   OH237835   6.619   1.453   7.165
12653TIP3    H137836   6.668   1.438   7.249
12653TIP3    H237837   6.544   1.391   7.175
12654TIP3   OH237838   7.774   0.796   7.071
12654TIP3    H137839   7.777   0.820   7.165
12654TIP3    H237840   7.776   0.887   7.033
12655TIP3   OH237841   7.454   0.946   5.620
12655TIP3    H137842   7.417   0.924   5.532
12655TIP3    H237843   7.530   1.001   5.595
12656TIP3   OH237844   6.957   0.787   6.973
12656TIP3    H137845   6.901   0.812   7.050
12656TIP3    H237846   6.943   0.867   6.916
12657TIP3   OH237847   6.827   0.687   6.481
12657TIP3    H137848   6.741   0.647   6.504
12657TIP3    H237849   6.842   0.649   6.392
12658TIP3   OH237850   7.326   0.765   6.202
12658TIP3    H137851   7.274   0.839   6.164
12658TIP3    H237852   7.376   0.734   6.124
12659TIP3   OH237853   7.509   1.064   7.244
12659TIP3    H137854   7.517   1.029   7.336
12659TIP3    H237855   7.564   1.145   7.253
12660TIP3   OH237856   7.467   0.797   6.456
12660TIP3    H137857   7.420   0.834   6.379
12660TIP3    H237858   7.521   0.729   6.413
12661TIP3   OH237859   6.775   0.828   7.176
12661TIP3    H137860   6.787   0.893   7.247
12661TIP3    H237861   6.719   0.762   7.217
12662TIP3   OH237862   7.442   1.033   6.863
12662TIP3    H137863   7.528   1.049   6.816
12662TIP3    H237864   7.474   1.023   6.954
12663TIP3   OH237865   6.586   0.552   6.546
12663TIP3    H137866   6.493   0.578   6.528
12663TIP3    H237867   6.582   0.458   6.523
12664TIP3   OH237868   6.877   0.568   6.239
12664TIP3    H137869   6.962   0.552   6.195
12664TIP3    H237870   6.814   0.568   6.164
12665TIP3   OH237871   6.702   0.587   6.022
12665TIP3    H137872   6.640   0.538   5.964
12665TIP3    H237873   6.760   0.626   5.953
12666TIP3   OH237874   7.820   2.265   6.966
12666TIP3    H137875   7.818   2.289   6.872
12666TIP3    H237876   7.900   2.313   6.997
12667TIP3   OH237877   6.782   1.373   7.384
12667TIP3    H137878   6.860   1.405   7.435
12667TIP3    H237879   6.715   1.373   7.456
12668TIP3   OH237880   7.247   0.831   6.633
12668TIP3    H137881   7.323   0.798   6.580
12668TIP3    H237882   7.257   0.784   6.717
12669TIP3   OH237883   7.222   0.702   6.963
12669TIP3    H137884   7.135   0.745   6.953
12669TIP3    H237885   7.276   0.772   7.004
12670TIP3   OH237886   6.956   1.117   6.024
12670TIP3    H137887   6.884   1.050   6.014
12670TIP3    H237888   6.939   1.150   6.116
12671TIP3   OH237889   7.873   1.361   6.665
12671TIP3    H137890   7.878   1.399   6.575
12671TIP3    H237891   7.799   1.297   6.659
12672TIP3   OH237892   7.361   1.436   7.024
12672TIP3    H137893   7.388   1.416   7.115
12672TIP3    H237894   7.316   1.521   7.033
12673TIP3   OH237895   7.475   0.650   5.985
12673TIP3    H137896   7.572   0.662   5.995
12673TIP3    H237897   7.452   0.726   5.929
12674TIP3   OH237898   6.651   1.138   6.702
12674TIP3    H137899   6.689   1.110   6.616
12674TIP3    H237900   6.686   1.071   6.763
12675TIP3   OH237901   7.102   1.266   5.846
12675TIP3    H137902   7.054   1.352   5.854
12675TIP3    H237903   7.047   1.209   5.905
12676TIP3   OH237904   6.531   1.054   7.312
12676TIP3    H137905   6.552   1.045   7.407
12676TIP3    H237906   6.455   0.993   7.302
12677TIP3   OH237907   7.257   1.169   7.333
12677TIP3    H137908   7.193   1.116   7.282
12677TIP3    H237909   7.340   1.150   7.287
12678TIP3   OH237910   7.515   1.702   6.907
12678TIP3    H137911   7.420   1.695   6.927
12678TIP3    H237912   7.548   1.745   6.990
12679TIP3   OH237913   7.929   0.763   5.826
12679TIP3    H137914   7.872   0.713   5.763
12679TIP3    H237915   7.924   0.851   5.783
12680TIP3   OH237916   8.148   1.629   6.905
12680TIP3    H137917   8.049   1.621   6.901
12680TIP3    H237918   8.171   1.595   6.816
12681TIP3   OH237919   7.628   1.585   5.736
12681TIP3    H137920   7.601   1.517   5.799
12681TIP3    H237921   7.638   1.536   5.653
12682TIP3   OH237922   7.577   1.233   6.496
12682TIP3    H137923   7.491   1.201   6.529
12682TIP3    H237924   7.637   1.168   6.538
12683TIP3   OH237925   6.749   1.441   6.326
12683TIP3    H137926   6.748   1.523   6.272
12683TIP3    H237927   6.654   1.425   6.336
12684TIP3   OH237928   6.316   0.741   6.032
12684TIP3    H137929   6.362   0.825   6.049
12684TIP3    H237930   6.238   0.750   6.090
12685TIP3   OH237931   6.890   1.208   6.271
12685TIP3    H137932   6.853   1.297   6.289
12685TIP3    H237933   6.853   1.157   6.345
12686TIP3   OH237934   7.019   1.785   6.796
12686TIP3    H137935   7.062   1.857   6.746
12686TIP3    H237936   7.094   1.750   6.847
12687TIP3   OH237937   6.669   1.681   6.178
12687TIP3    H137938   6.583   1.687   6.225
12687TIP3    H237939   6.699   1.774   6.182
12688TIP3   OH237940   7.408   1.422   6.754
12688TIP3    H137941   7.398   1.420   6.852
12688TIP3    H237942   7.485   1.366   6.742
12689TIP3   OH237943   7.381   1.314   5.636
12689TIP3    H137944   7.434   1.288   5.715
12689TIP3    H237945   7.293   1.285   5.665
12690TIP3   OH237946   7.657   1.954   6.808
12690TIP3    H137947   7.582   1.891   6.808
12690TIP3    H237948   7.633   2.013   6.734
12691TIP3   OH237949   7.721   1.788   5.456
12691TIP3    H137950   7.760   1.860   5.405
12691TIP3    H237951   7.641   1.834   5.490
12692TIP3   OH237952   7.541   1.245   5.849
12692TIP3    H137953   7.530   1.181   5.922
12692TIP3    H237954   7.639   1.243   5.841
12693TIP3   OH237955   6.460   1.649   6.953
12693TIP3    H137956   6.510   1.573   6.986
12693TIP3    H237957   6.481   1.714   7.021
12694TIP3   OH237958   6.748   1.293   5.636
12694TIP3    H137959   6.761   1.201   5.606
12694TIP3    H237960   6.729   1.280   5.731
12695TIP3   OH237961   6.693   1.298   5.908
12695TIP3    H137962   6.763   1.268   5.968
12695TIP3    H237963   6.699   1.396   5.917
12696TIP3   OH237964   6.428   0.991   6.110
12696TIP3    H137965   6.362   1.035   6.168
12696TIP3    H237966   6.443   1.061   6.044
12697TIP3   OH237967   6.959   1.497   5.857
12697TIP3    H137968   6.872   1.523   5.893
12697TIP3    H237969   6.974   1.568   5.793
12698TIP3   OH237970   7.175   0.551   6.275
12698TIP3    H137971   7.219   0.634   6.246
12698TIP3    H237972   7.127   0.582   6.353
12699TIP3   OH237973   7.433   0.841   7.104
12699TIP3    H137974   7.418   0.933   7.134
12699TIP3    H237975   7.491   0.812   7.176
12700TIP3   OH237976   6.703   1.572   5.925
12700TIP3    H137977   6.672   1.641   5.862
12700TIP3    H237978   6.686   1.614   6.011
12701TIP3   OH237979   7.719   0.944   6.423
12701TIP3    H137980   7.637   0.926   6.469
12701TIP3    H237981   7.786   0.923   6.491
12702TIP3   OH237982   6.420   1.202   5.917
12702TIP3    H137983   6.488   1.272   5.926
12702TIP3    H237984   6.465   1.146   5.850
12703TIP3   OH237985   6.344   0.451   6.049
12703TIP3    H137986   6.383   0.540   6.046
12703TIP3    H237987   6.252   0.472   6.070
12704TIP3   OH237988   7.674   1.932   6.398
12704TIP3    H137989   7.632   1.979   6.323
12704TIP3    H237990   7.769   1.944   6.374
12705TIP3   OH237991   6.293   1.419   6.305
12705TIP3    H137992   6.221   1.446   6.364
12705TIP3    H237993   6.264   1.458   6.220
12706TIP3   OH237994   6.448   1.957   7.374
12706TIP3    H137995   6.532   1.953   7.422
12706TIP3    H237996   6.421   1.863   7.376
12707TIP3   OH237997   6.936   1.925   7.413
12707TIP3    H137998   7.025   1.889   7.427
12707TIP3    H237999   6.904   1.865   7.342
12708TIP3   OH238000   6.911   1.496   5.549
12708TIP3    H138001   6.854   1.427   5.589
12708TIP3    H238002   6.986   1.442   5.520
12709TIP3   OH238003   7.586   1.825   7.137
12709TIP3    H138004   7.563   1.769   7.215
12709TIP3    H238005   7.650   1.885   7.178
12710TIP3   OH238006   7.348   1.538   5.462
12710TIP3    H138007   7.389   1.472   5.521
12710TIP3    H238008   7.408   1.536   5.384
12711TIP3   OH238009   6.583   1.366   7.571
12711TIP3    H138010   6.590   1.272   7.594
12711TIP3    H238011   6.489   1.371   7.543
12712TIP3   OH238012   6.557   1.016   5.770
12712TIP3    H138013   6.610   0.978   5.842
12712TIP3    H238014   6.624   1.018   5.698
12713TIP3   OH238015   7.183   1.441   7.349
12713TIP3    H138016   7.144   1.458   7.262
12713TIP3    H238017   7.215   1.349   7.342
12714TIP3   OH238018   7.065   1.216   5.577
12714TIP3    H138019   7.067   1.228   5.674
12714TIP3    H238020   7.067   1.118   5.572
12715TIP3   OH238021   7.680   1.458   6.959
12715TIP3    H138022   7.752   1.508   6.915
12715TIP3    H238023   7.605   1.518   6.946
12716TIP3   OH238024   6.695   1.083   7.562
12716TIP3    H138025   6.777   1.035   7.544
12716TIP3    H238026   6.718   1.123   7.648
12717TIP3   OH238027   6.766   0.918   5.993
12717TIP3    H138028   6.739   0.873   6.075
12717TIP3    H238029   6.800   0.843   5.940
12718TIP3   OH238030   7.029   1.016   7.201
12718TIP3    H138031   6.947   1.069   7.202
12718TIP3    H238032   7.077   1.051   7.123
12719TIP3   OH238033   6.862   0.712   5.834
12719TIP3    H138034   6.835   0.710   5.740
12719TIP3    H238035   6.960   0.718   5.825
12720TIP3   OH238036   7.561   1.332   7.329
12720TIP3    H138037   7.590   1.424   7.323
12720TIP3    H238038   7.539   1.327   7.424
12721TIP3   OH238039   7.688   1.042   5.493
12721TIP3    H138040   7.665   0.997   5.410
12721TIP3    H238041   7.656   1.133   5.471
12722TIP3   OH238042   7.115   0.818   7.357
12722TIP3    H138043   7.112   0.743   7.294
12722TIP3    H238044   7.083   0.893   7.298
12723TIP3   OH238045   7.207   1.098   7.014
12723TIP3    H138046   7.278   1.088   6.948
12723TIP3    H238047   7.150   1.165   6.972
12724TIP3   OH238048   7.773   1.063   7.414
12724TIP3    H138049   7.839   0.996   7.433
12724TIP3    H238050   7.825   1.136   7.377
12725TIP3   OH238051   7.819   1.313   7.142
12725TIP3    H138052   7.755   1.366   7.088
12725TIP3    H238053   7.903   1.338   7.097
12726TIP3   OH238054   7.004   0.913   7.590
12726TIP3    H138055   6.937   0.842   7.594
12726TIP3    H238056   7.053   0.885   7.510
12727TIP3   OH238057   7.470   0.936   7.477
12727TIP3    H138058   7.429   0.925   7.564
12727TIP3    H238059   7.416   0.878   7.423
12728TIP3   OH238060   6.673   1.777   5.738
12728TIP3    H138061   6.768   1.771   5.717
12728TIP3    H238062   6.640   1.823   5.659
12729TIP3   OH238063   6.152   1.155   5.953
12729TIP3    H138064   6.247   1.176   5.940
12729TIP3    H238065   6.145   1.066   5.912
12730TIP3   OH238066   6.067   1.768   6.366
12730TIP3    H138067   5.998   1.706   6.332
12730TIP3    H238068   6.111   1.711   6.433
12731TIP3   OH238069   6.202   1.620   6.554
12731TIP3    H138070   6.189   1.546   6.615
12731TIP3    H238071   6.251   1.681   6.612
12732TIP3   OH238072   7.931   2.016   6.353
12732TIP3    H138073   7.959   2.046   6.441
12732TIP3    H238074   7.986   2.067   6.293
12733TIP3   OH238075   7.978   2.039   6.637
12733TIP3    H138076   7.918   1.961   6.624
12733TIP3    H238077   8.031   2.001   6.709
12734TIP3   OH238078   8.009   1.716   7.204
12734TIP3    H138079   7.937   1.723   7.270
12734TIP3    H238080   8.049   1.805   7.212
12735TIP3   OH238081   7.822   1.228   5.827
12735TIP3    H138082   7.891   1.292   5.800
12735TIP3    H238083   7.864   1.189   5.907
12736TIP3   OH238084   7.953   1.098   6.029
12736TIP3    H138085   7.886   1.052   6.085
12736TIP3    H238086   8.015   1.134   6.095
12737TIP3   OH238087   8.012   1.495   6.459
12737TIP3    H138088   8.060   1.424   6.412
12737TIP3    H238089   7.989   1.557   6.387
12738TIP3   OH238090   7.836   1.798   6.655
12738TIP3    H138091   7.764   1.831   6.712
12738TIP3    H238092   7.786   1.744   6.590
12739TIP3   OH238093   7.885   1.000   5.679
12739TIP3    H138094   7.814   1.011   5.611
12739TIP3    H238095   7.862   1.076   5.737
12740TIP3   OH238096   7.769   0.671   5.624
12740TIP3    H138097   7.721   0.742   5.579
12740TIP3    H238098   7.723   0.593   5.591
12741TIP3   OH238099   7.768   0.950   6.162
12741TIP3    H138100   7.773   0.853   6.162
12741TIP3    H238101   7.753   0.965   6.259
12742TIP3   OH238102   6.390   1.022   6.926
12742TIP3    H138103   6.387   0.993   6.833
12742TIP3    H238104   6.487   1.027   6.941
12743TIP3   OH238105   8.061   1.375   7.033
12743TIP3    H138106   8.131   1.307   7.019
12743TIP3    H238107   8.085   1.444   6.969
12744TIP3   OH238108   8.242   1.170   7.046
12744TIP3    H138109   8.172   1.122   7.094
12744TIP3    H238110   8.322   1.128   7.082
12745TIP3   OH238111   7.745   0.668   6.025
12745TIP3    H138112   7.792   0.632   6.104
12745TIP3    H238113   7.818   0.703   5.972
12746TIP3   OH238114   7.933   0.854   6.582
12746TIP3    H138115   8.021   0.876   6.544
12746TIP3    H238116   7.930   0.912   6.659
12747TIP3   OH238117   8.002   1.002   6.824
12747TIP3    H138118   7.906   1.024   6.814
12747TIP3    H238119   8.039   1.076   6.770
12748TIP3   OH238120   6.385   0.681   7.009
12748TIP3    H138121   6.429   0.675   6.922
12748TIP3    H238122   6.399   0.774   7.030
12749TIP3   OH238123   7.514   1.888   6.011
12749TIP3    H138124   7.563   1.869   5.928
12749TIP3    H238125   7.572   1.952   6.053
12750TIP3   OH238126   6.614   1.689   7.399
12750TIP3    H138127   6.521   1.664   7.381
12750TIP3    H238128   6.622   1.668   7.493
12751TIP3   OH238129   6.792   1.720   6.944
12751TIP3    H138130   6.742   1.795   6.906
12751TIP3    H238131   6.878   1.735   6.899
12752TIP3   OH238132   7.240   1.967   7.085
12752TIP3    H138133   7.282   1.964   7.174
12752TIP3    H238134   7.306   2.017   7.034
12753TIP3   OH238135   7.417   2.121   6.938
12753TIP3    H138136   7.486   2.063   6.903
12753TIP3    H238137   7.468   2.176   7.001
12754TIP3   OH238138   6.470   1.983   6.964
12754TIP3    H138139   6.380   2.016   6.943
12754TIP3    H238140   6.476   2.006   7.057
12755TIP3   OH238141   6.707   1.960   6.825
12755TIP3    H138142   6.620   1.971   6.871
12755TIP3    H238143   6.684   1.990   6.735
12756TIP3   OH238144   7.132   1.988   6.621
12756TIP3    H138145   7.060   2.006   6.558
12756TIP3    H238146   7.142   2.075   6.665
12757TIP3   OH238147   7.400   1.931   6.673
12757TIP3    H138148   7.304   1.940   6.655
12757TIP3    H238149   7.435   2.009   6.629
12758TIP3   OH238150   7.619   2.124   6.590
12758TIP3    H138151   7.595   2.204   6.539
12758TIP3    H238152   7.634   2.058   6.518
12759TIP3   OH238153   6.382   1.775   6.713
12759TIP3    H138154   6.407   1.747   6.803
12759TIP3    H238155   6.453   1.730   6.662
12760TIP3   OH238156   6.574   1.644   6.569
12760TIP3    H138157   6.588   1.560   6.617
12760TIP3    H238158   6.666   1.680   6.566
12761TIP3   OH238159   6.842   1.740   6.571
12761TIP3    H138160   6.871   1.648   6.559
12761TIP3    H238161   6.885   1.760   6.656
12762TIP3   OH238162   6.169   1.544   6.101
12762TIP3    H138163   6.084   1.510   6.069
12762TIP3    H238164   6.157   1.638   6.085
12763TIP3   OH238165   6.940   1.733   5.684
12763TIP3    H138166   7.028   1.755   5.648
12763TIP3    H238167   6.917   1.658   5.625
12764TIP3   OH238168   7.660   1.851   5.778
12764TIP3    H138169   7.652   1.754   5.765
12764TIP3    H238170   7.614   1.884   5.698
12765TIP3   OH238171   6.246   1.574   5.743
12765TIP3    H138172   6.242   1.594   5.837
12765TIP3    H238173   6.333   1.530   5.734
12766TIP3   OH238174   7.889   1.998   6.960
12766TIP3    H138175   7.807   1.961   6.921
12766TIP3    H238176   7.861   2.090   6.974
12767TIP3   OH238177   9.152   1.368   5.728
12767TIP3    H138178   9.128   1.461   5.715
12767TIP3    H238179   9.072   1.324   5.696
12768TIP3   OH238180   9.135   1.362   6.114
12768TIP3    H138181   9.175   1.342   6.201
12768TIP3    H238182   9.097   1.276   6.090
12769TIP3   OH238183   8.450   1.267   6.477
12769TIP3    H138184   8.484   1.201   6.540
12769TIP3    H238185   8.530   1.318   6.460
12770TIP3   OH238186   9.391   1.669   5.795
12770TIP3    H138187   9.389   1.601   5.864
12770TIP3    H238188   9.423   1.746   5.847
12771TIP3   OH238189   8.422   1.675   6.211
12771TIP3    H138190   8.412   1.577   6.208
12771TIP3    H238191   8.518   1.682   6.197
12772TIP3   OH238192   8.121   0.867   5.996
12772TIP3    H138193   8.074   0.951   6.009
12772TIP3    H238194   8.058   0.820   5.938
12773TIP3   OH238195   8.192   1.162   6.160
12773TIP3    H138196   8.240   1.085   6.198
12773TIP3    H238197   8.249   1.186   6.086
12774TIP3   OH238198   9.044   2.128   5.813
12774TIP3    H138199   9.086   2.056   5.761
12774TIP3    H238200   9.046   2.089   5.902
12775TIP3   OH238201   8.949   1.593   6.163
12775TIP3    H138202   8.987   1.515   6.120
12775TIP3    H238203   9.033   1.640   6.184
12776TIP3   OH238204   9.366   1.113   6.190
12776TIP3    H138205   9.393   1.028   6.227
12776TIP3    H238206   9.337   1.088   6.099
12777TIP3   OH238207   8.335   0.953   6.268
12777TIP3    H138208   8.415   0.927   6.318
12777TIP3    H238209   8.349   0.900   6.187
12778TIP3   OH238210   8.774   1.156   6.066
12778TIP3    H138211   8.866   1.124   6.077
12778TIP3    H238212   8.729   1.074   6.034
12779TIP3   OH238213   9.055   1.599   5.593
12779TIP3    H138214   9.003   1.567   5.518
12779TIP3    H238215   9.001   1.675   5.622
12780TIP3   OH238216   8.804   1.513   6.390
12780TIP3    H138217   8.741   1.579   6.427
12780TIP3    H238218   8.846   1.563   6.317
12781TIP3   OH238219   8.575   0.859   6.363
12781TIP3    H138220   8.639   0.929   6.388
12781TIP3    H238221   8.616   0.821   6.285
12782TIP3   OH238222   8.630   1.706   6.489
12782TIP3    H138223   8.603   1.789   6.446
12782TIP3    H238224   8.551   1.689   6.546
12783TIP3   OH238225   8.025   1.397   5.723
12783TIP3    H138226   7.984   1.423   5.638
12783TIP3    H238227   8.056   1.483   5.758
12784TIP3   OH238228   9.454   1.895   5.957
12784TIP3    H138229   9.362   1.899   5.992
12784TIP3    H238230   9.463   1.982   5.914
12785TIP3   OH238231   9.162   1.950   5.637
12785TIP3    H138232   9.220   1.874   5.616
12785TIP3    H238233   9.217   2.025   5.605
12786TIP3   OH238234   9.310   1.732   5.539
12786TIP3    H138235   9.237   1.668   5.534
12786TIP3    H238236   9.350   1.707   5.625
12787TIP3   OH238237   8.977   1.225   5.565
12787TIP3    H138238   8.895   1.272   5.538
12787TIP3    H238239   9.023   1.214   5.479
12788TIP3   OH238240   8.938   1.010   5.283
12788TIP3    H138241   9.015   1.054   5.323
12788TIP3    H238242   8.982   0.937   5.236
12789TIP3   OH238243   9.341   1.298   5.546
12789TIP3    H138244   9.273   1.324   5.613
12789TIP3    H238245   9.421   1.300   5.601
12790TIP3   OH238246   9.568   1.347   6.431
12790TIP3    H138247   9.563   1.422   6.492
12790TIP3    H238248   9.485   1.355   6.381
12791TIP3   OH238249   8.564   1.302   5.952
12791TIP3    H138250   8.519   1.243   5.886
12791TIP3    H238251   8.638   1.245   5.981
12792TIP3   OH238252   8.689   1.710   6.101
12792TIP3    H138253   8.671   1.668   6.016
12792TIP3    H238254   8.780   1.677   6.120
12793TIP3   OH238255   8.699   1.269   6.309
12793TIP3    H138256   8.730   1.244   6.219
12793TIP3    H238257   8.745   1.354   6.325
12794TIP3   OH238258   9.212   1.913   6.080
12794TIP3    H138259   9.207   1.990   6.139
12794TIP3    H238260   9.207   1.837   6.141
12795TIP3   OH238261   8.835   1.830   6.630
12795TIP3    H138262   8.776   1.892   6.678
12795TIP3    H238263   8.770   1.775   6.582
12796TIP3   OH238264   9.168   1.154   5.371
12796TIP3    H138265   9.236   1.203   5.420
12796TIP3    H238266   9.197   1.171   5.278
12797TIP3   OH238267   8.581   1.396   6.724
12797TIP3    H138268   8.587   1.477   6.778
12797TIP3    H238269   8.488   1.371   6.738
12798TIP3   OH238270   8.909   1.839   5.640
12798TIP3    H138271   8.993   1.888   5.651
12798TIP3    H238272   8.853   1.905   5.597
12799TIP3   OH238273   8.628   2.000   6.716
12799TIP3    H138274   8.596   1.989   6.624
12799TIP3    H238275   8.549   1.975   6.769
12800TIP3   OH238276   8.425   1.151   5.761
12800TIP3    H138277   8.356   1.184   5.699
12800TIP3    H238278   8.403   1.057   5.768
12801TIP3   OH238279   8.210   1.528   6.660
12801TIP3    H138280   8.142   1.506   6.593
12801TIP3    H238281   8.246   1.441   6.684
12802TIP3   OH238282   8.062   1.728   6.279
12802TIP3    H138283   8.156   1.706   6.286
12802TIP3    H238284   8.048   1.793   6.349
12803TIP3   OH238285   9.032   1.959   6.485
12803TIP3    H138286   9.032   2.051   6.519
12803TIP3    H238287   8.963   1.918   6.541
12804TIP3   OH238288   8.790   2.083   5.441
12804TIP3    H138289   8.750   2.065   5.354
12804TIP3    H238290   8.762   2.175   5.459
12805TIP3   OH238291   8.231   1.936   5.823
12805TIP3    H138292   8.279   1.924   5.908
12805TIP3    H238293   8.179   1.854   5.820
12806TIP3   OH238294   8.996   1.988   5.080
12806TIP3    H138295   9.056   1.917   5.045
12806TIP3    H238296   9.031   1.998   5.171
12807TIP3   OH238297   9.043   2.037   5.351
12807TIP3    H138298   8.957   2.043   5.396
12807TIP3    H238299   9.099   1.998   5.420
12808TIP3   OH238300   8.411   1.717   6.656
12808TIP3    H138301   8.464   1.694   6.735
12808TIP3    H238302   8.341   1.648   6.659
12809TIP3   OH238303   9.248   1.200   5.110
12809TIP3    H138304   9.220   1.179   5.019
12809TIP3    H238305   9.296   1.283   5.096
12810TIP3   OH238306   8.750   1.046   6.459
12810TIP3    H138307   8.692   1.069   6.535
12810TIP3    H238308   8.737   1.126   6.402
12811TIP3   OH238309   8.615   0.958   5.962
12811TIP3    H138310   8.539   0.905   5.993
12811TIP3    H238311   8.639   0.911   5.879
12812TIP3   OH238312   9.121   1.027   5.683
12812TIP3    H138313   9.057   1.099   5.661
12812TIP3    H238314   9.172   1.027   5.602
12813TIP3   OH238315   9.298   1.325   6.740
12813TIP3    H138316   9.297   1.289   6.831
12813TIP3    H238317   9.382   1.374   6.740
12814TIP3   OH238318   9.262   1.040   5.944
12814TIP3    H138319   9.219   1.085   5.869
12814TIP3    H238320   9.303   0.965   5.899
12815TIP3   OH238321   8.567   1.087   6.660
12815TIP3    H138322   8.585   1.143   6.738
12815TIP3    H238323   8.525   1.009   6.698
12816TIP3   OH238324   9.267   1.301   6.356
12816TIP3    H138325   9.309   1.233   6.298
12816TIP3    H238326   9.268   1.255   6.441
12817TIP3   OH238327   8.385   0.810   6.037
12817TIP3    H138328   8.291   0.827   6.014
12817TIP3    H238329   8.393   0.716   6.019
12818TIP3   OH238330   8.674   0.832   5.725
12818TIP3    H138331   8.759   0.806   5.686
12818TIP3    H238332   8.613   0.825   5.649
12819TIP3   OH238333   8.494   0.847   5.507
12819TIP3    H138334   8.435   0.796   5.447
12819TIP3    H238335   8.555   0.884   5.440
12820TIP3   OH238336   9.610   2.528   6.449
12820TIP3    H138337   9.611   2.543   6.352
12820TIP3    H238338   9.683   2.585   6.476
12821TIP3   OH238339   8.574   1.636   6.872
12821TIP3    H138340   8.655   1.662   6.920
12821TIP3    H238341   8.510   1.630   6.946
12822TIP3   OH238342   9.043   1.089   6.127
12822TIP3    H138343   9.113   1.048   6.073
12822TIP3    H238344   9.043   1.033   6.206
12823TIP3   OH238345   9.012   0.958   6.450
12823TIP3    H138346   8.928   1.007   6.442
12823TIP3    H238347   9.070   1.023   6.495
12824TIP3   OH238348   8.748   1.375   5.510
12824TIP3    H138349   8.678   1.307   5.501
12824TIP3    H238350   8.732   1.406   5.603
12825TIP3   OH238351   9.157   1.689   6.510
12825TIP3    H138352   9.178   1.669   6.602
12825TIP3    H238353   9.118   1.777   6.514
12826TIP3   OH238354   8.447   1.398   6.187
12826TIP3    H138355   8.485   1.369   6.101
12826TIP3    H238356   8.483   1.331   6.247
12827TIP3   OH238357   8.899   1.522   5.334
12827TIP3    H138358   8.851   1.608   5.340
12827TIP3    H238359   8.843   1.466   5.392
12828TIP3   OH238360   8.324   1.317   6.801
12828TIP3    H138361   8.345   1.298   6.895
12828TIP3    H238362   8.254   1.252   6.783
12829TIP3   OH238363   9.047   1.428   6.819
12829TIP3    H138364   8.980   1.373   6.774
12829TIP3    H238365   9.128   1.404   6.770
12830TIP3   OH238366   9.310   1.947   6.408
12830TIP3    H138367   9.213   1.949   6.417
12830TIP3    H238368   9.337   2.004   6.482
12831TIP3   OH238369   9.439   1.810   5.198
12831TIP3    H138370   9.417   1.790   5.291
12831TIP3    H238371   9.365   1.770   5.151
12832TIP3   OH238372   9.387   1.481   6.067
12832TIP3    H138373   9.303   1.433   6.067
12832TIP3    H238374   9.452   1.414   6.045
12833TIP3   OH238375   8.545   1.700   5.819
12833TIP3    H138376   8.549   1.779   5.761
12833TIP3    H238377   8.451   1.678   5.815
12834TIP3   OH238378   8.109   0.999   5.517
12834TIP3    H138379   8.158   1.082   5.536
12834TIP3    H238380   8.033   1.008   5.578
12835TIP3   OH238381   8.686   1.466   5.758
12835TIP3    H138382   8.651   1.554   5.780
12835TIP3    H238383   8.650   1.412   5.832
12836TIP3   OH238384   8.815   2.043   6.282
12836TIP3    H138385   8.858   2.114   6.229
12836TIP3    H238386   8.892   2.007   6.329
12837TIP3   OH238387   8.465   1.938   5.666
12837TIP3    H138388   8.379   1.946   5.711
12837TIP3    H238389   8.497   2.031   5.668
12838TIP3   OH238390   9.205   1.679   6.235
12838TIP3    H138391   9.204   1.669   6.332
12838TIP3    H238392   9.280   1.623   6.209
12839TIP3   OH238393   9.169   1.575   5.129
12839TIP3    H138394   9.227   1.541   5.201
12839TIP3    H238395   9.082   1.547   5.161
12840TIP3   OH238396   9.440   2.212   6.295
12840TIP3    H138397   9.362   2.158   6.277
12840TIP3    H238398   9.436   2.275   6.220
12841TIP3   OH238399   9.340   1.486   5.330
12841TIP3    H138400   9.331   1.425   5.406
12841TIP3    H238401   9.419   1.536   5.355
12842TIP3   OH238402   8.266   1.923   6.458
12842TIP3    H138403   8.306   1.838   6.434
12842TIP3    H238404   8.295   1.926   6.551
12843TIP3   OH238405   8.542   1.550   5.123
12843TIP3    H138406   8.559   1.459   5.093
12843TIP3    H238407   8.524   1.536   5.218
12844TIP3   OH238408   8.488   1.554   5.397
12844TIP3    H138409   8.562   1.525   5.452
12844TIP3    H238410   8.495   1.652   5.404
12845TIP3   OH238411   8.222   1.245   5.595
12845TIP3    H138412   8.158   1.291   5.654
12845TIP3    H238413   8.241   1.316   5.530
12846TIP3   OH238414   8.755   1.751   5.345
12846TIP3    H138415   8.668   1.781   5.379
12846TIP3    H238416   8.774   1.821   5.280
12847TIP3   OH238417   8.972   0.806   5.756
12847TIP3    H138418   9.012   0.893   5.737
12847TIP3    H238419   8.925   0.823   5.840
12848TIP3   OH238420   9.196   1.115   6.592
12848TIP3    H138421   9.230   1.188   6.646
12848TIP3    H238422   9.276   1.067   6.564
12849TIP3   OH238423   8.498   1.828   5.411
12849TIP3    H138424   8.469   1.898   5.348
12849TIP3    H238425   8.483   1.872   5.497
12850TIP3   OH238426   8.217   1.460   5.403
12850TIP3    H138427   8.286   1.527   5.412
12850TIP3    H238428   8.261   1.402   5.337
12851TIP3   OH238429   8.135   0.706   5.525
12851TIP3    H138430   8.180   0.793   5.524
12851TIP3    H238431   8.051   0.730   5.566
12852TIP3   OH238432   9.491   2.188   5.894
12852TIP3    H138433   9.456   2.240   5.819
12852TIP3    H238434   9.568   2.141   5.855
12853TIP3   OH238435   8.092   1.681   5.794
12853TIP3    H138436   8.015   1.704   5.848
12853TIP3    H238437   8.065   1.716   5.706
12854TIP3   OH238438   8.245   2.202   6.827
12854TIP3    H138439   8.326   2.215   6.882
12854TIP3    H238440   8.222   2.110   6.854
12855TIP3   OH238441   8.724   2.180   6.907
12855TIP3    H138442   8.819   2.160   6.918
12855TIP3    H238443   8.702   2.121   6.833
12856TIP3   OH238444   8.707   1.754   5.037
12856TIP3    H138445   8.653   1.681   5.075
12856TIP3    H238446   8.782   1.705   5.001
12857TIP3   OH238447   9.358   2.088   6.643
12857TIP3    H138448   9.352   2.014   6.708
12857TIP3    H238449   9.438   2.136   6.673
12858TIP3   OH238450   9.144   1.792   4.958
12858TIP3    H138451   9.176   1.710   5.001
12858TIP3    H238452   9.186   1.791   4.870
12859TIP3   OH238453   8.376   1.621   7.063
12859TIP3    H138454   8.392   1.526   7.074
12859TIP3    H238455   8.288   1.622   7.020
12860TIP3   OH238456   8.352   1.272   5.258
12860TIP3    H138457   8.406   1.234   5.329
12860TIP3    H238458   8.419   1.274   5.186
12861TIP3   OH238459   8.983   1.703   6.837
12861TIP3    H138460   8.943   1.718   6.749
12861TIP3    H238461   9.015   1.611   6.831
12862TIP3   OH238462   8.857   1.469   5.065
12862TIP3    H138463   8.862   1.482   5.162
12862TIP3    H238464   8.860   1.371   5.060
12863TIP3   OH238465   9.482   1.720   6.439
12863TIP3    H138466   9.531   1.755   6.363
12863TIP3    H238467   9.403   1.777   6.436
12864TIP3   OH238468   8.494   1.348   7.046
12864TIP3    H138469   8.570   1.292   7.028
12864TIP3    H238470   8.517   1.380   7.136
12865TIP3   OH238471   8.560   1.174   5.480
12865TIP3    H138472   8.537   1.129   5.563
12865TIP3    H238473   8.596   1.100   5.426
12866TIP3   OH238474   8.828   1.281   6.690
12866TIP3    H138475   8.743   1.330   6.687
12866TIP3    H238476   8.873   1.307   6.606
12867TIP3   OH238477   8.659   0.971   5.321
12867TIP3    H138478   8.634   0.966   5.226
12867TIP3    H238479   8.756   0.974   5.313
12868TIP3   OH238480   9.344   1.637   6.837
12868TIP3    H138481   9.436   1.637   6.807
12868TIP3    H238482   9.349   1.580   6.915
12869TIP3   OH238483   8.900   1.074   6.837
12869TIP3    H138484   8.922   1.003   6.772
12869TIP3    H238485   8.873   1.147   6.777
12870TIP3   OH238486   9.001   1.356   6.495
12870TIP3    H138487   9.082   1.360   6.441
12870TIP3    H238488   8.944   1.423   6.452
12871TIP3   OH238489   9.618   1.573   6.619
12871TIP3    H138490   9.557   1.628   6.565
12871TIP3    H238491   9.701   1.586   6.570
12872TIP3   OH238492   8.798   1.165   7.071
12872TIP3    H138493   8.733   1.093   7.075
12872TIP3    H238494   8.847   1.138   6.990
12873TIP3   OH238495   9.294   1.184   6.974
12873TIP3    H138496   9.208   1.172   7.016
12873TIP3    H238497   9.302   1.100   6.923
12874TIP3   OH238498   8.468   2.031   5.225
12874TIP3    H138499   8.564   2.025   5.206
12874TIP3    H238500   8.439   2.080   5.145
12875TIP3   OH238501   7.948   1.412   5.440
12875TIP3    H138502   8.043   1.434   5.427
12875TIP3    H238503   7.943   1.323   5.399
12876TIP3   OH238504   7.861   2.025   5.854
12876TIP3    H138505   7.794   1.962   5.818
12876TIP3    H238506   7.906   1.967   5.919
12877TIP3   OH238507   7.995   1.880   6.043
12877TIP3    H138508   7.988   1.800   6.099
12877TIP3    H238509   8.044   1.937   6.104
12878TIP3   OH238510   9.608   1.993   6.175
12878TIP3    H138511   9.542   2.059   6.202
12878TIP3    H238512   9.565   1.950   6.099
12879TIP3   OH238513   8.185   1.282   6.410
12879TIP3    H138514   8.185   1.249   6.318
12879TIP3    H238515   8.282   1.285   6.428
12880TIP3   OH238516   8.178   0.941   6.496
12880TIP3    H138517   8.223   0.929   6.409
12880TIP3    H238518   8.200   1.032   6.515
12881TIP3   OH238519   9.287   2.161   5.527
12881TIP3    H138520   9.319   2.128   5.440
12881TIP3    H238521   9.364   2.212   5.556
12882TIP3   OH238522   8.407   1.950   6.882
12882TIP3    H138523   8.319   1.912   6.870
12882TIP3    H238524   8.427   1.926   6.974
12883TIP3   OH238525   8.589   1.979   6.431
12883TIP3    H138526   8.545   2.055   6.389
12883TIP3    H238527   8.677   1.988   6.389
12884TIP3   OH238528   9.033   2.225   6.571
12884TIP3    H138529   9.077   2.225   6.658
12884TIP3    H238530   9.100   2.273   6.517
12885TIP3   OH238531   9.211   2.375   6.425
12885TIP3    H138532   9.282   2.324   6.381
12885TIP3    H238533   9.264   2.431   6.485
12886TIP3   OH238534   8.484   2.213   6.309
12886TIP3    H138535   8.390   2.196   6.304
12886TIP3    H238536   8.498   2.250   6.219
12887TIP3   OH238537   8.924   2.242   6.112
12887TIP3    H138538   8.862   2.265   6.041
12887TIP3    H238539   8.941   2.330   6.153
12888TIP3   OH238540   9.194   2.182   6.164
12888TIP3    H138541   9.102   2.201   6.139
12888TIP3    H238542   9.242   2.254   6.119
12889TIP3   OH238543   9.390   2.368   6.077
12889TIP3    H138544   9.378   2.455   6.034
12889TIP3    H238545   9.430   2.315   6.005
12890TIP3   OH238546   8.188   2.038   6.210
12890TIP3    H138547   8.210   1.997   6.296
12890TIP3    H238548   8.251   1.989   6.152
12891TIP3   OH238549   8.369   1.902   6.059
12891TIP3    H138550   8.385   1.815   6.102
12891TIP3    H238551   8.461   1.936   6.052
12892TIP3   OH238552   8.636   1.997   6.063
12892TIP3    H138553   8.666   1.906   6.041
12892TIP3    H238554   8.689   2.013   6.143
12893TIP3   OH238555   7.964   1.800   5.589
12893TIP3    H138556   7.879   1.766   5.555
12893TIP3    H238557   7.952   1.895   5.570
12894TIP3   OH238558   8.736   1.990   5.173
12894TIP3    H138559   8.825   2.013   5.137
12894TIP3    H238560   8.714   1.915   5.114
12895TIP3   OH238561   9.370   2.069   5.291
12895TIP3    H138562   9.425   1.997   5.256
12895TIP3    H238563   9.367   2.128   5.212
12896TIP3   OH238564   8.042   1.828   5.230
12896TIP3    H138565   8.043   1.850   5.324
12896TIP3    H238566   8.129   1.785   5.217
12897TIP3   OH238567   9.651   2.258   6.468
12897TIP3    H138568   9.586   2.219   6.405
12897TIP3    H238569   9.629   2.353   6.455
12898TIP3   OH238570   1.584   2.161   7.465
12898TIP3    H138571   1.562   2.234   7.405
12898TIP3    H238572   1.586   2.083   7.406
12899TIP3   OH238573   1.593   2.168   7.809
12899TIP3    H138574   1.627   2.117   7.884
12899TIP3    H238575   1.571   2.100   7.744
12900TIP3   OH238576   0.943   2.089   8.183
12900TIP3    H138577   0.976   2.009   8.228
12900TIP3    H238578   1.025   2.127   8.147
12901TIP3   OH238579   1.846   2.463   7.482
12901TIP3    H138580   1.829   2.385   7.537
12901TIP3    H238581   1.877   2.528   7.547
12902TIP3   OH238582   0.873   2.454   7.894
12902TIP3    H138583   0.865   2.357   7.898
12902TIP3    H238584   0.970   2.464   7.884
12903TIP3   OH238585   1.498   2.921   7.503
12903TIP3    H138586   1.540   2.851   7.449
12903TIP3    H238587   1.494   2.877   7.589
12904TIP3   OH238588   1.400   2.383   7.854
12904TIP3    H138589   1.438   2.304   7.810
12904TIP3    H238590   1.485   2.427   7.875
12905TIP3   OH238591   2.411   1.702   7.848
12905TIP3    H138592   2.442   1.783   7.892
12905TIP3    H238593   2.435   1.719   7.755
12906TIP3   OH238594   1.804   1.882   7.882
12906TIP3    H138595   1.855   1.801   7.900
12906TIP3    H238596   1.784   1.870   7.788
12907TIP3   OH238597   1.841   1.629   7.477
12907TIP3    H138598   1.919   1.621   7.536
12907TIP3    H238599   1.881   1.676   7.401
12908TIP3   OH238600   1.238   1.956   7.752
12908TIP3    H138601   1.332   1.928   7.766
12908TIP3    H238602   1.200   1.873   7.716
12909TIP3   OH238603   2.487   1.910   8.017
12909TIP3    H138604   2.401   1.954   8.000
12909TIP3    H238605   2.507   1.942   8.106
12910TIP3   OH238606   1.505   2.378   7.287
12910TIP3    H138607   1.456   2.343   7.212
12910TIP3    H238608   1.453   2.458   7.310
12911TIP3   OH238609   1.255   2.303   8.078
12911TIP3    H138610   1.195   2.372   8.114
12911TIP3    H238611   1.302   2.351   8.007
12912TIP3   OH238612   2.054   1.635   7.646
12912TIP3    H138613   2.074   1.579   7.722
12912TIP3    H238614   2.109   1.713   7.664
12913TIP3   OH238615   1.079   2.496   8.180
12913TIP3    H138616   1.054   2.581   8.140
12913TIP3    H238617   0.999   2.475   8.232
12914TIP3   OH238618   0.514   2.192   7.405
12914TIP3    H138619   0.449   2.217   7.338
12914TIP3    H238620   0.515   2.271   7.462
12915TIP3   OH238621   1.917   2.703   7.658
12915TIP3    H138622   1.826   2.692   7.693
12915TIP3    H238623   1.908   2.786   7.608
12916TIP3   OH238624   2.209   1.609   8.021
12916TIP3    H138625   2.122   1.629   7.984
12916TIP3    H238626   2.269   1.632   7.946
12917TIP3   OH238627   1.614   2.749   7.323
12917TIP3    H138628   1.664   2.666   7.306
12917TIP3    H238629   1.676   2.814   7.282
12918TIP3   OH238630   1.761   2.538   7.231
12918TIP3    H138631   1.723   2.457   7.194
12918TIP3    H238632   1.798   2.504   7.316
12919TIP3   OH238633   2.143   2.616   7.995
12919TIP3    H138634   2.133   2.536   7.938
12919TIP3    H238635   2.129   2.688   7.930
12920TIP3   OH238636   1.389   1.792   6.979
12920TIP3    H138637   1.443   1.828   7.052
12920TIP3    H238638   1.456   1.740   6.930
12921TIP3   OH238639   2.339   2.253   7.842
12921TIP3    H138640   2.255   2.304   7.847
12921TIP3    H238641   2.366   2.273   7.750
12922TIP3   OH238642   2.019   2.128   8.137
12922TIP3    H138643   2.012   2.207   8.193
12922TIP3    H238644   1.932   2.130   8.092
12923TIP3   OH238645   1.023   2.098   7.655
12923TIP3    H138646   0.990   2.044   7.580
12923TIP3    H238647   1.103   2.049   7.682
12924TIP3   OH238648   1.141   2.496   7.793
12924TIP3    H138649   1.124   2.458   7.705
12924TIP3    H238650   1.232   2.464   7.811
12925TIP3   OH238651   1.140   2.077   7.976
12925TIP3    H138652   1.183   2.045   7.893
12925TIP3    H238653   1.197   2.154   8.000
12926TIP3   OH238654   1.671   2.700   7.772
12926TIP3    H138655   1.664   2.774   7.834
12926TIP3    H238656   1.662   2.622   7.831
12927TIP3   OH238657   1.287   2.621   8.317
12927TIP3    H138658   1.226   2.681   8.364
12927TIP3    H238659   1.224   2.564   8.270
12928TIP3   OH238660   1.045   2.185   8.432
12928TIP3    H138661   1.034   2.272   8.476
12928TIP3    H238662   0.959   2.171   8.390
12929TIP3   OH238663   1.360   2.633   7.331
12929TIP3    H138664   1.445   2.679   7.341
12929TIP3    H238665   1.306   2.698   7.284
12930TIP3   OH238666   1.080   2.787   8.406
12930TIP3    H138667   1.049   2.787   8.313
12930TIP3    H238668   0.998   2.767   8.455
12931TIP3   OH238669   2.139   1.191   7.098
12931TIP3    H138670   2.058   1.210   7.150
12931TIP3    H238671   2.151   1.275   7.050
12932TIP3   OH238672   0.919   1.953   7.445
12932TIP3    H138673   0.855   2.008   7.396
12932TIP3    H238674   0.860   1.887   7.483
12933TIP3   OH238675   1.937   2.556   6.648
12933TIP3    H138676   1.946   2.653   6.633
12933TIP3    H238677   2.029   2.527   6.634
12934TIP3   OH238678   0.505   2.506   7.996
12934TIP3    H138679   0.595   2.479   7.974
12934TIP3    H238680   0.524   2.588   8.044
12935TIP3   OH238681   2.378   2.958   8.038
12935TIP3    H138682   2.380   2.861   8.052
12935TIP3    H238683   2.295   2.980   8.087
12936TIP3   OH238684   1.486   2.748   8.175
12936TIP3    H138685   1.484   2.840   8.208
12936TIP3    H238686   1.415   2.706   8.229
12937TIP3   OH238687   1.244   2.873   7.129
12937TIP3    H138688   1.202   2.852   7.044
12937TIP3    H238689   1.213   2.964   7.147
12938TIP3   OH238690   0.684   2.723   7.513
12938TIP3    H138691   0.735   2.714   7.597
12938TIP3    H238692   0.625   2.647   7.520
12939TIP3   OH238693   1.449   2.775   6.769
12939TIP3    H138694   1.507   2.704   6.732
12939TIP3    H238695   1.484   2.782   6.860
12940TIP3   OH238696   1.498   2.824   7.040
12940TIP3    H138697   1.410   2.831   7.083
12940TIP3    H238698   1.549   2.778   7.108
12941TIP3   OH238699   2.280   2.086   8.315
12941TIP3    H138700   2.191   2.108   8.284
12941TIP3    H238701   2.285   1.991   8.293
12942TIP3   OH238702   0.859   2.481   8.351
12942TIP3    H138703   0.920   2.477   8.428
12942TIP3    H238704   0.785   2.427   8.384
12943TIP3   OH238705   1.787   1.430   8.336
12943TIP3    H138706   1.876   1.407   8.374
12943TIP3    H238707   1.742   1.463   8.414
12944TIP3   OH238708   2.024   1.864   8.267
12944TIP3    H138709   1.999   1.890   8.357
12944TIP3    H238710   2.010   1.948   8.218
12945TIP3   OH238711   1.682   1.996   6.780
12945TIP3    H138712   1.666   1.967   6.688
12945TIP3    H238713   1.768   2.040   6.773
12946TIP3   OH238714   1.392   1.377   7.102
12946TIP3    H138715   1.368   1.383   7.196
12946TIP3    H238716   1.402   1.281   7.093
12947TIP3   OH238717   1.235   1.859   8.118
12947TIP3    H138718   1.177   1.862   8.195
12947TIP3    H238719   1.202   1.935   8.065
12948TIP3   OH238720   1.091   1.738   7.659
12948TIP3    H138721   1.108   1.676   7.732
12948TIP3    H238722   1.132   1.697   7.582
12949TIP3   OH238723   1.729   1.844   7.615
12949TIP3    H138724   1.684   1.881   7.536
12949TIP3    H238725   1.759   1.760   7.574
12950TIP3   OH238726   1.742   2.083   8.052
12950TIP3    H138727   1.770   2.010   7.993
12950TIP3    H238728   1.719   2.032   8.133
12951TIP3   OH238729   1.407   1.564   7.718
12951TIP3    H138730   1.337   1.557   7.784
12951TIP3    H238731   1.486   1.559   7.774
12952TIP3   OH238732   1.103   1.608   7.404
12952TIP3    H138733   1.200   1.600   7.422
12952TIP3    H238734   1.108   1.633   7.310
12953TIP3   OH238735   1.906   1.626   7.928
12953TIP3    H138736   1.865   1.635   8.017
12953TIP3    H238737   1.846   1.564   7.885
12954TIP3   OH238738   0.929   1.612   7.158
12954TIP3    H138739   0.873   1.581   7.084
12954TIP3    H238740   0.999   1.659   7.107
12955TIP3   OH238741   2.069   3.312   8.141
12955TIP3    H138742   2.069   3.331   8.045
12955TIP3    H238743   2.151   3.357   8.170
12956TIP3   OH238744   1.015   2.426   8.574
12956TIP3    H138745   1.105   2.451   8.604
12956TIP3    H238746   0.972   2.416   8.660
12957TIP3   OH238747   1.492   1.868   7.815
12957TIP3    H138748   1.569   1.843   7.760
12957TIP3    H238749   1.513   1.828   7.901
12958TIP3   OH238750   1.484   1.757   8.093
12958TIP3    H138751   1.399   1.801   8.114
12958TIP3    H238752   1.544   1.800   8.156
12959TIP3   OH238753   1.179   2.191   7.189
12959TIP3    H138754   1.134   2.105   7.187
12959TIP3    H238755   1.184   2.207   7.286
12960TIP3   OH238756   2.105   2.399   7.833
12960TIP3    H138757   2.129   2.444   7.749
12960TIP3    H238758   2.020   2.354   7.809
12961TIP3   OH238759   1.659   1.493   7.070
12961TIP3    H138760   1.562   1.482   7.070
12961TIP3    H238761   1.670   1.589   7.069
12962TIP3   OH238762   1.603   2.478   8.198
12962TIP3    H138763   1.631   2.450   8.286
12962TIP3    H238764   1.568   2.567   8.212
12963TIP3   OH238765   0.888   2.169   7.884
12963TIP3    H138766   0.926   2.152   7.795
12963TIP3    H238767   0.961   2.135   7.940
12964TIP3   OH238768   1.349   2.312   7.014
12964TIP3    H138769   1.304   2.398   7.027
12964TIP3    H238770   1.297   2.255   7.075
12965TIP3   OH238771   1.506   2.217   8.501
12965TIP3    H138772   1.462   2.156   8.440
12965TIP3    H238773   1.596   2.181   8.500
12966TIP3   OH238774   1.765   2.750   8.091
12966TIP3    H138775   1.669   2.737   8.104
12966TIP3    H238776   1.790   2.796   8.174
12967TIP3   OH238777   2.182   1.808   6.997
12967TIP3    H138778   2.116   1.764   6.938
12967TIP3    H238779   2.174   1.899   6.960
12968TIP3   OH238780   2.393   2.672   8.082
12968TIP3    H138781   2.295   2.662   8.075
12968TIP3    H238782   2.420   2.639   7.993
12969TIP3   OH238783   1.874   2.629   6.913
12969TIP3    H138784   1.851   2.558   6.974
12969TIP3    H238785   1.887   2.582   6.828
12970TIP3   OH238786   1.871   2.262   7.754
12970TIP3    H138787   1.777   2.236   7.764
12970TIP3    H238788   1.906   2.182   7.709
12971TIP3   OH238789   0.999   2.490   7.510
12971TIP3    H138790   1.006   2.567   7.452
12971TIP3    H238791   0.904   2.470   7.505
12972TIP3   OH238792   1.135   2.254   7.450
12972TIP3    H138793   1.103   2.344   7.469
12972TIP3    H238794   1.108   2.207   7.531
12973TIP3   OH238795   1.267   2.829   7.973
12973TIP3    H138796   1.309   2.900   7.921
12973TIP3    H238797   1.344   2.792   8.020
12974TIP3   OH238798   0.917   2.726   7.354
12974TIP3    H138799   0.832   2.735   7.401
12974TIP3    H238800   0.949   2.819   7.357
12975TIP3   OH238801   1.660   2.470   7.929
12975TIP3    H138802   1.649   2.461   8.026
12975TIP3    H238803   1.731   2.406   7.911
12976TIP3   OH238804   1.629   2.360   6.814
12976TIP3    H138805   1.686   2.337   6.890
12976TIP3    H238806   1.544   2.327   6.846
12977TIP3   OH238807   1.903   3.003   7.987
12977TIP3    H138808   1.829   2.940   7.980
12977TIP3    H238809   1.887   3.062   7.910
12978TIP3   OH238810   1.970   2.832   6.633
12978TIP3    H138811   2.008   2.904   6.580
12978TIP3    H238812   1.890   2.878   6.666
12979TIP3   OH238813   1.789   2.297   7.027
12979TIP3    H138814   1.768   2.222   7.084
12979TIP3    H238815   1.887   2.289   7.022
12980TIP3   OH238816   0.699   2.686   8.133
12980TIP3    H138817   0.764   2.621   8.161
12980TIP3    H238818   0.724   2.762   8.187
12981TIP3   OH238819   0.993   2.340   6.815
12981TIP3    H138820   1.015   2.250   6.784
12981TIP3    H238821   0.977   2.325   6.910
12982TIP3   OH238822   0.941   2.338   7.090
12982TIP3    H138823   1.023   2.306   7.133
12982TIP3    H238824   0.950   2.436   7.098
12983TIP3   OH238825   0.694   2.024   7.296
12983TIP3    H138826   0.630   2.078   7.348
12983TIP3    H238827   0.712   2.085   7.222
12984TIP3   OH238828   1.824   1.674   8.187
12984TIP3    H138829   1.906   1.718   8.219
12984TIP3    H238830   1.820   1.594   8.241
12985TIP3   OH238831   1.709   1.430   7.339
12985TIP3    H138832   1.697   1.461   7.247
12985TIP3    H238833   1.749   1.509   7.381
12986TIP3   OH238834   1.206   2.542   7.036
12986TIP3    H138835   1.119   2.570   7.070
12986TIP3    H238836   1.223   2.610   6.970
12987TIP3   OH238837   1.386   1.625   7.447
12987TIP3    H138838   1.454   1.687   7.413
12987TIP3    H238839   1.411   1.619   7.542
12988TIP3   OH238840   1.675   1.922   8.267
12988TIP3    H138841   1.693   1.951   8.359
12988TIP3    H238842   1.728   1.841   8.264
12989TIP3   OH238843   1.542   1.332   7.533
12989TIP3    H138844   1.537   1.399   7.603
12989TIP3    H238845   1.607   1.374   7.471
12990TIP3   OH238846   0.947   2.615   7.100
12990TIP3    H138847   0.920   2.685   7.037
12990TIP3    H238848   0.934   2.660   7.187
12991TIP3   OH238849   2.300   1.821   8.236
12991TIP3    H138850   2.204   1.812   8.252
12991TIP3    H238851   2.308   1.774   8.151
12992TIP3   OH238852   1.953   2.024   7.629
12992TIP3    H138853   1.881   1.958   7.628
12992TIP3    H238854   2.027   1.974   7.669
12993TIP3   OH238855   0.664   2.248   7.092
12993TIP3    H138856   0.734   2.315   7.106
12993TIP3    H238857   0.711   2.193   7.026
12994TIP3   OH238858   1.923   2.976   7.575
12994TIP3    H138859   1.882   3.024   7.499
12994TIP3    H238860   2.018   2.993   7.555
12995TIP3   OH238861   0.541   2.468   7.500
12995TIP3    H138862   0.453   2.503   7.519
12995TIP3    H238863   0.547   2.490   7.406
12996TIP3   OH238864   0.716   3.013   8.530
12996TIP3    H138865   0.791   3.015   8.593
12996TIP3    H238866   0.684   2.923   8.541
12997TIP3   OH238867   1.178   2.969   8.595
12997TIP3    H138868   1.272   2.948   8.605
12997TIP3    H238869   1.154   2.910   8.520
12998TIP3   OH238870   1.160   2.543   6.728
12998TIP3    H138871   1.105   2.471   6.766
12998TIP3    H238872   1.235   2.491   6.693
12999TIP3   OH238873   1.811   2.878   8.336
12999TIP3    H138874   1.805   2.801   8.397
12999TIP3    H238875   1.895   2.919   8.362
13000TIP3   OH238876   1.596   2.583   6.638
13000TIP3    H138877   1.637   2.517   6.696
13000TIP3    H238878   1.654   2.581   6.559
13001TIP3   OH238879   0.808   2.056   6.953
13001TIP3    H138880   0.868   2.027   7.025
13001TIP3    H238881   0.874   2.060   6.880
13002TIP3   OH238882   1.439   2.492   8.523
13002TIP3    H138883   1.401   2.501   8.434
13002TIP3    H238884   1.474   2.400   8.522
13003TIP3   OH238885   1.305   2.253   6.750
13003TIP3    H138886   1.315   2.269   6.846
13003TIP3    H238887   1.310   2.155   6.748
13004TIP3   OH238888   1.928   2.504   8.134
13004TIP3    H138889   2.003   2.546   8.088
13004TIP3    H238890   1.856   2.566   8.113
13005TIP3   OH238891   0.997   1.961   7.158
13005TIP3    H138892   1.000   1.937   7.252
13005TIP3    H238893   1.046   1.888   7.115
13006TIP3   OH238894   1.262   2.019   8.389
13006TIP3    H138895   1.205   2.097   8.405
13006TIP3    H238896   1.323   2.052   8.319
13007TIP3   OH238897   1.115   1.747   7.018
13007TIP3    H138898   1.089   1.752   6.923
13007TIP3    H238899   1.212   1.758   7.009
13008TIP3   OH238900   1.801   2.427   8.529
13008TIP3    H138901   1.876   2.390   8.480
13008TIP3    H238902   1.798   2.365   8.606
13009TIP3   OH238903   1.936   2.088   6.671
13009TIP3    H138904   1.913   2.040   6.589
13009TIP3    H238905   1.902   2.177   6.647
13010TIP3   OH238906   1.441   1.815   8.509
13010TIP3    H138907   1.400   1.750   8.451
13010TIP3    H238908   1.381   1.891   8.497
13011TIP3   OH238909   1.432   2.137   8.213
13011TIP3    H138910   1.516   2.130   8.165
13011TIP3    H238911   1.384   2.205   8.161
13012TIP3   OH238912   2.059   2.361   8.323
13012TIP3    H138913   2.001   2.412   8.262
13012TIP3    H238914   2.147   2.379   8.282
13013TIP3   OH238915   2.199   1.759   8.624
13013TIP3    H138916   2.164   1.669   8.637
13013TIP3    H238917   2.153   1.809   8.695
13014TIP3   OH238918   0.921   2.819   6.914
13014TIP3    H138919   1.016   2.814   6.894
13014TIP3    H238920   0.890   2.867   6.835
13015TIP3   OH238921   0.403   2.169   7.144
13015TIP3    H138922   0.491   2.212   7.130
13015TIP3    H238923   0.419   2.082   7.101
13016TIP3   OH238924   0.322   2.810   7.534
13016TIP3    H138925   0.239   2.765   7.519
13016TIP3    H238926   0.360   2.761   7.609
13017TIP3   OH238927   0.440   2.674   7.736
13017TIP3    H138928   0.448   2.594   7.789
13017TIP3    H238929   0.495   2.736   7.788
13018TIP3   OH238930   2.175   3.071   7.529
13018TIP3    H138931   2.207   3.098   7.617
13018TIP3    H238932   2.244   3.104   7.470
13019TIP3   OH238933   2.209   3.085   7.814
13019TIP3    H138934   2.163   2.999   7.808
13019TIP3    H238935   2.284   3.059   7.870
13020TIP3   OH238936   2.254   2.762   8.385
13020TIP3    H138937   2.180   2.768   8.447
13020TIP3    H238938   2.295   2.851   8.392
13021TIP3   OH238939   2.069   2.275   7.007
13021TIP3    H138940   2.140   2.335   6.978
13021TIP3    H238941   2.111   2.233   7.086
13022TIP3   OH238942   2.201   2.147   7.207
13022TIP3    H138943   2.140   2.094   7.263
13022TIP3    H238944   2.264   2.182   7.273
13023TIP3   OH238945   2.251   2.534   7.640
13023TIP3    H138946   2.306   2.467   7.595
13023TIP3    H238947   2.242   2.603   7.573
13024TIP3   OH238948   2.084   2.837   7.834
13024TIP3    H138949   2.012   2.870   7.889
13024TIP3    H238950   2.035   2.785   7.766
13025TIP3   OH238951   2.136   2.051   6.854
13025TIP3    H138952   2.063   2.054   6.789
13025TIP3    H238953   2.109   2.124   6.913
13026TIP3   OH238954   2.011   1.721   6.804
13026TIP3    H138955   1.960   1.759   6.732
13026TIP3    H238956   1.985   1.626   6.797
13027TIP3   OH238957   2.040   1.991   7.356
13027TIP3    H138958   2.014   1.898   7.341
13027TIP3    H238959   1.998   2.010   7.442
13028TIP3   OH238960   2.302   2.424   8.212
13028TIP3    H138961   2.372   2.356   8.205
13028TIP3    H238962   2.331   2.490   8.147
13029TIP3   OH238963   2.488   2.234   8.233
13029TIP3    H138964   2.415   2.178   8.267
13029TIP3    H238965   2.563   2.171   8.244
13030TIP3   OH238966   1.951   1.455   6.795
13030TIP3    H138967   2.030   1.429   6.847
13030TIP3    H238968   1.883   1.393   6.827
13031TIP3   OH238969   2.012   1.714   7.273
13031TIP3    H138970   2.055   1.626   7.279
13031TIP3    H238971   2.045   1.745   7.187
13032TIP3   OH238972   2.168   1.891   7.743
13032TIP3    H138973   2.254   1.916   7.702
13032TIP3    H238974   2.183   1.924   7.833
13033TIP3   OH238975   2.238   2.032   7.978
13033TIP3    H138976   2.161   2.066   8.028
13033TIP3    H238977   2.270   2.113   7.933
13034TIP3   OH238978   2.689   1.638   8.538
13034TIP3    H138979   2.744   1.565   8.501
13034TIP3    H238980   2.650   1.674   8.455
13035TIP3   OH238981   2.123   1.459   7.281
13035TIP3    H138982   2.169   1.445   7.367
13035TIP3    H238983   2.060   1.385   7.282
13036TIP3   OH238984   2.550   1.765   8.345
13036TIP3    H138985   2.457   1.796   8.339
13036TIP3    H238986   2.544   1.693   8.279
13037TIP3   OH238987   2.196   1.401   6.916
13037TIP3    H138988   2.238   1.326   6.869
13037TIP3    H238989   2.266   1.469   6.914
13038TIP3   OH238990   1.761   2.934   7.188
13038TIP3    H138991   1.809   2.913   7.105
13038TIP3    H238992   1.824   2.994   7.231
13039TIP3   OH238993   0.852   2.729   8.564
13039TIP3    H138994   0.777   2.671   8.549
13039TIP3    H238995   0.869   2.721   8.659
13040TIP3   OH238996   1.039   2.768   8.121
13040TIP3    H138997   0.993   2.845   8.082
13040TIP3    H238998   1.125   2.778   8.077
13041TIP3   OH238999   1.485   3.014   8.259
13041TIP3    H139000   1.530   3.014   8.346
13041TIP3    H239001   1.551   3.062   8.204
13042TIP3   OH239002   1.663   3.164   8.115
13042TIP3    H139003   1.732   3.111   8.072
13042TIP3    H239004   1.718   3.220   8.175
13043TIP3   OH239005   2.455   1.530   8.221
13043TIP3    H139006   2.369   1.517   8.178
13043TIP3    H239007   2.494   1.438   8.214
13044TIP3   OH239008   0.717   3.021   8.145
13044TIP3    H139009   0.627   3.054   8.125
13044TIP3    H239010   0.728   3.056   8.234
13045TIP3   OH239011   0.953   3.004   8.003
13045TIP3    H139012   0.867   3.016   8.048
13045TIP3    H239013   0.932   3.035   7.913
13046TIP3   OH239014   1.378   3.031   7.802
13046TIP3    H139015   1.311   3.051   7.734
13046TIP3    H239016   1.392   3.119   7.843
13047TIP3   OH239017   1.648   2.975   7.855
13047TIP3    H139018   1.555   2.987   7.830
13047TIP3    H239019   1.692   3.046   7.806
13048TIP3   OH239020   1.856   3.164   7.766
13048TIP3    H139021   1.842   3.247   7.716
13048TIP3    H239022   1.883   3.102   7.694
13049TIP3   OH239023   0.627   2.812   7.885
13049TIP3    H139024   0.649   2.794   7.978
13049TIP3    H239025   0.703   2.769   7.840
13050TIP3   OH239026   0.825   2.687   7.746
13050TIP3    H139027   0.842   2.602   7.791
13050TIP3    H239028   0.915   2.725   7.740
13051TIP3   OH239029   1.089   2.786   7.749
13051TIP3    H139030   1.121   2.695   7.731
13051TIP3    H239031   1.135   2.803   7.833
13052TIP3   OH239032   1.661   1.428   7.829
13052TIP3    H139033   1.628   1.338   7.839
13052TIP3    H239034   1.743   1.410   7.779
13053TIP3   OH239035   2.170   1.360   7.745
13053TIP3    H139036   2.217   1.385   7.663
13053TIP3    H239037   2.077   1.359   7.719
13054TIP3   OH239038   2.281   1.422   7.502
13054TIP3    H139039   2.356   1.369   7.466
13054TIP3    H239040   2.317   1.513   7.489
13055TIP3   OH239041   1.886   1.323   7.713
13055TIP3    H139042   1.906   1.290   7.625
13055TIP3    H239043   1.887   1.241   7.767
13056TIP3   OH239044   1.932   1.252   7.275
13056TIP3    H139045   1.848   1.299   7.290
13056TIP3    H239046   1.916   1.168   7.322
13057TIP3   OH239047   0.396   2.589   7.292
13057TIP3    H139048   0.351   2.549   7.218
13057TIP3    H239049   0.392   2.683   7.266
13058TIP3   OH239050   1.304   1.375   7.379
13058TIP3    H139051   1.373   1.321   7.421
13058TIP3    H239052   1.339   1.464   7.401
13059TIP3   OH239053   1.189   2.779   6.863
13059TIP3    H139054   1.277   2.801   6.826
13059TIP3    H239055   1.167   2.704   6.803
13060TIP3   OH239056   1.906   2.895   6.956
13060TIP3    H139057   1.899   2.798   6.943
13060TIP3    H239058   1.863   2.928   6.874
13061TIP3   OH239059   0.492   2.604   6.924
13061TIP3    H139060   0.501   2.656   7.005
13061TIP3    H239061   0.583   2.569   6.909
13062TIP3   OH239062   2.192   1.472   8.648
13062TIP3    H139063   2.225   1.418   8.722
13062TIP3    H239064   2.273   1.483   8.595
13063TIP3   OH239065   2.133   3.041   8.145
13063TIP3    H139066   2.055   3.009   8.095
13063TIP3    H239067   2.113   3.137   8.147
13064TIP3   OH239068   3.402   2.416   6.906
13064TIP3    H139069   3.371   2.506   6.885
13064TIP3    H239070   3.325   2.364   6.878
13065TIP3   OH239071   3.399   2.413   7.291
13065TIP3    H139072   3.431   2.382   7.378
13065TIP3    H239073   3.358   2.332   7.256
13066TIP3   OH239074   2.698   2.307   7.655
13066TIP3    H139075   2.727   2.240   7.719
13066TIP3    H239076   2.777   2.362   7.649
13067TIP3   OH239077   3.646   2.714   6.970
13067TIP3    H139078   3.627   2.644   7.034
13067TIP3    H239079   3.669   2.788   7.029
13068TIP3   OH239080   2.670   2.720   7.381
13068TIP3    H139081   2.660   2.622   7.382
13068TIP3    H239082   2.767   2.726   7.377
13069TIP3   OH239083   2.378   1.927   7.166
13069TIP3    H139084   2.324   2.007   7.179
13069TIP3    H239085   2.309   1.865   7.138
13070TIP3   OH239086   2.440   2.211   7.339
13070TIP3    H139087   2.485   2.132   7.377
13070TIP3    H239088   2.492   2.227   7.260
13071TIP3   OH239089   3.292   3.177   6.987
13071TIP3    H139090   3.339   3.106   6.939
13071TIP3    H239091   3.284   3.139   7.075
13072TIP3   OH239092   3.198   2.640   7.337
13072TIP3    H139093   3.234   2.561   7.293
13072TIP3    H239094   3.283   2.683   7.360
13073TIP3   OH239095   4.236   1.962   7.331
13073TIP3    H139096   4.246   2.047   7.377
13073TIP3    H239097   4.229   1.988   7.239
13074TIP3   OH239098   3.613   2.150   7.367
13074TIP3    H139099   3.647   2.060   7.390
13074TIP3    H239100   3.578   2.131   7.278
13075TIP3   OH239101   2.947   1.800   7.336
13075TIP3    H139102   2.926   1.872   7.272
13075TIP3    H239103   2.900   1.725   7.293
13076TIP3   OH239104   3.642   1.889   6.959
13076TIP3    H139105   3.713   1.872   7.026
13076TIP3    H239106   3.696   1.925   6.887
13077TIP3   OH239107   2.582   2.002   7.443
13077TIP3    H139108   2.664   1.979   7.491
13077TIP3    H239109   2.592   1.945   7.364
13078TIP3   OH239110   3.023   2.200   7.235
13078TIP3    H139111   3.116   2.173   7.250
13078TIP3    H239112   2.982   2.116   7.205
13079TIP3   OH239113   4.287   2.176   7.503
13079TIP3    H139114   4.201   2.217   7.485
13079TIP3    H239115   4.286   2.179   7.600
13080TIP3   OH239116   2.946   1.783   7.770
13080TIP3    H139117   2.885   1.817   7.703
13080TIP3    H239118   2.894   1.799   7.851
13081TIP3   OH239119   3.297   2.639   6.775
13081TIP3    H139120   3.248   2.610   6.697
13081TIP3    H239121   3.249   2.720   6.799
13082TIP3   OH239122   3.052   2.559   7.565
13082TIP3    H139123   2.987   2.623   7.603
13082TIP3    H239124   3.092   2.611   7.493
13083TIP3   OH239125   3.853   1.892   7.133
13083TIP3    H139126   3.835   1.847   7.217
13083TIP3    H239127   3.906   1.968   7.163
13084TIP3   OH239128   2.815   1.898   7.554
13084TIP3    H139129   2.878   1.970   7.577
13084TIP3    H239130   2.864   1.856   7.480
13085TIP3   OH239131   2.879   2.752   7.664
13085TIP3    H139132   2.850   2.837   7.625
13085TIP3    H239133   2.801   2.734   7.721
13086TIP3   OH239134   2.275   2.441   6.899
13086TIP3    H139135   2.232   2.467   6.815
13086TIP3    H239136   2.304   2.527   6.935
13087TIP3   OH239137   3.714   2.958   7.139
13087TIP3    H139138   3.625   2.948   7.179
13087TIP3    H239139   3.704   3.044   7.094
13088TIP3   OH239140   3.302   1.501   7.485
13088TIP3    H139141   3.288   1.406   7.503
13088TIP3    H239142   3.223   1.539   7.531
13089TIP3   OH239143   3.417   3.004   6.815
13089TIP3    H139144   3.466   2.922   6.794
13089TIP3    H239145   3.475   3.070   6.771
13090TIP3   OH239146   3.559   2.789   6.718
13090TIP3    H139147   3.510   2.712   6.688
13090TIP3    H239148   3.596   2.755   6.803
13091TIP3   OH239149   3.941   2.872   7.482
13091TIP3    H139150   3.927   2.793   7.425
13091TIP3    H239151   3.922   2.945   7.420
13092TIP3   OH239152   3.231   2.266   6.739
13092TIP3    H139153   3.149   2.314   6.717
13092TIP3    H239154   3.275   2.261   6.653
13093TIP3   OH239155   3.189   2.051   6.455
13093TIP3    H139156   3.258   2.098   6.505
13093TIP3    H239157   3.244   1.984   6.408
13094TIP3   OH239158   4.136   2.512   7.328
13094TIP3    H139159   4.051   2.561   7.335
13094TIP3    H239160   4.159   2.532   7.235
13095TIP3   OH239161   3.580   2.349   6.711
13095TIP3    H139162   3.523   2.373   6.788
13095TIP3    H239163   3.661   2.319   6.757
13096TIP3   OH239164   3.813   2.389   7.620
13096TIP3    H139165   3.807   2.472   7.669
13096TIP3    H239166   3.726   2.388   7.576
13097TIP3   OH239167   2.812   2.346   7.126
13097TIP3    H139168   2.769   2.287   7.060
13097TIP3    H239169   2.887   2.291   7.157
13098TIP3   OH239170   2.942   2.760   7.275
13098TIP3    H139171   2.918   2.712   7.194
13098TIP3    H239172   3.031   2.724   7.294
13099TIP3   OH239173   2.948   2.315   7.483
13099TIP3    H139174   2.980   2.294   7.393
13099TIP3    H239175   2.991   2.401   7.502
13100TIP3   OH239176   3.474   2.954   7.260
13100TIP3    H139177   3.459   3.032   7.316
13100TIP3    H239178   3.459   2.879   7.321
13101TIP3   OH239179   3.084   2.875   7.804
13101TIP3    H139180   3.024   2.936   7.852
13101TIP3    H239181   3.018   2.820   7.757
13102TIP3   OH239182   3.421   2.204   6.538
13102TIP3    H139183   3.479   2.264   6.590
13102TIP3    H239184   3.446   2.229   6.446
13103TIP3   OH239185   2.838   2.434   7.902
13103TIP3    H139186   2.842   2.516   7.954
13103TIP3    H239187   2.745   2.409   7.916
13104TIP3   OH239188   3.162   2.884   6.812
13104TIP3    H139189   3.240   2.940   6.831
13104TIP3    H239190   3.100   2.946   6.773
13105TIP3   OH239191   2.878   3.044   7.893
13105TIP3    H139192   2.844   3.038   7.802
13105TIP3    H239193   2.798   3.022   7.946
13106TIP3   OH239194   3.934   1.446   6.586
13106TIP3    H139195   3.852   1.463   6.638
13106TIP3    H239196   3.944   1.530   6.538
13107TIP3   OH239197   2.677   2.188   6.933
13107TIP3    H139198   2.609   2.230   6.876
13107TIP3    H239199   2.639   2.101   6.949
13108TIP3   OH239200   3.733   2.814   6.134
13108TIP3    H139201   3.740   2.911   6.120
13108TIP3    H239202   3.826   2.785   6.125
13109TIP3   OH239203   2.459   2.572   7.839
13109TIP3    H139204   2.393   2.546   7.771
13109TIP3    H239205   2.496   2.485   7.866
13110TIP3   OH239206   2.312   2.767   7.468
13110TIP3    H139207   2.407   2.751   7.461
13110TIP3    H239208   2.309   2.842   7.530
13111TIP3   OH239209   4.176   3.215   7.528
13111TIP3    H139210   4.175   3.118   7.542
13111TIP3    H239211   4.093   3.240   7.574
13112TIP3   OH239212   3.281   3.003   7.662
13112TIP3    H139213   3.280   3.095   7.696
13112TIP3    H239214   3.210   2.963   7.716
13113TIP3   OH239215   3.043   3.132   6.614
13113TIP3    H139216   2.996   3.110   6.532
13113TIP3    H239217   3.009   3.221   6.636
13114TIP3   OH239218   2.481   2.980   6.999
13114TIP3    H139219   2.527   2.970   7.085
13114TIP3    H239220   2.428   2.898   6.997
13115TIP3   OH239221   3.245   3.033   6.255
13115TIP3    H139222   3.303   2.962   6.219
13115TIP3    H239223   3.279   3.040   6.347
13116TIP3   OH239224   3.295   3.080   6.526
13116TIP3    H139225   3.206   3.089   6.567
13116TIP3    H239226   3.344   3.037   6.598
13117TIP3   OH239227   4.066   2.350   7.801
13117TIP3    H139228   3.984   2.360   7.751
13117TIP3    H239229   4.082   2.254   7.791
13118TIP3   OH239230   2.662   2.757   7.831
13118TIP3    H139231   2.714   2.736   7.912
13118TIP3    H239232   2.590   2.691   7.836
13119TIP3   OH239233   3.061   1.578   7.611
13119TIP3    H139234   2.972   1.545   7.587
13119TIP3    H239235   3.035   1.659   7.659
13120TIP3   OH239236   3.592   1.696   7.806
13120TIP3    H139237   3.661   1.666   7.869
13120TIP3    H239238   3.509   1.672   7.852
13121TIP3   OH239239   3.844   2.128   7.733
13121TIP3    H139240   3.788   2.119   7.814
13121TIP3    H239241   3.808   2.208   7.691
13122TIP3   OH239242   3.496   2.253   6.282
13122TIP3    H139243   3.462   2.226   6.194
13122TIP3    H239244   3.577   2.302   6.255
13123TIP3   OH239245   3.210   1.627   6.584
13123TIP3    H139246   3.177   1.625   6.676
13123TIP3    H239247   3.170   1.544   6.551
13124TIP3   OH239248   2.994   2.092   7.632
13124TIP3    H139249   2.944   2.112   7.714
13124TIP3    H239250   2.977   2.174   7.579
13125TIP3   OH239251   2.876   1.981   7.145
13125TIP3    H139252   2.784   1.952   7.164
13125TIP3    H239253   2.890   1.939   7.057
13126TIP3   OH239254   3.370   2.068   6.874
13126TIP3    H139255   3.315   2.137   6.831
13126TIP3    H239256   3.422   2.035   6.799
13127TIP3   OH239257   3.542   2.345   7.963
13127TIP3    H139258   3.517   2.272   8.024
13127TIP3    H239259   3.636   2.354   7.983
13128TIP3   OH239260   3.527   2.096   7.109
13128TIP3    H139261   3.464   2.119   7.037
13128TIP3    H239262   3.561   2.012   7.073
13129TIP3   OH239263   2.813   2.123   7.843
13129TIP3    H139264   2.845   2.181   7.913
13129TIP3    H239265   2.800   2.039   7.891
13130TIP3   OH239266   2.865   1.602   6.549
13130TIP3    H139267   2.856   1.596   6.647
13130TIP3    H239268   2.783   1.650   6.527
13131TIP3   OH239269   2.407   1.646   7.419
13131TIP3    H139270   2.483   1.674   7.474
13131TIP3    H239271   2.449   1.608   7.340
13132TIP3   OH239272   2.380   1.624   6.937
13132TIP3    H139273   2.426   1.665   6.861
13132TIP3    H239274   2.319   1.697   6.961
13133TIP3   OH239275   3.539   2.344   7.536
13133TIP3    H139276   3.571   2.272   7.476
13133TIP3    H239277   3.509   2.290   7.612
13134TIP3   OH239278   3.203   1.810   7.207
13134TIP3    H139279   3.123   1.803   7.262
13134TIP3    H239280   3.274   1.794   7.271
13135TIP3   OH239281   2.640   1.858   7.214
13135TIP3    H139282   2.545   1.865   7.188
13135TIP3    H239283   2.662   1.765   7.193
13136TIP3   OH239284   2.909   1.854   6.904
13136TIP3    H139285   3.003   1.869   6.882
13136TIP3    H239286   2.862   1.877   6.820
13137TIP3   OH239287   3.673   1.886   7.398
13137TIP3    H139288   3.656   1.886   7.494
13137TIP3    H239289   3.621   1.810   7.369
13138TIP3   OH239290   2.748   1.890   6.683
13138TIP3    H139291   2.676   1.843   6.638
13138TIP3    H239292   2.800   1.922   6.606
13139TIP3   OH239293   3.867   3.566   7.627
13139TIP3    H139294   3.865   3.589   7.533
13139TIP3    H239295   3.946   3.615   7.658
13140TIP3   OH239296   2.823   2.680   8.049
13140TIP3    H139297   2.903   2.706   8.098
13140TIP3    H239298   2.759   2.672   8.123
13141TIP3   OH239299   3.290   2.133   7.307
13141TIP3    H139300   3.357   2.085   7.256
13141TIP3    H239301   3.293   2.088   7.394
13142TIP3   OH239302   2.811   1.616   7.184
13142TIP3    H139303   2.775   1.538   7.232
13142TIP3    H239304   2.864   1.574   7.115
13143TIP3   OH239305   3.264   2.029   7.589
13143TIP3    H139306   3.174   2.061   7.608
13143TIP3    H239307   3.321   2.087   7.644
13144TIP3   OH239308   3.001   2.418   6.688
13144TIP3    H139309   2.929   2.351   6.678
13144TIP3    H239310   2.983   2.451   6.780
13145TIP3   OH239311   3.901   2.653   7.319
13145TIP3    H139312   3.923   2.702   7.237
13145TIP3    H239313   3.815   2.610   7.296
13146TIP3   OH239314   3.458   1.734   6.543
13146TIP3    H139315   3.363   1.713   6.559
13146TIP3    H239316   3.467   1.826   6.575
13147TIP3   OH239317   3.409   2.740   7.684
13147TIP3    H139318   3.418   2.706   7.774
13147TIP3    H239319   3.361   2.824   7.697
13148TIP3   OH239320   3.528   1.975   6.655
13148TIP3    H139321   3.624   1.981   6.672
13148TIP3    H239322   3.510   2.056   6.602
13149TIP3   OH239323   2.697   2.445   7.365
13149TIP3    H139324   2.734   2.412   7.280
13149TIP3    H239325   2.728   2.377   7.427
13150TIP3   OH239326   3.146   2.567   6.510
13150TIP3    H139327   3.099   2.653   6.518
13150TIP3    H239328   3.092   2.511   6.569
13151TIP3   OH239329   2.573   2.364   7.979
13151TIP3    H139330   2.599   2.346   8.072
13151TIP3    H239331   2.508   2.293   7.963
13152TIP3   OH239332   3.297   2.477   7.994
13152TIP3    H139333   3.237   2.414   7.952
13152TIP3    H239334   3.385   2.440   7.970
13153TIP3   OH239335   3.562   3.004   7.577
13153TIP3    H139336   3.467   2.992   7.592
13153TIP3    H239337   3.588   3.050   7.659
13154TIP3   OH239338   3.974   2.065   6.488
13154TIP3    H139339   3.911   2.019   6.428
13154TIP3    H239340   3.969   2.154   6.447
13155TIP3   OH239341   4.190   2.926   7.571
13155TIP3    H139342   4.092   2.919   7.563
13155TIP3    H239343   4.216   2.895   7.481
13156TIP3   OH239344   3.680   2.884   6.402
13156TIP3    H139345   3.641   2.817   6.461
13156TIP3    H239346   3.683   2.838   6.316
13157TIP3   OH239347   3.667   2.515   7.236
13157TIP3    H139348   3.575   2.488   7.251
13157TIP3    H239349   3.702   2.435   7.193
13158TIP3   OH239350   2.793   2.743   6.990
13158TIP3    H139351   2.793   2.824   6.936
13158TIP3    H239352   2.699   2.724   6.998
13159TIP3   OH239353   2.357   2.048   6.692
13159TIP3    H139354   2.404   2.131   6.715
13159TIP3    H239355   2.280   2.053   6.753
13160TIP3   OH239356   2.935   2.510   6.934
13160TIP3    H139357   2.898   2.599   6.954
13160TIP3    H239358   2.898   2.458   7.008
13161TIP3   OH239359   3.063   3.087   7.459
13161TIP3    H139360   3.105   3.158   7.408
13161TIP3    H239361   3.140   3.051   7.508
13162TIP3   OH239362   2.713   2.982   6.842
13162TIP3    H139363   2.628   2.989   6.888
13162TIP3    H239364   2.744   3.076   6.845
13163TIP3   OH239365   3.454   2.723   7.416
13163TIP3    H139366   3.445   2.722   7.514
13163TIP3    H239367   3.530   2.663   7.404
13164TIP3   OH239368   3.425   2.615   6.299
13164TIP3    H139369   3.477   2.589   6.378
13164TIP3    H239370   3.337   2.587   6.326
13165TIP3   OH239371   3.702   3.256   7.470
13165TIP3    H139372   3.625   3.195   7.465
13165TIP3    H239373   3.683   3.317   7.396
13166TIP3   OH239374   3.767   3.089   6.121
13166TIP3    H139375   3.807   3.161   6.069
13166TIP3    H239376   3.687   3.136   6.153
13167TIP3   OH239377   2.785   1.866   7.983
13167TIP3    H139378   2.688   1.864   7.993
13167TIP3    H239379   2.812   1.804   8.053
13168TIP3   OH239380   3.585   2.546   6.514
13168TIP3    H139381   3.574   2.482   6.587
13168TIP3    H239382   3.682   2.545   6.504
13169TIP3   OH239383   2.501   2.951   7.620
13169TIP3    H139384   2.551   2.871   7.645
13169TIP3    H239385   2.535   3.014   7.684
13170TIP3   OH239386   2.793   2.594   6.299
13170TIP3    H139387   2.806   2.502   6.270
13170TIP3    H239388   2.774   2.581   6.394
13171TIP3   OH239389   2.738   2.599   6.572
13171TIP3    H139390   2.808   2.570   6.631
13171TIP3    H239391   2.743   2.697   6.580
13172TIP3   OH239392   2.474   2.292   6.774
13172TIP3    H139393   2.408   2.335   6.832
13172TIP3    H239394   2.488   2.363   6.708
13173TIP3   OH239395   3.620   1.937   7.673
13173TIP3    H139396   3.711   1.957   7.699
13173TIP3    H239397   3.605   1.851   7.720
13174TIP3   OH239398   3.505   1.681   6.830
13174TIP3    H139399   3.490   1.708   6.738
13174TIP3    H239400   3.544   1.762   6.870
13175TIP3   OH239401   3.005   2.798   6.522
13175TIP3    H139402   2.917   2.825   6.557
13175TIP3    H239403   3.019   2.867   6.455
13176TIP3   OH239404   3.192   1.862   6.935
13176TIP3    H139405   3.258   1.933   6.920
13176TIP3    H239406   3.196   1.852   7.032
13177TIP3   OH239407   3.462   2.178   7.739
13177TIP3    H139408   3.483   2.226   7.822
13177TIP3    H239409   3.517   2.097   7.747
13178TIP3   OH239410   3.337   1.587   7.037
13178TIP3    H139411   3.342   1.658   7.103
13178TIP3    H239412   3.398   1.622   6.968
13179TIP3   OH239413   2.748   2.873   6.588
13179TIP3    H139414   2.717   2.942   6.525
13179TIP3    H239415   2.731   2.916   6.675
13180TIP3   OH239416   2.849   1.585   6.825
13180TIP3    H139417   2.845   1.674   6.865
13180TIP3    H239418   2.944   1.566   6.834
13181TIP3   OH239419   4.109   2.083   7.717
13181TIP3    H139420   4.011   2.083   7.730
13181TIP3    H239421   4.114   2.030   7.637
13182TIP3   OH239422   3.752   2.275   7.109
13182TIP3    H139423   3.676   2.216   7.122
13182TIP3    H239424   3.823   2.227   7.158
13183TIP3   OH239425   2.465   2.504   6.581
13183TIP3    H139426   2.533   2.573   6.589
13183TIP3    H239427   2.509   2.447   6.514
13184TIP3   OH239428   2.413   1.778   6.710
13184TIP3    H139429   2.408   1.876   6.708
13184TIP3    H239430   2.324   1.753   6.682
13185TIP3   OH239431   3.721   3.230   7.061
13185TIP3    H139432   3.678   3.277   6.986
13185TIP3    H239433   3.815   3.248   7.040
13186TIP3   OH239434   2.797   1.498   7.588
13186TIP3    H139435   2.765   1.463   7.503
13186TIP3    H239436   2.785   1.420   7.647
13187TIP3   OH239437   2.341   2.725   6.970
13187TIP3    H139438   2.266   2.749   7.026
13187TIP3    H239439   2.311   2.761   6.883
13188TIP3   OH239440   2.492   3.257   8.041
13188TIP3    H139441   2.579   3.254   8.086
13188TIP3    H239442   2.471   3.162   8.037
13189TIP3   OH239443   2.976   3.224   8.082
13189TIP3    H139444   3.069   3.200   8.091
13189TIP3    H239445   2.949   3.165   8.009
13190TIP3   OH239446   2.956   2.798   6.214
13190TIP3    H139447   2.900   2.727   6.252
13190TIP3    H239448   3.031   2.746   6.180
13191TIP3   OH239449   3.613   3.130   7.817
13191TIP3    H139450   3.604   3.059   7.885
13191TIP3    H239451   3.691   3.178   7.849
13192TIP3   OH239452   3.393   2.840   6.125
13192TIP3    H139453   3.434   2.773   6.181
13192TIP3    H239454   3.448   2.839   6.044
13193TIP3   OH239455   2.623   2.668   8.240
13193TIP3    H139456   2.644   2.573   8.254
13193TIP3    H239457   2.536   2.663   8.195
13194TIP3   OH239458   2.601   2.317   6.433
13194TIP3    H139459   2.654   2.280   6.506
13194TIP3    H239460   2.668   2.320   6.362
13195TIP3   OH239461   3.232   2.750   8.013
13195TIP3    H139462   3.188   2.761   7.927
13195TIP3    H239463   3.262   2.656   8.009
13196TIP3   OH239464   3.112   2.514   6.241
13196TIP3    H139465   3.112   2.526   6.338
13196TIP3    H239466   3.111   2.416   6.236
13197TIP3   OH239467   3.726   2.755   7.621
13197TIP3    H139468   3.797   2.805   7.576
13197TIP3    H239469   3.650   2.814   7.609
13198TIP3   OH239470   2.751   2.396   8.217
13198TIP3    H139471   2.827   2.338   8.202
13198TIP3    H239472   2.769   2.424   8.309
13199TIP3   OH239473   2.811   2.218   6.657
13199TIP3    H139474   2.782   2.177   6.740
13199TIP3    H239475   2.844   2.141   6.606
13200TIP3   OH239476   3.080   2.281   7.881
13200TIP3    H139477   3.003   2.341   7.888
13200TIP3    H239478   3.127   2.317   7.803
13201TIP3   OH239479   2.909   2.013   6.495
13201TIP3    H139480   2.882   2.014   6.401
13201TIP3    H239481   3.006   2.019   6.487
13202TIP3   OH239482   3.597   2.688   8.018
13202TIP3    H139483   3.674   2.656   7.968
13202TIP3    H239484   3.588   2.619   8.086
13203TIP3   OH239485   3.734   2.344   6.157
13203TIP3    H139486   3.710   2.296   6.076
13203TIP3    H239487   3.701   2.434   6.134
13204TIP3   OH239488   3.204   2.069   8.010
13204TIP3    H139489   3.202   1.989   7.954
13204TIP3    H239490   3.159   2.135   7.953
13205TIP3   OH239491   3.205   1.858   7.815
13205TIP3    H139492   3.231   1.896   7.729
13205TIP3    H239493   3.111   1.833   7.798
13206TIP3   OH239494   3.232   2.395   7.689
13206TIP3    H139495   3.313   2.397   7.637
13206TIP3    H239496   3.175   2.461   7.644
13207TIP3   OH239497   3.817   2.360   8.074
13207TIP3    H139498   3.858   2.272   8.073
13207TIP3    H239499   3.886   2.415   8.034
13208TIP3   OH239500   3.854   2.615   7.812
13208TIP3    H139501   3.797   2.667   7.751
13208TIP3    H239502   3.942   2.632   7.770
13209TIP3   OH239503   3.039   2.207   8.198
13209TIP3    H139504   2.995   2.133   8.244
13209TIP3    H239505   3.097   2.160   8.136
13210TIP3   OH239506   3.335   1.622   7.887
13210TIP3    H139507   3.287   1.704   7.862
13210TIP3    H239508   3.265   1.554   7.873
13211TIP3   OH239509   3.460   2.126   8.103
13211TIP3    H139510   3.444   2.115   8.199
13211TIP3    H239511   3.371   2.101   8.070
13212TIP3   OH239512   3.703   2.083   7.960
13212TIP3    H139513   3.624   2.078   8.017
13212TIP3    H239514   3.773   2.044   8.016
13213TIP3   OH239515   3.941   2.020   8.109
13213TIP3    H139516   3.946   1.923   8.124
13213TIP3    H239517   3.930   2.055   8.200
13214TIP3   OH239518   2.915   1.973   8.297
13214TIP3    H139519   2.934   1.880   8.274
13214TIP3    H239520   2.971   1.987   8.377
13215TIP3   OH239521   3.433   1.630   8.143
13215TIP3    H139522   3.498   1.558   8.132
13215TIP3    H239523   3.389   1.627   8.055
13216TIP3   OH239524   3.495   1.848   8.300
13216TIP3    H139525   3.470   1.778   8.235
13216TIP3    H239526   3.417   1.906   8.299
13217TIP3   OH239527   2.717   3.077   6.402
13217TIP3    H139528   2.812   3.072   6.381
13217TIP3    H239529   2.685   3.123   6.322
13218TIP3   OH239530   2.196   2.457   6.615
13218TIP3    H139531   2.291   2.478   6.603
13218TIP3    H239532   2.191   2.368   6.575
13219TIP3   OH239533   2.108   3.069   7.032
13219TIP3    H139534   2.042   3.006   6.996
13219TIP3    H239535   2.154   3.012   7.097
13220TIP3   OH239536   2.244   2.922   7.219
13220TIP3    H139537   2.236   2.846   7.278
13220TIP3    H239538   2.297   2.982   7.275
13221TIP3   OH239539   3.976   3.317   7.016
13221TIP3    H139540   3.999   3.351   7.104
13221TIP3    H239541   4.035   3.368   6.958
13222TIP3   OH239542   4.004   3.341   7.298
13222TIP3    H139543   3.959   3.253   7.295
13222TIP3    H239544   4.078   3.319   7.356
13223TIP3   OH239545   4.050   3.018   7.871
13223TIP3    H139546   3.977   3.025   7.936
13223TIP3    H239547   4.091   3.107   7.878
13224TIP3   OH239548   3.867   2.530   6.494
13224TIP3    H139549   3.932   2.600   6.478
13224TIP3    H239550   3.905   2.486   6.574
13225TIP3   OH239551   3.993   2.401   6.699
13225TIP3    H139552   3.926   2.354   6.754
13225TIP3    H239553   4.053   2.436   6.767
13226TIP3   OH239554   4.048   2.790   7.129
13226TIP3    H139555   4.103   2.725   7.080
13226TIP3    H239556   4.036   2.861   7.064
13227TIP3   OH239557   3.879   3.091   7.322
13227TIP3    H139558   3.809   3.131   7.376
13227TIP3    H239559   3.828   3.042   7.254
13228TIP3   OH239560   3.933   2.307   6.341
13228TIP3    H139561   3.861   2.307   6.273
13228TIP3    H239562   3.902   2.382   6.396
13229TIP3   OH239563   3.805   1.979   6.294
13229TIP3    H139564   3.757   2.015   6.219
13229TIP3    H239565   3.780   1.884   6.288
13230TIP3   OH239566   3.811   2.252   6.840
13230TIP3    H139567   3.815   2.155   6.836
13230TIP3    H239568   3.794   2.267   6.936
13231TIP3   OH239569   2.433   2.332   7.588
13231TIP3    H139570   2.432   2.297   7.496
13231TIP3    H239571   2.530   2.331   7.606
13232TIP3   OH239572   4.097   2.678   7.700
13232TIP3    H139573   4.168   2.612   7.691
13232TIP3    H239574   4.124   2.747   7.637
13233TIP3   OH239575   4.283   2.485   7.715
13233TIP3    H139576   4.207   2.435   7.752
13233TIP3    H239577   4.355   2.420   7.732
13234TIP3   OH239578   3.746   1.713   6.282
13234TIP3    H139579   3.820   1.682   6.338
13234TIP3    H239580   3.672   1.655   6.307
13235TIP3   OH239581   3.804   1.971   6.737
13235TIP3    H139582   3.842   1.881   6.753
13235TIP3    H239583   3.863   2.001   6.666
13236TIP3   OH239584   3.965   2.149   7.228
13236TIP3    H139585   4.053   2.176   7.193
13236TIP3    H239586   3.976   2.173   7.321
13237TIP3   OH239587   4.036   2.290   7.466
13237TIP3    H139588   3.956   2.320   7.514
13237TIP3    H239589   4.064   2.371   7.421
13238TIP3   OH239590   2.646   2.013   8.258
13238TIP3    H139591   2.744   2.012   8.262
13238TIP3    H239592   2.625   1.926   8.297
13239TIP3   OH239593   4.490   1.882   8.020
13239TIP3    H139594   4.545   1.814   7.975
13239TIP3    H239595   4.458   1.935   7.944
13240TIP3   OH239596   3.911   1.720   6.771
13240TIP3    H139597   3.960   1.706   6.855
13240TIP3    H239598   3.850   1.643   6.772
13241TIP3   OH239599   2.613   1.706   7.594
13241TIP3    H139600   2.673   1.630   7.606
13241TIP3    H239601   2.677   1.780   7.589
13242TIP3   OH239602   2.416   1.981   7.668
13242TIP3    H139603   2.462   1.969   7.583
13242TIP3    H239604   2.452   2.066   7.697
13243TIP3   OH239605   4.357   2.017   7.826
13243TIP3    H139606   4.268   2.057   7.840
13243TIP3    H239607   4.331   1.943   7.767
13244TIP3   OH239608   3.994   1.656   6.406
13244TIP3    H139609   4.033   1.582   6.356
13244TIP3    H239610   4.063   1.725   6.399
13245TIP3   OH239611   2.399   1.485   7.169
13245TIP3    H139612   2.306   1.481   7.196
13245TIP3    H239613   2.395   1.543   7.090
13246TIP3   OH239614   3.558   3.187   6.675
13246TIP3    H139615   3.609   3.172   6.592
13246TIP3    H239616   3.612   3.255   6.718
13247TIP3   OH239617   2.626   1.584   7.993
13247TIP3    H139618   2.571   1.552   8.066
13247TIP3    H239619   2.557   1.605   7.926
13248TIP3   OH239620   2.657   2.997   8.060
13248TIP3    H139621   2.568   2.963   8.041
13248TIP3    H239622   2.671   2.965   8.150
13249TIP3   OH239623   2.836   3.024   7.609
13249TIP3    H139624   2.789   3.100   7.569
13249TIP3    H239625   2.922   3.036   7.564
13250TIP3   OH239626   3.282   3.269   7.747
13250TIP3    H139627   3.325   3.268   7.835
13250TIP3    H239628   3.349   3.318   7.694
13251TIP3   OH239629   3.461   3.420   7.603
13251TIP3    H139630   3.531   3.367   7.562
13251TIP3    H239631   3.513   3.477   7.664
13252TIP3   OH239632   4.260   1.782   7.705
13252TIP3    H139633   4.168   1.761   7.673
13252TIP3    H239634   4.298   1.691   7.695
13253TIP3   OH239635   2.514   3.284   7.627
13253TIP3    H139636   2.425   3.318   7.606
13253TIP3    H239637   2.521   3.310   7.720
13254TIP3   OH239638   2.751   3.261   7.488
13254TIP3    H139639   2.664   3.273   7.533
13254TIP3    H239640   2.730   3.291   7.398
13255TIP3   OH239641   3.176   3.288   7.286
13255TIP3    H139642   3.106   3.308   7.221
13255TIP3    H239643   3.188   3.376   7.328
13256TIP3   OH239644   3.445   3.229   7.338
13256TIP3    H139645   3.350   3.243   7.318
13256TIP3    H239646   3.485   3.306   7.294
13257TIP3   OH239647   3.654   3.421   7.253
13257TIP3    H139648   3.638   3.505   7.205
13257TIP3    H239649   3.678   3.360   7.180
13258TIP3   OH239650   2.424   3.075   7.378
13258TIP3    H139651   2.452   3.047   7.468
13258TIP3    H239652   2.495   3.031   7.326
13259TIP3   OH239653   2.618   2.947   7.234
13259TIP3    H139654   2.633   2.861   7.281
13259TIP3    H239655   2.710   2.981   7.229
13260TIP3   OH239656   2.886   3.041   7.235
13260TIP3    H139657   2.915   2.949   7.222
13260TIP3    H239658   2.930   3.060   7.320
13261TIP3   OH239659   3.446   1.692   7.312
13261TIP3    H139660   3.413   1.621   7.372
13261TIP3    H239661   3.526   1.651   7.273
13262TIP3   OH239662   3.985   1.554   7.198
13262TIP3    H139663   4.018   1.625   7.139
13262TIP3    H239664   3.923   1.601   7.256
13263TIP3   OH239665   4.084   1.691   6.980
13263TIP3    H139666   4.157   1.636   6.946
13263TIP3    H239667   4.118   1.782   6.967
13264TIP3   OH239668   2.708   1.406   7.338
13264TIP3    H139669   2.617   1.371   7.340
13264TIP3    H239670   2.759   1.322   7.338
13265TIP3   OH239671   2.488   1.278   6.985
13265TIP3    H139672   2.523   1.336   6.915
13265TIP3    H239673   2.465   1.342   7.055
13266TIP3   OH239674   3.151   1.440   7.217
13266TIP3    H139675   3.212   1.489   7.161
13266TIP3    H239676   3.173   1.473   7.305
13267TIP3   OH239677   3.678   1.588   7.207
13267TIP3    H139678   3.709   1.553   7.123
13267TIP3    H239679   3.676   1.506   7.262
13268TIP3   OH239680   3.730   1.506   6.765
13268TIP3    H139681   3.643   1.549   6.780
13268TIP3    H239682   3.716   1.421   6.812
13269TIP3   OH239683   2.213   2.845   6.765
13269TIP3    H139684   2.128   2.811   6.731
13269TIP3    H239685   2.201   2.940   6.746
13270TIP3   OH239686   2.613   1.439   6.747
13270TIP3    H139687   2.661   1.372   6.695
13270TIP3    H239688   2.687   1.490   6.786
13271TIP3   OH239689   3.126   1.611   6.848
13271TIP3    H139690   3.183   1.563   6.910
13271TIP3    H239691   3.147   1.703   6.875
13272TIP3   OH239692   2.984   3.035   6.348
13272TIP3    H139693   3.072   3.057   6.312
13272TIP3    H239694   2.962   2.960   6.289
13273TIP3   OH239695   3.703   3.153   6.442
13273TIP3    H139696   3.699   3.055   6.429
13273TIP3    H239697   3.659   3.185   6.361
13274TIP3   OH239698   2.909   1.690   8.242
13274TIP3    H139699   2.882   1.611   8.291
13274TIP3    H239700   3.006   1.688   8.257
13275TIP3   OH239701   3.164   1.668   8.327
13275TIP3    H139702   3.255   1.648   8.299
13275TIP3    H239703   3.155   1.616   8.409
13276TIP3   OH239704   2.290   2.874   6.406
13276TIP3    H139705   2.290   2.894   6.501
13276TIP3    H239706   2.378   2.830   6.395
13277TIP3   OH239707   3.991   1.747   8.137
13277TIP3    H139708   4.015   1.717   8.227
13277TIP3    H239709   4.077   1.741   8.090
13278TIP3   OH239710   3.931   3.297   7.629
13278TIP3    H139711   3.851   3.265   7.582
13278TIP3    H239712   3.910   3.393   7.633
13279TIP3   OH239713   5.197   2.670   6.395
13279TIP3    H139714   5.168   2.761   6.374
13279TIP3    H239715   5.121   2.619   6.361
13280TIP3   OH239716   5.192   2.669   6.778
13280TIP3    H139717   5.227   2.641   6.865
13280TIP3    H239718   5.154   2.586   6.745
13281TIP3   OH239719   4.496   2.567   7.137
13281TIP3    H139720   4.520   2.497   7.200
13281TIP3    H239721   4.573   2.624   7.145
13282TIP3   OH239722   5.440   2.970   6.458
13282TIP3    H139723   5.424   2.902   6.525
13282TIP3    H239724   5.465   3.047   6.512
13283TIP3   OH239725   4.466   2.967   6.849
13283TIP3    H139726   4.461   2.873   6.873
13283TIP3    H239727   4.561   2.985   6.863
13284TIP3   OH239728   4.174   2.188   6.651
13284TIP3    H139729   4.115   2.264   6.664
13284TIP3    H239730   4.110   2.121   6.622
13285TIP3   OH239731   4.243   2.467   6.819
13285TIP3    H139732   4.279   2.390   6.869
13285TIP3    H239733   4.290   2.455   6.736
13286TIP3   OH239734   5.088   3.433   6.466
13286TIP3    H139735   5.136   3.358   6.424
13286TIP3    H239736   5.086   3.407   6.559
13287TIP3   OH239737   4.996   2.894   6.823
13287TIP3    H139738   5.037   2.816   6.781
13287TIP3    H239739   5.078   2.941   6.848
13288TIP3   OH239740   6.007   2.216   6.822
13288TIP3    H139741   6.036   2.299   6.866
13288TIP3    H239742   6.027   2.236   6.729
13289TIP3   OH239743   5.408   2.398   6.857
13289TIP3    H139744   5.448   2.311   6.878
13289TIP3    H239745   5.375   2.381   6.766
13290TIP3   OH239746   4.744   2.058   6.821
13290TIP3    H139747   4.721   2.130   6.759
13290TIP3    H239748   4.697   1.983   6.780
13291TIP3   OH239749   5.438   2.148   6.445
13291TIP3    H139750   5.510   2.131   6.510
13291TIP3    H239751   5.489   2.182   6.370
13292TIP3   OH239752   4.379   2.260   6.930
13292TIP3    H139753   4.461   2.236   6.978
13292TIP3    H239754   4.386   2.200   6.853
13293TIP3   OH239755   4.814   2.463   6.716
13293TIP3    H139756   4.907   2.436   6.733
13293TIP3    H239757   4.775   2.377   6.690
13294TIP3   OH239758   6.082   2.425   6.990
13294TIP3    H139759   5.997   2.471   6.972
13294TIP3    H239760   6.088   2.438   7.086
13295TIP3   OH239761   4.742   2.041   7.257
13295TIP3    H139762   4.679   2.074   7.191
13295TIP3    H239763   4.690   2.055   7.339
13296TIP3   OH239764   5.086   2.890   6.266
13296TIP3    H139765   5.048   2.872   6.179
13296TIP3    H239766   5.044   2.976   6.288
13297TIP3   OH239767   4.846   2.815   7.052
13297TIP3    H139768   4.784   2.880   7.090
13297TIP3    H239769   4.892   2.868   6.984
13298TIP3   OH239770   5.649   2.149   6.616
13298TIP3    H139771   5.637   2.099   6.698
13298TIP3    H239772   5.702   2.226   6.646
13299TIP3   OH239773   4.612   2.157   7.041
13299TIP3    H139774   4.676   2.228   7.064
13299TIP3    H239775   4.661   2.113   6.967
13300TIP3   OH239776   4.672   3.007   7.145
13300TIP3    H139777   4.649   3.097   7.114
13300TIP3    H239778   4.596   2.992   7.205
13301TIP3   OH239779   4.082   2.723   6.385
13301TIP3    H139780   4.040   2.712   6.297
13301TIP3    H239781   4.046   2.810   6.409
13302TIP3   OH239782   5.511   3.213   6.625
13302TIP3    H139783   5.422   3.205   6.666
13302TIP3    H239784   5.503   3.300   6.581
13303TIP3   OH239785   5.800   2.118   6.989
13303TIP3    H139786   5.712   2.145   6.959
13303TIP3    H239787   5.858   2.148   6.916
13304TIP3   OH239788   5.098   1.759   6.971
13304TIP3    H139789   5.085   1.664   6.989
13304TIP3    H239790   5.020   1.796   7.018
13305TIP3   OH239791   5.212   3.256   6.298
13305TIP3    H139792   5.264   3.176   6.275
13305TIP3    H239793   5.270   3.325   6.258
13306TIP3   OH239794   5.356   3.043   6.204
13306TIP3    H139795   5.317   2.963   6.166
13306TIP3    H239796   5.391   3.010   6.290
13307TIP3   OH239797   5.737   3.128   6.969
13307TIP3    H139798   5.724   3.050   6.911
13307TIP3    H239799   5.717   3.202   6.909
13308TIP3   OH239800   5.027   2.523   6.226
13308TIP3    H139801   4.946   2.572   6.200
13308TIP3    H239802   5.074   2.517   6.141
13309TIP3   OH239803   4.986   2.306   5.945
13309TIP3    H139804   5.055   2.355   5.992
13309TIP3    H239805   5.041   2.241   5.896
13310TIP3   OH239806   5.932   2.766   6.815
13310TIP3    H139807   5.848   2.817   6.820
13310TIP3    H239808   5.959   2.789   6.723
13311TIP3   OH239809   5.375   2.604   6.199
13311TIP3    H139810   5.320   2.629   6.277
13311TIP3    H239811   5.457   2.577   6.243
13312TIP3   OH239812   5.610   2.644   7.109
13312TIP3    H139813   5.606   2.727   7.159
13312TIP3    H239814   5.523   2.646   7.064
13313TIP3   OH239815   4.601   2.608   6.606
13313TIP3    H139816   4.563   2.538   6.547
13313TIP3    H239817   4.678   2.559   6.642
13314TIP3   OH239818   4.742   3.007   6.764
13314TIP3    H139819   4.732   2.951   6.687
13314TIP3    H239820   4.834   2.984   6.791
13315TIP3   OH239821   4.743   2.575   6.965
13315TIP3    H139822   4.782   2.552   6.879
13315TIP3    H239823   4.788   2.658   6.989
13316TIP3   OH239824   5.272   3.211   6.747
13316TIP3    H139825   5.247   3.293   6.794
13316TIP3    H239826   5.254   3.141   6.812
13317TIP3   OH239827   4.879   3.127   7.293
13317TIP3    H139828   4.821   3.192   7.339
13317TIP3    H239829   4.812   3.075   7.245
13318TIP3   OH239830   5.215   2.461   6.025
13318TIP3    H139831   5.275   2.521   6.077
13318TIP3    H239832   5.241   2.485   5.933
13319TIP3   OH239833   4.633   2.688   7.389
13319TIP3    H139834   4.638   2.773   7.437
13319TIP3    H239835   4.539   2.666   7.405
13320TIP3   OH239836   4.953   3.143   6.304
13320TIP3    H139837   5.034   3.195   6.320
13320TIP3    H239838   4.897   3.209   6.260
13321TIP3   OH239839   4.675   3.297   7.380
13321TIP3    H139840   4.640   3.298   7.289
13321TIP3    H239841   4.595   3.276   7.433
13322TIP3   OH239842   5.731   1.703   6.073
13322TIP3    H139843   5.649   1.721   6.124
13322TIP3    H239844   5.742   1.786   6.023
13323TIP3   OH239845   4.457   2.452   6.435
13323TIP3    H139846   4.398   2.481   6.362
13323TIP3    H239847   4.439   2.356   6.437
13324TIP3   OH239848   5.528   3.070   5.620
13324TIP3    H139849   5.536   3.167   5.607
13324TIP3    H239850   5.621   3.042   5.607
13325TIP3   OH239851   4.255   2.827   7.326
13325TIP3    H139852   4.186   2.804   7.261
13325TIP3    H239853   4.290   2.739   7.353
13326TIP3   OH239854   4.111   3.022   6.955
13326TIP3    H139855   4.207   3.027   6.962
13326TIP3    H239856   4.085   3.099   7.009
13327TIP3   OH239857   5.974   3.473   7.015
13327TIP3    H139858   5.972   3.376   7.028
13327TIP3    H239859   5.890   3.498   7.060
13328TIP3   OH239860   5.080   3.257   7.150
13328TIP3    H139861   5.080   3.350   7.182
13328TIP3    H239862   5.007   3.219   7.205
13329TIP3   OH239863   4.839   3.386   6.102
13329TIP3    H139864   4.793   3.369   6.018
13329TIP3    H239865   4.807   3.475   6.126
13330TIP3   OH239866   4.270   3.225   6.481
13330TIP3    H139867   4.314   3.221   6.569
13330TIP3    H239868   4.184   3.184   6.500
13331TIP3   OH239869   5.042   3.289   5.742
13331TIP3    H139870   5.100   3.218   5.706
13331TIP3    H239871   5.075   3.297   5.834
13332TIP3   OH239872   5.091   3.336   6.012
13332TIP3    H139873   5.002   3.347   6.053
13332TIP3    H239874   5.141   3.299   6.086
13333TIP3   OH239875   5.864   2.606   7.288
13333TIP3    H139876   5.781   2.617   7.239
13333TIP3    H239877   5.879   2.510   7.279
13334TIP3   OH239878   4.460   3.010   7.314
13334TIP3    H139879   4.509   2.995   7.397
13334TIP3    H239880   4.385   2.947   7.323
13335TIP3   OH239881   4.859   1.837   7.097
13335TIP3    H139882   4.770   1.804   7.073
13335TIP3    H239883   4.832   1.917   7.147
13336TIP3   OH239884   5.391   1.951   7.294
13336TIP3    H139885   5.459   1.922   7.359
13336TIP3    H239886   5.307   1.929   7.340
13337TIP3   OH239887   5.634   2.381   7.215
13337TIP3    H139888   5.584   2.375   7.299
13337TIP3    H239889   5.605   2.466   7.178
13338TIP3   OH239890   5.293   2.508   5.769
13338TIP3    H139891   5.258   2.483   5.682
13338TIP3    H239892   5.372   2.559   5.744
13339TIP3   OH239893   5.005   1.883   6.070
13339TIP3    H139894   4.972   1.881   6.162
13339TIP3    H239895   4.966   1.800   6.037
13340TIP3   OH239896   4.791   2.353   7.117
13340TIP3    H139897   4.739   2.369   7.199
13340TIP3    H239898   4.771   2.434   7.066
13341TIP3   OH239899   4.670   2.241   6.630
13341TIP3    H139900   4.580   2.207   6.650
13341TIP3    H239901   4.686   2.197   6.544
13342TIP3   OH239902   5.165   2.323   6.360
13342TIP3    H139903   5.111   2.394   6.317
13342TIP3    H239904   5.219   2.291   6.285
13343TIP3   OH239905   5.339   2.601   7.447
13343TIP3    H139906   5.315   2.528   7.508
13343TIP3    H239907   5.433   2.613   7.469
13344TIP3   OH239908   5.322   2.351   6.598
13344TIP3    H139909   5.262   2.380   6.527
13344TIP3    H239910   5.355   2.269   6.557
13345TIP3   OH239911   4.608   2.379   7.325
13345TIP3    H139912   4.631   2.440   7.396
13345TIP3    H239913   4.593   2.296   7.375
13346TIP3   OH239914   4.662   1.859   6.037
13346TIP3    H139915   4.651   1.852   6.134
13346TIP3    H239916   4.580   1.906   6.012
13347TIP3   OH239917   4.207   1.918   6.892
13347TIP3    H139918   4.281   1.937   6.953
13347TIP3    H239919   4.246   1.864   6.822
13348TIP3   OH239920   4.177   1.882   6.427
13348TIP3    H139921   4.220   1.922   6.348
13348TIP3    H239922   4.113   1.953   6.449
13349TIP3   OH239923   5.333   2.598   7.021
13349TIP3    H139924   5.366   2.525   6.963
13349TIP3    H239925   5.304   2.545   7.099
13350TIP3   OH239926   5.001   2.062   6.694
13350TIP3    H139927   4.919   2.057   6.747
13350TIP3    H239928   5.069   2.055   6.763
13351TIP3   OH239929   4.437   2.115   6.699
13351TIP3    H139930   4.341   2.120   6.675
13351TIP3    H239931   4.458   2.021   6.682
13352TIP3   OH239932   4.706   2.115   6.390
13352TIP3    H139933   4.800   2.124   6.368
13352TIP3    H239934   4.660   2.133   6.305
13353TIP3   OH239935   5.493   2.134   6.895
13353TIP3    H139936   5.459   2.145   6.987
13353TIP3    H239937   5.427   2.072   6.859
13354TIP3   OH239938   4.544   2.151   6.170
13354TIP3    H139939   4.474   2.101   6.125
13354TIP3    H239940   4.596   2.181   6.092
13355TIP3   OH239941   5.664   3.820   7.113
13355TIP3    H139942   5.657   3.845   7.019
13355TIP3    H239943   5.737   3.876   7.144
13356TIP3   OH239944   4.620   2.933   7.535
13356TIP3    H139945   4.699   2.964   7.584
13356TIP3    H239946   4.555   2.931   7.608
13357TIP3   OH239947   5.082   2.389   6.791
13357TIP3    H139948   5.152   2.344   6.742
13357TIP3    H239949   5.089   2.347   6.879
13358TIP3   OH239950   4.608   1.873   6.671
13358TIP3    H139951   4.571   1.795   6.719
13358TIP3    H239952   4.658   1.830   6.600
13359TIP3   OH239953   5.061   2.286   7.076
13359TIP3    H139954   4.970   2.319   7.095
13359TIP3    H239955   5.117   2.344   7.131
13360TIP3   OH239956   4.796   2.674   6.171
13360TIP3    H139957   4.724   2.607   6.161
13360TIP3    H239958   4.780   2.706   6.263
13361TIP3   OH239959   5.698   2.909   6.806
13361TIP3    H139960   5.722   2.959   6.724
13361TIP3    H239961   5.612   2.869   6.781
13362TIP3   OH239962   5.256   1.987   6.037
13362TIP3    H139963   5.159   1.968   6.047
13362TIP3    H239964   5.263   2.081   6.062
13363TIP3   OH239965   5.197   2.992   7.173
13363TIP3    H139966   5.218   2.971   7.265
13363TIP3    H239967   5.159   3.081   7.179
13364TIP3   OH239968   5.325   2.233   6.142
13364TIP3    H139969   5.421   2.239   6.157
13364TIP3    H239970   5.306   2.313   6.088
13365TIP3   OH239971   4.485   2.692   6.842
13365TIP3    H139972   4.543   2.650   6.777
13365TIP3    H239973   4.506   2.640   6.922
13366TIP3   OH239974   4.946   2.825   5.998
13366TIP3    H139975   4.897   2.911   6.003
13366TIP3    H239976   4.890   2.768   6.056
13367TIP3   OH239977   4.371   2.614   7.464
13367TIP3    H139978   4.389   2.600   7.559
13367TIP3    H239979   4.300   2.549   7.448
13368TIP3   OH239980   5.095   2.731   7.485
13368TIP3    H139981   5.035   2.670   7.438
13368TIP3    H239982   5.182   2.696   7.457
13369TIP3   OH239983   5.358   3.250   7.069
13369TIP3    H139984   5.262   3.251   7.080
13369TIP3    H239985   5.385   3.303   7.147
13370TIP3   OH239986   5.770   2.323   5.976
13370TIP3    H139987   5.707   2.277   5.915
13370TIP3    H239988   5.765   2.412   5.935
13371TIP3   OH239989   5.987   3.182   7.058
13371TIP3    H139990   5.889   3.176   7.050
13371TIP3    H239991   6.012   3.152   6.968
13372TIP3   OH239992   5.472   3.142   5.887
13372TIP3    H139993   5.441   3.074   5.948
13372TIP3    H239994   5.479   3.095   5.802
13373TIP3   OH239995   5.464   2.772   6.723
13373TIP3    H139996   5.371   2.746   6.737
13373TIP3    H239997   5.498   2.692   6.679
13374TIP3   OH239998   4.540   2.983   6.474
13374TIP3    H139999   4.617   3.033   6.440
13374TIP3    H240000   4.476   3.055   6.459
13375TIP3   OH240001   4.155   2.303   6.180
13375TIP3    H140002   4.199   2.388   6.199
13375TIP3    H240003   4.076   2.309   6.239
13376TIP3   OH240004   4.729   2.766   6.417
13376TIP3    H140005   4.692   2.852   6.438
13376TIP3    H240006   4.705   2.711   6.495
13377TIP3   OH240007   4.857   3.341   6.949
13377TIP3    H140008   4.877   3.435   6.935
13377TIP3    H240009   4.938   3.311   6.994
13378TIP3   OH240010   4.508   3.240   6.332
13378TIP3    H140011   4.420   3.254   6.371
13378TIP3    H240012   4.543   3.332   6.334
13379TIP3   OH240013   5.247   2.977   6.904
13379TIP3    H140014   5.238   2.977   7.002
13379TIP3    H240015   5.328   2.926   6.892
13380TIP3   OH240016   5.223   2.870   5.786
13380TIP3    H140017   5.274   2.845   5.866
13380TIP3    H240018   5.134   2.844   5.813
13381TIP3   OH240019   5.499   3.510   6.954
13381TIP3    H140020   5.419   3.455   6.950
13381TIP3    H240021   5.482   3.574   6.881
13382TIP3   OH240022   5.562   3.346   5.606
13382TIP3    H140023   5.597   3.419   5.552
13382TIP3    H240024   5.482   3.390   5.642
13383TIP3   OH240025   4.580   2.124   7.471
13383TIP3    H140026   4.483   2.127   7.482
13383TIP3    H240027   4.604   2.059   7.540
13384TIP3   OH240028   5.382   2.804   6.004
13384TIP3    H140029   5.373   2.737   6.075
13384TIP3    H240030   5.479   2.803   5.991
13385TIP3   OH240031   4.302   3.202   7.105
13385TIP3    H140032   4.352   3.133   7.152
13385TIP3    H240033   4.324   3.280   7.158
13386TIP3   OH240034   4.591   2.851   5.788
13386TIP3    H140035   4.601   2.760   5.756
13386TIP3    H240036   4.569   2.836   5.882
13387TIP3   OH240037   4.536   2.856   6.064
13387TIP3    H140038   4.618   2.833   6.109
13387TIP3    H240039   4.538   2.954   6.066
13388TIP3   OH240040   4.273   2.556   6.261
13388TIP3    H140041   4.203   2.603   6.309
13388TIP3    H240042   4.286   2.617   6.185
13389TIP3   OH240043   5.419   2.186   7.154
13389TIP3    H140044   5.499   2.222   7.196
13389TIP3    H240045   5.403   2.105   7.207
13390TIP3   OH240046   5.298   1.938   6.318
13390TIP3    H140047   5.284   1.961   6.224
13390TIP3    H240048   5.338   2.020   6.354
13391TIP3   OH240049   4.798   3.052   6.010
13391TIP3    H140050   4.712   3.083   6.043
13391TIP3    H240051   4.818   3.122   5.945
13392TIP3   OH240052   4.988   2.117   6.422
13392TIP3    H140053   5.054   2.188   6.405
13392TIP3    H240054   4.993   2.110   6.520
13393TIP3   OH240055   5.258   2.436   7.229
13393TIP3    H140056   5.278   2.489   7.309
13393TIP3    H240057   5.312   2.356   7.243
13394TIP3   OH240058   5.134   1.845   6.525
13394TIP3    H140059   5.127   1.922   6.584
13394TIP3    H240060   5.194   1.880   6.455
13395TIP3   OH240061   4.542   3.129   6.076
13395TIP3    H140062   4.514   3.197   6.011
13395TIP3    H240063   4.526   3.176   6.161
13396TIP3   OH240064   4.644   1.841   6.312
13396TIP3    H140065   4.641   1.930   6.353
13396TIP3    H240066   4.740   1.823   6.321
13397TIP3   OH240067   5.900   2.337   7.205
13397TIP3    H140068   5.802   2.338   7.217
13397TIP3    H240069   5.904   2.286   7.122
13398TIP3   OH240070   5.549   2.530   6.598
13398TIP3    H140071   5.473   2.471   6.610
13398TIP3    H240072   5.620   2.482   6.646
13399TIP3   OH240073   4.262   2.759   6.068
13399TIP3    H140074   4.323   2.834   6.071
13399TIP3    H240075   4.307   2.705   5.999
13400TIP3   OH240076   4.208   2.034   6.200
13400TIP3    H140077   4.203   2.131   6.196
13400TIP3    H240078   4.124   2.007   6.161
13401TIP3   OH240079   5.518   3.483   6.547
13401TIP3    H140080   5.474   3.530   6.472
13401TIP3    H240081   5.612   3.503   6.525
13402TIP3   OH240082   4.597   1.757   7.072
13402TIP3    H140083   4.562   1.722   6.987
13402TIP3    H240084   4.589   1.679   7.130
13403TIP3   OH240085   4.289   3.514   7.528
13403TIP3    H140086   4.375   3.514   7.574
13403TIP3    H240087   4.268   3.419   7.525
13404TIP3   OH240088   4.770   3.478   7.574
13404TIP3    H140089   4.866   3.462   7.578
13404TIP3    H240090   4.746   3.422   7.497
13405TIP3   OH240091   4.754   3.055   5.701
13405TIP3    H140092   4.698   2.983   5.738
13405TIP3    H240093   4.826   3.003   5.663
13406TIP3   OH240094   5.413   3.383   7.303
13406TIP3    H140095   5.403   3.314   7.373
13406TIP3    H240096   5.487   3.436   7.337
13407TIP3   OH240097   5.190   3.096   5.611
13407TIP3    H140098   5.233   3.030   5.668
13407TIP3    H240099   5.245   3.096   5.531
13408TIP3   OH240100   4.420   2.922   7.727
13408TIP3    H140101   4.437   2.825   7.731
13408TIP3    H240102   4.332   2.924   7.684
13409TIP3   OH240103   4.397   2.573   5.921
13409TIP3    H140104   4.453   2.535   5.990
13409TIP3    H240105   4.461   2.577   5.847
13410TIP3   OH240106   5.029   3.006   7.500
13410TIP3    H140107   4.985   3.022   7.414
13410TIP3    H240108   5.059   2.913   7.492
13411TIP3   OH240109   4.909   2.770   5.728
13411TIP3    H140110   4.909   2.783   5.825
13411TIP3    H240111   4.907   2.672   5.723
13412TIP3   OH240112   5.520   3.013   7.106
13412TIP3    H140113   5.593   3.061   7.062
13412TIP3    H240114   5.448   3.078   7.095
13413TIP3   OH240115   4.540   2.658   7.707
13413TIP3    H140116   4.609   2.593   7.690
13413TIP3    H240117   4.564   2.688   7.797
13414TIP3   OH240118   4.608   2.471   6.146
13414TIP3    H140119   4.583   2.418   6.222
13414TIP3    H240120   4.644   2.402   6.085
13415TIP3   OH240121   4.875   2.542   7.372
13415TIP3    H140122   4.796   2.600   7.373
13415TIP3    H240123   4.922   2.574   7.292
13416TIP3   OH240124   4.706   2.272   5.982
13416TIP3    H140125   4.679   2.271   5.888
13416TIP3    H240126   4.803   2.275   5.973
13417TIP3   OH240127   5.390   2.941   7.504
13417TIP3    H140128   5.470   2.916   7.457
13417TIP3    H240129   5.387   2.874   7.575
13418TIP3   OH240130   5.531   2.601   5.644
13418TIP3    H140131   5.506   2.553   5.563
13418TIP3    H240132   5.497   2.691   5.621
13419TIP3   OH240133   4.998   2.328   7.497
13419TIP3    H140134   4.997   2.247   7.442
13419TIP3    H240135   4.953   2.393   7.439
13420TIP3   OH240136   5.000   2.115   7.303
13420TIP3    H140137   5.026   2.153   7.217
13420TIP3    H240138   4.907   2.091   7.286
13421TIP3   OH240139   5.026   2.649   7.175
13421TIP3    H140140   5.111   2.657   7.128
13421TIP3    H240141   4.972   2.718   7.132
13422TIP3   OH240142   5.609   2.617   7.559
13422TIP3    H140143   5.655   2.532   7.570
13422TIP3    H240144   5.679   2.673   7.524
13423TIP3   OH240145   5.650   2.870   7.295
13423TIP3    H140146   5.592   2.923   7.236
13423TIP3    H240147   5.737   2.889   7.254
13424TIP3   OH240148   4.876   2.440   7.727
13424TIP3    H140149   4.807   2.372   7.741
13424TIP3    H240150   4.910   2.414   7.639
13425TIP3   OH240151   5.132   1.878   7.370
13425TIP3    H140152   5.083   1.960   7.348
13425TIP3    H240153   5.062   1.810   7.359
13426TIP3   OH240154   5.258   2.383   7.587
13426TIP3    H140155   5.246   2.370   7.683
13426TIP3    H240156   5.168   2.358   7.556
13427TIP3   OH240157   5.498   2.332   7.442
13427TIP3    H140158   5.421   2.332   7.503
13427TIP3    H240159   5.570   2.299   7.500
13428TIP3   OH240160   5.730   2.273   7.593
13428TIP3    H140161   5.741   2.177   7.611
13428TIP3    H240162   5.723   2.310   7.683
13429TIP3   OH240163   4.717   2.220   7.779
13429TIP3    H140164   4.719   2.129   7.744
13429TIP3    H240165   4.751   2.205   7.870
13430TIP3   OH240166   5.227   1.889   7.628
13430TIP3    H140167   5.294   1.818   7.623
13430TIP3    H240168   5.187   1.881   7.539
13431TIP3   OH240169   5.292   2.103   7.786
13431TIP3    H140170   5.270   2.031   7.723
13431TIP3    H240171   5.214   2.161   7.780
13432TIP3   OH240172   4.512   3.327   5.886
13432TIP3    H140173   4.608   3.328   5.867
13432TIP3    H240174   4.480   3.378   5.809
13433TIP3   OH240175   3.998   2.700   6.121
13433TIP3    H140176   4.088   2.729   6.094
13433TIP3    H240177   3.987   2.618   6.068
13434TIP3   OH240178   3.908   3.322   6.518
13434TIP3    H140179   3.840   3.262   6.482
13434TIP3    H240180   3.952   3.263   6.582
13435TIP3   OH240181   4.055   3.178   6.699
13435TIP3    H140182   4.029   3.108   6.762
13435TIP3    H240183   4.102   3.239   6.760
13436TIP3   OH240184   5.773   3.572   6.503
13436TIP3    H140185   5.794   3.607   6.592
13436TIP3    H240186   5.828   3.627   6.445
13437TIP3   OH240187   5.801   3.596   6.784
13437TIP3    H140188   5.755   3.510   6.780
13437TIP3    H240189   5.873   3.573   6.845
13438TIP3   OH240190   5.847   3.274   7.359
13438TIP3    H140191   5.773   3.280   7.422
13438TIP3    H240192   5.886   3.363   7.364
13439TIP3   OH240193   5.663   2.786   5.979
13439TIP3    H140194   5.731   2.851   5.952
13439TIP3    H240195   5.705   2.746   6.058
13440TIP3   OH240196   5.790   2.654   6.183
13440TIP3    H140197   5.724   2.611   6.241
13440TIP3    H240198   5.852   2.693   6.247
13441TIP3   OH240199   5.845   3.047   6.617
13441TIP3    H140200   5.898   2.983   6.565
13441TIP3    H240201   5.835   3.121   6.553
13442TIP3   OH240202   5.676   3.346   6.810
13442TIP3    H140203   5.605   3.390   6.861
13442TIP3    H240204   5.625   3.299   6.741
13443TIP3   OH240205   5.728   2.562   5.829
13443TIP3    H140206   5.656   2.565   5.762
13443TIP3    H240207   5.701   2.638   5.885
13444TIP3   OH240208   5.601   2.235   5.782
13444TIP3    H140209   5.554   2.273   5.708
13444TIP3    H240210   5.576   2.140   5.773
13445TIP3   OH240211   5.605   2.510   6.328
13445TIP3    H140212   5.611   2.413   6.324
13445TIP3    H240213   5.590   2.525   6.424
13446TIP3   OH240214   4.231   2.589   7.070
13446TIP3    H140215   4.233   2.556   6.978
13446TIP3    H240216   4.327   2.587   7.092
13447TIP3   OH240217   5.893   2.935   7.186
13447TIP3    H140218   5.965   2.869   7.176
13447TIP3    H240219   5.918   3.004   7.123
13448TIP3   OH240220   6.081   2.742   7.201
13448TIP3    H140221   6.005   2.693   7.239
13448TIP3    H240222   6.152   2.677   7.217
13449TIP3   OH240223   5.543   1.968   5.769
13449TIP3    H140224   5.616   1.937   5.826
13449TIP3    H240225   5.468   1.911   5.794
13450TIP3   OH240226   5.600   2.227   6.224
13450TIP3    H140227   5.640   2.138   6.240
13450TIP3    H240228   5.659   2.259   6.154
13451TIP3   OH240229   5.762   2.401   6.718
13451TIP3    H140230   5.848   2.427   6.679
13451TIP3    H240231   5.774   2.437   6.808
13452TIP3   OH240232   5.830   2.545   6.950
13452TIP3    H140233   5.752   2.578   7.000
13452TIP3    H240234   5.861   2.627   6.907
13453TIP3   OH240235   4.450   2.275   7.762
13453TIP3    H140236   4.547   2.264   7.756
13453TIP3    H240237   4.423   2.187   7.795
13454TIP3   OH240238   6.285   2.139   7.507
13454TIP3    H140239   6.340   2.070   7.466
13454TIP3    H240240   6.256   2.191   7.429
13455TIP3   OH240241   5.709   1.976   6.261
13455TIP3    H140242   5.756   1.959   6.346
13455TIP3    H240243   5.648   1.900   6.259
13456TIP3   OH240244   4.411   1.963   7.068
13456TIP3    H140245   4.470   1.887   7.088
13456TIP3    H240246   4.474   2.037   7.074
13457TIP3   OH240247   4.213   2.238   7.155
13457TIP3    H140248   4.262   2.228   7.071
13457TIP3    H240249   4.250   2.320   7.189
13458TIP3   OH240250   6.154   2.277   7.311
13458TIP3    H140251   6.067   2.314   7.334
13458TIP3    H240252   6.126   2.202   7.254
13459TIP3   OH240253   5.791   1.912   5.894
13459TIP3    H140254   5.829   1.839   5.842
13459TIP3    H240255   5.858   1.982   5.886
13460TIP3   OH240256   4.195   1.742   6.658
13460TIP3    H140257   4.101   1.736   6.683
13460TIP3    H240258   4.191   1.798   6.578
13461TIP3   OH240259   5.356   3.440   6.162
13461TIP3    H140260   5.408   3.428   6.080
13461TIP3    H240261   5.404   3.511   6.207
13462TIP3   OH240262   4.419   1.822   7.474
13462TIP3    H140263   4.361   1.808   7.552
13462TIP3    H240264   4.354   1.863   7.413
13463TIP3   OH240265   4.455   3.246   7.546
13463TIP3    H140266   4.362   3.220   7.530
13463TIP3    H240267   4.464   3.228   7.640
13464TIP3   OH240268   4.633   3.275   7.094
13464TIP3    H140269   4.583   3.350   7.055
13464TIP3    H240270   4.718   3.290   7.050
13465TIP3   OH240271   5.078   3.520   7.231
13465TIP3    H140272   5.121   3.527   7.319
13465TIP3    H240273   5.142   3.570   7.175
13466TIP3   OH240274   5.276   3.653   7.102
13466TIP3    H140275   5.354   3.620   7.056
13466TIP3    H240276   5.313   3.727   7.154
13467TIP3   OH240277   6.053   2.037   7.190
13467TIP3    H140278   5.961   2.028   7.160
13467TIP3    H240279   6.084   1.944   7.179
13468TIP3   OH240280   4.307   3.532   7.120
13468TIP3    H140281   4.219   3.569   7.096
13468TIP3    H240282   4.321   3.575   7.206
13469TIP3   OH240283   4.537   3.498   6.968
13469TIP3    H140284   4.455   3.520   7.016
13469TIP3    H240285   4.522   3.542   6.882
13470TIP3   OH240286   5.224   3.495   6.813
13470TIP3    H140287   5.137   3.537   6.821
13470TIP3    H240288   5.275   3.571   6.780
13471TIP3   OH240289   5.457   3.677   6.741
13471TIP3    H140290   5.433   3.761   6.697
13471TIP3    H240291   5.473   3.617   6.665
13472TIP3   OH240292   4.223   3.332   6.862
13472TIP3    H140293   4.249   3.307   6.953
13472TIP3    H240294   4.296   3.290   6.812
13473TIP3   OH240295   4.411   3.200   6.713
13473TIP3    H140296   4.429   3.119   6.767
13473TIP3    H240297   4.500   3.241   6.712
13474TIP3   OH240298   4.673   3.283   6.730
13474TIP3    H140299   4.714   3.195   6.725
13474TIP3    H240300   4.718   3.320   6.808
13475TIP3   OH240301   5.255   1.953   6.809
13475TIP3    H140302   5.212   1.884   6.863
13475TIP3    H240303   5.327   1.903   6.765
13476TIP3   OH240304   5.781   1.835   6.715
13476TIP3    H140305   5.816   1.887   6.639
13476TIP3    H240306   5.685   1.851   6.708
13477TIP3   OH240307   5.876   1.935   6.478
13477TIP3    H140308   5.949   1.883   6.438
13477TIP3    H240309   5.908   2.027   6.463
13478TIP3   OH240310   4.506   1.663   6.824
13478TIP3    H140311   4.414   1.627   6.827
13478TIP3    H240312   4.556   1.579   6.823
13479TIP3   OH240313   4.290   1.532   6.474
13479TIP3    H140314   4.320   1.590   6.402
13479TIP3    H240315   4.262   1.596   6.542
13480TIP3   OH240316   4.947   1.696   6.704
13480TIP3    H140317   5.010   1.745   6.649
13480TIP3    H240318   4.968   1.730   6.793
13481TIP3   OH240319   5.499   1.841   6.690
13481TIP3    H140320   5.493   1.803   6.602
13481TIP3    H240321   5.485   1.761   6.746
13482TIP3   OH240322   5.526   1.763   6.253
13482TIP3    H140323   5.439   1.805   6.264
13482TIP3    H240324   5.512   1.678   6.299
13483TIP3   OH240325   4.006   3.088   6.266
13483TIP3    H140326   3.921   3.063   6.227
13483TIP3    H240327   4.004   3.183   6.252
13484TIP3   OH240328   4.409   1.694   6.235
13484TIP3    H140329   4.456   1.628   6.181
13484TIP3    H240330   4.483   1.745   6.273
13485TIP3   OH240331   4.921   1.867   6.335
13485TIP3    H140332   4.978   1.817   6.396
13485TIP3    H240333   4.945   1.959   6.362
13486TIP3   OH240334   4.781   3.291   5.836
13486TIP3    H140335   4.868   3.315   5.799
13486TIP3    H240336   4.759   3.216   5.777
13487TIP3   OH240337   5.503   3.410   5.928
13487TIP3    H140338   5.493   3.313   5.915
13487TIP3    H240339   5.455   3.443   5.849
13488TIP3   OH240340   4.713   1.949   7.722
13488TIP3    H140341   4.679   1.874   7.774
13488TIP3    H240342   4.808   1.946   7.747
13489TIP3   OH240343   4.964   1.941   7.838
13489TIP3    H140344   5.047   1.914   7.796
13489TIP3    H240345   4.950   1.868   7.903
13490TIP3   OH240346   4.085   3.126   5.892
13490TIP3    H140347   4.085   3.157   5.984
13490TIP3    H240348   4.174   3.086   5.882
13491TIP3   OH240349   5.786   2.002   7.626
13491TIP3    H140350   5.806   1.967   7.716
13491TIP3    H240351   5.874   1.996   7.583
13492TIP3   OH240352   5.728   3.552   7.116
13492TIP3    H140353   5.649   3.520   7.068
13492TIP3    H240354   5.707   3.648   7.119
13493TIP3   OH240355   6.994   2.928   5.882
13493TIP3    H140356   6.965   3.019   5.861
13493TIP3    H240357   6.917   2.877   5.851
13494TIP3   OH240358   6.994   2.925   6.263
13494TIP3    H140359   7.023   2.894   6.350
13494TIP3    H240360   6.950   2.847   6.228
13495TIP3   OH240361   6.292   2.820   6.626
13495TIP3    H140362   6.322   2.753   6.690
13495TIP3    H240363   6.368   2.880   6.625
13496TIP3   OH240364   7.236   3.228   5.944
13496TIP3    H140365   7.218   3.158   6.008
13496TIP3    H240366   7.261   3.303   6.000
13497TIP3   OH240367   6.264   3.232   6.354
13497TIP3    H140368   6.253   3.135   6.356
13497TIP3    H240369   6.360   3.239   6.349
13498TIP3   OH240370   5.970   2.438   6.139
13498TIP3    H140371   5.918   2.519   6.153
13498TIP3    H240372   5.901   2.380   6.102
13499TIP3   OH240373   6.030   2.723   6.311
13499TIP3    H140374   6.078   2.645   6.348
13499TIP3    H240375   6.085   2.746   6.235
13500TIP3   OH240376   6.883   3.690   5.959
13500TIP3    H140377   6.932   3.618   5.914
13500TIP3    H240378   6.873   3.655   6.048
13501TIP3   OH240379   6.790   3.152   6.311
13501TIP3    H140380   6.827   3.075   6.264
13501TIP3    H240381   6.874   3.196   6.335
13502TIP3   OH240382   7.816   2.467   6.313
13502TIP3    H140383   7.837   2.554   6.352
13502TIP3    H240384   7.831   2.484   6.219
13503TIP3   OH240385   7.207   2.654   6.344
13503TIP3    H140386   7.245   2.567   6.363
13503TIP3    H240387   7.171   2.639   6.254
13504TIP3   OH240388   6.542   2.313   6.308
13504TIP3    H140389   6.518   2.385   6.246
13504TIP3    H240390   6.493   2.239   6.267
13505TIP3   OH240391   7.234   2.404   5.932
13505TIP3    H140392   7.306   2.388   5.996
13505TIP3    H240393   7.285   2.439   5.857
13506TIP3   OH240394   6.175   2.515   6.417
13506TIP3    H140395   6.257   2.493   6.464
13506TIP3    H240396   6.185   2.458   6.338
13507TIP3   OH240397   6.615   2.713   6.207
13507TIP3    H140398   6.708   2.686   6.223
13507TIP3    H240399   6.574   2.629   6.177
13508TIP3   OH240400   7.881   2.684   6.477
13508TIP3    H140401   7.796   2.728   6.456
13508TIP3    H240402   7.885   2.700   6.573
13509TIP3   OH240403   6.538   2.296   6.744
13509TIP3    H140404   6.477   2.331   6.677
13509TIP3    H240405   6.486   2.312   6.825
13510TIP3   OH240406   6.889   3.150   5.751
13510TIP3    H140407   6.839   3.123   5.673
13510TIP3    H240408   6.843   3.234   5.774
13511TIP3   OH240409   6.644   3.072   6.540
13511TIP3    H140410   6.580   3.136   6.577
13511TIP3    H240411   6.684   3.123   6.467
13512TIP3   OH240412   7.445   2.406   6.102
13512TIP3    H140413   7.435   2.353   6.183
13512TIP3    H240414   7.498   2.482   6.133
13513TIP3   OH240415   6.409   2.411   6.528
13513TIP3    H140416   6.471   2.483   6.550
13513TIP3    H240417   6.457   2.369   6.453
13514TIP3   OH240418   6.472   3.265   6.637
13514TIP3    H140419   6.445   3.350   6.598
13514TIP3    H240420   6.393   3.248   6.693
13515TIP3   OH240421   5.868   2.955   5.873
13515TIP3    H140422   5.823   2.981   5.791
13515TIP3    H240423   5.896   3.042   5.909
13516TIP3   OH240424   7.310   3.472   6.116
13516TIP3    H140425   7.220   3.462   6.155
13516TIP3    H240426   7.300   3.557   6.069
13517TIP3   OH240427   7.596   2.379   6.477
13517TIP3    H140428   7.507   2.400   6.445
13517TIP3    H240429   7.653   2.404   6.401
13518TIP3   OH240430   6.894   2.016   6.458
13518TIP3    H140431   6.882   1.920   6.476
13518TIP3    H240432   6.816   2.052   6.505
13519TIP3   OH240433   7.011   3.517   5.790
13519TIP3    H140434   7.060   3.435   5.767
13519TIP3    H240435   7.068   3.583   5.746
13520TIP3   OH240436   7.152   3.302   5.690
13520TIP3    H140437   7.105   3.224   5.658
13520TIP3    H240438   7.189   3.268   5.775
13521TIP3   OH240439   7.539   3.382   6.456
13521TIP3    H140440   7.521   3.304   6.398
13521TIP3    H240441   7.512   3.456   6.398
13522TIP3   OH240442   6.824   2.778   5.714
13522TIP3    H140443   6.742   2.827   5.692
13522TIP3    H240444   6.868   2.774   5.628
13523TIP3   OH240445   6.781   2.565   5.428
13523TIP3    H140446   6.850   2.612   5.478
13523TIP3    H240447   6.836   2.499   5.381
13524TIP3   OH240448   7.728   3.023   6.302
13524TIP3    H140449   7.643   3.073   6.305
13524TIP3    H240450   7.756   3.044   6.210
13525TIP3   OH240451   7.171   2.862   5.684
13525TIP3    H140452   7.115   2.886   5.762
13525TIP3    H240453   7.253   2.835   5.729
13526TIP3   OH240454   7.406   2.900   6.595
13526TIP3    H140455   7.401   2.986   6.641
13526TIP3    H240456   7.319   2.899   6.550
13527TIP3   OH240457   6.404   2.858   6.100
13527TIP3    H140458   6.361   2.800   6.033
13527TIP3    H240459   6.479   2.804   6.129
13528TIP3   OH240460   6.534   3.272   6.249
13528TIP3    H140461   6.510   3.226   6.167
13528TIP3    H240462   6.623   3.236   6.267
13529TIP3   OH240463   6.545   2.827   6.457
13529TIP3    H140464   6.574   2.809   6.365
13529TIP3    H240465   6.584   2.915   6.475
13530TIP3   OH240466   7.068   3.467   6.233
13530TIP3    H140467   7.050   3.546   6.286
13530TIP3    H240468   7.051   3.393   6.296
13531TIP3   OH240469   6.676   3.385   6.781
13531TIP3    H140470   6.616   3.449   6.826
13531TIP3    H240471   6.610   3.333   6.731
13532TIP3   OH240472   7.012   2.717   5.513
13532TIP3    H140473   7.071   2.777   5.565
13532TIP3    H240474   7.037   2.742   5.421
13533TIP3   OH240475   6.430   2.942   6.879
13533TIP3    H140476   6.435   3.028   6.925
13533TIP3    H240477   6.335   2.922   6.891
13534TIP3   OH240478   6.756   3.397   5.782
13534TIP3    H140479   6.832   3.453   5.805
13534TIP3    H240480   6.691   3.460   5.751
13535TIP3   OH240481   6.471   3.556   6.868
13535TIP3    H140482   6.437   3.553   6.777
13535TIP3    H240483   6.391   3.533   6.921
13536TIP3   OH240484   7.527   1.960   5.560
13536TIP3    H140485   7.445   1.978   5.611
13536TIP3    H240486   7.538   2.043   5.510
13537TIP3   OH240487   6.270   2.701   5.905
13537TIP3    H140488   6.202   2.746   5.850
13537TIP3    H240489   6.229   2.615   5.921
13538TIP3   OH240490   7.321   3.327   5.078
13538TIP3    H140491   7.332   3.424   5.085
13538TIP3    H240492   7.414   3.296   5.085
13539TIP3   OH240493   6.051   3.084   6.813
13539TIP3    H140494   5.983   3.063   6.746
13539TIP3    H240495   6.086   2.996   6.836
13540TIP3   OH240496   5.903   3.277   6.446
13540TIP3    H140497   6.000   3.277   6.440
13540TIP3    H240498   5.887   3.358   6.498
13541TIP3   OH240499   6.876   3.513   6.638
13541TIP3    H140500   6.874   3.606   6.669
13541TIP3    H240501   6.802   3.475   6.691
13542TIP3   OH240502   6.636   3.647   5.588
13542TIP3    H140503   6.584   3.628   5.508
13542TIP3    H240504   6.603   3.735   5.615
13543TIP3   OH240505   6.074   3.493   5.971
13543TIP3    H140506   6.120   3.483   6.057
13543TIP3    H240507   6.014   3.417   5.973
13544TIP3   OH240508   6.851   3.532   5.232
13544TIP3    H140509   6.919   3.464   5.229
13544TIP3    H240510   6.863   3.563   5.324
13545TIP3   OH240511   6.885   3.594   5.496
13545TIP3    H140512   6.797   3.605   5.540
13545TIP3    H240513   6.936   3.554   5.568
13546TIP3   OH240514   7.657   2.860   6.775
13546TIP3    H140515   7.577   2.872   6.722
13546TIP3    H240516   7.673   2.764   6.764
13547TIP3   OH240517   6.256   3.267   6.802
13547TIP3    H140518   6.305   3.250   6.886
13547TIP3    H240519   6.182   3.204   6.809
13548TIP3   OH240520   6.654   2.093   6.584
13548TIP3    H140521   6.565   2.060   6.560
13548TIP3    H240522   6.628   2.173   6.633
13549TIP3   OH240523   7.187   2.209   6.782
13549TIP3    H140524   7.255   2.177   6.846
13549TIP3    H240525   7.103   2.185   6.827
13550TIP3   OH240526   7.432   2.638   6.705
13550TIP3    H140527   7.379   2.634   6.787
13550TIP3    H240528   7.401   2.721   6.663
13551TIP3   OH240529   7.085   2.766   5.256
13551TIP3    H140530   7.055   2.736   5.168
13551TIP3    H240531   7.166   2.816   5.233
13552TIP3   OH240532   6.802   2.140   5.557
13552TIP3    H140533   6.768   2.138   5.649
13552TIP3    H240534   6.762   2.057   5.524
13553TIP3   OH240535   6.589   2.605   6.606
13553TIP3    H140536   6.535   2.624   6.686
13553TIP3    H240537   6.571   2.686   6.553
13554TIP3   OH240538   6.469   2.494   6.118
13554TIP3    H140539   6.377   2.466   6.137
13554TIP3    H240540   6.482   2.452   6.030
13555TIP3   OH240541   6.962   2.580   5.848
13555TIP3    H140542   6.908   2.650   5.805
13555TIP3    H240543   7.015   2.548   5.773
13556TIP3   OH240544   7.133   2.858   6.936
13556TIP3    H140545   7.107   2.786   6.997
13556TIP3    H240546   7.228   2.864   6.954
13557TIP3   OH240547   7.120   2.608   6.085
13557TIP3    H140548   7.058   2.637   6.015
13557TIP3    H240549   7.152   2.526   6.043
13558TIP3   OH240550   6.407   2.635   6.814
13558TIP3    H140551   6.424   2.698   6.885
13558TIP3    H240552   6.392   2.552   6.863
13559TIP3   OH240553   6.457   2.115   5.523
13559TIP3    H140554   6.448   2.109   5.620
13559TIP3    H240555   6.376   2.164   5.500
13560TIP3   OH240556   5.997   2.161   6.392
13560TIP3    H140557   6.075   2.188   6.446
13560TIP3    H240558   6.037   2.122   6.313
13561TIP3   OH240559   5.973   2.140   5.912
13561TIP3    H140560   6.017   2.179   5.835
13561TIP3    H240561   5.910   2.211   5.935
13562TIP3   OH240562   7.135   2.855   6.509
13562TIP3    H140563   7.164   2.782   6.449
13562TIP3    H240564   7.102   2.802   6.585
13563TIP3   OH240565   6.798   2.318   6.181
13563TIP3    H140566   6.714   2.314   6.231
13563TIP3    H240567   6.864   2.312   6.252
13564TIP3   OH240568   6.232   2.371   6.187
13564TIP3    H140569   6.137   2.378   6.162
13564TIP3    H240570   6.254   2.279   6.166
13565TIP3   OH240571   6.502   2.367   5.877
13565TIP3    H140572   6.595   2.382   5.853
13565TIP3    H240573   6.453   2.390   5.794
13566TIP3   OH240574   7.290   2.390   6.385
13566TIP3    H140575   7.253   2.401   6.475
13566TIP3    H240576   7.225   2.328   6.346
13567TIP3   OH240577   6.342   2.402   5.657
13567TIP3    H140578   6.268   2.356   5.612
13567TIP3    H240579   6.392   2.434   5.580
13568TIP3   OH240580   7.457   4.080   6.600
13568TIP3    H140581   7.452   4.105   6.506
13568TIP3    H240582   7.529   4.137   6.632
13569TIP3   OH240583   6.416   3.189   7.022
13569TIP3    H140584   6.494   3.221   7.071
13569TIP3    H240585   6.350   3.186   7.094
13570TIP3   OH240586   6.882   2.645   6.280
13570TIP3    H140587   6.949   2.598   6.230
13570TIP3    H240588   6.886   2.601   6.367
13571TIP3   OH240589   6.405   2.129   6.158
13571TIP3    H140590   6.369   2.051   6.204
13571TIP3    H240591   6.453   2.088   6.085
13572TIP3   OH240592   6.857   2.542   6.562
13572TIP3    H140593   6.766   2.573   6.580
13572TIP3    H240594   6.912   2.601   6.617
13573TIP3   OH240595   6.596   2.931   5.661
13573TIP3    H140596   6.524   2.866   5.651
13573TIP3    H240597   6.578   2.965   5.753
13574TIP3   OH240598   7.493   3.166   6.293
13574TIP3    H140599   7.517   3.215   6.211
13574TIP3    H240600   7.408   3.124   6.268
13575TIP3   OH240601   7.051   2.245   5.521
13575TIP3    H140602   6.955   2.226   5.533
13575TIP3    H240603   7.060   2.338   5.549
13576TIP3   OH240604   7.001   3.253   6.659
13576TIP3    H140605   7.007   3.224   6.750
13576TIP3    H240606   6.955   3.338   6.666
13577TIP3   OH240607   7.121   2.489   5.629
13577TIP3    H140608   7.218   2.495   5.644
13577TIP3    H240609   7.102   2.569   5.575
13578TIP3   OH240610   6.290   2.956   6.339
13578TIP3    H140611   6.326   2.924   6.254
13578TIP3    H240612   6.320   2.888   6.401
13579TIP3   OH240613   6.735   3.079   5.474
13579TIP3    H140614   6.690   3.166   5.486
13579TIP3    H240615   6.684   3.024   5.537
13580TIP3   OH240616   6.167   2.870   6.950
13580TIP3    H140617   6.183   2.856   7.045
13580TIP3    H240618   6.096   2.806   6.932
13581TIP3   OH240619   6.888   2.988   6.972
13581TIP3    H140620   6.826   2.928   6.926
13581TIP3    H240621   6.975   2.952   6.942
13582TIP3   OH240622   7.156   3.510   6.554
13582TIP3    H140623   7.060   3.505   6.566
13582TIP3    H240624   7.181   3.562   6.634
13583TIP3   OH240625   7.565   2.579   5.464
13583TIP3    H140626   7.502   2.534   5.403
13583TIP3    H240627   7.561   2.668   5.422
13584TIP3   OH240628   7.787   3.458   6.529
13584TIP3    H140629   7.689   3.446   6.537
13584TIP3    H240630   7.804   3.400   6.451
13585TIP3   OH240631   7.264   3.396   5.363
13585TIP3    H140632   7.238   3.333   5.432
13585TIP3    H240633   7.264   3.342   5.283
13586TIP3   OH240634   7.261   3.028   6.212
13586TIP3    H140635   7.167   3.002   6.225
13586TIP3    H240636   7.294   2.948   6.166
13587TIP3   OH240637   6.386   3.255   5.961
13587TIP3    H140638   6.384   3.338   5.909
13587TIP3    H240639   6.291   3.240   5.975
13588TIP3   OH240640   5.950   2.561   5.667
13588TIP3    H140641   5.995   2.645   5.688
13588TIP3    H240642   5.872   2.566   5.727
13589TIP3   OH240643   6.528   3.023   5.908
13589TIP3    H140644   6.490   3.112   5.925
13589TIP3    H240645   6.490   2.972   5.981
13590TIP3   OH240646   6.656   3.600   6.432
13590TIP3    H140647   6.695   3.673   6.381
13590TIP3    H240648   6.733   3.567   6.480
13591TIP3   OH240649   6.307   3.494   5.816
13591TIP3    H140650   6.221   3.502   5.861
13591TIP3    H240651   6.338   3.587   5.819
13592TIP3   OH240652   7.046   3.235   6.390
13592TIP3    H140653   7.037   3.235   6.488
13592TIP3    H240654   7.122   3.177   6.377
13593TIP3   OH240655   6.989   3.131   5.282
13593TIP3    H140656   7.061   3.108   5.343
13593TIP3    H240657   6.913   3.095   5.330
13594TIP3   OH240658   7.296   3.766   6.440
13594TIP3    H140659   7.216   3.710   6.435
13594TIP3    H240660   7.278   3.832   6.369
13595TIP3   OH240661   7.358   3.602   5.095
13595TIP3    H140662   7.397   3.673   5.041
13595TIP3    H240663   7.279   3.649   5.128
13596TIP3   OH240664   6.378   2.379   6.959
13596TIP3    H140665   6.281   2.383   6.972
13596TIP3    H240666   6.404   2.318   7.030
13597TIP3   OH240667   7.177   3.059   5.482
13597TIP3    H140668   7.166   2.995   5.556
13597TIP3    H240669   7.274   3.059   5.474
13598TIP3   OH240670   6.098   3.463   6.590
13598TIP3    H140671   6.147   3.387   6.625
13598TIP3    H240672   6.119   3.531   6.654
13599TIP3   OH240673   6.382   3.108   5.272
13599TIP3    H140674   6.396   3.015   5.245
13599TIP3    H240675   6.366   3.096   5.369
13600TIP3   OH240676   6.334   3.113   5.542
13600TIP3    H140677   6.397   3.084   5.609
13600TIP3    H240678   6.335   3.210   5.553
13601TIP3   OH240679   6.067   2.807   5.749
13601TIP3    H140680   6.000   2.850   5.806
13601TIP3    H240681   6.078   2.877   5.682
13602TIP3   OH240682   7.214   2.445   6.644
13602TIP3    H140683   7.298   2.475   6.683
13602TIP3    H240684   7.197   2.362   6.694
13603TIP3   OH240685   7.095   2.195   5.804
13603TIP3    H140686   7.081   2.219   5.711
13603TIP3    H240687   7.134   2.277   5.841
13604TIP3   OH240688   6.597   3.313   5.491
13604TIP3    H140689   6.510   3.334   5.530
13604TIP3    H240690   6.612   3.393   5.439
13605TIP3   OH240691   6.786   2.373   5.908
13605TIP3    H140692   6.851   2.445   5.892
13605TIP3    H240693   6.789   2.367   6.006
13606TIP3   OH240694   7.054   2.693   6.714
13606TIP3    H140695   7.071   2.743   6.796
13606TIP3    H240696   7.106   2.611   6.727
13607TIP3   OH240697   6.930   2.102   6.012
13607TIP3    H140698   6.921   2.180   6.070
13607TIP3    H240699   6.990   2.137   5.942
13608TIP3   OH240700   6.341   3.385   5.563
13608TIP3    H140701   6.310   3.454   5.500
13608TIP3    H240702   6.323   3.428   5.649
13609TIP3   OH240703   6.441   2.098   5.799
13609TIP3    H140704   6.437   2.188   5.837
13609TIP3    H240705   6.537   2.080   5.808
13610TIP3   OH240706   7.696   2.590   6.689
13610TIP3    H140707   7.599   2.593   6.704
13610TIP3    H240708   7.697   2.544   6.604
13611TIP3   OH240709   7.346   2.786   6.085
13611TIP3    H140710   7.269   2.728   6.096
13611TIP3    H240711   7.416   2.737   6.133
13612TIP3   OH240712   6.057   3.015   5.556
13612TIP3    H140713   6.119   3.090   5.563
13612TIP3    H240714   6.104   2.962   5.488
13613TIP3   OH240715   6.004   2.291   5.685
13613TIP3    H140716   5.999   2.389   5.683
13613TIP3    H240717   5.918   2.266   5.650
13614TIP3   OH240718   7.316   3.742   6.034
13614TIP3    H140719   7.271   3.788   5.959
13614TIP3    H240720   7.409   3.759   6.011
13615TIP3   OH240721   6.391   2.011   6.561
13615TIP3    H140722   6.358   1.977   6.475
13615TIP3    H240723   6.380   1.933   6.619
13616TIP3   OH240724   5.929   3.230   5.942
13616TIP3    H140725   5.859   3.260   6.002
13616TIP3    H240726   5.899   3.271   5.857
13617TIP3   OH240727   6.084   3.770   7.012
13617TIP3    H140728   6.170   3.767   7.059
13617TIP3    H240729   6.060   3.675   7.011
13618TIP3   OH240730   6.573   3.733   7.060
13618TIP3    H140731   6.666   3.708   7.058
13618TIP3    H240732   6.539   3.678   6.986
13619TIP3   OH240733   6.550   3.303   5.185
13619TIP3    H140734   6.478   3.250   5.227
13619TIP3    H240735   6.617   3.233   5.183
13620TIP3   OH240736   7.205   3.644   6.791
13620TIP3    H140737   7.198   3.573   6.859
13620TIP3    H240738   7.283   3.694   6.821
13621TIP3   OH240739   6.216   3.179   7.213
13621TIP3    H140740   6.233   3.082   7.218
13621TIP3    H240741   6.128   3.181   7.170
13622TIP3   OH240742   6.195   2.830   5.405
13622TIP3    H140743   6.246   2.794   5.479
13622TIP3    H240744   6.264   2.833   5.336
13623TIP3   OH240745   6.825   3.263   6.986
13623TIP3    H140746   6.779   3.278   6.901
13623TIP3    H240747   6.853   3.169   6.979
13624TIP3   OH240748   6.692   3.029   5.205
13624TIP3    H140749   6.698   3.043   5.302
13624TIP3    H240750   6.697   2.931   5.203
13625TIP3   OH240751   7.319   3.268   6.595
13625TIP3    H140752   7.389   3.319   6.550
13625TIP3    H240753   7.243   3.327   6.585
13626TIP3   OH240754   6.336   2.915   7.195
13626TIP3    H140755   6.403   2.848   7.178
13626TIP3    H240756   6.360   2.945   7.285
13627TIP3   OH240757   6.405   2.732   5.631
13627TIP3    H140758   6.373   2.692   5.713
13627TIP3    H240759   6.437   2.654   5.581
13628TIP3   OH240760   6.673   2.801   6.861
13628TIP3    H140761   6.592   2.856   6.862
13628TIP3    H240762   6.718   2.833   6.779
13629TIP3   OH240763   6.501   2.525   5.469
13629TIP3    H140764   6.474   2.526   5.375
13629TIP3    H240765   6.599   2.532   5.461
13630TIP3   OH240766   7.188   3.200   6.992
13630TIP3    H140767   7.264   3.172   6.940
13630TIP3    H240768   7.182   3.131   7.060
13631TIP3   OH240769   7.319   2.863   5.134
13631TIP3    H140770   7.296   2.815   5.051
13631TIP3    H240771   7.336   2.952   5.101
13632TIP3   OH240772   6.796   2.585   6.982
13632TIP3    H140773   6.792   2.504   6.928
13632TIP3    H240774   6.749   2.650   6.925
13633TIP3   OH240775   6.796   2.372   6.790
13633TIP3    H140776   6.821   2.409   6.703
13633TIP3    H240777   6.702   2.347   6.774
13634TIP3   OH240778   6.826   2.910   6.664
13634TIP3    H140779   6.905   2.914   6.610
13634TIP3    H240780   6.767   2.975   6.620
13635TIP3   OH240781   7.425   2.863   7.066
13635TIP3    H140782   7.455   2.779   7.027
13635TIP3    H240783   7.481   2.927   7.021
13636TIP3   OH240784   7.446   3.127   6.786
13636TIP3    H140785   7.389   3.180   6.726
13636TIP3    H240786   7.534   3.146   6.746
13637TIP3   OH240787   6.673   2.696   7.214
13637TIP3    H140788   6.603   2.629   7.228
13637TIP3    H240789   6.706   2.670   7.126
13638TIP3   OH240790   6.929   2.135   6.855
13638TIP3    H140791   6.878   2.217   6.835
13638TIP3    H240792   6.859   2.066   6.846
13639TIP3   OH240793   7.052   2.640   7.074
13639TIP3    H140794   7.036   2.624   7.169
13639TIP3    H240795   6.963   2.615   7.040
13640TIP3   OH240796   7.298   2.599   6.936
13640TIP3    H140797   7.216   2.591   6.989
13640TIP3    H240798   7.364   2.555   6.994
13641TIP3   OH240799   7.529   2.534   7.096
13641TIP3    H140800   7.539   2.436   7.100
13641TIP3    H240801   7.517   2.556   7.190
13642TIP3   OH240802   6.513   2.477   7.265
13642TIP3    H140803   6.516   2.385   7.231
13642TIP3    H240804   6.548   2.463   7.356
13643TIP3   OH240805   7.026   2.149   7.113
13643TIP3    H140806   7.091   2.075   7.112
13643TIP3    H240807   6.984   2.137   7.025
13644TIP3   OH240808   7.093   2.365   7.267
13644TIP3    H140809   7.070   2.290   7.207
13644TIP3    H240810   7.011   2.419   7.264
13645TIP3   OH240811   6.309   3.585   5.374
13645TIP3    H140812   6.404   3.587   5.352
13645TIP3    H240813   6.274   3.635   5.298
13646TIP3   OH240814   5.788   2.969   5.589
13646TIP3    H140815   5.883   2.990   5.577
13646TIP3    H240816   5.782   2.881   5.548
13647TIP3   OH240817   5.705   3.582   6.003
13647TIP3    H140818   5.636   3.521   5.968
13647TIP3    H240819   5.748   3.524   6.069
13648TIP3   OH240820   5.841   3.433   6.190
13648TIP3    H140821   5.825   3.361   6.253
13648TIP3    H240822   5.889   3.495   6.247
13649TIP3   OH240823   7.571   3.825   5.986
13649TIP3    H140824   7.586   3.868   6.073
13649TIP3    H240825   7.615   3.888   5.926
13650TIP3   OH240826   7.578   3.859   6.265
13650TIP3    H140827   7.542   3.768   6.258
13650TIP3    H240828   7.623   3.856   6.349
13651TIP3   OH240829   7.644   3.531   6.843
13651TIP3    H140830   7.570   3.538   6.907
13651TIP3    H240831   7.685   3.620   6.850
13652TIP3   OH240832   7.459   3.044   5.464
13652TIP3    H140833   7.528   3.108   5.438
13652TIP3    H240834   7.501   3.004   5.545
13653TIP3   OH240835   7.585   2.912   5.669
13653TIP3    H140836   7.520   2.868   5.728
13653TIP3    H240837   7.650   2.949   5.732
13654TIP3   OH240838   7.644   3.304   6.105
13654TIP3    H140839   7.693   3.238   6.053
13654TIP3    H240840   7.633   3.377   6.041
13655TIP3   OH240841   7.475   3.601   6.300
13655TIP3    H140842   7.403   3.646   6.349
13655TIP3    H240843   7.424   3.555   6.229
13656TIP3   OH240844   7.523   2.818   5.317
13656TIP3    H140845   7.447   2.819   5.255
13656TIP3    H240846   7.499   2.895   5.373
13657TIP3   OH240847   7.394   2.493   5.271
13657TIP3    H140848   7.352   2.527   5.191
13657TIP3    H240849   7.371   2.397   5.264
13658TIP3   OH240850   7.400   2.766   5.815
13658TIP3    H140851   7.407   2.670   5.810
13658TIP3    H240852   7.386   2.781   5.911
13659TIP3   OH240853   6.027   2.840   6.562
13659TIP3    H140854   6.024   2.809   6.469
13659TIP3    H240855   6.124   2.841   6.578
13660TIP3   OH240856   7.690   3.193   6.675
13660TIP3    H140857   7.761   3.126   6.665
13660TIP3    H240858   7.705   3.251   6.599
13661TIP3   OH240859   7.874   2.997   6.689
13661TIP3    H140860   7.799   2.946   6.728
13661TIP3    H240861   7.947   2.934   6.703
13662TIP3   OH240862   7.339   2.227   5.257
13662TIP3    H140863   7.414   2.195   5.311
13662TIP3    H240864   7.266   2.167   5.281
13663TIP3   OH240865   7.396   2.483   5.711
13663TIP3    H140866   7.436   2.395   5.727
13663TIP3    H240867   7.455   2.515   5.640
13664TIP3   OH240868   7.560   2.655   6.207
13664TIP3    H140869   7.645   2.683   6.166
13664TIP3    H240870   7.572   2.694   6.296
13665TIP3   OH240871   7.628   2.802   6.438
13665TIP3    H140872   7.549   2.834   6.486
13665TIP3    H240873   7.659   2.883   6.393
13666TIP3   OH240874   6.246   2.531   7.242
13666TIP3    H140875   6.344   2.520   7.241
13666TIP3    H240876   6.220   2.444   7.279
13667TIP3   OH240877   8.077   2.390   6.991
13667TIP3    H140878   8.137   2.326   6.949
13667TIP3    H240879   8.050   2.448   6.918
13668TIP3   OH240880   7.504   2.233   5.749
13668TIP3    H140881   7.552   2.216   5.833
13668TIP3    H240882   7.444   2.156   5.746
13669TIP3   OH240883   6.206   2.219   6.565
13669TIP3    H140884   6.268   2.144   6.578
13669TIP3    H240885   6.268   2.294   6.562
13670TIP3   OH240886   6.009   2.493   6.642
13670TIP3    H140887   6.057   2.486   6.557
13670TIP3    H240888   6.037   2.580   6.672
13671TIP3   OH240889   7.951   2.529   6.796
13671TIP3    H140890   7.870   2.573   6.830
13671TIP3    H240891   7.909   2.461   6.741
13672TIP3   OH240892   7.586   2.169   5.380
13672TIP3    H140893   7.625   2.095   5.329
13672TIP3    H240894   7.655   2.238   5.373
13673TIP3   OH240895   5.991   2.000   6.144
13673TIP3    H140896   5.897   1.994   6.169
13673TIP3    H240897   5.988   2.056   6.064
13674TIP3   OH240898   7.149   3.699   5.646
13674TIP3    H140899   7.203   3.685   5.565
13674TIP3    H240900   7.200   3.767   5.693
13675TIP3   OH240901   6.212   2.080   6.957
13675TIP3    H140902   6.161   2.069   7.039
13675TIP3    H240903   6.144   2.116   6.898
13676TIP3   OH240904   6.252   3.502   7.035
13676TIP3    H140905   6.160   3.477   7.015
13676TIP3    H240906   6.256   3.483   7.130
13677TIP3   OH240907   6.431   3.536   6.583
13677TIP3    H140908   6.379   3.609   6.545
13677TIP3    H240909   6.515   3.552   6.536
13678TIP3   OH240910   6.876   3.779   6.720
13678TIP3    H140911   6.917   3.783   6.808
13678TIP3    H240912   6.940   3.831   6.667
13679TIP3   OH240913   7.052   3.932   6.578
13679TIP3    H140914   7.123   3.882   6.535
13679TIP3    H240915   7.104   3.990   6.638
13680TIP3   OH240916   7.846   2.291   6.677
13680TIP3    H140917   7.752   2.288   6.648
13680TIP3    H240918   7.868   2.196   6.670
13681TIP3   OH240919   6.108   3.795   6.604
13681TIP3    H140920   6.018   3.827   6.579
13681TIP3    H240921   6.112   3.827   6.694
13682TIP3   OH240922   6.343   3.773   6.462
13682TIP3    H140923   6.257   3.785   6.508
13682TIP3    H240924   6.321   3.805   6.372
13683TIP3   OH240925   6.769   3.801   6.259
13683TIP3    H140926   6.698   3.820   6.195
13683TIP3    H240927   6.781   3.889   6.301
13684TIP3   OH240928   7.037   3.741   6.311
13684TIP3    H140929   6.942   3.757   6.292
13684TIP3    H240930   7.078   3.818   6.269
13685TIP3   OH240931   7.244   3.931   6.227
13685TIP3    H140932   7.230   4.017   6.181
13685TIP3    H240933   7.269   3.873   6.153
13686TIP3   OH240934   6.019   3.589   6.348
13686TIP3    H140935   6.043   3.562   6.439
13686TIP3    H240936   6.090   3.544   6.298
13687TIP3   OH240937   6.211   3.458   6.205
13687TIP3    H140938   6.226   3.375   6.255
13687TIP3    H240939   6.302   3.495   6.202
13688TIP3   OH240940   6.478   3.554   6.208
13688TIP3    H140941   6.508   3.461   6.197
13688TIP3    H240942   6.520   3.575   6.293
13689TIP3   OH240943   7.054   2.210   6.299
13689TIP3    H140944   7.009   2.141   6.351
13689TIP3    H240945   7.123   2.159   6.252
13690TIP3   OH240946   7.578   2.098   6.205
13690TIP3    H140947   7.611   2.145   6.125
13690TIP3    H240948   7.481   2.107   6.194
13691TIP3   OH240949   7.672   2.191   5.966
13691TIP3    H140950   7.744   2.139   5.925
13691TIP3    H240951   7.705   2.282   5.949
13692TIP3   OH240952   6.302   1.919   6.313
13692TIP3    H140953   6.210   1.885   6.314
13692TIP3    H240954   6.351   1.834   6.310
13693TIP3   OH240955   6.089   1.788   5.962
13693TIP3    H140956   6.117   1.846   5.889
13693TIP3    H240957   6.059   1.853   6.028
13694TIP3   OH240958   6.744   1.952   6.192
13694TIP3    H140959   6.806   2.002   6.136
13694TIP3    H240960   6.765   1.986   6.280
13695TIP3   OH240961   7.297   2.097   6.176
13695TIP3    H140962   7.290   2.058   6.088
13695TIP3    H240963   7.283   2.018   6.233
13696TIP3   OH240964   7.322   2.020   5.740
13696TIP3    H140965   7.235   2.061   5.751
13696TIP3    H240966   7.308   1.934   5.786
13697TIP3   OH240967   5.807   3.358   5.738
13697TIP3    H140968   5.721   3.326   5.706
13697TIP3    H240969   5.795   3.453   5.722
13698TIP3   OH240970   6.205   1.950   5.722
13698TIP3    H140971   6.253   1.885   5.668
13698TIP3    H240972   6.278   2.002   5.760
13699TIP3   OH240973   6.718   2.123   5.821
13699TIP3    H140974   6.775   2.074   5.883
13699TIP3    H240975   6.740   2.215   5.849
13700TIP3   OH240976   6.579   3.545   5.321
13700TIP3    H140977   6.664   3.572   5.281
13700TIP3    H240978   6.556   3.470   5.262
13701TIP3   OH240979   7.297   3.664   5.414
13701TIP3    H140980   7.290   3.567   5.398
13701TIP3    H240981   7.252   3.699   5.335
13702TIP3   OH240982   6.510   2.203   7.207
13702TIP3    H140983   6.476   2.130   7.262
13702TIP3    H240984   6.605   2.201   7.233
13703TIP3   OH240985   6.760   2.198   7.324
13703TIP3    H140986   6.843   2.165   7.285
13703TIP3    H240987   6.744   2.129   7.392
13704TIP3   OH240988   5.880   3.385   5.380
13704TIP3    H140989   5.875   3.413   5.472
13704TIP3    H240990   5.970   3.345   5.374
13705TIP3   OH240991   7.582   2.264   7.112
13705TIP3    H140992   7.598   2.229   7.202
13705TIP3    H240993   7.671   2.252   7.071
13706TIP3   OH240994   7.536   3.815   6.585
13706TIP3    H140995   7.452   3.779   6.549
13706TIP3    H240996   7.509   3.908   6.600
13707TIP3   OH240997   8.782   3.184   5.379
13707TIP3    H140998   8.755   3.273   5.349
13707TIP3    H240999   8.713   3.130   5.334
13708TIP3   OH241000   8.788   3.172   5.774
13708TIP3    H141001   8.790   3.083   5.812
13708TIP3    H241002   8.764   3.152   5.683
13709TIP3   OH241003   8.087   3.081   6.117
13709TIP3    H141004   8.117   3.013   6.180
13709TIP3    H241005   8.170   3.128   6.100
13710TIP3   OH241006   9.027   3.492   5.424
13710TIP3    H141007   9.021   3.415   5.480
13710TIP3    H241008   9.061   3.561   5.482
13711TIP3   OH241009   8.062   3.489   5.853
13711TIP3    H141010   8.051   3.391   5.849
13711TIP3    H241011   8.157   3.496   5.832
13712TIP3   OH241012   7.765   2.693   5.627
13712TIP3    H141013   7.714   2.775   5.639
13712TIP3    H241014   7.696   2.636   5.588
13713TIP3   OH241015   7.825   2.978   5.797
13713TIP3    H141016   7.874   2.901   5.834
13713TIP3    H241017   7.883   3.005   5.724
13714TIP3   OH241018   8.677   3.945   5.449
13714TIP3    H141019   8.724   3.875   5.397
13714TIP3    H241020   8.681   3.909   5.538
13715TIP3   OH241021   8.575   3.409   5.799
13715TIP3    H141022   8.614   3.331   5.757
13715TIP3    H241023   8.658   3.455   5.825
13716TIP3   OH241024   9.525   2.758   5.810
13716TIP3    H141025   9.594   2.802   5.864
13716TIP3    H241026   9.575   2.748   5.727
13717TIP3   OH241027   9.006   2.934   5.836
13717TIP3    H141028   9.043   2.846   5.860
13717TIP3    H241029   8.972   2.913   5.747
13718TIP3   OH241030   8.334   2.569   5.799
13718TIP3    H141031   8.317   2.641   5.734
13718TIP3    H241032   8.288   2.495   5.752
13719TIP3   OH241033   9.029   2.663   5.419
13719TIP3    H141034   9.102   2.647   5.484
13719TIP3    H241035   9.082   2.695   5.344
13720TIP3   OH241036   7.970   2.771   5.905
13720TIP3    H141037   8.054   2.750   5.951
13720TIP3    H241038   7.982   2.716   5.824
13721TIP3   OH241039   8.412   2.969   5.699
13721TIP3    H141040   8.505   2.944   5.711
13721TIP3    H241041   8.373   2.886   5.665
13722TIP3   OH241042   9.674   2.925   5.971
13722TIP3    H141043   9.594   2.981   5.963
13722TIP3    H241044   9.722   2.967   6.046
13723TIP3   OH241045   8.326   2.552   6.236
13723TIP3    H141046   8.272   2.587   6.162
13723TIP3    H241047   8.271   2.578   6.312
13724TIP3   OH241048   8.673   3.399   5.245
13724TIP3    H141049   8.644   3.384   5.154
13724TIP3    H241050   8.634   3.486   5.264
13725TIP3   OH241051   8.437   3.329   6.026
13725TIP3    H141052   8.375   3.396   6.064
13725TIP3    H241053   8.478   3.379   5.953
13726TIP3   OH241054   9.237   2.663   5.592
13726TIP3    H141055   9.250   2.605   5.669
13726TIP3    H241056   9.302   2.733   5.609
13727TIP3   OH241057   8.204   2.666   6.017
13727TIP3    H141058   8.266   2.740   6.038
13727TIP3    H241059   8.252   2.626   5.940
13728TIP3   OH241060   8.260   3.521   6.131
13728TIP3    H141061   8.237   3.604   6.085
13728TIP3    H241062   8.180   3.506   6.183
13729TIP3   OH241063   7.664   3.213   5.361
13729TIP3    H141064   7.622   3.240   5.277
13729TIP3    H241065   7.693   3.299   5.397
13730TIP3   OH241066   9.098   3.723   5.599
13730TIP3    H141067   9.008   3.722   5.636
13730TIP3    H241068   9.098   3.809   5.553
13731TIP3   OH241069   9.367   2.621   5.977
13731TIP3    H141070   9.281   2.646   5.940
13731TIP3    H241071   9.428   2.663   5.912
13732TIP3   OH241072   8.690   2.270   5.939
13732TIP3    H141073   8.682   2.175   5.959
13732TIP3    H241074   8.612   2.305   5.986
13733TIP3   OH241075   8.801   3.774   5.274
13733TIP3    H141076   8.850   3.692   5.250
13733TIP3    H241077   8.861   3.840   5.232
13734TIP3   OH241078   8.938   3.560   5.173
13734TIP3    H141079   8.924   3.477   5.125
13734TIP3    H241080   8.976   3.528   5.258
13735TIP3   OH241081   9.318   3.617   5.913
13735TIP3    H141082   9.355   3.595   5.826
13735TIP3    H241083   9.291   3.709   5.897
13736TIP3   OH241084   8.622   3.038   5.201
13736TIP3    H141085   8.541   3.088   5.175
13736TIP3    H241086   8.669   3.031   5.116
13737TIP3   OH241087   8.578   2.818   4.918
13737TIP3    H141088   8.647   2.869   4.965
13737TIP3    H241089   8.635   2.755   4.869
13738TIP3   OH241090   9.482   3.280   5.777
13738TIP3    H141091   9.465   3.375   5.765
13738TIP3    H241092   9.539   3.265   5.698
13739TIP3   OH241093   8.962   3.118   5.175
13739TIP3    H141094   8.912   3.142   5.255
13739TIP3    H241095   9.046   3.087   5.214
13740TIP3   OH241096   8.198   3.115   5.591
13740TIP3    H141097   8.156   3.057   5.523
13740TIP3    H241098   8.275   3.061   5.618
13741TIP3   OH241099   8.321   3.520   5.740
13741TIP3    H141100   8.305   3.485   5.651
13741TIP3    H241101   8.412   3.489   5.757
13742TIP3   OH241102   8.333   3.086   5.944
13742TIP3    H141103   8.367   3.063   5.855
13742TIP3    H241104   8.378   3.172   5.962
13743TIP3   OH241105   8.857   3.729   5.720
13743TIP3    H141106   8.848   3.815   5.766
13743TIP3    H241107   8.829   3.665   5.789
13744TIP3   OH241108   8.478   3.637   6.261
13744TIP3    H141109   8.424   3.703   6.309
13744TIP3    H241110   8.407   3.585   6.217
13745TIP3   OH241111   8.804   2.977   4.998
13745TIP3    H141112   8.866   3.033   5.050
13745TIP3    H241113   8.831   3.000   4.906
13746TIP3   OH241114   8.226   3.202   6.369
13746TIP3    H141115   8.233   3.286   6.418
13746TIP3    H241116   8.131   3.181   6.379
13747TIP3   OH241117   8.548   3.658   5.277
13747TIP3    H141118   8.631   3.708   5.289
13747TIP3    H241119   8.491   3.721   5.233
13748TIP3   OH241120   8.279   3.811   6.340
13748TIP3    H141121   8.248   3.817   6.247
13748TIP3    H241122   8.197   3.809   6.390
13749TIP3   OH241123   9.335   2.236   5.074
13749TIP3    H141124   9.244   2.249   5.109
13749TIP3    H241125   9.337   2.301   5.001
13750TIP3   OH241126   8.063   2.959   5.398
13750TIP3    H141127   7.999   3.002   5.338
13750TIP3    H241128   8.027   2.870   5.404
13751TIP3   OH241129   9.121   3.584   4.594
13751TIP3    H141130   9.129   3.681   4.580
13751TIP3    H241131   9.214   3.557   4.581
13752TIP3   OH241132   7.851   3.343   6.293
13752TIP3    H141133   7.783   3.320   6.226
13752TIP3    H241134   7.886   3.254   6.319
13753TIP3   OH241135   7.697   3.531   5.938
13753TIP3    H141136   7.792   3.530   5.921
13753TIP3    H241137   7.684   3.616   5.983
13754TIP3   OH241138   9.554   3.989   5.981
13754TIP3    H141139   9.572   3.899   6.014
13754TIP3    H241140   9.476   4.011   6.037
13755TIP3   OH241141   8.672   3.771   6.120
13755TIP3    H141142   8.673   3.863   6.155
13755TIP3    H241143   8.604   3.730   6.177
13756TIP3   OH241144   8.427   3.898   5.078
13756TIP3    H141145   8.388   3.879   4.991
13756TIP3    H241146   8.399   3.990   5.095
13757TIP3   OH241147   7.868   3.751   5.460
13757TIP3    H141148   7.917   3.741   5.545
13757TIP3    H241149   7.811   3.672   5.462
13758TIP3   OH241150   8.633   3.800   4.716
13758TIP3    H141151   8.691   3.731   4.679
13758TIP3    H241152   8.669   3.810   4.807
13759TIP3   OH241153   8.682   3.851   4.986
13759TIP3    H141154   8.595   3.857   5.032
13759TIP3    H241155   8.737   3.812   5.055
13760TIP3   OH241156   9.468   3.117   6.261
13760TIP3    H141157   9.373   3.118   6.245
13760TIP3    H241158   9.487   3.021   6.260
13761TIP3   OH241159   8.031   3.543   6.338
13761TIP3    H141160   8.105   3.507   6.392
13761TIP3    H241161   7.984   3.461   6.310
13762TIP3   OH241162   8.453   2.345   6.071
13762TIP3    H141163   8.364   2.315   6.044
13762TIP3    H241164   8.431   2.432   6.109
13763TIP3   OH241165   8.985   2.463   6.266
13763TIP3    H141166   9.057   2.435   6.328
13763TIP3    H241167   8.904   2.440   6.316
13764TIP3   OH241168   9.221   2.922   6.191
13764TIP3    H141169   9.192   2.888   6.279
13764TIP3    H241170   9.136   2.950   6.155
13765TIP3   OH241171   8.880   3.025   4.742
13765TIP3    H141172   8.851   2.996   4.653
13765TIP3    H241173   8.965   3.067   4.720
13766TIP3   OH241174   8.593   2.400   5.043
13766TIP3    H141175   8.563   2.396   5.136
13766TIP3    H241176   8.559   2.314   5.011
13767TIP3   OH241177   8.381   2.862   6.091
13767TIP3    H141178   8.334   2.887   6.173
13767TIP3    H241179   8.366   2.943   6.037
13768TIP3   OH241180   8.266   2.750   5.607
13768TIP3    H141181   8.174   2.722   5.623
13768TIP3    H241182   8.281   2.710   5.518
13769TIP3   OH241183   8.757   2.835   5.333
13769TIP3    H141184   8.705   2.906   5.289
13769TIP3    H241185   8.814   2.804   5.259
13770TIP3   OH241186   8.932   3.110   6.411
13770TIP3    H141187   8.911   3.040   6.476
13770TIP3    H241188   9.019   3.139   6.443
13771TIP3   OH241189   8.910   2.864   5.577
13771TIP3    H141190   8.854   2.890   5.501
13771TIP3    H241191   8.949   2.783   5.537
13772TIP3   OH241192   8.197   2.897   6.300
13772TIP3    H141193   8.239   2.957   6.364
13772TIP3    H241194   8.186   2.815   6.351
13773TIP3   OH241195   8.249   2.368   5.010
13773TIP3    H141196   8.243   2.365   5.108
13773TIP3    H241197   8.171   2.421   4.988
13774TIP3   OH241198   7.794   2.416   5.882
13774TIP3    H141199   7.872   2.446   5.933
13774TIP3    H241200   7.832   2.381   5.800
13775TIP3   OH241201   7.768   2.394   5.401
13775TIP3    H141202   7.813   2.433   5.323
13775TIP3    H241203   7.707   2.467   5.422
13776TIP3   OH241204   8.593   2.577   5.668
13776TIP3    H141205   8.514   2.571   5.725
13776TIP3    H241206   8.666   2.566   5.731
13777TIP3   OH241207   8.027   2.626   5.677
13777TIP3    H141208   7.933   2.633   5.649
13777TIP3    H241209   8.052   2.536   5.651
13778TIP3   OH241210   8.297   2.625   5.364
13778TIP3    H141211   8.392   2.638   5.345
13778TIP3    H241212   8.253   2.648   5.279
13779TIP3   OH241213   9.082   2.659   5.875
13779TIP3    H141214   9.041   2.662   5.963
13779TIP3    H241215   9.028   2.593   5.829
13780TIP3   OH241216   8.137   2.659   5.141
13780TIP3    H141217   8.067   2.613   5.091
13780TIP3    H241218   8.191   2.695   5.067
13781TIP3   OH241219   9.253   4.340   6.087
13781TIP3    H141220   9.254   4.361   5.991
13781TIP3    H241221   9.334   4.385   6.117
13782TIP3   OH241222   8.216   3.448   6.511
13782TIP3    H141223   8.299   3.475   6.556
13782TIP3    H241224   8.157   3.442   6.589
13783TIP3   OH241225   8.681   2.897   5.770
13783TIP3    H141226   8.748   2.860   5.711
13783TIP3    H241227   8.692   2.845   5.851
13784TIP3   OH241228   8.200   2.387   5.642
13784TIP3    H141229   8.168   2.306   5.686
13784TIP3    H241230   8.253   2.351   5.569
13785TIP3   OH241231   8.652   2.790   6.059
13785TIP3    H141232   8.564   2.832   6.070
13785TIP3    H241233   8.712   2.851   6.107
13786TIP3   OH241234   8.388   3.188   5.147
13786TIP3    H141235   8.316   3.122   5.138
13786TIP3    H241236   8.372   3.221   5.239
13787TIP3   OH241237   8.848   2.499   5.014
13787TIP3    H141238   8.751   2.486   5.020
13787TIP3    H241239   8.861   2.594   5.034
13788TIP3   OH241240   8.803   3.500   6.150
13788TIP3    H141241   8.822   3.479   6.243
13788TIP3    H241242   8.762   3.589   6.157
13789TIP3   OH241243   8.919   2.747   5.115
13789TIP3    H141244   9.016   2.750   5.129
13789TIP3    H241245   8.904   2.824   5.057
13790TIP3   OH241246   8.082   3.211   5.826
13790TIP3    H141247   8.119   3.184   5.739
13790TIP3    H241248   8.123   3.147   5.885
13791TIP3   OH241249   8.535   3.336   4.969
13791TIP3    H141250   8.488   3.423   4.976
13791TIP3    H241251   8.482   3.281   5.030
13792TIP3   OH241252   7.957   3.136   6.442
13792TIP3    H141253   7.983   3.115   6.534
13792TIP3    H241254   7.895   3.064   6.422
13793TIP3   OH241255   8.692   3.244   6.458
13793TIP3    H141256   8.639   3.188   6.400
13793TIP3    H241257   8.783   3.215   6.434
13794TIP3   OH241258   8.940   3.779   6.031
13794TIP3    H141259   8.846   3.774   6.055
13794TIP3    H241260   8.979   3.815   6.113
13795TIP3   OH241261   9.350   2.828   4.963
13795TIP3    H141262   9.291   2.784   4.898
13795TIP3    H241263   9.377   2.903   4.906
13796TIP3   OH241264   9.565   3.681   6.029
13796TIP3    H141265   9.468   3.683   6.017
13796TIP3    H241266   9.595   3.651   5.941
13797TIP3   OH241267   9.053   3.656   4.857
13797TIP3    H141268   9.041   3.582   4.918
13797TIP3    H241269   9.074   3.611   4.772
13798TIP3   OH241270   8.183   3.514   5.456
13798TIP3    H141271   8.189   3.594   5.399
13798TIP3    H241272   8.088   3.496   5.453
13799TIP3   OH241273   7.745   2.818   5.153
13799TIP3    H141274   7.794   2.900   5.174
13799TIP3    H241275   7.670   2.824   5.215
13800TIP3   OH241276   8.320   3.278   5.395
13800TIP3    H141277   8.288   3.369   5.414
13800TIP3    H241278   8.283   3.229   5.471
13801TIP3   OH241279   8.451   3.854   5.922
13801TIP3    H141280   8.490   3.928   5.870
13801TIP3    H241281   8.530   3.823   5.970
13802TIP3   OH241282   8.103   3.753   5.304
13802TIP3    H141283   8.017   3.761   5.348
13802TIP3    H241284   8.135   3.845   5.306
13803TIP3   OH241285   8.821   3.497   5.878
13803TIP3    H141286   8.822   3.502   5.976
13803TIP3    H241287   8.914   3.493   5.854
13804TIP3   OH241288   8.815   3.382   4.762
13804TIP3    H141289   8.870   3.360   4.841
13804TIP3    H241290   8.728   3.355   4.794
13805TIP3   OH241291   9.087   4.027   5.929
13805TIP3    H141292   9.010   3.967   5.921
13805TIP3    H241293   9.072   4.089   5.855
13806TIP3   OH241294   9.153   3.860   4.581
13806TIP3    H141295   9.191   3.933   4.529
13806TIP3    H241296   9.073   3.905   4.614
13807TIP3   OH241297   8.159   2.647   6.441
13807TIP3    H141298   8.061   2.657   6.444
13807TIP3    H241299   8.179   2.629   6.534
13808TIP3   OH241300   8.972   3.323   4.984
13808TIP3    H141301   8.965   3.251   5.050
13808TIP3    H241302   9.068   3.319   4.965
13809TIP3   OH241303   7.889   3.723   6.127
13809TIP3    H141304   7.955   3.659   6.099
13809TIP3    H241305   7.937   3.807   6.123
13810TIP3   OH241306   8.179   3.365   4.761
13810TIP3    H141307   8.197   3.274   4.731
13810TIP3    H241308   8.161   3.351   4.856
13811TIP3   OH241309   8.125   3.368   5.035
13811TIP3    H141310   8.202   3.342   5.088
13811TIP3    H241311   8.130   3.466   5.040
13812TIP3   OH241312   7.861   3.061   5.235
13812TIP3    H141313   7.797   3.108   5.292
13812TIP3    H241314   7.879   3.131   5.169
13813TIP3   OH241315   9.008   2.704   6.137
13813TIP3    H141316   9.093   2.726   6.177
13813TIP3    H241317   8.989   2.619   6.182
13814TIP3   OH241318   8.885   2.454   5.293
13814TIP3    H141319   8.877   2.475   5.198
13814TIP3    H241320   8.930   2.534   5.328
13815TIP3   OH241321   8.391   3.566   4.983
13815TIP3    H141322   8.304   3.596   5.016
13815TIP3    H241323   8.411   3.636   4.919
13816TIP3   OH241324   8.577   2.632   5.394
13816TIP3    H141325   8.645   2.700   5.375
13816TIP3    H241326   8.586   2.623   5.492
13817TIP3   OH241327   8.836   2.941   6.204
13817TIP3    H141328   8.866   3.000   6.277
13817TIP3    H241329   8.897   2.866   6.211
13818TIP3   OH241330   8.724   2.356   5.496
13818TIP3    H141331   8.727   2.430   5.560
13818TIP3    H241332   8.784   2.392   5.427
13819TIP3   OH241333   8.133   3.642   5.048
13819TIP3    H141334   8.106   3.712   4.985
13819TIP3    H241335   8.119   3.687   5.134
13820TIP3   OH241336   8.236   2.355   5.288
13820TIP3    H141337   8.235   2.446   5.323
13820TIP3    H241338   8.332   2.336   5.295
13821TIP3   OH241339   9.487   2.850   6.188
13821TIP3    H141340   9.390   2.851   6.180
13821TIP3    H241341   9.514   2.821   6.100
13822TIP3   OH241342   9.131   3.052   5.568
13822TIP3    H141343   9.061   2.987   5.581
13822TIP3    H241344   9.208   3.009   5.613
13823TIP3   OH241345   7.852   3.274   5.041
13823TIP3    H141346   7.920   3.343   5.050
13823TIP3    H241347   7.898   3.218   4.974
13824TIP3   OH241348   7.798   2.547   5.176
13824TIP3    H141349   7.798   2.645   5.170
13824TIP3    H241350   7.716   2.524   5.132
13825TIP3   OH241351   9.110   3.995   5.520
13825TIP3    H141352   9.068   4.042   5.445
13825TIP3    H241353   9.205   4.017   5.502
13826TIP3   OH241354   8.186   2.268   6.049
13826TIP3    H141355   8.155   2.237   5.960
13826TIP3    H241356   8.176   2.186   6.102
13827TIP3   OH241357   7.726   3.487   5.431
13827TIP3    H141358   7.652   3.518   5.485
13827TIP3    H241359   7.703   3.527   5.344
13828TIP3   OH241360   8.364   3.990   6.546
13828TIP3    H141361   8.458   3.978   6.567
13828TIP3    H241362   8.357   3.939   6.464
13829TIP3   OH241363   8.344   3.569   4.674
13829TIP3    H141364   8.290   3.496   4.712
13829TIP3    H241365   8.420   3.518   4.639
13830TIP3   OH241366   8.998   3.891   6.285
13830TIP3    H141367   8.996   3.825   6.357
13830TIP3    H241368   9.079   3.942   6.307
13831TIP3   OH241369   8.779   3.608   4.584
13831TIP3    H141370   8.828   3.548   4.643
13831TIP3    H241371   8.836   3.610   4.504
13832TIP3   OH241372   8.012   3.433   6.698
13832TIP3    H141373   8.033   3.339   6.710
13832TIP3    H241374   7.922   3.430   6.662
13833TIP3   OH241375   7.987   3.084   4.895
13833TIP3    H141376   8.044   3.051   4.966
13833TIP3    H241377   8.054   3.089   4.822
13834TIP3   OH241378   8.619   3.518   6.475
13834TIP3    H141379   8.582   3.531   6.386
13834TIP3    H241380   8.655   3.426   6.470
13835TIP3   OH241381   8.494   3.281   4.701
13835TIP3    H141382   8.501   3.295   4.797
13835TIP3    H241383   8.497   3.183   4.697
13836TIP3   OH241384   8.133   3.168   6.681
13836TIP3    H141385   8.210   3.113   6.660
13836TIP3    H241386   8.156   3.199   6.771
13837TIP3   OH241387   8.195   2.988   5.115
13837TIP3    H141388   8.174   2.943   5.198
13837TIP3    H241389   8.233   2.914   5.062
13838TIP3   OH241390   8.457   3.045   6.341
13838TIP3    H141391   8.388   3.114   6.348
13838TIP3    H241392   8.513   3.082   6.270
13839TIP3   OH241393   8.299   2.783   4.957
13839TIP3    H141394   8.273   2.784   4.863
13839TIP3    H241395   8.396   2.788   4.949
13840TIP3   OH241396   8.980   3.446   6.463
13840TIP3    H141397   9.076   3.452   6.469
13840TIP3    H241398   8.958   3.417   6.553
13841TIP3   OH241399   9.116   3.114   4.619
13841TIP3    H141400   9.096   3.065   4.537
13841TIP3    H241401   9.085   3.204   4.593
13842TIP3   OH241402   8.581   2.836   6.474
13842TIP3    H141403   8.591   2.760   6.414
13842TIP3    H241404   8.544   2.904   6.413
13843TIP3   OH241405   8.589   2.625   6.277
13843TIP3    H141406   8.619   2.668   6.194
13843TIP3    H241407   8.495   2.604   6.257
13844TIP3   OH241408   8.611   3.165   6.160
13844TIP3    H141409   8.689   3.149   6.105
13844TIP3    H241410   8.561   3.233   6.110
13845TIP3   OH241411   9.211   3.131   6.532
13845TIP3    H141412   9.252   3.044   6.544
13845TIP3    H241413   9.289   3.186   6.514
13846TIP3   OH241414   9.234   3.372   6.214
13846TIP3    H141415   9.198   3.461   6.225
13846TIP3    H241416   9.328   3.392   6.194
13847TIP3   OH241417   8.457   2.956   6.696
13847TIP3    H141418   8.391   2.887   6.711
13847TIP3    H241419   8.499   2.926   6.613
13848TIP3   OH241420   8.724   2.393   6.346
13848TIP3    H141421   8.678   2.476   6.321
13848TIP3    H241422   8.654   2.327   6.335
13849TIP3   OH241423   8.851   2.896   6.559
13849TIP3    H141424   8.850   2.891   6.656
13849TIP3    H241425   8.760   2.869   6.538
13850TIP3   OH241426   9.091   2.835   6.411
13850TIP3    H141427   9.015   2.844   6.471
13850TIP3    H241428   9.164   2.809   6.473
13851TIP3   OH241429   9.311   2.784   6.568
13851TIP3    H141430   9.328   2.689   6.585
13851TIP3    H241431   9.311   2.823   6.658
13852TIP3   OH241432   8.311   2.717   6.748
13852TIP3    H141433   8.386   2.664   6.717
13852TIP3    H241434   8.332   2.718   6.844
13853TIP3   OH241435   8.817   2.400   6.603
13853TIP3    H141436   8.887   2.331   6.599
13853TIP3    H241437   8.782   2.395   6.512
13854TIP3   OH241438   8.881   2.615   6.763
13854TIP3    H141439   8.861   2.543   6.698
13854TIP3    H241440   8.804   2.674   6.753
13855TIP3   OH241441   8.105   3.843   4.861
13855TIP3    H141442   8.201   3.840   4.843
13855TIP3    H241443   8.075   3.893   4.782
13856TIP3   OH241444   7.585   3.224   5.077
13856TIP3    H141445   7.679   3.249   5.065
13856TIP3    H241446   7.583   3.135   5.036
13857TIP3   OH241447   7.498   3.839   5.490
13857TIP3    H141448   7.431   3.777   5.455
13857TIP3    H241449   7.543   3.781   5.555
13858TIP3   OH241450   7.634   3.690   5.675
13858TIP3    H141451   7.619   3.617   5.738
13858TIP3    H241452   7.685   3.752   5.731
13859TIP3   OH241453   9.361   4.093   5.479
13859TIP3    H141454   9.393   4.127   5.564
13859TIP3    H241455   9.425   4.130   5.416
13860TIP3   OH241456   9.392   4.110   5.765
13860TIP3    H141457   9.352   4.020   5.757
13860TIP3    H241458   9.468   4.087   5.821
13861TIP3   OH241459   9.417   3.806   6.310
13861TIP3    H141460   9.381   3.811   6.399
13861TIP3    H241461   9.502   3.855   6.317
13862TIP3   OH241462   9.245   3.305   4.950
13862TIP3    H141463   9.315   3.369   4.925
13862TIP3    H241464   9.288   3.261   5.026
13863TIP3   OH241465   9.362   3.166   5.150
13863TIP3    H141466   9.299   3.119   5.209
13863TIP3    H241467   9.429   3.199   5.214
13864TIP3   OH241468   9.434   3.548   5.600
13864TIP3    H141469   9.479   3.490   5.536
13864TIP3    H241470   9.421   3.629   5.547
13865TIP3   OH241471   9.264   3.858   5.789
13865TIP3    H141472   9.196   3.907   5.838
13865TIP3    H241473   9.213   3.812   5.719
13866TIP3   OH241474   9.325   3.084   4.795
13866TIP3    H141475   9.247   3.081   4.735
13866TIP3    H241476   9.297   3.155   4.856
13867TIP3   OH241477   9.171   2.752   4.770
13867TIP3    H141478   9.169   2.787   4.681
13867TIP3    H241479   9.154   2.656   4.754
13868TIP3   OH241480   9.188   3.020   5.301
13868TIP3    H141481   9.206   2.925   5.297
13868TIP3    H241482   9.178   3.036   5.397
13869TIP3   OH241483   7.823   3.096   6.049
13869TIP3    H141484   7.821   3.065   5.956
13869TIP3    H241485   7.920   3.099   6.065
13870TIP3   OH241486   9.486   3.444   6.153
13870TIP3    H141487   9.565   3.385   6.149
13870TIP3    H241488   9.519   3.525   6.109
13871TIP3   OH241489   9.682   3.263   6.182
13871TIP3    H141490   9.607   3.211   6.219
13871TIP3    H241491   9.753   3.197   6.192
13872TIP3   OH241492   9.131   2.484   4.747
13872TIP3    H141493   9.210   2.450   4.793
13872TIP3    H241494   9.061   2.420   4.770
13873TIP3   OH241495   9.193   2.741   5.196
13873TIP3    H141496   9.235   2.654   5.213
13873TIP3    H241497   9.250   2.774   5.123
13874TIP3   OH241498   9.349   2.940   5.677
13874TIP3    H141499   9.432   2.972   5.635
13874TIP3    H241500   9.382   2.925   5.767
13875TIP3   OH241501   9.433   3.057   5.927
13875TIP3    H141502   9.387   3.096   6.002
13875TIP3    H241503   9.454   3.134   5.870
13876TIP3   OH241504   8.043   2.783   6.725
13876TIP3    H141505   8.140   2.775   6.731
13876TIP3    H241506   8.015   2.700   6.767
13877TIP3   OH241507   9.295   2.492   5.248
13877TIP3    H141508   9.340   2.473   5.332
13877TIP3    H241509   9.239   2.412   5.239
13878TIP3   OH241510   8.002   2.476   6.059
13878TIP3    H141511   8.065   2.401   6.063
13878TIP3    H241512   8.063   2.551   6.049
13879TIP3   OH241513   7.806   2.751   6.131
13879TIP3    H141514   7.853   2.740   6.045
13879TIP3    H241515   7.835   2.839   6.156
13880TIP3   OH241516   9.734   2.775   6.306
13880TIP3    H141517   9.655   2.829   6.326
13880TIP3    H241518   9.696   2.717   6.236
13881TIP3   OH241519   9.381   2.409   4.854
13881TIP3    H141520   9.426   2.324   4.836
13881TIP3    H241521   9.438   2.470   4.802
13882TIP3   OH241522   7.787   2.258   5.634
13882TIP3    H141523   7.693   2.251   5.655
13882TIP3    H241524   7.785   2.313   5.552
13883TIP3   OH241525   8.944   3.957   5.135
13883TIP3    H141526   8.996   3.941   5.053
13883TIP3    H241527   8.999   4.022   5.181
13884TIP3   OH241528   8.034   2.339   6.483
13884TIP3    H141529   7.954   2.330   6.539
13884TIP3    H241530   7.992   2.375   6.402
13885TIP3   OH241531   8.220   3.791   6.065
13885TIP3    H141532   8.179   3.872   6.025
13885TIP3    H241533   8.308   3.800   6.023
13886TIP3   OH241534   8.672   4.036   6.205
13886TIP3    H141535   8.713   4.037   6.294
13886TIP3    H241536   8.739   4.086   6.154
13887TIP3   OH241537   8.850   4.187   6.064
13887TIP3    H141538   8.923   4.138   6.022
13887TIP3    H241539   8.901   4.246   6.124
13888TIP3   OH241540   9.631   2.548   6.173
13888TIP3    H141541   9.549   2.550   6.120
13888TIP3    H241542   9.674   2.468   6.138
13889TIP3   OH241543   7.902   4.046   6.102
13889TIP3    H141544   7.811   4.075   6.080
13889TIP3    H241545   7.921   4.106   6.176
13890TIP3   OH241546   8.133   4.021   5.948
13890TIP3    H141547   8.052   4.047   5.998
13890TIP3    H241548   8.116   4.063   5.861
13891TIP3   OH241549   8.560   4.056   5.750
13891TIP3    H141550   8.497   4.080   5.680
13891TIP3    H241551   8.577   4.143   5.792
13892TIP3   OH241552   8.832   3.995   5.793
13892TIP3    H141553   8.738   4.017   5.777
13892TIP3    H241554   8.878   4.072   5.755
13893TIP3   OH241555   9.034   4.186   5.712
13893TIP3    H141556   9.024   4.273   5.666
13893TIP3    H241557   9.066   4.130   5.638
13894TIP3   OH241558   7.812   3.848   5.830
13894TIP3    H141559   7.837   3.840   5.923
13894TIP3    H241560   7.887   3.802   5.785
13895TIP3   OH241561   8.008   3.715   5.695
13895TIP3    H141562   8.027   3.630   5.739
13895TIP3    H241563   8.098   3.754   5.688
13896TIP3   OH241564   8.272   3.812   5.697
13896TIP3    H141565   8.306   3.722   5.679
13896TIP3    H241566   8.318   3.832   5.780
13897TIP3   OH241567   8.842   2.465   5.776
13897TIP3    H141568   8.806   2.392   5.830
13897TIP3    H241569   8.920   2.423   5.734
13898TIP3   OH241570   9.371   2.361   5.717
13898TIP3    H141571   9.409   2.401   5.636
13898TIP3    H241572   9.275   2.363   5.697
13899TIP3   OH241573   9.461   2.445   5.476
13899TIP3    H141574   9.532   2.397   5.428
13899TIP3    H241575   9.489   2.538   5.459
13900TIP3   OH241576   8.098   2.176   5.803
13900TIP3    H141577   8.005   2.142   5.801
13900TIP3    H241578   8.147   2.091   5.798
13901TIP3   OH241579   7.883   2.045   5.448
13901TIP3    H141580   7.915   2.101   5.375
13901TIP3    H241581   7.856   2.111   5.514
13902TIP3   OH241582   8.539   2.211   5.681
13902TIP3    H141583   8.597   2.256   5.617
13902TIP3    H241584   8.574   2.244   5.765
13903TIP3   OH241585   9.079   2.354   5.667
13903TIP3    H141586   9.100   2.317   5.580
13903TIP3    H241587   9.070   2.271   5.721
13904TIP3   OH241588   9.110   2.280   5.228
13904TIP3    H141589   9.022   2.320   5.243
13904TIP3    H241590   9.098   2.193   5.273
13905TIP3   OH241591   7.601   3.615   5.229
13905TIP3    H141592   7.516   3.583   5.195
13905TIP3    H241593   7.592   3.710   5.209
13906TIP3   OH241594   8.002   2.206   5.210
13906TIP3    H141595   8.050   2.142   5.155
13906TIP3    H241596   8.076   2.259   5.247
13907TIP3   OH241597   8.513   2.380   5.310
13907TIP3    H141598   8.575   2.333   5.369
13907TIP3    H241599   8.535   2.472   5.334
13908TIP3   OH241600   8.374   3.804   4.811
13908TIP3    H141601   8.462   3.827   4.774
13908TIP3    H241602   8.352   3.730   4.751
13909TIP3   OH241603   9.090   3.921   4.903
13909TIP3    H141604   9.080   3.824   4.888
13909TIP3    H241605   9.048   3.956   4.821
13910TIP3   OH241606   8.535   2.456   6.801
13910TIP3    H141607   8.622   2.432   6.764
13910TIP3    H241608   8.523   2.385   6.868
13911TIP3   OH241609   7.676   3.637   4.866
13911TIP3    H141610   7.681   3.669   4.958
13911TIP3    H241611   7.765   3.597   4.853
13912TIP3   OH241612   9.376   2.515   6.598
13912TIP3    H141613   9.400   2.484   6.688
13912TIP3    H241614   9.463   2.514   6.552
13913TIP3   OH241615   9.312   4.071   6.094
13913TIP3    H141616   9.235   4.039   6.042
13913TIP3    H241617   9.295   4.167   6.094
13914TIP3   OH241618   9.537   2.946   5.132
13914TIP3    H141619   9.477   3.022   5.128
13914TIP3    H241620   9.487   2.881   5.079
13915TIP3   OH241621   9.580   3.230   5.302
13915TIP3    H141622   9.623   3.149   5.334
13915TIP3    H241623   9.647   3.261   5.239
13916TIP3   OH241624   9.447   3.476   4.870
13916TIP3    H141625   9.438   3.481   4.774
13916TIP3    H241626   9.484   3.564   4.892
13917TIP3   OH241627   9.636   3.587   5.783
13917TIP3    H141628   9.581   3.558   5.707
13917TIP3    H241629   9.677   3.503   5.815
13918TIP3   OH241630   9.501   3.788   5.428
13918TIP3    H141631   9.597   3.787   5.415
13918TIP3    H241632   9.491   3.872   5.477
13919TIP3   OH241633   9.632   4.011   4.966
13919TIP3    H141634   9.692   4.006   5.043
13919TIP3    H241635   9.591   3.922   4.967
13920TIP3   OH241636   9.788   3.807   5.799
13920TIP3    H141637   9.822   3.783   5.886
13920TIP3    H241638   9.721   3.736   5.787
13921TIP3   OH241639   9.551   2.690   5.399
13921TIP3    H141640   9.625   2.727   5.449
13921TIP3    H241641   9.574   2.715   5.309
13922TIP3   OH241642   9.737   3.377   5.920
13922TIP3    H141643   9.781   3.380   6.006
13922TIP3    H241644   9.690   3.293   5.927
13923TIP3   OH241645   9.522   3.148   4.615
13923TIP3    H141646   9.597   3.135   4.676
13923TIP3    H241647   9.448   3.122   4.673
13924TIP3   OH241648   9.677   3.982   5.573
13924TIP3    H141649   9.723   3.909   5.619
13924TIP3    H241650   9.710   4.059   5.621
13925TIP3   OH241651   9.518   3.743   4.919
13925TIP3    H141652   9.439   3.770   4.968
13925TIP3    H241653   9.500   3.785   4.831
13926TIP3   OH241654   9.673   4.275   5.990
13926TIP3    H141655   9.762   4.256   6.026
13926TIP3    H241656   9.639   4.184   5.986
13927TIP3   OH241657   9.378   3.489   4.555
13927TIP3    H141658   9.475   3.481   4.565
13927TIP3    H241659   9.361   3.405   4.507
13928TIP3   OH241660   9.291   4.095   4.980
13928TIP3    H141661   9.226   4.031   4.944
13928TIP3    H241662   9.339   4.039   5.044
13929TIP3   OH241663   9.422   3.945   5.171
13929TIP3    H141664   9.418   3.871   5.233
13929TIP3    H241665   9.480   4.007   5.220
13930TIP3   OH241666   9.643   3.355   5.540
13930TIP3    H141667   9.617   3.317   5.453
13930TIP3    H241668   9.734   3.384   5.522
13931TIP3   OH241669   9.822   3.029   6.190
13931TIP3    H141670   9.912   3.066   6.205
13931TIP3    H241671   9.821   2.956   6.255
13932TIP3   OH241672   9.602   3.026   5.598
13932TIP3    H141673   9.656   2.944   5.594
13932TIP3    H241674   9.672   3.093   5.607
13933TIP3   OH241675   9.545   2.558   5.105
13933TIP3    H141676   9.448   2.550   5.105
13933TIP3    H241677   9.563   2.584   5.013
13934TIP3   OH241678   9.835   4.022   6.043
13934TIP3    H141679   9.759   3.987   5.994
13934TIP3    H241680   9.815   3.990   6.134
13935TIP3   OH241681   9.689   4.298   5.580
13935TIP3    H141682   9.603   4.338   5.554
13935TIP3    H241683   9.706   4.348   5.662
13936TIP3   OH241684   9.940   4.288   5.448
13936TIP3    H141685   9.849   4.291   5.481
13936TIP3    H241686   9.929   4.320   5.356
13937TIP3   OH241687   9.610   4.096   5.320
13937TIP3    H141688   9.637   4.076   5.412
13937TIP3    H241689   9.689   4.063   5.272
13938TIP3   OH241690   9.818   3.989   5.166
13938TIP3    H141691   9.841   3.895   5.177
13938TIP3    H241692   9.907   4.030   5.178
13939TIP3   OH241693   9.397   3.870   4.713
13939TIP3    H141694   9.311   3.841   4.677
13939TIP3    H241695   9.389   3.965   4.702
13940TIP3   OH241696   9.492   3.912   4.365
13940TIP3    H141697   9.463   3.936   4.454
13940TIP3    H241698   9.552   3.838   4.382
13941TIP3   OH241699   1.235   3.971   7.068
13941TIP3    H141700   1.210   4.062   7.039
13941TIP3    H241701   1.165   3.921   7.023
13942TIP3   OH241702   1.266   3.949   7.419
13942TIP3    H141703   1.211   3.892   7.474
13942TIP3    H241704   1.214   3.953   7.337
13943TIP3   OH241705   0.535   3.868   7.813
13943TIP3    H141706   0.576   3.801   7.870
13943TIP3    H241707   0.608   3.929   7.797
13944TIP3   OH241708   1.487   4.271   7.120
13944TIP3    H141709   1.465   4.205   7.187
13944TIP3    H241710   1.510   4.349   7.173
13945TIP3   OH241711   0.177   3.476   7.316
13945TIP3    H141712   0.185   3.571   7.338
13945TIP3    H241713   0.163   3.437   7.403
13946TIP3   OH241714   0.281   3.752   7.462
13946TIP3    H141715   0.332   3.689   7.517
13946TIP3    H241716   0.349   3.819   7.440
13947TIP3   OH241717   1.136   4.739   7.136
13947TIP3    H141718   1.184   4.665   7.092
13947TIP3    H241719   1.111   4.699   7.221
13948TIP3   OH241720   1.052   4.167   7.520
13948TIP3    H141721   1.040   4.156   7.425
13948TIP3    H241722   1.135   4.219   7.525
13949TIP3   OH241723   2.050   3.517   7.484
13949TIP3    H141724   2.081   3.599   7.528
13949TIP3    H241725   2.077   3.533   7.392
13950TIP3   OH241726   1.445   3.696   7.542
13950TIP3    H141727   1.499   3.614   7.544
13950TIP3    H241728   1.421   3.699   7.448
13951TIP3   OH241729   0.793   3.357   7.487
13951TIP3    H141730   0.769   3.428   7.424
13951TIP3    H241731   0.744   3.282   7.446
13952TIP3   OH241732   1.481   3.453   7.111
13952TIP3    H141733   1.555   3.436   7.174
13952TIP3    H241734   1.531   3.484   7.034
13953TIP3   OH241735   0.422   3.554   7.593
13953TIP3    H141736   0.502   3.538   7.646
13953TIP3    H241737   0.442   3.502   7.513
13954TIP3   OH241738   0.868   3.752   7.378
13954TIP3    H141739   0.955   3.719   7.398
13954TIP3    H241740   0.820   3.671   7.348
13955TIP3   OH241741   2.126   3.722   7.656
13955TIP3    H141742   2.042   3.770   7.638
13955TIP3    H241743   2.142   3.748   7.748
13956TIP3   OH241744   0.784   3.338   7.923
13956TIP3    H141745   0.725   3.376   7.854
13956TIP3    H241746   0.731   3.358   8.003
13957TIP3   OH241747   1.136   4.190   6.929
13957TIP3    H141748   1.090   4.168   6.847
13957TIP3    H241749   1.094   4.276   6.951
13958TIP3   OH241750   0.886   4.102   7.729
13958TIP3    H141751   0.830   4.177   7.756
13958TIP3    H241752   0.941   4.143   7.658
13959TIP3   OH241753   1.691   3.452   7.281
13959TIP3    H141754   1.701   3.392   7.355
13959TIP3    H241755   1.751   3.525   7.306
13960TIP3   OH241756   0.657   3.453   7.707
13960TIP3    H141757   0.718   3.528   7.726
13960TIP3    H241758   0.703   3.412   7.631
13961TIP3   OH241759   0.725   4.309   7.817
13961TIP3    H141760   0.699   4.390   7.769
13961TIP3    H241761   0.646   4.297   7.872
13962TIP3   OH241762   0.159   4.013   7.000
13962TIP3    H141763   0.077   4.050   6.962
13962TIP3    H241764   0.174   4.075   7.075
13963TIP3   OH241765   1.558   4.515   7.291
13963TIP3    H141766   1.468   4.506   7.331
13963TIP3    H241767   1.548   4.600   7.243
13964TIP3   OH241768   1.846   3.419   7.652
13964TIP3    H141769   1.759   3.448   7.619
13964TIP3    H241770   1.906   3.448   7.581
13965TIP3   OH241771   1.141   3.061   7.633
13965TIP3    H141772   1.132   2.965   7.651
13965TIP3    H241773   1.063   3.095   7.681
13966TIP3   OH241774   1.266   4.564   6.974
13966TIP3    H141775   1.310   4.481   6.945
13966TIP3    H241776   1.321   4.629   6.926
13967TIP3   OH241777   1.399   4.348   6.868
13967TIP3    H141778   1.361   4.269   6.827
13967TIP3    H241779   1.435   4.311   6.951
13968TIP3   OH241780   1.780   4.431   7.633
13968TIP3    H141781   1.769   4.353   7.573
13968TIP3    H241782   1.762   4.505   7.572
13969TIP3   OH241783   1.075   3.825   6.892
13969TIP3    H141784   0.992   3.874   6.874
13969TIP3    H241785   1.115   3.821   6.804
13970TIP3   OH241786   1.031   3.606   6.609
13970TIP3    H141787   1.100   3.657   6.654
13970TIP3    H241788   1.087   3.542   6.559
13971TIP3   OH241789   1.975   4.065   7.478
13971TIP3    H141790   1.893   4.118   7.482
13971TIP3    H241791   2.006   4.087   7.387
13972TIP3   OH241792   1.416   3.906   6.864
13972TIP3    H141793   1.363   3.931   6.943
13972TIP3    H241794   1.500   3.879   6.907
13973TIP3   OH241795   1.658   3.948   7.775
13973TIP3    H141796   1.655   4.024   7.837
13973TIP3    H241797   1.604   3.983   7.702
13974TIP3   OH241798   0.655   3.891   7.264
13974TIP3    H141799   0.613   3.830   7.200
13974TIP3    H241800   0.732   3.841   7.297
13975TIP3   OH241801   0.797   3.867   7.632
13975TIP3    H141802   0.816   3.864   7.536
13975TIP3    H241803   0.831   3.956   7.657
13976TIP3   OH241804   1.318   4.512   7.410
13976TIP3    H141805   1.297   4.593   7.461
13976TIP3    H241806   1.299   4.440   7.474
13977TIP3   OH241807   0.928   4.428   7.958
13977TIP3    H141808   0.868   4.493   8.001
13977TIP3    H241809   0.863   4.376   7.907
13978TIP3   OH241810   1.261   3.761   6.687
13978TIP3    H141811   1.319   3.821   6.739
13978TIP3    H241812   1.286   3.785   6.595
13979TIP3   OH241813   0.694   3.982   8.065
13979TIP3    H141814   0.695   4.075   8.097
13979TIP3    H241815   0.597   3.965   8.069
13980TIP3   OH241816   1.011   4.438   6.953
13980TIP3    H141817   1.076   4.502   6.985
13980TIP3    H241818   0.935   4.493   6.931
13981TIP3   OH241819   0.726   4.597   8.041
13981TIP3    H141820   0.689   4.594   7.951
13981TIP3    H241821   0.652   4.561   8.096
13982TIP3   OH241822   1.776   3.004   6.737
13982TIP3    H141823   1.694   3.024   6.787
13982TIP3    H241824   1.788   3.087   6.685
13983TIP3   OH241825   0.527   3.730   7.072
13983TIP3    H141826   0.466   3.784   7.018
13983TIP3    H241827   0.469   3.659   7.101
13984TIP3   OH241828   1.573   4.370   6.290
13984TIP3    H141829   1.579   4.465   6.266
13984TIP3    H241830   1.664   4.340   6.272
13985TIP3   OH241831   0.301   4.141   7.985
13985TIP3    H141832   0.255   4.102   7.909
13985TIP3    H241833   0.333   4.061   8.029
13986TIP3   OH241834   2.016   4.773   7.676
13986TIP3    H141835   2.016   4.677   7.690
13986TIP3    H241836   1.933   4.798   7.723
13987TIP3   OH241837   1.127   4.557   7.815
13987TIP3    H141838   1.124   4.650   7.846
13987TIP3    H241839   1.054   4.518   7.868
13988TIP3   OH241840   0.887   4.694   6.761
13988TIP3    H141841   0.835   4.671   6.682
13988TIP3    H241842   0.849   4.780   6.789
13989TIP3   OH241843   0.357   4.539   7.123
13989TIP3    H141844   0.389   4.505   7.210
13989TIP3    H241845   0.283   4.481   7.100
13990TIP3   OH241846   1.085   4.592   6.407
13990TIP3    H141847   1.141   4.520   6.370
13990TIP3    H241848   1.119   4.599   6.498
13991TIP3   OH241849   1.138   4.638   6.676
13991TIP3    H141850   1.048   4.649   6.716
13991TIP3    H241851   1.183   4.590   6.747
13992TIP3   OH241852   1.909   3.904   7.956
13992TIP3    H141853   1.830   3.917   7.903
13992TIP3    H241854   1.926   3.808   7.944
13993TIP3   OH241855   0.507   4.317   7.977
13993TIP3    H141856   0.553   4.312   8.063
13993TIP3    H241857   0.437   4.250   7.987
13994TIP3   OH241858   0.904   3.139   7.764
13994TIP3    H141859   0.816   3.103   7.736
13994TIP3    H241860   0.873   3.217   7.812
13995TIP3   OH241861   1.435   3.258   7.954
13995TIP3    H141862   1.506   3.228   8.015
13995TIP3    H241863   1.353   3.232   8.002
13996TIP3   OH241864   1.667   3.678   7.869
13996TIP3    H141865   1.628   3.673   7.959
13996TIP3    H241866   1.653   3.771   7.844
13997TIP3   OH241867   1.337   3.809   6.432
13997TIP3    H141868   1.302   3.784   6.344
13997TIP3    H241869   1.416   3.860   6.406
13998TIP3   OH241870   1.049   3.184   6.733
13998TIP3    H141871   1.015   3.182   6.825
13998TIP3    H241872   1.010   3.101   6.700
13999TIP3   OH241873   0.841   3.645   7.781
13999TIP3    H141874   0.786   3.665   7.860
13999TIP3    H241875   0.824   3.724   7.725
14000TIP3   OH241876   0.721   3.534   7.296
14000TIP3    H141877   0.626   3.517   7.310
14000TIP3    H241878   0.732   3.496   7.206
14001TIP3   OH241879   1.210   3.625   7.025
14001TIP3    H141880   1.157   3.695   6.982
14001TIP3    H241881   1.264   3.593   6.951
14002TIP3   OH241882   1.382   3.909   8.108
14002TIP3    H141883   1.358   3.828   8.159
14002TIP3    H241884   1.476   3.917   8.132
14003TIP3   OH241885   1.363   3.655   7.268
14003TIP3    H141886   1.309   3.683   7.190
14003TIP3    H241887   1.399   3.573   7.229
14004TIP3   OH241888   0.670   3.683   7.993
14004TIP3    H141889   0.655   3.751   8.060
14004TIP3    H241890   0.647   3.601   8.040
14005TIP3   OH241891   0.704   3.158   6.701
14005TIP3    H141892   0.694   3.155   6.798
14005TIP3    H241893   0.626   3.209   6.675
14006TIP3   OH241894   0.238   3.218   7.542
14006TIP3    H141895   0.299   3.242   7.616
14006TIP3    H241896   0.288   3.147   7.500
14007TIP3   OH241897   0.236   3.212   7.108
14007TIP3    H141898   0.267   3.229   7.017
14007TIP3    H241899   0.187   3.293   7.124
14008TIP3   OH241900   1.051   3.382   7.367
14008TIP3    H141901   0.966   3.360   7.410
14008TIP3    H241902   1.116   3.336   7.424
14009TIP3   OH241903   0.476   3.414   7.358
14009TIP3    H141904   0.386   3.408   7.323
14009TIP3    H241905   0.511   3.324   7.344
14010TIP3   OH241906   0.750   3.411   7.053
14010TIP3    H141907   0.843   3.428   7.028
14010TIP3    H241908   0.700   3.435   6.971
14011TIP3   OH241909   1.541   3.440   7.562
14011TIP3    H141910   1.501   3.441   7.651
14011TIP3    H241911   1.487   3.373   7.516
14012TIP3   OH241912   0.592   3.440   6.831
14012TIP3    H141913   0.522   3.397   6.779
14012TIP3    H241914   0.645   3.480   6.758
14013TIP3   OH241915   1.708   5.123   7.778
14013TIP3    H141916   1.705   5.147   7.683
14013TIP3    H241917   1.785   5.174   7.809
14014TIP3   OH241918   0.673   4.228   8.197
14014TIP3    H141919   0.750   4.265   8.243
14014TIP3    H241920   0.604   4.241   8.265
14015TIP3   OH241921   1.159   3.679   7.498
14015TIP3    H141922   1.204   3.675   7.411
14015TIP3    H241923   1.119   3.591   7.502
14016TIP3   OH241924   0.654   3.176   7.335
14016TIP3    H141925   0.619   3.096   7.378
14016TIP3    H241926   0.698   3.140   7.257
14017TIP3   OH241927   0.844   3.974   6.846
14017TIP3    H141928   0.769   3.912   6.832
14017TIP3    H241929   0.821   4.012   6.934
14018TIP3   OH241930   1.743   4.212   7.470
14018TIP3    H141931   1.769   4.261   7.389
14018TIP3    H241932   1.658   4.170   7.443
14019TIP3   OH241933   1.301   3.286   6.706
14019TIP3    H141934   1.204   3.270   6.710
14019TIP3    H241935   1.310   3.382   6.724
14020TIP3   OH241936   1.252   4.294   7.838
14020TIP3    H141937   1.261   4.276   7.932
14020TIP3    H241938   1.203   4.378   7.837
14021TIP3   OH241939   1.369   3.535   6.808
14021TIP3    H141940   1.466   3.542   6.818
14021TIP3    H241941   1.349   3.613   6.751
14022TIP3   OH241942   0.501   3.942   7.509
14022TIP3    H141943   0.542   3.996   7.439
14022TIP3    H241944   0.578   3.920   7.563
14023TIP3   OH241945   0.987   4.123   6.662
14023TIP3    H141946   0.941   4.210   6.667
14023TIP3    H241947   0.932   4.069   6.722
14024TIP3   OH241948   0.439   3.915   8.130
14024TIP3    H141949   0.446   3.909   8.226
14024TIP3    H241950   0.348   3.881   8.112
14025TIP3   OH241951   1.135   4.030   8.152
14025TIP3    H141952   1.073   3.969   8.108
14025TIP3    H241953   1.222   3.995   8.123
14026TIP3   OH241954   1.405   4.549   7.734
14026TIP3    H141955   1.308   4.549   7.745
14026TIP3    H241956   1.431   4.603   7.812
14027TIP3   OH241957   1.814   3.625   6.640
14027TIP3    H141958   1.751   3.579   6.579
14027TIP3    H241959   1.809   3.714   6.599
14028TIP3   OH241960   2.030   4.483   7.721
14028TIP3    H141961   1.932   4.477   7.713
14028TIP3    H241962   2.056   4.453   7.631
14029TIP3   OH241963   1.518   4.444   6.552
14029TIP3    H141964   1.486   4.372   6.607
14029TIP3    H241965   1.528   4.402   6.464
14030TIP3   OH241966   1.516   4.068   7.399
14030TIP3    H141967   1.422   4.041   7.408
14030TIP3    H241968   1.549   3.993   7.347
14031TIP3   OH241969   0.200   3.608   6.848
14031TIP3    H141970   0.267   3.679   6.856
14031TIP3    H241971   0.131   3.648   6.904
14032TIP3   OH241972   0.768   4.075   7.089
14032TIP3    H141973   0.751   4.161   7.132
14032TIP3    H241974   0.726   4.020   7.159
14033TIP3   OH241975   0.905   4.643   7.609
14033TIP3    H141976   0.942   4.717   7.556
14033TIP3    H241977   0.984   4.612   7.656
14034TIP3   OH241978   0.572   4.559   6.958
14034TIP3    H141979   0.501   4.545   7.024
14034TIP3    H241980   0.596   4.651   6.977
14035TIP3   OH241981   1.301   4.281   7.567
14035TIP3    H141982   1.289   4.281   7.665
14035TIP3    H241983   1.387   4.238   7.558
14036TIP3   OH241984   1.265   4.169   6.452
14036TIP3    H141985   1.318   4.145   6.531
14036TIP3    H241986   1.176   4.145   6.482
14037TIP3   OH241987   1.542   4.813   7.617
14037TIP3    H141988   1.462   4.757   7.609
14037TIP3    H241989   1.527   4.878   7.546
14038TIP3   OH241990   1.606   4.647   6.272
14038TIP3    H141991   1.635   4.712   6.206
14038TIP3    H241992   1.527   4.693   6.306
14039TIP3   OH241993   0.636   3.418   8.144
14039TIP3    H141994   0.543   3.428   8.168
14039TIP3    H241995   0.667   3.355   8.212
14040TIP3   OH241996   1.426   4.107   6.669
14040TIP3    H141997   1.418   4.039   6.739
14040TIP3    H241998   1.523   4.105   6.654
14041TIP3   OH241999   0.366   4.525   7.766
14041TIP3    H142000   0.402   4.436   7.778
14041TIP3    H242001   0.391   4.566   7.850
14042TIP3   OH242002   0.633   4.152   6.450
14042TIP3    H142003   0.648   4.060   6.421
14042TIP3    H242004   0.617   4.141   6.545
14043TIP3   OH242005   0.582   4.155   6.723
14043TIP3    H142006   0.646   4.132   6.792
14043TIP3    H242007   0.584   4.254   6.727
14044TIP3   OH242008   0.338   3.839   6.905
14044TIP3    H142009   0.271   3.891   6.955
14044TIP3    H242010   0.359   3.906   6.838
14045TIP3   OH242011   1.439   3.502   7.814
14045TIP3    H142012   1.521   3.539   7.850
14045TIP3    H242013   1.432   3.419   7.866
14046TIP3   OH242014   1.340   3.240   6.983
14046TIP3    H142015   1.327   3.261   6.888
14046TIP3    H242016   1.381   3.323   7.016
14047TIP3   OH242017   0.846   4.354   6.670
14047TIP3    H142018   0.758   4.379   6.705
14047TIP3    H242019   0.861   4.429   6.609
14048TIP3   OH242020   1.036   3.417   7.086
14048TIP3    H142021   1.099   3.488   7.064
14048TIP3    H242022   1.039   3.418   7.184
14049TIP3   OH242023   1.178   3.147   7.187
14049TIP3    H142024   1.176   3.227   7.242
14049TIP3    H242025   1.238   3.178   7.115
14050TIP3   OH242026   0.585   4.426   6.726
14050TIP3    H142027   0.556   4.499   6.668
14050TIP3    H242028   0.580   4.470   6.814
14051TIP3   OH242029   0.688   3.142   6.979
14051TIP3    H142030   0.686   3.234   7.011
14051TIP3    H242031   0.785   3.125   6.985
14052TIP3   OH242032   1.939   3.639   7.872
14052TIP3    H142033   1.841   3.633   7.877
14052TIP3    H242034   1.954   3.593   7.788
14053TIP3   OH242035   1.592   3.831   7.264
14053TIP3    H142036   1.518   3.769   7.271
14053TIP3    H242037   1.665   3.783   7.309
14054TIP3   OH242038   0.316   4.069   6.724
14054TIP3    H142039   0.391   4.130   6.739
14054TIP3    H242040   0.357   4.012   6.656
14055TIP3   OH242041   0.247   3.334   6.865
14055TIP3    H142042   0.246   3.432   6.866
14055TIP3    H242043   0.179   3.314   6.800
14056TIP3   OH242044   1.563   4.789   7.211
14056TIP3    H142045   1.515   4.834   7.139
14056TIP3    H242046   1.655   4.813   7.186
14057TIP3   OH242047   0.644   3.051   7.739
14057TIP3    H142048   0.608   3.021   7.652
14057TIP3    H242049   0.626   2.973   7.796
14058TIP3   OH242050   0.184   4.240   7.155
14058TIP3    H142051   0.128   4.306   7.109
14058TIP3    H242052   0.268   4.251   7.108
14059TIP3   OH242053   0.806   4.783   8.236
14059TIP3    H142054   0.902   4.781   8.242
14059TIP3    H242055   0.789   4.721   8.162
14060TIP3   OH242056   0.796   4.356   6.362
14060TIP3    H142057   0.741   4.285   6.402
14060TIP3    H242058   0.872   4.304   6.330
14061TIP3   OH242059   1.458   4.686   7.966
14061TIP3    H142060   1.448   4.617   8.035
14061TIP3    H242061   1.533   4.738   8.000
14062TIP3   OH242062   1.229   4.399   6.282
14062TIP3    H142063   1.281   4.334   6.332
14062TIP3    H242064   1.276   4.400   6.195
14063TIP3   OH242065   0.481   4.208   8.396
14063TIP3    H142066   0.516   4.117   8.394
14063TIP3    H242067   0.387   4.188   8.378
14064TIP3   OH242068   0.445   3.873   6.584
14064TIP3    H142069   0.502   3.840   6.657
14064TIP3    H242070   0.511   3.877   6.512
14065TIP3   OH242071   1.075   4.308   8.163
14065TIP3    H142072   1.029   4.326   8.078
14065TIP3    H242073   1.102   4.214   8.154
14066TIP3   OH242074   0.950   4.071   6.391
14066TIP3    H142075   0.952   4.084   6.488
14066TIP3    H242076   0.950   3.973   6.387
14067TIP3   OH242077   1.565   4.310   7.764
14067TIP3    H142078   1.637   4.361   7.722
14067TIP3    H242079   1.492   4.375   7.759
14068TIP3   OH242080   0.570   3.939   8.389
14068TIP3    H142081   0.651   3.899   8.355
14068TIP3    H242082   0.600   3.976   8.474
14069TIP3   OH242083   0.649   3.777   6.804
14069TIP3    H142084   0.621   3.739   6.889
14069TIP3    H242085   0.684   3.700   6.756
14070TIP3   OH242086   0.937   3.862   8.023
14070TIP3    H142087   0.855   3.907   8.054
14070TIP3    H242088   0.923   3.871   7.928
14071TIP3   OH242089   0.751   3.568   6.648
14071TIP3    H142090   0.723   3.572   6.554
14071TIP3    H242091   0.848   3.576   6.638
14072TIP3   OH242092   1.434   4.243   8.169
14072TIP3    H142093   1.517   4.221   8.124
14072TIP3    H242094   1.429   4.174   8.237
14073TIP3   OH242095   1.576   3.899   6.308
14073TIP3    H142096   1.551   3.853   6.225
14073TIP3    H242097   1.543   3.989   6.285
14074TIP3   OH242098   1.039   3.634   8.159
14074TIP3    H142099   1.037   3.551   8.106
14074TIP3    H242100   0.998   3.698   8.098
14075TIP3   OH242101   1.038   3.418   7.964
14075TIP3    H142102   1.047   3.456   7.877
14075TIP3    H242103   0.945   3.388   7.961
14076TIP3   OH242104   1.656   3.919   8.223
14076TIP3    H142105   1.701   3.833   8.230
14076TIP3    H242106   1.726   3.976   8.190
14077TIP3   OH242107   1.695   4.167   7.953
14077TIP3    H142108   1.637   4.223   7.896
14077TIP3    H242109   1.783   4.191   7.915
14078TIP3   OH242110   0.918   3.743   8.389
14078TIP3    H142111   0.849   3.674   8.403
14078TIP3    H242112   0.955   3.714   8.303
14079TIP3   OH242113   1.176   3.182   8.033
14079TIP3    H142114   1.126   3.263   8.011
14079TIP3    H242115   1.108   3.113   8.022
14080TIP3   OH242116   1.303   3.685   8.247
14080TIP3    H142117   1.295   3.677   8.344
14080TIP3    H242118   1.212   3.661   8.221
14081TIP3   OH242119   1.547   3.636   8.106
14081TIP3    H142120   1.468   3.636   8.163
14081TIP3    H242121   1.617   3.602   8.166
14082TIP3   OH242122   1.774   3.574   8.259
14082TIP3    H142123   1.786   3.478   8.276
14082TIP3    H242124   1.769   3.611   8.349
14083TIP3   OH242125   0.755   3.527   8.437
14083TIP3    H142126   0.763   3.436   8.403
14083TIP3    H242127   0.798   3.515   8.525
14084TIP3   OH242128   1.270   3.189   8.292
14084TIP3    H142129   1.339   3.120   8.286
14084TIP3    H242130   1.231   3.183   8.203
14085TIP3   OH242131   1.337   3.407   8.446
14085TIP3    H142132   1.313   3.334   8.383
14085TIP3    H242133   1.258   3.465   8.441
14086TIP3   OH242134   0.556   4.636   6.548
14086TIP3    H142135   0.652   4.628   6.532
14086TIP3    H242136   0.530   4.684   6.467
14087TIP3   OH242137   0.048   4.033   6.704
14087TIP3    H142138   0.142   4.044   6.732
14087TIP3    H242139   0.042   3.935   6.697
14088TIP3   OH242140   1.813   4.896   7.162
14088TIP3    H142141   1.844   4.901   7.255
14088TIP3    H242142   1.894   4.904   7.110
14089TIP3   OH242143   1.857   4.895   7.439
14089TIP3    H142144   1.804   4.812   7.441
14089TIP3    H242145   1.922   4.873   7.508
14090TIP3   OH242146   1.891   4.575   8.022
14090TIP3    H142147   1.818   4.583   8.086
14090TIP3    H242148   1.932   4.664   8.027
14091TIP3   OH242149   1.706   4.087   6.643
14091TIP3    H142150   1.773   4.151   6.613
14091TIP3    H242151   1.751   4.048   6.721
14092TIP3   OH242152   1.835   3.956   6.846
14092TIP3    H142153   1.769   3.913   6.905
14092TIP3    H242154   1.899   3.994   6.910
14093TIP3   OH242155   1.889   4.347   7.280
14093TIP3    H142156   1.942   4.282   7.229
14093TIP3    H242157   1.875   4.417   7.214
14094TIP3   OH242158   1.721   4.651   7.473
14094TIP3    H142159   1.650   4.692   7.525
14094TIP3    H242160   1.670   4.602   7.404
14095TIP3   OH242161   1.773   3.863   6.493
14095TIP3    H142162   1.702   3.865   6.425
14095TIP3    H242163   1.745   3.940   6.547
14096TIP3   OH242164   1.644   3.537   6.448
14096TIP3    H142165   1.601   3.576   6.371
14096TIP3    H242166   1.619   3.442   6.438
14097TIP3   OH242167   1.648   3.812   6.992
14097TIP3    H142168   1.656   3.715   6.985
14097TIP3    H242169   1.636   3.825   7.089
14098TIP3   OH242170   0.275   3.920   7.719
14098TIP3    H142171   0.280   3.881   7.630
14098TIP3    H242172   0.367   3.906   7.749
14099TIP3   OH242173   1.938   4.236   7.848
14099TIP3    H142174   2.011   4.171   7.840
14099TIP3    H242175   1.966   4.307   7.788
14100TIP3   OH242176   2.123   4.043   7.867
14100TIP3    H142177   2.049   3.992   7.907
14100TIP3    H242178   2.196   3.979   7.881
14101TIP3   OH242179   1.587   3.271   6.435
14101TIP3    H142180   1.662   3.238   6.489
14101TIP3    H242181   1.514   3.211   6.458
14102TIP3   OH242182   1.646   3.529   6.889
14102TIP3    H142183   1.686   3.440   6.904
14102TIP3    H242184   1.703   3.561   6.817
14103TIP3   OH242185   1.807   3.705   7.382
14103TIP3    H142186   1.892   3.730   7.340
14103TIP3    H242187   1.823   3.739   7.472
14104TIP3   OH242188   1.877   3.846   7.615
14104TIP3    H142189   1.802   3.881   7.666
14104TIP3    H242190   1.910   3.926   7.569
14105TIP3   OH242191   0.482   3.547   8.423
14105TIP3    H142192   0.575   3.569   8.404
14105TIP3    H242193   0.494   3.479   8.490
14106TIP3   OH242194   2.326   3.436   8.171
14106TIP3    H142195   2.384   3.369   8.129
14106TIP3    H242196   2.300   3.492   8.094
14107TIP3   OH242197   1.752   3.278   6.927
14107TIP3    H142198   1.802   3.260   7.009
14107TIP3    H242199   1.693   3.200   6.923
14108TIP3   OH242200   0.450   3.252   7.727
14108TIP3    H142201   0.519   3.186   7.745
14108TIP3    H242202   0.499   3.335   7.738
14109TIP3   OH242203   0.288   3.551   7.840
14109TIP3    H142204   0.316   3.538   7.748
14109TIP3    H242205   0.257   3.642   7.839
14110TIP3   OH242206   2.198   3.578   7.975
14110TIP3    H142207   2.110   3.615   7.996
14110TIP3    H242208   2.172   3.503   7.917
14111TIP3   OH242209   1.835   3.212   6.558
14111TIP3    H142210   1.874   3.140   6.505
14111TIP3    H242211   1.902   3.283   6.549
14112TIP3   OH242212   0.235   3.026   7.301
14112TIP3    H142213   0.153   3.057   7.341
14112TIP3    H242214   0.247   3.093   7.229
14113TIP3   OH242215   1.404   4.743   6.826
14113TIP3    H142216   1.449   4.725   6.741
14113TIP3    H242217   1.457   4.816   6.861
14114TIP3   OH242218   0.458   3.129   8.148
14114TIP3    H142219   0.393   3.118   8.219
14114TIP3    H242220   0.403   3.164   8.077
14115TIP3   OH242221   0.530   4.511   8.216
14115TIP3    H142222   0.448   4.563   8.203
14115TIP3    H242223   0.533   4.506   8.313
14116TIP3   OH242224   0.682   4.581   7.760
14116TIP3    H142225   0.631   4.653   7.719
14116TIP3    H242226   0.766   4.594   7.712
14117TIP3   OH242227   1.123   4.824   7.895
14117TIP3    H142228   1.164   4.826   7.984
14117TIP3    H242229   1.188   4.876   7.843
14118TIP3   OH242230   1.302   4.977   7.754
14118TIP3    H142231   1.373   4.925   7.715
14118TIP3    H242232   1.353   5.035   7.815
14119TIP3   OH242233   2.096   3.338   7.855
14119TIP3    H142234   2.005   3.327   7.822
14119TIP3    H242235   2.131   3.246   7.843
14120TIP3   OH242236   0.584   4.820   7.646
14120TIP3    H142237   0.501   4.827   7.696
14120TIP3    H242238   0.554   4.852   7.558
14121TIP3   OH242239   1.021   4.842   7.439
14121TIP3    H142240   0.956   4.851   7.366
14121TIP3    H242241   1.024   4.934   7.473
14122TIP3   OH242242   1.286   4.787   7.489
14122TIP3    H142243   1.190   4.798   7.473
14122TIP3    H242244   1.321   4.864   7.443
14123TIP3   OH242245   1.503   4.984   7.401
14123TIP3    H142246   1.481   5.064   7.350
14123TIP3    H242247   1.521   4.918   7.330
14124TIP3   OH242248   0.304   4.651   7.521
14124TIP3    H142249   0.332   4.612   7.606
14124TIP3    H242250   0.363   4.597   7.462
14125TIP3   OH242251   0.463   4.496   7.372
14125TIP3    H142252   0.500   4.404   7.364
14125TIP3    H242253   0.548   4.543   7.371
14126TIP3   OH242254   0.721   4.604   7.381
14126TIP3    H142255   0.738   4.515   7.345
14126TIP3    H242256   0.774   4.603   7.463
14127TIP3   OH242257   1.290   3.253   7.473
14127TIP3    H142258   1.256   3.179   7.527
14127TIP3    H242259   1.366   3.211   7.427
14128TIP3   OH242260   1.823   3.144   7.383
14128TIP3    H142261   1.861   3.188   7.304
14128TIP3    H242262   1.727   3.153   7.368
14129TIP3   OH242263   1.919   3.236   7.144
14129TIP3    H142264   1.991   3.182   7.104
14129TIP3    H242265   1.954   3.326   7.127
14130TIP3   OH242266   0.550   2.963   7.490
14130TIP3    H142267   0.458   2.928   7.488
14130TIP3    H242268   0.600   2.880   7.486
14131TIP3   OH242269   0.353   2.827   7.147
14131TIP3    H142270   0.367   2.882   7.068
14131TIP3    H242271   0.312   2.892   7.208
14132TIP3   OH242272   0.992   2.998   7.370
14132TIP3    H142273   1.054   3.041   7.309
14132TIP3    H242274   1.021   3.031   7.456
14133TIP3   OH242275   1.536   3.144   7.356
14133TIP3    H142276   1.541   3.105   7.267
14133TIP3    H242277   1.526   3.063   7.411
14134TIP3   OH242278   1.571   3.064   6.917
14134TIP3    H142279   1.483   3.104   6.925
14134TIP3    H242280   1.557   2.979   6.963
14135TIP3   OH242281   0.454   2.993   6.899
14135TIP3    H142282   0.503   2.930   6.843
14135TIP3    H242283   0.527   3.046   6.937
14136TIP3   OH242284   0.965   3.167   6.999
14136TIP3    H142285   1.026   3.120   7.058
14136TIP3    H242286   0.987   3.260   7.024
14137TIP3   OH242287   0.824   4.592   6.498
14137TIP3    H142288   0.912   4.615   6.463
14137TIP3    H242289   0.803   4.516   6.439
14138TIP3   OH242290   1.546   4.711   6.592
14138TIP3    H142291   1.538   4.613   6.579
14138TIP3    H242292   1.500   4.743   6.512
14139TIP3   OH242293   0.757   3.248   8.379
14139TIP3    H142294   0.723   3.174   8.434
14139TIP3    H242295   0.850   3.247   8.408
14140TIP3   OH242296   1.008   3.236   8.498
14140TIP3    H142297   1.093   3.212   8.458
14140TIP3    H242298   0.995   3.163   8.562
14141TIP3   OH242299   0.146   4.434   6.598
14141TIP3    H142300   0.169   4.526   6.620
14141TIP3    H242301   0.230   4.396   6.564
14142TIP3   OH242302   1.832   3.303   8.288
14142TIP3    H142303   1.853   3.270   8.377
14142TIP3    H242304   1.919   3.298   8.244
14143TIP3   OH242305   1.772   4.855   7.778
14143TIP3    H142306   1.691   4.822   7.732
14143TIP3    H242307   1.750   4.950   7.783
14144TIP3   OH242308   3.038   4.227   6.547
14144TIP3    H142309   3.009   4.319   6.526
14144TIP3    H242310   2.961   4.177   6.513
14145TIP3   OH242311   3.035   4.228   6.928
14145TIP3    H142312   3.067   4.197   7.015
14145TIP3    H242313   2.995   4.147   6.892
14146TIP3   OH242314   2.335   4.123   7.294
14146TIP3    H142315   2.367   4.056   7.357
14146TIP3    H242316   2.416   4.175   7.281
14147TIP3   OH242317   3.279   4.530   6.608
14147TIP3    H142318   3.266   4.459   6.673
14147TIP3    H242319   3.308   4.604   6.663
14148TIP3   OH242320   2.306   4.533   7.020
14148TIP3    H142321   2.297   4.435   7.020
14148TIP3    H242322   2.403   4.541   7.012
14149TIP3   OH242323   2.013   3.737   6.803
14149TIP3    H142324   1.962   3.819   6.816
14149TIP3    H242325   1.945   3.681   6.763
14150TIP3   OH242326   2.074   4.024   6.976
14150TIP3    H142327   2.123   3.946   7.012
14150TIP3    H242328   2.129   4.048   6.900
14151TIP3   OH242329   2.928   4.991   6.625
14151TIP3    H142330   2.975   4.920   6.575
14151TIP3    H242331   2.924   4.952   6.713
14152TIP3   OH242332   2.835   4.453   6.976
14152TIP3    H142333   2.872   4.376   6.930
14152TIP3    H242334   2.918   4.498   6.999
14153TIP3   OH242335   3.848   3.773   6.972
14153TIP3    H142336   3.876   3.856   7.015
14153TIP3    H242337   3.871   3.791   6.879
14154TIP3   OH242338   3.248   3.955   7.008
14154TIP3    H142339   3.290   3.869   7.028
14154TIP3    H242340   3.216   3.940   6.917
14155TIP3   OH242341   2.585   3.614   6.973
14155TIP3    H142342   2.564   3.686   6.910
14155TIP3    H242343   2.538   3.540   6.929
14156TIP3   OH242344   3.279   3.706   6.596
14156TIP3    H142345   3.352   3.689   6.660
14156TIP3    H242346   3.330   3.740   6.520
14157TIP3   OH242347   2.219   3.815   7.081
14157TIP3    H142348   2.302   3.794   7.127
14157TIP3    H242349   2.230   3.760   7.001
14158TIP3   OH242350   2.659   4.014   6.874
14158TIP3    H142351   2.753   3.988   6.887
14158TIP3    H242352   2.620   3.930   6.842
14159TIP3   OH242353   3.921   3.980   7.142
14159TIP3    H142354   3.837   4.027   7.124
14159TIP3    H242355   3.935   4.004   7.235
14160TIP3   OH242356   2.582   3.597   7.407
14160TIP3    H142357   2.522   3.633   7.339
14160TIP3    H242358   2.530   3.615   7.488
14161TIP3   OH242359   2.928   4.448   6.417
14161TIP3    H142360   2.889   4.427   6.332
14161TIP3    H242361   2.884   4.532   6.439
14162TIP3   OH242362   2.688   4.372   7.202
14162TIP3    H142363   2.625   4.438   7.239
14162TIP3    H242364   2.731   4.423   7.130
14163TIP3   OH242365   3.489   3.707   6.767
14163TIP3    H142366   3.481   3.657   6.849
14163TIP3    H242367   3.544   3.783   6.794
14164TIP3   OH242368   2.452   3.712   7.191
14164TIP3    H142369   2.515   3.784   7.214
14164TIP3    H242370   2.501   3.670   7.117
14165TIP3   OH242371   2.516   4.566   7.301
14165TIP3    H142372   2.490   4.651   7.261
14165TIP3    H242373   2.437   4.550   7.358
14166TIP3   OH242374   1.911   4.252   6.539
14166TIP3    H142375   1.870   4.269   6.452
14166TIP3    H242376   1.936   4.342   6.569
14167TIP3   OH242377   3.351   4.772   6.778
14167TIP3    H142378   3.260   4.763   6.816
14167TIP3    H242379   3.343   4.858   6.731
14168TIP3   OH242380   3.641   3.674   7.139
14168TIP3    H142381   3.553   3.703   7.109
14168TIP3    H242382   3.700   3.705   7.066
14169TIP3   OH242383   2.938   3.316   7.121
14169TIP3    H142384   2.927   3.221   7.139
14169TIP3    H242385   2.860   3.353   7.168
14170TIP3   OH242386   3.051   4.819   6.450
14170TIP3    H142387   3.101   4.737   6.429
14170TIP3    H242388   3.112   4.885   6.408
14171TIP3   OH242389   3.194   4.604   6.355
14171TIP3    H142390   3.160   4.523   6.314
14171TIP3    H242391   3.230   4.570   6.439
14172TIP3   OH242392   3.577   4.686   7.120
14172TIP3    H142393   3.566   4.608   7.061
14172TIP3    H242394   3.560   4.760   7.058
14173TIP3   OH242395   2.867   4.080   6.377
14173TIP3    H142396   2.787   4.130   6.353
14173TIP3    H242397   2.915   4.076   6.292
14174TIP3   OH242398   2.826   3.866   6.092
14174TIP3    H142399   2.895   3.913   6.142
14174TIP3    H242400   2.882   3.800   6.045
14175TIP3   OH242401   3.772   4.323   6.965
14175TIP3    H142402   3.689   4.374   6.969
14175TIP3    H242403   3.801   4.345   6.874
14176TIP3   OH242404   3.215   4.161   6.349
14176TIP3    H142405   3.161   4.186   6.428
14176TIP3    H242406   3.298   4.134   6.393
14177TIP3   OH242407   3.451   4.201   7.260
14177TIP3    H142408   3.447   4.285   7.309
14177TIP3    H242409   3.364   4.204   7.214
14178TIP3   OH242410   2.448   4.160   6.765
14178TIP3    H142411   2.405   4.102   6.698
14178TIP3    H242412   2.524   4.106   6.794
14179TIP3   OH242413   2.576   4.570   6.914
14179TIP3    H142414   2.556   4.528   6.829
14179TIP3    H242415   2.666   4.537   6.932
14180TIP3   OH242416   2.583   4.130   7.120
14180TIP3    H142417   2.616   4.108   7.031
14180TIP3    H242418   2.627   4.216   7.139
14181TIP3   OH242419   3.108   4.769   6.896
14181TIP3    H142420   3.095   4.847   6.952
14181TIP3    H242421   3.095   4.694   6.959
14182TIP3   OH242422   2.721   4.687   7.443
14182TIP3    H142423   2.662   4.750   7.490
14182TIP3    H242424   2.655   4.634   7.395
14183TIP3   OH242425   3.055   4.020   6.177
14183TIP3    H142426   3.115   4.078   6.228
14183TIP3    H242427   3.080   4.044   6.084
14184TIP3   OH242428   2.477   4.244   7.545
14184TIP3    H142429   2.480   4.331   7.590
14184TIP3    H242430   2.381   4.225   7.552
14185TIP3   OH242431   2.798   4.700   6.450
14185TIP3    H142432   2.879   4.753   6.467
14185TIP3    H242433   2.738   4.764   6.411
14186TIP3   OH242434   2.516   4.857   7.530
14186TIP3    H142435   2.481   4.852   7.439
14186TIP3    H242436   2.436   4.835   7.583
14187TIP3   OH242437   3.572   3.260   6.223
14187TIP3    H142438   3.490   3.280   6.274
14187TIP3    H242439   3.584   3.343   6.172
14188TIP3   OH242440   2.314   4.003   6.571
14188TIP3    H142441   2.247   4.048   6.514
14188TIP3    H242442   2.274   3.916   6.581
14189TIP3   OH242443   2.095   4.387   7.476
14189TIP3    H142444   2.030   4.363   7.408
14189TIP3    H242445   2.132   4.300   7.502
14190TIP3   OH242446   1.951   4.579   7.108
14190TIP3    H142447   2.045   4.564   7.095
14190TIP3    H242448   1.950   4.651   7.173
14191TIP3   OH242449   3.814   5.031   7.164
14191TIP3    H142450   3.813   4.934   7.177
14191TIP3    H242451   3.730   5.054   7.210
14192TIP3   OH242452   2.920   4.817   7.300
14192TIP3    H142453   2.918   4.909   7.333
14192TIP3    H242454   2.848   4.777   7.355
14193TIP3   OH242455   2.677   4.944   6.252
14193TIP3    H142456   2.634   4.926   6.166
14193TIP3    H242457   2.647   5.034   6.273
14194TIP3   OH242458   2.119   4.795   6.635
14194TIP3    H142459   2.163   4.783   6.722
14194TIP3    H242460   2.064   4.714   6.632
14195TIP3   OH242461   2.883   4.833   5.908
14195TIP3    H142462   2.953   4.774   5.871
14195TIP3    H242463   2.917   4.849   5.998
14196TIP3   OH242464   2.933   4.897   6.170
14196TIP3    H142465   2.844   4.905   6.210
14196TIP3    H242466   2.983   4.855   6.241
14197TIP3   OH242467   3.704   4.162   7.439
14197TIP3    H142468   3.623   4.174   7.387
14197TIP3    H242469   3.720   4.066   7.430
14198TIP3   OH242470   2.300   4.570   7.467
14198TIP3    H142471   2.350   4.552   7.549
14198TIP3    H242472   2.226   4.506   7.474
14199TIP3   OH242473   2.699   3.393   7.249
14199TIP3    H142474   2.609   3.361   7.223
14199TIP3    H242475   2.673   3.474   7.296
14200TIP3   OH242476   3.233   3.509   7.445
14200TIP3    H142477   3.301   3.479   7.508
14200TIP3    H242478   3.149   3.486   7.491
14201TIP3   OH242479   3.473   3.937   7.363
14201TIP3    H142480   3.424   3.933   7.448
14201TIP3    H242481   3.447   4.023   7.327
14202TIP3   OH242482   3.128   4.067   5.920
14202TIP3    H142483   3.101   4.037   5.832
14202TIP3    H242484   3.209   4.117   5.897
14203TIP3   OH242485   2.845   3.442   6.220
14203TIP3    H142486   2.812   3.439   6.312
14203TIP3    H242487   2.807   3.358   6.187
14204TIP3   OH242488   2.631   3.907   7.268
14204TIP3    H142489   2.581   3.927   7.350
14204TIP3    H242490   2.615   3.988   7.215
14205TIP3   OH242491   2.514   3.795   6.782
14205TIP3    H142492   2.421   3.767   6.800
14205TIP3    H242493   2.528   3.754   6.694
14206TIP3   OH242494   3.006   3.881   6.510
14206TIP3    H142495   2.952   3.951   6.468
14206TIP3    H242496   3.060   3.850   6.436
14207TIP3   OH242497   3.180   4.159   7.598
14207TIP3    H142498   3.157   4.086   7.659
14207TIP3    H242499   3.274   4.171   7.619
14208TIP3   OH242500   3.163   3.909   6.749
14208TIP3    H142501   3.103   3.938   6.677
14208TIP3    H242502   3.197   3.827   6.707
14209TIP3   OH242503   2.449   3.937   7.478
14209TIP3    H142504   2.480   3.998   7.546
14209TIP3    H242505   2.438   3.854   7.528
14210TIP3   OH242506   2.502   3.416   6.187
14210TIP3    H142507   2.492   3.411   6.284
14210TIP3    H242508   2.421   3.464   6.163
14211TIP3   OH242509   2.042   3.461   7.060
14211TIP3    H142510   2.120   3.490   7.111
14211TIP3    H242511   2.079   3.426   6.977
14212TIP3   OH242512   2.017   3.441   6.577
14212TIP3    H142513   2.061   3.479   6.498
14212TIP3    H242514   1.955   3.513   6.598
14213TIP3   OH242515   3.174   4.155   7.172
14213TIP3    H142516   3.206   4.083   7.113
14213TIP3    H242517   3.145   4.102   7.250
14214TIP3   OH242518   2.842   3.619   6.844
14214TIP3    H142519   2.760   3.614   6.897
14214TIP3    H242520   2.911   3.613   6.913
14215TIP3   OH242521   2.276   3.672   6.852
14215TIP3    H142522   2.182   3.678   6.825
14215TIP3    H242523   2.300   3.580   6.829
14216TIP3   OH242524   2.546   3.669   6.541
14216TIP3    H142525   2.640   3.683   6.519
14216TIP3    H242526   2.499   3.692   6.457
14217TIP3   OH242527   3.334   3.692   7.047
14217TIP3    H142528   3.298   3.703   7.138
14217TIP3    H242529   3.269   3.630   7.009
14218TIP3   OH242530   2.386   3.704   6.320
14218TIP3    H142531   2.314   3.657   6.274
14218TIP3    H242532   2.438   3.737   6.244
14219TIP3   OH242533   3.504   5.380   7.264
14219TIP3    H142534   3.501   5.404   7.169
14219TIP3    H242535   3.580   5.432   7.295
14220TIP3   OH242536   2.460   4.492   7.686
14220TIP3    H142537   2.540   4.521   7.733
14220TIP3    H242538   2.396   4.490   7.760
14221TIP3   OH242539   2.926   3.945   6.942
14221TIP3    H142540   2.996   3.903   6.890
14221TIP3    H242541   2.934   3.902   7.028
14222TIP3   OH242542   2.449   3.431   6.820
14222TIP3    H142543   2.414   3.351   6.866
14222TIP3    H242544   2.499   3.392   6.747
14223TIP3   OH242545   2.902   3.841   7.230
14223TIP3    H142546   2.812   3.876   7.246
14223TIP3    H242547   2.959   3.901   7.282
14224TIP3   OH242548   2.637   4.233   6.324
14224TIP3    H142549   2.566   4.166   6.316
14224TIP3    H242550   2.621   4.266   6.416
14225TIP3   OH242551   3.539   4.468   6.956
14225TIP3    H142552   3.564   4.516   6.874
14225TIP3    H242553   3.453   4.427   6.930
14226TIP3   OH242554   3.097   3.544   6.188
14226TIP3    H142555   3.000   3.527   6.197
14226TIP3    H242556   3.106   3.639   6.212
14227TIP3   OH242557   3.039   4.550   7.323
14227TIP3    H142558   3.060   4.527   7.414
14227TIP3    H242559   3.000   4.638   7.331
14228TIP3   OH242560   3.166   3.791   6.292
14228TIP3    H142561   3.263   3.796   6.307
14228TIP3    H242562   3.148   3.870   6.238
14229TIP3   OH242563   2.332   4.256   7.002
14229TIP3    H142564   2.369   4.227   6.916
14229TIP3    H242565   2.370   4.191   7.063
14230TIP3   OH242566   2.787   4.381   6.146
14230TIP3    H142567   2.740   4.467   6.154
14230TIP3    H242568   2.733   4.325   6.206
14231TIP3   OH242569   2.210   4.176   7.616
14231TIP3    H142570   2.233   4.161   7.709
14231TIP3    H242571   2.143   4.107   7.600
14232TIP3   OH242572   2.936   4.288   7.636
14232TIP3    H142573   2.878   4.230   7.585
14232TIP3    H242574   3.024   4.255   7.608
14233TIP3   OH242575   3.199   4.811   7.218
14233TIP3    H142576   3.102   4.808   7.230
14233TIP3    H242577   3.226   4.862   7.297
14234TIP3   OH242578   3.609   3.881   6.128
14234TIP3    H142579   3.546   3.835   6.067
14234TIP3    H242580   3.606   3.969   6.086
14235TIP3   OH242581   3.827   4.741   7.208
14235TIP3    H142582   3.729   4.734   7.200
14235TIP3    H242583   3.853   4.710   7.118
14236TIP3   OH242584   3.320   4.695   6.031
14236TIP3    H142585   3.288   4.642   6.106
14236TIP3    H242586   3.297   4.639   5.956
14237TIP3   OH242587   3.304   4.330   6.875
14237TIP3    H142588   3.211   4.304   6.887
14237TIP3    H242589   3.339   4.250   6.830
14238TIP3   OH242590   2.430   4.558   6.628
14238TIP3    H142591   2.432   4.639   6.574
14238TIP3    H242592   2.336   4.540   6.633
14239TIP3   OH242593   1.995   3.862   6.331
14239TIP3    H142594   2.039   3.947   6.351
14239TIP3    H242595   1.916   3.868   6.390
14240TIP3   OH242596   2.570   4.324   6.571
14240TIP3    H142597   2.536   4.413   6.590
14240TIP3    H242598   2.534   4.273   6.646
14241TIP3   OH242599   2.701   4.900   7.096
14241TIP3    H142600   2.742   4.973   7.045
14241TIP3    H242601   2.778   4.866   7.144
14242TIP3   OH242602   2.352   4.796   6.479
14242TIP3    H142603   2.265   4.804   6.524
14242TIP3    H242604   2.383   4.889   6.482
14243TIP3   OH242605   3.090   4.537   7.054
14243TIP3    H142606   3.081   4.534   7.151
14243TIP3    H242607   3.168   4.481   7.040
14244TIP3   OH242608   3.057   4.437   5.940
14244TIP3    H142609   3.117   4.408   6.012
14244TIP3    H242610   2.972   4.408   5.975
14245TIP3   OH242611   3.338   5.070   7.107
14245TIP3    H142612   3.260   5.012   7.099
14245TIP3    H242613   3.322   5.134   7.033
14246TIP3   OH242614   2.424   3.681   7.624
14246TIP3    H142615   2.327   3.682   7.635
14246TIP3    H242616   2.451   3.619   7.693
14247TIP3   OH242617   3.223   4.363   6.155
14247TIP3    H142618   3.214   4.295   6.225
14247TIP3    H242619   3.320   4.361   6.142
14248TIP3   OH242620   2.140   4.768   7.261
14248TIP3    H142621   2.189   4.686   7.276
14248TIP3    H242622   2.176   4.822   7.331
14249TIP3   OH242623   2.404   4.387   5.938
14249TIP3    H142624   2.469   4.317   5.917
14249TIP3    H242625   2.404   4.384   6.036
14250TIP3   OH242626   2.378   4.416   6.209
14250TIP3    H142627   2.447   4.384   6.269
14250TIP3    H242628   2.385   4.513   6.220
14251TIP3   OH242629   2.111   4.109   6.412
14251TIP3    H142630   2.044   4.149   6.470
14251TIP3    H242631   2.121   4.179   6.345
14252TIP3   OH242632   3.258   3.746   7.306
14252TIP3    H142633   3.340   3.781   7.344
14252TIP3    H242634   3.244   3.664   7.358
14253TIP3   OH242635   3.138   3.496   6.469
14253TIP3    H142636   3.126   3.519   6.375
14253TIP3    H242637   3.179   3.578   6.504
14254TIP3   OH242638   2.640   4.609   6.161
14254TIP3    H142639   2.555   4.644   6.195
14254TIP3    H242640   2.661   4.676   6.094
14255TIP3   OH242641   2.829   3.675   6.572
14255TIP3    H142642   2.895   3.746   6.554
14255TIP3    H242643   2.834   3.668   6.669
14256TIP3   OH242644   3.098   3.993   7.380
14256TIP3    H142645   3.120   4.046   7.459
14256TIP3    H242646   3.154   3.914   7.391
14257TIP3   OH242647   2.974   3.403   6.675
14257TIP3    H142648   2.968   3.480   6.734
14257TIP3    H242649   3.034   3.438   6.605
14258TIP3   OH242650   2.381   4.688   6.224
14258TIP3    H142651   2.353   4.759   6.162
14258TIP3    H242652   2.367   4.731   6.311
14259TIP3   OH242653   2.485   3.399   6.463
14259TIP3    H142654   2.483   3.489   6.500
14259TIP3    H242655   2.581   3.381   6.471
14260TIP3   OH242656   3.740   3.894   7.359
14260TIP3    H142657   3.642   3.893   7.367
14260TIP3    H242658   3.750   3.851   7.273
14261TIP3   OH242659   3.390   4.089   6.749
14261TIP3    H142660   3.314   4.028   6.760
14261TIP3    H242661   3.461   4.041   6.796
14262TIP3   OH242662   2.105   4.321   6.217
14262TIP3    H142663   2.175   4.387   6.233
14262TIP3    H242664   2.151   4.262   6.154
14263TIP3   OH242665   2.048   3.592   6.351
14263TIP3    H142666   2.044   3.690   6.347
14263TIP3    H242667   1.965   3.567   6.308
14264TIP3   OH242668   3.358   5.044   6.698
14264TIP3    H142669   3.315   5.091   6.623
14264TIP3    H242670   3.452   5.062   6.677
14265TIP3   OH242671   2.433   3.312   7.226
14265TIP3    H142672   2.403   3.278   7.139
14265TIP3    H242673   2.424   3.234   7.283
14266TIP3   OH242674   1.978   4.542   6.606
14266TIP3    H142675   1.901   4.564   6.661
14266TIP3    H242676   1.948   4.577   6.519
14267TIP3   OH242677   2.130   5.072   7.673
14267TIP3    H142678   2.216   5.072   7.722
14267TIP3    H242679   2.108   4.977   7.675
14268TIP3   OH242680   2.611   5.038   7.721
14268TIP3    H142681   2.706   5.019   7.729
14268TIP3    H242682   2.587   4.979   7.647
14269TIP3   OH242683   2.596   4.606   5.864
14269TIP3    H142684   2.563   4.523   5.904
14269TIP3    H242685   2.665   4.571   5.806
14270TIP3   OH242686   3.250   4.944   7.455
14270TIP3    H142687   3.241   4.873   7.522
14270TIP3    H242688   3.328   4.993   7.486
14271TIP3   OH242689   3.057   4.668   5.783
14271TIP3    H142690   3.058   4.580   5.824
14271TIP3    H242691   3.033   4.650   5.691
14272TIP3   OH242692   2.260   4.479   7.878
14272TIP3    H142693   2.278   4.383   7.881
14272TIP3    H242694   2.173   4.481   7.834
14273TIP3   OH242695   2.243   4.135   6.069
14273TIP3    H142696   2.294   4.095   6.141
14273TIP3    H242697   2.308   4.134   5.996
14274TIP3   OH242698   2.868   4.563   7.651
14274TIP3    H142699   2.827   4.578   7.563
14274TIP3    H242700   2.900   4.470   7.644
14275TIP3   OH242701   2.689   4.315   5.893
14275TIP3    H142702   2.734   4.338   5.976
14275TIP3    H242703   2.724   4.224   5.878
14276TIP3   OH242704   3.362   4.572   7.257
14276TIP3    H142705   3.435   4.617   7.212
14276TIP3    H242706   3.290   4.636   7.243
14277TIP3   OH242707   2.379   4.213   7.859
14277TIP3    H142708   2.454   4.156   7.837
14277TIP3    H242709   2.405   4.244   7.948
14278TIP3   OH242710   2.446   4.033   6.292
14278TIP3    H142711   2.418   3.992   6.375
14278TIP3    H242712   2.482   3.956   6.243
14279TIP3   OH242713   2.714   4.097   7.521
14279TIP3    H142714   2.637   4.158   7.523
14279TIP3    H242715   2.763   4.131   7.442
14280TIP3   OH242716   2.547   3.828   6.134
14280TIP3    H142717   2.521   3.824   6.039
14280TIP3    H242718   2.645   3.832   6.125
14281TIP3   OH242719   3.231   4.499   7.654
14281TIP3    H142720   3.311   4.475   7.606
14281TIP3    H242721   3.229   4.432   7.725
14282TIP3   OH242722   3.361   4.164   5.797
14282TIP3    H142723   3.343   4.121   5.712
14282TIP3    H242724   3.391   4.251   5.768
14283TIP3   OH242725   2.837   3.885   7.648
14283TIP3    H142726   2.838   3.805   7.592
14283TIP3    H242727   2.794   3.951   7.589
14284TIP3   OH242728   2.841   3.673   7.455
14284TIP3    H142729   2.868   3.712   7.369
14284TIP3    H242730   2.747   3.648   7.436
14285TIP3   OH242731   2.868   4.208   7.329
14285TIP3    H142732   2.951   4.213   7.279
14285TIP3    H242733   2.812   4.275   7.283
14286TIP3   OH242734   3.451   4.175   7.710
14286TIP3    H142735   3.496   4.090   7.718
14286TIP3    H242736   3.521   4.231   7.673
14287TIP3   OH242737   3.491   4.428   7.446
14287TIP3    H142738   3.434   4.482   7.386
14287TIP3    H242739   3.579   4.447   7.405
14288TIP3   OH242740   2.715   3.998   7.877
14288TIP3    H142741   2.647   3.929   7.891
14288TIP3    H242742   2.751   3.973   7.790
14289TIP3   OH242743   2.973   3.437   7.521
14289TIP3    H142744   2.924   3.518   7.498
14289TIP3    H242745   2.904   3.368   7.509
14290TIP3   OH242746   3.098   3.941   7.737
14290TIP3    H142747   3.087   3.928   7.833
14290TIP3    H242748   3.008   3.915   7.707
14291TIP3   OH242749   3.339   3.892   7.593
14291TIP3    H142750   3.263   3.890   7.653
14291TIP3    H242751   3.412   3.858   7.650
14292TIP3   OH242752   3.568   3.831   7.744
14292TIP3    H142753   3.581   3.735   7.761
14292TIP3    H242754   3.563   3.868   7.834
14293TIP3   OH242755   2.555   3.778   7.931
14293TIP3    H142756   2.561   3.687   7.895
14293TIP3    H242757   2.592   3.764   8.020
14294TIP3   OH242758   3.068   3.447   7.778
14294TIP3    H142759   3.135   3.376   7.774
14294TIP3    H242760   3.028   3.439   7.689
14295TIP3   OH242761   3.133   3.661   7.937
14295TIP3    H142762   3.112   3.589   7.873
14295TIP3    H242763   3.055   3.719   7.930
14296TIP3   OH242764   2.355   4.892   6.037
14296TIP3    H142765   2.450   4.887   6.016
14296TIP3    H242766   2.322   4.934   5.956
14297TIP3   OH242767   1.836   4.262   6.270
14297TIP3    H142768   1.924   4.292   6.240
14297TIP3    H242769   1.824   4.181   6.216
14298TIP3   OH242770   1.747   4.884   6.666
14298TIP3    H142771   1.680   4.822   6.630
14298TIP3    H242772   1.792   4.826   6.732
14299TIP3   OH242773   1.883   4.736   6.854
14299TIP3    H142774   1.870   4.659   6.911
14299TIP3    H242775   1.932   4.794   6.915
14300TIP3   OH242776   3.610   5.136   6.654
14300TIP3    H142777   3.639   5.169   6.740
14300TIP3    H242778   3.673   5.178   6.593
14301TIP3   OH242779   3.641   5.156   6.937
14301TIP3    H142780   3.596   5.069   6.931
14301TIP3    H242781   3.716   5.131   6.993
14302TIP3   OH242782   3.687   4.832   7.509
14302TIP3    H142783   3.614   4.839   7.573
14302TIP3    H242784   3.727   4.921   7.514
14303TIP3   OH242785   3.502   4.344   6.128
14303TIP3    H142786   3.570   4.409   6.100
14303TIP3    H242787   3.546   4.306   6.208
14304TIP3   OH242788   3.630   4.213   6.332
14304TIP3    H142789   3.565   4.170   6.392
14304TIP3    H242790   3.696   4.250   6.395
14305TIP3   OH242791   3.684   4.604   6.765
14305TIP3    H142792   3.738   4.539   6.716
14305TIP3    H242793   3.678   4.678   6.702
14306TIP3   OH242794   3.517   4.905   6.960
14306TIP3    H142795   3.445   4.946   7.012
14306TIP3    H242796   3.467   4.856   6.891
14307TIP3   OH242797   3.568   4.119   5.980
14307TIP3    H142798   3.492   4.119   5.918
14307TIP3    H242799   3.544   4.196   6.036
14308TIP3   OH242800   3.437   3.794   5.936
14308TIP3    H142801   3.400   3.829   5.854
14308TIP3    H242802   3.414   3.699   5.927
14309TIP3   OH242803   3.444   4.068   6.479
14309TIP3    H142804   3.453   3.971   6.474
14309TIP3    H242805   3.431   4.083   6.575
14310TIP3   OH242806   2.071   4.142   7.227
14310TIP3    H142807   2.069   4.110   7.134
14310TIP3    H242808   2.168   4.144   7.243
14311TIP3   OH242809   3.734   4.493   7.336
14311TIP3    H142810   3.806   4.427   7.328
14311TIP3    H242811   3.760   4.561   7.273
14312TIP3   OH242812   3.920   4.300   7.355
14312TIP3    H142813   3.845   4.249   7.392
14312TIP3    H242814   3.992   4.235   7.368
14313TIP3   OH242815   3.383   3.528   5.922
14313TIP3    H142816   3.458   3.496   5.975
14313TIP3    H242817   3.310   3.468   5.945
14314TIP3   OH242818   3.441   3.785   6.374
14314TIP3    H142819   3.482   3.696   6.390
14314TIP3    H242820   3.499   3.817   6.304
14315TIP3   OH242821   3.603   3.959   6.869
14315TIP3    H142822   3.689   3.985   6.828
14315TIP3    H242823   3.616   3.995   6.958
14316TIP3   OH242824   3.672   4.103   7.102
14316TIP3    H142825   3.593   4.137   7.150
14316TIP3    H242826   3.703   4.184   7.056
14317TIP3   OH242827   2.288   3.830   7.903
14317TIP3    H142828   2.386   3.823   7.902
14317TIP3    H242829   2.265   3.744   7.942
14318TIP3   OH242830   4.123   3.694   7.658
14318TIP3    H142831   4.181   3.627   7.615
14318TIP3    H242832   4.096   3.749   7.581
14319TIP3   OH242833   3.549   3.535   6.413
14319TIP3    H142834   3.598   3.517   6.496
14319TIP3    H242835   3.489   3.457   6.410
14320TIP3   OH242836   2.250   3.521   7.235
14320TIP3    H142837   2.311   3.446   7.243
14320TIP3    H242838   2.312   3.595   7.227
14321TIP3   OH242839   2.052   3.796   7.304
14321TIP3    H142840   2.101   3.785   7.220
14321TIP3    H242841   2.085   3.881   7.333
14322TIP3   OH242842   3.994   3.834   7.463
14322TIP3    H142843   3.906   3.872   7.482
14322TIP3    H242844   3.968   3.761   7.404
14323TIP3   OH242845   3.631   3.469   6.044
14323TIP3    H142846   3.671   3.397   5.991
14323TIP3    H242847   3.698   3.540   6.037
14324TIP3   OH242848   2.036   3.305   6.810
14324TIP3    H142849   1.941   3.297   6.830
14324TIP3    H242850   2.034   3.358   6.728
14325TIP3   OH242851   3.197   5.001   6.311
14325TIP3    H142852   3.245   4.986   6.227
14325TIP3    H242853   3.253   5.067   6.354
14326TIP3   OH242854   2.257   3.384   7.623
14326TIP3    H142855   2.205   3.372   7.704
14326TIP3    H242856   2.189   3.416   7.561
14327TIP3   OH242857   2.295   4.806   7.696
14327TIP3    H142858   2.204   4.777   7.680
14327TIP3    H242859   2.306   4.786   7.790
14328TIP3   OH242860   2.474   4.837   7.245
14328TIP3    H142861   2.428   4.914   7.204
14328TIP3    H242862   2.560   4.849   7.201
14329TIP3   OH242863   2.919   5.083   7.383
14329TIP3    H142864   2.961   5.083   7.471
14329TIP3    H242865   2.985   5.133   7.330
14330TIP3   OH242866   3.098   5.234   7.240
14330TIP3    H142867   3.169   5.183   7.199
14330TIP3    H242868   3.150   5.291   7.301
14331TIP3   OH242869   3.893   3.596   7.341
14331TIP3    H142870   3.801   3.588   7.309
14331TIP3    H242871   3.924   3.503   7.328
14332TIP3   OH242872   2.163   5.100   7.269
14332TIP3    H142873   2.069   5.084   7.256
14332TIP3    H242874   2.168   5.130   7.361
14333TIP3   OH242875   2.393   5.074   7.123
14333TIP3    H142876   2.309   5.090   7.170
14333TIP3    H242877   2.371   5.105   7.033
14334TIP3   OH242878   2.812   5.102   6.924
14334TIP3    H142879   2.745   5.123   6.857
14334TIP3    H242880   2.826   5.189   6.966
14335TIP3   OH242881   3.082   5.043   6.976
14335TIP3    H142882   2.987   5.058   6.956
14335TIP3    H242883   3.124   5.118   6.932
14336TIP3   OH242884   3.290   5.234   6.890
14336TIP3    H142885   3.275   5.319   6.843
14336TIP3    H242886   3.315   5.174   6.817
14337TIP3   OH242887   2.062   4.887   7.024
14337TIP3    H142888   2.096   4.855   7.110
14337TIP3    H242889   2.130   4.847   6.965
14338TIP3   OH242890   2.252   4.763   6.874
14338TIP3    H142891   2.269   4.677   6.919
14338TIP3    H242892   2.344   4.798   6.867
14339TIP3   OH242893   2.521   4.855   6.873
14339TIP3    H142894   2.552   4.764   6.859
14339TIP3    H242895   2.567   4.875   6.957
14340TIP3   OH242896   3.096   3.511   6.959
14340TIP3    H142897   3.054   3.441   7.013
14340TIP3    H242898   3.169   3.462   6.915
14341TIP3   OH242899   3.622   3.393   6.866
14341TIP3    H142900   3.657   3.444   6.790
14341TIP3    H242901   3.526   3.409   6.858
14342TIP3   OH242902   3.717   3.491   6.629
14342TIP3    H142903   3.790   3.439   6.588
14342TIP3    H242904   3.750   3.582   6.614
14343TIP3   OH242905   2.346   3.220   6.977
14343TIP3    H142906   2.254   3.186   6.977
14343TIP3    H242907   2.396   3.135   6.974
14344TIP3   OH242908   2.134   3.089   6.625
14344TIP3    H142909   2.163   3.146   6.551
14344TIP3    H242910   2.105   3.155   6.691
14345TIP3   OH242911   2.788   3.254   6.856
14345TIP3    H142912   2.849   3.303   6.798
14345TIP3    H242913   2.813   3.288   6.943
14346TIP3   OH242914   3.339   3.399   6.841
14346TIP3    H142915   3.334   3.361   6.752
14346TIP3    H242916   3.325   3.318   6.897
14347TIP3   OH242917   3.367   3.321   6.404
14347TIP3    H142918   3.280   3.362   6.414
14347TIP3    H242919   3.353   3.235   6.449
14348TIP3   OH242920   1.851   4.660   6.399
14348TIP3    H142921   1.765   4.625   6.370
14348TIP3    H242922   1.838   4.754   6.379
14349TIP3   OH242923   2.250   3.250   6.388
14349TIP3    H142924   2.297   3.186   6.332
14349TIP3    H242925   2.324   3.302   6.424
14350TIP3   OH242926   2.762   3.424   6.485
14350TIP3    H142927   2.821   3.376   6.546
14350TIP3    H242928   2.784   3.516   6.512
14351TIP3   OH242929   2.620   4.851   5.983
14351TIP3    H142930   2.711   4.870   5.950
14351TIP3    H242931   2.601   4.771   5.928
14352TIP3   OH242932   3.340   4.965   6.075
14352TIP3    H142933   3.336   4.868   6.058
14352TIP3    H242934   3.298   5.000   5.993
14353TIP3   OH242935   2.553   3.503   7.871
14353TIP3    H142936   2.522   3.430   7.926
14353TIP3    H242937   2.649   3.503   7.895
14354TIP3   OH242938   2.804   3.499   7.987
14354TIP3    H142939   2.887   3.472   7.946
14354TIP3    H242940   2.791   3.429   8.053
14355TIP3   OH242941   1.944   4.727   6.065
14355TIP3    H142942   1.904   4.723   6.153
14355TIP3    H242943   2.021   4.670   6.072
14356TIP3   OH242944   3.628   3.560   7.775
14356TIP3    H142945   3.647   3.528   7.865
14356TIP3    H242946   3.716   3.554   7.732
14357TIP3   OH242947   3.568   5.111   7.267
14357TIP3    H142948   3.489   5.079   7.219
14357TIP3    H242949   3.547   5.207   7.270
14358TIP3   OH242950   4.834   4.485   6.033
14358TIP3    H142951   4.802   4.574   6.010
14358TIP3    H242952   4.759   4.432   6.002
14359TIP3   OH242953   4.835   4.484   6.415
14359TIP3    H142954   4.863   4.450   6.502
14359TIP3    H242955   4.792   4.405   6.377
14360TIP3   OH242956   4.131   4.380   6.782
14360TIP3    H142957   4.162   4.312   6.844
14360TIP3    H242958   4.212   4.429   6.765
14361TIP3   OH242959   5.095   4.769   6.105
14361TIP3    H142960   5.061   4.707   6.170
14361TIP3    H242961   5.093   4.853   6.153
14362TIP3   OH242962   4.105   4.789   6.507
14362TIP3    H142963   4.094   4.691   6.507
14362TIP3    H242964   4.201   4.796   6.496
14363TIP3   OH242965   3.809   3.993   6.290
14363TIP3    H142966   3.759   4.076   6.303
14363TIP3    H242967   3.739   3.938   6.250
14364TIP3   OH242968   3.869   4.279   6.461
14364TIP3    H142969   3.918   4.202   6.498
14364TIP3    H242970   3.927   4.307   6.389
14365TIP3   OH242971   4.732   5.248   6.111
14365TIP3    H142972   4.780   5.182   6.055
14365TIP3    H242973   4.719   5.198   6.193
14366TIP3   OH242974   4.630   4.709   6.463
14366TIP3    H142975   4.665   4.633   6.415
14366TIP3    H242976   4.716   4.752   6.486
14367TIP3   OH242977   5.648   4.030   6.459
14367TIP3    H142978   5.674   4.114   6.502
14367TIP3    H242979   5.663   4.052   6.366
14368TIP3   OH242980   5.050   4.213   6.496
14368TIP3    H142981   5.082   4.124   6.522
14368TIP3    H242982   5.013   4.195   6.408
14369TIP3   OH242983   4.375   3.871   6.463
14369TIP3    H142984   4.361   3.943   6.397
14369TIP3    H242985   4.331   3.797   6.416
14370TIP3   OH242986   5.076   3.959   6.082
14370TIP3    H142987   5.149   3.945   6.147
14370TIP3    H242988   5.126   3.997   6.007
14371TIP3   OH242989   4.015   4.073   6.567
14371TIP3    H142990   4.098   4.052   6.614
14371TIP3    H242991   4.027   4.017   6.487
14372TIP3   OH242992   4.455   4.271   6.362
14372TIP3    H142993   4.549   4.246   6.375
14372TIP3    H242994   4.417   4.187   6.329
14373TIP3   OH242995   5.720   4.241   6.626
14373TIP3    H142996   5.635   4.285   6.607
14373TIP3    H242997   5.722   4.251   6.723
14374TIP3   OH242998   4.378   3.855   6.896
14374TIP3    H142999   4.319   3.891   6.827
14374TIP3    H243000   4.327   3.875   6.977
14375TIP3   OH243001   4.719   4.702   5.909
14375TIP3    H143002   4.689   4.686   5.818
14375TIP3    H243003   4.679   4.789   5.928
14376TIP3   OH243004   4.486   4.629   6.690
14376TIP3    H143005   4.422   4.694   6.726
14376TIP3    H243006   4.526   4.679   6.616
14377TIP3   OH243007   5.286   3.963   6.254
14377TIP3    H143008   5.278   3.912   6.336
14377TIP3    H243009   5.337   4.041   6.284
14378TIP3   OH243010   4.247   3.969   6.680
14378TIP3    H143011   4.311   4.041   6.702
14378TIP3    H243012   4.295   3.927   6.605
14379TIP3   OH243013   4.313   4.823   6.789
14379TIP3    H143014   4.286   4.907   6.747
14379TIP3    H243015   4.234   4.807   6.845
14380TIP3   OH243016   3.708   4.509   6.031
14380TIP3    H143017   3.672   4.525   5.941
14380TIP3    H243018   3.736   4.599   6.058
14381TIP3   OH243019   5.152   5.030   6.263
14381TIP3    H143020   5.064   5.016   6.306
14381TIP3    H243021   5.133   5.114   6.216
14382TIP3   OH243022   5.439   3.933   6.631
14382TIP3    H143023   5.347   3.958   6.608
14382TIP3    H243024   5.489   3.963   6.553
14383TIP3   OH243025   4.695   3.559   6.573
14383TIP3    H143026   4.734   3.487   6.624
14383TIP3    H243027   4.652   3.612   6.642
14384TIP3   OH243028   4.861   5.086   5.933
14384TIP3    H143029   4.909   5.001   5.918
14384TIP3    H243030   4.877   5.124   5.844
14385TIP3   OH243031   4.992   4.857   5.860
14385TIP3    H143032   4.967   4.789   5.796
14385TIP3    H243033   5.026   4.805   5.935
14386TIP3   OH243034   5.373   4.943   6.606
14386TIP3    H143035   5.361   4.864   6.549
14386TIP3    H243036   5.355   5.016   6.544
14387TIP3   OH243037   4.664   4.336   5.864
14387TIP3    H143038   4.583   4.387   5.843
14387TIP3    H243039   4.710   4.334   5.778
14388TIP3   OH243040   4.623   4.121   5.580
14388TIP3    H143041   4.691   4.170   5.630
14388TIP3    H243042   4.679   4.057   5.532
14389TIP3   OH243043   5.569   4.580   6.452
14389TIP3    H143044   5.485   4.630   6.459
14389TIP3    H243045   5.596   4.602   6.360
14390TIP3   OH243046   5.012   4.415   5.838
14390TIP3    H143047   4.956   4.442   5.915
14390TIP3    H243048   5.095   4.390   5.884
14391TIP3   OH243049   5.247   4.464   6.739
14391TIP3    H143050   5.240   4.546   6.791
14391TIP3    H243051   5.158   4.462   6.697
14392TIP3   OH243052   4.243   4.416   6.253
14392TIP3    H143053   4.202   4.358   6.185
14392TIP3    H243054   4.320   4.362   6.281
14393TIP3   OH243055   4.371   4.826   6.401
14393TIP3    H143056   4.350   4.787   6.315
14393TIP3    H243057   4.462   4.792   6.417
14394TIP3   OH243058   4.377   4.388   6.608
14394TIP3    H143059   4.411   4.363   6.519
14394TIP3    H243060   4.423   4.472   6.626
14395TIP3   OH243061   4.914   5.023   6.386
14395TIP3    H143062   4.892   5.103   6.438
14395TIP3    H243063   4.894   4.950   6.447
14396TIP3   OH243064   4.516   4.947   6.932
14396TIP3    H143065   4.455   5.009   6.976
14396TIP3    H243066   4.452   4.892   6.881
14397TIP3   OH243067   4.853   4.274   5.663
14397TIP3    H143068   4.912   4.335   5.714
14397TIP3    H243069   4.878   4.298   5.571
14398TIP3   OH243070   4.273   4.501   7.032
14398TIP3    H143071   4.275   4.588   7.077
14398TIP3    H243072   4.177   4.480   7.037
14399TIP3   OH243073   4.597   4.964   5.940
14399TIP3    H143074   4.678   5.016   5.946
14399TIP3    H243075   4.538   5.023   5.891
14400TIP3   OH243076   4.311   5.121   7.022
14400TIP3    H143077   4.280   5.116   6.929
14400TIP3    H243078   4.231   5.095   7.072
14401TIP3   OH243079   5.368   3.516   5.711
14401TIP3    H143080   5.286   3.536   5.761
14401TIP3    H243081   5.380   3.600   5.661
14402TIP3   OH243082   4.110   4.260   6.058
14402TIP3    H143083   4.044   4.305   6.001
14402TIP3    H243084   4.070   4.173   6.068
14403TIP3   OH243085   3.892   4.644   6.963
14403TIP3    H143086   3.826   4.620   6.894
14403TIP3    H243087   3.928   4.556   6.988
14404TIP3   OH243088   3.745   4.834   6.599
14404TIP3    H143089   3.840   4.828   6.586
14404TIP3    H243090   3.737   4.915   6.651
14405TIP3   OH243091   5.609   5.285   6.650
14405TIP3    H143092   5.609   5.189   6.668
14405TIP3    H243093   5.527   5.311   6.698
14406TIP3   OH243094   4.717   5.073   6.789
14406TIP3    H143095   4.714   5.166   6.819
14406TIP3    H243096   4.643   5.034   6.841
14407TIP3   OH243097   4.444   5.194   5.747
14407TIP3    H143098   4.435   5.185   5.651
14407TIP3    H243099   4.443   5.290   5.761
14408TIP3   OH243100   3.913   5.053   6.123
14408TIP3    H143101   3.961   5.040   6.208
14408TIP3    H243102   3.858   4.972   6.122
14409TIP3   OH243103   4.686   5.091   5.418
14409TIP3    H143104   4.738   5.037   5.356
14409TIP3    H243105   4.753   5.106   5.489
14410TIP3   OH243106   5.500   4.420   6.925
14410TIP3    H143107   5.416   4.429   6.877
14410TIP3    H243108   5.513   4.324   6.919
14411TIP3   OH243109   4.096   4.828   6.956
14411TIP3    H143110   4.147   4.806   7.036
14411TIP3    H243111   4.022   4.763   6.960
14412TIP3   OH243112   4.491   3.650   6.748
14412TIP3    H143113   4.403   3.621   6.715
14412TIP3    H243114   4.466   3.734   6.790
14413TIP3   OH243115   5.287   4.210   6.861
14413TIP3    H143116   5.224   4.186   6.932
14413TIP3    H243117   5.240   4.281   6.814
14414TIP3   OH243118   4.928   4.316   5.407
14414TIP3    H143119   4.896   4.293   5.317
14414TIP3    H243120   5.003   4.374   5.385
14415TIP3   OH243121   4.642   3.697   5.708
14415TIP3    H143122   4.609   3.696   5.800
14415TIP3    H243123   4.602   3.614   5.675
14416TIP3   OH243124   4.425   4.163   6.756
14416TIP3    H143125   4.375   4.184   6.837
14416TIP3    H243126   4.410   4.244   6.702
14417TIP3   OH243127   4.310   4.052   6.269
14417TIP3    H143128   4.218   4.023   6.287
14417TIP3    H243129   4.325   4.010   6.181
14418TIP3   OH243130   4.802   4.138   5.997
14418TIP3    H143131   4.748   4.208   5.955
14418TIP3    H243132   4.855   4.106   5.922
14419TIP3   OH243133   4.975   4.419   7.089
14419TIP3    H143134   4.952   4.343   7.147
14419TIP3    H243135   5.071   4.425   7.105
14420TIP3   OH243136   4.965   4.167   6.234
14420TIP3    H143137   4.899   4.195   6.166
14420TIP3    H243138   4.993   4.083   6.193
14421TIP3   OH243139   4.244   4.195   6.966
14421TIP3    H143140   4.277   4.255   7.035
14421TIP3    H243141   4.234   4.111   7.014
14422TIP3   OH243142   4.298   3.672   5.674
14422TIP3    H143143   4.288   3.668   5.771
14422TIP3    H243144   4.218   3.722   5.649
14423TIP3   OH243145   3.839   3.716   6.546
14423TIP3    H143146   3.915   3.748   6.598
14423TIP3    H243147   3.879   3.685   6.464
14424TIP3   OH243148   3.812   3.696   6.065
14424TIP3    H143149   3.856   3.735   5.986
14424TIP3    H243150   3.751   3.769   6.087
14425TIP3   OH243151   4.974   4.412   6.661
14425TIP3    H143152   5.005   4.341   6.600
14425TIP3    H243153   4.945   4.356   6.737
14426TIP3   OH243154   4.632   3.888   6.331
14426TIP3    H143155   4.558   3.875   6.393
14426TIP3    H243156   4.708   3.855   6.383
14427TIP3   OH243157   4.072   3.929   6.339
14427TIP3    H143158   3.978   3.934   6.312
14427TIP3    H243159   4.098   3.838   6.315
14428TIP3   OH243160   4.342   3.924   6.027
14428TIP3    H143161   4.436   3.941   6.008
14428TIP3    H243162   4.296   3.948   5.944
14429TIP3   OH243163   5.130   3.949   6.545
14429TIP3    H143164   5.089   3.914   6.627
14429TIP3    H243165   5.081   3.893   6.483
14430TIP3   OH243166   4.182   3.959   5.806
14430TIP3    H143167   4.112   3.913   5.756
14430TIP3    H243168   4.235   3.995   5.732
14431TIP3   OH243169   5.300   5.637   6.752
14431TIP3    H143170   5.298   5.664   6.659
14431TIP3    H243171   5.379   5.686   6.784
14432TIP3   OH243172   4.256   4.749   7.173
14432TIP3    H143173   4.336   4.778   7.222
14432TIP3    H243174   4.192   4.744   7.247
14433TIP3   OH243175   4.722   4.207   6.430
14433TIP3    H143176   4.783   4.148   6.385
14433TIP3    H243177   4.719   4.167   6.520
14434TIP3   OH243178   4.242   3.690   6.305
14434TIP3    H143179   4.213   3.608   6.351
14434TIP3    H243180   4.300   3.654   6.236
14435TIP3   OH243181   4.699   4.121   6.692
14435TIP3    H143182   4.608   4.131   6.728
14435TIP3    H243183   4.755   4.154   6.764
14436TIP3   OH243184   4.434   4.488   5.812
14436TIP3    H143185   4.361   4.424   5.802
14436TIP3    H243186   4.417   4.523   5.903
14437TIP3   OH243187   5.335   4.723   6.444
14437TIP3    H143188   5.354   4.771   6.361
14437TIP3    H243189   5.249   4.679   6.423
14438TIP3   OH243190   4.893   3.802   5.673
14438TIP3    H143191   4.796   3.784   5.683
14438TIP3    H243192   4.901   3.896   5.697
14439TIP3   OH243193   4.840   4.810   6.808
14439TIP3    H143194   4.853   4.780   6.899
14439TIP3    H243195   4.796   4.896   6.819
14440TIP3   OH243196   4.962   4.047   5.778
14440TIP3    H143197   5.059   4.055   5.793
14440TIP3    H243198   4.942   4.127   5.725
14441TIP3   OH243199   4.127   4.511   6.489
14441TIP3    H143200   4.164   4.484   6.402
14441TIP3    H243201   4.168   4.447   6.549
14442TIP3   OH243202   4.583   4.637   5.631
14442TIP3    H143203   4.533   4.722   5.634
14442TIP3    H243204   4.530   4.581   5.691
14443TIP3   OH243205   4.005   4.433   7.102
14443TIP3    H143206   4.027   4.416   7.196
14443TIP3    H243207   3.939   4.364   7.085
14444TIP3   OH243208   4.731   4.546   7.123
14444TIP3    H143209   4.672   4.488   7.072
14444TIP3    H243210   4.819   4.512   7.096
14445TIP3   OH243211   4.997   5.072   6.704
14445TIP3    H143212   4.901   5.063   6.716
14445TIP3    H243213   5.021   5.121   6.785
14446TIP3   OH243214   5.408   4.137   5.613
14446TIP3    H143215   5.345   4.092   5.552
14446TIP3    H243216   5.402   4.226   5.571
14447TIP3   OH243217   5.623   4.997   6.696
14447TIP3    H143218   5.525   4.990   6.688
14447TIP3    H243219   5.649   4.966   6.607
14448TIP3   OH243220   5.100   4.586   6.362
14448TIP3    H143221   5.008   4.558   6.376
14448TIP3    H243222   5.135   4.506   6.317
14449TIP3   OH243223   4.229   4.815   6.119
14449TIP3    H143224   4.232   4.894   6.062
14449TIP3    H243225   4.134   4.795   6.118
14450TIP3   OH243226   3.792   4.119   5.818
14450TIP3    H143227   3.838   4.203   5.837
14450TIP3    H243228   3.715   4.125   5.877
14451TIP3   OH243229   4.367   4.580   6.059
14451TIP3    H143230   4.333   4.670   6.077
14451TIP3    H243231   4.329   4.530   6.134
14452TIP3   OH243232   4.497   5.157   6.584
14452TIP3    H143233   4.536   5.230   6.531
14452TIP3    H243234   4.575   5.123   6.629
14453TIP3   OH243235   4.147   5.052   5.967
14453TIP3    H143236   4.061   5.061   6.012
14453TIP3    H243237   4.178   5.145   5.968
14454TIP3   OH243238   4.888   4.793   6.540
14454TIP3    H143239   4.878   4.791   6.638
14454TIP3    H243240   4.962   4.732   6.527
14455TIP3   OH243241   4.853   4.658   5.427
14455TIP3    H143242   4.907   4.650   5.508
14455TIP3    H243243   4.764   4.659   5.463
14456TIP3   OH243244   5.135   5.325   6.592
14456TIP3    H143245   5.057   5.267   6.586
14456TIP3    H243246   5.117   5.389   6.520
14457TIP3   OH243247   5.203   5.171   5.241
14457TIP3    H143248   5.242   5.258   5.218
14457TIP3    H243249   5.121   5.203   5.285
14458TIP3   OH243250   4.219   3.939   7.111
14458TIP3    H143251   4.122   3.941   7.123
14458TIP3    H243252   4.247   3.877   7.180
14459TIP3   OH243253   5.015   4.618   5.648
14459TIP3    H143254   5.011   4.548   5.717
14459TIP3    H243255   5.111   4.622   5.631
14460TIP3   OH243256   3.935   5.022   6.742
14460TIP3    H143257   3.986   4.944   6.770
14460TIP3    H243258   3.967   5.089   6.804
14461TIP3   OH243259   4.160   4.671   5.710
14461TIP3    H143260   4.246   4.643   5.744
14461TIP3    H243261   4.172   4.768   5.703
14462TIP3   OH243262   3.907   4.365   5.898
14462TIP3    H143263   3.841   4.407   5.957
14462TIP3    H243264   3.919   4.437   5.833
14463TIP3   OH243265   4.941   3.750   5.953
14463TIP3    H143266   4.923   3.776   5.860
14463TIP3    H243267   4.977   3.833   5.991
14464TIP3   OH243268   4.434   4.866   5.634
14464TIP3    H143269   4.349   4.894   5.672
14464TIP3    H243270   4.476   4.951   5.616
14465TIP3   OH243271   4.624   3.932   6.058
14465TIP3    H143272   4.690   4.003   6.043
14465TIP3    H243273   4.629   3.923   6.156
14466TIP3   OH243274   4.905   4.249   6.871
14466TIP3    H143275   4.915   4.309   6.947
14466TIP3    H243276   4.954   4.171   6.902
14467TIP3   OH243277   4.773   3.653   6.159
14467TIP3    H143278   4.794   3.709   6.237
14467TIP3    H243279   4.829   3.696   6.090
14468TIP3   OH243280   4.182   4.946   5.711
14468TIP3    H143281   4.150   5.015   5.650
14468TIP3    H243282   4.167   4.987   5.798
14469TIP3   OH243283   4.282   3.656   5.950
14469TIP3    H143284   4.278   3.746   5.987
14469TIP3    H243285   4.378   3.639   5.959
14470TIP3   OH243286   5.544   4.145   6.841
14470TIP3    H143287   5.448   4.155   6.858
14470TIP3    H243288   5.539   4.097   6.758
14471TIP3   OH243289   5.187   4.345   6.236
14471TIP3    H143290   5.109   4.287   6.246
14471TIP3    H243291   5.256   4.295   6.285
14472TIP3   OH243292   3.902   4.574   5.707
14472TIP3    H143293   3.975   4.638   5.722
14472TIP3    H243294   3.941   4.525   5.633
14473TIP3   OH243295   3.843   3.848   5.840
14473TIP3    H143296   3.843   3.946   5.835
14473TIP3    H243297   3.763   3.825   5.792
14474TIP3   OH243298   5.161   5.305   6.186
14474TIP3    H143299   5.111   5.352   6.114
14474TIP3    H243300   5.250   5.305   6.150
14475TIP3   OH243301   4.226   3.571   6.713
14475TIP3    H143302   4.199   3.536   6.625
14475TIP3    H243303   4.219   3.491   6.769
14476TIP3   OH243304   3.774   4.793   6.094
14476TIP3    H143305   3.697   4.820   6.146
14476TIP3    H243306   3.750   4.832   6.007
14477TIP3   OH243307   3.924   5.325   7.162
14477TIP3    H143308   4.011   5.319   7.205
14477TIP3    H243309   3.897   5.232   7.160
14478TIP3   OH243310   4.432   5.291   7.218
14478TIP3    H143311   4.518   5.248   7.211
14478TIP3    H243312   4.386   5.247   7.144
14479TIP3   OH243313   5.043   5.203   6.945
14479TIP3    H143314   5.038   5.130   7.010
14479TIP3    H243315   5.124   5.250   6.973
14480TIP3   OH243316   4.057   4.736   7.364
14480TIP3    H143317   4.074   4.640   7.369
14480TIP3    H243318   3.969   4.737   7.320
14481TIP3   OH243319   4.045   4.385   5.554
14481TIP3    H143320   4.079   4.349   5.639
14481TIP3    H243321   4.129   4.400   5.509
14482TIP3   OH243322   4.664   4.819   7.137
14482TIP3    H143323   4.621   4.833   7.050
14482TIP3    H243324   4.695   4.726   7.131
14483TIP3   OH243325   4.481   4.568   5.372
14483TIP3    H143326   4.522   4.598   5.455
14483TIP3    H243327   4.519   4.478   5.364
14484TIP3   OH243328   5.159   4.827   6.745
14484TIP3    H143329   5.231   4.876   6.701
14484TIP3    H243330   5.084   4.888   6.731
14485TIP3   OH243331   4.176   4.472   7.345
14485TIP3    H143332   4.248   4.411   7.323
14485TIP3    H243333   4.202   4.501   7.435
14486TIP3   OH243334   4.239   4.289   5.778
14486TIP3    H143335   4.215   4.248   5.862
14486TIP3    H243336   4.277   4.213   5.728
14487TIP3   OH243337   4.510   4.356   7.009
14487TIP3    H143338   4.432   4.416   7.010
14487TIP3    H243339   4.559   4.388   6.930
14488TIP3   OH243340   4.343   4.084   5.623
14488TIP3    H143341   4.314   4.084   5.529
14488TIP3    H243342   4.441   4.090   5.612
14489TIP3   OH243343   5.030   4.758   7.143
14489TIP3    H143344   5.107   4.729   7.091
14489TIP3    H243345   5.024   4.688   7.210
14490TIP3   OH243346   5.163   4.417   5.283
14490TIP3    H143347   5.142   4.368   5.201
14490TIP3    H243348   5.130   4.507   5.258
14491TIP3   OH243349   4.632   4.143   7.137
14491TIP3    H143350   4.636   4.064   7.078
14491TIP3    H243351   4.589   4.208   7.077
14492TIP3   OH243352   4.634   3.952   6.938
14492TIP3    H143353   4.677   3.946   6.851
14492TIP3    H243354   4.547   3.911   6.922
14493TIP3   OH243355   4.667   4.469   6.820
14493TIP3    H143356   4.744   4.463   6.762
14493TIP3    H243357   4.610   4.532   6.772
14494TIP3   OH243358   5.248   4.433   7.199
14494TIP3    H143359   5.286   4.344   7.197
14494TIP3    H243360   5.319   4.486   7.160
14495TIP3   OH243361   5.287   4.686   6.935
14495TIP3    H143362   5.230   4.738   6.874
14495TIP3    H243363   5.375   4.702   6.893
14496TIP3   OH243364   4.511   4.255   7.364
14496TIP3    H143365   4.443   4.186   7.378
14496TIP3    H243366   4.547   4.229   7.277
14497TIP3   OH243367   4.756   3.682   7.029
14497TIP3    H143368   4.772   3.751   6.962
14497TIP3    H243369   4.684   3.630   6.989
14498TIP3   OH243370   4.891   4.199   7.224
14498TIP3    H143371   4.879   4.184   7.319
14498TIP3    H243372   4.803   4.171   7.191
14499TIP3   OH243373   5.135   4.156   7.081
14499TIP3    H143374   5.058   4.146   7.140
14499TIP3    H243375   5.207   4.114   7.133
14500TIP3   OH243376   5.375   4.091   7.232
14500TIP3    H143377   5.381   3.995   7.248
14500TIP3    H243378   5.363   4.127   7.322
14501TIP3   OH243379   4.352   4.035   7.417
14501TIP3    H143380   4.359   3.945   7.380
14501TIP3    H243381   4.388   4.020   7.507
14502TIP3   OH243382   4.864   3.701   7.275
14502TIP3    H143383   4.933   3.633   7.259
14502TIP3    H243384   4.821   3.700   7.186
14503TIP3   OH243385   4.931   3.918   7.425
14503TIP3    H143386   4.910   3.845   7.362
14503TIP3    H243387   4.852   3.975   7.416
14504TIP3   OH243388   4.147   5.141   5.514
14504TIP3    H143389   4.244   5.146   5.508
14504TIP3    H243390   4.122   5.198   5.439
14505TIP3   OH243391   3.640   4.509   5.764
14505TIP3    H143392   3.724   4.547   5.731
14505TIP3    H243393   3.627   4.434   5.703
14506TIP3   OH243394   3.540   5.141   6.155
14506TIP3    H143395   3.476   5.078   6.116
14506TIP3    H243396   3.587   5.083   6.219
14507TIP3   OH243397   3.678   4.994   6.342
14507TIP3    H143398   3.668   4.917   6.400
14507TIP3    H243399   3.730   5.053   6.398
14508TIP3   OH243400   5.487   5.384   6.126
14508TIP3    H143401   5.470   5.406   6.220
14508TIP3    H243402   5.440   5.459   6.085
14509TIP3   OH243403   5.443   5.402   6.403
14509TIP3    H143404   5.393   5.318   6.417
14509TIP3    H243405   5.509   5.395   6.474
14510TIP3   OH243406   5.483   5.089   6.995
14510TIP3    H143407   5.410   5.096   7.060
14510TIP3    H243408   5.525   5.177   7.001
14511TIP3   OH243409   5.300   4.598   5.617
14511TIP3    H143410   5.369   4.661   5.589
14511TIP3    H243411   5.342   4.558   5.696
14512TIP3   OH243412   5.428   4.468   5.821
14512TIP3    H143413   5.361   4.424   5.878
14512TIP3    H243414   5.490   4.506   5.887
14513TIP3   OH243415   5.486   4.866   6.252
14513TIP3    H143416   5.538   4.796   6.208
14513TIP3    H243417   5.423   4.894   6.184
14514TIP3   OH243418   5.311   5.162   6.447
14514TIP3    H143419   5.242   5.203   6.503
14514TIP3    H243420   5.257   5.113   6.381
14515TIP3   OH243421   5.364   4.375   5.465
14515TIP3    H143422   5.293   4.378   5.397
14515TIP3    H243423   5.337   4.451   5.520
14516TIP3   OH243424   5.239   4.047   5.421
14516TIP3    H143425   5.193   4.090   5.348
14516TIP3    H243426   5.212   3.954   5.408
14517TIP3   OH243427   5.244   4.324   5.967
14517TIP3    H143428   5.248   4.227   5.961
14517TIP3    H243429   5.228   4.338   6.063
14518TIP3   OH243430   3.867   4.399   6.713
14518TIP3    H143431   3.865   4.367   6.620
14518TIP3    H243432   3.964   4.401   6.729
14519TIP3   OH243433   5.530   4.750   6.823
14519TIP3    H143434   5.601   4.683   6.814
14519TIP3    H243435   5.558   4.819   6.762
14520TIP3   OH243436   5.716   4.556   6.839
14520TIP3    H143437   5.640   4.506   6.875
14520TIP3    H243438   5.788   4.491   6.854
14521TIP3   OH243439   5.181   3.780   5.404
14521TIP3    H143440   5.252   3.751   5.465
14521TIP3    H243441   5.104   3.726   5.430
14522TIP3   OH243442   5.238   4.042   5.862
14522TIP3    H143443   5.278   3.953   5.877
14522TIP3    H243444   5.295   4.074   5.790
14523TIP3   OH243445   5.400   4.213   6.355
14523TIP3    H143446   5.486   4.241   6.317
14523TIP3    H243447   5.410   4.250   6.445
14524TIP3   OH243448   5.468   4.358   6.588
14524TIP3    H143449   5.390   4.390   6.638
14524TIP3    H243450   5.498   4.441   6.544
14525TIP3   OH243451   4.084   4.087   7.390
14525TIP3    H143452   4.182   4.079   7.390
14525TIP3    H243453   4.060   4.001   7.430
14526TIP3   OH243454   5.927   3.954   7.146
14526TIP3    H143455   5.979   3.885   7.099
14526TIP3    H243456   5.892   4.007   7.070
14527TIP3   OH243457   5.347   3.791   5.898
14527TIP3    H143458   5.393   3.774   5.983
14527TIP3    H243459   5.285   3.715   5.896
14528TIP3   OH243460   4.045   3.779   6.721
14528TIP3    H143461   4.107   3.704   6.729
14528TIP3    H243462   4.107   3.853   6.713
14529TIP3   OH243463   3.849   4.052   6.792
14529TIP3    H143464   3.897   4.042   6.707
14529TIP3    H243465   3.881   4.138   6.822
14530TIP3   OH243466   5.792   4.088   6.953
14530TIP3    H143467   5.705   4.130   6.971
14530TIP3    H243468   5.763   4.018   6.892
14531TIP3   OH243469   5.429   3.725   5.534
14531TIP3    H143470   5.467   3.655   5.478
14531TIP3    H243471   5.493   3.798   5.523
14532TIP3   OH243472   3.832   3.555   6.295
14532TIP3    H143473   3.738   3.552   6.318
14532TIP3    H243474   3.831   3.612   6.215
14533TIP3   OH243475   4.052   3.635   7.107
14533TIP3    H143476   4.001   3.629   7.190
14533TIP3    H243477   3.985   3.674   7.047
14534TIP3   OH243478   4.092   5.067   7.191
14534TIP3    H143479   4.003   5.037   7.165
14534TIP3    H243480   4.097   5.035   7.281
14535TIP3   OH243481   4.272   5.097   6.736
14535TIP3    H143482   4.222   5.170   6.695
14535TIP3    H243483   4.356   5.109   6.688
14536TIP3   OH243484   4.715   5.339   6.870
14536TIP3    H143485   4.759   5.342   6.958
14536TIP3    H243486   4.780   5.390   6.816
14537TIP3   OH243487   4.894   5.490   6.728
14537TIP3    H143488   4.965   5.439   6.686
14537TIP3    H243489   4.945   5.548   6.788
14538TIP3   OH243490   5.690   3.853   6.826
14538TIP3    H143491   5.598   3.850   6.794
14538TIP3    H243492   5.717   3.759   6.814
14539TIP3   OH243493   3.948   5.353   6.754
14539TIP3    H143494   3.859   5.386   6.728
14539TIP3    H243495   3.953   5.386   6.844
14540TIP3   OH243496   4.184   5.331   6.613
14540TIP3    H143497   4.097   5.343   6.657
14540TIP3    H243498   4.164   5.362   6.523
14541TIP3   OH243499   4.608   5.357   6.413
14541TIP3    H143500   4.541   5.377   6.344
14541TIP3    H243501   4.621   5.446   6.453
14542TIP3   OH243502   4.877   5.300   6.461
14542TIP3    H143503   4.782   5.313   6.442
14542TIP3    H243504   4.916   5.378   6.419
14543TIP3   OH243505   5.088   5.493   6.378
14543TIP3    H143506   5.071   5.577   6.331
14543TIP3    H243507   5.109   5.433   6.304
14544TIP3   OH243508   3.858   5.146   6.501
14544TIP3    H143509   3.885   5.119   6.591
14544TIP3    H243510   3.929   5.103   6.449
14545TIP3   OH243511   4.051   5.017   6.358
14545TIP3    H143512   4.068   4.932   6.405
14545TIP3    H243513   4.142   5.053   6.352
14546TIP3   OH243514   4.318   5.113   6.358
14546TIP3    H143515   4.349   5.022   6.342
14546TIP3    H243516   4.362   5.131   6.443
14547TIP3   OH243517   4.877   3.763   6.413
14547TIP3    H143518   4.869   3.753   6.511
14547TIP3    H243519   4.960   3.716   6.400
14548TIP3   OH243520   5.420   3.646   6.351
14548TIP3    H143521   5.453   3.700   6.276
14548TIP3    H243522   5.324   3.662   6.347
14549TIP3   OH243523   5.513   3.748   6.115
14549TIP3    H143524   5.587   3.698   6.074
14549TIP3    H243525   5.545   3.840   6.101
14550TIP3   OH243526   4.145   3.474   6.464
14550TIP3    H143527   4.053   3.442   6.464
14550TIP3    H243528   4.194   3.391   6.453
14551TIP3   OH243529   3.931   3.345   6.109
14551TIP3    H143530   3.960   3.403   6.037
14551TIP3    H243531   3.901   3.409   6.176
14552TIP3   OH243532   4.581   3.507   6.336
14552TIP3    H143533   4.638   3.563   6.281
14552TIP3    H243534   4.616   3.528   6.425
14553TIP3   OH243535   5.143   3.658   6.329
14553TIP3    H143536   5.121   3.624   6.241
14553TIP3    H243537   5.122   3.579   6.385
14554TIP3   OH243538   5.163   3.578   5.890
14554TIP3    H143539   5.078   3.624   5.902
14554TIP3    H243540   5.146   3.493   5.936
14555TIP3   OH243541   3.642   4.923   5.895
14555TIP3    H143542   3.570   4.871   5.856
14555TIP3    H243543   3.624   5.011   5.859
14556TIP3   OH243544   4.046   3.506   5.875
14556TIP3    H143545   4.094   3.443   5.818
14556TIP3    H243546   4.119   3.560   5.911
14557TIP3   OH243547   4.560   3.681   5.974
14557TIP3    H143548   4.620   3.637   6.036
14557TIP3    H243549   4.577   3.774   5.998
14558TIP3   OH243550   4.422   5.115   5.472
14558TIP3    H143551   4.519   5.122   5.452
14558TIP3    H243552   4.401   5.036   5.422
14559TIP3   OH243553   4.350   3.757   7.355
14559TIP3    H143554   4.318   3.686   7.413
14559TIP3    H243555   4.445   3.759   7.379
14560TIP3   OH243556   4.600   3.757   7.473
14560TIP3    H143557   4.682   3.732   7.428
14560TIP3    H243558   4.590   3.684   7.538
14561TIP3   OH243559   5.426   3.822   7.264
14561TIP3    H143560   5.443   3.787   7.354
14561TIP3    H243561   5.512   3.811   7.220
14562TIP3   OH243562   5.364   5.369   6.751
14562TIP3    H143563   5.283   5.338   6.706
14562TIP3    H243564   5.344   5.465   6.757
14563TIP3   OH243565   6.630   4.740   5.519
14563TIP3    H143566   6.602   4.832   5.498
14563TIP3    H243567   6.553   4.691   5.486
14564TIP3   OH243568   6.632   4.739   5.899
14564TIP3    H143569   6.660   4.711   5.988
14564TIP3    H243570   6.586   4.661   5.866
14565TIP3   OH243571   5.926   4.636   6.265
14565TIP3    H143572   5.958   4.569   6.328
14565TIP3    H243573   6.004   4.693   6.259
14566TIP3   OH243574   6.874   5.040   5.582
14566TIP3    H143575   6.856   4.975   5.650
14566TIP3    H243576   6.900   5.118   5.634
14567TIP3   OH243577   5.875   5.058   6.013
14567TIP3    H143578   5.876   4.959   6.006
14567TIP3    H243579   5.968   5.074   5.988
14568TIP3   OH243580   5.606   4.251   5.777
14568TIP3    H143581   5.554   4.333   5.790
14568TIP3    H243582   5.538   4.194   5.738
14569TIP3   OH243583   5.668   4.538   5.949
14569TIP3    H143584   5.715   4.460   5.985
14569TIP3    H243585   5.721   4.558   5.870
14570TIP3   OH243586   6.520   5.504   5.597
14570TIP3    H143587   6.568   5.432   5.550
14570TIP3    H243588   6.513   5.468   5.686
14571TIP3   OH243589   6.427   4.966   5.950
14571TIP3    H143590   6.464   4.892   5.899
14571TIP3    H243591   6.510   5.011   5.974
14572TIP3   OH243592   7.439   4.281   5.944
14572TIP3    H143593   7.463   4.362   5.995
14572TIP3    H243594   7.458   4.309   5.853
14573TIP3   OH243595   6.842   4.468   5.981
14573TIP3    H143596   6.881   4.381   6.001
14573TIP3    H243597   6.808   4.453   5.891
14574TIP3   OH243598   6.179   4.127   5.946
14574TIP3    H143599   6.156   4.200   5.884
14574TIP3    H243600   6.130   4.053   5.903
14575TIP3   OH243601   6.872   4.217   5.570
14575TIP3    H143602   6.945   4.202   5.634
14575TIP3    H243603   6.921   4.254   5.495
14576TIP3   OH243604   5.811   4.329   6.054
14576TIP3    H143605   5.894   4.308   6.101
14576TIP3    H243606   5.822   4.273   5.975
14577TIP3   OH243607   6.251   4.527   5.845
14577TIP3    H143608   6.345   4.501   5.860
14577TIP3    H243609   6.211   4.444   5.814
14578TIP3   OH243610   7.492   4.483   6.116
14578TIP3    H143611   7.414   4.542   6.104
14578TIP3    H243612   7.538   4.524   6.191
14579TIP3   OH243613   6.174   4.110   6.382
14579TIP3    H143614   6.114   4.147   6.314
14579TIP3    H243615   6.122   4.128   6.462
14580TIP3   OH243616   6.523   4.961   5.389
14580TIP3    H143617   6.483   4.941   5.302
14580TIP3    H243618   6.477   5.044   5.411
14581TIP3   OH243619   6.281   4.886   6.177
14581TIP3    H143620   6.217   4.951   6.214
14581TIP3    H243621   6.322   4.936   6.105
14582TIP3   OH243622   7.085   4.219   5.742
14582TIP3    H143623   7.066   4.174   5.825
14582TIP3    H243624   7.135   4.298   5.771
14583TIP3   OH243625   6.046   4.226   6.165
14583TIP3    H143626   6.108   4.299   6.187
14583TIP3    H243627   6.095   4.184   6.090
14584TIP3   OH243628   6.108   5.080   6.274
14584TIP3    H143629   6.082   5.165   6.235
14584TIP3    H243630   6.031   5.064   6.332
14585TIP3   OH243631   5.505   4.766   5.513
14585TIP3    H143632   5.470   4.792   5.427
14585TIP3    H243633   5.538   4.851   5.548
14586TIP3   OH243634   6.943   5.284   5.749
14586TIP3    H143635   6.853   5.276   5.789
14586TIP3    H243636   6.936   5.371   5.704
14587TIP3   OH243637   7.234   4.182   6.112
14587TIP3    H143638   7.147   4.214   6.085
14587TIP3    H243639   7.292   4.216   6.040
14588TIP3   OH243640   6.533   3.830   6.098
14588TIP3    H143641   6.517   3.735   6.112
14588TIP3    H243642   6.454   3.868   6.142
14589TIP3   OH243643   6.645   5.331   5.424
14589TIP3    H143644   6.695   5.250   5.402
14589TIP3    H243645   6.704   5.398   5.383
14590TIP3   OH243646   6.787   5.116   5.330
14590TIP3    H143647   6.747   5.037   5.291
14590TIP3    H243648   6.823   5.081   5.414
14591TIP3   OH243649   7.170   5.198   6.094
14591TIP3    H143650   7.158   5.122   6.034
14591TIP3    H243651   7.151   5.274   6.035
14592TIP3   OH243652   6.460   4.591   5.351
14592TIP3    H143653   6.378   4.642   5.332
14592TIP3    H243654   6.504   4.592   5.264
14593TIP3   OH243655   6.420   4.374   5.068
14593TIP3    H143656   6.487   4.426   5.116
14593TIP3    H243657   6.478   4.312   5.020
14594TIP3   OH243658   7.365   4.835   5.938
14594TIP3    H143659   7.282   4.887   5.943
14594TIP3    H243660   7.394   4.859   5.848
14595TIP3   OH243661   6.807   4.674   5.323
14595TIP3    H143662   6.751   4.700   5.400
14595TIP3    H243663   6.890   4.649   5.368
14596TIP3   OH243664   7.041   4.715   6.234
14596TIP3    H143665   7.038   4.800   6.282
14596TIP3    H243666   6.954   4.718   6.189
14597TIP3   OH243667   6.038   4.673   5.739
14597TIP3    H143668   5.996   4.615   5.672
14597TIP3    H243669   6.115   4.619   5.767
14598TIP3   OH243670   6.160   5.083   5.891
14598TIP3    H143671   6.143   5.043   5.804
14598TIP3    H243672   6.252   5.053   5.909
14599TIP3   OH243673   6.179   4.643   6.094
14599TIP3    H143674   6.209   4.624   6.003
14599TIP3    H243675   6.220   4.730   6.113
14600TIP3   OH243676   6.703   5.281   5.870
14600TIP3    H143677   6.687   5.362   5.922
14600TIP3    H243678   6.687   5.209   5.935
14601TIP3   OH243679   6.314   5.199   6.418
14601TIP3    H143680   6.254   5.263   6.464
14601TIP3    H243681   6.248   5.146   6.369
14602TIP3   OH243682   6.651   4.529   5.149
14602TIP3    H143683   6.708   4.591   5.201
14602TIP3    H243684   6.674   4.555   5.057
14603TIP3   OH243685   6.068   4.755   6.518
14603TIP3    H143686   6.074   4.842   6.563
14603TIP3    H243687   5.973   4.737   6.528
14604TIP3   OH243688   6.391   5.212   5.423
14604TIP3    H143689   6.470   5.266   5.442
14604TIP3    H243690   6.330   5.278   5.386
14605TIP3   OH243691   6.107   5.367   6.502
14605TIP3    H143692   6.069   5.364   6.413
14605TIP3    H243693   6.029   5.347   6.559
14606TIP3   OH243694   7.163   3.773   5.197
14606TIP3    H143695   7.082   3.795   5.248
14606TIP3    H243696   7.177   3.855   5.146
14607TIP3   OH243697   5.905   4.515   5.546
14607TIP3    H143698   5.842   4.562   5.487
14607TIP3    H243699   5.862   4.430   5.554
14608TIP3   OH243700   6.961   5.144   4.745
14608TIP3    H143701   6.952   5.241   4.733
14608TIP3    H243702   7.051   5.131   4.712
14609TIP3   OH243703   5.688   4.899   6.452
14609TIP3    H143704   5.622   4.877   6.383
14609TIP3    H243705   5.724   4.812   6.477
14610TIP3   OH243706   7.408   5.544   6.142
14610TIP3    H143707   7.404   5.447   6.153
14610TIP3    H243708   7.324   5.571   6.185
14611TIP3   OH243709   6.513   5.329   6.274
14611TIP3    H143710   6.512   5.422   6.306
14611TIP3    H243711   6.441   5.290   6.329
14612TIP3   OH243712   6.271   5.458   5.228
14612TIP3    H143713   6.225   5.440   5.144
14612TIP3    H243714   6.241   5.548   5.249
14613TIP3   OH243715   5.707   5.310   5.615
14613TIP3    H143716   5.776   5.278   5.676
14613TIP3    H243717   5.655   5.229   5.601
14614TIP3   OH243718   6.472   5.341   4.885
14614TIP3    H143719   6.539   5.284   4.841
14614TIP3    H243720   6.513   5.355   4.974
14615TIP3   OH243721   6.526   5.410   5.144
14615TIP3    H143722   6.437   5.419   5.186
14615TIP3    H243723   6.577   5.369   5.216
14616TIP3   OH243724   7.295   4.674   6.401
14616TIP3    H143725   7.209   4.685   6.356
14616TIP3    H243726   7.305   4.577   6.401
14617TIP3   OH243727   5.897   5.077   6.443
14617TIP3    H143728   5.946   5.061   6.527
14617TIP3    H243729   5.821   5.016   6.451
14618TIP3   OH243730   6.292   3.906   6.222
14618TIP3    H143731   6.203   3.875   6.197
14618TIP3    H243732   6.267   3.988   6.269
14619TIP3   OH243733   6.824   4.021   6.418
14619TIP3    H143734   6.891   3.994   6.484
14619TIP3    H243735   6.739   4.001   6.463
14620TIP3   OH243736   7.067   4.451   6.337
14620TIP3    H143737   7.017   4.447   6.421
14620TIP3    H243738   7.039   4.537   6.300
14621TIP3   OH243739   6.725   4.575   4.892
14621TIP3    H143740   6.692   4.553   4.803
14621TIP3    H243741   6.804   4.626   4.869
14622TIP3   OH243742   6.441   3.951   5.195
14622TIP3    H143743   6.406   3.952   5.286
14622TIP3    H243744   6.397   3.871   5.161
14623TIP3   OH243745   6.225   4.420   6.242
14623TIP3    H143746   6.173   4.440   6.323
14623TIP3    H243747   6.208   4.501   6.189
14624TIP3   OH243748   6.107   4.307   5.756
14624TIP3    H143749   6.014   4.281   5.773
14624TIP3    H243750   6.120   4.266   5.667
14625TIP3   OH243751   6.598   4.394   5.484
14625TIP3    H143752   6.544   4.465   5.443
14625TIP3    H243753   6.651   4.364   5.407
14626TIP3   OH243754   6.772   4.671   6.569
14626TIP3    H143755   6.748   4.599   6.632
14626TIP3    H243756   6.865   4.686   6.593
14627TIP3   OH243757   6.756   4.422   5.723
14627TIP3    H143758   6.695   4.454   5.653
14627TIP3    H243759   6.786   4.340   5.679
14628TIP3   OH243760   6.043   4.450   6.450
14628TIP3    H143761   6.064   4.514   6.520
14628TIP3    H243762   6.029   4.368   6.501
14629TIP3   OH243763   6.095   3.928   5.161
14629TIP3    H143764   6.082   3.925   5.258
14629TIP3    H243765   6.017   3.979   5.134
14630TIP3   OH243766   5.635   3.974   6.031
14630TIP3    H143767   5.712   4.003   6.083
14630TIP3    H243768   5.674   3.939   5.949
14631TIP3   OH243769   5.610   3.954   5.552
14631TIP3    H143770   5.651   3.994   5.471
14631TIP3    H243771   5.547   4.026   5.574
14632TIP3   OH243772   6.768   4.668   6.146
14632TIP3    H143773   6.799   4.596   6.087
14632TIP3    H243774   6.737   4.615   6.223
14633TIP3   OH243775   6.435   4.126   5.818
14633TIP3    H143776   6.350   4.126   5.867
14633TIP3    H243777   6.499   4.131   5.890
14634TIP3   OH243778   5.868   4.186   5.826
14634TIP3    H143779   5.774   4.194   5.799
14634TIP3    H243780   5.889   4.094   5.802
14635TIP3   OH243781   6.140   4.181   5.513
14635TIP3    H143782   6.232   4.200   5.488
14635TIP3    H243783   6.089   4.204   5.432
14636TIP3   OH243784   6.926   4.203   6.017
14636TIP3    H143785   6.894   4.216   6.109
14636TIP3    H243786   6.858   4.143   5.983
14637TIP3   OH243787   5.980   4.212   5.296
14637TIP3    H143788   5.908   4.168   5.247
14637TIP3    H243789   6.031   4.249   5.222
14638TIP3   OH243790   7.097   5.892   6.238
14638TIP3    H143791   7.094   5.918   6.144
14638TIP3    H243792   7.174   5.943   6.270
14639TIP3   OH243793   6.055   5.001   6.662
14639TIP3    H143794   6.134   5.034   6.709
14639TIP3    H243795   5.990   5.002   6.735
14640TIP3   OH243796   6.518   4.457   5.915
14640TIP3    H143797   6.591   4.417   5.866
14640TIP3    H243798   6.526   4.415   6.003
14641TIP3   OH243799   6.043   3.943   5.795
14641TIP3    H143800   6.006   3.865   5.840
14641TIP3    H243801   6.085   3.905   5.717
14642TIP3   OH243802   6.494   4.354   6.205
14642TIP3    H143803   6.404   4.389   6.219
14642TIP3    H243804   6.550   4.415   6.256
14643TIP3   OH243805   6.230   4.743   5.303
14643TIP3    H143806   6.157   4.678   5.291
14643TIP3    H243807   6.211   4.776   5.394
14644TIP3   OH243808   7.132   4.979   5.929
14644TIP3    H143809   7.156   5.030   5.849
14644TIP3    H243810   7.045   4.940   5.905
14645TIP3   OH243811   6.690   4.057   5.160
14645TIP3    H143812   6.593   4.041   5.169
14645TIP3    H243813   6.699   4.152   5.184
14646TIP3   OH243814   6.631   5.063   6.297
14646TIP3    H143815   6.650   5.043   6.390
14646TIP3    H243816   6.592   5.152   6.302
14647TIP3   OH243817   6.759   4.303   5.265
14647TIP3    H143818   6.855   4.312   5.279
14647TIP3    H243819   6.737   4.382   5.212
14648TIP3   OH243820   5.923   4.776   5.976
14648TIP3    H143821   5.961   4.745   5.891
14648TIP3    H243822   5.957   4.709   6.037
14649TIP3   OH243823   6.386   4.901   5.146
14649TIP3    H143824   6.334   4.984   5.140
14649TIP3    H243825   6.325   4.844   5.198
14650TIP3   OH243826   5.804   4.686   6.588
14650TIP3    H143827   5.822   4.672   6.683
14650TIP3    H243828   5.734   4.620   6.572
14651TIP3   OH243829   6.528   4.801   6.610
14651TIP3    H143830   6.467   4.743   6.560
14651TIP3    H243831   6.615   4.768   6.580
14652TIP3   OH243832   6.792   5.318   6.194
14652TIP3    H143833   6.695   5.321   6.205
14652TIP3    H243834   6.819   5.372   6.271
14653TIP3   OH243835   7.206   4.395   5.101
14653TIP3    H143836   7.143   4.350   5.040
14653TIP3    H243837   7.201   4.484   5.062
14654TIP3   OH243838   7.420   5.250   6.184
14654TIP3    H143839   7.322   5.247   6.175
14654TIP3    H243840   7.446   5.223   6.093
14655TIP3   OH243841   6.904   5.213   5.012
14655TIP3    H143842   6.873   5.144   5.072
14655TIP3    H243843   6.908   5.167   4.926
14656TIP3   OH243844   6.897   4.842   5.849
14656TIP3    H143845   6.803   4.817   5.862
14656TIP3    H243846   6.931   4.763   5.803
14657TIP3   OH243847   6.024   5.072   5.605
14657TIP3    H143848   6.029   5.152   5.549
14657TIP3    H243849   5.934   5.042   5.589
14658TIP3   OH243850   5.593   4.371   5.306
14658TIP3    H143851   5.633   4.459   5.317
14658TIP3    H243852   5.511   4.381   5.360
14659TIP3   OH243853   6.165   4.837   5.548
14659TIP3    H143854   6.132   4.927   5.566
14659TIP3    H243855   6.125   4.787   5.622
14660TIP3   OH243856   6.294   5.414   6.072
14660TIP3    H143857   6.333   5.485   6.019
14660TIP3    H243858   6.372   5.382   6.121
14661TIP3   OH243859   5.944   5.312   5.455
14661TIP3    H143860   5.855   5.329   5.490
14661TIP3    H243861   5.982   5.402   5.457
14662TIP3   OH243862   6.682   5.048   6.028
14662TIP3    H143863   6.672   5.048   6.126
14662TIP3    H243864   6.762   4.997   6.016
14663TIP3   OH243865   6.656   4.942   4.903
14663TIP3    H143866   6.702   4.918   4.986
14663TIP3    H243867   6.565   4.919   4.923
14664TIP3   OH243868   6.931   5.582   6.078
14664TIP3    H143869   6.851   5.527   6.069
14664TIP3    H243870   6.917   5.648   6.006
14665TIP3   OH243871   6.993   5.418   4.725
14665TIP3    H143872   7.037   5.494   4.683
14665TIP3    H243873   6.914   5.465   4.761
14666TIP3   OH243874   6.014   4.194   6.596
14666TIP3    H143875   5.917   4.200   6.609
14666TIP3    H243876   6.039   4.132   6.667
14667TIP3   OH243877   6.814   4.875   5.127
14667TIP3    H143878   6.805   4.809   5.199
14667TIP3    H243879   6.911   4.875   5.114
14668TIP3   OH243880   5.961   4.929   5.196
14668TIP3    H143881   6.045   4.902   5.235
14668TIP3    H243882   5.973   5.025   5.184
14669TIP3   OH243883   5.708   4.622   5.386
14669TIP3    H143884   5.639   4.662   5.443
14669TIP3    H243885   5.716   4.691   5.317
14670TIP3   OH243886   6.854   4.256   6.276
14670TIP3    H143887   6.932   4.294   6.320
14670TIP3    H243888   6.837   4.176   6.330
14671TIP3   OH243889   6.737   4.006   5.440
14671TIP3    H143890   6.718   4.032   5.348
14671TIP3    H243891   6.773   4.090   5.478
14672TIP3   OH243892   6.234   5.125   5.126
14672TIP3    H143893   6.146   5.149   5.162
14672TIP3    H243894   6.255   5.207   5.079
14673TIP3   OH243895   6.426   4.185   5.545
14673TIP3    H143896   6.488   4.259   5.527
14673TIP3    H243897   6.427   4.181   5.642
14674TIP3   OH243898   6.690   4.506   6.353
14674TIP3    H143899   6.710   4.562   6.431
14674TIP3    H243900   6.746   4.428   6.369
14675TIP3   OH243901   6.568   3.916   5.650
14675TIP3    H143902   6.553   3.995   5.705
14675TIP3    H243903   6.628   3.953   5.581
14676TIP3   OH243904   5.983   5.204   5.198
14676TIP3    H143905   5.947   5.270   5.135
14676TIP3    H243906   5.963   5.245   5.285
14677TIP3   OH243907   6.078   3.912   5.439
14677TIP3    H143908   6.073   4.004   5.472
14677TIP3    H243909   6.174   3.897   5.446
14678TIP3   OH243910   7.331   4.401   6.342
14678TIP3    H143911   7.233   4.399   6.342
14678TIP3    H243912   7.350   4.382   6.249
14679TIP3   OH243913   6.983   4.600   5.722
14679TIP3    H143914   6.905   4.542   5.734
14679TIP3    H243915   7.052   4.552   5.772
14680TIP3   OH243916   5.699   4.833   5.210
14680TIP3    H143917   5.776   4.893   5.205
14680TIP3    H243918   5.715   4.781   5.129
14681TIP3   OH243919   5.640   4.102   5.324
14681TIP3    H143920   5.641   4.200   5.322
14681TIP3    H243921   5.556   4.082   5.280
14682TIP3   OH243922   6.951   5.555   5.671
14682TIP3    H143923   6.908   5.602   5.596
14682TIP3    H243924   7.045   5.575   5.651
14683TIP3   OH243925   6.030   3.825   6.198
14683TIP3    H143926   5.995   3.793   6.112
14683TIP3    H243927   6.017   3.747   6.255
14684TIP3   OH243928   5.572   5.068   5.591
14684TIP3    H143929   5.480   5.072   5.621
14684TIP3    H243930   5.558   5.089   5.496
14685TIP3   OH243931   5.723   5.585   6.649
14685TIP3    H143932   5.808   5.587   6.698
14685TIP3    H243933   5.704   5.490   6.650
14686TIP3   OH243934   6.203   5.550   6.695
14686TIP3    H143935   6.298   5.535   6.703
14686TIP3    H243936   6.180   5.491   6.621
14687TIP3   OH243937   6.845   5.455   6.426
14687TIP3    H143938   6.836   5.387   6.496
14687TIP3    H243939   6.921   5.508   6.459
14688TIP3   OH243940   6.636   5.188   4.731
14688TIP3    H143941   6.653   5.103   4.775
14688TIP3    H243942   6.659   5.167   4.638
14689TIP3   OH243943   5.853   4.991   6.851
14689TIP3    H143944   5.870   4.895   6.854
14689TIP3    H243945   5.765   4.994   6.808
14690TIP3   OH243946   5.824   4.638   5.041
14690TIP3    H143947   5.882   4.614   5.115
14690TIP3    H243948   5.887   4.648   4.969
14691TIP3   OH243949   6.462   5.077   6.624
14691TIP3    H143950   6.419   5.094   6.538
14691TIP3    H243951   6.491   4.983   6.615
14692TIP3   OH243952   6.338   4.849   4.881
14692TIP3    H143953   6.350   4.863   4.977
14692TIP3    H243954   6.352   4.752   4.873
14693TIP3   OH243955   6.954   5.084   6.231
14693TIP3    H143956   7.027   5.131   6.186
14693TIP3    H243957   6.882   5.148   6.219
14694TIP3   OH243958   5.971   4.727   6.833
14694TIP3    H143959   6.044   4.667   6.813
14694TIP3    H243960   5.997   4.759   6.922
14695TIP3   OH243961   6.042   4.545   5.268
14695TIP3    H143962   6.008   4.503   5.349
14695TIP3    H243963   6.075   4.468   5.217
14696TIP3   OH243964   6.309   4.612   6.496
14696TIP3    H143965   6.230   4.670   6.498
14696TIP3    H243966   6.355   4.645   6.416
14697TIP3   OH243967   6.141   4.337   5.114
14697TIP3    H143968   6.110   4.331   5.021
14697TIP3    H243969   6.238   4.346   5.100
14698TIP3   OH243970   6.822   5.012   6.628
14698TIP3    H143971   6.902   4.988   6.579
14698TIP3    H243972   6.821   4.945   6.699
14699TIP3   OH243973   6.961   4.668   4.771
14699TIP3    H143974   6.941   4.628   4.684
14699TIP3    H243975   6.931   4.761   4.752
14700TIP3   OH243976   6.432   4.399   6.620
14700TIP3    H143977   6.430   4.319   6.564
14700TIP3    H243978   6.388   4.466   6.563
14701TIP3   OH243979   6.434   4.184   6.427
14701TIP3    H143980   6.459   4.226   6.343
14701TIP3    H243981   6.340   4.161   6.410
14702TIP3   OH243982   6.461   4.721   6.300
14702TIP3    H143983   6.543   4.732   6.251
14702TIP3    H243984   6.403   4.788   6.258
14703TIP3   OH243985   7.044   4.688   6.682
14703TIP3    H143986   7.094   4.606   6.689
14703TIP3    H243987   7.109   4.748   6.643
14704TIP3   OH243988   7.083   4.942   6.420
14704TIP3    H143989   7.025   4.995   6.361
14704TIP3    H243990   7.170   4.960   6.378
14705TIP3   OH243991   6.311   4.509   6.852
14705TIP3    H143992   6.241   4.443   6.865
14705TIP3    H243993   6.343   4.486   6.763
14706TIP3   OH243994   6.565   3.949   6.495
14706TIP3    H143995   6.517   4.031   6.472
14706TIP3    H243996   6.495   3.882   6.483
14707TIP3   OH243997   6.692   4.453   6.711
14707TIP3    H143998   6.677   4.442   6.806
14707TIP3    H243999   6.602   4.429   6.678
14708TIP3   OH244000   6.931   4.401   6.565
14708TIP3    H144001   6.854   4.404   6.625
14708TIP3    H244002   7.003   4.371   6.624
14709TIP3   OH244003   7.166   4.345   6.717
14709TIP3    H144004   7.175   4.249   6.735
14709TIP3    H244005   7.159   4.384   6.807
14710TIP3   OH244006   6.149   4.291   6.903
14710TIP3    H144007   6.153   4.199   6.868
14710TIP3    H244008   6.182   4.277   6.994
14711TIP3   OH244009   6.661   3.958   6.752
14711TIP3    H144010   6.727   3.887   6.745
14711TIP3    H244011   6.619   3.954   6.664
14712TIP3   OH244012   6.724   4.173   6.912
14712TIP3    H144013   6.702   4.103   6.847
14712TIP3    H244014   6.647   4.233   6.905
14713TIP3   OH244015   5.941   5.404   5.011
14713TIP3    H144016   6.037   5.403   4.998
14713TIP3    H244017   5.913   5.451   4.930
14714TIP3   OH244018   5.325   5.381   5.641
14714TIP3    H144019   5.252   5.344   5.588
14714TIP3    H244020   5.339   5.311   5.705
14715TIP3   OH244021   7.204   5.646   5.627
14715TIP3    H144022   7.229   5.683   5.714
14715TIP3    H244023   7.264   5.692   5.567
14716TIP3   OH244024   7.231   5.669   5.910
14716TIP3    H144025   7.190   5.580   5.906
14716TIP3    H244026   7.309   5.650   5.964
14717TIP3   OH244027   7.289   5.334   6.492
14717TIP3    H144028   7.210   5.347   6.549
14717TIP3    H244029   7.324   5.425   6.489
14718TIP3   OH244030   7.096   4.858   5.102
14718TIP3    H144031   7.163   4.924   5.075
14718TIP3    H244032   7.139   4.818   5.180
14719TIP3   OH244033   7.224   4.720   5.305
14719TIP3    H144034   7.155   4.681   5.362
14719TIP3    H244035   7.282   4.766   5.369
14720TIP3   OH244036   7.277   5.117   5.740
14720TIP3    H144037   7.329   5.056   5.685
14720TIP3    H244038   7.269   5.195   5.681
14721TIP3   OH244039   7.109   5.415   5.936
14721TIP3    H144040   7.039   5.462   5.985
14721TIP3    H244041   7.057   5.370   5.865
14722TIP3   OH244042   7.162   4.632   4.954
14722TIP3    H144043   7.091   4.634   4.887
14722TIP3    H244044   7.136   4.710   5.008
14723TIP3   OH244045   7.034   4.305   4.910
14723TIP3    H144046   6.992   4.349   4.836
14723TIP3    H244047   7.007   4.212   4.895
14724TIP3   OH244048   7.039   4.581   5.453
14724TIP3    H144049   7.042   4.484   5.447
14724TIP3    H244050   7.023   4.596   5.549
14725TIP3   OH244051   5.661   4.660   6.197
14725TIP3    H144052   5.661   4.624   6.106
14725TIP3    H244053   5.758   4.659   6.216
14726TIP3   OH244054   7.325   5.005   6.309
14726TIP3    H144055   7.400   4.943   6.303
14726TIP3    H244056   7.350   5.076   6.248
14727TIP3   OH244057   7.518   4.818   6.369
14727TIP3    H144058   7.435   4.766   6.379
14727TIP3    H244059   7.582   4.746   6.353
14728TIP3   OH244060   6.977   4.038   4.892
14728TIP3    H144061   7.050   4.009   4.950
14728TIP3    H244062   6.902   3.981   4.918
14729TIP3   OH244063   7.034   4.299   5.349
14729TIP3    H144064   7.075   4.210   5.363
14729TIP3    H244065   7.091   4.333   5.278
14730TIP3   OH244066   7.196   4.470   5.844
14730TIP3    H144067   7.280   4.500   5.805
14730TIP3    H244068   7.205   4.509   5.934
14731TIP3   OH244069   7.257   4.620   6.075
14731TIP3    H144070   7.179   4.655   6.124
14731TIP3    H244071   7.289   4.700   6.029
14732TIP3   OH244072   5.882   4.344   6.880
14732TIP3    H144073   5.979   4.335   6.878
14732TIP3    H244074   5.856   4.258   6.918
14733TIP3   OH244075   7.714   4.212   6.631
14733TIP3    H144076   7.772   4.148   6.587
14733TIP3    H244077   7.686   4.269   6.556
14734TIP3   OH244078   7.143   4.047   5.385
14734TIP3    H144079   7.189   4.031   5.470
14734TIP3    H244080   7.081   3.972   5.383
14735TIP3   OH244081   5.844   4.033   6.202
14735TIP3    H144082   5.907   3.959   6.215
14735TIP3    H244083   5.905   4.109   6.199
14736TIP3   OH244084   5.646   4.307   6.279
14736TIP3    H144085   5.693   4.300   6.194
14736TIP3    H244086   5.677   4.393   6.311
14737TIP3   OH244087   7.582   4.352   6.442
14737TIP3    H144088   7.490   4.386   6.447
14737TIP3    H244089   7.568   4.281   6.377
14738TIP3   OH244090   7.225   3.981   5.021
14738TIP3    H144091   7.264   3.911   4.965
14738TIP3    H244092   7.289   4.054   5.011
14739TIP3   OH244093   5.628   3.813   5.781
14739TIP3    H144094   5.534   3.808   5.806
14739TIP3    H244095   5.626   3.870   5.701
14740TIP3   OH244096   6.787   5.514   5.286
14740TIP3    H144097   6.838   5.500   5.203
14740TIP3    H244098   6.841   5.582   5.331
14741TIP3   OH244099   5.849   3.891   6.593
14741TIP3    H144100   5.798   3.884   6.676
14741TIP3    H244101   5.782   3.931   6.534
14742TIP3   OH244102   5.889   5.317   6.672
14742TIP3    H144103   5.798   5.290   6.653
14742TIP3    H244104   5.896   5.301   6.767
14743TIP3   OH244105   6.063   5.349   6.211
14743TIP3    H144106   6.024   5.433   6.179
14743TIP3    H244107   6.151   5.359   6.170
14744TIP3   OH244108   6.511   5.595   6.354
14744TIP3    H144109   6.553   5.596   6.443
14744TIP3    H244110   6.578   5.646   6.303
14745TIP3   OH244111   6.691   5.747   6.214
14745TIP3    H144112   6.763   5.697   6.173
14745TIP3    H244113   6.741   5.805   6.275
14746TIP3   OH244114   7.482   4.114   6.316
14746TIP3    H144115   7.391   4.121   6.281
14746TIP3    H244116   7.504   4.022   6.291
14747TIP3   OH244117   5.735   5.597   6.230
14747TIP3    H144118   5.646   5.637   6.218
14747TIP3    H244119   5.756   5.629   6.319
14748TIP3   OH244120   5.977   5.586   6.099
14748TIP3    H144121   5.890   5.602   6.141
14748TIP3    H244122   5.963   5.623   6.009
14749TIP3   OH244123   6.406   5.615   5.897
14749TIP3    H144124   6.337   5.635   5.831
14749TIP3    H244125   6.418   5.702   5.939
14750TIP3   OH244126   6.674   5.554   5.948
14750TIP3    H144127   6.580   5.571   5.929
14750TIP3    H244128   6.717   5.631   5.907
14751TIP3   OH244129   6.881   5.746   5.864
14751TIP3    H144130   6.866   5.832   5.817
14751TIP3    H244131   6.907   5.688   5.789
14752TIP3   OH244132   6.121   5.384   5.838
14752TIP3    H144133   6.131   5.288   5.824
14752TIP3    H244134   6.160   5.392   5.927
14753TIP3   OH244135   6.694   4.026   5.938
14753TIP3    H144136   6.647   3.957   5.989
14753TIP3    H244137   6.761   3.974   5.890
14754TIP3   OH244138   7.215   3.901   5.836
14754TIP3    H144139   7.250   3.957   5.763
14754TIP3    H244140   7.120   3.922   5.833
14755TIP3   OH244141   7.311   4.009   5.602
14755TIP3    H144142   7.383   3.957   5.560
14755TIP3    H244143   7.342   4.101   5.587
14756TIP3   OH244144   5.939   3.733   5.950
14756TIP3    H144145   5.847   3.700   5.950
14756TIP3    H244146   5.988   3.648   5.947
14757TIP3   OH244147   5.730   3.603   5.599
14757TIP3    H144148   5.755   3.661   5.525
14757TIP3    H244149   5.696   3.666   5.664
14758TIP3   OH244150   6.385   3.763   5.829
14758TIP3    H144151   6.443   3.817   5.773
14758TIP3    H244152   6.396   3.803   5.915
14759TIP3   OH244153   6.934   3.912   5.815
14759TIP3    H144154   6.923   3.877   5.725
14759TIP3    H244155   6.919   3.831   5.869
14760TIP3   OH244156   6.958   3.836   5.376
14760TIP3    H144157   6.874   3.883   5.391
14760TIP3    H244158   6.942   3.752   5.425
14761TIP3   OH244159   5.433   5.171   5.386
14761TIP3    H144160   5.352   5.135   5.344
14761TIP3    H244161   5.432   5.260   5.349
14762TIP3   OH244162   5.841   3.762   5.362
14762TIP3    H144163   5.890   3.701   5.304
14762TIP3    H244164   5.913   3.817   5.399
14763TIP3   OH244165   6.356   3.936   5.459
14763TIP3    H144166   6.414   3.891   5.523
14763TIP3    H244167   6.375   4.029   5.484
14764TIP3   OH244168   6.212   5.361   4.963
14764TIP3    H144169   6.305   5.373   4.935
14764TIP3    H244170   6.178   5.310   4.888
14765TIP3   OH244171   6.932   5.480   5.053
14765TIP3    H144172   6.926   5.383   5.039
14765TIP3    H244173   6.889   5.513   4.972
14766TIP3   OH244174   6.146   4.016   6.843
14766TIP3    H144175   6.112   3.945   6.899
14766TIP3    H244176   6.241   4.016   6.869
14767TIP3   OH244177   6.396   4.013   6.961
14767TIP3    H144178   6.479   3.984   6.920
14767TIP3    H244179   6.381   3.942   7.027
14768TIP3   OH244180   7.219   4.071   6.748
14768TIP3    H144181   7.240   4.041   6.840
14768TIP3    H244182   7.307   4.067   6.705
14769TIP3   OH244183   7.160   5.624   6.240
14769TIP3    H144184   7.081   5.593   6.191
14769TIP3    H244185   7.142   5.720   6.243
14770TIP3   OH244186   8.423   4.993   5.009
14770TIP3    H144187   8.398   5.086   4.990
14770TIP3    H244188   8.347   4.947   4.969
14771TIP3   OH244189   8.419   4.998   5.389
14771TIP3    H144190   8.455   4.971   5.476
14771TIP3    H244191   8.388   4.913   5.353
14772TIP3   OH244192   7.724   4.892   5.754
14772TIP3    H144193   7.756   4.826   5.819
14772TIP3    H244194   7.801   4.951   5.750
14773TIP3   OH244195   8.666   5.297   5.070
14773TIP3    H144196   8.659   5.232   5.141
14773TIP3    H244197   8.698   5.376   5.118
14774TIP3   OH244198   7.695   5.299   5.479
14774TIP3    H144199   7.686   5.202   5.483
14774TIP3    H244200   7.792   5.308   5.468
14775TIP3   OH244201   7.432   4.529   5.263
14775TIP3    H144202   7.366   4.600   5.276
14775TIP3    H244203   7.370   4.457   5.238
14776TIP3   OH244204   7.461   4.800   5.432
14776TIP3    H144205   7.522   4.728   5.457
14776TIP3    H244206   7.515   4.856   5.375
14777TIP3   OH244207   8.315   5.759   5.085
14777TIP3    H144208   8.361   5.689   5.035
14777TIP3    H244209   8.318   5.723   5.175
14778TIP3   OH244210   8.224   5.219   5.437
14778TIP3    H144211   8.268   5.145   5.391
14778TIP3    H244212   8.305   5.269   5.462
14779TIP3   OH244213   9.233   4.543   5.432
14779TIP3    H144214   9.263   4.625   5.476
14779TIP3    H244215   9.261   4.560   5.340
14780TIP3   OH244216   8.634   4.724   5.469
14780TIP3    H144217   8.680   4.640   5.489
14780TIP3    H244218   8.606   4.708   5.376
14781TIP3   OH244219   7.937   4.410   5.412
14781TIP3    H144220   8.004   4.430   5.345
14781TIP3    H244221   7.905   4.322   5.379
14782TIP3   OH244222   8.667   4.475   5.057
14782TIP3    H144223   8.740   4.461   5.121
14782TIP3    H244224   8.718   4.510   4.981
14783TIP3   OH244225   7.624   4.573   5.493
14783TIP3    H144226   7.692   4.554   5.562
14783TIP3    H244227   7.563   4.498   5.505
14784TIP3   OH244228   8.056   4.774   5.323
14784TIP3    H144229   8.149   4.779   5.356
14784TIP3    H244230   8.062   4.689   5.279
14785TIP3   OH244231   9.306   4.746   5.608
14785TIP3    H144232   9.226   4.798   5.587
14785TIP3    H244233   9.334   4.786   5.692
14786TIP3   OH244234   8.310   5.212   4.878
14786TIP3    H144235   8.278   5.201   4.787
14786TIP3    H244236   8.273   5.299   4.901
14787TIP3   OH244237   8.074   5.141   5.662
14787TIP3    H144238   8.014   5.210   5.699
14787TIP3    H244239   8.121   5.191   5.593
14788TIP3   OH244240   8.877   4.478   5.229
14788TIP3    H144241   8.874   4.432   5.314
14788TIP3    H244242   8.933   4.554   5.250
14789TIP3   OH244243   7.829   4.488   5.653
14789TIP3    H144244   7.894   4.551   5.692
14789TIP3    H244245   7.882   4.454   5.578
14790TIP3   OH244246   7.904   5.336   5.759
14790TIP3    H144247   7.881   5.422   5.719
14790TIP3    H244248   7.825   5.323   5.816
14791TIP3   OH244249   7.305   5.028   5.004
14791TIP3    H144250   7.276   5.061   4.918
14791TIP3    H244251   7.337   5.111   5.046
14792TIP3   OH244252   8.735   5.539   5.235
14792TIP3    H144253   8.644   5.535   5.272
14792TIP3    H244254   8.734   5.626   5.190
14793TIP3   OH244255   9.030   4.438   5.597
14793TIP3    H144256   8.945   4.474   5.570
14793TIP3    H244257   9.091   4.473   5.528
14794TIP3   OH244258   8.323   4.085   5.577
14794TIP3    H144259   8.316   3.990   5.597
14794TIP3    H244260   8.249   4.121   5.630
14795TIP3   OH244261   8.437   5.588   4.909
14795TIP3    H144262   8.489   5.507   4.887
14795TIP3    H244263   8.497   5.655   4.868
14796TIP3   OH244264   8.578   5.372   4.818
14796TIP3    H144265   8.555   5.291   4.771
14796TIP3    H244266   8.616   5.338   4.902
14797TIP3   OH244267   8.963   5.452   5.584
14797TIP3    H144268   8.956   5.378   5.520
14797TIP3    H244269   8.947   5.529   5.525
14798TIP3   OH244270   8.255   4.847   4.837
14798TIP3    H144271   8.177   4.902   4.814
14798TIP3    H244272   8.304   4.848   4.752
14799TIP3   OH244273   8.216   4.632   4.556
14799TIP3    H144274   8.283   4.683   4.604
14799TIP3    H244275   8.274   4.570   4.507
14800TIP3   OH244276   9.159   5.088   5.424
14800TIP3    H144277   9.078   5.144   5.429
14800TIP3    H244278   9.192   5.113   5.335
14801TIP3   OH244279   8.601   4.929   4.811
14801TIP3    H144280   8.549   4.956   4.889
14801TIP3    H244281   8.686   4.905   4.853
14802TIP3   OH244282   8.838   4.969   5.722
14802TIP3    H144283   8.838   5.055   5.770
14802TIP3    H244284   8.753   4.977   5.674
14803TIP3   OH244285   7.833   4.919   5.235
14803TIP3    H144286   7.801   4.871   5.158
14803TIP3    H244287   7.919   4.875   5.253
14804TIP3   OH244288   7.961   5.330   5.378
14804TIP3    H144289   7.948   5.304   5.286
14804TIP3    H244290   8.054   5.303   5.394
14805TIP3   OH244291   7.968   4.903   5.576
14805TIP3    H144292   8.009   4.885   5.490
14805TIP3    H244293   8.012   4.987   5.603
14806TIP3   OH244294   8.492   5.539   5.356
14806TIP3    H144295   8.483   5.620   5.408
14806TIP3    H244296   8.482   5.468   5.422
14807TIP3   OH244297   8.110   5.455   5.907
14807TIP3    H144298   8.050   5.520   5.950
14807TIP3    H244299   8.044   5.404   5.855
14808TIP3   OH244300   8.445   4.788   4.636
14808TIP3    H144301   8.504   4.847   4.687
14808TIP3    H244302   8.470   4.812   4.543
14809TIP3   OH244303   7.859   5.019   6.004
14809TIP3    H144304   7.863   5.107   6.046
14809TIP3    H244305   7.764   4.999   6.012
14810TIP3   OH244306   8.185   5.470   4.918
14810TIP3    H144307   8.267   5.522   4.927
14810TIP3    H244308   8.128   5.531   4.869
14811TIP3   OH244309   7.904   5.624   5.990
14811TIP3    H144310   7.871   5.625   5.898
14811TIP3    H244311   7.824   5.602   6.042
14812TIP3   OH244312   8.960   4.031   4.683
14812TIP3    H144313   8.879   4.052   4.734
14812TIP3    H244314   8.973   4.114   4.633
14813TIP3   OH244315   7.679   4.739   5.057
14813TIP3    H144316   7.649   4.818   5.006
14813TIP3    H244317   7.637   4.673   5.000
14814TIP3   OH244318   8.759   5.397   4.230
14814TIP3    H144319   8.766   5.495   4.218
14814TIP3    H244320   8.853   5.370   4.219
14815TIP3   OH244321   7.482   5.157   5.938
14815TIP3    H144322   7.416   5.136   5.868
14815TIP3    H244323   7.517   5.069   5.961
14816TIP3   OH244324   7.339   5.346   5.576
14816TIP3    H144325   7.434   5.346   5.562
14816TIP3    H244326   7.326   5.428   5.625
14817TIP3   OH244327   9.205   5.799   5.632
14817TIP3    H144328   9.203   5.702   5.643
14817TIP3    H244329   9.121   5.825   5.674
14818TIP3   OH244330   8.308   5.587   5.760
14818TIP3    H144331   8.307   5.679   5.792
14818TIP3    H244332   8.238   5.547   5.817
14819TIP3   OH244333   8.066   5.713   4.715
14819TIP3    H144334   8.024   5.693   4.629
14819TIP3    H244335   8.037   5.804   4.734
14820TIP3   OH244336   7.505   5.565   5.096
14820TIP3    H144337   7.555   5.555   5.180
14820TIP3    H244338   7.445   5.489   5.102
14821TIP3   OH244339   8.270   5.616   4.353
14821TIP3    H144340   8.328   5.546   4.317
14821TIP3    H244341   8.305   5.625   4.444
14822TIP3   OH244342   8.319   5.665   4.622
14822TIP3    H144343   8.232   5.672   4.667
14822TIP3    H244344   8.374   5.628   4.693
14823TIP3   OH244345   9.091   4.929   5.904
14823TIP3    H144346   9.014   4.945   5.847
14823TIP3    H244347   9.106   4.833   5.891
14824TIP3   OH244348   7.690   5.337   5.925
14824TIP3    H144349   7.737   5.324   6.010
14824TIP3    H244350   7.614   5.275   5.934
14825TIP3   OH244351   8.088   4.165   5.714
14825TIP3    H144352   7.995   4.141   5.695
14825TIP3    H244353   8.079   4.258   5.740
14826TIP3   OH244354   8.620   4.275   5.903
14826TIP3    H144355   8.687   4.251   5.970
14826TIP3    H244356   8.535   4.264   5.951
14827TIP3   OH244357   8.858   4.704   5.819
14827TIP3    H144358   8.813   4.703   5.906
14827TIP3    H244359   8.839   4.793   5.785
14828TIP3   OH244360   8.518   4.832   4.378
14828TIP3    H144361   8.488   4.809   4.288
14828TIP3    H244362   8.597   4.885   4.357
14829TIP3   OH244363   8.232   4.211   4.681
14829TIP3    H144364   8.200   4.209   4.773
14829TIP3    H244365   8.195   4.127   4.648
14830TIP3   OH244366   8.018   4.674   5.726
14830TIP3    H144367   7.982   4.701   5.812
14830TIP3    H244368   8.003   4.756   5.673
14831TIP3   OH244369   8.390   4.645   4.967
14831TIP3    H144370   8.340   4.719   4.926
14831TIP3    H244371   8.449   4.619   4.894
14832TIP3   OH244372   8.569   4.929   6.057
14832TIP3    H144373   8.549   4.856   6.119
14832TIP3    H244374   8.664   4.944   6.077
14833TIP3   OH244375   8.549   4.677   5.211
14833TIP3    H144376   8.493   4.712   5.139
14833TIP3    H244377   8.583   4.597   5.165
14834TIP3   OH244378   7.835   4.715   5.939
14834TIP3    H144379   7.886   4.771   6.000
14834TIP3    H244380   7.840   4.629   5.982
14835TIP3   OH244381   7.888   4.182   4.649
14835TIP3    H144382   7.878   4.181   4.746
14835TIP3    H244383   7.811   4.236   4.622
14836TIP3   OH244384   7.435   4.239   5.512
14836TIP3    H144385   7.513   4.252   5.569
14836TIP3    H244386   7.469   4.191   5.435
14837TIP3   OH244387   7.405   4.210   5.040
14837TIP3    H144388   7.446   4.248   4.959
14837TIP3    H244389   7.341   4.281   5.060
14838TIP3   OH244390   8.556   4.924   5.631
14838TIP3    H144391   8.591   4.852   5.573
14838TIP3    H244392   8.530   4.871   5.709
14839TIP3   OH244393   8.221   4.396   5.319
14839TIP3    H144394   8.171   4.362   5.393
14839TIP3    H244395   8.311   4.394   5.355
14840TIP3   OH244396   7.926   4.443   5.013
14840TIP3    H144397   8.021   4.456   4.998
14840TIP3    H244398   7.886   4.465   4.926
14841TIP3   OH244399   8.726   4.463   5.507
14841TIP3    H144400   8.689   4.475   5.598
14841TIP3    H244401   8.661   4.403   5.468
14842TIP3   OH244402   7.774   4.474   4.783
14842TIP3    H144403   7.707   4.427   4.731
14842TIP3    H244404   7.830   4.509   4.709
14843TIP3   OH244405   7.848   5.257   6.150
14843TIP3    H144406   7.929   5.291   6.192
14843TIP3    H244407   7.784   5.269   6.223
14844TIP3   OH244408   8.313   4.717   5.399
14844TIP3    H144409   8.392   4.678   5.359
14844TIP3    H244410   8.317   4.679   5.491
14845TIP3   OH244411   7.854   4.193   5.277
14845TIP3    H144412   7.811   4.116   5.320
14845TIP3    H244413   7.890   4.154   5.197
14846TIP3   OH244414   8.296   4.626   5.662
14846TIP3    H144415   8.208   4.634   5.703
14846TIP3    H244416   8.354   4.662   5.732
14847TIP3   OH244417   8.027   5.000   4.787
14847TIP3    H144418   7.953   4.938   4.774
14847TIP3    H244419   8.009   5.034   4.878
14848TIP3   OH244420   8.928   5.235   5.417
14848TIP3    H144421   8.956   5.285   5.337
14848TIP3    H244422   8.842   5.198   5.389
14849TIP3   OH244423   8.486   4.313   4.651
14849TIP3    H144424   8.389   4.300   4.656
14849TIP3    H244425   8.498   4.408   4.671
14850TIP3   OH244426   8.416   5.314   5.788
14850TIP3    H144427   8.456   5.304   5.875
14850TIP3    H244428   8.391   5.408   5.786
14851TIP3   OH244429   8.555   4.560   4.751
14851TIP3    H144430   8.652   4.568   4.766
14851TIP3    H244431   8.536   4.640   4.698
14852TIP3   OH244432   7.709   5.009   5.466
14852TIP3    H144433   7.755   4.991   5.381
14852TIP3    H244434   7.768   4.965   5.529
14853TIP3   OH244435   8.176   5.153   4.613
14853TIP3    H144436   8.128   5.239   4.616
14853TIP3    H244437   8.119   5.098   4.669
14854TIP3   OH244438   7.595   4.946   6.080
14854TIP3    H144439   7.620   4.925   6.172
14854TIP3    H244440   7.529   4.877   6.058
14855TIP3   OH244441   8.323   5.053   6.102
14855TIP3    H144442   8.265   5.000   6.046
14855TIP3    H244443   8.411   5.025   6.069
14856TIP3   OH244444   8.586   5.568   5.687
14856TIP3    H144445   8.489   5.580   5.693
14856TIP3    H244446   8.615   5.627   5.759
14857TIP3   OH244447   8.997   4.651   4.588
14857TIP3    H144448   8.935   4.606   4.526
14857TIP3    H244449   8.993   4.740   4.547
14858TIP3   OH244450   9.214   5.504   5.673
14858TIP3    H144451   9.116   5.502   5.661
14858TIP3    H244452   9.241   5.478   5.582
14859TIP3   OH244453   8.685   5.472   4.492
14859TIP3    H144454   8.678   5.400   4.556
14859TIP3    H244455   8.709   5.426   4.409
14860TIP3   OH244456   8.692   5.100   5.336
14860TIP3    H144457   8.598   5.075   5.347
14860TIP3    H244458   8.727   5.021   5.290
14861TIP3   OH244459   7.822   5.327   5.090
14861TIP3    H144460   7.829   5.408   5.035
14861TIP3    H244461   7.726   5.315   5.091
14862TIP3   OH244462   7.388   4.632   4.793
14862TIP3    H144463   7.430   4.720   4.805
14862TIP3    H244464   7.309   4.641   4.849
14863TIP3   OH244465   7.953   5.089   5.035
14863TIP3    H144466   7.928   5.183   5.042
14863TIP3    H244467   7.918   5.054   5.118
14864TIP3   OH244468   8.090   5.670   5.556
14864TIP3    H144469   8.129   5.744   5.504
14864TIP3    H244470   8.168   5.638   5.604
14865TIP3   OH244471   7.742   5.566   4.943
14865TIP3    H144472   7.655   5.575   4.985
14865TIP3    H244473   7.774   5.659   4.944
14866TIP3   OH244474   8.476   5.305   5.516
14866TIP3    H144475   8.469   5.301   5.614
14866TIP3    H244476   8.560   5.260   5.501
14867TIP3   OH244477   8.453   5.194   4.397
14867TIP3    H144478   8.502   5.173   4.479
14867TIP3    H244479   8.363   5.169   4.422
14868TIP3   OH244480   8.726   5.845   5.566
14868TIP3    H144481   8.647   5.789   5.553
14868TIP3    H244482   8.714   5.909   5.492
14869TIP3   OH244483   8.785   5.674   4.215
14869TIP3    H144484   8.832   5.748   4.173
14869TIP3    H244485   8.706   5.722   4.247
14870TIP3   OH244486   8.612   5.132   4.618
14870TIP3    H144487   8.604   5.064   4.688
14870TIP3    H244488   8.708   5.131   4.603
14871TIP3   OH244489   7.527   5.534   5.716
14871TIP3    H144490   7.583   5.462   5.749
14871TIP3    H244491   7.557   5.608   5.771
14872TIP3   OH244492   7.859   5.168   4.412
14872TIP3    H144493   7.823   5.094   4.360
14872TIP3    H244494   7.804   5.164   4.492
14873TIP3   OH244495   7.762   5.186   4.678
14873TIP3    H144496   7.845   5.165   4.724
14873TIP3    H244497   7.766   5.284   4.673
14874TIP3   OH244498   7.507   4.876   4.881
14874TIP3    H144499   7.440   4.923   4.934
14874TIP3    H244500   7.519   4.943   4.810
14875TIP3   OH244501   8.648   4.513   5.764
14875TIP3    H144502   8.728   4.554   5.799
14875TIP3    H244503   8.638   4.433   5.819
14876TIP3   OH244504   8.525   4.267   4.929
14876TIP3    H144505   8.514   4.289   4.835
14876TIP3    H244506   8.568   4.348   4.964
14877TIP3   OH244507   8.031   5.381   4.623
14877TIP3    H144508   7.943   5.411   4.654
14877TIP3    H244509   8.045   5.443   4.550
14878TIP3   OH244510   8.211   4.446   5.035
14878TIP3    H144511   8.278   4.513   5.010
14878TIP3    H244512   8.226   4.440   5.132
14879TIP3   OH244513   8.489   4.762   5.843
14879TIP3    H144514   8.512   4.819   5.919
14879TIP3    H244515   8.549   4.687   5.855
14880TIP3   OH244516   8.363   4.171   5.132
14880TIP3    H144517   8.379   4.237   5.201
14880TIP3    H244518   8.422   4.206   5.061
14881TIP3   OH244519   7.774   5.457   4.686
14881TIP3    H144520   7.744   5.525   4.621
14881TIP3    H244521   7.758   5.503   4.771
14882TIP3   OH244522   7.873   4.170   4.927
14882TIP3    H144523   7.871   4.261   4.961
14882TIP3    H244524   7.969   4.153   4.932
14883TIP3   OH244525   9.127   4.663   5.826
14883TIP3    H144526   9.029   4.658   5.825
14883TIP3    H244527   9.146   4.636   5.735
14884TIP3   OH244528   8.778   4.858   5.210
14884TIP3    H144529   8.704   4.796   5.223
14884TIP3    H244530   8.852   4.813   5.257
14885TIP3   OH244531   7.502   5.084   4.703
14885TIP3    H144532   7.571   5.153   4.700
14885TIP3    H244533   7.530   5.033   4.623
14886TIP3   OH244534   7.434   4.362   4.816
14886TIP3    H144535   7.436   4.459   4.808
14886TIP3    H244536   7.357   4.340   4.762
14887TIP3   OH244537   8.749   5.810   5.158
14887TIP3    H144538   8.706   5.857   5.083
14887TIP3    H244539   8.843   5.832   5.138
14888TIP3   OH244540   7.823   4.085   5.685
14888TIP3    H144541   7.794   4.053   5.597
14888TIP3    H244542   7.812   4.005   5.740
14889TIP3   OH244543   7.363   5.295   5.070
14889TIP3    H144544   7.288   5.332   5.120
14889TIP3    H244545   7.346   5.335   4.982
14890TIP3   OH244546   7.519   5.842   6.137
14890TIP3    H144547   7.605   5.844   6.186
14890TIP3    H244548   7.498   5.747   6.137
14891TIP3   OH244549   7.999   5.805   6.185
14891TIP3    H144550   8.095   5.793   6.190
14891TIP3    H244551   7.977   5.748   6.108
14892TIP3   OH244552   7.987   5.386   4.315
14892TIP3    H144553   7.931   5.314   4.353
14892TIP3    H244554   8.058   5.332   4.275
14893TIP3   OH244555   8.635   5.715   5.917
14893TIP3    H144556   8.632   5.644   5.985
14893TIP3    H244557   8.715   5.765   5.942
14894TIP3   OH244558   8.418   5.424   4.221
14894TIP3    H144559   8.466   5.365   4.282
14894TIP3    H244560   8.478   5.426   4.144
14895TIP3   OH244561   7.647   5.242   6.344
14895TIP3    H144562   7.662   5.147   6.329
14895TIP3    H244563   7.561   5.255   6.299
14896TIP3   OH244564   7.627   4.903   4.535
14896TIP3    H144565   7.689   4.876   4.604
14896TIP3    H244566   7.687   4.909   4.458
14897TIP3   OH244567   8.254   5.331   6.112
14897TIP3    H144568   8.218   5.352   6.024
14897TIP3    H244569   8.289   5.240   6.101
14898TIP3   OH244570   8.154   5.095   4.335
14898TIP3    H144571   8.130   5.115   4.427
14898TIP3    H244572   8.137   4.999   4.332
14899TIP3   OH244573   8.748   5.342   5.717
14899TIP3    H144574   8.825   5.382   5.672
14899TIP3    H244575   8.682   5.413   5.704
14900TIP3   OH244576   7.769   4.977   6.325
14900TIP3    H144577   7.851   4.948   6.284
14900TIP3    H244578   7.800   5.020   6.407
14901TIP3   OH244579   7.838   4.798   4.757
14901TIP3    H144580   7.809   4.741   4.828
14901TIP3    H244581   7.875   4.732   4.694
14902TIP3   OH244582   8.095   4.878   5.991
14902TIP3    H144583   8.021   4.942   5.983
14902TIP3    H244584   8.149   4.900   5.912
14903TIP3   OH244585   7.936   4.595   4.596
14903TIP3    H144586   7.908   4.598   4.501
14903TIP3    H244587   8.033   4.602   4.586
14904TIP3   OH244588   8.618   5.267   6.115
14904TIP3    H144589   8.699   5.250   6.065
14904TIP3    H244590   8.621   5.200   6.185
14905TIP3   OH244591   8.757   4.927   4.256
14905TIP3    H144592   8.734   4.882   4.173
14905TIP3    H244593   8.727   5.018   4.234
14906TIP3   OH244594   8.254   4.977   5.793
14906TIP3    H144595   8.338   4.981   5.745
14906TIP3    H244596   8.202   5.046   5.747
14907TIP3   OH244597   8.841   4.946   6.171
14907TIP3    H144598   8.891   4.863   6.172
14907TIP3    H244599   8.906   5.007   6.134
14908TIP3   OH244600   8.878   5.197   5.904
14908TIP3    H144601   8.821   5.252   5.845
14908TIP3    H244602   8.966   5.217   5.865
14909TIP3   OH244603   8.097   4.772   6.333
14909TIP3    H144604   8.043   4.690   6.334
14909TIP3    H244605   8.118   4.780   6.239
14910TIP3   OH244606   8.348   4.223   5.985
14910TIP3    H144607   8.287   4.298   6.002
14910TIP3    H244608   8.285   4.150   5.972
14911TIP3   OH244609   8.491   4.709   6.198
14911TIP3    H144610   8.480   4.702   6.295
14911TIP3    H244611   8.409   4.668   6.168
14912TIP3   OH244612   8.728   4.659   6.052
14912TIP3    H144613   8.654   4.662   6.115
14912TIP3    H244614   8.802   4.629   6.109
14913TIP3   OH244615   8.952   4.600   6.206
14913TIP3    H144616   8.967   4.504   6.223
14913TIP3    H244617   8.951   4.638   6.297
14914TIP3   OH244618   7.945   4.550   6.384
14914TIP3    H144619   7.986   4.497   6.311
14914TIP3    H244620   7.987   4.509   6.462
14915TIP3   OH244621   8.457   4.213   6.239
14915TIP3    H144622   8.525   4.143   6.228
14915TIP3    H244623   8.414   4.213   6.151
14916TIP3   OH244624   8.518   4.428   6.397
14916TIP3    H144625   8.497   4.356   6.334
14916TIP3    H244626   8.440   4.487   6.388
14917TIP3   OH244627   7.741   5.659   4.500
14917TIP3    H144628   7.837   5.653   4.482
14917TIP3    H244629   7.713   5.706   4.419
14918TIP3   OH244630   7.134   5.654   5.129
14918TIP3    H144631   7.069   5.591   5.092
14918TIP3    H244632   7.180   5.596   5.193
14919TIP3   OH244633   7.273   5.505   5.313
14919TIP3    H144634   7.260   5.432   5.376
14919TIP3    H244635   7.324   5.567   5.369
14920TIP3   OH244636   9.000   5.905   5.109
14920TIP3    H144637   9.028   5.946   5.192
14920TIP3    H244638   9.073   5.931   5.049
14921TIP3   OH244639   9.027   5.921   5.400
14921TIP3    H144640   8.995   5.829   5.394
14921TIP3    H244641   9.110   5.909   5.448
14922TIP3   OH244642   9.077   5.600   5.972
14922TIP3    H144643   9.002   5.611   6.034
14922TIP3    H244644   9.117   5.690   5.973
14923TIP3   OH244645   8.890   5.114   4.589
14923TIP3    H144646   8.957   5.178   4.558
14923TIP3    H244647   8.936   5.076   4.667
14924TIP3   OH244648   9.019   4.980   4.791
14924TIP3    H144649   8.955   4.941   4.853
14924TIP3    H244650   9.086   5.020   4.850
14925TIP3   OH244651   9.069   5.367   5.226
14925TIP3    H144652   9.125   5.308   5.172
14925TIP3    H244653   9.074   5.451   5.174
14926TIP3   OH244654   8.904   5.667   5.425
14926TIP3    H144655   8.835   5.720   5.469
14926TIP3    H244656   8.855   5.624   5.352
14927TIP3   OH244657   8.957   4.888   4.441
14927TIP3    H144658   8.885   4.894   4.374
14927TIP3    H244659   8.933   4.966   4.496
14928TIP3   OH244660   8.827   4.562   4.396
14928TIP3    H144661   8.786   4.605   4.320
14928TIP3    H244662   8.802   4.468   4.382
14929TIP3   OH244663   8.831   4.838   4.940
14929TIP3    H144664   8.844   4.742   4.937
14929TIP3    H244665   8.819   4.855   5.036
14930TIP3   OH244666   7.461   4.906   5.690
14930TIP3    H144667   7.458   4.884   5.594
14930TIP3    H244668   7.559   4.913   5.704
14931TIP3   OH244669   9.120   5.262   5.797
14931TIP3    H144670   9.194   5.198   5.787
14931TIP3    H244671   9.147   5.334   5.738
14932TIP3   OH244672   9.305   5.068   5.816
14932TIP3    H144673   9.232   5.017   5.856
14932TIP3    H244674   9.379   5.005   5.828
14933TIP3   OH244675   8.772   4.295   4.379
14933TIP3    H144676   8.849   4.267   4.433
14933TIP3    H244677   8.701   4.236   4.408
14934TIP3   OH244678   8.828   4.553   4.835
14934TIP3    H144679   8.871   4.466   4.849
14934TIP3    H244680   8.886   4.589   4.766
14935TIP3   OH244681   8.991   4.730   5.329
14935TIP3    H144682   9.077   4.755   5.288
14935TIP3    H244683   9.005   4.767   5.418
14936TIP3   OH244684   9.059   4.873   5.563
14936TIP3    H144685   8.981   4.909   5.609
14936TIP3    H244686   9.092   4.952   5.516
14937TIP3   OH244687   7.676   4.600   6.367
14937TIP3    H144688   7.772   4.582   6.361
14937TIP3    H244689   7.647   4.514   6.405
14938TIP3   OH244690   9.514   4.460   6.121
14938TIP3    H144691   9.570   4.393   6.077
14938TIP3    H244692   9.485   4.515   6.045
14939TIP3   OH244693   8.939   4.304   4.873
14939TIP3    H144694   8.988   4.288   4.956
14939TIP3    H244695   8.880   4.226   4.871
14940TIP3   OH244696   7.640   4.294   5.685
14940TIP3    H144697   7.698   4.217   5.701
14940TIP3    H244698   7.706   4.366   5.695
14941TIP3   OH244699   7.440   4.570   5.766
14941TIP3    H144700   7.499   4.562   5.691
14941TIP3    H244701   7.464   4.656   5.802
14942TIP3   OH244702   9.382   4.601   5.929
14942TIP3    H144703   9.293   4.641   5.941
14942TIP3    H244704   9.360   4.531   5.865
14943TIP3   OH244705   9.018   4.240   4.504
14943TIP3    H144706   9.061   4.168   4.453
14943TIP3    H244707   9.085   4.311   4.500
14944TIP3   OH244708   7.423   4.072   5.272
14944TIP3    H144709   7.328   4.065   5.291
14944TIP3    H244710   7.423   4.127   5.190
14945TIP3   OH244711   8.580   5.771   4.770
14945TIP3    H144712   8.635   5.757   4.690
14945TIP3    H244713   8.633   5.835   4.820
14946TIP3   OH244714   7.637   4.127   6.070
14946TIP3    H144715   7.601   4.143   6.159
14946TIP3    H244716   7.575   4.179   6.016
14947TIP3   OH244717   7.686   5.564   6.157
14947TIP3    H144718   7.592   5.547   6.142
14947TIP3    H244719   7.691   5.568   6.254
14948TIP3   OH244720   7.863   5.607   5.704
14948TIP3    H144721   7.815   5.683   5.665
14948TIP3    H244722   7.949   5.621   5.660
14949TIP3   OH244723   8.307   5.852   5.843
14949TIP3    H144724   8.350   5.854   5.931
14949TIP3    H244725   8.374   5.902   5.790
14950TIP3   OH244726   8.487   6.003   5.703
14950TIP3    H144727   8.558   5.956   5.656
14950TIP3    H244728   8.541   6.062   5.761
14951TIP3   OH244729   9.282   4.365   5.802
14951TIP3    H144730   9.192   4.359   5.766
14951TIP3    H244731   9.314   4.272   5.789
14952TIP3   OH244732   7.538   5.861   5.731
14952TIP3    H144733   7.449   5.895   5.706
14952TIP3    H244734   7.551   5.906   5.815
14953TIP3   OH244735   7.774   5.840   5.586
14953TIP3    H144736   7.688   5.855   5.631
14953TIP3    H244737   7.756   5.875   5.496
14954TIP3   OH244738   8.199   5.871   5.386
14954TIP3    H144739   8.135   5.894   5.317
14954TIP3    H244740   8.216   5.959   5.427
14955TIP3   OH244741   8.471   5.808   5.437
14955TIP3    H144742   8.378   5.830   5.415
14955TIP3    H244743   8.518   5.882   5.393
14956TIP3   OH244744   8.663   5.999   5.349
14956TIP3    H144745   8.661   6.088   5.308
14956TIP3    H244746   8.702   5.946   5.276
14957TIP3   OH244747   7.449   5.658   5.473
14957TIP3    H144748   7.477   5.633   5.563
14957TIP3    H244749   7.523   5.616   5.422
14958TIP3   OH244750   7.644   5.530   5.330
14958TIP3    H144751   7.661   5.446   5.378
14958TIP3    H244752   7.734   5.569   5.326
14959TIP3   OH244753   7.907   5.626   5.335
14959TIP3    H144754   7.944   5.538   5.317
14959TIP3    H244755   7.954   5.649   5.418
14960TIP3   OH244756   8.472   4.276   5.400
14960TIP3    H144757   8.441   4.210   5.465
14960TIP3    H244758   8.556   4.237   5.370
14961TIP3   OH244759   9.008   4.159   5.327
14961TIP3    H144760   9.048   4.210   5.253
14961TIP3    H244761   8.914   4.185   5.320
14962TIP3   OH244762   9.103   4.260   5.092
14962TIP3    H144763   9.176   4.208   5.052
14962TIP3    H244764   9.138   4.351   5.076
14963TIP3   OH244765   7.734   3.991   5.438
14963TIP3    H144766   7.642   3.956   5.436
14963TIP3    H244767   7.785   3.907   5.434
14964TIP3   OH244768   7.523   3.858   5.085
14964TIP3    H144769   7.552   3.915   5.011
14964TIP3    H244770   7.492   3.924   5.150
14965TIP3   OH244771   8.179   4.024   5.320
14965TIP3    H144772   8.235   4.070   5.256
14965TIP3    H244773   8.216   4.055   5.404
14966TIP3   OH244774   8.716   4.170   5.304
14966TIP3    H144775   8.728   4.135   5.215
14966TIP3    H244776   8.708   4.087   5.356
14967TIP3   OH244777   8.756   4.091   4.863
14967TIP3    H144778   8.669   4.133   4.873
14967TIP3    H244779   8.740   4.006   4.909
14968TIP3   OH244780   7.231   5.428   4.873
14968TIP3    H144781   7.146   5.401   4.835
14968TIP3    H244782   7.234   5.520   4.843
14969TIP3   OH244783   7.639   4.016   4.850
14969TIP3    H144784   7.687   3.956   4.791
14969TIP3    H244785   7.711   4.072   4.885
14970TIP3   OH244786   8.149   4.194   4.948
14970TIP3    H144787   8.212   4.150   5.006
14970TIP3    H244788   8.170   4.288   4.971
14971TIP3   OH244789   8.009   5.622   4.448
14971TIP3    H144790   8.098   5.643   4.412
14971TIP3    H244791   7.987   5.547   4.389
14972TIP3   OH244792   8.728   5.736   4.539
14972TIP3    H144793   8.717   5.639   4.524
14972TIP3    H244794   8.687   5.772   4.458
14973TIP3   OH244795   7.940   4.212   6.335
14973TIP3    H144796   7.996   4.223   6.414
14973TIP3    H244797   7.988   4.273   6.273
14974TIP3   OH244798   8.191   4.281   6.470
14974TIP3    H144799   8.256   4.264   6.399
14974TIP3    H244800   8.192   4.197   6.520
14975TIP3   OH244801   9.016   4.330   6.234
14975TIP3    H144802   9.038   4.298   6.325
14975TIP3    H244803   9.104   4.327   6.190
14976TIP3   OH244804   8.959   5.895   5.731
14976TIP3    H144805   8.880   5.875   5.677
14976TIP3    H244806   8.969   5.991   5.720
14977TIP3   OH244807   9.522   5.149   5.241
14977TIP3    H144808   9.558   5.082   5.302
14977TIP3    H244809   9.595   5.211   5.235
14978TIP3   OH244810   9.491   5.546   5.012
14978TIP3    H144811   9.488   5.451   4.990
14978TIP3    H244812   9.567   5.576   4.960
14979TIP3   OH244813   9.197   4.759   4.750
14979TIP3    H144814   9.153   4.844   4.766
14979TIP3    H244815   9.124   4.710   4.708
14980TIP3   OH244816   9.255   5.048   4.918
14980TIP3    H144817   9.307   4.974   4.956
14980TIP3    H244818   9.319   5.091   4.860
14981TIP3   OH244819  10.100   5.953   4.555
14981TIP3    H144820  10.136   6.018   4.490
14981TIP3    H244821  10.120   5.998   4.638
14982TIP3   OH244822   9.969   5.490   4.916
14982TIP3    H144823   9.983   5.435   4.838
14982TIP3    H244824  10.062   5.501   4.945
14983TIP3   OH244825   9.751   4.642   4.932
14983TIP3    H144826   9.754   4.709   4.860
14983TIP3    H244827   9.719   4.565   4.882
14984TIP3   OH244828   9.402   4.843   5.028
14984TIP3    H144829   9.484   4.823   5.077
14984TIP3    H244830   9.417   4.789   4.947
14985TIP3   OH244831   9.807   5.058   4.806
14985TIP3    H144832   9.901   5.037   4.823
14985TIP3    H244833   9.773   4.969   4.779
14986TIP3   OH244834   9.761   4.623   5.360
14986TIP3    H144835   9.704   4.659   5.290
14986TIP3    H244836   9.709   4.645   5.440
14987TIP3   OH244837   9.845   5.405   5.144
14987TIP3    H144838   9.789   5.474   5.185
14987TIP3    H244839   9.887   5.455   5.070
14988TIP3   OH244840   9.629   4.739   5.148
14988TIP3    H144841   9.693   4.811   5.166
14988TIP3    H244842   9.674   4.697   5.070
14989TIP3   OH244843   9.699   5.600   5.256
14989TIP3    H144844   9.670   5.679   5.207
14989TIP3    H244845   9.618   5.584   5.309
14990TIP3   OH244846   9.091   5.274   4.480
14990TIP3    H144847   9.052   5.307   4.397
14990TIP3    H244848   9.117   5.361   4.521
14991TIP3   OH244849   9.608   5.201   4.697
14991TIP3    H144850   9.572   5.141   4.629
14991TIP3    H244851   9.684   5.149   4.731
14992TIP3   OH244852   9.723   5.605   4.857
14992TIP3    H144853   9.712   5.572   4.766
14992TIP3    H244854   9.813   5.573   4.880
14993TIP3   OH244855   9.772   5.154   5.068
14993TIP3    H144856   9.792   5.144   4.973
14993TIP3    H244857   9.801   5.246   5.087
14994TIP3   OH244858   9.904   5.718   5.395
14994TIP3    H144859   9.842   5.780   5.439
14994TIP3    H244860   9.839   5.665   5.343
14995TIP3   OH244861   9.656   5.270   5.496
14995TIP3    H144862   9.661   5.359   5.536
14995TIP3    H244863   9.560   5.253   5.501
14996TIP3   OH244864   9.959   5.760   4.420
14996TIP3    H144865  10.006   5.826   4.474
14996TIP3    H244866   9.900   5.817   4.367
14997TIP3   OH244867   9.700   5.885   5.479
14997TIP3    H144868   9.666   5.882   5.387
14997TIP3    H244869   9.621   5.856   5.531
14998TIP3   OH244870   9.499   5.024   4.506
14998TIP3    H144871   9.432   5.073   4.455
14998TIP3    H244872   9.450   4.945   4.531
14999TIP3   OH244873   9.276   5.411   5.427
14999TIP3    H144874   9.217   5.393   5.352
14999TIP3    H244875   9.315   5.324   5.446
15000TIP3   OH244876   9.138   5.590   5.086
15000TIP3    H144877   9.223   5.595   5.040
15000TIP3    H244878   9.121   5.684   5.104
15001TIP3   OH244879  10.097   5.845   5.250
15001TIP3    H144880  10.094   5.937   5.282
15001TIP3    H244881  10.024   5.804   5.302
15002TIP3   OH244882   9.825   5.960   4.212
15002TIP3    H144883   9.820   5.960   4.115
15002TIP3    H244884   9.833   6.055   4.232
15003TIP3   OH244885   9.483   5.594   5.417
15003TIP3    H144886   9.529   5.580   5.501
15003TIP3    H244887   9.407   5.532   5.423
15004TIP3   OH244888   9.872   4.414   5.211
15004TIP3    H144889   9.783   4.388   5.180
15004TIP3    H244890   9.852   4.499   5.253
15005TIP3   OH244891   9.818   4.926   5.208
15005TIP3    H144892   9.770   4.948   5.291
15005TIP3    H244893   9.807   5.009   5.158
15006TIP3   OH244894   9.699   4.817   4.726
15006TIP3    H144895   9.608   4.789   4.751
15006TIP3    H244896   9.703   4.784   4.634
15007TIP3   OH244897   9.636   4.959   5.423
15007TIP3    H144898   9.663   5.023   5.490
15007TIP3    H244899   9.624   4.878   5.475
15008TIP3   OH244900   9.669   4.454   4.135
15008TIP3    H144901   9.637   4.439   4.225
15008TIP3    H244902   9.593   4.495   4.092
15009TIP3   OH244903   9.227   4.483   5.006
15009TIP3    H144904   9.300   4.518   5.062
15009TIP3    H244905   9.273   4.457   4.925
15010TIP3   OH244906   9.200   4.467   4.524
15010TIP3    H144907   9.242   4.507   4.445
15010TIP3    H244908   9.139   4.540   4.549
15011TIP3   OH244909   9.460   4.701   4.798
15011TIP3    H144910   9.365   4.705   4.773
15011TIP3    H244911   9.485   4.609   4.778
15012TIP3   OH244912   9.713   4.720   4.468
15012TIP3    H144913   9.784   4.747   4.409
15012TIP3    H244914   9.637   4.727   4.406
15013TIP3   OH244915   9.547   4.727   4.259
15013TIP3    H144916   9.482   4.685   4.200
15013TIP3    H244917   9.612   4.759   4.193
15014TIP3   OH244918   9.646   5.511   5.638
15014TIP3    H144919   9.724   5.548   5.683
15014TIP3    H244920   9.578   5.523   5.707
15015TIP3   OH244921   9.627   4.460   4.760
15015TIP3    H144922   9.595   4.383   4.811
15015TIP3    H244923   9.688   4.419   4.697
15016TIP3   OH244924   9.807   5.251   4.271
15016TIP3    H144925   9.731   5.191   4.275
15016TIP3    H244926   9.811   5.290   4.360
15017TIP3   OH244927  10.168   5.574   5.292
15017TIP3    H144928  10.209   5.563   5.378
15017TIP3    H244929  10.151   5.670   5.287
15018TIP3   OH244930   9.505   5.268   4.949
15018TIP3    H144931   9.543   5.253   4.860
15018TIP3    H244932   9.558   5.209   5.005
15019TIP3   OH244933   9.395   5.199   5.563
15019TIP3    H144934   9.418   5.185   5.657
15019TIP3    H244935   9.326   5.133   5.548
15020TIP3   OH244936  10.089   5.272   5.604
15020TIP3    H144937  10.005   5.238   5.568
15020TIP3    H244938  10.150   5.203   5.574
15021TIP3   OH244939   9.612   5.581   4.573
15021TIP3    H144940   9.615   5.661   4.516
15021TIP3    H244941   9.521   5.586   4.603
15022TIP3   OH244942   9.179   4.889   4.276
15022TIP3    H144943   9.226   4.973   4.295
15022TIP3    H244944   9.103   4.896   4.337
15023TIP3   OH244945   9.778   5.361   4.538
15023TIP3    H144946   9.729   5.446   4.537
15023TIP3    H244947   9.721   5.309   4.596
15024TIP3   OH244948   9.887   5.930   5.056
15024TIP3    H144949   9.920   5.992   4.988
15024TIP3    H244950   9.970   5.896   5.094
15025TIP3   OH244951   9.530   5.820   4.434
15025TIP3    H144952   9.457   5.821   4.499
15025TIP3    H244953   9.555   5.915   4.433
15026TIP3   OH244954   9.607   4.706   5.577
15026TIP3    H144955   9.510   4.707   5.586
15026TIP3    H244956   9.633   4.640   5.644
15027TIP3   OH244957   9.326   5.798   5.203
15027TIP3    H144958   9.374   5.715   5.217
15027TIP3    H244959   9.362   5.853   5.273
15028TIP3   OH244960   9.618   5.432   3.881
15028TIP3    H144961   9.636   5.338   3.861
15028TIP3    H244962   9.603   5.427   3.978
15029TIP3   OH244963   9.565   5.438   4.152
15029TIP3    H144964   9.647   5.415   4.199
15029TIP3    H244965   9.561   5.535   4.166
15030TIP3   OH244966   9.294   5.134   4.359
15030TIP3    H144967   9.228   5.178   4.416
15030TIP3    H244968   9.309   5.204   4.293
15031TIP3   OH244969   9.809   5.656   4.094
15031TIP3    H144970   9.726   5.675   4.140
15031TIP3    H244971   9.837   5.746   4.071
15032TIP3   OH244972   9.550   5.712   4.176
15032TIP3    H144973   9.528   5.785   4.114
15032TIP3    H244974   9.538   5.756   4.263
15033TIP3   OH244975   9.671   4.434   4.417
15033TIP3    H144976   9.643   4.516   4.462
15033TIP3    H244977   9.754   4.467   4.376
15034TIP3   OH244978   9.284   5.344   4.168
15034TIP3    H144979   9.344   5.419   4.183
15034TIP3    H244980   9.335   5.295   4.101
15035TIP3   OH244981   9.231   4.618   4.300
15035TIP3    H144982   9.234   4.716   4.295
15035TIP3    H244983   9.147   4.600   4.256
15036TIP3   OH244984   9.606   4.339   5.174
15036TIP3    H144985   9.582   4.305   5.085
15036TIP3    H244986   9.604   4.258   5.228
15037TIP3   OH244987   9.149   5.526   4.561
15037TIP3    H144988   9.120   5.584   4.633
15037TIP3    H244989   9.203   5.590   4.513
15038TIP3   OH244990   9.342   6.091   5.583
15038TIP3    H144991   9.407   6.101   5.655
15038TIP3    H244992   9.283   6.023   5.618
15039TIP3   OH244993   9.800   6.067   5.664
15039TIP3    H144994   9.892   6.038   5.675
15039TIP3    H244995   9.769   6.007   5.593
15040TIP3   OH244996   9.763   5.650   3.794
15040TIP3    H144997   9.714   5.578   3.839
15040TIP3    H244998   9.856   5.619   3.807
15041TIP3   OH244999   9.444   5.503   5.828
15041TIP3    H145000   9.461   5.407   5.824
15041TIP3    H245001   9.357   5.509   5.782
15042TIP3   OH245002   9.420   5.155   4.020
15042TIP3    H145003   9.476   5.127   4.096
15042TIP3    H245004   9.488   5.164   3.951
15043TIP3   OH245005  10.038   5.583   5.598
15043TIP3    H145006  10.005   5.613   5.511
15043TIP3    H245007  10.055   5.489   5.584
15044TIP3   OH245008   9.563   5.231   5.809
15044TIP3    H145009   9.646   5.189   5.781
15044TIP3    H245010   9.590   5.270   5.896
15045TIP3   OH245011   9.616   5.052   4.240
15045TIP3    H145012   9.592   5.020   4.329
15045TIP3    H245013   9.654   4.973   4.198
15046TIP3   OH245014   9.878   5.120   5.485
15046TIP3    H145015   9.799   5.178   5.487
15046TIP3    H245016   9.922   5.157   5.404
15047TIP3   OH245017   9.727   4.845   4.091
15047TIP3    H145018   9.690   4.843   4.000
15047TIP3    H245019   9.819   4.872   4.074
15048TIP3   OH245020   9.988   4.910   5.617
15048TIP3    H145021  10.009   4.829   5.566
15048TIP3    H245022   9.939   4.964   5.552
15049TIP3   OH245023  10.010   4.719   5.420
15049TIP3    H145024  10.054   4.710   5.334
15049TIP3    H245025   9.925   4.674   5.402
15050TIP3   OH245026  10.002   5.243   5.289
15050TIP3    H145027  10.057   5.213   5.215
15050TIP3    H245028   9.954   5.318   5.247
15051TIP3   OH245029   9.875   5.040   5.825
15051TIP3    H145030   9.814   4.965   5.842
15051TIP3    H245031   9.917   5.011   5.742
15052TIP3   OH245032   9.736   4.808   5.879
15052TIP3    H145033   9.750   4.723   5.833
15052TIP3    H245034   9.771   4.787   5.968
15053TIP3   OH245035   9.537   5.911   3.977
15053TIP3    H145036   9.634   5.915   3.971
15053TIP3    H245037   9.512   5.967   3.902
15054TIP3   OH245038   9.016   5.297   4.196
15054TIP3    H145039   9.111   5.322   4.189
15054TIP3    H245040   9.016   5.208   4.156
15055TIP3   OH245041   8.931   5.907   4.624
15055TIP3    H145042   8.866   5.842   4.589
15055TIP3    H245043   8.997   5.849   4.665
15056TIP3   OH245044   9.257   5.161   5.176
15056TIP3    H145045   9.254   5.138   5.081
15056TIP3    H245046   9.355   5.168   5.190
15057TIP3   OH245047   9.468   4.852   5.845
15057TIP3    H145048   9.566   4.849   5.846
15057TIP3    H245049   9.448   4.767   5.890
15058TIP3   OH245050   9.428   4.549   5.184
15058TIP3    H145051   9.491   4.474   5.191
15058TIP3    H245052   9.491   4.623   5.177
15059TIP3   OH245053   9.237   4.822   5.253
15059TIP3    H145054   9.287   4.814   5.168
15059TIP3    H245055   9.262   4.911   5.280
15060TIP3   OH245056   9.220   4.319   4.750
15060TIP3    H145057   9.127   4.322   4.779
15060TIP3    H245058   9.220   4.381   4.673
15061TIP3   OH245059   9.437   4.407   5.567
15061TIP3    H145060   9.387   4.402   5.650
15061TIP3    H245061   9.370   4.444   5.506
15062TIP3   OH245062   9.489   5.809   5.648
15062TIP3    H145063   9.395   5.805   5.622
15062TIP3    H245064   9.483   5.823   5.743
15063TIP3   OH245065   9.658   5.869   5.198
15063TIP3    H145066   9.606   5.939   5.154
15063TIP3    H245067   9.744   5.883   5.152
15064TIP3   OH245068  10.116   6.117   5.325
15064TIP3    H145069  10.143   6.110   5.420
15064TIP3    H245070  10.197   6.151   5.285
15065TIP3   OH245071   9.345   6.132   5.217
15065TIP3    H145072   9.255   6.161   5.191
15065TIP3    H245073   9.338   6.141   5.313
15066TIP3   OH245074   9.575   6.102   5.074
15066TIP3    H145075   9.490   6.114   5.122
15066TIP3    H245076   9.549   6.128   4.984
15067TIP3   OH245077   9.978   6.125   4.869
15067TIP3    H145078   9.908   6.139   4.802
15067TIP3    H245079   9.995   6.216   4.899
15068TIP3   OH245080  10.240   6.120   4.933
15068TIP3    H145081  10.150   6.092   4.908
15068TIP3    H245082  10.277   6.147   4.849
15069TIP3   OH245083   9.247   5.927   4.964
15069TIP3    H145084   9.288   5.885   5.042
15069TIP3    H245085   9.279   5.871   4.890
15070TIP3   OH245086   9.728   5.905   4.806
15070TIP3    H145087   9.708   5.813   4.785
15070TIP3    H245088   9.741   5.900   4.902
15071TIP3   OH245089   9.524   4.254   4.918
15071TIP3    H145090   9.431   4.224   4.919
15071TIP3    H245091   9.569   4.166   4.923
15072TIP3   OH245092   9.315   4.115   4.568
15072TIP3    H145093   9.345   4.176   4.497
15072TIP3    H245094   9.287   4.178   4.637
15073TIP3   OH245095   9.043   5.685   4.318
15073TIP3    H145096   8.950   5.657   4.306
15073TIP3    H245097   9.032   5.777   4.344
15074TIP3   OH245098   9.429   4.280   4.341
15074TIP3    H145099   9.470   4.215   4.280
15074TIP3    H245100   9.506   4.327   4.377
15075TIP3   OH245101   9.816   5.888   3.932
15075TIP3    H145102   9.913   5.887   3.929
15075TIP3    H245103   9.791   5.810   3.878
15076TIP3   OH245104   9.706   4.519   5.797
15076TIP3    H145105   9.676   4.451   5.860
15076TIP3    H245106   9.800   4.526   5.825
15077TIP3   OH245107   9.942   4.534   5.928
15077TIP3    H145108  10.037   4.538   5.910
15077TIP3    H245109   9.941   4.462   5.996
15078TIP3   OH245110   9.109   5.712   3.994
15078TIP3    H145111   9.106   5.727   4.091
15078TIP3    H245112   9.198   5.674   3.982
15079TIP3   OH245113   0.880   5.785   6.694
15079TIP3    H145114   0.851   5.877   6.675
15079TIP3    H245115   0.801   5.736   6.668
15080TIP3   OH245116   0.886   5.777   7.073
15080TIP3    H145117   0.910   5.752   7.164
15080TIP3    H245118   0.839   5.697   7.043
15081TIP3   OH245119   1.123   6.086   6.759
15081TIP3    H145120   1.103   6.020   6.826
15081TIP3    H245121   1.148   6.163   6.812
15082TIP3   OH245122   0.765   6.549   6.769
15082TIP3    H145123   0.812   6.474   6.729
15082TIP3    H245124   0.750   6.519   6.860
15083TIP3   OH245125   0.664   5.956   7.104
15083TIP3    H145126   0.743   5.907   7.073
15083TIP3    H245127   0.706   6.036   7.140
15084TIP3   OH245128   1.099   5.514   7.157
15084TIP3    H145129   1.129   5.424   7.177
15084TIP3    H245130   1.057   5.501   7.069
15085TIP3   OH245131   0.410   5.178   7.109
15085TIP3    H145132   0.403   5.256   7.051
15085TIP3    H245133   0.395   5.104   7.046
15086TIP3   OH245134   1.120   5.260   6.744
15086TIP3    H145135   1.193   5.243   6.808
15086TIP3    H245136   1.172   5.298   6.670
15087TIP3   OH245137   0.500   5.582   7.039
15087TIP3    H145138   0.593   5.552   7.044
15087TIP3    H245139   0.457   5.507   6.992
15088TIP3   OH245140   1.752   5.525   7.284
15088TIP3    H145141   1.669   5.575   7.265
15088TIP3    H245142   1.759   5.542   7.380
15089TIP3   OH245143   0.772   6.008   6.565
15089TIP3    H145144   0.730   5.985   6.481
15089TIP3    H245145   0.726   6.091   6.588
15090TIP3   OH245146   1.333   5.263   6.917
15090TIP3    H145147   1.305   5.217   6.997
15090TIP3    H245148   1.377   5.342   6.951
15091TIP3   OH245149   1.194   6.328   6.925
15091TIP3    H145150   1.104   6.321   6.966
15091TIP3    H245151   1.185   6.415   6.881
15092TIP3   OH245152   1.477   5.245   7.282
15092TIP3    H145153   1.381   5.259   7.286
15092TIP3    H245154   1.492   5.255   7.187
15093TIP3   OH245155   0.810   4.846   7.257
15093TIP3    H145156   0.762   4.771   7.298
15093TIP3    H245157   0.761   4.925   7.287
15094TIP3   OH245158   0.894   6.373   6.602
15094TIP3    H145159   0.945   6.292   6.578
15094TIP3    H245160   0.952   6.441   6.562
15095TIP3   OH245161   1.037   6.160   6.506
15095TIP3    H145162   0.996   6.081   6.470
15095TIP3    H245163   1.074   6.127   6.591
15096TIP3   OH245164   1.419   6.242   7.270
15096TIP3    H145165   1.406   6.166   7.210
15096TIP3    H245166   1.398   6.318   7.211
15097TIP3   OH245167   0.709   5.634   6.526
15097TIP3    H145168   0.629   5.684   6.502
15097TIP3    H245169   0.758   5.634   6.441
15098TIP3   OH245170   0.668   5.421   6.244
15098TIP3    H145171   0.736   5.470   6.294
15098TIP3    H245172   0.725   5.358   6.196
15099TIP3   OH245173   1.613   5.878   7.113
15099TIP3    H145174   1.530   5.930   7.120
15099TIP3    H245175   1.643   5.906   7.024
15100TIP3   OH245176   1.057   5.718   6.499
15100TIP3    H145177   1.001   5.744   6.576
15100TIP3    H245178   1.139   5.693   6.544
15101TIP3   OH245179   1.294   5.758   7.407
15101TIP3    H145180   1.288   5.843   7.454
15101TIP3    H245181   1.206   5.758   7.363
15102TIP3   OH245182   0.427   5.678   7.281
15102TIP3    H145183   0.460   5.641   7.196
15102TIP3    H245184   0.488   5.752   7.297
15103TIP3   OH245185   0.955   6.326   7.048
15103TIP3    H145186   0.934   6.403   7.103
15103TIP3    H245187   0.936   6.251   7.109
15104TIP3   OH245188   0.898   5.577   6.325
15104TIP3    H145189   0.957   5.636   6.377
15104TIP3    H245190   0.923   5.601   6.233
15105TIP3   OH245191   0.637   6.261   6.602
15105TIP3    H145192   0.721   6.305   6.624
15105TIP3    H245193   0.591   6.331   6.554
15106TIP3   OH245194   1.413   4.820   6.375
15106TIP3    H145195   1.330   4.838   6.424
15106TIP3    H245196   1.423   4.902   6.323
15107TIP3   OH245197   1.211   6.185   5.920
15107TIP3    H145198   1.218   6.283   5.908
15107TIP3    H245199   1.304   6.157   5.908
15108TIP3   OH245200   1.656   6.588   7.318
15108TIP3    H145201   1.652   6.491   7.331
15108TIP3    H245202   1.572   6.614   7.362
15109TIP3   OH245203   0.780   6.353   7.463
15109TIP3    H145204   0.783   6.448   7.492
15109TIP3    H245205   0.687   6.344   7.437
15110TIP3   OH245206   0.548   6.484   6.425
15110TIP3    H145207   0.510   6.462   6.337
15110TIP3    H245208   0.510   6.571   6.443
15111TIP3   OH245209   0.724   6.404   6.044
15111TIP3    H145210   0.780   6.333   6.005
15111TIP3    H245211   0.765   6.414   6.133
15112TIP3   OH245212   0.790   6.447   6.309
15112TIP3    H145213   0.708   6.450   6.361
15112TIP3    H245214   0.852   6.412   6.375
15113TIP3   OH245215   1.545   5.720   7.590
15113TIP3    H145216   1.462   5.736   7.543
15113TIP3    H245217   1.557   5.624   7.579
15114TIP3   OH245218   0.470   4.951   7.430
15114TIP3    H145219   0.449   4.912   7.344
15114TIP3    H245220   0.536   5.019   7.401
15115TIP3   OH245221   1.073   5.070   7.596
15115TIP3    H145222   1.138   5.038   7.660
15115TIP3    H245223   0.987   5.047   7.638
15116TIP3   OH245224   1.320   5.499   7.519
15116TIP3    H145225   1.266   5.493   7.601
15116TIP3    H245226   1.287   5.581   7.478
15117TIP3   OH245227   0.972   5.623   6.068
15117TIP3    H145228   0.940   5.598   5.979
15117TIP3    H245229   1.052   5.674   6.045
15118TIP3   OH245230   0.685   5.001   6.370
15118TIP3    H145231   0.657   4.997   6.463
15118TIP3    H245232   0.649   4.916   6.338
15119TIP3   OH245233   0.454   5.449   7.432
15119TIP3    H145234   0.419   5.491   7.510
15119TIP3    H245235   0.454   5.524   7.369
15120TIP3   OH245236   0.350   5.361   6.918
15120TIP3    H145237   0.254   5.362   6.912
15120TIP3    H245238   0.372   5.312   6.835
15121TIP3   OH245239   0.846   5.436   6.660
15121TIP3    H145240   0.794   5.509   6.618
15121TIP3    H245241   0.902   5.407   6.585
15122TIP3   OH245242   1.027   5.720   7.756
15122TIP3    H145243   1.000   5.647   7.816
15122TIP3    H245244   1.122   5.728   7.779
15123TIP3   OH245245   1.012   5.469   6.897
15123TIP3    H145246   0.945   5.498   6.833
15123TIP3    H245247   1.038   5.384   6.855
15124TIP3   OH245248   0.345   4.975   6.339
15124TIP3    H145249   0.338   4.972   6.437
15124TIP3    H245250   0.253   4.984   6.312
15125TIP3   OH245251   1.019   5.712   7.324
15125TIP3    H145252   1.049   5.639   7.264
15125TIP3    H245253   0.989   5.660   7.401
15126TIP3   OH245254   0.686   5.177   6.993
15126TIP3    H145255   0.603   5.171   7.044
15126TIP3    H245256   0.747   5.178   7.069
15127TIP3   OH245257   0.394   5.229   6.682
15127TIP3    H145258   0.491   5.241   6.673
15127TIP3    H245259   0.358   5.267   6.600
15128TIP3   OH245260   1.176   5.245   7.196
15128TIP3    H145261   1.138   5.258   7.285
15128TIP3    H245262   1.107   5.187   7.156
15129TIP3   OH245263   0.209   5.290   6.465
15129TIP3    H145264   0.173   5.200   6.451
15129TIP3    H245265   0.270   5.301   6.389
15130TIP3   OH245266   1.345   6.938   7.414
15130TIP3    H145267   1.342   6.962   7.320
15130TIP3    H245268   1.424   6.988   7.444
15131TIP3   OH245269   0.766   5.508   7.085
15131TIP3    H145270   0.828   5.441   7.055
15131TIP3    H245271   0.761   5.488   7.182
15132TIP3   OH245272   0.326   4.981   6.948
15132TIP3    H145273   0.257   4.916   6.975
15132TIP3    H245274   0.378   4.930   6.886
15133TIP3   OH245275   0.748   5.476   7.354
15133TIP3    H145276   0.671   5.427   7.388
15133TIP3    H245277   0.805   5.485   7.433
15134TIP3   OH245278   0.485   5.783   6.462
15134TIP3    H145279   0.409   5.721   6.459
15134TIP3    H245280   0.474   5.822   6.552
15135TIP3   OH245281   1.381   6.023   7.106
15135TIP3    H145282   1.404   6.074   7.025
15135TIP3    H245283   1.294   5.984   7.082
15136TIP3   OH245284   0.937   5.103   6.336
15136TIP3    H145285   0.841   5.086   6.346
15136TIP3    H245286   0.947   5.197   6.362
15137TIP3   OH245287   0.879   6.098   7.478
15137TIP3    H145288   0.901   6.088   7.571
15137TIP3    H245289   0.842   6.189   7.475
15138TIP3   OH245290   1.007   5.349   6.441
15138TIP3    H145291   1.104   5.355   6.456
15138TIP3    H245292   0.988   5.429   6.388
15139TIP3   OH245293   0.634   5.933   6.292
15139TIP3    H145294   0.588   6.019   6.302
15139TIP3    H245295   0.579   5.876   6.350
15140TIP3   OH245296   0.788   5.854   7.790
15140TIP3    H145297   0.729   5.785   7.753
15140TIP3    H245298   0.876   5.821   7.761
15141TIP3   OH245299   1.046   6.365   7.371
15141TIP3    H145300   0.950   6.358   7.385
15141TIP3    H245301   1.071   6.420   7.448
15142TIP3   OH245302   1.452   5.439   6.277
15142TIP3    H145303   1.389   5.393   6.216
15142TIP3    H245304   1.447   5.528   6.235
15143TIP3   OH245305   1.668   6.294   7.360
15143TIP3    H145306   1.570   6.291   7.350
15143TIP3    H245307   1.694   6.267   7.269
15144TIP3   OH245308   1.150   6.258   6.186
15144TIP3    H145309   1.124   6.188   6.248
15144TIP3    H245310   1.161   6.211   6.102
15145TIP3   OH245311   1.147   5.886   7.025
15145TIP3    H145312   1.054   5.860   7.038
15145TIP3    H245313   1.181   5.806   6.979
15146TIP3   OH245314   0.455   5.883   6.711
15146TIP3    H145315   0.443   5.976   6.732
15146TIP3    H245316   0.417   5.840   6.788
15147TIP3   OH245317   0.934   6.094   7.206
15147TIP3    H145318   0.920   6.090   7.303
15147TIP3    H245319   1.011   6.038   7.195
15148TIP3   OH245320   0.905   5.986   6.086
15148TIP3    H145321   0.956   5.961   6.167
15148TIP3    H245322   0.816   5.959   6.113
15149TIP3   OH245323   1.181   6.626   7.256
15149TIP3    H145324   1.102   6.570   7.249
15149TIP3    H245325   1.165   6.691   7.184
15150TIP3   OH245326   1.244   6.461   5.908
15150TIP3    H145327   1.281   6.534   5.855
15150TIP3    H245328   1.164   6.506   5.942
15151TIP3   OH245329   1.064   5.918   6.303
15151TIP3    H145330   1.055   5.853   6.375
15151TIP3    H245331   1.161   5.918   6.292
15152TIP3   OH245332   0.324   5.940   6.110
15152TIP3    H145333   0.336   5.853   6.066
15152TIP3    H245334   0.312   5.913   6.202
15153TIP3   OH245335   1.105   5.303   7.454
15153TIP3    H145336   1.179   5.337   7.506
15153TIP3    H245337   1.081   5.222   7.504
15154TIP3   OH245338   0.980   5.054   6.618
15154TIP3    H145339   0.967   5.078   6.524
15154TIP3    H245340   1.020   5.135   6.655
15155TIP3   OH245341   0.489   6.159   6.316
15155TIP3    H145342   0.399   6.186   6.338
15155TIP3    H245343   0.506   6.209   6.234
15156TIP3   OH245344   0.668   5.234   6.720
15156TIP3    H145345   0.734   5.305   6.702
15156TIP3    H245346   0.676   5.226   6.818
15157TIP3   OH245347   0.947   5.561   7.541
15157TIP3    H145348   0.970   5.615   7.619
15157TIP3    H245349   0.997   5.479   7.556
15158TIP3   OH245350   0.816   4.963   6.828
15158TIP3    H145351   0.805   5.041   6.885
15158TIP3    H245352   0.877   4.999   6.759
15159TIP3   OH245353   0.332   4.969   6.618
15159TIP3    H145354   0.348   5.055   6.663
15159TIP3    H245355   0.424   4.933   6.622
15160TIP3   OH245356   1.582   5.450   7.503
15160TIP3    H145357   1.486   5.455   7.522
15160TIP3    H245358   1.578   5.403   7.419
15161TIP3   OH245359   1.236   5.642   6.900
15161TIP3    H145360   1.155   5.588   6.909
15161TIP3    H245361   1.300   5.590   6.952
15162TIP3   OH245362   1.200   6.599   6.848
15162TIP3    H145363   1.157   6.646   6.772
15162TIP3    H245364   1.294   6.619   6.827
15163TIP3   OH245365   0.476   6.158   6.023
15163TIP3    H145366   0.422   6.081   6.051
15163TIP3    H245367   0.525   6.120   5.948
15164TIP3   OH245368   1.098   6.502   7.604
15164TIP3    H145369   1.091   6.430   7.671
15164TIP3    H245370   1.174   6.553   7.637
15165TIP3   OH245371   0.872   6.213   5.911
15165TIP3    H145372   0.915   6.148   5.970
15165TIP3    H245373   0.929   6.212   5.832
15166TIP3   OH245374   0.727   6.127   7.790
15166TIP3    H145375   0.662   6.110   7.721
15166TIP3    H245376   0.759   6.035   7.807
15167TIP3   OH245377   0.607   5.877   6.022
15167TIP3    H145378   0.602   5.895   6.118
15167TIP3    H245379   0.599   5.779   6.022
15168TIP3   OH245380   1.204   6.128   7.408
15168TIP3    H145381   1.276   6.176   7.364
15168TIP3    H245382   1.131   6.192   7.396
15169TIP3   OH245383   0.293   5.588   6.445
15169TIP3    H145384   0.264   5.534   6.519
15169TIP3    H245385   0.326   5.519   6.383
15170TIP3   OH245386   0.629   5.663   7.667
15170TIP3    H145387   0.539   5.702   7.664
15170TIP3    H245388   0.660   5.687   7.576
15171TIP3   OH245389   0.392   5.382   6.284
15171TIP3    H145390   0.368   5.391   6.189
15171TIP3    H245391   0.490   5.389   6.277
15172TIP3   OH245392   1.072   6.052   7.807
15172TIP3    H145393   1.149   6.027   7.755
15172TIP3    H245394   1.071   5.983   7.877
15173TIP3   OH245395   1.211   5.716   5.946
15173TIP3    H145396   1.188   5.669   5.863
15173TIP3    H245397   1.179   5.806   5.922
15174TIP3   OH245398   0.693   5.426   7.801
15174TIP3    H145399   0.684   5.355   7.735
15174TIP3    H245400   0.661   5.504   7.752
15175TIP3   OH245401   0.676   5.235   7.594
15175TIP3    H145402   0.714   5.224   7.503
15175TIP3    H245403   0.584   5.214   7.573
15176TIP3   OH245404   0.702   5.790   7.436
15176TIP3    H145405   0.785   5.756   7.402
15176TIP3    H245406   0.707   5.884   7.413
15177TIP3   OH245407   1.292   5.733   7.860
15177TIP3    H145408   1.340   5.649   7.868
15177TIP3    H245409   1.359   5.792   7.823
15178TIP3   OH245410   1.332   5.985   7.597
15178TIP3    H145411   1.274   6.038   7.538
15178TIP3    H245412   1.419   6.005   7.555
15179TIP3   OH245413   0.813   4.999   7.673
15179TIP3    H145414   0.766   5.079   7.643
15179TIP3    H245415   0.745   4.930   7.658
15180TIP3   OH245416   0.943   5.499   7.889
15180TIP3    H145417   0.925   5.488   7.985
15180TIP3    H245418   0.855   5.469   7.855
15181TIP3   OH245419   1.179   5.446   7.743
15181TIP3    H145420   1.101   5.448   7.802
15181TIP3    H245421   1.250   5.414   7.802
15182TIP3   OH245422   1.416   5.390   7.895
15182TIP3    H145423   1.423   5.293   7.913
15182TIP3    H245424   1.406   5.427   7.985
15183TIP3   OH245425   0.909   5.005   7.930
15183TIP3    H145426   0.975   4.933   7.923
15183TIP3    H245427   0.869   5.001   7.841
15184TIP3   OH245428   0.978   5.224   8.080
15184TIP3    H145429   0.954   5.151   8.019
15184TIP3    H245430   0.899   5.282   8.076
15185TIP3   OH245431   1.454   6.688   6.804
15185TIP3    H145432   1.476   6.725   6.891
15185TIP3    H245433   1.509   6.741   6.745
15186TIP3   OH245434   1.480   6.712   7.085
15186TIP3    H145435   1.438   6.623   7.083
15186TIP3    H245436   1.557   6.693   7.141
15187TIP3   OH245437   1.530   6.389   7.660
15187TIP3    H145438   1.456   6.397   7.723
15187TIP3    H245439   1.570   6.479   7.664
15188TIP3   OH245440   1.345   5.902   6.279
15188TIP3    H145441   1.412   5.967   6.251
15188TIP3    H245442   1.388   5.863   6.358
15189TIP3   OH245443   1.472   5.768   6.482
15189TIP3    H145444   1.406   5.727   6.541
15189TIP3    H245445   1.534   5.809   6.545
15190TIP3   OH245446   1.528   6.162   6.917
15190TIP3    H145447   1.578   6.100   6.861
15190TIP3    H245448   1.517   6.239   6.858
15191TIP3   OH245449   1.357   6.460   7.112
15191TIP3    H145450   1.287   6.505   7.162
15191TIP3    H245451   1.306   6.414   7.042
15192TIP3   OH245452   1.410   5.677   6.130
15192TIP3    H145453   1.338   5.680   6.063
15192TIP3    H245454   1.383   5.754   6.185
15193TIP3   OH245455   1.282   5.351   6.085
15193TIP3    H145456   1.238   5.389   6.008
15193TIP3    H245457   1.256   5.256   6.076
15194TIP3   OH245458   1.287   5.625   6.629
15194TIP3    H145459   1.291   5.528   6.623
15194TIP3    H245460   1.272   5.640   6.725
15195TIP3   OH245461   1.575   6.049   7.487
15195TIP3    H145462   1.649   5.986   7.476
15195TIP3    H245463   1.599   6.121   7.426
15196TIP3   OH245464   1.762   5.854   7.500
15196TIP3    H145465   1.686   5.806   7.540
15196TIP3    H245466   1.833   5.789   7.511
15197TIP3   OH245467   1.223   5.086   6.074
15197TIP3    H145468   1.299   5.052   6.126
15197TIP3    H245469   1.151   5.024   6.095
15198TIP3   OH245470   1.282   5.343   6.525
15198TIP3    H145471   1.322   5.254   6.540
15198TIP3    H245472   1.340   5.375   6.453
15199TIP3   OH245473   1.455   5.503   7.025
15199TIP3    H145474   1.536   5.537   6.983
15199TIP3    H245475   1.457   5.551   7.110
15200TIP3   OH245476   1.515   5.658   7.249
15200TIP3    H145477   1.438   5.689   7.301
15200TIP3    H245478   1.545   5.742   7.208
15201TIP3   OH245479   1.967   5.253   7.808
15201TIP3    H145480   2.022   5.185   7.764
15201TIP3    H245481   1.936   5.307   7.732
15202TIP3   OH245482   1.391   5.092   6.563
15202TIP3    H145483   1.436   5.074   6.648
15202TIP3    H245484   1.329   5.016   6.559
15203TIP3   OH245485   1.836   5.391   7.614
15203TIP3    H145486   1.751   5.430   7.641
15203TIP3    H245487   1.802   5.316   7.559
15204TIP3   OH245488   1.475   5.024   6.193
15204TIP3    H145489   1.513   4.953   6.139
15204TIP3    H245490   1.540   5.096   6.182
15205TIP3   OH245491   1.036   6.557   6.463
15205TIP3    H145492   1.089   6.546   6.381
15205TIP3    H245493   1.085   6.626   6.509
15206TIP3   OH245494   0.797   6.612   7.545
15206TIP3    H145495   0.801   6.656   7.631
15206TIP3    H245496   0.837   6.679   7.486
15207TIP3   OH245497   0.936   6.799   7.390
15207TIP3    H145498   1.002   6.741   7.348
15207TIP3    H245499   0.993   6.850   7.451
15208TIP3   OH245500   1.736   5.157   7.495
15208TIP3    H145501   1.646   5.151   7.459
15208TIP3    H245502   1.771   5.069   7.471
15209TIP3   OH245503   0.662   6.681   7.044
15209TIP3    H145504   0.566   6.695   7.031
15209TIP3    H245505   0.685   6.762   7.094
15210TIP3   OH245506   0.923   6.605   7.126
15210TIP3    H145507   0.832   6.619   7.093
15210TIP3    H245508   0.971   6.677   7.082
15211TIP3   OH245509   1.128   6.789   7.041
15211TIP3    H145510   1.117   6.876   6.996
15211TIP3    H245511   1.156   6.732   6.966
15212TIP3   OH245512   0.962   5.081   7.105
15212TIP3    H145513   0.896   5.046   7.167
15212TIP3    H245514   1.004   5.001   7.071
15213TIP3   OH245515   1.468   4.963   7.025
15213TIP3    H145516   1.499   5.005   6.942
15213TIP3    H245517   1.370   4.966   7.012
15214TIP3   OH245518   1.557   5.047   6.781
15214TIP3    H145519   1.629   4.995   6.738
15214TIP3    H245520   1.590   5.138   6.766
15215TIP3   OH245521   0.632   4.826   7.004
15215TIP3    H145522   0.697   4.871   6.949
15215TIP3    H245523   0.663   4.847   7.093
15216TIP3   OH245524   1.199   4.951   6.984
15216TIP3    H145525   1.171   4.918   6.898
15216TIP3    H245526   1.176   4.875   7.042
15217TIP3   OH245527   1.208   4.880   6.554
15217TIP3    H145528   1.120   4.921   6.565
15217TIP3    H245529   1.193   4.794   6.600
15218TIP3   OH245530   0.119   4.732   6.578
15218TIP3    H145531   0.127   4.716   6.483
15218TIP3    H245532   0.159   4.819   6.588
15219TIP3   OH245533   0.610   4.980   6.635
15219TIP3    H145534   0.666   4.933   6.699
15219TIP3    H245535   0.631   5.073   6.661
15220TIP3   OH245536   0.472   6.411   6.165
15220TIP3    H145537   0.559   6.414   6.120
15220TIP3    H245538   0.420   6.371   6.092
15221TIP3   OH245539   1.182   6.526   6.229
15221TIP3    H145540   1.173   6.428   6.215
15221TIP3    H245541   1.137   6.560   6.149
15222TIP3   OH245542   0.636   5.032   8.134
15222TIP3    H145543   0.721   5.023   8.087
15222TIP3    H245544   0.651   4.978   8.213
15223TIP3   OH245545   1.469   5.117   7.925
15223TIP3    H145546   1.489   5.087   8.016
15223TIP3    H245547   1.557   5.112   7.882
15224TIP3   OH245548   1.408   6.669   7.418
15224TIP3    H145549   1.330   6.638   7.368
15224TIP3    H245550   1.390   6.765   7.419
15225TIP3   OH245551   2.675   6.041   6.182
15225TIP3    H145552   2.647   6.133   6.163
15225TIP3    H245553   2.597   5.993   6.150
15226TIP3   OH245554   2.675   6.041   6.563
15226TIP3    H145555   2.705   6.013   6.651
15226TIP3    H245556   2.632   5.960   6.530
15227TIP3   OH245557   1.975   5.938   6.926
15227TIP3    H145558   2.008   5.874   6.992
15227TIP3    H245559   2.049   6.000   6.920
15228TIP3   OH245560   2.918   6.344   6.245
15228TIP3    H145561   2.902   6.276   6.312
15228TIP3    H245562   2.944   6.420   6.299
15229TIP3   OH245563   1.945   6.346   6.654
15229TIP3    H145564   1.935   6.249   6.657
15229TIP3    H245565   2.042   6.355   6.648
15230TIP3   OH245566   1.650   5.550   6.442
15230TIP3    H145567   1.601   5.633   6.454
15230TIP3    H245568   1.582   5.496   6.399
15231TIP3   OH245569   1.711   5.838   6.611
15231TIP3    H145570   1.760   5.761   6.646
15231TIP3    H245571   1.768   5.869   6.540
15232TIP3   OH245572   2.563   6.804   6.259
15232TIP3    H145573   2.612   6.732   6.216
15232TIP3    H245574   2.557   6.773   6.350
15233TIP3   OH245575   2.472   6.265   6.613
15233TIP3    H145576   2.512   6.191   6.565
15233TIP3    H245577   2.555   6.312   6.638
15234TIP3   OH245578   3.485   5.587   6.610
15234TIP3    H145579   3.513   5.670   6.653
15234TIP3    H245580   3.507   5.606   6.517
15235TIP3   OH245581   2.883   5.768   6.646
15235TIP3    H145582   2.927   5.683   6.665
15235TIP3    H245583   2.853   5.754   6.554
15236TIP3   OH245584   2.220   5.427   6.611
15236TIP3    H145585   2.202   5.500   6.548
15236TIP3    H245586   2.175   5.353   6.565
15237TIP3   OH245587   2.915   5.519   6.233
15237TIP3    H145588   2.988   5.504   6.298
15237TIP3    H245589   2.967   5.554   6.158
15238TIP3   OH245590   1.852   5.626   6.718
15238TIP3    H145591   1.939   5.614   6.760
15238TIP3    H245592   1.865   5.575   6.636
15239TIP3   OH245593   2.297   5.828   6.509
15239TIP3    H145594   2.391   5.802   6.522
15239TIP3    H245595   2.258   5.744   6.477
15240TIP3   OH245596   3.558   5.795   6.780
15240TIP3    H145597   3.475   5.843   6.761
15240TIP3    H245598   3.575   5.823   6.871
15241TIP3   OH245599   2.218   5.410   7.043
15241TIP3    H145600   2.163   5.453   6.974
15241TIP3    H245601   2.164   5.424   7.123
15242TIP3   OH245602   2.569   6.265   6.051
15242TIP3    H145603   2.523   6.242   5.969
15242TIP3    H245604   2.524   6.348   6.076
15243TIP3   OH245605   2.324   6.186   6.840
15243TIP3    H145606   2.262   6.253   6.877
15243TIP3    H245607   2.368   6.237   6.769
15244TIP3   OH245608   3.126   5.522   6.404
15244TIP3    H145609   3.119   5.472   6.486
15244TIP3    H245610   3.181   5.598   6.431
15245TIP3   OH245611   2.090   5.528   6.827
15245TIP3    H145612   2.150   5.603   6.848
15245TIP3    H245613   2.139   5.488   6.751
15246TIP3   OH245614   2.153   6.380   6.936
15246TIP3    H145615   2.129   6.467   6.897
15246TIP3    H245616   2.074   6.366   6.993
15247TIP3   OH245617   1.549   6.071   6.174
15247TIP3    H145618   1.506   6.097   6.091
15247TIP3    H245619   1.578   6.158   6.210
15248TIP3   OH245620   2.988   6.585   6.411
15248TIP3    H145621   2.898   6.577   6.452
15248TIP3    H245622   2.980   6.672   6.368
15249TIP3   OH245623   3.279   5.487   6.776
15249TIP3    H145624   3.191   5.517   6.747
15249TIP3    H245625   3.337   5.519   6.704
15250TIP3   OH245626   2.576   5.130   6.757
15250TIP3    H145627   2.565   5.035   6.775
15250TIP3    H245628   2.498   5.166   6.804
15251TIP3   OH245629   2.692   6.631   6.089
15251TIP3    H145630   2.742   6.550   6.066
15251TIP3    H245631   2.749   6.699   6.046
15252TIP3   OH245632   2.835   6.416   5.991
15252TIP3    H145633   2.787   6.338   5.959
15252TIP3    H245634   2.870   6.384   6.077
15253TIP3   OH245635   3.214   6.500   6.757
15253TIP3    H145636   3.202   6.423   6.697
15253TIP3    H245637   3.195   6.575   6.698
15254TIP3   OH245638   2.505   5.893   6.014
15254TIP3    H145639   2.424   5.944   5.993
15254TIP3    H245640   2.551   5.892   5.928
15255TIP3   OH245641   2.464   5.678   5.730
15255TIP3    H145642   2.531   5.727   5.780
15255TIP3    H245643   2.521   5.614   5.683
15256TIP3   OH245644   3.409   6.136   6.601
15256TIP3    H145645   3.326   6.188   6.607
15256TIP3    H245646   3.438   6.160   6.511
15257TIP3   OH245647   2.852   5.976   5.986
15257TIP3    H145648   2.797   6.001   6.064
15257TIP3    H245649   2.935   5.950   6.030
15258TIP3   OH245650   3.088   6.015   6.898
15258TIP3    H145651   3.086   6.099   6.947
15258TIP3    H245652   3.002   6.020   6.851
15259TIP3   OH245653   2.084   5.973   6.403
15259TIP3    H145654   2.043   5.916   6.335
15259TIP3    H245655   2.162   5.920   6.430
15260TIP3   OH245656   2.213   6.383   6.552
15260TIP3    H145657   2.194   6.343   6.466
15260TIP3    H245658   2.304   6.351   6.570
15261TIP3   OH245659   2.224   5.944   6.756
15261TIP3    H145660   2.256   5.926   6.665
15261TIP3    H245661   2.265   6.031   6.776
15262TIP3   OH245662   2.748   6.582   6.533
15262TIP3    H145663   2.732   6.663   6.584
15262TIP3    H245664   2.732   6.511   6.599
15263TIP3   OH245665   2.358   6.499   7.082
15263TIP3    H145666   2.300   6.564   7.127
15263TIP3    H245667   2.292   6.448   7.031
15264TIP3   OH245668   2.694   5.833   5.812
15264TIP3    H145669   2.753   5.893   5.864
15264TIP3    H245670   2.719   5.858   5.720
15265TIP3   OH245671   2.112   6.054   7.183
15265TIP3    H145672   2.119   6.142   7.225
15265TIP3    H245673   2.016   6.038   7.193
15266TIP3   OH245674   2.437   6.512   6.086
15266TIP3    H145675   2.514   6.568   6.106
15266TIP3    H245676   2.374   6.576   6.050
15267TIP3   OH245677   2.154   6.668   7.167
15267TIP3    H145678   2.119   6.669   7.076
15267TIP3    H245679   2.074   6.647   7.220
15268TIP3   OH245680   3.210   5.081   5.862
15268TIP3    H145681   3.126   5.097   5.910
15268TIP3    H245682   3.218   5.161   5.807
15269TIP3   OH245683   1.951   5.816   6.207
15269TIP3    H145684   1.886   5.864   6.151
15269TIP3    H245685   1.907   5.730   6.217
15270TIP3   OH245686   3.006   6.442   5.406
15270TIP3    H145687   3.014   6.539   5.395
15270TIP3    H245688   3.099   6.414   5.393
15271TIP3   OH245689   1.732   6.199   7.114
15271TIP3    H145690   1.664   6.181   7.046
15271TIP3    H245691   1.768   6.111   7.135
15272TIP3   OH245692   1.586   6.392   6.750
15272TIP3    H145693   1.682   6.393   6.740
15272TIP3    H245694   1.571   6.474   6.800
15273TIP3   OH245695   3.452   6.844   6.803
15273TIP3    H145696   3.449   6.748   6.818
15273TIP3    H245697   3.368   6.870   6.848
15274TIP3   OH245698   2.558   6.629   6.938
15274TIP3    H145699   2.557   6.722   6.969
15274TIP3    H245700   2.486   6.591   6.993
15275TIP3   OH245701   2.318   6.761   5.889
15275TIP3    H145702   2.269   6.743   5.806
15275TIP3    H245703   2.285   6.849   5.914
15276TIP3   OH245704   1.755   6.609   6.272
15276TIP3    H145705   1.803   6.600   6.357
15276TIP3    H245706   1.694   6.534   6.278
15277TIP3   OH245707   2.520   6.661   5.529
15277TIP3    H145708   2.578   6.590   5.494
15277TIP3    H245709   2.552   6.670   5.621
15278TIP3   OH245710   2.569   6.708   5.799
15278TIP3    H145711   2.481   6.719   5.840
15278TIP3    H245712   2.620   6.670   5.872
15279TIP3   OH245713   3.342   5.976   7.078
15279TIP3    H145714   3.261   5.990   7.027
15279TIP3    H245715   3.356   5.879   7.066
15280TIP3   OH245716   1.939   6.381   7.102
15280TIP3    H145717   1.986   6.367   7.186
15280TIP3    H245718   1.863   6.319   7.111
15281TIP3   OH245719   2.336   5.204   6.885
15281TIP3    H145720   2.247   5.174   6.858
15281TIP3    H245721   2.312   5.288   6.928
15282TIP3   OH245722   2.871   5.322   7.081
15282TIP3    H145723   2.939   5.294   7.146
15282TIP3    H245724   2.787   5.301   7.128
15283TIP3   OH245725   3.110   5.751   6.999
15283TIP3    H145726   3.062   5.748   7.085
15283TIP3    H245727   3.086   5.839   6.964
15284TIP3   OH245728   2.769   5.881   5.555
15284TIP3    H145729   2.737   5.854   5.467
15284TIP3    H245730   2.849   5.930   5.532
15285TIP3   OH245731   2.481   5.259   5.857
15285TIP3    H145732   2.448   5.257   5.950
15285TIP3    H245733   2.453   5.171   5.827
15286TIP3   OH245734   2.266   5.721   6.904
15286TIP3    H145735   2.220   5.746   6.986
15286TIP3    H245736   2.253   5.802   6.849
15287TIP3   OH245737   2.152   5.607   6.420
15287TIP3    H145738   2.058   5.582   6.435
15287TIP3    H245739   2.166   5.568   6.331
15288TIP3   OH245740   2.642   5.694   6.147
15288TIP3    H145741   2.589   5.765   6.105
15288TIP3    H245742   2.697   5.664   6.072
15289TIP3   OH245743   2.817   5.972   7.232
15289TIP3    H145744   2.795   5.899   7.295
15289TIP3    H245745   2.910   5.988   7.255
15290TIP3   OH245746   2.799   5.723   6.387
15290TIP3    H145747   2.740   5.753   6.315
15290TIP3    H245748   2.832   5.641   6.344
15291TIP3   OH245749   2.086   5.758   7.114
15291TIP3    H145750   2.114   5.830   7.173
15291TIP3    H245751   2.067   5.687   7.176
15292TIP3   OH245752   2.142   5.229   5.827
15292TIP3    H145753   2.128   5.226   5.924
15292TIP3    H245754   2.061   5.277   5.798
15293TIP3   OH245755   1.685   5.271   6.701
15293TIP3    H145756   1.768   5.313   6.726
15293TIP3    H245757   1.702   5.238   6.611
15294TIP3   OH245758   1.655   5.255   6.215
15294TIP3    H145759   1.699   5.293   6.136
15294TIP3    H245760   1.592   5.327   6.236
15295TIP3   OH245761   2.809   5.969   6.810
15295TIP3    H145762   2.842   5.897   6.751
15295TIP3    H245763   2.780   5.916   6.887
15296TIP3   OH245764   2.479   5.431   6.481
15296TIP3    H145765   2.398   5.428   6.535
15296TIP3    H245766   2.549   5.430   6.549
15297TIP3   OH245767   1.911   5.483   6.492
15297TIP3    H145768   1.818   5.492   6.462
15297TIP3    H245769   1.936   5.394   6.461
15298TIP3   OH245770   2.183   5.482   6.178
15298TIP3    H145771   2.277   5.499   6.156
15298TIP3    H245772   2.136   5.506   6.095
15299TIP3   OH245773   2.972   5.506   6.684
15299TIP3    H145774   2.936   5.518   6.774
15299TIP3    H245775   2.907   5.445   6.646
15300TIP3   OH245776   2.025   5.516   5.957
15300TIP3    H145777   1.953   5.470   5.910
15300TIP3    H245778   2.076   5.551   5.881
15301TIP3   OH245779   3.142   7.193   6.902
15301TIP3    H145780   3.136   7.221   6.808
15301TIP3    H245781   3.216   7.247   6.934
15302TIP3   OH245782   2.099   6.301   7.324
15302TIP3    H145783   2.178   6.335   7.370
15302TIP3    H245784   2.033   6.306   7.396
15303TIP3   OH245785   2.563   5.758   6.577
15303TIP3    H145786   2.636   5.720   6.524
15303TIP3    H245787   2.576   5.716   6.664
15304TIP3   OH245788   2.088   5.245   6.456
15304TIP3    H145789   2.053   5.164   6.499
15304TIP3    H245790   2.135   5.209   6.380
15305TIP3   OH245791   2.539   5.652   6.874
15305TIP3    H145792   2.451   5.692   6.884
15305TIP3    H245793   2.598   5.715   6.920
15306TIP3   OH245794   2.277   6.046   5.963
15306TIP3    H145795   2.204   5.981   5.952
15306TIP3    H245796   2.258   6.080   6.054
15307TIP3   OH245797   3.177   6.281   6.593
15307TIP3    H145798   3.201   6.331   6.512
15307TIP3    H245799   3.090   6.242   6.568
15308TIP3   OH245800   2.734   5.361   5.827
15308TIP3    H145801   2.637   5.345   5.835
15308TIP3    H245802   2.744   5.455   5.851
15309TIP3   OH245803   2.672   6.362   6.962
15309TIP3    H145804   2.699   6.347   7.053
15309TIP3    H245805   2.637   6.453   6.964
15310TIP3   OH245806   2.803   5.606   5.929
15310TIP3    H145807   2.900   5.612   5.944
15310TIP3    H245808   2.785   5.686   5.876
15311TIP3   OH245809   1.967   6.066   6.640
15311TIP3    H145810   2.006   6.040   6.554
15311TIP3    H245811   2.010   6.003   6.701
15312TIP3   OH245812   2.420   6.196   5.783
15312TIP3    H145813   2.373   6.282   5.790
15312TIP3    H245814   2.366   6.140   5.844
15313TIP3   OH245815   1.849   5.984   7.251
15313TIP3    H145816   1.867   5.973   7.346
15313TIP3    H245817   1.774   5.923   7.238
15314TIP3   OH245818   2.574   6.101   7.273
15314TIP3    H145819   2.517   6.046   7.218
15314TIP3    H245820   2.663   6.070   7.245
15315TIP3   OH245821   2.836   6.617   6.859
15315TIP3    H145822   2.739   6.622   6.869
15315TIP3    H245823   2.864   6.673   6.935
15316TIP3   OH245824   3.247   5.696   5.764
15316TIP3    H145825   3.184   5.650   5.702
15316TIP3    H245826   3.242   5.785   5.723
15317TIP3   OH245827   3.463   6.552   6.847
15317TIP3    H145828   3.366   6.548   6.838
15317TIP3    H245829   3.490   6.524   6.756
15318TIP3   OH245830   2.949   6.515   5.673
15318TIP3    H145831   2.919   6.449   5.737
15318TIP3    H245832   2.956   6.465   5.590
15319TIP3   OH245833   2.942   6.144   6.511
15319TIP3    H145834   2.848   6.119   6.524
15319TIP3    H245835   2.976   6.064   6.466
15320TIP3   OH245836   2.068   6.370   6.262
15320TIP3    H145837   2.070   6.453   6.210
15320TIP3    H245838   1.973   6.358   6.275
15321TIP3   OH245839   1.632   5.677   5.968
15321TIP3    H145840   1.678   5.761   5.988
15321TIP3    H245841   1.554   5.683   6.027
15322TIP3   OH245842   2.208   6.138   6.209
15322TIP3    H145843   2.172   6.227   6.225
15322TIP3    H245844   2.170   6.089   6.284
15323TIP3   OH245845   2.338   6.715   6.732
15323TIP3    H145846   2.377   6.789   6.682
15323TIP3    H245847   2.416   6.684   6.782
15324TIP3   OH245848   1.990   6.610   6.117
15324TIP3    H145849   1.903   6.618   6.162
15324TIP3    H245850   2.021   6.703   6.120
15325TIP3   OH245851   2.726   6.349   6.692
15325TIP3    H145852   2.716   6.348   6.790
15325TIP3    H245853   2.808   6.300   6.680
15326TIP3   OH245854   2.700   6.243   5.573
15326TIP3    H145855   2.753   6.217   5.652
15326TIP3    H245856   2.612   6.217   5.603
15327TIP3   OH245857   2.976   6.882   6.741
15327TIP3    H145858   2.895   6.829   6.732
15327TIP3    H245859   2.962   6.949   6.670
15328TIP3   OH245860   3.041   6.719   5.393
15328TIP3    H145861   3.074   6.795   5.342
15328TIP3    H245862   2.960   6.761   5.430
15329TIP3   OH245863   2.039   5.460   7.267
15329TIP3    H145864   1.985   5.516   7.325
15329TIP3    H245865   2.096   5.416   7.334
15330TIP3   OH245866   2.860   6.173   5.788
15330TIP3    H145867   2.850   6.110   5.861
15330TIP3    H245868   2.958   6.174   5.778
15331TIP3   OH245869   1.777   6.579   6.892
15331TIP3    H145870   1.831   6.507   6.928
15331TIP3    H245871   1.803   6.652   6.949
15332TIP3   OH245872   2.068   6.223   5.573
15332TIP3    H145873   2.080   6.130   5.545
15332TIP3    H245874   2.049   6.212   5.669
15333TIP3   OH245875   2.014   6.228   5.845
15333TIP3    H145876   2.082   6.202   5.908
15333TIP3    H245877   2.016   6.326   5.852
15334TIP3   OH245878   1.749   5.922   6.050
15334TIP3    H145879   1.682   5.967   6.107
15334TIP3    H245880   1.762   5.992   5.982
15335TIP3   OH245881   2.896   5.559   6.942
15335TIP3    H145882   2.977   5.597   6.980
15335TIP3    H245883   2.883   5.478   6.995
15336TIP3   OH245884   2.773   5.311   6.106
15336TIP3    H145885   2.763   5.333   6.012
15336TIP3    H245886   2.815   5.392   6.142
15337TIP3   OH245887   2.278   6.426   5.794
15337TIP3    H145888   2.191   6.452   5.831
15337TIP3    H245889   2.295   6.501   5.735
15338TIP3   OH245890   2.466   5.489   6.208
15338TIP3    H145891   2.531   5.560   6.190
15338TIP3    H245892   2.472   5.482   6.306
15339TIP3   OH245893   2.734   5.806   7.018
15339TIP3    H145894   2.757   5.862   7.095
15339TIP3    H245895   2.792   5.729   7.030
15340TIP3   OH245896   2.611   5.216   6.312
15340TIP3    H145897   2.604   5.292   6.371
15340TIP3    H245898   2.671   5.252   6.242
15341TIP3   OH245899   2.021   6.501   5.863
15341TIP3    H145900   1.991   6.570   5.800
15341TIP3    H245901   2.005   6.545   5.949
15342TIP3   OH245902   2.123   5.214   6.102
15342TIP3    H145903   2.120   5.306   6.136
15342TIP3    H245904   2.220   5.197   6.110
15343TIP3   OH245905   3.377   5.707   6.997
15343TIP3    H145906   3.279   5.706   7.004
15343TIP3    H245907   3.387   5.669   6.909
15344TIP3   OH245908   3.027   5.902   6.385
15344TIP3    H145909   2.951   5.842   6.397
15344TIP3    H245910   3.098   5.855   6.433
15345TIP3   OH245911   1.739   6.131   5.856
15345TIP3    H145912   1.802   6.205   5.864
15345TIP3    H245913   1.785   6.078   5.788
15346TIP3   OH245914   1.685   5.407   5.989
15346TIP3    H145915   1.681   5.504   5.984
15346TIP3    H245916   1.603   5.381   5.945
15347TIP3   OH245917   2.996   6.855   6.333
15347TIP3    H145918   2.953   6.902   6.258
15347TIP3    H245919   3.090   6.876   6.313
15348TIP3   OH245920   2.069   5.123   6.861
15348TIP3    H145921   2.040   5.091   6.773
15348TIP3    H245922   2.061   5.042   6.916
15349TIP3   OH245923   1.609   6.341   6.243
15349TIP3    H145924   1.540   6.375   6.302
15349TIP3    H245925   1.584   6.385   6.158
15350TIP3   OH245926   1.768   6.885   7.313
15350TIP3    H145927   1.854   6.886   7.361
15350TIP3    H245928   1.748   6.790   7.312
15351TIP3   OH245929   2.247   6.850   7.362
15351TIP3    H145930   2.343   6.838   7.366
15351TIP3    H245931   2.225   6.793   7.286
15352TIP3   OH245932   2.230   6.427   5.485
15352TIP3    H145933   2.173   6.357   5.526
15352TIP3    H245934   2.305   6.373   5.455
15353TIP3   OH245935   2.890   6.756   7.090
15353TIP3    H145936   2.881   6.687   7.160
15353TIP3    H245937   2.965   6.809   7.122
15354TIP3   OH245938   2.667   6.468   5.398
15354TIP3    H145939   2.709   6.402   5.457
15354TIP3    H245940   2.725   6.467   5.320
15355TIP3   OH245941   1.898   6.293   7.515
15355TIP3    H145942   1.913   6.197   7.518
15355TIP3    H245943   1.810   6.298   7.471
15356TIP3   OH245944   1.875   5.945   5.707
15356TIP3    H145945   1.930   5.911   5.780
15356TIP3    H245946   1.942   5.949   5.635
15357TIP3   OH245947   2.506   6.378   7.288
15357TIP3    H145948   2.464   6.396   7.201
15357TIP3    H245949   2.537   6.285   7.278
15358TIP3   OH245950   2.386   6.142   5.514
15358TIP3    H145951   2.386   6.156   5.611
15358TIP3    H245952   2.384   6.044   5.510
15359TIP3   OH245953   2.998   6.386   6.893
15359TIP3    H145954   3.072   6.431   6.850
15359TIP3    H245955   2.927   6.452   6.882
15360TIP3   OH245956   2.017   6.023   7.498
15360TIP3    H145957   2.097   5.975   7.476
15360TIP3    H245958   2.040   6.059   7.586
15361TIP3   OH245959   2.085   5.847   5.930
15361TIP3    H145960   2.056   5.805   6.013
15361TIP3    H245961   2.119   5.771   5.879
15362TIP3   OH245962   2.350   5.909   7.154
15362TIP3    H145963   2.276   5.973   7.160
15362TIP3    H245964   2.401   5.944   7.078
15363TIP3   OH245965   2.184   5.640   5.770
15363TIP3    H145966   2.156   5.643   5.677
15363TIP3    H245967   2.281   5.648   5.761
15364TIP3   OH245968   2.866   6.311   7.291
15364TIP3    H145969   2.949   6.293   7.245
15364TIP3    H245970   2.867   6.246   7.363
15365TIP3   OH245971   3.008   5.973   5.432
15365TIP3    H145972   2.984   5.925   5.350
15365TIP3    H245973   2.974   6.063   5.408
15366TIP3   OH245974   2.472   5.699   7.285
15366TIP3    H145975   2.477   5.620   7.227
15366TIP3    H245976   2.432   5.766   7.226
15367TIP3   OH245977   2.477   5.485   7.092
15367TIP3    H145978   2.507   5.528   7.009
15367TIP3    H245979   2.384   5.462   7.070
15368TIP3   OH245980   2.504   6.022   6.965
15368TIP3    H145981   2.588   6.032   6.918
15368TIP3    H245982   2.448   6.089   6.921
15369TIP3   OH245983   3.087   5.990   7.346
15369TIP3    H145984   3.137   5.907   7.355
15369TIP3    H245985   3.155   6.050   7.311
15370TIP3   OH245986   3.128   6.241   7.080
15370TIP3    H145987   3.070   6.295   7.022
15370TIP3    H245988   3.215   6.262   7.040
15371TIP3   OH245989   2.353   5.813   7.514
15371TIP3    H145990   2.284   5.745   7.528
15371TIP3    H245991   2.389   5.787   7.427
15372TIP3   OH245992   2.612   5.251   7.159
15372TIP3    H145993   2.562   5.333   7.135
15372TIP3    H245994   2.543   5.182   7.145
15373TIP3   OH245995   2.736   5.754   7.374
15373TIP3    H145996   2.727   5.744   7.471
15373TIP3    H245997   2.646   5.729   7.346
15374TIP3   OH245998   2.976   5.703   7.229
15374TIP3    H145999   2.900   5.705   7.290
15374TIP3    H246000   3.048   5.672   7.287
15375TIP3   OH246001   3.206   5.645   7.381
15375TIP3    H146002   3.217   5.549   7.399
15375TIP3    H246003   3.200   5.683   7.471
15376TIP3   OH246004   2.193   5.591   7.567
15376TIP3    H146005   2.205   5.498   7.539
15376TIP3    H246006   2.229   5.586   7.658
15377TIP3   OH246007   2.704   5.260   7.417
15377TIP3    H146008   2.772   5.190   7.411
15377TIP3    H246009   2.665   5.254   7.327
15378TIP3   OH246010   2.769   5.474   7.575
15378TIP3    H146011   2.747   5.403   7.510
15378TIP3    H246012   2.691   5.534   7.567
15379TIP3   OH246013   1.990   6.701   5.674
15379TIP3    H146014   2.086   6.700   5.655
15379TIP3    H246015   1.959   6.752   5.597
15380TIP3   OH246016   1.470   6.085   5.891
15380TIP3    H146017   1.565   6.106   5.878
15380TIP3    H246018   1.465   5.996   5.849
15381TIP3   OH246019   1.387   6.696   6.303
15381TIP3    H146020   1.317   6.636   6.269
15381TIP3    H246021   1.430   6.639   6.370
15382TIP3   OH246022   1.523   6.548   6.490
15382TIP3    H146023   1.508   6.477   6.554
15382TIP3    H246024   1.572   6.611   6.545
15383TIP3   OH246025   3.250   6.945   6.290
15383TIP3    H146026   3.271   6.979   6.380
15383TIP3    H246027   3.305   7.002   6.235
15384TIP3   OH246028   3.278   6.968   6.571
15384TIP3    H146029   3.235   6.880   6.569
15384TIP3    H246030   3.351   6.950   6.631
15385TIP3   OH246031   3.325   6.645   7.146
15385TIP3    H146032   3.251   6.654   7.210
15385TIP3    H246033   3.365   6.734   7.150
15386TIP3   OH246034   3.141   6.159   5.766
15386TIP3    H146035   3.210   6.223   5.740
15386TIP3    H246036   3.182   6.119   5.846
15387TIP3   OH246037   3.268   6.026   5.970
15387TIP3    H146038   3.202   5.984   6.029
15387TIP3    H246039   3.332   6.064   6.033
15388TIP3   OH246040   3.322   6.418   6.403
15388TIP3    H146041   3.376   6.355   6.351
15388TIP3    H246042   3.312   6.493   6.340
15389TIP3   OH246043   3.153   6.717   6.598
15389TIP3    H146044   3.083   6.763   6.649
15389TIP3    H246045   3.101   6.671   6.529
15390TIP3   OH246046   3.206   5.934   5.617
15390TIP3    H146047   3.134   5.937   5.550
15390TIP3    H246048   3.179   6.010   5.672
15391TIP3   OH246049   3.078   5.608   5.570
15391TIP3    H146050   3.032   5.645   5.494
15391TIP3    H246051   3.053   5.513   5.563
15392TIP3   OH246052   3.082   5.882   6.115
15392TIP3    H146053   3.090   5.785   6.111
15392TIP3    H246054   3.068   5.898   6.211
15393TIP3   OH246055   1.709   5.948   6.865
15393TIP3    H146056   1.706   5.924   6.770
15393TIP3    H246057   1.807   5.956   6.879
15394TIP3   OH246058   3.370   6.307   6.973
15394TIP3    H146059   3.444   6.242   6.964
15394TIP3    H246060   3.397   6.378   6.913
15395TIP3   OH246061   3.556   6.113   6.989
15395TIP3    H146062   3.481   6.064   7.029
15395TIP3    H246063   3.629   6.049   7.003
15396TIP3   OH246064   3.019   5.342   5.560
15396TIP3    H146065   3.098   5.308   5.606
15396TIP3    H246066   2.950   5.279   5.584
15397TIP3   OH246067   3.077   5.599   6.012
15397TIP3    H146068   3.118   5.510   6.028
15397TIP3    H246069   3.136   5.632   5.942
15398TIP3   OH246070   3.240   5.773   6.506
15398TIP3    H146071   3.326   5.800   6.466
15398TIP3    H246072   3.253   5.810   6.596
15399TIP3   OH246073   3.308   5.917   6.739
15399TIP3    H146074   3.230   5.951   6.787
15399TIP3    H246075   3.340   5.998   6.694
15400TIP3   OH246076   1.929   5.632   7.515
15400TIP3    H146077   2.024   5.635   7.538
15400TIP3    H246078   1.900   5.556   7.570
15401TIP3   OH246079   3.767   5.510   7.296
15401TIP3    H146080   3.819   5.441   7.249
15401TIP3    H246081   3.733   5.564   7.221
15402TIP3   OH246082   3.187   5.350   6.049
15402TIP3    H146083   3.235   5.332   6.133
15402TIP3    H246084   3.128   5.272   6.046
15403TIP3   OH246085   1.913   5.339   6.920
15403TIP3    H146086   1.964   5.258   6.894
15403TIP3    H246087   1.962   5.407   6.870
15404TIP3   OH246088   1.710   5.605   6.957
15404TIP3    H146089   1.743   5.605   6.865
15404TIP3    H246090   1.707   5.701   6.974
15405TIP3   OH246091   3.631   5.646   7.104
15405TIP3    H146092   3.544   5.687   7.124
15405TIP3    H246093   3.602   5.576   7.042
15406TIP3   OH246094   3.274   5.284   5.669
15406TIP3    H146095   3.340   5.218   5.644
15406TIP3    H246096   3.329   5.365   5.673
15407TIP3   OH246097   1.671   5.130   6.454
15407TIP3    H146098   1.577   5.111   6.469
15407TIP3    H246099   1.670   5.176   6.368
15408TIP3   OH246100   2.832   6.813   5.947
15408TIP3    H146101   2.888   6.803   5.868
15408TIP3    H246102   2.878   6.883   5.997
15409TIP3   OH246103   1.935   6.612   7.333
15409TIP3    H146104   1.841   6.592   7.317
15409TIP3    H246105   1.941   6.607   7.429
15410TIP3   OH246106   2.112   6.650   6.881
15410TIP3    H146107   2.062   6.726   6.843
15410TIP3    H246108   2.197   6.666   6.836
15411TIP3   OH246109   2.556   6.895   7.018
15411TIP3    H146110   2.597   6.898   7.107
15411TIP3    H246111   2.622   6.946   6.966
15412TIP3   OH246112   2.736   7.045   6.879
15412TIP3    H146113   2.810   6.999   6.838
15412TIP3    H246114   2.785   7.106   6.939
15413TIP3   OH246115   3.530   5.410   6.978
15413TIP3    H146116   3.438   5.405   6.944
15413TIP3    H246117   3.560   5.317   6.965
15414TIP3   OH246118   1.788   6.907   6.907
15414TIP3    H146119   1.699   6.939   6.882
15414TIP3    H246120   1.799   6.952   6.992
15415TIP3   OH246121   2.022   6.885   6.762
15415TIP3    H146122   1.937   6.899   6.808
15415TIP3    H246123   2.003   6.921   6.673
15416TIP3   OH246124   2.450   6.915   6.559
15416TIP3    H146125   2.380   6.938   6.495
15416TIP3    H246126   2.464   7.001   6.604
15417TIP3   OH246127   2.719   6.855   6.609
15417TIP3    H146128   2.624   6.872   6.593
15417TIP3    H246129   2.760   6.935   6.573
15418TIP3   OH246130   2.928   7.047   6.528
15418TIP3    H146131   2.912   7.133   6.484
15418TIP3    H246132   2.951   6.990   6.453
15419TIP3   OH246133   1.699   6.703   6.648
15419TIP3    H146134   1.724   6.678   6.739
15419TIP3    H246135   1.772   6.660   6.598
15420TIP3   OH246136   1.893   6.574   6.506
15420TIP3    H146137   1.909   6.490   6.556
15420TIP3    H246138   1.984   6.612   6.503
15421TIP3   OH246139   2.158   6.669   6.510
15421TIP3    H146140   2.191   6.578   6.499
15421TIP3    H246141   2.201   6.693   6.593
15422TIP3   OH246142   2.734   5.325   6.596
15422TIP3    H146143   2.692   5.255   6.648
15422TIP3    H246144   2.807   5.278   6.551
15423TIP3   OH246145   3.258   5.208   6.504
15423TIP3    H146146   3.295   5.258   6.428
15423TIP3    H246147   3.162   5.225   6.495
15424TIP3   OH246148   3.352   5.307   6.268
15424TIP3    H146149   3.425   5.254   6.227
15424TIP3    H246150   3.387   5.398   6.252
15425TIP3   OH246151   1.983   5.034   6.615
15425TIP3    H146152   1.890   5.001   6.613
15425TIP3    H246153   2.031   4.949   6.609
15426TIP3   OH246154   1.778   4.903   6.268
15426TIP3    H146155   1.803   4.956   6.190
15426TIP3    H246156   1.742   4.971   6.328
15427TIP3   OH246157   2.427   5.067   6.494
15427TIP3    H146158   2.485   5.116   6.433
15427TIP3    H246159   2.454   5.103   6.580
15428TIP3   OH246160   2.974   5.213   6.478
15428TIP3    H146161   2.973   5.176   6.389
15428TIP3    H246162   2.961   5.132   6.533
15429TIP3   OH246163   3.004   5.137   6.042
15429TIP3    H146164   2.915   5.175   6.049
15429TIP3    H246165   2.991   5.051   6.088
15430TIP3   OH246166   1.488   6.474   6.041
15430TIP3    H146167   1.403   6.442   6.007
15430TIP3    H246168   1.477   6.569   6.025
15431TIP3   OH246169   1.884   5.069   6.027
15431TIP3    H146170   1.928   5.002   5.971
15431TIP3    H246171   1.960   5.119   6.063
15432TIP3   OH246172   2.401   5.238   6.122
15432TIP3    H146173   2.460   5.192   6.183
15432TIP3    H246174   2.421   5.331   6.148
15433TIP3   OH246175   2.259   6.663   5.623
15433TIP3    H146176   2.347   6.686   5.586
15433TIP3    H246177   2.237   6.588   5.564
15434TIP3   OH246178   2.982   6.783   5.714
15434TIP3    H146179   2.971   6.685   5.703
15434TIP3    H246180   2.932   6.816   5.637
15435TIP3   OH246181   2.191   5.315   7.500
15435TIP3    H146182   2.157   5.249   7.562
15435TIP3    H246183   2.286   5.315   7.527
15436TIP3   OH246184   2.438   5.311   7.621
15436TIP3    H146185   2.524   5.288   7.583
15436TIP3    H246186   2.427   5.242   7.689
15437TIP3   OH246187   1.562   6.500   5.680
15437TIP3    H146188   1.560   6.528   5.773
15437TIP3    H246189   1.651   6.460   5.671
15438TIP3   OH246190   3.264   5.374   7.412
15438TIP3    H146191   3.284   5.343   7.503
15438TIP3    H246192   3.352   5.368   7.369
15439TIP3   OH246193   3.205   6.925   6.902
15439TIP3    H146194   3.125   6.894   6.855
15439TIP3    H246195   3.186   7.022   6.906
15440TIP3   OH246196   4.472   6.298   5.669
15440TIP3    H146197   4.444   6.390   5.650
15440TIP3    H246198   4.395   6.249   5.639
15441TIP3   OH246199   4.468   6.298   6.051
15441TIP3    H146200   4.501   6.271   6.139
15441TIP3    H246201   4.427   6.216   6.019
15442TIP3   OH246202   3.770   6.193   6.415
15442TIP3    H146203   3.800   6.126   6.479
15442TIP3    H246204   3.847   6.252   6.412
15443TIP3   OH246205   4.712   6.601   5.732
15443TIP3    H146206   4.699   6.532   5.798
15443TIP3    H246207   4.741   6.676   5.788
15444TIP3   OH246208   3.740   6.603   6.138
15444TIP3    H146209   3.730   6.506   6.142
15444TIP3    H246210   3.837   6.611   6.140
15445TIP3   OH246211   3.447   5.809   5.926
15445TIP3    H146212   3.398   5.891   5.941
15445TIP3    H246213   3.377   5.752   5.889
15446TIP3   OH246214   3.506   6.093   6.097
15446TIP3    H146215   3.555   6.017   6.135
15446TIP3    H246216   3.567   6.122   6.027
15447TIP3   OH246217   4.359   7.061   5.746
15447TIP3    H146218   4.409   6.989   5.702
15447TIP3    H246219   4.355   7.029   5.837
15448TIP3   OH246220   4.269   6.524   6.098
15448TIP3    H146221   4.308   6.446   6.054
15448TIP3    H246222   4.352   6.569   6.123
15449TIP3   OH246223   5.284   5.845   6.096
15449TIP3    H146224   5.309   5.928   6.141
15449TIP3    H246225   5.298   5.869   6.003
15450TIP3   OH246226   4.682   6.026   6.132
15450TIP3    H146227   4.724   5.940   6.152
15450TIP3    H246228   4.650   6.010   6.041
15451TIP3   OH246229   4.018   5.685   6.097
15451TIP3    H146230   3.997   5.757   6.034
15451TIP3    H246231   3.970   5.611   6.054
15452TIP3   OH246232   4.712   5.775   5.719
15452TIP3    H146233   4.784   5.760   5.784
15452TIP3    H246234   4.764   5.810   5.644
15453TIP3   OH246235   3.652   5.887   6.204
15453TIP3    H146236   3.735   5.866   6.252
15453TIP3    H246237   3.664   5.831   6.125
15454TIP3   OH246238   4.093   6.085   5.995
15454TIP3    H146239   4.187   6.059   6.010
15454TIP3    H246240   4.054   6.001   5.965
15455TIP3   OH246241   5.353   6.050   6.268
15455TIP3    H146242   5.270   6.099   6.250
15455TIP3    H246243   5.373   6.080   6.358
15456TIP3   OH246244   4.015   5.668   6.532
15456TIP3    H146245   3.955   5.705   6.463
15456TIP3    H246246   3.963   5.687   6.612
15457TIP3   OH246247   4.364   6.520   5.540
15457TIP3    H146248   4.319   6.495   5.458
15457TIP3    H246249   4.320   6.605   5.561
15458TIP3   OH246250   4.121   6.443   6.327
15458TIP3    H146251   4.058   6.509   6.364
15458TIP3    H246252   4.164   6.496   6.256
15459TIP3   OH246253   4.922   5.780   5.889
15459TIP3    H146254   4.919   5.722   5.967
15459TIP3    H246255   4.975   5.855   5.921
15460TIP3   OH246256   3.886   5.783   6.316
15460TIP3    H146257   3.948   5.856   6.338
15460TIP3    H246258   3.935   5.742   6.241
15461TIP3   OH246259   3.949   6.637   6.422
15461TIP3    H146260   3.924   6.724   6.386
15461TIP3    H246261   3.871   6.621   6.480
15462TIP3   OH246262   3.347   6.328   5.660
15462TIP3    H146263   3.300   6.356   5.579
15462TIP3    H246264   3.375   6.414   5.698
15463TIP3   OH246265   4.783   6.842   5.899
15463TIP3    H146266   4.693   6.834   5.939
15463TIP3    H246267   4.776   6.929   5.856
15464TIP3   OH246268   5.074   5.744   6.262
15464TIP3    H146269   4.985   5.771   6.234
15464TIP3    H246270   5.130   5.776   6.189
15465TIP3   OH246271   4.372   5.387   6.245
15465TIP3    H146272   4.359   5.292   6.262
15465TIP3    H246273   4.294   5.424   6.291
15466TIP3   OH246274   4.486   6.889   5.574
15466TIP3    H146275   4.537   6.807   5.553
15466TIP3    H246276   4.545   6.956   5.532
15467TIP3   OH246277   4.628   6.675   5.480
15467TIP3    H146278   4.590   6.594   5.443
15467TIP3    H246279   4.665   6.642   5.565
15468TIP3   OH246280   5.009   6.757   6.244
15468TIP3    H146281   4.999   6.679   6.184
15468TIP3    H246282   4.992   6.832   6.182
15469TIP3   OH246283   4.301   6.150   5.500
15469TIP3    H146284   4.220   6.200   5.476
15469TIP3    H246285   4.348   6.146   5.415
15470TIP3   OH246286   4.259   5.936   5.217
15470TIP3    H146287   4.328   5.984   5.266
15470TIP3    H246288   4.315   5.871   5.169
15471TIP3   OH246289   5.205   6.391   6.087
15471TIP3    H146290   5.122   6.444   6.093
15471TIP3    H246291   5.234   6.417   5.997
15472TIP3   OH246292   4.649   6.233   5.472
15472TIP3    H146293   4.594   6.257   5.550
15472TIP3    H246294   4.732   6.206   5.516
15473TIP3   OH246295   4.884   6.271   6.384
15473TIP3    H146296   4.882   6.355   6.435
15473TIP3    H246297   4.798   6.277   6.339
15474TIP3   OH246298   3.882   6.231   5.888
15474TIP3    H146299   3.841   6.172   5.821
15474TIP3    H246300   3.958   6.177   5.918
15475TIP3   OH246301   4.014   6.645   6.035
15475TIP3    H146302   3.992   6.594   5.956
15475TIP3    H246303   4.103   6.612   6.056
15476TIP3   OH246304   4.019   6.201   6.243
15476TIP3    H146305   4.052   6.181   6.153
15476TIP3    H246306   4.061   6.287   6.263
15477TIP3   OH246307   4.542   6.839   6.020
15477TIP3    H146308   4.529   6.919   6.073
15477TIP3    H246309   4.528   6.766   6.084
15478TIP3   OH246310   4.155   6.757   6.567
15478TIP3    H146311   4.096   6.820   6.614
15478TIP3    H246312   4.088   6.705   6.518
15479TIP3   OH246313   4.489   6.091   5.299
15479TIP3    H146314   4.549   6.149   5.351
15479TIP3    H246315   4.515   6.116   5.207
15480TIP3   OH246316   3.909   6.314   6.668
15480TIP3    H146317   3.914   6.401   6.712
15480TIP3    H246318   3.813   6.295   6.678
15481TIP3   OH246319   4.233   6.771   5.567
15481TIP3    H146320   4.313   6.821   5.591
15481TIP3    H246321   4.170   6.840   5.545
15482TIP3   OH246322   3.950   6.925   6.654
15482TIP3    H146323   3.913   6.924   6.564
15482TIP3    H246324   3.870   6.904   6.709
15483TIP3   OH246325   5.012   5.336   5.335
15483TIP3    H146326   4.948   5.327   5.407
15483TIP3    H246327   5.002   5.429   5.309
15484TIP3   OH246328   3.748   6.073   5.692
15484TIP3    H146329   3.680   6.116   5.637
15484TIP3    H246330   3.709   5.987   5.709
15485TIP3   OH246331   4.804   6.699   4.895
15485TIP3    H146332   4.813   6.795   4.881
15485TIP3    H246333   4.897   6.669   4.882
15486TIP3   OH246334   3.528   6.457   6.601
15486TIP3    H146335   3.462   6.435   6.533
15486TIP3    H246336   3.565   6.369   6.625
15487TIP3   OH246337   3.382   6.650   6.233
15487TIP3    H146338   3.478   6.648   6.229
15487TIP3    H246339   3.367   6.730   6.286
15488TIP3   OH246340   5.247   7.100   6.288
15488TIP3    H146341   5.246   7.004   6.305
15488TIP3    H246342   5.164   7.126   6.335
15489TIP3   OH246343   4.352   6.887   6.424
15489TIP3    H146344   4.352   6.980   6.457
15489TIP3    H246345   4.282   6.848   6.479
15490TIP3   OH246346   4.108   7.017   5.374
15490TIP3    H146347   4.070   7.010   5.285
15490TIP3    H246348   4.083   7.107   5.402
15491TIP3   OH246349   3.554   6.864   5.758
15491TIP3    H146350   3.600   6.856   5.845
15491TIP3    H246351   3.492   6.789   5.765
15492TIP3   OH246352   4.314   6.913   5.019
15492TIP3    H146353   4.374   6.845   4.981
15492TIP3    H246354   4.352   6.924   5.109
15493TIP3   OH246355   4.363   6.965   5.288
15493TIP3    H146356   4.278   6.972   5.336
15493TIP3    H246357   4.420   6.927   5.357
15494TIP3   OH246358   5.138   6.232   6.564
15494TIP3    H146359   5.056   6.245   6.514
15494TIP3    H246360   5.152   6.135   6.555
15495TIP3   OH246361   3.734   6.638   6.589
15495TIP3    H146362   3.783   6.624   6.673
15495TIP3    H246363   3.659   6.576   6.598
15496TIP3   OH246364   4.133   5.463   6.374
15496TIP3    H146365   4.043   5.432   6.347
15496TIP3    H246366   4.107   5.546   6.420
15497TIP3   OH246367   4.666   5.579   6.568
15497TIP3    H146368   4.733   5.552   6.633
15497TIP3    H246369   4.581   5.558   6.614
15498TIP3   OH246370   4.906   6.008   6.487
15498TIP3    H146371   4.857   6.004   6.572
15498TIP3    H246372   4.881   6.095   6.451
15499TIP3   OH246373   4.565   6.141   5.043
15499TIP3    H146374   4.533   6.112   4.955
15499TIP3    H246375   4.648   6.185   5.018
15500TIP3   OH246376   4.280   5.517   5.345
15500TIP3    H146377   4.250   5.513   5.438
15500TIP3    H246378   4.243   5.432   5.312
15501TIP3   OH246379   4.064   5.978   6.392
15501TIP3    H146380   4.014   5.999   6.473
15501TIP3    H246381   4.048   6.060   6.339
15502TIP3   OH246382   3.947   5.866   5.906
15502TIP3    H146383   3.855   5.837   5.924
15502TIP3    H246384   3.961   5.824   5.818
15503TIP3   OH246385   4.439   5.951   5.634
15503TIP3    H146386   4.386   6.022   5.592
15503TIP3    H246387   4.493   5.919   5.560
15504TIP3   OH246388   4.613   6.229   6.719
15504TIP3    H146389   4.591   6.157   6.782
15504TIP3    H246390   4.707   6.245   6.742
15505TIP3   OH246391   4.597   5.979   5.873
15505TIP3    H146392   4.536   6.008   5.801
15505TIP3    H246393   4.630   5.897   5.831
15506TIP3   OH246394   3.883   6.008   6.601
15506TIP3    H146395   3.908   6.072   6.669
15506TIP3    H246396   3.871   5.927   6.653
15507TIP3   OH246397   3.934   5.487   5.312
15507TIP3    H146398   3.925   5.483   5.410
15507TIP3    H246399   3.855   5.539   5.289
15508TIP3   OH246400   3.476   5.532   6.181
15508TIP3    H146401   3.552   5.561   6.235
15508TIP3    H246402   3.516   5.495   6.101
15509TIP3   OH246403   3.446   5.510   5.699
15509TIP3    H146404   3.494   5.549   5.622
15509TIP3    H246405   3.388   5.585   5.722
15510TIP3   OH246406   4.605   6.226   6.295
15510TIP3    H146407   4.639   6.154   6.237
15510TIP3    H246408   4.577   6.174   6.373
15511TIP3   OH246409   4.276   5.691   5.968
15511TIP3    H146410   4.194   5.685   6.021
15511TIP3    H246411   4.344   5.686   6.037
15512TIP3   OH246412   3.710   5.743   5.976
15512TIP3    H146413   3.615   5.749   5.949
15512TIP3    H246414   3.734   5.651   5.953
15513TIP3   OH246415   3.979   5.739   5.665
15513TIP3    H146416   4.074   5.753   5.645
15513TIP3    H246417   3.934   5.763   5.581
15514TIP3   OH246418   4.768   5.763   6.171
15514TIP3    H146419   4.732   5.774   6.262
15514TIP3    H246420   4.703   5.701   6.133
15515TIP3   OH246421   3.819   5.775   5.443
15515TIP3    H146422   3.748   5.728   5.396
15515TIP3    H246423   3.871   5.809   5.367
15516TIP3   OH246424   4.937   7.451   6.389
15516TIP3    H146425   4.936   7.476   6.295
15516TIP3    H246426   5.016   7.499   6.421
15517TIP3   OH246427   3.895   6.560   6.810
15517TIP3    H146428   3.974   6.592   6.858
15517TIP3    H246429   3.829   6.562   6.883
15518TIP3   OH246430   4.359   6.017   6.065
15518TIP3    H146431   4.430   5.974   6.014
15518TIP3    H246432   4.368   5.974   6.152
15519TIP3   OH246433   3.881   5.502   5.944
15519TIP3    H146434   3.847   5.423   5.991
15519TIP3    H246435   3.938   5.462   5.876
15520TIP3   OH246436   4.335   5.911   6.356
15520TIP3    H146437   4.245   5.948   6.370
15520TIP3    H246438   4.392   5.972   6.406
15521TIP3   OH246439   4.069   6.305   5.447
15521TIP3    H146440   3.999   6.236   5.439
15521TIP3    H246441   4.054   6.337   5.539
15522TIP3   OH246442   4.973   6.538   6.079
15522TIP3    H146443   4.997   6.587   5.998
15522TIP3    H246444   4.887   6.498   6.055
15523TIP3   OH246445   4.529   5.621   5.300
15523TIP3    H146446   4.434   5.602   5.319
15523TIP3    H246447   4.541   5.712   5.335
15524TIP3   OH246448   4.471   6.620   6.447
15524TIP3    H146449   4.495   6.600   6.538
15524TIP3    H246450   4.432   6.709   6.455
15525TIP3   OH246451   4.599   5.861   5.415
15525TIP3    H146452   4.696   5.866   5.431
15525TIP3    H246453   4.583   5.941   5.361
15526TIP3   OH246454   3.764   6.324   6.126
15526TIP3    H146455   3.804   6.295   6.041
15526TIP3    H246456   3.803   6.262   6.189
15527TIP3   OH246457   4.217   6.449   5.268
15527TIP3    H146458   4.170   6.535   5.277
15527TIP3    H246459   4.164   6.393   5.329
15528TIP3   OH246460   3.645   6.244   6.738
15528TIP3    H146461   3.665   6.231   6.833
15528TIP3    H246462   3.575   6.178   6.724
15529TIP3   OH246463   4.370   6.358   6.760
15529TIP3    H146464   4.311   6.301   6.709
15529TIP3    H246465   4.458   6.326   6.732
15530TIP3   OH246466   4.631   6.880   6.342
15530TIP3    H146467   4.535   6.880   6.355
15530TIP3    H246468   4.660   6.931   6.420
15531TIP3   OH246469   5.045   5.950   5.249
15531TIP3    H146470   4.981   5.904   5.190
15531TIP3    H246471   5.040   6.039   5.208
15532TIP3   OH246472   5.259   6.809   6.333
15532TIP3    H146473   5.161   6.804   6.325
15532TIP3    H246474   5.285   6.780   6.243
15533TIP3   OH246475   4.736   6.772   5.159
15533TIP3    H146476   4.718   6.701   5.222
15533TIP3    H246477   4.754   6.724   5.076
15534TIP3   OH246478   4.738   6.401   5.997
15534TIP3    H146479   4.645   6.375   6.011
15534TIP3    H246480   4.772   6.321   5.953
15535TIP3   OH246481   3.862   6.625   5.744
15535TIP3    H146482   3.862   6.710   5.697
15535TIP3    H246483   3.769   6.615   5.767
15536TIP3   OH246484   3.428   5.933   5.455
15536TIP3    H146485   3.474   6.016   5.477
15536TIP3    H246486   3.350   5.938   5.515
15537TIP3   OH246487   4.005   6.394   5.694
15537TIP3    H146488   3.967   6.483   5.712
15537TIP3    H246489   3.969   6.343   5.769
15538TIP3   OH246490   4.134   6.972   6.219
15538TIP3    H146491   4.176   7.045   6.170
15538TIP3    H246492   4.210   6.938   6.270
15539TIP3   OH246493   3.780   6.869   5.595
15539TIP3    H146494   3.697   6.873   5.648
15539TIP3    H246495   3.813   6.961   5.606
15540TIP3   OH246496   4.523   6.607   6.178
15540TIP3    H146497   4.513   6.606   6.276
15540TIP3    H246498   4.603   6.555   6.167
15541TIP3   OH246499   4.495   6.500   5.062
15541TIP3    H146500   4.552   6.476   5.139
15541TIP3    H246501   4.409   6.470   5.095
15542TIP3   OH246502   4.771   7.140   6.230
15542TIP3    H146503   4.693   7.082   6.223
15542TIP3    H246504   4.755   7.204   6.157
15543TIP3   OH246505   4.837   6.975   4.881
15543TIP3    H146506   4.878   7.048   4.832
15543TIP3    H246507   4.756   7.021   4.913
15544TIP3   OH246508   3.856   5.752   6.748
15544TIP3    H146509   3.759   5.756   6.760
15544TIP3    H246510   3.882   5.689   6.818
15545TIP3   OH246511   4.657   6.433   5.276
15545TIP3    H146512   4.647   6.367   5.348
15545TIP3    H246513   4.754   6.431   5.265
15546TIP3   OH246514   3.575   6.834   6.377
15546TIP3    H146515   3.627   6.762   6.415
15546TIP3    H246516   3.596   6.906   6.439
15547TIP3   OH246517   3.856   6.482   5.061
15547TIP3    H146518   3.876   6.392   5.030
15547TIP3    H246519   3.845   6.466   5.157
15548TIP3   OH246520   3.807   6.487   5.334
15548TIP3    H146521   3.876   6.449   5.392
15548TIP3    H246522   3.822   6.583   5.346
15549TIP3   OH246523   3.543   6.178   5.536
15549TIP3    H146524   3.478   6.221   5.594
15549TIP3    H246525   3.558   6.249   5.470
15550TIP3   OH246526   4.692   5.816   6.429
15550TIP3    H146527   4.772   5.854   6.469
15550TIP3    H246528   4.678   5.734   6.482
15551TIP3   OH246529   4.556   5.577   5.593
15551TIP3    H146530   4.563   5.593   5.498
15551TIP3    H246531   4.608   5.651   5.630
15552TIP3   OH246532   4.073   6.678   5.278
15552TIP3    H146533   3.991   6.712   5.319
15552TIP3    H246534   4.105   6.757   5.235
15553TIP3   OH246535   4.260   5.746   5.695
15553TIP3    H146536   4.328   5.815   5.678
15553TIP3    H246537   4.266   5.738   5.793
15554TIP3   OH246538   4.531   6.064   6.504
15554TIP3    H146539   4.553   6.119   6.582
15554TIP3    H246540   4.587   5.986   6.517
15555TIP3   OH246541   4.408   5.475   5.800
15555TIP3    H146542   4.401   5.552   5.860
15555TIP3    H246543   4.464   5.513   5.729
15556TIP3   OH246544   3.820   6.764   5.346
15556TIP3    H146545   3.759   6.819   5.296
15556TIP3    H246546   3.807   6.799   5.438
15557TIP3   OH246547   3.919   5.471   5.587
15557TIP3    H146548   3.916   5.561   5.626
15557TIP3    H246549   4.015   5.453   5.597
15558TIP3   OH246550   5.172   5.961   6.484
15558TIP3    H146551   5.074   5.962   6.492
15558TIP3    H246552   5.181   5.928   6.394
15559TIP3   OH246553   4.824   6.158   5.872
15559TIP3    H146554   4.747   6.099   5.884
15559TIP3    H246555   4.895   6.111   5.921
15560TIP3   OH246556   3.537   6.391   5.340
15560TIP3    H146557   3.610   6.453   5.356
15560TIP3    H246558   3.580   6.331   5.275
15561TIP3   OH246559   3.481   5.662   5.470
15561TIP3    H146560   3.479   5.760   5.469
15561TIP3    H246561   3.393   5.639   5.439
15562TIP3   OH246562   4.791   7.114   5.821
15562TIP3    H146563   4.749   7.160   5.745
15562TIP3    H246564   4.886   7.133   5.802
15563TIP3   OH246565   3.868   5.383   6.349
15563TIP3    H146566   3.836   5.350   6.262
15563TIP3    H246567   3.857   5.304   6.406
15564TIP3   OH246568   3.405   6.601   5.728
15564TIP3    H146569   3.338   6.632   5.791
15564TIP3    H246570   3.375   6.644   5.645
15565TIP3   OH246571   3.564   7.143   6.799
15565TIP3    H146572   3.649   7.144   6.848
15565TIP3    H246573   3.542   7.048   6.800
15566TIP3   OH246574   4.046   7.109   6.845
15566TIP3    H146575   4.140   7.090   6.853
15566TIP3    H246576   4.021   7.050   6.771
15567TIP3   OH246577   4.025   6.684   4.980
15567TIP3    H146578   3.975   6.610   5.022
15567TIP3    H246579   4.106   6.636   4.953
15568TIP3   OH246580   4.686   7.013   6.576
15568TIP3    H146581   4.676   6.944   6.645
15568TIP3    H246582   4.763   7.064   6.609
15569TIP3   OH246583   4.461   6.724   4.884
15569TIP3    H146584   4.506   6.661   4.944
15569TIP3    H246585   4.520   6.725   4.806
15570TIP3   OH246586   3.694   6.549   7.001
15570TIP3    H146587   3.710   6.453   7.004
15570TIP3    H246588   3.606   6.553   6.958
15571TIP3   OH246589   3.673   6.204   5.195
15571TIP3    H146590   3.725   6.164   5.267
15571TIP3    H246591   3.740   6.204   5.123
15572TIP3   OH246592   4.303   6.634   6.774
15572TIP3    H146593   4.260   6.650   6.688
15572TIP3    H246594   4.334   6.541   6.766
15573TIP3   OH246595   4.173   6.398   5.001
15573TIP3    H146596   4.183   6.410   5.098
15573TIP3    H246597   4.178   6.300   4.995
15574TIP3   OH246598   4.794   6.642   6.379
15574TIP3    H146599   4.868   6.689   6.336
15574TIP3    H246600   4.723   6.708   6.368
15575TIP3   OH246601   3.812   6.282   6.984
15575TIP3    H146602   3.888   6.228   6.962
15575TIP3    H246603   3.837   6.316   7.072
15576TIP3   OH246604   3.879   6.105   5.416
15576TIP3    H146605   3.852   6.064   5.500
15576TIP3    H246606   3.915   6.027   5.367
15577TIP3   OH246607   4.148   6.168   6.645
15577TIP3    H146608   4.071   6.228   6.648
15577TIP3    H246609   4.197   6.202   6.566
15578TIP3   OH246610   3.980   5.898   5.257
15578TIP3    H146611   3.954   5.899   5.162
15578TIP3    H246612   4.077   5.904   5.249
15579TIP3   OH246613   4.663   6.569   6.777
15579TIP3    H146614   4.747   6.550   6.734
15579TIP3    H246615   4.662   6.504   6.850
15580TIP3   OH246616   4.801   6.230   4.920
15580TIP3    H146617   4.780   6.182   4.837
15580TIP3    H246618   4.769   6.320   4.894
15581TIP3   OH246619   4.271   5.956   6.771
15581TIP3    H146620   4.272   5.877   6.714
15581TIP3    H246621   4.228   6.022   6.713
15582TIP3   OH246622   4.274   5.742   6.578
15582TIP3    H146623   4.301   5.784   6.493
15582TIP3    H246624   4.181   5.719   6.559
15583TIP3   OH246625   4.301   6.278   6.451
15583TIP3    H146626   4.384   6.286   6.403
15583TIP3    H246627   4.245   6.346   6.407
15584TIP3   OH246628   4.883   6.246   6.833
15584TIP3    H146629   4.933   6.164   6.843
15584TIP3    H246630   4.951   6.307   6.800
15585TIP3   OH246631   4.925   6.497   6.566
15585TIP3    H146632   4.867   6.551   6.508
15585TIP3    H246633   5.012   6.518   6.526
15586TIP3   OH246634   4.150   6.067   7.002
15586TIP3    H146635   4.080   6.000   7.014
15586TIP3    H246636   4.184   6.043   6.913
15587TIP3   OH246637   4.406   5.508   6.648
15587TIP3    H146638   4.358   5.590   6.623
15587TIP3    H246639   4.338   5.440   6.634
15588TIP3   OH246640   4.533   6.012   6.861
15588TIP3    H146641   4.523   5.999   6.957
15588TIP3    H246642   4.442   5.986   6.831
15589TIP3   OH246643   4.771   5.958   6.714
15589TIP3    H146644   4.695   5.961   6.776
15589TIP3    H246645   4.844   5.929   6.773
15590TIP3   OH246646   4.999   5.900   6.867
15590TIP3    H146647   5.012   5.805   6.887
15590TIP3    H246648   4.995   5.940   6.957
15591TIP3   OH246649   3.987   5.849   7.053
15591TIP3    H146650   3.993   5.758   7.017
15591TIP3    H246651   4.020   5.836   7.144
15592TIP3   OH246652   4.496   5.513   6.908
15592TIP3    H146653   4.566   5.445   6.899
15592TIP3    H246654   4.458   5.511   6.818
15593TIP3   OH246655   4.572   5.736   7.057
15593TIP3    H146656   4.548   5.660   7.001
15593TIP3    H246657   4.491   5.790   7.055
15594TIP3   OH246658   3.781   6.976   5.077
15594TIP3    H146659   3.871   6.977   5.118
15594TIP3    H246660   3.732   7.040   5.132
15595TIP3   OH246661   3.266   6.344   5.373
15595TIP3    H146662   3.362   6.363   5.364
15595TIP3    H246663   3.261   6.253   5.335
15596TIP3   OH246664   3.186   6.953   5.788
15596TIP3    H146665   3.114   6.894   5.756
15596TIP3    H246666   3.227   6.896   5.857
15597TIP3   OH246667   3.320   6.804   5.977
15597TIP3    H146668   3.304   6.733   6.041
15597TIP3    H246669   3.368   6.868   6.034
15598TIP3   OH246670   5.043   7.207   5.777
15598TIP3    H146671   5.070   7.238   5.866
15598TIP3    H246672   5.108   7.252   5.720
15599TIP3   OH246673   5.075   7.226   6.059
15599TIP3    H146674   5.031   7.138   6.057
15599TIP3    H246675   5.149   7.205   6.118
15600TIP3   OH246676   5.119   6.903   6.632
15600TIP3    H146677   5.047   6.911   6.697
15600TIP3    H246678   5.161   6.991   6.637
15601TIP3   OH246679   4.936   6.416   5.253
15601TIP3    H146680   5.006   6.479   5.225
15601TIP3    H246681   4.978   6.376   5.332
15602TIP3   OH246682   5.063   6.283   5.456
15602TIP3    H146683   4.999   6.240   5.516
15602TIP3    H246684   5.129   6.321   5.518
15603TIP3   OH246685   5.117   6.674   5.888
15603TIP3    H146686   5.172   6.611   5.838
15603TIP3    H246687   5.110   6.749   5.825
15604TIP3   OH246688   4.950   6.975   6.083
15604TIP3    H146689   4.880   7.017   6.137
15604TIP3    H246690   4.898   6.927   6.015
15605TIP3   OH246691   5.002   6.191   5.103
15605TIP3    H146692   4.930   6.194   5.037
15605TIP3    H246693   4.976   6.267   5.159
15606TIP3   OH246694   4.871   5.865   5.058
15606TIP3    H146695   4.831   5.901   4.978
15606TIP3    H246696   4.848   5.770   5.050
15607TIP3   OH246697   4.878   6.138   5.602
15607TIP3    H146698   4.885   6.041   5.598
15607TIP3    H246699   4.864   6.154   5.698
15608TIP3   OH246700   3.505   6.212   6.350
15608TIP3    H146701   3.503   6.182   6.257
15608TIP3    H246702   3.602   6.214   6.366
15609TIP3   OH246703   5.167   6.564   6.459
15609TIP3    H146704   5.240   6.498   6.450
15609TIP3    H246705   5.196   6.635   6.400
15610TIP3   OH246706   5.352   6.370   6.474
15610TIP3    H146707   5.278   6.320   6.515
15610TIP3    H246708   5.426   6.306   6.489
15611TIP3   OH246709   4.818   5.599   5.044
15611TIP3    H146710   4.894   5.578   5.101
15611TIP3    H246711   4.754   5.530   5.067
15612TIP3   OH246712   4.874   5.855   5.498
15612TIP3    H146713   4.916   5.767   5.515
15612TIP3    H246714   4.932   5.887   5.427
15613TIP3   OH246715   5.037   6.029   5.993
15613TIP3    H146716   5.123   6.056   5.953
15613TIP3    H246717   5.049   6.067   6.083
15614TIP3   OH246718   5.104   6.173   6.226
15614TIP3    H146719   5.027   6.207   6.275
15614TIP3    H246720   5.136   6.255   6.181
15615TIP3   OH246721   3.719   5.898   7.024
15615TIP3    H146722   3.817   5.894   7.025
15615TIP3    H246723   3.697   5.814   7.067
15616TIP3   OH246724   5.554   5.762   6.782
15616TIP3    H146725   5.614   5.697   6.738
15616TIP3    H246726   5.528   5.820   6.707
15617TIP3   OH246727   4.992   5.610   5.536
15617TIP3    H146728   5.027   5.586   5.624
15617TIP3    H246729   4.922   5.541   5.524
15618TIP3   OH246730   3.683   5.591   6.356
15618TIP3    H146731   3.746   5.517   6.365
15618TIP3    H246732   3.745   5.666   6.350
15619TIP3   OH246733   3.486   5.866   6.429
15619TIP3    H146734   3.535   5.859   6.345
15619TIP3    H246735   3.514   5.953   6.460
15620TIP3   OH246736   5.428   5.905   6.589
15620TIP3    H146737   5.343   5.946   6.615
15620TIP3    H246738   5.396   5.835   6.529
15621TIP3   OH246739   5.058   5.571   5.180
15621TIP3    H146740   5.088   5.492   5.130
15621TIP3    H246741   5.134   5.631   5.167
15622TIP3   OH246742   3.469   5.375   5.932
15622TIP3    H146743   3.376   5.367   5.958
15622TIP3    H246744   3.465   5.429   5.851
15623TIP3   OH246745   4.624   7.074   5.432
15623TIP3    H146746   4.680   7.059   5.353
15623TIP3    H246747   4.677   7.137   5.483
15624TIP3   OH246748   3.690   5.450   6.745
15624TIP3    H146749   3.638   5.444   6.827
15624TIP3    H246750   3.623   5.488   6.684
15625TIP3   OH246751   3.731   6.871   6.820
15625TIP3    H146752   3.637   6.849   6.805
15625TIP3    H246753   3.738   6.861   6.916
15626TIP3   OH246754   3.908   6.907   6.368
15626TIP3    H146755   3.858   6.982   6.331
15626TIP3    H246756   3.993   6.923   6.323
15627TIP3   OH246757   4.353   7.153   6.504
15627TIP3    H146758   4.394   7.153   6.594
15627TIP3    H246759   4.420   7.204   6.454
15628TIP3   OH246760   4.533   7.305   6.363
15628TIP3    H146761   4.606   7.253   6.326
15628TIP3    H246762   4.582   7.363   6.425
15629TIP3   OH246763   5.327   5.667   6.463
15629TIP3    H146764   5.234   5.668   6.433
15629TIP3    H246765   5.351   5.573   6.447
15630TIP3   OH246766   3.585   7.166   6.392
15630TIP3    H146767   3.495   7.198   6.369
15630TIP3    H246768   3.595   7.204   6.480
15631TIP3   OH246769   3.819   7.143   6.249
15631TIP3    H146770   3.734   7.156   6.296
15631TIP3    H246771   3.798   7.179   6.160
15632TIP3   OH246772   4.247   7.174   6.045
15632TIP3    H146773   4.175   7.196   5.983
15632TIP3    H246774   4.260   7.260   6.091
15633TIP3   OH246775   4.515   7.112   6.096
15633TIP3    H146776   4.420   7.130   6.079
15633TIP3    H246777   4.557   7.191   6.059
15634TIP3   OH246778   4.723   7.305   6.014
15634TIP3    H146779   4.708   7.390   5.967
15634TIP3    H246780   4.748   7.245   5.941
15635TIP3   OH246781   3.497   6.960   6.134
15635TIP3    H146782   3.520   6.935   6.226
15635TIP3    H246783   3.570   6.915   6.086
15636TIP3   OH246784   3.691   6.830   5.991
15636TIP3    H146785   3.704   6.746   6.042
15636TIP3    H246786   3.782   6.867   5.992
15637TIP3   OH246787   3.956   6.925   5.995
15637TIP3    H146788   3.987   6.832   5.988
15637TIP3    H246789   3.999   6.949   6.080
15638TIP3   OH246790   4.531   5.581   6.084
15638TIP3    H146791   4.487   5.512   6.136
15638TIP3    H246792   4.601   5.532   6.038
15639TIP3   OH246793   5.060   5.474   6.002
15639TIP3    H146794   5.092   5.509   5.915
15639TIP3    H246795   4.963   5.475   5.987
15640TIP3   OH246796   5.154   5.566   5.761
15640TIP3    H146797   5.221   5.514   5.712
15640TIP3    H246798   5.183   5.657   5.740
15641TIP3   OH246799   3.779   5.291   6.101
15641TIP3    H146800   3.687   5.257   6.101
15641TIP3    H246801   3.829   5.207   6.097
15642TIP3   OH246802   3.559   5.167   5.753
15642TIP3    H146803   3.600   5.224   5.686
15642TIP3    H246804   3.535   5.231   5.824
15643TIP3   OH246805   4.217   5.329   5.980
15643TIP3    H146806   4.282   5.366   5.919
15643TIP3    H246807   4.248   5.361   6.066
15644TIP3   OH246808   4.777   5.468   5.963
15644TIP3    H146809   4.770   5.430   5.874
15644TIP3    H246810   4.762   5.388   6.018
15645TIP3   OH246811   4.795   5.424   5.510
15645TIP3    H146812   4.702   5.425   5.535
15645TIP3    H246813   4.825   5.341   5.557
15646TIP3   OH246814   3.288   6.730   5.521
15646TIP3    H146815   3.200   6.697   5.492
15646TIP3    H246816   3.272   6.825   5.516
15647TIP3   OH246817   3.683   5.327   5.510
15647TIP3    H146818   3.728   5.258   5.457
15647TIP3    H246819   3.758   5.376   5.547
15648TIP3   OH246820   4.197   5.494   5.610
15648TIP3    H146821   4.256   5.446   5.671
15648TIP3    H246822   4.219   5.586   5.636
15649TIP3   OH246823   4.053   6.926   5.103
15649TIP3    H146824   4.145   6.949   5.074
15649TIP3    H246825   4.046   6.839   5.059
15650TIP3   OH246826   4.774   7.038   5.202
15650TIP3    H146827   4.764   6.941   5.189
15650TIP3    H246828   4.731   7.071   5.121
15651TIP3   OH246829   3.987   5.574   6.993
15651TIP3    H146830   3.954   5.502   7.050
15651TIP3    H246831   4.082   5.575   7.017
15652TIP3   OH246832   4.238   5.575   7.111
15652TIP3    H146833   4.318   5.547   7.064
15652TIP3    H246834   4.225   5.501   7.175
15653TIP3   OH246835   3.362   6.765   5.175
15653TIP3    H146836   3.338   6.785   5.267
15653TIP3    H246837   3.440   6.709   5.185
15654TIP3   OH246838   5.061   5.629   6.898
15654TIP3    H146839   5.081   5.599   6.990
15654TIP3    H246840   5.149   5.626   6.857
15655TIP3   OH246841   5.002   7.183   6.389
15655TIP3    H146842   4.921   7.151   6.343
15655TIP3    H246843   4.982   7.279   6.394
15656TIP3   OH246844   6.267   6.554   5.157
15656TIP3    H146845   6.239   6.646   5.137
15656TIP3    H246846   6.190   6.505   5.124
15657TIP3   OH246847   6.265   6.555   5.538
15657TIP3    H146848   6.297   6.527   5.626
15657TIP3    H246849   6.224   6.474   5.505
15658TIP3   OH246850   5.565   6.449   5.902
15658TIP3    H146851   5.596   6.383   5.967
15658TIP3    H246852   5.642   6.509   5.899
15659TIP3   OH246853   6.509   6.856   5.220
15659TIP3    H146854   6.496   6.788   5.286
15659TIP3    H246855   6.538   6.932   5.273
15660TIP3   OH246856   5.536   6.859   5.627
15660TIP3    H146857   5.527   6.762   5.629
15660TIP3    H246858   5.633   6.868   5.624
15661TIP3   OH246859   5.243   6.064   5.413
15661TIP3    H146860   5.194   6.147   5.428
15661TIP3    H246861   5.173   6.009   5.374
15662TIP3   OH246862   5.302   6.350   5.583
15662TIP3    H146863   5.351   6.274   5.621
15662TIP3    H246864   5.363   6.381   5.516
15663TIP3   OH246865   6.158   7.319   5.235
15663TIP3    H146866   6.204   7.247   5.186
15663TIP3    H246867   6.153   7.282   5.324
15664TIP3   OH246868   6.065   6.780   5.586
15664TIP3    H146869   6.104   6.704   5.540
15664TIP3    H246870   6.148   6.826   5.610
15665TIP3   OH246871   7.077   6.100   5.583
15665TIP3    H146872   7.105   6.183   5.628
15665TIP3    H246873   7.100   6.120   5.491
15666TIP3   OH246874   6.476   6.282   5.619
15666TIP3    H146875   6.519   6.197   5.639
15666TIP3    H246876   6.446   6.266   5.527
15667TIP3   OH246877   5.813   5.942   5.585
15667TIP3    H146878   5.794   6.015   5.523
15667TIP3    H246879   5.766   5.869   5.539
15668TIP3   OH246880   6.508   6.032   5.206
15668TIP3    H146881   6.581   6.017   5.271
15668TIP3    H246882   6.559   6.068   5.131
15669TIP3   OH246883   5.448   6.144   5.691
15669TIP3    H146884   5.531   6.125   5.738
15669TIP3    H246885   5.460   6.088   5.611
15670TIP3   OH246886   5.890   6.342   5.482
15670TIP3    H146887   5.983   6.316   5.496
15670TIP3    H246888   5.850   6.257   5.451
15671TIP3   OH246889   7.149   6.306   5.755
15671TIP3    H146890   7.066   6.356   5.737
15671TIP3    H246891   7.170   6.338   5.844
15672TIP3   OH246892   5.809   5.923   6.018
15672TIP3    H146893   5.751   5.964   5.951
15672TIP3    H246894   5.758   5.943   6.099
15673TIP3   OH246895   6.158   6.775   5.027
15673TIP3    H146896   6.117   6.755   4.942
15673TIP3    H246897   6.114   6.860   5.050
15674TIP3   OH246898   5.917   6.700   5.813
15674TIP3    H146899   5.854   6.766   5.851
15674TIP3    H246900   5.960   6.751   5.742
15675TIP3   OH246901   6.719   6.035   5.378
15675TIP3    H146902   6.709   5.988   5.462
15675TIP3    H246903   6.773   6.111   5.404
15676TIP3   OH246904   5.682   6.041   5.803
15676TIP3    H146905   5.743   6.115   5.825
15676TIP3    H246906   5.731   6.001   5.728
15677TIP3   OH246907   5.745   6.893   5.910
15677TIP3    H146908   5.719   6.980   5.872
15677TIP3    H246909   5.667   6.878   5.968
15678TIP3   OH246910   5.141   6.584   5.148
15678TIP3    H146911   5.100   6.611   5.063
15678TIP3    H246912   5.172   6.670   5.184
15679TIP3   OH246913   6.579   7.099   5.387
15679TIP3    H146914   6.489   7.091   5.426
15679TIP3    H246915   6.572   7.185   5.342
15680TIP3   OH246916   6.871   5.998   5.748
15680TIP3    H146917   6.784   6.031   5.721
15680TIP3    H246918   6.930   6.032   5.678
15681TIP3   OH246919   6.168   5.643   5.729
15681TIP3    H146920   6.157   5.548   5.752
15681TIP3    H246921   6.092   5.681   5.777
15682TIP3   OH246922   6.281   7.147   5.061
15682TIP3    H146923   6.331   7.065   5.040
15682TIP3    H246924   6.340   7.213   5.019
15683TIP3   OH246925   6.423   6.932   4.967
15683TIP3    H146926   6.389   6.851   4.927
15683TIP3    H246927   6.459   6.897   5.052
15684TIP3   OH246928   6.806   7.014   5.730
15684TIP3    H146929   6.795   6.936   5.671
15684TIP3    H246930   6.789   7.088   5.669
15685TIP3   OH246931   6.097   6.406   4.987
15685TIP3    H146932   6.017   6.458   4.965
15685TIP3    H246933   6.144   6.404   4.902
15686TIP3   OH246934   6.056   6.191   4.705
15686TIP3    H146935   6.124   6.241   4.753
15686TIP3    H246936   6.113   6.127   4.657
15687TIP3   OH246937   7.001   6.648   5.574
15687TIP3    H146938   6.919   6.701   5.580
15687TIP3    H246939   7.031   6.672   5.484
15688TIP3   OH246940   6.444   6.489   4.959
15688TIP3    H146941   6.390   6.514   5.038
15688TIP3    H246942   6.528   6.462   5.003
15689TIP3   OH246943   6.680   6.528   5.871
15689TIP3    H146944   6.678   6.611   5.923
15689TIP3    H246945   6.594   6.534   5.825
15690TIP3   OH246946   5.677   6.486   5.376
15690TIP3    H146947   5.636   6.428   5.308
15690TIP3    H246948   5.754   6.434   5.405
15691TIP3   OH246949   5.807   6.899   5.524
15691TIP3    H146950   5.787   6.855   5.440
15691TIP3    H246951   5.897   6.866   5.543
15692TIP3   OH246952   5.814   6.458   5.729
15692TIP3    H146953   5.848   6.438   5.639
15692TIP3    H246954   5.857   6.544   5.750
15693TIP3   OH246955   6.338   7.096   5.507
15693TIP3    H146956   6.325   7.175   5.562
15693TIP3    H246957   6.324   7.022   5.571
15694TIP3   OH246958   5.951   7.014   6.053
15694TIP3    H146959   5.893   7.077   6.101
15694TIP3    H246960   5.884   6.962   6.005
15695TIP3   OH246961   6.285   6.347   4.786
15695TIP3    H146962   6.345   6.406   4.837
15695TIP3    H246963   6.311   6.371   4.693
15696TIP3   OH246964   5.705   6.571   6.154
15696TIP3    H146965   5.711   6.658   6.199
15696TIP3    H246966   5.610   6.552   6.166
15697TIP3   OH246967   6.028   7.027   5.061
15697TIP3    H146968   6.108   7.080   5.077
15697TIP3    H246969   5.968   7.092   5.022
15698TIP3   OH246970   5.745   7.183   6.141
15698TIP3    H146971   5.710   7.180   6.050
15698TIP3    H246972   5.666   7.162   6.195
15699TIP3   OH246973   6.801   5.588   4.833
15699TIP3    H146974   6.721   5.609   4.884
15699TIP3    H246975   6.815   5.671   4.783
15700TIP3   OH246976   5.544   6.329   5.180
15700TIP3    H146977   5.478   6.375   5.124
15700TIP3    H246978   5.501   6.244   5.194
15701TIP3   OH246979   6.600   6.955   4.382
15701TIP3    H146980   6.608   7.052   4.368
15701TIP3    H246981   6.693   6.926   4.369
15702TIP3   OH246982   5.324   6.713   6.088
15702TIP3    H146983   5.259   6.690   6.019
15702TIP3    H246984   5.362   6.626   6.113
15703TIP3   OH246985   5.179   6.907   5.720
15703TIP3    H146986   5.275   6.900   5.712
15703TIP3    H246987   5.170   6.985   5.776
15704TIP3   OH246988   7.042   7.357   5.775
15704TIP3    H146989   7.042   7.261   5.789
15704TIP3    H246990   6.959   7.382   5.821
15705TIP3   OH246991   6.149   7.144   5.910
15705TIP3    H146992   6.148   7.237   5.944
15705TIP3    H246993   6.078   7.104   5.965
15706TIP3   OH246994   5.908   7.272   4.863
15706TIP3    H146995   5.864   7.253   4.779
15706TIP3    H246996   5.877   7.362   4.884
15707TIP3   OH246997   5.347   7.122   5.247
15707TIP3    H146998   5.396   7.113   5.332
15707TIP3    H246999   5.291   7.043   5.250
15708TIP3   OH247000   6.111   7.173   4.503
15708TIP3    H147001   6.169   7.103   4.467
15708TIP3    H247002   6.146   7.182   4.595
15709TIP3   OH247003   6.161   7.222   4.774
15709TIP3    H147004   6.073   7.231   4.816
15709TIP3    H247005   6.213   7.181   4.845
15710TIP3   OH247006   6.934   6.489   6.051
15710TIP3    H147007   6.853   6.502   6.001
15710TIP3    H247008   6.948   6.392   6.042
15711TIP3   OH247009   5.530   6.896   6.077
15711TIP3    H147010   5.580   6.881   6.160
15711TIP3    H247011   5.456   6.833   6.085
15712TIP3   OH247012   5.932   5.721   5.863
15712TIP3    H147013   5.843   5.692   5.835
15712TIP3    H247014   5.907   5.805   5.906
15713TIP3   OH247015   6.463   5.834   6.055
15713TIP3    H147016   6.531   5.809   6.120
15713TIP3    H247017   6.379   5.815   6.102
15714TIP3   OH247018   6.701   6.263   5.972
15714TIP3    H147019   6.654   6.260   6.058
15714TIP3    H247020   6.677   6.352   5.938
15715TIP3   OH247021   6.361   6.394   4.529
15715TIP3    H147022   6.329   6.369   4.441
15715TIP3    H247023   6.443   6.442   4.505
15716TIP3   OH247024   6.073   5.771   4.831
15716TIP3    H147025   6.041   5.768   4.924
15716TIP3    H247026   6.036   5.686   4.799
15717TIP3   OH247027   5.859   6.235   5.878
15717TIP3    H147028   5.811   6.257   5.960
15717TIP3    H247029   5.844   6.317   5.825
15718TIP3   OH247030   5.744   6.121   5.393
15718TIP3    H147031   5.651   6.095   5.410
15718TIP3    H247032   5.758   6.080   5.304
15719TIP3   OH247033   6.234   6.207   5.120
15719TIP3    H147034   6.181   6.278   5.078
15719TIP3    H247035   6.290   6.178   5.045
15720TIP3   OH247036   6.409   6.485   6.206
15720TIP3    H147037   6.387   6.413   6.269
15720TIP3    H247038   6.502   6.502   6.229
15721TIP3   OH247039   6.392   6.236   5.360
15721TIP3    H147040   6.333   6.267   5.289
15721TIP3    H247041   6.425   6.154   5.317
15722TIP3   OH247042   5.679   6.265   6.088
15722TIP3    H147043   5.707   6.329   6.155
15722TIP3    H247044   5.667   6.184   6.141
15723TIP3   OH247045   5.726   5.738   4.798
15723TIP3    H147046   5.720   5.739   4.896
15723TIP3    H247047   5.651   5.796   4.774
15724TIP3   OH247048   5.272   5.790   5.669
15724TIP3    H147049   5.350   5.821   5.719
15724TIP3    H247050   5.308   5.759   5.585
15725TIP3   OH247051   5.255   5.773   5.190
15725TIP3    H147052   5.293   5.813   5.109
15725TIP3    H247053   5.189   5.841   5.212
15726TIP3   OH247054   6.400   6.483   5.782
15726TIP3    H147055   6.434   6.411   5.724
15726TIP3    H247056   6.373   6.430   5.861
15727TIP3   OH247057   6.070   5.943   5.454
15727TIP3    H147058   5.990   5.942   5.509
15727TIP3    H247059   6.140   5.943   5.522
15728TIP3   OH247060   5.505   6.000   5.463
15728TIP3    H147061   5.411   6.008   5.436
15728TIP3    H247062   5.528   5.908   5.438
15729TIP3   OH247063   5.776   5.994   5.151
15729TIP3    H147064   5.870   6.012   5.131
15729TIP3    H247065   5.730   6.020   5.068
15730TIP3   OH247066   6.564   6.019   5.656
15730TIP3    H147067   6.530   6.031   5.747
15730TIP3    H247068   6.497   5.959   5.619
15731TIP3   OH247069   5.617   6.028   4.930
15731TIP3    H147070   5.545   5.985   4.880
15731TIP3    H247071   5.669   6.066   4.855
15732TIP3   OH247072   6.733   7.709   5.875
15732TIP3    H147073   6.732   7.731   5.780
15732TIP3    H247074   6.813   7.756   5.906
15733TIP3   OH247075   5.691   6.817   6.297
15733TIP3    H147076   5.771   6.849   6.345
15733TIP3    H247077   5.626   6.818   6.370
15734TIP3   OH247078   6.155   6.271   5.550
15734TIP3    H147079   6.229   6.233   5.500
15734TIP3    H247080   6.167   6.230   5.638
15735TIP3   OH247081   5.679   5.760   5.428
15735TIP3    H147082   5.646   5.679   5.471
15735TIP3    H247083   5.731   5.726   5.355
15736TIP3   OH247084   6.131   6.167   5.845
15736TIP3    H147085   6.042   6.206   5.858
15736TIP3    H247086   6.189   6.228   5.894
15737TIP3   OH247087   5.868   6.560   4.935
15737TIP3    H147088   5.795   6.495   4.925
15737TIP3    H247089   5.851   6.593   5.027
15738TIP3   OH247090   6.769   6.795   5.566
15738TIP3    H147091   6.794   6.844   5.485
15738TIP3    H247092   6.683   6.755   5.541
15739TIP3   OH247093   6.325   5.875   4.802
15739TIP3    H147094   6.228   5.859   4.810
15739TIP3    H247095   6.335   5.969   4.825
15740TIP3   OH247096   6.267   6.876   5.934
15740TIP3    H147097   6.292   6.856   6.025
15740TIP3    H247098   6.228   6.965   5.942
15741TIP3   OH247099   6.396   6.120   4.903
15741TIP3    H147100   6.493   6.126   4.918
15741TIP3    H247101   6.378   6.199   4.848
15742TIP3   OH247102   5.559   6.580   5.613
15742TIP3    H147103   5.599   6.553   5.528
15742TIP3    H247104   5.601   6.519   5.676
15743TIP3   OH247105   6.013   6.709   4.757
15743TIP3    H147106   5.966   6.795   4.764
15743TIP3    H247107   5.959   6.653   4.817
15744TIP3   OH247108   5.441   6.502   6.226
15744TIP3    H147109   5.463   6.490   6.320
15744TIP3    H247110   5.372   6.434   6.213
15745TIP3   OH247111   6.166   6.616   6.246
15745TIP3    H147112   6.109   6.557   6.195
15745TIP3    H247113   6.255   6.583   6.219
15746TIP3   OH247114   6.427   7.137   5.829
15746TIP3    H147115   6.331   7.136   5.842
15746TIP3    H247116   6.456   7.188   5.908
15747TIP3   OH247117   6.838   6.208   4.738
15747TIP3    H147118   6.776   6.163   4.677
15747TIP3    H247119   6.835   6.297   4.697
15748TIP3   OH247120   7.056   7.067   5.820
15748TIP3    H147121   6.958   7.061   5.811
15748TIP3    H247122   7.082   7.037   5.729
15749TIP3   OH247123   6.536   7.028   4.646
15749TIP3    H147124   6.514   6.956   4.707
15749TIP3    H247125   6.551   6.982   4.561
15750TIP3   OH247126   6.534   6.658   5.484
15750TIP3    H147127   6.441   6.632   5.498
15750TIP3    H247128   6.568   6.578   5.440
15751TIP3   OH247129   5.661   6.884   5.237
15751TIP3    H147130   5.663   6.966   5.184
15751TIP3    H247131   5.566   6.870   5.247
15752TIP3   OH247132   5.225   6.189   4.942
15752TIP3    H147133   5.271   6.273   4.962
15752TIP3    H247134   5.147   6.195   5.002
15753TIP3   OH247135   5.800   6.650   5.182
15753TIP3    H147136   5.765   6.740   5.199
15753TIP3    H247137   5.763   6.601   5.258
15754TIP3   OH247138   5.930   7.228   5.706
15754TIP3    H147139   5.972   7.301   5.656
15754TIP3    H247140   6.007   7.194   5.757
15755TIP3   OH247141   5.580   7.124   5.090
15755TIP3    H147142   5.495   7.132   5.136
15755TIP3    H247143   5.612   7.217   5.093
15756TIP3   OH247144   6.319   6.864   5.665
15756TIP3    H147145   6.309   6.862   5.763
15756TIP3    H247146   6.400   6.812   5.653
15757TIP3   OH247147   6.293   6.755   4.549
15757TIP3    H147148   6.347   6.731   4.627
15757TIP3    H247149   6.204   6.729   4.579
15758TIP3   OH247150   6.567   7.398   5.717
15758TIP3    H147151   6.489   7.340   5.710
15758TIP3    H247152   6.551   7.461   5.644
15759TIP3   OH247153   6.632   7.231   4.368
15759TIP3    H147154   6.672   7.303   4.315
15759TIP3    H247155   6.553   7.277   4.400
15760TIP3   OH247156   5.653   6.005   6.234
15760TIP3    H147157   5.558   6.015   6.252
15760TIP3    H247158   5.683   5.952   6.310
15761TIP3   OH247159   6.453   6.690   4.766
15761TIP3    H147160   6.444   6.623   4.836
15761TIP3    H247161   6.550   6.688   4.752
15762TIP3   OH247162   5.369   7.092   5.866
15762TIP3    H147163   5.422   7.017   5.898
15762TIP3    H247164   5.395   7.161   5.928
15763TIP3   OH247165   5.658   6.737   4.548
15763TIP3    H147166   5.674   6.645   4.518
15763TIP3    H247167   5.640   6.724   4.643
15764TIP3   OH247168   5.604   6.741   4.821
15764TIP3    H147169   5.677   6.714   4.879
15764TIP3    H247170   5.608   6.839   4.827
15765TIP3   OH247171   5.340   6.434   5.023
15765TIP3    H147172   5.275   6.479   5.080
15765TIP3    H247173   5.356   6.504   4.956
15766TIP3   OH247174   6.489   6.071   5.914
15766TIP3    H147175   6.568   6.111   5.954
15766TIP3    H247176   6.476   5.991   5.969
15767TIP3   OH247177   6.369   5.823   5.080
15767TIP3    H147178   6.356   5.847   4.986
15767TIP3    H247179   6.409   5.905   5.116
15768TIP3   OH247180   5.869   6.938   4.769
15768TIP3    H147181   5.783   6.967   4.804
15768TIP3    H247182   5.888   7.010   4.706
15769TIP3   OH247183   6.058   6.002   5.182
15769TIP3    H147184   6.123   6.073   5.163
15769TIP3    H247185   6.064   5.995   5.279
15770TIP3   OH247186   6.328   6.320   5.991
15770TIP3    H147187   6.348   6.376   6.069
15770TIP3    H247188   6.384   6.243   6.006
15771TIP3   OH247189   6.203   5.728   5.284
15771TIP3    H147190   6.198   5.804   5.346
15771TIP3    H247191   6.264   5.765   5.216
15772TIP3   OH247192   5.612   7.014   4.836
15772TIP3    H147193   5.584   7.084   4.773
15772TIP3    H247194   5.597   7.058   4.922
15773TIP3   OH247195   5.715   5.729   5.077
15773TIP3    H147196   5.714   5.821   5.111
15773TIP3    H247197   5.811   5.710   5.083
15774TIP3   OH247198   6.968   6.220   5.972
15774TIP3    H147199   6.870   6.218   5.978
15774TIP3    H247200   6.981   6.186   5.883
15775TIP3   OH247201   6.619   6.416   5.360
15775TIP3    H147202   6.544   6.356   5.372
15775TIP3    H247203   6.691   6.369   5.407
15776TIP3   OH247204   5.331   6.645   4.829
15776TIP3    H147205   5.398   6.715   4.838
15776TIP3    H247206   5.376   6.590   4.762
15777TIP3   OH247207   5.277   5.918   4.959
15777TIP3    H147208   5.275   6.016   4.957
15777TIP3    H247209   5.191   5.896   4.921
15778TIP3   OH247210   6.587   7.371   5.309
15778TIP3    H147211   6.545   7.419   5.233
15778TIP3    H247212   6.681   7.391   5.289
15779TIP3   OH247213   5.669   5.640   5.831
15779TIP3    H147214   5.636   5.615   5.742
15779TIP3    H247215   5.632   5.570   5.886
15780TIP3   OH247216   5.204   6.858   5.217
15780TIP3    H147217   5.133   6.890   5.275
15780TIP3    H247218   5.178   6.899   5.131
15781TIP3   OH247219   5.360   7.401   6.286
15781TIP3    H147220   5.445   7.401   6.335
15781TIP3    H247221   5.339   7.306   6.287
15782TIP3   OH247222   5.842   7.367   6.329
15782TIP3    H147223   5.935   7.346   6.341
15782TIP3    H247224   5.818   7.307   6.256
15783TIP3   OH247225   5.822   6.941   4.461
15783TIP3    H147226   5.767   6.869   4.499
15783TIP3    H247227   5.898   6.889   4.427
15784TIP3   OH247228   6.482   7.270   6.063
15784TIP3    H147229   6.472   7.200   6.132
15784TIP3    H247230   6.559   7.320   6.096
15785TIP3   OH247231   6.258   6.981   4.371
15785TIP3    H147232   6.304   6.918   4.430
15785TIP3    H247233   6.315   6.982   4.291
15786TIP3   OH247234   5.490   6.806   6.487
15786TIP3    H147235   5.507   6.710   6.493
15786TIP3    H247236   5.402   6.809   6.445
15787TIP3   OH247237   5.467   6.458   4.682
15787TIP3    H147238   5.522   6.424   4.754
15787TIP3    H247239   5.533   6.461   4.609
15788TIP3   OH247240   6.099   6.891   6.261
15788TIP3    H147241   6.057   6.907   6.174
15788TIP3    H247242   6.130   6.798   6.254
15789TIP3   OH247243   5.975   6.655   4.488
15789TIP3    H147244   5.978   6.668   4.585
15789TIP3    H247245   5.976   6.556   4.484
15790TIP3   OH247246   6.590   6.899   5.866
15790TIP3    H147247   6.665   6.945   5.823
15790TIP3    H247248   6.519   6.965   5.854
15791TIP3   OH247249   5.609   6.538   6.470
15791TIP3    H147250   5.686   6.482   6.451
15791TIP3    H247251   5.633   6.572   6.558
15792TIP3   OH247252   5.675   6.361   4.903
15792TIP3    H147253   5.649   6.319   4.987
15792TIP3    H247254   5.711   6.285   4.852
15793TIP3   OH247255   5.943   6.423   6.129
15793TIP3    H147256   5.867   6.485   6.134
15793TIP3    H247257   5.993   6.458   6.052
15794TIP3   OH247258   5.776   6.153   4.744
15794TIP3    H147259   5.749   6.156   4.650
15794TIP3    H247260   5.874   6.161   4.736
15795TIP3   OH247261   6.459   6.825   6.264
15795TIP3    H147262   6.543   6.805   6.221
15795TIP3    H247263   6.458   6.761   6.337
15796TIP3   OH247264   6.598   6.486   4.407
15796TIP3    H147265   6.576   6.439   4.324
15796TIP3    H247266   6.566   6.576   4.383
15797TIP3   OH247267   6.066   6.213   6.258
15797TIP3    H147268   6.068   6.133   6.201
15797TIP3    H247269   6.024   6.279   6.200
15798TIP3   OH247270   6.069   5.997   6.064
15798TIP3    H147271   6.097   6.041   5.981
15798TIP3    H247272   5.975   5.977   6.045
15799TIP3   OH247273   6.097   6.534   5.937
15799TIP3    H147274   6.181   6.544   5.890
15799TIP3    H247275   6.041   6.602   5.893
15800TIP3   OH247276   6.679   6.503   6.318
15800TIP3    H147277   6.729   6.420   6.333
15800TIP3    H247278   6.748   6.562   6.286
15801TIP3   OH247279   6.721   6.754   6.053
15801TIP3    H147280   6.663   6.808   5.995
15801TIP3    H247281   6.809   6.775   6.013
15802TIP3   OH247282   5.944   6.326   6.486
15802TIP3    H147283   5.875   6.258   6.502
15802TIP3    H247284   5.980   6.298   6.400
15803TIP3   OH247285   6.203   5.764   6.132
15803TIP3    H147286   6.155   5.846   6.109
15803TIP3    H247287   6.133   5.696   6.119
15804TIP3   OH247288   6.329   6.268   6.348
15804TIP3    H147289   6.320   6.258   6.444
15804TIP3    H247290   6.238   6.243   6.320
15805TIP3   OH247291   6.567   6.214   6.201
15805TIP3    H147292   6.492   6.218   6.263
15805TIP3    H247293   6.640   6.185   6.259
15806TIP3   OH247294   6.796   6.157   6.353
15806TIP3    H147295   6.808   6.062   6.373
15806TIP3    H247296   6.791   6.197   6.443
15807TIP3   OH247297   5.784   6.105   6.540
15807TIP3    H147298   5.795   6.014   6.507
15807TIP3    H247299   5.820   6.095   6.631
15808TIP3   OH247300   6.296   5.772   6.390
15808TIP3    H147301   6.365   5.702   6.384
15808TIP3    H247302   6.258   5.767   6.300
15809TIP3   OH247303   6.361   5.988   6.549
15809TIP3    H147304   6.339   5.917   6.484
15809TIP3    H247305   6.284   6.047   6.542
15810TIP3   OH247306   5.583   7.217   4.648
15810TIP3    H147307   5.679   7.212   4.630
15810TIP3    H247308   5.554   7.266   4.569
15811TIP3   OH247309   5.063   6.598   4.864
15811TIP3    H147310   5.158   6.620   4.851
15811TIP3    H247311   5.058   6.509   4.823
15812TIP3   OH247312   4.977   7.210   5.279
15812TIP3    H147313   4.909   7.148   5.244
15812TIP3    H247314   5.022   7.154   5.345
15813TIP3   OH247315   5.113   7.062   5.465
15813TIP3    H147316   5.103   6.989   5.528
15813TIP3    H247317   5.164   7.124   5.521
15814TIP3   OH247318   6.839   7.465   5.264
15814TIP3    H147319   6.868   7.496   5.352
15814TIP3    H247320   6.905   7.505   5.205
15815TIP3   OH247321   6.871   7.483   5.547
15815TIP3    H147322   6.827   7.396   5.543
15815TIP3    H247323   6.946   7.460   5.604
15816TIP3   OH247324   6.916   7.159   6.119
15816TIP3    H147325   6.843   7.167   6.185
15816TIP3    H247326   6.957   7.248   6.125
15817TIP3   OH247327   6.732   6.672   4.740
15817TIP3    H147328   6.801   6.736   4.711
15817TIP3    H247329   6.775   6.633   4.819
15818TIP3   OH247330   6.860   6.540   4.943
15818TIP3    H147331   6.795   6.498   5.003
15818TIP3    H247332   6.926   6.577   5.004
15819TIP3   OH247333   6.913   6.931   5.375
15819TIP3    H147334   6.968   6.867   5.325
15819TIP3    H247335   6.907   7.006   5.312
15820TIP3   OH247336   6.746   7.232   5.570
15820TIP3    H147337   6.675   7.273   5.623
15820TIP3    H247338   6.695   7.184   5.502
15821TIP3   OH247339   6.798   6.447   4.591
15821TIP3    H147340   6.726   6.451   4.523
15821TIP3    H247341   6.772   6.524   4.646
15822TIP3   OH247342   6.668   6.120   4.546
15822TIP3    H147343   6.628   6.161   4.468
15822TIP3    H247344   6.644   6.026   4.533
15823TIP3   OH247345   6.674   6.396   5.089
15823TIP3    H147346   6.683   6.299   5.086
15823TIP3    H247347   6.660   6.411   5.185
15824TIP3   OH247348   5.301   6.470   5.836
15824TIP3    H147349   5.299   6.439   5.743
15824TIP3    H247350   5.398   6.472   5.853
15825TIP3   OH247351   6.963   6.821   5.946
15825TIP3    H147352   7.036   6.755   5.938
15825TIP3    H247353   6.992   6.891   5.886
15826TIP3   OH247354   7.148   6.627   5.963
15826TIP3    H147355   7.074   6.576   6.003
15826TIP3    H247356   7.221   6.563   5.977
15827TIP3   OH247357   6.616   5.852   4.528
15827TIP3    H147358   6.691   5.824   4.584
15827TIP3    H247359   6.542   5.797   4.558
15828TIP3   OH247360   6.670   6.112   4.985
15828TIP3    H147361   6.711   6.024   5.000
15828TIP3    H247362   6.728   6.146   4.915
15829TIP3   OH247363   6.832   6.286   5.479
15829TIP3    H147364   6.918   6.313   5.439
15829TIP3    H247365   6.845   6.324   5.569
15830TIP3   OH247366   6.900   6.430   5.713
15830TIP3    H147367   6.823   6.465   5.761
15830TIP3    H247368   6.933   6.511   5.667
15831TIP3   OH247369   5.517   6.154   6.506
15831TIP3    H147370   5.614   6.151   6.512
15831TIP3    H247371   5.494   6.071   6.552
15832TIP3   OH247372   7.352   6.020   6.269
15832TIP3    H147373   7.411   5.955   6.224
15832TIP3    H247374   7.324   6.077   6.194
15833TIP3   OH247375   6.779   5.862   5.023
15833TIP3    H147376   6.828   5.846   5.106
15833TIP3    H247377   6.720   5.785   5.021
15834TIP3   OH247378   5.483   5.847   5.840
15834TIP3    H147379   5.551   5.779   5.851
15834TIP3    H247380   5.538   5.927   5.836
15835TIP3   OH247381   5.284   6.121   5.917
15835TIP3    H147382   5.332   6.117   5.831
15835TIP3    H247383   5.309   6.208   5.949
15836TIP3   OH247384   7.224   6.161   6.076
15836TIP3    H147385   7.137   6.201   6.098
15836TIP3    H247386   7.194   6.090   6.016
15837TIP3   OH247387   6.863   5.797   4.654
15837TIP3    H147388   6.909   5.728   4.603
15837TIP3    H247389   6.926   5.871   4.650
15838TIP3   OH247390   5.265   5.627   5.421
15838TIP3    H147391   5.170   5.624   5.444
15838TIP3    H247392   5.264   5.685   5.342
15839TIP3   OH247393   6.424   7.330   4.922
15839TIP3    H147394   6.475   7.314   4.840
15839TIP3    H247395   6.480   7.395   4.968
15840TIP3   OH247396   5.477   5.694   6.223
15840TIP3    H147397   5.434   5.699   6.310
15840TIP3    H247398   5.414   5.746   6.169
15841TIP3   OH247399   5.526   7.131   6.308
15841TIP3    H147400   5.433   7.106   6.292
15841TIP3    H247401   5.536   7.115   6.402
15842TIP3   OH247402   5.703   7.164   5.854
15842TIP3    H147403   5.655   7.240   5.817
15842TIP3    H247404   5.789   7.178   5.810
15843TIP3   OH247405   6.148   7.410   5.992
15843TIP3    H147406   6.190   7.409   6.081
15843TIP3    H247407   6.216   7.461   5.941
15844TIP3   OH247408   6.328   7.562   5.850
15844TIP3    H147409   6.399   7.509   5.811
15844TIP3    H247410   6.379   7.619   5.912
15845TIP3   OH247411   7.122   5.925   5.952
15845TIP3    H147412   7.031   5.921   5.918
15845TIP3    H247413   7.152   5.832   5.938
15846TIP3   OH247414   5.380   7.423   5.877
15846TIP3    H147415   5.291   7.457   5.856
15846TIP3    H247416   5.391   7.457   5.967
15847TIP3   OH247417   5.616   7.401   5.736
15847TIP3    H147418   5.530   7.414   5.782
15847TIP3    H247419   5.596   7.434   5.647
15848TIP3   OH247420   6.043   7.430   5.534
15848TIP3    H147421   5.973   7.451   5.469
15848TIP3    H247422   6.055   7.517   5.577
15849TIP3   OH247423   6.311   7.370   5.585
15849TIP3    H147424   6.217   7.386   5.566
15849TIP3    H247425   6.353   7.446   5.543
15850TIP3   OH247426   6.519   7.562   5.501
15850TIP3    H147427   6.504   7.646   5.453
15850TIP3    H247428   6.545   7.502   5.428
15851TIP3   OH247429   5.292   7.216   5.623
15851TIP3    H147430   5.318   7.190   5.714
15851TIP3    H247431   5.364   7.173   5.573
15852TIP3   OH247432   5.486   7.088   5.480
15852TIP3    H147433   5.500   7.003   5.529
15852TIP3    H247434   5.577   7.124   5.477
15853TIP3   OH247435   5.751   7.183   5.483
15853TIP3    H147436   5.783   7.091   5.471
15853TIP3    H247437   5.796   7.204   5.568
15854TIP3   OH247438   6.325   5.838   5.567
15854TIP3    H147439   6.284   5.768   5.621
15854TIP3    H247440   6.400   5.791   5.526
15855TIP3   OH247441   6.850   5.718   5.476
15855TIP3    H147442   6.888   5.770   5.402
15855TIP3    H247443   6.755   5.739   5.470
15856TIP3   OH247444   6.945   5.819   5.241
15856TIP3    H147445   7.018   5.767   5.200
15856TIP3    H247446   6.979   5.910   5.225
15857TIP3   OH247447   5.571   5.549   5.590
15857TIP3    H147448   5.479   5.519   5.579
15857TIP3    H247449   5.620   5.463   5.587
15858TIP3   OH247450   5.359   5.417   5.243
15858TIP3    H147451   5.384   5.475   5.170
15858TIP3    H247452   5.323   5.480   5.307
15859TIP3   OH247453   6.019   5.580   5.469
15859TIP3    H147454   6.076   5.630   5.408
15859TIP3    H247455   6.048   5.614   5.555
15860TIP3   OH247456   6.566   5.727   5.453
15860TIP3    H147457   6.566   5.691   5.363
15860TIP3    H247458   6.553   5.645   5.507
15861TIP3   OH247459   6.596   5.648   5.013
15861TIP3    H147460   6.510   5.691   5.024
15861TIP3    H247461   6.582   5.564   5.062
15862TIP3   OH247462   5.080   6.987   5.015
15862TIP3    H147463   4.995   6.954   4.980
15862TIP3    H247464   5.068   7.082   5.000
15863TIP3   OH247465   5.484   5.585   4.993
15863TIP3    H147466   5.546   5.515   4.970
15863TIP3    H247467   5.544   5.649   5.036
15864TIP3   OH247468   5.993   5.751   5.097
15864TIP3    H147469   6.054   5.707   5.159
15864TIP3    H247470   6.011   5.844   5.121
15865TIP3   OH247471   5.851   7.177   4.597
15865TIP3    H147472   5.939   7.199   4.561
15865TIP3    H247473   5.829   7.101   4.538
15866TIP3   OH247474   6.570   7.295   4.690
15866TIP3    H147475   6.561   7.197   4.676
15866TIP3    H247476   6.526   7.328   4.609
15867TIP3   OH247477   5.784   5.826   6.474
15867TIP3    H147478   5.750   5.757   6.534
15867TIP3    H247479   5.878   5.828   6.502
15868TIP3   OH247480   6.031   5.824   6.595
15868TIP3    H147481   6.118   5.801   6.559
15868TIP3    H247482   6.019   5.755   6.663
15869TIP3   OH247483   5.156   7.013   4.654
15869TIP3    H147484   5.158   7.037   4.748
15869TIP3    H247485   5.244   6.971   4.641
15870TIP3   OH247486   6.857   5.886   6.385
15870TIP3    H147487   6.877   5.856   6.477
15870TIP3    H247488   6.946   5.882   6.343
15871TIP3   OH247489   6.797   7.439   5.877
15871TIP3    H147490   6.718   7.407   5.830
15871TIP3    H247491   6.777   7.535   5.882
15872TIP3   OH247492   8.062   6.808   4.646
15872TIP3    H147493   8.036   6.901   4.627
15872TIP3    H247494   7.985   6.761   4.611
15873TIP3   OH247495   8.057   6.814   5.027
15873TIP3    H147496   8.092   6.783   5.112
15873TIP3    H247497   8.021   6.732   4.989
15874TIP3   OH247498   7.360   6.707   5.392
15874TIP3    H147499   7.392   6.640   5.455
15874TIP3    H247500   7.440   6.761   5.379
15875TIP3   OH247501   8.296   7.111   4.705
15875TIP3    H147502   8.293   7.044   4.774
15875TIP3    H247503   8.342   7.184   4.749
15876TIP3   OH247504   7.333   7.116   5.116
15876TIP3    H147505   7.324   7.018   5.117
15876TIP3    H247506   7.429   7.124   5.108
15877TIP3   OH247507   7.038   6.319   4.900
15877TIP3    H147508   6.991   6.403   4.914
15877TIP3    H247509   6.968   6.266   4.860
15878TIP3   OH247510   7.098   6.606   5.070
15878TIP3    H147511   7.148   6.530   5.108
15878TIP3    H247512   7.160   6.639   5.003
15879TIP3   OH247513   7.955   7.576   4.724
15879TIP3    H147514   7.999   7.506   4.671
15879TIP3    H247515   7.952   7.534   4.811
15880TIP3   OH247516   7.860   7.037   5.074
15880TIP3    H147517   7.900   6.960   5.029
15880TIP3    H247518   7.944   7.083   5.097
15881TIP3   OH247519   8.867   6.360   5.070
15881TIP3    H147520   8.900   6.439   5.116
15881TIP3    H247521   8.894   6.378   4.978
15882TIP3   OH247522   8.269   6.540   5.106
15882TIP3    H147523   8.314   6.456   5.127
15882TIP3    H247524   8.242   6.524   5.014
15883TIP3   OH247525   7.608   6.198   5.072
15883TIP3    H147526   7.591   6.271   5.009
15883TIP3    H247527   7.561   6.125   5.026
15884TIP3   OH247528   8.304   6.289   4.693
15884TIP3    H147529   8.376   6.274   4.759
15884TIP3    H247530   8.357   6.324   4.619
15885TIP3   OH247531   7.244   6.400   5.178
15885TIP3    H147532   7.328   6.381   5.225
15885TIP3    H247533   7.257   6.345   5.098
15886TIP3   OH247534   7.685   6.598   4.972
15886TIP3    H147535   7.779   6.573   4.984
15886TIP3    H247536   7.647   6.514   4.939
15887TIP3   OH247537   8.950   6.569   5.234
15887TIP3    H147538   8.865   6.613   5.215
15887TIP3    H247539   8.944   6.563   5.331
15888TIP3   OH247540   7.607   6.181   5.505
15888TIP3    H147541   7.548   6.218   5.437
15888TIP3    H247542   7.555   6.201   5.586
15889TIP3   OH247543   7.947   7.026   4.517
15889TIP3    H147544   7.914   7.013   4.427
15889TIP3    H247545   7.909   7.113   4.539
15890TIP3   OH247546   7.713   6.956   5.300
15890TIP3    H147547   7.651   7.023   5.336
15890TIP3    H247548   7.758   7.006   5.228
15891TIP3   OH247549   8.513   6.293   4.866
15891TIP3    H147550   8.511   6.244   4.950
15891TIP3    H247551   8.571   6.368   4.889
15892TIP3   OH247552   7.477   6.297   5.290
15892TIP3    H147553   7.539   6.370   5.312
15892TIP3    H247554   7.526   6.256   5.215
15893TIP3   OH247555   7.541   7.151   5.398
15893TIP3    H147556   7.516   7.236   5.358
15893TIP3    H247557   7.463   7.135   5.455
15894TIP3   OH247558   6.936   6.841   4.634
15894TIP3    H147559   6.896   6.867   4.549
15894TIP3    H247560   6.967   6.926   4.670
15895TIP3   OH247561   8.378   7.353   4.885
15895TIP3    H147562   8.285   7.346   4.915
15895TIP3    H247563   8.372   7.429   4.824
15896TIP3   OH247564   8.657   6.252   5.233
15896TIP3    H147565   8.576   6.293   5.200
15896TIP3    H247566   8.726   6.285   5.171
15897TIP3   OH247567   7.963   5.901   5.216
15897TIP3    H147568   7.952   5.806   5.235
15897TIP3    H247569   7.886   5.938   5.264
15898TIP3   OH247570   8.073   7.405   4.546
15898TIP3    H147571   8.123   7.322   4.526
15898TIP3    H247572   8.135   7.470   4.505
15899TIP3   OH247573   8.209   7.188   4.453
15899TIP3    H147574   8.192   7.105   4.408
15899TIP3    H247575   8.253   7.158   4.535
15900TIP3   OH247576   8.601   7.270   5.217
15900TIP3    H147577   8.593   7.193   5.157
15900TIP3    H247578   8.587   7.345   5.155
15901TIP3   OH247579   7.892   6.662   4.473
15901TIP3    H147580   7.813   6.715   4.450
15901TIP3    H247581   7.941   6.661   4.389
15902TIP3   OH247582   7.852   6.448   4.191
15902TIP3    H147583   7.919   6.497   4.241
15902TIP3    H247584   7.909   6.385   4.143
15903TIP3   OH247585   8.798   6.908   5.063
15903TIP3    H147586   8.715   6.960   5.066
15903TIP3    H247587   8.829   6.928   4.972
15904TIP3   OH247588   8.239   6.745   4.447
15904TIP3    H147589   8.186   6.770   4.526
15904TIP3    H247590   8.323   6.719   4.490
15905TIP3   OH247591   8.477   6.784   5.360
15905TIP3    H147592   8.474   6.868   5.409
15905TIP3    H247593   8.392   6.789   5.311
15906TIP3   OH247594   7.473   6.743   4.864
15906TIP3    H147595   7.433   6.685   4.796
15906TIP3    H247596   7.550   6.690   4.892
15907TIP3   OH247597   7.602   7.154   5.012
15907TIP3    H147598   7.583   7.113   4.926
15907TIP3    H247599   7.692   7.121   5.031
15908TIP3   OH247600   7.607   6.716   5.216
15908TIP3    H147601   7.642   6.693   5.128
15908TIP3    H247602   7.652   6.800   5.237
15909TIP3   OH247603   8.128   7.354   4.993
15909TIP3    H147604   8.121   7.432   5.051
15909TIP3    H247605   8.119   7.279   5.054
15910TIP3   OH247606   7.747   7.272   5.541
15910TIP3    H147607   7.687   7.335   5.587
15910TIP3    H247608   7.681   7.218   5.492
15911TIP3   OH247609   8.081   6.604   4.273
15911TIP3    H147610   8.141   6.662   4.325
15911TIP3    H247611   8.107   6.629   4.180
15912TIP3   OH247612   7.502   6.828   5.643
15912TIP3    H147613   7.506   6.915   5.687
15912TIP3    H247614   7.406   6.809   5.650
15913TIP3   OH247615   7.823   7.286   4.549
15913TIP3    H147616   7.906   7.335   4.562
15913TIP3    H247617   7.765   7.352   4.509
15914TIP3   OH247618   7.541   7.441   5.628
15914TIP3    H147619   7.507   7.438   5.536
15914TIP3    H247620   7.461   7.419   5.681
15915TIP3   OH247621   8.596   5.846   4.320
15915TIP3    H147622   8.515   5.867   4.372
15915TIP3    H247623   8.609   5.930   4.271
15916TIP3   OH247624   7.340   6.586   4.668
15916TIP3    H147625   7.274   6.631   4.611
15916TIP3    H247626   7.299   6.500   4.680
15917TIP3   OH247627   8.396   7.211   3.868
15917TIP3    H147628   8.404   7.308   3.855
15917TIP3    H247629   8.489   7.182   3.854
15918TIP3   OH247630   7.120   6.970   5.574
15918TIP3    H147631   7.056   6.946   5.505
15918TIP3    H247632   7.158   6.884   5.600
15919TIP3   OH247633   6.975   7.162   5.208
15919TIP3    H147634   7.071   7.154   5.197
15919TIP3    H247635   6.968   7.241   5.263
15920TIP3   OH247636   8.838   7.614   5.261
15920TIP3    H147637   8.838   7.517   5.273
15920TIP3    H247638   8.755   7.637   5.308
15921TIP3   OH247639   7.945   7.401   5.398
15921TIP3    H147640   7.943   7.494   5.431
15921TIP3    H247641   7.874   7.361   5.452
15922TIP3   OH247642   7.703   7.528   4.351
15922TIP3    H147643   7.661   7.509   4.265
15922TIP3    H247644   7.673   7.618   4.371
15923TIP3   OH247645   7.143   7.379   4.734
15923TIP3    H147646   7.191   7.369   4.819
15923TIP3    H247647   7.087   7.299   4.736
15924TIP3   OH247648   7.907   7.430   3.990
15924TIP3    H147649   7.966   7.360   3.954
15924TIP3    H247650   7.943   7.439   4.081
15925TIP3   OH247651   7.957   7.479   4.260
15925TIP3    H147652   7.870   7.486   4.305
15925TIP3    H247653   8.011   7.437   4.329
15926TIP3   OH247654   8.728   6.748   5.541
15926TIP3    H147655   8.651   6.760   5.484
15926TIP3    H247656   8.750   6.654   5.523
15927TIP3   OH247657   7.326   7.154   5.565
15927TIP3    H147658   7.376   7.136   5.647
15927TIP3    H247659   7.252   7.090   5.572
15928TIP3   OH247660   7.725   5.975   5.349
15928TIP3    H147661   7.635   5.946   5.323
15928TIP3    H247662   7.702   6.059   5.392
15929TIP3   OH247663   8.260   6.091   5.541
15929TIP3    H147664   8.329   6.065   5.606
15929TIP3    H247665   8.177   6.071   5.589
15930TIP3   OH247666   8.491   6.515   5.455
15930TIP3    H147667   8.448   6.515   5.543
15930TIP3    H247668   8.474   6.605   5.423
15931TIP3   OH247669   8.155   6.650   4.015
15931TIP3    H147670   8.126   6.624   3.926
15931TIP3    H247671   8.237   6.698   3.993
15932TIP3   OH247672   7.868   6.029   4.318
15932TIP3    H147673   7.838   6.026   4.411
15932TIP3    H247674   7.833   5.942   4.287
15933TIP3   OH247675   7.655   6.492   5.365
15933TIP3    H147676   7.607   6.514   5.447
15933TIP3    H247677   7.639   6.573   5.311
15934TIP3   OH247678   7.540   6.378   4.880
15934TIP3    H147679   7.448   6.351   4.897
15934TIP3    H247680   7.555   6.337   4.792
15935TIP3   OH247681   8.030   6.463   4.606
15935TIP3    H147682   7.978   6.535   4.565
15935TIP3    H247683   8.086   6.434   4.532
15936TIP3   OH247684   8.206   6.744   5.696
15936TIP3    H147685   8.184   6.669   5.756
15936TIP3    H247686   8.301   6.755   5.714
15937TIP3   OH247687   8.187   6.492   4.847
15937TIP3    H147688   8.129   6.523   4.774
15937TIP3    H247689   8.221   6.410   4.805
15938TIP3   OH247690   7.474   6.522   5.576
15938TIP3    H147691   7.507   6.585   5.642
15938TIP3    H247692   7.465   6.440   5.627
15939TIP3   OH247693   7.519   5.995   4.284
15939TIP3    H147694   7.517   5.996   4.382
15939TIP3    H247695   7.445   6.056   4.263
15940TIP3   OH247696   7.069   6.043   5.156
15940TIP3    H147697   7.144   6.076   5.210
15940TIP3    H247698   7.111   6.012   5.075
15941TIP3   OH247699   7.041   6.024   4.673
15941TIP3    H147700   7.085   6.064   4.595
15941TIP3    H247701   6.981   6.098   4.697
15942TIP3   OH247702   8.194   6.739   5.270
15942TIP3    H147703   8.229   6.668   5.211
15942TIP3    H247704   8.169   6.686   5.348
15943TIP3   OH247705   7.866   6.201   4.941
15943TIP3    H147706   7.787   6.199   4.998
15943TIP3    H247707   7.938   6.198   5.006
15944TIP3   OH247708   7.302   6.256   4.950
15944TIP3    H147709   7.207   6.262   4.923
15944TIP3    H247710   7.327   6.165   4.926
15945TIP3   OH247711   7.571   6.251   4.638
15945TIP3    H147712   7.666   6.267   4.620
15945TIP3    H247713   7.527   6.276   4.554
15946TIP3   OH247714   8.356   6.279   5.143
15946TIP3    H147715   8.322   6.288   5.235
15946TIP3    H247716   8.294   6.216   5.105
15947TIP3   OH247717   7.412   6.286   4.415
15947TIP3    H147718   7.341   6.242   4.365
15947TIP3    H247719   7.465   6.324   4.342
15948TIP3   OH247720   8.529   7.966   5.362
15948TIP3    H147721   8.527   7.987   5.267
15948TIP3    H247722   8.610   8.011   5.391
15949TIP3   OH247723   7.486   7.075   5.784
15949TIP3    H147724   7.566   7.105   5.831
15949TIP3    H247725   7.422   7.074   5.858
15950TIP3   OH247726   7.951   6.527   5.036
15950TIP3    H147727   8.025   6.491   4.984
15950TIP3    H247728   7.966   6.485   5.123
15951TIP3   OH247729   7.473   6.017   4.916
15951TIP3    H147730   7.441   5.936   4.961
15951TIP3    H247731   7.528   5.981   4.846
15952TIP3   OH247732   7.927   6.421   5.334
15952TIP3    H147733   7.839   6.462   5.345
15952TIP3    H247734   7.987   6.483   5.381
15953TIP3   OH247735   7.663   6.817   4.421
15953TIP3    H147736   7.590   6.751   4.412
15953TIP3    H247737   7.647   6.850   4.513
15954TIP3   OH247738   8.567   7.056   5.050
15954TIP3    H147739   8.592   7.104   4.968
15954TIP3    H247740   8.482   7.014   5.025
15955TIP3   OH247741   8.122   6.129   4.284
15955TIP3    H147742   8.025   6.114   4.294
15955TIP3    H247743   8.133   6.223   4.309
15956TIP3   OH247744   8.061   7.132   5.421
15956TIP3    H147745   8.089   7.112   5.511
15956TIP3    H247746   8.026   7.222   5.428
15957TIP3   OH247747   8.192   6.375   4.388
15957TIP3    H147748   8.288   6.380   4.405
15957TIP3    H247749   8.175   6.455   4.335
15958TIP3   OH247750   7.354   6.836   5.099
15958TIP3    H147751   7.394   6.810   5.014
15958TIP3    H247752   7.400   6.776   5.160
15959TIP3   OH247753   7.809   6.965   4.242
15959TIP3    H147754   7.762   7.051   4.250
15959TIP3    H247755   7.756   6.910   4.303
15960TIP3   OH247756   7.235   6.760   5.713
15960TIP3    H147757   7.259   6.746   5.807
15960TIP3    H247758   7.168   6.691   5.699
15961TIP3   OH247759   7.963   6.872   5.734
15961TIP3    H147760   7.906   6.815   5.679
15961TIP3    H247761   8.051   6.839   5.707
15962TIP3   OH247762   8.224   7.395   5.317
15962TIP3    H147763   8.127   7.393   5.328
15962TIP3    H247764   8.250   7.447   5.396
15963TIP3   OH247765   8.634   6.465   4.226
15963TIP3    H147766   8.571   6.420   4.164
15963TIP3    H247767   8.631   6.554   4.184
15964TIP3   OH247768   8.852   7.324   5.306
15964TIP3    H147769   8.754   7.317   5.297
15964TIP3    H247770   8.878   7.293   5.216
15965TIP3   OH247771   8.323   7.288   4.129
15965TIP3    H147772   8.319   7.221   4.199
15965TIP3    H247773   8.345   7.237   4.049
15966TIP3   OH247774   8.330   6.915   4.973
15966TIP3    H147775   8.237   6.889   4.984
15966TIP3    H247776   8.366   6.835   4.928
15967TIP3   OH247777   7.457   7.142   4.727
15967TIP3    H147778   7.461   7.222   4.672
15967TIP3    H247779   7.362   7.126   4.731
15968TIP3   OH247780   7.021   6.446   4.428
15968TIP3    H147781   7.068   6.529   4.448
15968TIP3    H247782   6.944   6.453   4.488
15969TIP3   OH247783   7.594   6.906   4.668
15969TIP3    H147784   7.562   6.997   4.687
15969TIP3    H247785   7.559   6.858   4.744
15970TIP3   OH247786   7.727   7.485   5.194
15970TIP3    H147787   7.768   7.557   5.142
15970TIP3    H247788   7.804   7.450   5.241
15971TIP3   OH247789   7.376   7.381   4.577
15971TIP3    H147790   7.291   7.389   4.622
15971TIP3    H247791   7.408   7.474   4.580
15972TIP3   OH247792   8.116   7.122   5.151
15972TIP3    H147793   8.107   7.117   5.249
15972TIP3    H247794   8.195   7.068   5.135
15973TIP3   OH247795   8.089   7.010   4.036
15973TIP3    H147796   8.144   6.988   4.114
15973TIP3    H247797   8.001   6.985   4.069
15974TIP3   OH247798   8.361   7.657   5.208
15974TIP3    H147799   8.284   7.598   5.197
15974TIP3    H247800   8.347   7.719   5.133
15975TIP3   OH247801   8.427   7.486   3.853
15975TIP3    H147802   8.469   7.559   3.803
15975TIP3    H247803   8.348   7.534   3.886
15976TIP3   OH247804   7.449   6.265   5.721
15976TIP3    H147805   7.353   6.269   5.735
15976TIP3    H247806   7.477   6.205   5.793
15977TIP3   OH247807   8.249   6.947   4.254
15977TIP3    H147808   8.241   6.879   4.324
15977TIP3    H247809   8.346   6.946   4.240
15978TIP3   OH247810   7.164   7.349   5.354
15978TIP3    H147811   7.217   7.273   5.382
15978TIP3    H247812   7.196   7.417   5.415
15979TIP3   OH247813   7.454   6.994   4.034
15979TIP3    H147814   7.471   6.902   4.006
15979TIP3    H247815   7.436   6.981   4.130
15980TIP3   OH247816   7.400   6.997   4.308
15980TIP3    H147817   7.475   6.970   4.364
15980TIP3    H247818   7.405   7.095   4.315
15981TIP3   OH247819   7.136   6.690   4.509
15981TIP3    H147820   7.070   6.736   4.566
15981TIP3    H247821   7.152   6.760   4.443
15982TIP3   OH247822   8.280   6.331   5.403
15982TIP3    H147823   8.364   6.370   5.431
15982TIP3    H247824   8.274   6.249   5.457
15983TIP3   OH247825   8.163   6.081   4.566
15983TIP3    H147826   8.153   6.105   4.472
15983TIP3    H247827   8.206   6.162   4.603
15984TIP3   OH247828   7.665   7.195   4.255
15984TIP3    H147829   7.579   7.224   4.291
15984TIP3    H247830   7.684   7.267   4.194
15985TIP3   OH247831   7.852   6.260   4.669
15985TIP3    H147832   7.918   6.329   4.650
15985TIP3    H247833   7.860   6.251   4.766
15986TIP3   OH247834   8.123   6.576   5.478
15986TIP3    H147835   8.148   6.629   5.557
15986TIP3    H247836   8.181   6.498   5.487
15987TIP3   OH247837   7.999   5.985   4.770
15987TIP3    H147838   7.998   6.059   4.834
15987TIP3    H247839   8.060   6.021   4.702
15988TIP3   OH247840   7.408   7.271   4.322
15988TIP3    H147841   7.380   7.341   4.259
15988TIP3    H247842   7.393   7.315   4.409
15989TIP3   OH247843   7.511   5.986   4.562
15989TIP3    H147844   7.511   6.077   4.598
15989TIP3    H247845   7.606   5.965   4.569
15990TIP3   OH247846   8.765   6.493   5.441
15990TIP3    H147847   8.667   6.483   5.445
15990TIP3    H247848   8.789   6.414   5.391
15991TIP3   OH247849   8.414   6.674   4.848
15991TIP3    H147850   8.341   6.611   4.858
15991TIP3    H247851   8.488   6.628   4.893
15992TIP3   OH247852   7.128   6.902   4.316
15992TIP3    H147853   7.195   6.972   4.325
15992TIP3    H247854   7.172   6.846   4.249
15993TIP3   OH247855   7.072   6.175   4.447
15993TIP3    H147856   7.074   6.273   4.444
15993TIP3    H247857   6.986   6.155   4.408
15994TIP3   OH247858   8.389   7.636   4.798
15994TIP3    H147859   8.346   7.681   4.722
15994TIP3    H247860   8.482   7.637   4.768
15995TIP3   OH247861   7.459   5.897   5.323
15995TIP3    H147862   7.429   5.864   5.236
15995TIP3    H247863   7.448   5.817   5.379
15996TIP3   OH247864   7.001   7.117   4.704
15996TIP3    H147865   6.927   7.147   4.759
15996TIP3    H247866   6.976   7.156   4.618
15997TIP3   OH247867   7.156   7.657   5.774
15997TIP3    H147868   7.242   7.655   5.821
15997TIP3    H247869   7.134   7.562   5.773
15998TIP3   OH247870   7.638   7.622   5.818
15998TIP3    H147871   7.732   7.600   5.826
15998TIP3    H247872   7.612   7.564   5.744
15999TIP3   OH247873   7.618   7.197   3.947
15999TIP3    H147874   7.563   7.126   3.987
15999TIP3    H247875   7.694   7.146   3.915
16000TIP3   OH247876   8.273   7.530   5.554
16000TIP3    H147877   8.266   7.457   5.620
16000TIP3    H247878   8.354   7.577   5.583
16001TIP3   OH247879   8.054   7.237   3.858
16001TIP3    H147880   8.101   7.177   3.918
16001TIP3    H247881   8.112   7.239   3.779
16002TIP3   OH247882   7.286   7.063   5.975
16002TIP3    H147883   7.303   6.967   5.979
16002TIP3    H247884   7.198   7.065   5.931
16003TIP3   OH247885   7.263   6.714   4.169
16003TIP3    H147886   7.319   6.681   4.241
16003TIP3    H247887   7.330   6.718   4.097
16004TIP3   OH247888   7.893   7.147   5.748
16004TIP3    H147889   7.854   7.163   5.661
16004TIP3    H247890   7.926   7.055   5.741
16005TIP3   OH247891   7.769   6.910   3.974
16005TIP3    H147892   7.774   6.925   4.070
16005TIP3    H247893   7.770   6.812   3.970
16006TIP3   OH247894   8.387   7.157   5.355
16006TIP3    H147895   8.462   7.200   5.309
16006TIP3    H247896   8.317   7.223   5.339
16007TIP3   OH247897   7.404   6.796   5.957
16007TIP3    H147898   7.481   6.741   5.934
16007TIP3    H247899   7.430   6.829   6.046
16008TIP3   OH247900   7.469   6.617   4.389
16008TIP3    H147901   7.447   6.576   4.473
16008TIP3    H247902   7.507   6.542   4.338
16009TIP3   OH247903   7.738   6.679   5.616
16009TIP3    H147904   7.663   6.742   5.620
16009TIP3    H247905   7.789   6.714   5.539
16010TIP3   OH247906   7.573   6.410   4.231
16010TIP3    H147907   7.546   6.413   4.137
16010TIP3    H247908   7.670   6.417   4.224
16011TIP3   OH247909   8.258   7.083   5.751
16011TIP3    H147910   8.337   7.060   5.702
16011TIP3    H247911   8.256   7.016   5.821
16012TIP3   OH247912   8.392   6.742   3.894
16012TIP3    H147913   8.372   6.696   3.810
16012TIP3    H247914   8.362   6.833   3.870
16013TIP3   OH247915   7.861   6.469   5.746
16013TIP3    H147916   7.865   6.389   5.689
16013TIP3    H247917   7.820   6.535   5.686
16014TIP3   OH247918   7.866   6.255   5.553
16014TIP3    H147919   7.895   6.297   5.470
16014TIP3    H247920   7.773   6.233   5.532
16015TIP3   OH247921   7.893   6.791   5.426
16015TIP3    H147922   7.977   6.797   5.378
16015TIP3    H247923   7.839   6.859   5.380
16016TIP3   OH247924   8.479   6.759   5.808
16016TIP3    H147925   8.524   6.673   5.814
16016TIP3    H247926   8.548   6.814   5.769
16017TIP3   OH247927   8.516   7.014   5.544
16017TIP3    H147928   8.460   7.067   5.483
16017TIP3    H247929   8.604   7.031   5.504
16018TIP3   OH247930   7.741   6.582   5.975
16018TIP3    H147931   7.672   6.514   5.988
16018TIP3    H247932   7.776   6.557   5.888
16019TIP3   OH247933   7.998   6.020   5.621
16019TIP3    H147934   7.951   6.103   5.596
16019TIP3    H247935   7.928   5.953   5.606
16020TIP3   OH247936   8.123   6.526   5.836
16020TIP3    H147937   8.115   6.514   5.932
16020TIP3    H247938   8.033   6.500   5.807
16021TIP3   OH247939   8.362   6.479   5.690
16021TIP3    H147940   8.287   6.476   5.752
16021TIP3    H247941   8.436   6.446   5.746
16022TIP3   OH247942   8.578   6.413   5.843
16022TIP3    H147943   8.604   6.320   5.858
16022TIP3    H247944   8.591   6.453   5.932
16023TIP3   OH247945   7.580   6.362   6.028
16023TIP3    H147946   7.589   6.272   5.992
16023TIP3    H247947   7.616   6.350   6.118
16024TIP3   OH247948   8.090   6.027   5.879
16024TIP3    H147949   8.161   5.959   5.871
16024TIP3    H247950   8.053   6.024   5.788
16025TIP3   OH247951   8.156   6.242   6.038
16025TIP3    H147952   8.135   6.173   5.971
16025TIP3    H247953   8.080   6.303   6.028
16026TIP3   OH247954   7.380   7.474   4.135
16026TIP3    H147955   7.475   7.469   4.116
16026TIP3    H247956   7.350   7.522   4.056
16027TIP3   OH247957   6.859   6.855   4.352
16027TIP3    H147958   6.954   6.877   4.338
16027TIP3    H247959   6.854   6.766   4.310
16028TIP3   OH247960   6.772   7.467   4.766
16028TIP3    H147961   6.705   7.405   4.730
16028TIP3    H247962   6.818   7.410   4.831
16029TIP3   OH247963   6.909   7.320   4.952
16029TIP3    H147964   6.899   7.245   5.013
16029TIP3    H247965   6.960   7.381   5.008
16030TIP3   OH247966   8.648   7.732   4.731
16030TIP3    H147967   8.672   7.729   4.826
16030TIP3    H247968   8.655   7.827   4.714
16031TIP3   OH247969   8.665   7.737   5.026
16031TIP3    H147970   8.621   7.650   5.029
16031TIP3    H247971   8.742   7.717   5.081
16032TIP3   OH247972   8.711   7.417   5.606
16032TIP3    H147973   8.639   7.425   5.672
16032TIP3    H247974   8.754   7.505   5.612
16033TIP3   OH247975   8.527   6.928   4.226
16033TIP3    H147976   8.595   6.992   4.200
16033TIP3    H247977   8.569   6.890   4.306
16034TIP3   OH247978   8.655   6.795   4.428
16034TIP3    H147979   8.591   6.755   4.491
16034TIP3    H247980   8.720   6.837   4.488
16035TIP3   OH247981   8.704   7.192   4.850
16035TIP3    H147982   8.762   7.130   4.802
16035TIP3    H247983   8.671   7.246   4.776
16036TIP3   OH247984   8.543   7.491   5.060
16036TIP3    H147985   8.469   7.528   5.111
16036TIP3    H247986   8.495   7.439   4.991
16037TIP3   OH247987   8.594   6.703   4.077
16037TIP3    H147988   8.521   6.708   4.011
16037TIP3    H247989   8.570   6.780   4.133
16038TIP3   OH247990   8.463   6.377   4.033
16038TIP3    H147991   8.424   6.416   3.954
16038TIP3    H247992   8.440   6.282   4.021
16039TIP3   OH247993   8.468   6.653   4.577
16039TIP3    H147994   8.481   6.556   4.574
16039TIP3    H247995   8.456   6.669   4.673
16040TIP3   OH247996   7.097   6.726   5.323
16040TIP3    H147997   7.096   6.696   5.230
16040TIP3    H247998   7.194   6.729   5.340
16041TIP3   OH247999   8.759   7.076   5.435
16041TIP3    H148000   8.831   7.010   5.426
16041TIP3    H248001   8.787   7.144   5.371
16042TIP3   OH248002   8.945   6.882   5.452
16042TIP3    H148003   8.870   6.832   5.490
16042TIP3    H248004   9.017   6.816   5.466
16043TIP3   OH248005   8.410   6.110   4.014
16043TIP3    H148006   8.487   6.082   4.068
16043TIP3    H248007   8.339   6.051   4.045
16044TIP3   OH248008   8.465   6.368   4.471
16044TIP3    H148009   8.507   6.280   4.487
16044TIP3    H248010   8.524   6.403   4.403
16045TIP3   OH248011   8.627   6.545   4.964
16045TIP3    H148012   8.714   6.570   4.924
16045TIP3    H248013   8.642   6.579   5.054
16046TIP3   OH248014   8.695   6.688   5.194
16046TIP3    H148015   8.619   6.722   5.245
16046TIP3    H248016   8.729   6.769   5.151
16047TIP3   OH248017   7.312   6.412   5.995
16047TIP3    H148018   7.410   6.407   5.999
16047TIP3    H248019   7.289   6.328   6.040
16048TIP3   OH248020   8.575   6.119   4.510
16048TIP3    H148021   8.625   6.103   4.592
16048TIP3    H248022   8.516   6.041   4.509
16049TIP3   OH248023   7.275   6.105   5.331
16049TIP3    H148024   7.338   6.031   5.340
16049TIP3    H248025   7.336   6.180   5.323
16050TIP3   OH248026   7.078   6.379   5.402
16050TIP3    H148027   7.128   6.372   5.318
16050TIP3    H248028   7.108   6.465   5.434
16051TIP3   OH248029   8.655   6.056   4.138
16051TIP3    H148030   8.702   5.982   4.096
16051TIP3    H248031   8.723   6.126   4.138
16052TIP3   OH248032   7.061   5.883   4.903
16052TIP3    H148033   6.967   5.881   4.929
16052TIP3    H248034   7.060   5.941   4.824
16053TIP3   OH248035   8.218   7.590   4.408
16053TIP3    H148036   8.268   7.567   4.327
16053TIP3    H248037   8.282   7.644   4.456
16054TIP3   OH248038   7.281   5.960   5.717
16054TIP3    H148039   7.231   5.958   5.800
16054TIP3    H248040   7.215   6.001   5.657
16055TIP3   OH248041   7.321   7.391   5.795
16055TIP3    H148042   7.230   7.362   5.778
16055TIP3    H248043   7.331   7.370   5.889
16056TIP3   OH248044   7.499   7.422   5.343
16056TIP3    H148045   7.452   7.498   5.303
16056TIP3    H248046   7.586   7.435   5.298
16057TIP3   OH248047   7.945   7.668   5.481
16057TIP3    H148048   7.988   7.667   5.569
16057TIP3    H248049   8.011   7.717   5.428
16058TIP3   OH248050   8.123   7.818   5.338
16058TIP3    H148051   8.193   7.766   5.295
16058TIP3    H248052   8.176   7.875   5.398
16059TIP3   OH248053   8.914   6.178   5.395
16059TIP3    H148054   8.827   6.175   5.435
16059TIP3    H248055   8.948   6.088   5.412
16060TIP3   OH248056   7.176   7.680   5.363
16060TIP3    H148057   7.087   7.715   5.341
16060TIP3    H248058   7.185   7.712   5.454
16061TIP3   OH248059   7.413   7.658   5.223
16061TIP3    H148060   7.326   7.671   5.268
16061TIP3    H248061   7.393   7.690   5.133
16062TIP3   OH248062   7.838   7.686   5.022
16062TIP3    H148063   7.771   7.707   4.955
16062TIP3    H248064   7.851   7.774   5.064
16063TIP3   OH248065   8.107   7.628   5.075
16063TIP3    H148066   8.013   7.642   5.053
16063TIP3    H248067   8.150   7.702   5.028
16064TIP3   OH248068   8.316   7.820   4.989
16064TIP3    H148069   8.300   7.903   4.940
16064TIP3    H248070   8.343   7.759   4.918
16065TIP3   OH248071   7.087   7.473   5.111
16065TIP3    H148072   7.115   7.447   5.202
16065TIP3    H248073   7.159   7.430   5.060
16066TIP3   OH248074   7.281   7.345   4.968
16066TIP3    H148075   7.297   7.260   5.015
16066TIP3    H248076   7.372   7.381   4.964
16067TIP3   OH248077   7.547   7.440   4.970
16067TIP3    H148078   7.579   7.349   4.956
16067TIP3    H248079   7.593   7.460   5.054
16068TIP3   OH248080   8.119   6.094   5.051
16068TIP3    H148081   8.080   6.023   5.106
16068TIP3    H248082   8.196   6.050   5.011
16069TIP3   OH248083   8.645   5.969   4.960
16069TIP3    H148084   8.685   6.024   4.889
16069TIP3    H248085   8.552   5.998   4.958
16070TIP3   OH248086   8.740   6.078   4.727
16070TIP3    H148087   8.814   6.023   4.693
16070TIP3    H248088   8.776   6.168   4.712
16071TIP3   OH248089   7.372   5.805   5.075
16071TIP3    H148090   7.280   5.771   5.074
16071TIP3    H248091   7.422   5.720   5.070
16072TIP3   OH248092   7.153   5.671   4.733
16072TIP3    H148093   7.181   5.726   4.658
16072TIP3    H248094   7.126   5.739   4.798
16073TIP3   OH248095   7.814   5.838   4.955
16073TIP3    H148096   7.872   5.885   4.893
16073TIP3    H248097   7.843   5.875   5.040
16074TIP3   OH248098   8.355   5.984   4.940
16074TIP3    H148099   8.365   5.948   4.851
16074TIP3    H248100   8.346   5.902   4.994
16075TIP3   OH248101   8.392   5.905   4.500
16075TIP3    H148102   8.305   5.947   4.512
16075TIP3    H248103   8.378   5.820   4.546
16076TIP3   OH248104   6.875   7.244   4.502
16076TIP3    H148105   6.790   7.211   4.467
16076TIP3    H248106   6.865   7.339   4.483
16077TIP3   OH248107   7.280   5.840   4.479
16077TIP3    H148108   7.342   5.768   4.459
16077TIP3    H248109   7.342   5.904   4.521
16078TIP3   OH248110   7.788   6.008   4.584
16078TIP3    H148111   7.849   5.962   4.643
16078TIP3    H248112   7.808   6.101   4.610
16079TIP3   OH248113   7.648   7.433   4.084
16079TIP3    H148114   7.736   7.455   4.048
16079TIP3    H248115   7.626   7.358   4.025
16080TIP3   OH248116   8.365   7.552   4.177
16080TIP3    H148117   8.357   7.455   4.164
16080TIP3    H248118   8.323   7.585   4.095
16081TIP3   OH248119   7.580   6.083   5.963
16081TIP3    H148120   7.547   6.014   6.023
16081TIP3    H248121   7.674   6.085   5.989
16082TIP3   OH248122   7.827   6.082   6.083
16082TIP3    H148123   7.913   6.062   6.042
16082TIP3    H248124   7.819   6.009   6.148
16083TIP3   OH248125   6.952   7.269   4.141
16083TIP3    H148126   6.955   7.295   4.234
16083TIP3    H248127   7.040   7.228   4.128
16084TIP3   OH248128   8.662   6.146   5.869
16084TIP3    H148129   8.675   6.115   5.961
16084TIP3    H248130   8.754   6.160   5.841
16085TIP3   OH248131   8.591   7.696   5.366
16085TIP3    H148132   8.513   7.664   5.317
16085TIP3    H248133   8.572   7.792   5.368
16086TIP3   OH248134   9.858   7.060   4.130
16086TIP3    H148135   9.840   7.153   4.108
16086TIP3    H248136   9.780   7.017   4.092
16087TIP3   OH248137   9.806   7.069   4.524
16087TIP3    H148138   9.875   7.048   4.590
16087TIP3    H248139   9.822   7.004   4.455
16088TIP3   OH248140   9.161   6.963   4.880
16088TIP3    H148141   9.197   6.893   4.937
16088TIP3    H248142   9.242   7.010   4.855
16089TIP3   OH248143   9.134   7.379   4.621
16089TIP3    H148144   9.122   7.282   4.618
16089TIP3    H248145   9.227   7.386   4.592
16090TIP3   OH248146   8.836   6.576   4.387
16090TIP3    H148147   8.788   6.660   4.402
16090TIP3    H248148   8.764   6.523   4.348
16091TIP3   OH248149   8.893   6.863   4.557
16091TIP3    H148150   8.944   6.787   4.593
16091TIP3    H248151   8.955   6.899   4.492
16092TIP3   OH248152   9.740   7.810   4.231
16092TIP3    H148153   9.798   7.751   4.178
16092TIP3    H248154   9.749   7.771   4.319
16093TIP3   OH248155   9.650   7.293   4.567
16093TIP3    H148156   9.692   7.211   4.534
16093TIP3    H248157   9.732   7.346   4.580
16094TIP3   OH248158  10.065   6.815   4.594
16094TIP3    H148159  10.063   6.719   4.616
16094TIP3    H248160  10.051   6.808   4.497
16095TIP3   OH248161   9.402   6.459   4.564
16095TIP3    H148162   9.387   6.527   4.495
16095TIP3    H248163   9.359   6.382   4.521
16096TIP3   OH248164  10.087   6.536   4.203
16096TIP3    H148165  10.142   6.467   4.245
16096TIP3    H248166  10.153   6.589   4.155
16097TIP3   OH248167   9.039   6.656   4.663
16097TIP3    H148168   9.118   6.628   4.714
16097TIP3    H248169   9.051   6.602   4.583
16098TIP3   OH248170   9.482   6.851   4.461
16098TIP3    H148171   9.576   6.825   4.470
16098TIP3    H248172   9.443   6.769   4.423
16099TIP3   OH248173   9.422   6.456   4.994
16099TIP3    H148174   9.356   6.485   4.928
16099TIP3    H248175   9.369   6.461   5.075
16100TIP3   OH248176   9.751   7.290   4.002
16100TIP3    H148177   9.710   7.276   3.916
16100TIP3    H248178   9.709   7.375   4.029
16101TIP3   OH248179   9.515   7.209   4.795
16101TIP3    H148180   9.451   7.277   4.827
16101TIP3    H248181   9.555   7.256   4.719
16102TIP3   OH248182   9.272   6.559   4.782
16102TIP3    H148183   9.311   6.647   4.784
16102TIP3    H248184   9.321   6.517   4.707
16103TIP3   OH248185   9.339   7.403   4.889
16103TIP3    H148186   9.313   7.483   4.839
16103TIP3    H248187   9.258   7.393   4.944
16104TIP3   OH248188   8.733   7.092   4.120
16104TIP3    H148189   8.693   7.125   4.037
16104TIP3    H248190   8.761   7.173   4.164
16105TIP3   OH248191   9.755   6.156   4.702
16105TIP3    H148192   9.746   6.060   4.725
16105TIP3    H248193   9.676   6.191   4.747
16106TIP3   OH248194   9.880   7.664   4.051
16106TIP3    H148195   9.935   7.594   4.017
16106TIP3    H248196   9.849   7.708   3.968
16107TIP3   OH248197   9.683   6.917   3.954
16107TIP3    H148198   9.601   6.970   3.945
16107TIP3    H248199   9.723   6.928   3.867
16108TIP3   OH248200   9.647   6.705   3.674
16108TIP3    H148201   9.706   6.743   3.741
16108TIP3    H248202   9.706   6.640   3.631
16109TIP3   OH248203   9.270   6.999   4.350
16109TIP3    H148204   9.230   6.941   4.282
16109TIP3    H248205   9.347   6.946   4.379
16110TIP3   OH248206   9.393   7.404   4.502
16110TIP3    H148207   9.380   7.370   4.412
16110TIP3    H248208   9.486   7.377   4.520
16111TIP3   OH248209   9.412   6.964   4.712
16111TIP3    H148210   9.440   6.941   4.622
16111TIP3    H248211   9.451   7.052   4.725
16112TIP3   OH248212   9.883   7.620   4.482
16112TIP3    H148213   9.924   7.694   4.529
16112TIP3    H248214   9.907   7.543   4.536
16113TIP3   OH248215   9.540   7.525   5.036
16113TIP3    H148216   9.479   7.591   5.075
16113TIP3    H248217   9.477   7.474   4.981
16114TIP3   OH248218   9.892   6.867   3.765
16114TIP3    H148219   9.931   6.929   3.827
16114TIP3    H248220   9.916   6.906   3.679
16115TIP3   OH248221   9.306   7.075   5.139
16115TIP3    H148222   9.307   7.164   5.178
16115TIP3    H248223   9.209   7.061   5.133
16116TIP3   OH248224   9.622   7.540   4.038
16116TIP3    H148225   9.689   7.598   4.078
16116TIP3    H248226   9.589   7.597   3.968
16117TIP3   OH248227   9.338   7.698   5.115
16117TIP3    H148228   9.307   7.695   5.022
16117TIP3    H248229   9.256   7.676   5.165
16118TIP3   OH248230   9.137   6.843   4.153
16118TIP3    H148231   9.070   6.887   4.096
16118TIP3    H248232   9.097   6.757   4.168
16119TIP3   OH248233   8.915   7.227   5.061
16119TIP3    H148234   8.854   7.208   4.986
16119TIP3    H248235   8.952   7.139   5.082
16120TIP3   OH248236   9.741   7.654   4.888
16120TIP3    H148237   9.740   7.748   4.916
16120TIP3    H248238   9.668   7.617   4.942
16121TIP3   OH248239   8.945   7.634   4.245
16121TIP3    H148240   9.018   7.575   4.270
16121TIP3    H248241   8.879   7.567   4.219
16122TIP3   OH248242   9.705   7.684   3.510
16122TIP3    H148243   9.788   7.644   3.483
16122TIP3    H248244   9.727   7.717   3.600
16123TIP3   OH248245   9.121   7.412   5.056
16123TIP3    H148246   9.173   7.389   5.136
16123TIP3    H248247   9.048   7.348   5.059
16124TIP3   OH248248   9.522   6.239   4.838
16124TIP3    H148249   9.435   6.205   4.808
16124TIP3    H248250   9.492   6.319   4.886
16125TIP3   OH248251  10.040   6.358   5.032
16125TIP3    H148252  10.098   6.308   5.091
16125TIP3    H248253   9.951   6.331   5.063
16126TIP3   OH248254   9.673   6.283   3.806
16126TIP3    H148255   9.644   6.283   3.899
16126TIP3    H248256   9.631   6.200   3.776
16127TIP3   OH248257   9.335   6.635   4.367
16127TIP3    H148258   9.243   6.606   4.384
16127TIP3    H248259   9.350   6.593   4.279
16128TIP3   OH248260   9.819   6.716   4.088
16128TIP3    H148261   9.769   6.791   4.048
16128TIP3    H248262   9.883   6.693   4.018
16129TIP3   OH248263  10.002   6.995   5.174
16129TIP3    H148264   9.978   6.927   5.241
16129TIP3    H248265  10.094   7.013   5.199
16130TIP3   OH248266   9.963   6.749   4.345
16130TIP3    H148267   9.936   6.794   4.263
16130TIP3    H248268  10.004   6.669   4.306
16131TIP3   OH248269   9.272   6.774   5.063
16131TIP3    H148270   9.271   6.840   5.133
16131TIP3    H248271   9.256   6.691   5.112
16132TIP3   OH248272   9.322   6.254   3.770
16132TIP3    H148273   9.317   6.252   3.868
16132TIP3    H248274   9.243   6.308   3.749
16133TIP3   OH248275   8.865   6.301   4.641
16133TIP3    H148276   8.940   6.332   4.697
16133TIP3    H248277   8.910   6.265   4.562
16134TIP3   OH248278   8.836   6.280   4.160
16134TIP3    H148279   8.883   6.319   4.083
16134TIP3    H248280   8.777   6.355   4.184
16135TIP3   OH248281   9.964   7.000   4.759
16135TIP3    H148282  10.014   6.943   4.696
16135TIP3    H248283   9.978   6.952   4.841
16136TIP3   OH248284   9.657   6.464   4.425
16136TIP3    H148285   9.582   6.454   4.486
16136TIP3    H248286   9.734   6.448   4.481
16137TIP3   OH248287   9.099   6.512   4.437
16137TIP3    H148288   9.004   6.516   4.409
16137TIP3    H248289   9.125   6.421   4.414
16138TIP3   OH248290   9.365   6.507   4.126
16138TIP3    H148291   9.461   6.521   4.111
16138TIP3    H248292   9.323   6.533   4.041
16139TIP3   OH248293  10.026   6.553   4.637
16139TIP3    H148294  10.087   6.531   4.709
16139TIP3    H248295  10.011   6.467   4.593
16140TIP3   OH248296   9.206   6.543   3.902
16140TIP3    H148297   9.135   6.498   3.853
16140TIP3    H248298   9.260   6.579   3.827
16141TIP3   OH248299   9.283   7.329   5.271
16141TIP3    H148300   9.362   7.363   5.318
16141TIP3    H248301   9.218   7.328   5.344
16142TIP3   OH248302   9.752   6.762   4.528
16142TIP3    H148303   9.804   6.744   4.447
16142TIP3    H248304   9.822   6.749   4.593
16143TIP3   OH248305   9.271   6.274   4.406
16143TIP3    H148306   9.237   6.195   4.453
16143TIP3    H248307   9.334   6.234   4.344
16144TIP3   OH248308   9.457   7.070   3.911
16144TIP3    H148309   9.383   7.006   3.900
16144TIP3    H248310   9.439   7.105   4.002
16145TIP3   OH248311   9.912   6.406   3.746
16145TIP3    H148312   9.826   6.377   3.784
16145TIP3    H248313   9.932   6.487   3.798
16146TIP3   OH248314   9.854   7.383   4.917
16146TIP3    H148315   9.877   7.384   5.010
16146TIP3    H248316   9.828   7.476   4.901
16147TIP3   OH248317  10.008   6.635   3.860
16147TIP3    H148318  10.094   6.665   3.894
16147TIP3    H248319   9.977   6.714   3.811
16148TIP3   OH248320   9.154   7.091   4.587
16148TIP3    H148321   9.191   7.068   4.500
16148TIP3    H248322   9.197   7.027   4.645
16149TIP3   OH248323   9.601   7.220   3.733
16149TIP3    H148324   9.557   7.308   3.737
16149TIP3    H248325   9.545   7.168   3.794
16150TIP3   OH248326   9.033   7.013   5.199
16150TIP3    H148327   9.050   6.999   5.294
16150TIP3    H248328   8.963   6.947   5.181
16151TIP3   OH248329   9.758   7.127   5.220
16151TIP3    H148330   9.700   7.073   5.166
16151TIP3    H248331   9.847   7.098   5.190
16152TIP3   OH248332  10.023   7.639   4.814
16152TIP3    H148333   9.927   7.651   4.801
16152TIP3    H248334  10.041   7.701   4.887
16153TIP3   OH248335   9.254   7.400   4.216
16153TIP3    H148336   9.260   7.478   4.159
16153TIP3    H248337   9.163   7.371   4.202
16154TIP3   OH248338   8.816   6.703   3.913
16154TIP3    H148339   8.864   6.786   3.934
16154TIP3    H248340   8.740   6.710   3.975
16155TIP3   OH248341   9.389   7.163   4.155
16155TIP3    H148342   9.362   7.254   4.176
16155TIP3    H248343   9.356   7.114   4.232
16156TIP3   OH248344   9.523   7.742   4.680
16156TIP3    H148345   9.562   7.812   4.624
16156TIP3    H248346   9.603   7.706   4.721
16157TIP3   OH248347   9.172   7.641   4.067
16157TIP3    H148348   9.085   7.664   4.103
16157TIP3    H248349   9.214   7.729   4.068
16158TIP3   OH248350   9.908   7.380   4.640
16158TIP3    H148351   9.905   7.377   4.737
16158TIP3    H248352   9.987   7.327   4.621
16159TIP3   OH248353   9.249   6.522   5.213
16159TIP3    H148354   9.151   6.522   5.218
16159TIP3    H248355   9.270   6.451   5.276
16160TIP3   OH248356   8.977   7.621   4.816
16160TIP3    H148357   8.993   7.526   4.827
16160TIP3    H248358   9.009   7.653   4.902
16161TIP3   OH248359   9.249   7.247   3.522
16161TIP3    H148360   9.265   7.155   3.494
16161TIP3    H248361   9.232   7.235   3.618
16162TIP3   OH248362   9.196   7.253   3.796
16162TIP3    H148363   9.272   7.230   3.852
16162TIP3    H248364   9.199   7.351   3.799
16163TIP3   OH248365   8.933   6.946   3.995
16163TIP3    H148366   8.867   6.990   4.052
16163TIP3    H248367   8.949   7.016   3.929
16164TIP3   OH248368  10.082   6.609   4.928
16164TIP3    H148369  10.146   6.637   4.996
16164TIP3    H248370  10.060   6.518   4.957
16165TIP3   OH248371   9.928   6.361   4.051
16165TIP3    H148372   9.967   6.358   3.963
16165TIP3    H248373   9.987   6.422   4.099
16166TIP3   OH248374   9.462   7.454   3.742
16166TIP3    H148375   9.373   7.483   3.770
16166TIP3    H248376   9.490   7.532   3.691
16167TIP3   OH248377   9.641   6.517   4.154
16167TIP3    H148378   9.712   6.582   4.136
16167TIP3    H248379   9.652   6.504   4.251
16168TIP3   OH248380   9.902   6.817   4.985
16168TIP3    H148381   9.946   6.876   5.050
16168TIP3    H248382   9.972   6.749   4.972
16169TIP3   OH248383   9.792   6.240   4.256
16169TIP3    H148384   9.816   6.298   4.330
16169TIP3    H248385   9.845   6.281   4.184
16170TIP3   OH248386   9.200   7.525   3.809
16170TIP3    H148387   9.177   7.596   3.744
16170TIP3    H248388   9.190   7.573   3.894
16171TIP3   OH248389   9.308   6.241   4.045
16171TIP3    H148390   9.304   6.330   4.086
16171TIP3    H248391   9.404   6.222   4.057
16172TIP3   OH248392   8.923   7.159   3.802
16172TIP3    H148393   8.990   7.229   3.811
16172TIP3    H248394   8.969   7.104   3.735
16173TIP3   OH248395   8.870   6.433   3.934
16173TIP3    H148396   8.871   6.531   3.930
16173TIP3    H248397   8.783   6.413   3.898
16174TIP3   OH248398   9.257   6.158   4.809
16174TIP3    H148399   9.232   6.118   4.723
16174TIP3    H248400   9.250   6.079   4.868
16175TIP3   OH248401   8.808   7.397   4.198
16175TIP3    H148402   8.740   7.377   4.266
16175TIP3    H248403   8.755   7.425   4.120
16176TIP3   OH248404   8.952   7.911   5.261
16176TIP3    H148405   9.039   7.910   5.307
16176TIP3    H248406   8.932   7.816   5.259
16177TIP3   OH248407   9.432   7.874   5.311
16177TIP3    H148408   9.528   7.872   5.304
16177TIP3    H248409   9.407   7.818   5.235
16178TIP3   OH248410   9.412   7.449   3.428
16178TIP3    H148411   9.357   7.380   3.472
16178TIP3    H248412   9.488   7.396   3.401
16179TIP3   OH248413  10.071   7.785   5.047
16179TIP3    H148414  10.058   7.710   5.110
16179TIP3    H248415  10.152   7.826   5.080
16180TIP3   OH248416   9.082   7.319   5.462
16180TIP3    H148417   9.100   7.223   5.464
16180TIP3    H248418   8.994   7.321   5.417
16181TIP3   OH248419   9.058   6.970   3.655
16181TIP3    H148420   9.115   6.938   3.728
16181TIP3    H248421   9.125   6.975   3.583
16182TIP3   OH248422   9.690   7.405   5.235
16182TIP3    H148423   9.647   7.424   5.149
16182TIP3    H248424   9.721   7.312   5.224
16183TIP3   OH248425   9.566   7.169   3.462
16183TIP3    H148426   9.578   7.187   3.558
16183TIP3    H248427   9.559   7.071   3.463
16184TIP3   OH248428   9.199   7.057   5.445
16184TIP3    H148429   9.269   6.994   5.425
16184TIP3    H248430   9.225   7.087   5.535
16185TIP3   OH248431   9.265   6.873   3.877
16185TIP3    H148432   9.241   6.833   3.962
16185TIP3    H248433   9.300   6.796   3.827
16186TIP3   OH248434   9.540   6.933   5.086
16186TIP3    H148435   9.454   6.977   5.110
16186TIP3    H248436   9.570   6.996   5.017
16187TIP3   OH248437   9.367   6.666   3.717
16187TIP3    H148438   9.339   6.670   3.623
16187TIP3    H248439   9.464   6.677   3.707
16188TIP3   OH248440  10.043   7.338   5.244
16188TIP3    H148441  10.122   7.320   5.193
16188TIP3    H248442  10.046   7.270   5.314
16189TIP3   OH248443   9.662   6.726   5.218
16189TIP3    H148444   9.607   6.647   5.224
16189TIP3    H248445   9.603   6.793   5.179
16190TIP3   OH248446   9.696   7.029   4.887
16190TIP3    H148447   9.781   7.053   4.843
16190TIP3    H248448   9.639   7.103   4.855
16191TIP3   OH248449  10.283   7.020   5.300
16191TIP3    H148450  10.311   6.927   5.291
16191TIP3    H248451  10.365   7.067   5.280
16192TIP3   OH248452   9.537   6.841   5.462
16192TIP3    H148453   9.468   6.772   5.478
16192TIP3    H248454   9.572   6.817   5.376
16193TIP3   OH248455   9.785   6.281   5.100
16193TIP3    H148456   9.722   6.343   5.061
16193TIP3    H248457   9.730   6.199   5.095
16194TIP3   OH248458   9.923   6.782   5.321
16194TIP3    H148459   9.907   6.769   5.417
16194TIP3    H248460   9.836   6.754   5.286
16195TIP3   OH248461  10.164   6.717   5.178
16195TIP3    H148462  10.082   6.728   5.229
16195TIP3    H248463  10.228   6.694   5.248
16196TIP3   OH248464  10.371   6.664   5.355
16196TIP3    H148465  10.418   6.587   5.389
16196TIP3    H248466  10.375   6.724   5.433
16197TIP3   OH248467   9.382   6.620   5.511
16197TIP3    H148468   9.379   6.527   5.479
16197TIP3    H248469   9.415   6.605   5.602
16198TIP3   OH248470   9.894   6.292   5.357
16198TIP3    H148471   9.958   6.218   5.352
16198TIP3    H248472   9.847   6.282   5.272
16199TIP3   OH248473   9.959   6.506   5.517
16199TIP3    H148474   9.935   6.433   5.456
16199TIP3    H248475   9.878   6.561   5.515
16200TIP3   OH248476   9.172   7.727   3.624
16200TIP3    H148477   9.269   7.723   3.612
16200TIP3    H248478   9.148   7.775   3.543
16201TIP3   OH248479   8.655   7.113   3.836
16201TIP3    H148480   8.750   7.135   3.824
16201TIP3    H248481   8.651   7.024   3.796
16202TIP3   OH248482   8.570   7.720   4.263
16202TIP3    H148483   8.505   7.656   4.225
16202TIP3    H248484   8.618   7.664   4.326
16203TIP3   OH248485   8.745   7.620   4.488
16203TIP3    H148486   8.723   7.524   4.476
16203TIP3    H248487   8.683   7.637   4.562
16204TIP3   OH248488   8.894   6.979   4.814
16204TIP3    H148489   8.890   6.953   4.720
16204TIP3    H248490   8.991   6.983   4.828
16205TIP3   OH248491   9.111   6.671   5.499
16205TIP3    H148492   9.207   6.656   5.490
16205TIP3    H248493   9.082   6.589   5.541
16206TIP3   OH248494   9.071   6.362   4.816
16206TIP3    H148495   9.130   6.285   4.824
16206TIP3    H248496   9.135   6.435   4.815
16207TIP3   OH248497   8.873   6.637   4.887
16207TIP3    H148498   8.922   6.629   4.803
16207TIP3    H248499   8.902   6.724   4.917
16208TIP3   OH248500   8.856   6.136   4.389
16208TIP3    H148501   8.763   6.137   4.416
16208TIP3    H248502   8.856   6.196   4.311
16209TIP3   OH248503   9.088   6.231   5.197
16209TIP3    H148504   9.034   6.217   5.278
16209TIP3    H248505   9.018   6.258   5.136
16210TIP3   OH248506   9.117   7.649   5.283
16210TIP3    H148507   9.027   7.618   5.263
16210TIP3    H248508   9.127   7.626   5.376
16211TIP3   OH248509   9.300   7.681   4.833
16211TIP3    H148510   9.252   7.754   4.790
16211TIP3    H248511   9.386   7.693   4.787
16212TIP3   OH248512   9.744   7.922   4.971
16212TIP3    H148513   9.785   7.930   5.059
16212TIP3    H248514   9.807   7.975   4.917
16213TIP3   OH248515   9.920   8.072   4.824
16213TIP3    H148516   9.952   8.011   4.755
16213TIP3    H248517  10.001   8.125   4.838
16214TIP3   OH248518   8.969   7.952   4.836
16214TIP3    H148519   8.876   7.982   4.828
16214TIP3    H248520   8.983   7.956   4.931
16215TIP3   OH248521   9.202   7.907   4.705
16215TIP3    H148522   9.119   7.930   4.751
16215TIP3    H248523   9.186   7.944   4.616
16216TIP3   OH248524   9.632   7.933   4.510
16216TIP3    H148525   9.572   7.958   4.437
16216TIP3    H248526   9.650   8.021   4.552
16217TIP3   OH248527   9.907   7.896   4.574
16217TIP3    H148528   9.814   7.897   4.546
16217TIP3    H248529   9.946   7.963   4.515
16218TIP3   OH248530   9.334   7.705   4.460
16218TIP3    H148531   9.355   7.613   4.438
16218TIP3    H248532   9.387   7.716   4.542
16219TIP3   OH248533   9.905   6.320   4.513
16219TIP3    H148534   9.871   6.250   4.572
16219TIP3    H248535   9.983   6.276   4.471
16220TIP3   OH248536   9.169   6.066   4.556
16220TIP3    H148537   9.078   6.030   4.557
16220TIP3    H248538   9.220   5.984   4.575
16221TIP3   OH248539   8.933   5.936   4.198
16221TIP3    H148540   8.980   5.991   4.134
16221TIP3    H248541   8.920   5.998   4.272
16222TIP3   OH248542   9.601   6.102   4.438
16222TIP3    H148543   9.664   6.141   4.375
16222TIP3    H248544   9.640   6.125   4.523
16223TIP3   OH248545   8.667   7.499   3.990
16223TIP3    H148546   8.584   7.465   3.951
16223TIP3    H248547   8.659   7.593   3.966
16224TIP3   OH248548   9.072   6.094   3.969
16224TIP3    H148549   9.122   6.029   3.917
16224TIP3    H248550   9.145   6.147   4.008
16225TIP3   OH248551   9.586   6.264   4.068
16225TIP3    H148552   9.646   6.218   4.131
16225TIP3    H248553   9.605   6.356   4.095
16226TIP3   OH248554   9.433   7.686   3.565
16226TIP3    H148555   9.525   7.714   3.547
16226TIP3    H248556   9.424   7.613   3.501
16227TIP3   OH248557   9.374   6.353   5.455
16227TIP3    H148558   9.333   6.277   5.501
16227TIP3    H248559   9.467   6.341   5.483
16228TIP3   OH248560   9.627   6.338   5.575
16228TIP3    H148561   9.708   6.302   5.537
16228TIP3    H248562   9.605   6.268   5.640
16229TIP3   OH248563   8.746   7.523   3.629
16229TIP3    H148564   8.755   7.550   3.721
16229TIP3    H248565   8.835   7.482   3.611
16230TIP3   OH248566   1.329   7.146   6.760
16230TIP3    H148567   1.356   7.229   6.803
16230TIP3    H248568   1.344   7.168   6.666
16231TIP3   OH248569   0.803   7.322   6.787
16231TIP3    H148570   0.828   7.229   6.805
16231TIP3    H248571   0.768   7.313   6.697
16232TIP3   OH248572   0.754   7.074   6.389
16232TIP3    H148573   0.831   7.059   6.449
16232TIP3    H248574   0.800   7.110   6.311
16233TIP3   OH248575   1.403   7.351   6.931
16233TIP3    H148576   1.320   7.399   6.910
16233TIP3    H248577   1.421   7.385   7.020
16234TIP3   OH248578   0.971   7.076   6.556
16234TIP3    H148579   0.942   7.045   6.643
16234TIP3    H248580   1.024   7.155   6.578
16235TIP3   OH248581   1.129   7.040   6.929
16235TIP3    H148582   1.043   7.081   6.915
16235TIP3    H248583   1.181   7.075   6.853
16236TIP3   OH248584   1.073   8.065   6.914
16236TIP3    H148585   1.034   7.984   6.877
16236TIP3    H248586   1.042   8.131   6.850
16237TIP3   OH248587   1.265   7.686   6.749
16237TIP3    H148588   1.181   7.737   6.760
16237TIP3    H248589   1.290   7.714   6.659
16238TIP3   OH248590   0.700   7.535   6.126
16238TIP3    H148591   0.639   7.567   6.197
16238TIP3    H248592   0.779   7.509   6.178
16239TIP3   OH248593   0.953   7.592   7.026
16239TIP3    H148594   0.932   7.659   7.093
16239TIP3    H248595   0.870   7.590   6.976
16240TIP3   OH248596   0.602   7.351   5.946
16240TIP3    H148597   0.621   7.417   6.015
16240TIP3    H248598   0.551   7.406   5.885
16241TIP3   OH248599   1.050   6.632   6.010
16241TIP3    H148600   0.969   6.653   6.062
16241TIP3    H248601   1.063   6.716   5.961
16242TIP3   OH248602   0.849   8.000   5.553
16242TIP3    H148603   0.860   8.097   5.548
16242TIP3    H248604   0.942   7.970   5.541
16243TIP3   OH248605   1.306   8.395   6.946
16243TIP3    H148606   1.306   8.299   6.963
16243TIP3    H248607   1.213   8.418   6.971
16244TIP3   OH248608   1.184   7.535   7.222
16244TIP3    H148609   1.103   7.546   7.171
16244TIP3    H248610   1.195   7.438   7.220
16245TIP3   OH248611   0.726   6.874   7.231
16245TIP3    H148612   0.797   6.839   7.290
16245TIP3    H248613   0.647   6.857   7.284
16246TIP3   OH248614   0.978   7.319   7.126
16246TIP3    H148615   0.938   7.313   7.216
16246TIP3    H248616   0.923   7.391   7.089
16247TIP3   OH248617   0.593   7.464   5.680
16247TIP3    H148618   0.588   7.406   5.602
16247TIP3    H248619   0.687   7.487   5.683
16248TIP3   OH248620   0.654   7.285   6.546
16248TIP3    H148621   0.577   7.313   6.493
16248TIP3    H248622   0.677   7.202   6.498
16249TIP3   OH248623   0.828   7.048   6.805
16249TIP3    H148624   0.825   7.052   6.904
16249TIP3    H248625   0.751   6.991   6.788
16250TIP3   OH248626   1.037   7.828   6.751
16250TIP3    H148627   1.055   7.881   6.670
16250TIP3    H248628   0.947   7.793   6.734
16251TIP3   OH248629   0.526   6.927   5.965
16251TIP3    H148630   0.452   6.983   5.995
16251TIP3    H248631   0.599   6.990   5.986
16252TIP3   OH248632   0.686   7.119   6.052
16252TIP3    H148633   0.766   7.155   6.094
16252TIP3    H248634   0.643   7.202   6.020
16253TIP3   OH248635   1.090   7.252   5.913
16253TIP3    H148636   1.027   7.207   5.852
16253TIP3    H248637   1.083   7.342   5.875
16254TIP3   OH248638   1.319   8.116   6.995
16254TIP3    H148639   1.221   8.108   6.988
16254TIP3    H248640   1.344   8.083   6.906
16255TIP3   OH248641   0.784   8.080   5.823
16255TIP3    H148642   0.767   8.020   5.897
16255TIP3    H248643   0.800   8.020   5.749
16256TIP3   OH248644   0.799   7.691   6.686
16256TIP3    H148645   0.705   7.683   6.669
16256TIP3    H248646   0.834   7.622   6.626
16257TIP3   OH248647   0.880   8.280   5.544
16257TIP3    H148648   0.931   8.352   5.503
16257TIP3    H248649   0.791   8.315   5.533
16258TIP3   OH248650   0.691   7.723   5.911
16258TIP3    H148651   0.676   7.666   5.988
16258TIP3    H248652   0.788   7.731   5.915
16259TIP3   OH248653   0.827   7.079   7.069
16259TIP3    H148654   0.862   7.159   7.113
16259TIP3    H248655   0.802   7.021   7.144
16260TIP3   OH248656   0.634   6.860   6.240
16260TIP3    H148657   0.600   6.908   6.163
16260TIP3    H248658   0.657   6.934   6.300
16261TIP3   OH248659   1.234   7.256   7.147
16261TIP3    H148660   1.136   7.267   7.144
16261TIP3    H248661   1.251   7.227   7.057
16262TIP3   OH248662   0.873   7.465   6.530
16262TIP3    H148663   0.796   7.406   6.535
16262TIP3    H248664   0.941   7.416   6.581
16263TIP3   OH248665   0.887   8.381   6.508
16263TIP3    H148666   0.832   8.374   6.428
16263TIP3    H248667   0.963   8.433   6.473
16264TIP3   OH248668   0.850   7.534   5.580
16264TIP3    H148669   0.828   7.484   5.499
16264TIP3    H248670   0.821   7.623   5.553
16265TIP3   OH248671   0.946   7.546   7.483
16265TIP3    H148672   0.998   7.468   7.502
16265TIP3    H248673   1.012   7.617   7.484
16266TIP3   OH248674   0.974   7.804   7.219
16266TIP3    H148675   0.916   7.851   7.158
16266TIP3    H248676   1.063   7.820   7.178
16267TIP3   OH248677   0.865   7.280   7.362
16267TIP3    H148678   0.783   7.260   7.408
16267TIP3    H248679   0.933   7.251   7.427
16268TIP3   OH248680   1.042   7.196   7.547
16268TIP3    H148681   1.061   7.101   7.565
16268TIP3    H248682   1.036   7.237   7.636
16269TIP3   OH248683   1.105   8.524   6.434
16269TIP3    H148684   1.125   8.564   6.521
16269TIP3    H248685   1.166   8.571   6.376
16270TIP3   OH248686   1.121   8.536   6.717
16270TIP3    H148687   1.082   8.447   6.706
16270TIP3    H248688   1.190   8.515   6.782
16271TIP3   OH248689   1.158   8.214   7.284
16271TIP3    H148690   1.111   8.206   7.367
16271TIP3    H248691   1.207   8.298   7.295
16272TIP3   OH248692   0.984   7.718   5.913
16272TIP3    H148693   1.056   7.781   5.891
16272TIP3    H248694   1.020   7.677   5.995
16273TIP3   OH248695   1.110   7.584   6.117
16273TIP3    H148696   1.043   7.540   6.175
16273TIP3    H248697   1.171   7.624   6.183
16274TIP3   OH248698   1.158   7.976   6.551
16274TIP3    H148699   1.212   7.911   6.502
16274TIP3    H248700   1.156   8.052   6.488
16275TIP3   OH248701   0.984   8.268   6.736
16275TIP3    H148702   0.912   8.315   6.778
16275TIP3    H248703   0.958   8.276   6.642
16276TIP3   OH248704   1.048   7.491   5.767
16276TIP3    H148705   0.975   7.496   5.701
16276TIP3    H248706   1.023   7.567   5.824
16277TIP3   OH248707   0.928   7.161   5.713
16277TIP3    H148708   0.873   7.204   5.647
16277TIP3    H248709   0.897   7.069   5.706
16278TIP3   OH248710   0.930   7.439   6.263
16278TIP3    H148711   0.933   7.342   6.259
16278TIP3    H248712   0.916   7.456   6.359
16279TIP3   OH248713   1.217   7.867   7.121
16279TIP3    H148714   1.288   7.800   7.113
16279TIP3    H248715   1.240   7.930   7.051
16280TIP3   OH248716   1.400   7.673   7.141
16280TIP3    H148717   1.324   7.621   7.175
16280TIP3    H248718   1.472   7.608   7.156
16281TIP3   OH248719   0.864   6.895   5.706
16281TIP3    H148720   0.941   6.871   5.761
16281TIP3    H248721   0.793   6.838   5.738
16282TIP3   OH248722   0.931   7.163   6.176
16282TIP3    H148723   0.971   7.073   6.187
16282TIP3    H248724   0.982   7.194   6.099
16283TIP3   OH248725   1.083   7.326   6.651
16283TIP3    H148726   1.170   7.356   6.615
16283TIP3    H248727   1.090   7.364   6.741
16284TIP3   OH248728   1.158   7.470   6.884
16284TIP3    H148729   1.081   7.506   6.934
16284TIP3    H248730   1.190   7.550   6.838
16285TIP3   OH248731   1.604   7.060   7.448
16285TIP3    H148732   1.661   6.997   7.399
16285TIP3    H248733   1.574   7.119   7.375
16286TIP3   OH248734   1.033   6.906   6.197
16286TIP3    H148735   1.077   6.890   6.283
16286TIP3    H248736   0.969   6.832   6.195
16287TIP3   OH248737   1.479   7.203   7.258
16287TIP3    H148738   1.391   7.245   7.271
16287TIP3    H248739   1.453   7.134   7.194
16288TIP3   OH248740   1.109   6.843   5.831
16288TIP3    H148741   1.151   6.771   5.780
16288TIP3    H248742   1.175   6.914   5.826
16289TIP3   OH248743   1.373   6.968   7.129
16289TIP3    H148744   1.282   6.969   7.093
16289TIP3    H248745   1.399   6.874   7.113
16290TIP3   OH248746   0.623   6.857   6.769
16290TIP3    H148747   0.605   6.775   6.816
16290TIP3    H248748   0.696   6.829   6.710
16291TIP3   OH248749   1.103   6.760   6.651
16291TIP3    H148750   1.139   6.815   6.578
16291TIP3    H248751   1.008   6.785   6.648
16292TIP3   OH248752   1.196   6.862   6.416
16292TIP3    H148753   1.270   6.813   6.374
16292TIP3    H248754   1.227   6.955   6.402
16293TIP3   OH248755   0.827   6.763   6.619
16293TIP3    H148756   0.828   6.730   6.528
16293TIP3    H248757   0.811   6.680   6.671
16294TIP3   OH248758   0.848   6.695   6.188
16294TIP3    H148759   0.765   6.745   6.204
16294TIP3    H248760   0.828   6.610   6.234
16295TIP3   OH248761   0.820   8.348   5.851
16295TIP3    H148762   0.815   8.251   5.865
16295TIP3    H248763   0.773   8.354   5.767
16296TIP3   OH248764   1.108   6.930   7.564
16296TIP3    H148765   1.130   6.898   7.654
16296TIP3    H248766   1.195   6.926   7.519
16297TIP3   OH248767   1.054   8.478   7.001
16297TIP3    H148768   0.975   8.428   7.022
16297TIP3    H248769   1.043   8.554   7.060
16298TIP3   OH248770   2.313   7.856   5.817
16298TIP3    H148771   2.286   7.949   5.801
16298TIP3    H248772   2.232   7.809   5.791
16299TIP3   OH248773   2.313   7.851   6.210
16299TIP3    H148774   2.351   7.813   6.291
16299TIP3    H248775   2.270   7.773   6.171
16300TIP3   OH248776   1.610   7.751   6.566
16300TIP3    H148777   1.640   7.684   6.630
16300TIP3    H248778   1.688   7.808   6.560
16301TIP3   OH248779   2.554   8.157   5.884
16301TIP3    H148780   2.542   8.088   5.951
16301TIP3    H248781   2.581   8.233   5.938
16302TIP3   OH248782   1.582   8.161   6.292
16302TIP3    H148783   1.571   8.064   6.294
16302TIP3    H248784   1.679   8.168   6.289
16303TIP3   OH248785   1.289   7.366   6.077
16303TIP3    H148786   1.240   7.449   6.093
16303TIP3    H248787   1.218   7.311   6.040
16304TIP3   OH248788   1.348   7.653   6.249
16304TIP3    H148789   1.397   7.576   6.287
16304TIP3    H248790   1.407   7.682   6.179
16305TIP3   OH248791   2.203   8.620   5.897
16305TIP3    H148792   2.251   8.547   5.852
16305TIP3    H248793   2.195   8.586   5.987
16306TIP3   OH248794   2.111   8.082   6.249
16306TIP3    H148795   2.151   8.002   6.209
16306TIP3    H248796   2.194   8.128   6.274
16307TIP3   OH248797   3.126   7.403   6.248
16307TIP3    H148798   3.150   7.485   6.295
16307TIP3    H248799   3.136   7.431   6.156
16308TIP3   OH248800   2.537   7.587   6.256
16308TIP3    H148801   2.565   7.507   6.302
16308TIP3    H248802   2.492   7.552   6.177
16309TIP3   OH248803   1.859   7.243   6.247
16309TIP3    H148804   1.838   7.316   6.186
16309TIP3    H248805   1.810   7.170   6.203
16310TIP3   OH248806   2.555   7.329   5.870
16310TIP3    H148807   2.626   7.316   5.936
16310TIP3    H248808   2.606   7.370   5.798
16311TIP3   OH248809   1.493   7.445   6.355
16311TIP3    H148810   1.576   7.425   6.402
16311TIP3    H248811   1.505   7.389   6.275
16312TIP3   OH248812   1.935   7.643   6.144
16312TIP3    H148813   2.028   7.616   6.159
16312TIP3    H248814   1.895   7.558   6.114
16313TIP3   OH248815   3.193   7.610   6.418
16313TIP3    H148816   3.109   7.658   6.400
16313TIP3    H248817   3.208   7.636   6.510
16314TIP3   OH248818   1.855   7.224   6.682
16314TIP3    H148819   1.796   7.263   6.614
16314TIP3    H248820   1.803   7.244   6.762
16315TIP3   OH248821   2.211   8.083   5.683
16315TIP3    H148822   2.158   8.056   5.607
16315TIP3    H248823   2.163   8.165   5.710
16316TIP3   OH248824   1.963   7.999   6.478
16316TIP3    H148825   1.901   8.064   6.516
16316TIP3    H248826   2.008   8.052   6.409
16317TIP3   OH248827   2.766   7.332   6.045
16317TIP3    H148828   2.737   7.299   6.131
16317TIP3    H248829   2.814   7.413   6.071
16318TIP3   OH248830   1.727   7.341   6.466
16318TIP3    H148831   1.787   7.415   6.489
16318TIP3    H248832   1.777   7.300   6.392
16319TIP3   OH248833   1.789   8.195   6.574
16319TIP3    H148834   1.764   8.282   6.536
16319TIP3    H248835   1.711   8.180   6.632
16320TIP3   OH248836   1.191   7.887   5.812
16320TIP3    H148837   1.145   7.915   5.731
16320TIP3    H248838   1.220   7.973   5.849
16321TIP3   OH248839   2.622   8.399   6.046
16321TIP3    H148840   2.534   8.391   6.088
16321TIP3    H248841   2.615   8.488   6.006
16322TIP3   OH248842   2.917   7.298   6.412
16322TIP3    H148843   2.828   7.330   6.389
16322TIP3    H248844   2.972   7.333   6.339
16323TIP3   OH248845   2.213   6.946   6.395
16323TIP3    H148846   2.199   6.851   6.413
16323TIP3    H248847   2.136   6.985   6.442
16324TIP3   OH248848   2.328   8.446   5.724
16324TIP3    H148849   2.380   8.365   5.705
16324TIP3    H248850   2.386   8.513   5.682
16325TIP3   OH248851   2.474   8.230   5.628
16325TIP3    H148852   2.414   8.157   5.607
16325TIP3    H248853   2.510   8.199   5.714
16326TIP3   OH248854   2.853   8.316   6.394
16326TIP3    H148855   2.841   8.237   6.337
16326TIP3    H248856   2.837   8.389   6.330
16327TIP3   OH248857   2.139   7.705   5.649
16327TIP3    H148858   2.058   7.757   5.630
16327TIP3    H248859   2.186   7.708   5.564
16328TIP3   OH248860   2.100   7.494   5.366
16328TIP3    H148861   2.167   7.541   5.419
16328TIP3    H248862   2.157   7.430   5.319
16329TIP3   OH248863   3.047   7.949   6.236
16329TIP3    H148864   2.964   8.002   6.245
16329TIP3    H248865   3.075   7.976   6.147
16330TIP3   OH248866   2.490   7.790   5.623
16330TIP3    H148867   2.434   7.815   5.700
16330TIP3    H248868   2.573   7.764   5.669
16331TIP3   OH248869   1.723   7.788   6.038
16331TIP3    H148870   1.683   7.729   5.971
16331TIP3    H248871   1.800   7.735   6.068
16332TIP3   OH248872   1.853   8.201   6.187
16332TIP3    H148873   1.833   8.154   6.105
16332TIP3    H248874   1.943   8.168   6.207
16333TIP3   OH248875   1.858   7.760   6.393
16333TIP3    H148876   1.894   7.741   6.304
16333TIP3    H248877   1.903   7.844   6.416
16334TIP3   OH248878   2.383   8.396   6.171
16334TIP3    H148879   2.371   8.474   6.228
16334TIP3    H248880   2.372   8.321   6.233
16335TIP3   OH248881   1.995   8.318   6.717
16335TIP3    H148882   1.935   8.380   6.763
16335TIP3    H248883   1.930   8.263   6.668
16336TIP3   OH248884   2.333   7.646   5.450
16336TIP3    H148885   2.391   7.707   5.503
16336TIP3    H248886   2.358   7.672   5.358
16337TIP3   OH248887   1.749   7.873   6.817
16337TIP3    H148888   1.755   7.959   6.863
16337TIP3    H248889   1.654   7.853   6.828
16338TIP3   OH248890   2.074   8.326   5.721
16338TIP3    H148891   2.150   8.382   5.744
16338TIP3    H248892   2.010   8.390   5.686
16339TIP3   OH248893   1.791   8.487   6.803
16339TIP3    H148894   1.756   8.483   6.712
16339TIP3    H248895   1.711   8.465   6.857
16340TIP3   OH248896   2.845   6.888   5.497
16340TIP3    H148897   2.764   6.907   5.549
16340TIP3    H248898   2.857   6.973   5.450
16341TIP3   OH248899   1.590   7.630   5.840
16341TIP3    H148900   1.523   7.676   5.786
16341TIP3    H248901   1.545   7.547   5.860
16342TIP3   OH248902   2.642   8.258   5.040
16342TIP3    H148903   2.650   8.355   5.030
16342TIP3    H248904   2.736   8.230   5.029
16343TIP3   OH248905   1.372   8.016   6.749
16343TIP3    H148906   1.302   7.993   6.683
16343TIP3    H248907   1.406   7.928   6.775
16344TIP3   OH248908   1.227   8.207   6.393
16344TIP3    H148909   1.321   8.202   6.375
16344TIP3    H248910   1.220   8.292   6.439
16345TIP3   OH248911   3.093   8.661   6.451
16345TIP3    H148912   3.088   8.564   6.455
16345TIP3    H248913   3.006   8.685   6.488
16346TIP3   OH248914   2.192   8.449   6.574
16346TIP3    H148915   2.191   8.541   6.609
16346TIP3    H248916   2.122   8.407   6.628
16347TIP3   OH248917   1.956   8.576   5.525
16347TIP3    H148918   1.907   8.557   5.442
16347TIP3    H248919   1.922   8.664   5.550
16348TIP3   OH248920   1.393   8.423   5.909
16348TIP3    H148921   1.441   8.413   5.995
16348TIP3    H248922   1.334   8.346   5.913
16349TIP3   OH248923   2.155   8.468   5.174
16349TIP3    H148924   2.216   8.401   5.135
16349TIP3    H248925   2.190   8.477   5.265
16350TIP3   OH248926   2.208   8.521   5.441
16350TIP3    H148927   2.118   8.533   5.478
16350TIP3    H248928   2.253   8.481   5.517
16351TIP3   OH248929   2.981   7.793   6.715
16351TIP3    H148930   2.890   7.810   6.688
16351TIP3    H248931   2.986   7.696   6.706
16352TIP3   OH248932   1.575   8.200   6.742
16352TIP3    H148933   1.625   8.179   6.824
16352TIP3    H248934   1.501   8.135   6.747
16353TIP3   OH248935   1.974   7.021   6.524
16353TIP3    H148936   1.884   6.991   6.499
16353TIP3    H248937   1.951   7.104   6.569
16354TIP3   OH248938   2.505   7.130   6.720
16354TIP3    H148939   2.573   7.112   6.787
16354TIP3    H248940   2.421   7.115   6.768
16355TIP3   OH248941   2.749   7.601   6.640
16355TIP3    H148942   2.703   7.568   6.720
16355TIP3    H248943   2.677   7.659   6.605
16356TIP3   OH248944   2.406   7.692   5.192
16356TIP3    H148945   2.374   7.668   5.103
16356TIP3    H248946   2.483   7.747   5.170
16357TIP3   OH248947   2.121   7.069   5.495
16357TIP3    H148948   2.088   7.069   5.587
16357TIP3    H248949   2.080   6.987   5.463
16358TIP3   OH248950   1.903   7.536   6.540
16358TIP3    H148951   1.856   7.558   6.623
16358TIP3    H248952   1.888   7.618   6.488
16359TIP3   OH248953   1.789   7.422   6.056
16359TIP3    H148954   1.696   7.396   6.075
16359TIP3    H248955   1.801   7.381   5.968
16360TIP3   OH248956   2.278   7.508   5.780
16360TIP3    H148957   2.224   7.580   5.741
16360TIP3    H248958   2.332   7.479   5.705
16361TIP3   OH248959   2.458   7.817   6.914
16361TIP3    H148960   2.440   7.724   6.938
16361TIP3    H248961   2.498   7.808   6.825
16362TIP3   OH248962   2.424   7.528   6.018
16362TIP3    H148963   2.369   7.561   5.944
16362TIP3    H248964   2.463   7.450   5.974
16363TIP3   OH248965   1.723   7.566   6.752
16363TIP3    H148966   1.755   7.629   6.818
16363TIP3    H248967   1.712   7.485   6.804
16364TIP3   OH248968   1.775   7.043   5.461
16364TIP3    H148969   1.766   7.040   5.559
16364TIP3    H248970   1.696   7.096   5.437
16365TIP3   OH248971   1.318   7.087   6.331
16365TIP3    H148972   1.392   7.120   6.387
16365TIP3    H248973   1.362   7.056   6.251
16366TIP3   OH248974   1.291   7.069   5.850
16366TIP3    H148975   1.335   7.110   5.772
16366TIP3    H248976   1.229   7.141   5.873
16367TIP3   OH248977   2.114   7.240   6.117
16367TIP3    H148978   2.032   7.242   6.171
16367TIP3    H248979   2.182   7.250   6.185
16368TIP3   OH248980   1.551   7.302   6.125
16368TIP3    H148981   1.456   7.310   6.100
16368TIP3    H248982   1.572   7.210   6.102
16369TIP3   OH248983   1.821   7.294   5.814
16369TIP3    H148984   1.914   7.314   5.793
16369TIP3    H248985   1.773   7.320   5.732
16370TIP3   OH248986   2.615   7.311   6.306
16370TIP3    H148987   2.590   7.327   6.401
16370TIP3    H248988   2.539   7.258   6.278
16371TIP3   OH248989   1.662   7.329   5.594
16371TIP3    H148990   1.588   7.286   5.547
16371TIP3    H248991   1.713   7.365   5.518
16372TIP3   OH248992   2.778   9.011   6.538
16372TIP3    H148993   2.778   9.030   6.443
16372TIP3    H248994   2.860   9.056   6.567
16373TIP3   OH248995   1.734   8.120   6.961
16373TIP3    H148996   1.815   8.150   7.007
16373TIP3    H248997   1.672   8.117   7.036
16374TIP3   OH248998   2.199   7.569   6.209
16374TIP3    H148999   2.277   7.538   6.160
16374TIP3    H249000   2.216   7.536   6.299
16375TIP3   OH249001   1.722   7.060   6.094
16375TIP3    H149002   1.688   6.981   6.140
16375TIP3    H249003   1.773   7.022   6.022
16376TIP3   OH249004   2.173   7.462   6.510
16376TIP3    H149005   2.084   7.502   6.518
16376TIP3    H249006   2.231   7.530   6.545
16377TIP3   OH249007   1.914   7.860   5.600
16377TIP3    H149008   1.841   7.796   5.589
16377TIP3    H249009   1.895   7.894   5.691
16378TIP3   OH249010   2.816   8.096   6.230
16378TIP3    H149011   2.838   8.146   6.148
16378TIP3    H249012   2.728   8.058   6.208
16379TIP3   OH249013   2.369   7.176   5.454
16379TIP3    H149014   2.274   7.157   5.470
16379TIP3    H249015   2.380   7.268   5.485
16380TIP3   OH249016   2.305   8.179   6.593
16380TIP3    H149017   2.342   8.147   6.676
16380TIP3    H249018   2.272   8.268   6.614
16381TIP3   OH249019   2.441   7.417   5.563
16381TIP3    H149020   2.536   7.426   5.583
16381TIP3    H249021   2.422   7.499   5.514
16382TIP3   OH249022   1.605   7.883   6.276
16382TIP3    H149023   1.645   7.854   6.191
16382TIP3    H249024   1.646   7.821   6.339
16383TIP3   OH249025   2.057   8.010   5.421
16383TIP3    H149026   2.010   8.097   5.427
16383TIP3    H249027   2.002   7.955   5.481
16384TIP3   OH249028   1.484   7.805   6.890
16384TIP3    H149029   1.505   7.788   6.984
16384TIP3    H249030   1.419   7.736   6.871
16385TIP3   OH249031   2.206   7.921   6.909
16385TIP3    H149032   2.158   7.857   6.852
16385TIP3    H249033   2.299   7.891   6.896
16386TIP3   OH249034   2.471   8.449   6.487
16386TIP3    H149035   2.375   8.439   6.502
16386TIP3    H249036   2.498   8.495   6.569
16387TIP3   OH249037   2.886   7.508   5.399
16387TIP3    H149038   2.822   7.464   5.338
16387TIP3    H249039   2.880   7.598   5.361
16388TIP3   OH249040   3.102   8.367   6.486
16388TIP3    H149041   3.004   8.364   6.478
16388TIP3    H249042   3.126   8.339   6.395
16389TIP3   OH249043   2.592   8.331   5.313
16389TIP3    H149044   2.556   8.269   5.380
16389TIP3    H249045   2.591   8.278   5.232
16390TIP3   OH249046   2.579   7.963   6.138
16390TIP3    H149047   2.490   7.936   6.165
16390TIP3    H249048   2.614   7.880   6.103
16391TIP3   OH249049   1.704   8.184   5.897
16391TIP3    H149050   1.704   8.268   5.846
16391TIP3    H249051   1.610   8.171   5.913
16392TIP3   OH249052   1.270   7.491   5.605
16392TIP3    H149053   1.315   7.575   5.626
16392TIP3    H249054   1.192   7.496   5.665
16393TIP3   OH249055   1.846   7.953   5.845
16393TIP3    H149056   1.809   8.042   5.862
16393TIP3    H249057   1.809   7.903   5.920
16394TIP3   OH249058   1.975   8.529   6.371
16394TIP3    H149059   2.017   8.602   6.320
16394TIP3    H249060   2.052   8.495   6.419
16395TIP3   OH249061   1.626   8.424   5.753
16395TIP3    H149062   1.540   8.432   5.799
16395TIP3    H249063   1.657   8.517   5.757
16396TIP3   OH249064   2.367   8.164   6.328
16396TIP3    H149065   2.351   8.163   6.425
16396TIP3    H249066   2.446   8.108   6.323
16397TIP3   OH249067   2.339   8.055   5.208
16397TIP3    H149068   2.391   8.029   5.288
16397TIP3    H249069   2.250   8.032   5.237
16398TIP3   OH249070   2.612   8.700   6.383
16398TIP3    H149071   2.536   8.638   6.377
16398TIP3    H249072   2.594   8.761   6.308
16399TIP3   OH249073   2.674   8.538   5.021
16399TIP3    H149074   2.670   8.592   4.939
16399TIP3    H249075   2.601   8.582   5.070
16400TIP3   OH249076   1.697   7.308   6.897
16400TIP3    H149077   1.601   7.315   6.911
16400TIP3    H249078   1.725   7.251   6.971
16401TIP3   OH249079   2.498   7.983   5.421
16401TIP3    H149080   2.487   7.924   5.498
16401TIP3    H249081   2.595   7.987   5.416
16402TIP3   OH249082   1.416   8.395   6.529
16402TIP3    H149083   1.463   8.316   6.559
16402TIP3    H249084   1.449   8.461   6.591
16403TIP3   OH249085   1.706   8.036   5.210
16403TIP3    H149086   1.718   7.943   5.183
16403TIP3    H249087   1.687   8.026   5.305
16404TIP3   OH249088   1.651   8.042   5.481
16404TIP3    H149089   1.717   8.016   5.546
16404TIP3    H249090   1.653   8.140   5.489
16405TIP3   OH249091   1.386   7.736   5.686
16405TIP3    H149092   1.321   7.780   5.744
16405TIP3    H249093   1.399   7.806   5.619
16406TIP3   OH249094   2.546   7.356   6.562
16406TIP3    H149095   2.564   7.432   6.621
16406TIP3    H249096   2.525   7.286   6.626
16407TIP3   OH249097   2.419   7.123   5.741
16407TIP3    H149098   2.401   7.151   5.649
16407TIP3    H249099   2.457   7.204   5.781
16408TIP3   OH249100   1.915   8.241   5.430
16408TIP3    H149101   1.829   8.267   5.467
16408TIP3    H249102   1.931   8.316   5.371
16409TIP3   OH249103   2.104   7.302   5.845
16409TIP3    H149104   2.168   7.375   5.829
16409TIP3    H249105   2.108   7.295   5.943
16410TIP3   OH249106   2.249   7.030   5.949
16410TIP3    H149107   2.240   7.105   6.011
16410TIP3    H249108   2.309   7.068   5.881
16411TIP3   OH249109   1.658   8.315   5.500
16411TIP3    H149110   1.629   8.384   5.437
16411TIP3    H249111   1.642   8.358   5.586
16412TIP3   OH249112   1.760   7.028   5.737
16412TIP3    H149113   1.756   7.118   5.774
16412TIP3    H249114   1.857   7.011   5.746
16413TIP3   OH249115   3.008   7.518   6.634
16413TIP3    H149116   2.910   7.532   6.642
16413TIP3    H249117   3.012   7.484   6.544
16414TIP3   OH249118   2.666   7.712   6.018
16414TIP3    H149119   2.587   7.665   6.051
16414TIP3    H249120   2.736   7.668   6.072
16415TIP3   OH249121   1.375   7.946   5.493
16415TIP3    H149122   1.438   8.020   5.502
16415TIP3    H249123   1.422   7.893   5.425
16416TIP3   OH249124   1.322   7.221   5.621
16416TIP3    H149125   1.321   7.318   5.621
16416TIP3    H249126   1.233   7.200   5.593
16417TIP3   OH249127   2.633   8.672   5.973
16417TIP3    H149128   2.590   8.718   5.898
16417TIP3    H249129   2.726   8.695   5.955
16418TIP3   OH249130   1.711   6.940   6.499
16418TIP3    H149131   1.677   6.909   6.412
16418TIP3    H249132   1.698   6.862   6.556
16419TIP3   OH249133   1.248   8.158   5.881
16419TIP3    H149134   1.181   8.189   5.944
16419TIP3    H249135   1.218   8.202   5.798
16420TIP3   OH249136   1.403   8.697   6.956
16420TIP3    H149137   1.491   8.697   6.999
16420TIP3    H249138   1.388   8.601   6.948
16421TIP3   OH249139   1.885   8.666   6.996
16421TIP3    H149140   1.980   8.647   7.003
16421TIP3    H249141   1.860   8.607   6.921
16422TIP3   OH249142   1.865   8.241   5.120
16422TIP3    H149143   1.808   8.172   5.161
16422TIP3    H249144   1.941   8.187   5.092
16423TIP3   OH249145   2.522   8.573   6.730
16423TIP3    H149146   2.515   8.501   6.796
16423TIP3    H249147   2.602   8.621   6.760
16424TIP3   OH249148   2.307   8.282   5.039
16424TIP3    H149149   2.346   8.212   5.093
16424TIP3    H249150   2.366   8.288   4.962
16425TIP3   OH249151   1.539   8.108   7.158
16425TIP3    H149152   1.558   8.012   7.159
16425TIP3    H249153   1.454   8.109   7.107
16426TIP3   OH249154   1.512   7.759   5.344
16426TIP3    H149155   1.566   7.726   5.418
16426TIP3    H249156   1.581   7.763   5.273
16427TIP3   OH249157   2.140   8.193   6.925
16427TIP3    H149158   2.103   8.208   6.837
16427TIP3    H249159   2.172   8.100   6.918
16428TIP3   OH249160   2.025   7.956   5.152
16428TIP3    H149161   2.023   7.970   5.249
16428TIP3    H249162   2.019   7.858   5.148
16429TIP3   OH249163   2.636   8.203   6.534
16429TIP3    H149164   2.712   8.249   6.494
16429TIP3    H249165   2.564   8.266   6.515
16430TIP3   OH249166   1.654   7.845   7.133
16430TIP3    H149167   1.724   7.780   7.116
16430TIP3    H249168   1.679   7.874   7.224
16431TIP3   OH249169   1.721   7.662   5.567
16431TIP3    H149170   1.692   7.624   5.652
16431TIP3    H249171   1.754   7.584   5.519
16432TIP3   OH249172   1.985   7.721   6.790
16432TIP3    H149173   1.913   7.787   6.795
16432TIP3    H249174   2.037   7.754   6.713
16433TIP3   OH249175   1.820   7.454   5.407
16433TIP3    H149176   1.793   7.458   5.314
16433TIP3    H249177   1.917   7.463   5.399
16434TIP3   OH249178   2.510   8.130   6.925
16434TIP3    H149179   2.581   8.100   6.867
16434TIP3    H249180   2.496   8.051   6.980
16435TIP3   OH249181   2.646   7.788   5.067
16435TIP3    H149182   2.619   7.740   4.986
16435TIP3    H249183   2.612   7.878   5.044
16436TIP3   OH249184   2.109   7.512   6.921
16436TIP3    H149185   2.111   7.433   6.864
16436TIP3    H249186   2.068   7.579   6.863
16437TIP3   OH249187   2.114   7.296   6.729
16437TIP3    H149188   2.142   7.342   6.647
16437TIP3    H249189   2.020   7.276   6.710
16438TIP3   OH249190   2.152   7.819   6.600
16438TIP3    H149191   2.247   7.830   6.584
16438TIP3    H249192   2.112   7.894   6.552
16439TIP3   OH249193   2.759   7.812   7.014
16439TIP3    H149194   2.777   7.724   6.980
16439TIP3    H249195   2.791   7.869   6.943
16440TIP3   OH249196   2.768   8.061   6.735
16440TIP3    H149197   2.702   8.084   6.667
16440TIP3    H249198   2.850   8.078   6.684
16441TIP3   OH249199   1.995   7.626   7.152
16441TIP3    H149200   1.921   7.563   7.167
16441TIP3    H249201   2.027   7.597   7.064
16442TIP3   OH249202   2.245   7.063   6.798
16442TIP3    H149203   2.199   7.147   6.774
16442TIP3    H249204   2.174   6.997   6.784
16443TIP3   OH249205   2.378   7.564   7.002
16443TIP3    H149206   2.368   7.560   7.099
16443TIP3    H249207   2.287   7.541   6.974
16444TIP3   OH249208   2.620   7.505   6.861
16444TIP3    H149209   2.539   7.519   6.913
16444TIP3    H249210   2.686   7.483   6.929
16445TIP3   OH249211   2.855   7.461   7.025
16445TIP3    H149212   2.858   7.365   7.043
16445TIP3    H249213   2.843   7.500   7.114
16446TIP3   OH249214   1.827   7.407   7.203
16446TIP3    H149215   1.838   7.316   7.169
16446TIP3    H249216   1.861   7.397   7.294
16447TIP3   OH249217   2.340   7.071   7.054
16447TIP3    H149218   2.409   7.003   7.046
16447TIP3    H249219   2.300   7.068   6.965
16448TIP3   OH249220   2.404   7.286   7.214
16448TIP3    H149221   2.382   7.218   7.147
16448TIP3    H249222   2.329   7.349   7.206
16449TIP3   OH249223   1.627   8.515   5.311
16449TIP3    H149224   1.723   8.514   5.292
16449TIP3    H249225   1.596   8.566   5.234
16450TIP3   OH249226   1.107   7.901   5.525
16450TIP3    H149227   1.202   7.923   5.516
16450TIP3    H249228   1.104   7.811   5.485
16451TIP3   OH249229   1.029   8.509   5.935
16451TIP3    H149230   0.957   8.451   5.902
16451TIP3    H249231   1.069   8.452   6.004
16452TIP3   OH249232   1.159   8.363   6.127
16452TIP3    H149233   1.131   8.292   6.188
16452TIP3    H249234   1.208   8.421   6.187
16453TIP3   OH249235   2.880   8.775   5.925
16453TIP3    H149236   2.914   8.790   6.016
16453TIP3    H249237   2.955   8.806   5.873
16454TIP3   OH249238   2.912   8.787   6.209
16454TIP3    H149239   2.874   8.697   6.215
16454TIP3    H249240   3.007   8.766   6.221
16455TIP3   OH249241   2.963   8.461   6.784
16455TIP3    H149242   2.889   8.467   6.847
16455TIP3    H249243   3.002   8.550   6.789
16456TIP3   OH249244   2.780   7.972   5.403
16456TIP3    H149245   2.849   8.036   5.379
16456TIP3    H249246   2.819   7.932   5.484
16457TIP3   OH249247   2.905   7.839   5.606
16457TIP3    H149248   2.839   7.797   5.666
16457TIP3    H249249   2.969   7.878   5.668
16458TIP3   OH249250   2.957   8.233   6.035
16458TIP3    H149251   3.014   8.173   5.985
16458TIP3    H249252   2.949   8.310   5.976
16459TIP3   OH249253   2.789   8.533   6.233
16459TIP3    H149254   2.719   8.573   6.287
16459TIP3    H249255   2.737   8.484   6.165
16460TIP3   OH249256   2.844   7.748   5.253
16460TIP3    H149257   2.771   7.753   5.187
16460TIP3    H249258   2.818   7.823   5.310
16461TIP3   OH249259   2.718   7.419   5.204
16461TIP3    H149260   2.667   7.460   5.134
16461TIP3    H249261   2.692   7.325   5.194
16462TIP3   OH249262   2.720   7.696   5.752
16462TIP3    H149263   2.726   7.599   5.750
16462TIP3    H249264   2.704   7.713   5.847
16463TIP3   OH249265   1.345   7.773   6.500
16463TIP3    H149266   1.342   7.742   6.407
16463TIP3    H249267   1.443   7.775   6.516
16464TIP3   OH249268   3.009   8.121   6.610
16464TIP3    H149269   3.081   8.056   6.600
16464TIP3    H249270   3.035   8.192   6.550
16465TIP3   OH249271   3.196   7.927   6.622
16465TIP3    H149272   3.120   7.880   6.663
16465TIP3    H249273   3.267   7.862   6.639
16466TIP3   OH249274   2.659   7.152   5.189
16466TIP3    H149275   2.731   7.125   5.250
16466TIP3    H249276   2.583   7.099   5.218
16467TIP3   OH249277   2.714   7.412   5.648
16467TIP3    H149278   2.755   7.324   5.664
16467TIP3    H249279   2.774   7.447   5.580
16468TIP3   OH249280   2.879   7.582   6.142
16468TIP3    H149281   2.965   7.613   6.105
16468TIP3    H249282   2.886   7.621   6.231
16469TIP3   OH249283   2.942   7.728   6.373
16469TIP3    H149284   2.861   7.753   6.419
16469TIP3    H249285   2.971   7.814   6.334
16470TIP3   OH249286   1.560   7.454   7.170
16470TIP3    H149287   1.658   7.454   7.175
16470TIP3    H249288   1.540   7.372   7.218
16471TIP3   OH249289   3.400   7.324   6.932
16471TIP3    H149290   3.456   7.257   6.886
16471TIP3    H249291   3.368   7.379   6.857
16472TIP3   OH249292   2.827   7.162   5.684
16472TIP3    H149293   2.872   7.148   5.770
16472TIP3    H249294   2.764   7.087   5.684
16473TIP3   OH249295   1.525   7.148   6.503
16473TIP3    H149296   1.589   7.076   6.516
16473TIP3    H249297   1.585   7.225   6.500
16474TIP3   OH249298   1.330   7.421   6.581
16474TIP3    H149299   1.378   7.419   6.495
16474TIP3    H249300   1.354   7.508   6.615
16475TIP3   OH249301   3.267   7.462   6.740
16475TIP3    H149302   3.182   7.504   6.766
16475TIP3    H249303   3.234   7.393   6.679
16476TIP3   OH249304   2.905   7.099   5.318
16476TIP3    H149305   2.946   7.027   5.266
16476TIP3    H249306   2.972   7.170   5.313
16477TIP3   OH249307   1.309   6.923   6.077
16477TIP3    H149308   1.217   6.924   6.107
16477TIP3    H249309   1.307   6.984   6.000
16478TIP3   OH249310   2.473   8.627   5.585
16478TIP3    H149311   2.529   8.618   5.506
16478TIP3    H249312   2.518   8.696   5.636
16479TIP3   OH249313   1.529   7.002   6.893
16479TIP3    H149314   1.480   7.001   6.976
16479TIP3    H249315   1.464   7.045   6.834
16480TIP3   OH249316   1.576   8.438   6.972
16480TIP3    H149317   1.485   8.407   6.952
16480TIP3    H249318   1.585   8.412   7.065
16481TIP3   OH249319   1.748   8.467   6.520
16481TIP3    H149320   1.700   8.542   6.480
16481TIP3    H249321   1.834   8.480   6.475
16482TIP3   OH249322   2.193   8.714   6.658
16482TIP3    H149323   2.237   8.712   6.746
16482TIP3    H249324   2.260   8.762   6.605
16483TIP3   OH249325   2.373   8.863   6.513
16483TIP3    H149326   2.443   8.809   6.473
16483TIP3    H249327   2.425   8.919   6.575
16484TIP3   OH249328   3.168   7.227   6.614
16484TIP3    H149329   3.076   7.227   6.582
16484TIP3    H249330   3.193   7.133   6.600
16485TIP3   OH249331   1.429   8.725   6.541
16485TIP3    H149332   1.339   8.757   6.516
16485TIP3    H249333   1.433   8.757   6.632
16486TIP3   OH249334   1.663   8.703   6.399
16486TIP3    H149335   1.576   8.715   6.445
16486TIP3    H249336   1.641   8.736   6.309
16487TIP3   OH249337   2.087   8.732   6.196
16487TIP3    H149338   2.017   8.752   6.132
16487TIP3    H249339   2.099   8.820   6.239
16488TIP3   OH249340   2.356   8.672   6.248
16488TIP3    H149341   2.261   8.688   6.228
16488TIP3    H249342   2.398   8.749   6.207
16489TIP3   OH249343   2.563   8.864   6.165
16489TIP3    H149344   2.549   8.948   6.116
16489TIP3    H249345   2.591   8.803   6.093
16490TIP3   OH249346   1.345   8.520   6.284
16490TIP3    H149347   1.368   8.492   6.375
16490TIP3    H249348   1.415   8.473   6.234
16491TIP3   OH249349   1.533   8.386   6.141
16491TIP3    H149350   1.548   8.303   6.191
16491TIP3    H249351   1.624   8.423   6.139
16492TIP3   OH249352   1.797   8.483   6.147
16492TIP3    H149353   1.828   8.391   6.136
16492TIP3    H249354   1.841   8.506   6.231
16493TIP3   OH249355   2.372   7.139   6.230
16493TIP3    H149356   2.328   7.072   6.286
16493TIP3    H249357   2.446   7.089   6.191
16494TIP3   OH249358   2.896   7.013   6.134
16494TIP3    H149359   2.931   7.072   6.064
16494TIP3    H249360   2.802   7.040   6.136
16495TIP3   OH249361   2.992   7.120   5.901
16495TIP3    H149362   3.067   7.072   5.861
16495TIP3    H249363   3.023   7.213   5.889
16496TIP3   OH249364   1.621   6.849   6.250
16496TIP3    H149365   1.529   6.815   6.251
16496TIP3    H249366   1.671   6.764   6.247
16497TIP3   OH249367   1.408   6.718   5.899
16497TIP3    H149368   1.436   6.777   5.826
16497TIP3    H249369   1.377   6.783   5.966
16498TIP3   OH249370   2.065   6.880   6.130
16498TIP3    H149371   2.123   6.933   6.073
16498TIP3    H249372   2.082   6.919   6.217
16499TIP3   OH249373   2.612   7.026   6.115
16499TIP3    H149374   2.605   6.991   6.026
16499TIP3    H249375   2.598   6.945   6.170
16500TIP3   OH249376   2.641   6.950   5.676
16500TIP3    H149377   2.556   6.995   5.691
16500TIP3    H249378   2.625   6.865   5.724
16501TIP3   OH249379   1.126   8.287   5.678
16501TIP3    H149380   1.039   8.257   5.646
16501TIP3    H249381   1.116   8.382   5.665
16502TIP3   OH249382   1.524   6.879   5.661
16502TIP3    H149383   1.573   6.816   5.605
16502TIP3    H249384   1.596   6.933   5.699
16503TIP3   OH249385   2.038   7.052   5.760
16503TIP3    H149386   2.097   7.007   5.823
16503TIP3    H249387   2.056   7.145   5.786
16504TIP3   OH249388   1.895   8.477   5.260
16504TIP3    H149389   1.983   8.501   5.224
16504TIP3    H249390   1.873   8.403   5.199
16505TIP3   OH249391   2.627   8.598   5.347
16505TIP3    H149392   2.612   8.500   5.340
16505TIP3    H249393   2.566   8.631   5.278
16506TIP3   OH249394   1.829   7.127   7.139
16506TIP3    H149395   1.795   7.059   7.200
16506TIP3    H249396   1.923   7.130   7.166
16507TIP3   OH249397   2.077   7.125   7.259
16507TIP3    H149398   2.163   7.105   7.219
16507TIP3    H249399   2.067   7.053   7.324
16508TIP3   OH249400   1.199   8.313   5.318
16508TIP3    H149401   1.201   8.342   5.410
16508TIP3    H249402   1.288   8.272   5.306
16509TIP3   OH249403   2.901   7.185   7.049
16509TIP3    H149404   2.922   7.157   7.141
16509TIP3    H249405   2.989   7.184   7.007
16510TIP3   OH249406   2.839   8.740   6.545
16510TIP3    H149407   2.762   8.708   6.494
16510TIP3    H249408   2.822   8.836   6.545
16511TIP3   OH249409   4.109   8.112   5.305
16511TIP3    H149410   4.082   8.205   5.287
16511TIP3    H249411   4.028   8.066   5.280
16512TIP3   OH249412   4.109   8.109   5.687
16512TIP3    H149413   4.140   8.086   5.776
16512TIP3    H249414   4.063   8.029   5.659
16513TIP3   OH249415   3.410   8.007   6.048
16513TIP3    H149416   3.439   7.941   6.114
16513TIP3    H249417   3.474   8.077   6.063
16514TIP3   OH249418   4.350   8.414   5.370
16514TIP3    H149419   4.336   8.346   5.437
16514TIP3    H249420   4.377   8.491   5.423
16515TIP3   OH249421   3.374   8.415   5.754
16515TIP3    H149422   3.364   8.319   5.768
16515TIP3    H249423   3.462   8.430   5.792
16516TIP3   OH249424   3.087   7.623   5.561
16516TIP3    H149425   3.039   7.706   5.580
16516TIP3    H249426   3.014   7.568   5.528
16517TIP3   OH249427   3.143   7.907   5.731
16517TIP3    H149428   3.192   7.832   5.772
16517TIP3    H249429   3.209   7.944   5.671
16518TIP3   OH249430   3.997   8.876   5.382
16518TIP3    H149431   4.046   8.803   5.340
16518TIP3    H249432   3.988   8.844   5.473
16519TIP3   OH249433   3.907   8.337   5.734
16519TIP3    H149434   3.946   8.261   5.688
16519TIP3    H249435   3.989   8.383   5.760
16520TIP3   OH249436   4.918   7.659   5.734
16520TIP3    H149437   4.946   7.741   5.779
16520TIP3    H249438   4.940   7.681   5.641
16521TIP3   OH249439   4.319   7.841   5.768
16521TIP3    H149440   4.360   7.755   5.790
16521TIP3    H249441   4.288   7.824   5.678
16522TIP3   OH249442   3.656   7.499   5.733
16522TIP3    H149443   3.634   7.573   5.672
16522TIP3    H249444   3.604   7.427   5.692
16523TIP3   OH249445   4.349   7.586   5.356
16523TIP3    H149446   4.421   7.573   5.422
16523TIP3    H249447   4.401   7.625   5.283
16524TIP3   OH249448   3.290   7.703   5.841
16524TIP3    H149449   3.371   7.683   5.890
16524TIP3    H249450   3.302   7.646   5.763
16525TIP3   OH249451   3.732   7.900   5.626
16525TIP3    H149452   3.824   7.872   5.646
16525TIP3    H249453   3.692   7.815   5.600
16526TIP3   OH249454   4.991   7.866   5.903
16526TIP3    H149455   4.907   7.914   5.886
16526TIP3    H249456   5.006   7.889   5.996
16527TIP3   OH249457   3.652   7.481   6.168
16527TIP3    H149458   3.592   7.521   6.102
16527TIP3    H249459   3.600   7.499   6.250
16528TIP3   OH249460   4.005   8.337   5.173
16528TIP3    H149461   3.954   8.313   5.095
16528TIP3    H249462   3.960   8.420   5.199
16529TIP3   OH249463   3.760   8.256   5.963
16529TIP3    H149464   3.694   8.319   6.001
16529TIP3    H249465   3.800   8.311   5.894
16530TIP3   OH249466   4.559   7.592   5.529
16530TIP3    H149467   4.545   7.548   5.614
16530TIP3    H249468   4.613   7.669   5.555
16531TIP3   OH249469   3.523   7.599   5.953
16531TIP3    H149470   3.584   7.673   5.976
16531TIP3    H249471   3.574   7.558   5.879
16532TIP3   OH249472   3.586   8.444   6.050
16532TIP3    H149473   3.566   8.538   6.027
16532TIP3    H249474   3.510   8.428   6.112
16533TIP3   OH249475   2.986   8.141   5.298
16533TIP3    H149476   2.938   8.169   5.218
16533TIP3    H249477   3.015   8.226   5.336
16534TIP3   OH249478   4.422   8.656   5.535
16534TIP3    H149479   4.333   8.648   5.577
16534TIP3    H249480   4.413   8.744   5.492
16535TIP3   OH249481   4.712   7.557   5.898
16535TIP3    H149482   4.625   7.590   5.872
16535TIP3    H249483   4.771   7.591   5.827
16536TIP3   OH249484   4.009   7.202   5.882
16536TIP3    H149485   3.996   7.108   5.902
16536TIP3    H249486   3.932   7.241   5.929
16537TIP3   OH249487   4.125   8.703   5.213
16537TIP3    H149488   4.177   8.622   5.190
16537TIP3    H249489   4.183   8.770   5.170
16538TIP3   OH249490   4.268   8.487   5.116
16538TIP3    H149491   4.216   8.411   5.088
16538TIP3    H249492   4.305   8.455   5.201
16539TIP3   OH249493   4.648   8.572   5.880
16539TIP3    H149494   4.635   8.494   5.822
16539TIP3    H249495   4.629   8.646   5.819
16540TIP3   OH249496   3.936   7.961   5.136
16540TIP3    H149497   3.855   8.013   5.117
16540TIP3    H249498   3.983   7.965   5.052
16541TIP3   OH249499   3.897   7.750   4.852
16541TIP3    H149500   3.962   7.798   4.906
16541TIP3    H249501   3.955   7.687   4.806
16542TIP3   OH249502   4.843   8.207   5.724
16542TIP3    H149503   4.760   8.259   5.731
16542TIP3    H249504   4.871   8.231   5.634
16543TIP3   OH249505   4.286   8.045   5.109
16543TIP3    H149506   4.230   8.071   5.187
16543TIP3    H249507   4.369   8.020   5.154
16544TIP3   OH249508   4.521   8.086   6.021
16544TIP3    H149509   4.518   8.170   6.072
16544TIP3    H249510   4.434   8.091   5.976
16545TIP3   OH249511   3.520   8.043   5.524
16545TIP3    H149512   3.480   7.985   5.456
16545TIP3    H249513   3.597   7.991   5.553
16546TIP3   OH249514   3.661   8.471   5.663
16546TIP3    H149515   3.628   8.408   5.598
16546TIP3    H249516   3.747   8.431   5.688
16547TIP3   OH249517   3.662   8.013   5.877
16547TIP3    H149518   3.694   8.001   5.786
16547TIP3    H249519   3.699   8.101   5.902
16548TIP3   OH249520   4.182   8.652   5.658
16548TIP3    H149521   4.165   8.732   5.711
16548TIP3    H249522   4.165   8.580   5.721
16549TIP3   OH249523   3.788   8.570   6.204
16549TIP3    H149524   3.730   8.634   6.250
16549TIP3    H249525   3.722   8.520   6.152
16550TIP3   OH249526   4.129   7.904   4.936
16550TIP3    H149527   4.187   7.963   4.989
16550TIP3    H249528   4.153   7.930   4.844
16551TIP3   OH249529   3.546   8.126   6.302
16551TIP3    H149530   3.553   8.213   6.347
16551TIP3    H249531   3.450   8.109   6.317
16552TIP3   OH249532   3.871   8.583   5.206
16552TIP3    H149533   3.948   8.638   5.230
16552TIP3    H249534   3.808   8.649   5.175
16553TIP3   OH249535   3.588   8.742   6.297
16553TIP3    H149536   3.555   8.738   6.205
16553TIP3    H249537   3.507   8.719   6.347
16554TIP3   OH249538   4.641   7.146   4.983
16554TIP3    H149539   4.561   7.167   5.035
16554TIP3    H249540   4.654   7.230   4.934
16555TIP3   OH249541   3.388   7.884   5.323
16555TIP3    H149542   3.319   7.931   5.271
16555TIP3    H249543   3.341   7.805   5.351
16556TIP3   OH249544   4.440   8.510   4.530
16556TIP3    H149545   4.446   8.608   4.519
16556TIP3    H249546   4.534   8.484   4.519
16557TIP3   OH249547   3.159   8.269   6.242
16557TIP3    H149548   3.096   8.249   6.171
16557TIP3    H249549   3.200   8.183   6.261
16558TIP3   OH249550   3.030   8.474   5.872
16558TIP3    H149551   3.126   8.464   5.875
16558TIP3    H249552   3.019   8.546   5.937
16559TIP3   OH249553   4.884   8.915   5.925
16559TIP3    H149554   4.883   8.819   5.940
16559TIP3    H249555   4.801   8.940   5.971
16560TIP3   OH249556   3.990   8.699   6.064
16560TIP3    H149557   3.988   8.792   6.095
16560TIP3    H249558   3.916   8.661   6.115
16561TIP3   OH249559   3.748   8.831   5.014
16561TIP3    H149560   3.704   8.814   4.928
16561TIP3    H249561   3.719   8.922   5.035
16562TIP3   OH249562   3.163   8.702   5.390
16562TIP3    H149563   3.220   8.698   5.470
16562TIP3    H249564   3.124   8.614   5.397
16563TIP3   OH249565   3.952   8.732   4.654
16563TIP3    H149566   4.011   8.662   4.618
16563TIP3    H249567   3.986   8.741   4.745
16564TIP3   OH249568   4.001   8.779   4.924
16564TIP3    H149569   3.913   8.788   4.967
16564TIP3    H249570   4.053   8.741   4.996
16565TIP3   OH249571   4.776   8.048   6.200
16565TIP3    H149572   4.693   8.060   6.152
16565TIP3    H249573   4.790   7.952   6.192
16566TIP3   OH249574   3.393   8.423   6.231
16566TIP3    H149575   3.426   8.418   6.323
16566TIP3    H249576   3.300   8.395   6.238
16567TIP3   OH249577   3.770   7.279   6.010
16567TIP3    H149578   3.680   7.248   5.986
16567TIP3    H249579   3.746   7.361   6.057
16568TIP3   OH249580   4.303   7.392   6.205
16568TIP3    H149581   4.371   7.367   6.271
16568TIP3    H249582   4.219   7.373   6.253
16569TIP3   OH249583   4.543   7.823   6.124
16569TIP3    H149584   4.495   7.818   6.210
16569TIP3    H249585   4.517   7.910   6.089
16570TIP3   OH249586   4.196   7.949   4.674
16570TIP3    H149587   4.175   7.920   4.584
16570TIP3    H249588   4.278   8.000   4.659
16571TIP3   OH249589   3.923   7.341   4.989
16571TIP3    H149590   3.890   7.347   5.080
16571TIP3    H249591   3.875   7.263   4.957
16572TIP3   OH249592   3.702   7.792   6.029
16572TIP3    H149593   3.651   7.813   6.111
16572TIP3    H249594   3.686   7.874   5.977
16573TIP3   OH249595   3.585   7.678   5.541
16573TIP3    H149596   3.492   7.653   5.562
16573TIP3    H249597   3.596   7.635   5.454
16574TIP3   OH249598   4.074   7.763   5.270
16574TIP3    H149599   4.021   7.835   5.230
16574TIP3    H249600   4.130   7.736   5.195
16575TIP3   OH249601   4.250   8.043   6.356
16575TIP3    H149602   4.227   7.971   6.419
16575TIP3    H249603   4.343   8.058   6.380
16576TIP3   OH249604   4.234   7.793   5.511
16576TIP3    H149605   4.174   7.825   5.441
16576TIP3    H249606   4.265   7.711   5.467
16577TIP3   OH249607   3.523   7.822   6.238
16577TIP3    H149608   3.536   7.890   6.306
16577TIP3    H249609   3.508   7.742   6.292
16578TIP3   OH249610   3.588   7.299   4.951
16578TIP3    H149611   3.572   7.293   5.046
16578TIP3    H249612   3.506   7.342   4.921
16579TIP3   OH249613   3.114   7.345   5.814
16579TIP3    H149614   3.186   7.377   5.872
16579TIP3    H249615   3.160   7.310   5.737
16580TIP3   OH249616   3.088   7.326   5.336
16580TIP3    H149617   3.131   7.369   5.258
16580TIP3    H249618   3.026   7.398   5.361
16581TIP3   OH249619   4.244   8.041   5.932
16581TIP3    H149620   4.277   7.969   5.875
16581TIP3    H249621   4.215   7.990   6.010
16582TIP3   OH249622   3.909   7.498   5.602
16582TIP3    H149623   3.828   7.500   5.657
16582TIP3    H249624   3.978   7.501   5.671
16583TIP3   OH249625   3.348   7.559   5.611
16583TIP3    H149626   3.252   7.568   5.587
16583TIP3    H249627   3.367   7.466   5.591
16584TIP3   OH249628   3.618   7.548   5.300
16584TIP3    H149629   3.710   7.574   5.281
16584TIP3    H249630   3.569   7.576   5.220
16585TIP3   OH249631   4.405   7.576   5.803
16585TIP3    H149632   4.374   7.589   5.896
16585TIP3    H249633   4.336   7.517   5.769
16586TIP3   OH249634   3.459   7.583   5.081
16586TIP3    H149635   3.385   7.540   5.034
16586TIP3    H249636   3.509   7.620   5.005
16587TIP3   OH249637   4.575   9.265   6.025
16587TIP3    H149638   4.572   9.289   5.931
16587TIP3    H249639   4.652   9.316   6.057
16588TIP3   OH249640   3.539   8.365   6.460
16588TIP3    H149641   3.615   8.405   6.507
16588TIP3    H249642   3.471   8.371   6.530
16589TIP3   OH249643   3.995   7.829   5.703
16589TIP3    H149644   4.071   7.789   5.657
16589TIP3    H249645   4.002   7.790   5.792
16590TIP3   OH249646   3.516   7.316   5.582
16590TIP3    H149647   3.481   7.238   5.631
16590TIP3    H249648   3.572   7.275   5.516
16591TIP3   OH249649   3.972   7.728   5.990
16591TIP3    H149650   3.882   7.763   6.007
16591TIP3    H249651   4.029   7.788   6.043
16592TIP3   OH249652   3.711   8.116   5.086
16592TIP3    H149653   3.637   8.052   5.076
16592TIP3    H249654   3.693   8.150   5.177
16593TIP3   OH249655   4.610   8.353   5.717
16593TIP3    H149656   4.634   8.402   5.636
16593TIP3    H249657   4.524   8.313   5.693
16594TIP3   OH249658   4.173   7.434   4.940
16594TIP3    H149659   4.077   7.420   4.955
16594TIP3    H249660   4.187   7.527   4.970
16595TIP3   OH249661   4.113   8.439   6.084
16595TIP3    H149662   4.126   8.413   6.176
16595TIP3    H249663   4.068   8.524   6.091
16596TIP3   OH249664   4.239   7.675   5.050
16596TIP3    H149665   4.334   7.683   5.069
16596TIP3    H249666   4.220   7.757   5.000
16597TIP3   OH249667   3.397   8.132   5.764
16597TIP3    H149668   3.443   8.104   5.682
16597TIP3    H249669   3.438   8.074   5.831
16598TIP3   OH249670   3.852   8.265   4.905
16598TIP3    H149671   3.806   8.352   4.912
16598TIP3    H249672   3.799   8.211   4.967
16599TIP3   OH249673   3.285   8.053   6.373
16599TIP3    H149674   3.301   8.044   6.469
16599TIP3    H249675   3.210   7.992   6.360
16600TIP3   OH249676   4.006   8.174   6.396
16600TIP3    H149677   3.945   8.114   6.350
16600TIP3    H249678   4.093   8.140   6.367
16601TIP3   OH249679   4.269   8.698   5.977
16601TIP3    H149680   4.173   8.692   5.992
16601TIP3    H249681   4.296   8.747   6.057
16602TIP3   OH249682   4.679   7.766   4.889
16602TIP3    H149683   4.616   7.721   4.828
16602TIP3    H249684   4.676   7.855   4.848
16603TIP3   OH249685   4.897   8.625   5.969
16603TIP3    H149686   4.799   8.619   5.961
16603TIP3    H249687   4.923   8.595   5.879
16604TIP3   OH249688   4.378   8.586   4.796
16604TIP3    H149689   4.354   8.519   4.861
16604TIP3    H249690   4.391   8.536   4.714
16605TIP3   OH249691   4.375   8.216   5.633
16605TIP3    H149692   4.282   8.190   5.648
16605TIP3    H249693   4.409   8.135   5.590
16606TIP3   OH249694   3.499   8.435   5.376
16606TIP3    H149695   3.499   8.522   5.332
16606TIP3    H249696   3.411   8.431   5.413
16607TIP3   OH249697   3.065   7.747   5.091
16607TIP3    H149698   3.111   7.831   5.112
16607TIP3    H249699   2.988   7.753   5.152
16608TIP3   OH249700   3.644   8.207   5.331
16608TIP3    H149701   3.606   8.296   5.346
16608TIP3    H249702   3.607   8.158   5.407
16609TIP3   OH249703   3.769   8.793   5.845
16609TIP3    H149704   3.817   8.865   5.800
16609TIP3    H249705   3.838   8.755   5.902
16610TIP3   OH249706   3.416   8.685   5.240
16610TIP3    H149707   3.332   8.693   5.289
16610TIP3    H249708   3.451   8.776   5.248
16611TIP3   OH249709   4.160   8.420   5.815
16611TIP3    H149710   4.150   8.422   5.913
16611TIP3    H249711   4.241   8.368   5.806
16612TIP3   OH249712   4.135   8.308   4.697
16612TIP3    H149713   4.188   8.284   4.776
16612TIP3    H249714   4.045   8.289   4.730
16613TIP3   OH249715   4.410   8.954   5.867
16613TIP3    H149716   4.331   8.896   5.862
16613TIP3    H249717   4.391   9.018   5.794
16614TIP3   OH249718   4.472   8.787   4.518
16614TIP3    H149719   4.509   8.858   4.463
16614TIP3    H249720   4.393   8.834   4.553
16615TIP3   OH249721   3.494   7.563   6.384
16615TIP3    H149722   3.398   7.572   6.400
16615TIP3    H249723   3.520   7.506   6.458
16616TIP3   OH249724   4.294   8.240   4.910
16616TIP3    H149725   4.285   8.180   4.986
16616TIP3    H249726   4.391   8.244   4.902
16617TIP3   OH249727   3.501   8.293   4.697
16617TIP3    H149728   3.514   8.201   4.670
16617TIP3    H249729   3.483   8.283   4.793
16618TIP3   OH249730   3.446   8.299   4.969
16618TIP3    H149731   3.513   8.272   5.034
16618TIP3    H249732   3.450   8.397   4.977
16619TIP3   OH249733   3.182   7.992   5.172
16619TIP3    H149734   3.116   8.035   5.231
16619TIP3    H249735   3.196   8.063   5.107
16620TIP3   OH249736   4.334   7.625   6.061
16620TIP3    H149737   4.408   7.668   6.107
16620TIP3    H249738   4.317   7.546   6.117
16621TIP3   OH249739   4.212   7.381   5.227
16621TIP3    H149740   4.201   7.410   5.135
16621TIP3    H249741   4.253   7.460   5.269
16622TIP3   OH249742   3.711   8.496   4.916
16622TIP3    H149743   3.625   8.523   4.954
16622TIP3    H249744   3.729   8.573   4.860
16623TIP3   OH249745   3.900   7.556   5.329
16623TIP3    H149746   3.964   7.628   5.313
16623TIP3    H249747   3.903   7.549   5.427
16624TIP3   OH249748   4.170   7.879   6.140
16624TIP3    H149749   4.187   7.936   6.218
16624TIP3    H249750   4.225   7.801   6.161
16625TIP3   OH249751   4.046   7.287   5.434
16625TIP3    H149752   4.042   7.359   5.500
16625TIP3    H249753   4.107   7.326   5.367
16626TIP3   OH249754   3.453   8.571   4.986
16626TIP3    H149755   3.426   8.642   4.923
16626TIP3    H249756   3.438   8.615   5.073
16627TIP3   OH249757   3.562   7.279   5.226
16627TIP3    H149758   3.543   7.369   5.260
16627TIP3    H249759   3.659   7.278   5.241
16628TIP3   OH249760   4.809   7.779   6.119
16628TIP3    H149761   4.711   7.779   6.129
16628TIP3    H249762   4.818   7.737   6.033
16629TIP3   OH249763   4.461   7.973   5.508
16629TIP3    H149764   4.385   7.914   5.524
16629TIP3    H249765   4.532   7.927   5.558
16630TIP3   OH249766   3.173   8.204   4.979
16630TIP3    H149767   3.241   8.274   4.989
16630TIP3    H249768   3.217   8.149   4.912
16631TIP3   OH249769   3.119   7.477   5.107
16631TIP3    H149770   3.116   7.575   5.107
16631TIP3    H249771   3.030   7.455   5.079
16632TIP3   OH249772   4.429   8.928   5.459
16632TIP3    H149773   4.386   8.975   5.384
16632TIP3    H249774   4.523   8.947   5.438
16633TIP3   OH249775   3.509   7.196   5.985
16633TIP3    H149776   3.473   7.163   5.900
16633TIP3    H249777   3.496   7.119   6.044
16634TIP3   OH249778   3.046   8.421   5.363
16634TIP3    H149779   2.977   8.445   5.427
16634TIP3    H249780   3.015   8.465   5.281
16635TIP3   OH249781   3.195   8.955   6.444
16635TIP3    H149782   3.284   8.950   6.483
16635TIP3    H249783   3.174   8.861   6.429
16636TIP3   OH249784   3.686   8.924   6.482
16636TIP3    H149785   3.778   8.897   6.485
16636TIP3    H249786   3.653   8.865   6.410
16637TIP3   OH249787   3.662   8.499   4.609
16637TIP3    H149788   3.606   8.429   4.650
16637TIP3    H249789   3.738   8.445   4.580
16638TIP3   OH249790   4.324   8.828   6.213
16638TIP3    H149791   4.313   8.758   6.282
16638TIP3    H249792   4.399   8.879   6.248
16639TIP3   OH249793   4.099   8.539   4.522
16639TIP3    H149794   4.148   8.478   4.580
16639TIP3    H249795   4.155   8.541   4.442
16640TIP3   OH249796   3.330   8.365   6.641
16640TIP3    H149797   3.345   8.268   6.643
16640TIP3    H249798   3.243   8.370   6.597
16641TIP3   OH249799   3.308   8.016   4.831
16641TIP3    H149800   3.362   7.982   4.905
16641TIP3    H249801   3.377   8.020   4.761
16642TIP3   OH249802   3.940   8.451   6.410
16642TIP3    H149803   3.892   8.466   6.326
16642TIP3    H249804   3.968   8.357   6.402
16643TIP3   OH249805   3.819   8.211   4.637
16643TIP3    H149806   3.820   8.227   4.734
16643TIP3    H249807   3.812   8.114   4.634
16644TIP3   OH249808   4.432   8.455   6.016
16644TIP3    H149809   4.504   8.505   5.973
16644TIP3    H249810   4.358   8.517   6.008
16645TIP3   OH249811   3.449   8.098   6.621
16645TIP3    H149812   3.523   8.040   6.602
16645TIP3    H249813   3.474   8.132   6.710
16646TIP3   OH249814   3.516   7.919   5.054
16646TIP3    H149815   3.487   7.882   5.139
16646TIP3    H249816   3.550   7.840   5.007
16647TIP3   OH249817   3.788   7.985   6.284
16647TIP3    H149818   3.708   8.041   6.287
16647TIP3    H249819   3.833   8.019   6.203
16648TIP3   OH249820   3.617   7.709   4.894
16648TIP3    H149821   3.589   7.714   4.801
16648TIP3    H249822   3.714   7.719   4.885
16649TIP3   OH249823   4.302   8.384   6.415
16649TIP3    H149824   4.383   8.360   6.370
16649TIP3    H249825   4.297   8.319   6.487
16650TIP3   OH249826   4.436   8.042   4.555
16650TIP3    H149827   4.418   7.996   4.471
16650TIP3    H249828   4.405   8.132   4.532
16651TIP3   OH249829   3.910   7.772   6.407
16651TIP3    H149830   3.907   7.692   6.351
16651TIP3    H249831   3.865   7.838   6.351
16652TIP3   OH249832   3.911   7.555   6.212
16652TIP3    H149833   3.937   7.599   6.129
16652TIP3    H249834   3.817   7.534   6.196
16653TIP3   OH249835   3.940   8.092   6.086
16653TIP3    H149836   4.022   8.105   6.036
16653TIP3    H249837   3.881   8.159   6.044
16654TIP3   OH249838   4.520   8.060   6.469
16654TIP3    H149839   4.568   7.977   6.485
16654TIP3    H249840   4.590   8.118   6.436
16655TIP3   OH249841   4.562   8.312   6.205
16655TIP3    H149842   4.504   8.365   6.146
16655TIP3    H249843   4.650   8.332   6.164
16656TIP3   OH249844   3.789   7.882   6.639
16656TIP3    H149845   3.718   7.816   6.653
16656TIP3    H249846   3.822   7.857   6.551
16657TIP3   OH249847   4.043   7.320   6.280
16657TIP3    H149848   3.995   7.403   6.259
16657TIP3    H249849   3.972   7.254   6.271
16658TIP3   OH249850   4.170   7.826   6.498
16658TIP3    H149851   4.158   7.815   6.594
16658TIP3    H249852   4.080   7.802   6.468
16659TIP3   OH249853   4.407   7.770   6.351
16659TIP3    H149854   4.332   7.775   6.413
16659TIP3    H249855   4.480   7.742   6.410
16660TIP3   OH249856   4.638   7.715   6.503
16660TIP3    H149857   4.650   7.620   6.523
16660TIP3    H249858   4.632   7.755   6.593
16661TIP3   OH249859   3.627   7.662   6.690
16661TIP3    H149860   3.633   7.571   6.657
16661TIP3    H249861   3.661   7.651   6.781
16662TIP3   OH249862   4.138   7.331   6.539
16662TIP3    H149863   4.206   7.261   6.533
16662TIP3    H249864   4.098   7.324   6.450
16663TIP3   OH249865   4.203   7.546   6.698
16663TIP3    H149866   4.180   7.475   6.634
16663TIP3    H249867   4.125   7.605   6.692
16664TIP3   OH249868   3.423   8.772   4.798
16664TIP3    H149869   3.519   8.771   4.780
16664TIP3    H249870   3.392   8.823   4.721
16665TIP3   OH249871   2.904   8.161   5.011
16665TIP3    H149872   3.000   8.179   5.001
16665TIP3    H249873   2.898   8.070   4.973
16666TIP3   OH249874   2.836   8.760   5.400
16666TIP3    H149875   2.752   8.710   5.388
16666TIP3    H249876   2.870   8.714   5.481
16667TIP3   OH249877   2.948   8.625   5.610
16667TIP3    H149878   2.936   8.553   5.675
16667TIP3    H249879   3.001   8.685   5.666
16668TIP3   OH249880   4.683   9.018   5.415
16668TIP3    H149881   4.706   9.050   5.504
16668TIP3    H249882   4.741   9.070   5.358
16669TIP3   OH249883   4.713   9.040   5.696
16669TIP3    H149884   4.667   8.953   5.693
16669TIP3    H249885   4.785   9.017   5.757
16670TIP3   OH249886   4.757   8.717   6.269
16670TIP3    H149887   4.684   8.724   6.334
16670TIP3    H249888   4.798   8.806   6.275
16671TIP3   OH249889   4.575   8.230   4.889
16671TIP3    H149890   4.643   8.294   4.863
16671TIP3    H249891   4.616   8.191   4.969
16672TIP3   OH249892   4.701   8.098   5.093
16672TIP3    H149893   4.636   8.055   5.154
16672TIP3    H249894   4.766   8.136   5.155
16673TIP3   OH249895   4.755   8.489   5.526
16673TIP3    H149896   4.810   8.426   5.476
16673TIP3    H249897   4.746   8.563   5.463
16674TIP3   OH249898   4.587   8.790   5.720
16674TIP3    H149899   4.516   8.832   5.773
16674TIP3    H249900   4.535   8.742   5.652
16675TIP3   OH249901   4.639   8.005   4.740
16675TIP3    H149902   4.566   8.009   4.675
16675TIP3    H249903   4.614   8.081   4.797
16676TIP3   OH249904   4.507   7.679   4.697
16676TIP3    H149905   4.471   7.717   4.616
16676TIP3    H249906   4.484   7.585   4.687
16677TIP3   OH249907   4.515   7.953   5.240
16677TIP3    H149908   4.525   7.857   5.237
16677TIP3    H249909   4.501   7.970   5.335
16678TIP3   OH249910   3.143   8.027   5.986
16678TIP3    H149911   3.141   7.998   5.892
16678TIP3    H249912   3.241   8.029   6.002
16679TIP3   OH249913   4.804   8.378   6.097
16679TIP3    H149914   4.877   8.313   6.088
16679TIP3    H249915   4.832   8.448   6.035
16680TIP3   OH249916   4.991   8.185   6.112
16680TIP3    H149917   4.916   8.135   6.151
16680TIP3    H249918   5.063   8.121   6.127
16681TIP3   OH249919   4.455   7.413   4.681
16681TIP3    H149920   4.535   7.386   4.731
16681TIP3    H249921   4.387   7.352   4.713
16682TIP3   OH249922   4.510   7.669   5.135
16682TIP3    H149923   4.552   7.581   5.151
16682TIP3    H249924   4.570   7.704   5.066
16683TIP3   OH249925   4.673   7.843   5.629
16683TIP3    H149926   4.759   7.870   5.590
16683TIP3    H249927   4.685   7.881   5.719
16684TIP3   OH249928   4.740   7.988   5.862
16684TIP3    H149929   4.663   8.021   5.912
16684TIP3    H249930   4.772   8.069   5.818
16685TIP3   OH249931   3.359   7.712   6.658
16685TIP3    H149932   3.457   7.706   6.663
16685TIP3    H249933   3.334   7.629   6.703
16686TIP3   OH249934   5.191   7.577   6.418
16686TIP3    H149935   5.251   7.512   6.376
16686TIP3    H249936   5.166   7.634   6.342
16687TIP3   OH249937   4.620   7.420   5.172
16687TIP3    H149938   4.669   7.404   5.256
16687TIP3    H249939   4.561   7.342   5.172
16688TIP3   OH249940   3.322   7.404   5.982
16688TIP3    H149941   3.386   7.332   6.002
16688TIP3    H249942   3.380   7.482   5.986
16689TIP3   OH249943   3.126   7.678   6.067
16689TIP3    H149944   3.174   7.680   5.983
16689TIP3    H249945   3.145   7.766   6.103
16690TIP3   OH249946   5.066   7.721   6.223
16690TIP3    H149947   4.979   7.759   6.248
16690TIP3    H249948   5.035   7.648   6.166
16691TIP3   OH249949   4.700   7.357   4.802
16691TIP3    H149950   4.743   7.283   4.754
16691TIP3    H249951   4.769   7.426   4.800
16692TIP3   OH249952   3.106   7.177   5.562
16692TIP3    H149953   3.014   7.179   5.595
16692TIP3    H249954   3.102   7.240   5.487
16693TIP3   OH249955   4.265   8.886   5.072
16693TIP3    H149956   4.319   8.873   4.991
16693TIP3    H249957   4.316   8.954   5.119
16694TIP3   OH249958   3.326   7.258   6.378
16694TIP3    H149959   3.278   7.257   6.463
16694TIP3    H249960   3.260   7.302   6.321
16695TIP3   OH249961   3.371   8.685   6.464
16695TIP3    H149962   3.281   8.667   6.431
16695TIP3    H249963   3.361   8.668   6.558
16696TIP3   OH249964   3.556   8.711   6.018
16696TIP3    H149965   3.466   8.743   5.998
16696TIP3    H249966   3.611   8.761   5.956
16697TIP3   OH249967   3.991   8.966   6.142
16697TIP3    H149968   4.031   8.967   6.232
16697TIP3    H249969   4.057   9.018   6.091
16698TIP3   OH249970   4.169   9.120   6.001
16698TIP3    H149971   4.241   9.066   5.963
16698TIP3    H249972   4.220   9.177   6.062
16699TIP3   OH249973   4.964   7.482   6.101
16699TIP3    H149974   4.872   7.475   6.071
16699TIP3    H249975   4.995   7.389   6.090
16700TIP3   OH249976   3.234   9.022   6.020
16700TIP3    H149977   3.139   9.045   6.017
16700TIP3    H249978   3.229   8.930   6.054
16701TIP3   OH249979   3.467   8.969   5.881
16701TIP3    H149980   3.387   8.984   5.937
16701TIP3    H249981   3.436   8.998   5.794
16702TIP3   OH249982   3.887   8.992   5.679
16702TIP3    H149983   3.813   9.011   5.618
16702TIP3    H249984   3.896   9.078   5.726
16703TIP3   OH249985   4.152   8.928   5.733
16703TIP3    H149986   4.057   8.943   5.716
16703TIP3    H249987   4.192   9.007   5.695
16704TIP3   OH249988   4.364   9.121   5.652
16704TIP3    H149989   4.346   9.205   5.604
16704TIP3    H249990   4.385   9.060   5.578
16705TIP3   OH249991   3.127   8.777   5.755
16705TIP3    H149992   3.151   8.763   5.850
16705TIP3    H249993   3.201   8.727   5.714
16706TIP3   OH249994   3.324   8.646   5.611
16706TIP3    H149995   3.334   8.562   5.662
16706TIP3    H249996   3.415   8.683   5.621
16707TIP3   OH249997   3.592   8.741   5.630
16707TIP3    H149998   3.623   8.648   5.626
16707TIP3    H249999   3.635   8.766   5.714
16708TIP3   OH250000   4.165   7.393   5.713
16708TIP3    H150001   4.124   7.326   5.772
16708TIP3    H250002   4.243   7.346   5.678
16709TIP3   OH250003   4.691   7.272   5.622
16709TIP3    H150004   4.728   7.327   5.550
16709TIP3    H250005   4.597   7.298   5.621
16710TIP3   OH250006   4.786   7.378   5.388
16710TIP3    H150007   4.860   7.326   5.350
16710TIP3    H250008   4.821   7.469   5.375
16711TIP3   OH250009   3.418   7.104   5.734
16711TIP3    H150010   3.326   7.071   5.738
16711TIP3    H250011   3.467   7.019   5.735
16712TIP3   OH250012   3.206   6.976   5.384
16712TIP3    H150013   3.228   7.038   5.312
16712TIP3    H250014   3.172   7.037   5.453
16713TIP3   OH250015   3.859   7.138   5.615
16713TIP3    H150016   3.921   7.191   5.563
16713TIP3    H250017   3.873   7.172   5.704
16714TIP3   OH250018   4.406   7.284   5.603
16714TIP3    H150019   4.410   7.246   5.515
16714TIP3    H250020   4.394   7.203   5.659
16715TIP3   OH250021   4.436   7.206   5.163
16715TIP3    H150022   4.352   7.252   5.180
16715TIP3    H250023   4.422   7.122   5.212
16716TIP3   OH250024   2.914   8.562   5.168
16716TIP3    H150025   2.861   8.514   5.101
16716TIP3    H250026   2.841   8.599   5.221
16717TIP3   OH250027   3.318   7.137   5.148
16717TIP3    H150028   3.368   7.077   5.090
16717TIP3    H250029   3.389   7.192   5.187
16718TIP3   OH250030   3.837   7.302   5.253
16718TIP3    H150031   3.902   7.269   5.317
16718TIP3    H250032   3.846   7.398   5.273
16719TIP3   OH250033   3.692   8.734   4.748
16719TIP3    H150034   3.780   8.758   4.711
16719TIP3    H250035   3.670   8.660   4.688
16720TIP3   OH250036   4.413   8.853   4.839
16720TIP3    H150037   4.403   8.756   4.826
16720TIP3    H250038   4.366   8.887   4.760
16721TIP3   OH250039   3.625   7.385   6.627
16721TIP3    H150040   3.590   7.317   6.686
16721TIP3    H250041   3.719   7.387   6.655
16722TIP3   OH250042   3.873   7.382   6.747
16722TIP3    H150043   3.959   7.357   6.710
16722TIP3    H250044   3.859   7.312   6.814
16723TIP3   OH250045   3.000   8.563   4.804
16723TIP3    H150046   3.007   8.586   4.898
16723TIP3    H250047   3.088   8.525   4.785
16724TIP3   OH250048   4.698   7.444   6.536
16724TIP3    H150049   4.717   7.414   6.627
16724TIP3    H250050   4.786   7.440   6.494
16725TIP3   OH250051   4.639   8.997   6.026
16725TIP3    H150052   4.559   8.964   5.980
16725TIP3    H250053   4.618   9.092   6.032
16726TIP3   OH250054   5.904   8.369   4.794
16726TIP3    H150055   5.875   8.460   4.773
16726TIP3    H250056   5.828   8.319   4.761
16727TIP3   OH250057   5.902   8.370   5.176
16727TIP3    H150058   5.934   8.339   5.262
16727TIP3    H250059   5.861   8.290   5.139
16728TIP3   OH250060   5.202   8.263   5.539
16728TIP3    H150061   5.232   8.197   5.604
16728TIP3    H250062   5.280   8.321   5.535
16729TIP3   OH250063   6.146   8.671   4.856
16729TIP3    H150064   6.133   8.601   4.921
16729TIP3    H250065   6.175   8.745   4.912
16730TIP3   OH250066   5.174   8.674   5.264
16730TIP3    H150067   5.163   8.577   5.267
16730TIP3    H250068   5.271   8.682   5.261
16731TIP3   OH250069   4.881   7.879   5.050
16731TIP3    H150070   4.832   7.962   5.065
16731TIP3    H250071   4.809   7.824   5.013
16732TIP3   OH250072   4.940   8.164   5.220
16732TIP3    H150073   4.988   8.088   5.259
16732TIP3    H250074   5.001   8.194   5.152
16733TIP3   OH250075   5.795   9.133   4.873
16733TIP3    H150076   5.841   9.062   4.823
16733TIP3    H250077   5.790   9.093   4.961
16734TIP3   OH250078   5.701   8.595   5.223
16734TIP3    H150079   5.739   8.518   5.177
16734TIP3    H250080   5.785   8.640   5.246
16735TIP3   OH250081   6.714   7.915   5.220
16735TIP3    H150082   6.743   7.998   5.263
16735TIP3    H250083   6.738   7.933   5.127
16736TIP3   OH250084   6.114   8.097   5.256
16736TIP3    H150085   6.156   8.012   5.276
16736TIP3    H250086   6.083   8.081   5.164
16737TIP3   OH250087   5.451   7.756   5.221
16737TIP3    H150088   5.431   7.829   5.158
16737TIP3    H250089   5.403   7.683   5.177
16738TIP3   OH250090   6.145   7.847   4.843
16738TIP3    H150091   6.218   7.832   4.908
16738TIP3    H250092   6.197   7.882   4.768
16739TIP3   OH250093   5.086   7.959   5.328
16739TIP3    H150094   5.168   7.938   5.376
16739TIP3    H250095   5.098   7.903   5.249
16740TIP3   OH250096   5.527   8.156   5.120
16740TIP3    H150097   5.620   8.130   5.134
16740TIP3    H250098   5.487   8.072   5.089
16741TIP3   OH250099   6.788   8.122   5.390
16741TIP3    H150100   6.704   8.170   5.372
16741TIP3    H250101   6.801   8.144   5.483
16742TIP3   OH250102   5.449   7.739   5.655
16742TIP3    H150103   5.388   7.776   5.588
16742TIP3    H250104   5.397   7.756   5.736
16743TIP3   OH250105   5.794   8.589   4.665
16743TIP3    H150106   5.754   8.569   4.579
16743TIP3    H250107   5.750   8.674   4.687
16744TIP3   OH250108   5.555   8.515   5.450
16744TIP3    H150109   5.492   8.580   5.488
16744TIP3    H250110   5.597   8.566   5.378
16745TIP3   OH250111   6.355   7.850   5.015
16745TIP3    H150112   6.349   7.799   5.097
16745TIP3    H250113   6.411   7.925   5.042
16746TIP3   OH250114   5.319   7.855   5.440
16746TIP3    H150115   5.381   7.927   5.462
16746TIP3    H250116   5.368   7.813   5.365
16747TIP3   OH250117   5.383   8.708   5.548
16747TIP3    H150118   5.356   8.794   5.510
16747TIP3    H250119   5.305   8.691   5.605
16748TIP3   OH250120   4.779   8.399   4.784
16748TIP3    H150121   4.737   8.426   4.701
16748TIP3    H250122   4.808   8.485   4.821
16749TIP3   OH250123   6.217   8.914   5.026
16749TIP3    H150124   6.127   8.905   5.064
16749TIP3    H250125   6.209   9.000   4.979
16750TIP3   OH250126   6.508   7.816   5.387
16750TIP3    H150127   6.420   7.845   5.357
16750TIP3    H250128   6.567   7.847   5.315
16751TIP3   OH250129   5.804   7.458   5.368
16751TIP3    H150130   5.793   7.363   5.387
16751TIP3    H250131   5.727   7.496   5.415
16752TIP3   OH250132   5.917   8.962   4.698
16752TIP3    H150133   5.967   8.879   4.677
16752TIP3    H250134   5.977   9.027   4.656
16753TIP3   OH250135   6.058   8.747   4.605
16753TIP3    H150136   6.029   8.666   4.561
16753TIP3    H250137   6.095   8.712   4.689
16754TIP3   OH250138   6.443   8.828   5.368
16754TIP3    H150139   6.433   8.750   5.309
16754TIP3    H250140   6.426   8.902   5.306
16755TIP3   OH250141   5.735   8.222   4.624
16755TIP3    H150142   5.654   8.272   4.601
16755TIP3    H250143   5.782   8.218   4.539
16756TIP3   OH250144   5.693   8.005   4.342
16756TIP3    H150145   5.762   8.055   4.390
16756TIP3    H250146   5.749   7.941   4.294
16757TIP3   OH250147   6.638   8.465   5.213
16757TIP3    H150148   6.555   8.517   5.217
16757TIP3    H250149   6.667   8.487   5.122
16758TIP3   OH250150   6.081   8.304   4.596
16758TIP3    H150151   6.027   8.328   4.675
16758TIP3    H250152   6.165   8.276   4.640
16759TIP3   OH250153   6.317   8.343   5.508
16759TIP3    H150154   6.313   8.427   5.556
16759TIP3    H250155   6.231   8.345   5.462
16760TIP3   OH250156   5.315   8.301   5.013
16760TIP3    H150157   5.273   8.243   4.946
16760TIP3    H250158   5.391   8.248   5.042
16761TIP3   OH250159   5.445   8.716   5.160
16761TIP3    H150160   5.423   8.670   5.077
16761TIP3    H250161   5.535   8.681   5.179
16762TIP3   OH250162   5.451   8.272   5.367
16762TIP3    H150163   5.485   8.251   5.277
16762TIP3    H250164   5.494   8.358   5.387
16763TIP3   OH250165   5.974   8.911   5.144
16763TIP3    H150166   5.962   8.989   5.201
16763TIP3    H250167   5.962   8.836   5.206
16764TIP3   OH250168   5.587   8.830   5.691
16764TIP3    H150169   5.528   8.892   5.737
16764TIP3    H250170   5.521   8.776   5.642
16765TIP3   OH250171   5.922   8.162   4.423
16765TIP3    H150172   5.982   8.220   4.474
16765TIP3    H250173   5.948   8.186   4.330
16766TIP3   OH250174   5.342   8.387   5.790
16766TIP3    H150175   5.346   8.472   5.837
16766TIP3    H250176   5.247   8.366   5.802
16767TIP3   OH250177   5.665   8.842   4.699
16767TIP3    H150178   5.746   8.894   4.714
16767TIP3    H250179   5.605   8.905   4.657
16768TIP3   OH250180   5.382   8.999   5.779
16768TIP3    H150181   5.347   8.995   5.688
16768TIP3    H250182   5.303   8.977   5.833
16769TIP3   OH250183   6.439   7.403   4.471
16769TIP3    H150184   6.357   7.423   4.521
16769TIP3    H250185   6.451   7.486   4.420
16770TIP3   OH250186   5.181   8.144   4.818
16770TIP3    H150187   5.114   8.188   4.761
16770TIP3    H250188   5.141   8.058   4.831
16771TIP3   OH250189   6.237   8.770   4.021
16771TIP3    H150190   6.245   8.866   4.004
16771TIP3    H250191   6.330   8.740   4.006
16772TIP3   OH250192   4.962   8.528   5.724
16772TIP3    H150193   4.895   8.505   5.657
16772TIP3    H250194   4.999   8.440   5.750
16773TIP3   OH250195   4.815   8.721   5.356
16773TIP3    H150196   4.911   8.717   5.350
16773TIP3    H250197   4.802   8.800   5.411
16774TIP3   OH250198   6.679   9.171   5.414
16774TIP3    H150199   6.679   9.074   5.425
16774TIP3    H250200   6.595   9.194   5.459
16775TIP3   OH250201   5.786   8.958   5.548
16775TIP3    H150202   5.784   9.051   5.581
16775TIP3    H250203   5.714   8.918   5.602
16776TIP3   OH250204   5.542   9.085   4.502
16776TIP3    H150205   5.502   9.063   4.416
16776TIP3    H250206   5.514   9.177   4.517
16777TIP3   OH250207   4.985   8.939   4.882
16777TIP3    H150208   5.030   8.928   4.969
16777TIP3    H250209   4.924   8.863   4.885
16778TIP3   OH250210   5.749   8.988   4.141
16778TIP3    H150211   5.806   8.918   4.103
16778TIP3    H250212   5.784   8.996   4.232
16779TIP3   OH250213   5.797   9.037   4.412
16779TIP3    H150214   5.709   9.043   4.455
16779TIP3    H250215   5.849   8.994   4.481
16780TIP3   OH250216   6.569   8.304   5.687
16780TIP3    H150217   6.489   8.315   5.634
16780TIP3    H250218   6.586   8.208   5.678
16781TIP3   OH250219   5.167   8.711   5.714
16781TIP3    H150220   5.217   8.694   5.797
16781TIP3    H250221   5.093   8.648   5.721
16782TIP3   OH250222   5.565   7.535   5.497
16782TIP3    H150223   5.476   7.504   5.472
16782TIP3    H250224   5.541   7.617   5.544
16783TIP3   OH250225   6.100   7.650   5.692
16783TIP3    H150226   6.168   7.622   5.757
16783TIP3    H250227   6.016   7.629   5.739
16784TIP3   OH250228   6.339   8.078   5.611
16784TIP3    H150229   6.291   8.075   5.697
16784TIP3    H250230   6.313   8.165   5.575
16785TIP3   OH250231   5.998   8.210   4.167
16785TIP3    H150232   5.965   8.183   4.079
16785TIP3    H250233   6.081   8.256   4.142
16786TIP3   OH250234   5.710   7.584   4.468
16786TIP3    H150235   5.679   7.582   4.560
16786TIP3    H250236   5.673   7.500   4.436
16787TIP3   OH250237   5.498   8.049   5.516
16787TIP3    H150238   5.447   8.069   5.598
16787TIP3    H250239   5.481   8.131   5.463
16788TIP3   OH250240   5.381   7.936   5.030
16788TIP3    H150241   5.289   7.909   5.048
16788TIP3    H250242   5.395   7.895   4.941
16789TIP3   OH250243   5.872   8.022   4.758
16789TIP3    H150244   5.819   8.093   4.715
16789TIP3    H250245   5.927   7.991   4.683
16790TIP3   OH250246   6.047   8.302   5.846
16790TIP3    H150247   6.023   8.228   5.907
16790TIP3    H250248   6.141   8.312   5.867
16791TIP3   OH250249   6.030   8.051   4.997
16791TIP3    H150250   5.970   8.080   4.925
16791TIP3    H250251   6.063   7.969   4.955
16792TIP3   OH250252   5.317   8.079   5.726
16792TIP3    H150253   5.342   8.141   5.795
16792TIP3    H250254   5.304   7.996   5.776
16793TIP3   OH250255   5.366   7.556   4.435
16793TIP3    H150256   5.359   7.553   4.532
16793TIP3    H250257   5.287   7.608   4.412
16794TIP3   OH250258   4.910   7.602   5.303
16794TIP3    H150259   4.984   7.634   5.360
16794TIP3    H250260   4.955   7.568   5.225
16795TIP3   OH250261   4.881   7.581   4.824
16795TIP3    H150262   4.927   7.621   4.747
16795TIP3    H250263   4.822   7.655   4.847
16796TIP3   OH250264   6.041   8.297   5.420
16796TIP3    H150265   6.073   8.225   5.361
16796TIP3    H250266   6.012   8.245   5.498
16797TIP3   OH250267   5.708   7.760   5.092
16797TIP3    H150268   5.627   7.757   5.146
16797TIP3    H250269   5.778   7.755   5.160
16798TIP3   OH250270   5.144   7.814   5.100
16798TIP3    H150271   5.049   7.820   5.073
16798TIP3    H250272   5.168   7.723   5.077
16799TIP3   OH250273   5.412   7.810   4.788
16799TIP3    H150274   5.507   7.825   4.768
16799TIP3    H250275   5.367   7.834   4.704
16800TIP3   OH250276   6.201   7.835   5.295
16800TIP3    H150277   6.165   7.846   5.386
16800TIP3    H250278   6.136   7.773   5.257
16801TIP3   OH250279   5.252   7.845   4.566
16801TIP3    H150280   5.182   7.799   4.516
16801TIP3    H250281   5.305   7.881   4.492
16802TIP3   OH250282   6.369   9.523   5.512
16802TIP3    H150283   6.367   9.545   5.417
16802TIP3    H250284   6.451   9.570   5.540
16803TIP3   OH250285   5.328   8.633   5.934
16803TIP3    H150286   5.407   8.664   5.982
16803TIP3    H250287   5.262   8.631   6.006
16804TIP3   OH250288   5.792   8.087   5.189
16804TIP3    H150289   5.864   8.046   5.139
16804TIP3    H250290   5.801   8.044   5.276
16805TIP3   OH250291   5.314   7.574   5.067
16805TIP3    H150292   5.281   7.494   5.114
16805TIP3    H250293   5.368   7.536   4.997
16806TIP3   OH250294   5.768   7.983   5.478
16806TIP3    H150295   5.678   8.018   5.494
16806TIP3    H250296   5.825   8.043   5.529
16807TIP3   OH250297   5.504   8.375   4.572
16807TIP3    H150298   5.432   8.309   4.562
16807TIP3    H250299   5.487   8.407   4.664
16808TIP3   OH250300   6.405   8.610   5.204
16808TIP3    H150301   6.430   8.658   5.122
16808TIP3    H250302   6.320   8.569   5.178
16809TIP3   OH250303   5.963   7.686   4.437
16809TIP3    H150304   5.866   7.670   4.444
16809TIP3    H250305   5.973   7.781   4.459
16810TIP3   OH250306   5.909   8.694   5.570
16810TIP3    H150307   5.924   8.667   5.661
16810TIP3    H250308   5.865   8.780   5.579
16811TIP3   OH250309   6.033   7.933   4.539
16811TIP3    H150310   6.129   7.939   4.554
16811TIP3    H250311   6.015   8.012   4.484
16812TIP3   OH250312   5.197   8.396   5.250
16812TIP3    H150313   5.237   8.367   5.165
16812TIP3    H250314   5.237   8.333   5.313
16813TIP3   OH250315   5.651   8.523   4.395
16813TIP3    H150316   5.604   8.610   4.402
16813TIP3    H250317   5.596   8.467   4.455
16814TIP3   OH250318   5.078   8.316   5.862
16814TIP3    H150319   5.098   8.302   5.957
16814TIP3    H250320   5.009   8.249   5.847
16815TIP3   OH250321   5.802   8.431   5.882
16815TIP3    H150322   5.743   8.371   5.835
16815TIP3    H250323   5.890   8.396   5.855
16816TIP3   OH250324   6.065   8.956   5.464
16816TIP3    H150325   5.969   8.949   5.477
16816TIP3    H250326   6.091   9.006   5.545
16817TIP3   OH250327   6.475   8.023   4.376
16817TIP3    H150328   6.413   7.978   4.314
16817TIP3    H250329   6.472   8.112   4.333
16818TIP3   OH250330   6.693   8.883   5.456
16818TIP3    H150331   6.595   8.875   5.447
16818TIP3    H250332   6.720   8.852   5.366
16819TIP3   OH250333   6.174   8.842   4.284
16819TIP3    H150334   6.152   8.769   4.343
16819TIP3    H250335   6.188   8.798   4.198
16820TIP3   OH250336   6.171   8.472   5.122
16820TIP3    H150337   6.078   8.445   5.135
16820TIP3    H250338   6.206   8.392   5.078
16821TIP3   OH250339   5.297   8.698   4.876
16821TIP3    H150340   5.298   8.779   4.821
16821TIP3    H250341   5.203   8.682   4.885
16822TIP3   OH250342   4.860   8.005   4.575
16822TIP3    H150343   4.908   8.087   4.597
16822TIP3    H250344   4.784   8.010   4.638
16823TIP3   OH250345   5.437   8.465   4.819
16823TIP3    H150346   5.402   8.555   4.838
16823TIP3    H250347   5.401   8.415   4.894
16824TIP3   OH250348   5.567   9.043   5.344
16824TIP3    H150349   5.609   9.115   5.293
16824TIP3    H250350   5.643   9.008   5.392
16825TIP3   OH250351   5.215   8.939   4.726
16825TIP3    H150352   5.129   8.941   4.773
16825TIP3    H250353   5.242   9.032   4.732
16826TIP3   OH250354   5.958   8.679   5.301
16826TIP3    H150355   5.948   8.677   5.399
16826TIP3    H250356   6.034   8.622   5.287
16827TIP3   OH250357   5.930   8.571   4.186
16827TIP3    H150358   5.983   8.546   4.265
16827TIP3    H250359   5.842   8.542   4.215
16828TIP3   OH250360   6.205   9.214   5.356
16828TIP3    H150361   6.128   9.154   5.348
16828TIP3    H250362   6.189   9.276   5.281
16829TIP3   OH250363   6.270   9.045   4.005
16829TIP3    H150364   6.309   9.116   3.952
16829TIP3    H250365   6.190   9.092   4.037
16830TIP3   OH250366   5.290   7.822   5.871
16830TIP3    H150367   5.194   7.826   5.886
16830TIP3    H250368   5.319   7.763   5.943
16831TIP3   OH250369   6.090   8.507   4.404
16831TIP3    H150370   6.080   8.438   4.473
16831TIP3    H250371   6.187   8.504   4.390
16832TIP3   OH250372   5.008   8.906   5.502
16832TIP3    H150373   5.058   8.830   5.535
16832TIP3    H250374   5.031   8.973   5.568
16833TIP3   OH250375   5.296   8.552   4.185
16833TIP3    H150376   5.311   8.461   4.154
16833TIP3    H250377   5.277   8.537   4.280
16834TIP3   OH250378   5.242   8.555   4.458
16834TIP3    H150379   5.314   8.527   4.515
16834TIP3    H250380   5.247   8.653   4.465
16835TIP3   OH250381   4.976   8.248   4.659
16835TIP3    H150382   4.912   8.293   4.717
16835TIP3    H250383   4.993   8.318   4.593
16836TIP3   OH250384   6.124   7.887   5.554
16836TIP3    H150385   6.207   7.923   5.591
16836TIP3    H250386   6.111   7.806   5.606
16837TIP3   OH250387   6.005   7.638   4.717
16837TIP3    H150388   5.992   7.661   4.623
16837TIP3    H250389   6.046   7.720   4.752
16838TIP3   OH250390   5.508   8.753   4.408
16838TIP3    H150391   5.421   8.782   4.441
16838TIP3    H250392   5.524   8.820   4.339
16839TIP3   OH250393   5.694   7.817   4.819
16839TIP3    H150394   5.760   7.887   4.801
16839TIP3    H250395   5.701   7.809   4.917
16840TIP3   OH250396   5.965   8.135   5.627
16840TIP3    H150397   5.986   8.187   5.707
16840TIP3    H250398   6.020   8.056   5.639
16841TIP3   OH250399   5.841   7.544   4.922
16841TIP3    H150400   5.836   7.619   4.983
16841TIP3    H250401   5.901   7.580   4.853
16842TIP3   OH250402   5.250   8.829   4.472
16842TIP3    H150403   5.221   8.899   4.409
16842TIP3    H250404   5.233   8.871   4.558
16843TIP3   OH250405   5.352   7.541   4.711
16843TIP3    H150406   5.349   7.632   4.748
16843TIP3    H250407   5.448   7.523   4.719
16844TIP3   OH250408   6.606   8.037   5.606
16844TIP3    H150409   6.508   8.036   5.615
16844TIP3    H250410   6.616   7.992   5.521
16845TIP3   OH250411   6.256   8.231   4.997
16845TIP3    H150412   6.181   8.170   5.008
16845TIP3    H250413   6.328   8.183   5.044
16846TIP3   OH250414   4.968   8.460   4.466
16846TIP3    H150415   5.035   8.530   4.475
16846TIP3    H250416   5.014   8.404   4.399
16847TIP3   OH250417   4.915   7.735   4.600
16847TIP3    H150418   4.914   7.832   4.594
16847TIP3    H250419   4.832   7.712   4.557
16848TIP3   OH250420   6.224   9.187   4.946
16848TIP3    H150421   6.182   9.234   4.871
16848TIP3    H250422   6.318   9.205   4.926
16849TIP3   OH250423   5.301   7.454   5.473
16849TIP3    H150424   5.269   7.420   5.387
16849TIP3    H250425   5.291   7.376   5.531
16850TIP3   OH250426   4.841   8.673   4.853
16850TIP3    H150427   4.772   8.705   4.913
16850TIP3    H250428   4.812   8.715   4.768
16851TIP3   OH250429   4.996   9.214   5.923
16851TIP3    H150430   5.082   9.212   5.971
16851TIP3    H250431   4.973   9.119   5.923
16852TIP3   OH250432   5.481   9.180   5.968
16852TIP3    H150433   5.574   9.156   5.975
16852TIP3    H250434   5.452   9.121   5.895
16853TIP3   OH250435   5.461   8.756   4.100
16853TIP3    H150436   5.405   8.683   4.137
16853TIP3    H250437   5.535   8.705   4.063
16854TIP3   OH250438   6.116   9.088   5.702
16854TIP3    H150439   6.106   9.014   5.767
16854TIP3    H250440   6.195   9.133   5.733
16855TIP3   OH250441   5.895   8.796   4.009
16855TIP3    H150442   5.941   8.732   4.066
16855TIP3    H250443   5.951   8.796   3.928
16856TIP3   OH250444   5.128   8.622   6.125
16856TIP3    H150445   5.144   8.526   6.131
16856TIP3    H250446   5.039   8.624   6.082
16857TIP3   OH250447   5.104   8.272   4.318
16857TIP3    H150448   5.159   8.238   4.391
16857TIP3    H250449   5.170   8.276   4.246
16858TIP3   OH250450   5.736   8.706   5.897
16858TIP3    H150451   5.692   8.720   5.812
16858TIP3    H250452   5.766   8.613   5.891
16859TIP3   OH250453   5.612   8.469   4.126
16859TIP3    H150454   5.616   8.482   4.223
16859TIP3    H250455   5.613   8.371   4.121
16860TIP3   OH250456   6.229   8.713   5.506
16860TIP3    H150457   6.302   8.759   5.460
16860TIP3    H250458   6.155   8.775   5.492
16861TIP3   OH250459   5.247   8.356   6.106
16861TIP3    H150460   5.318   8.293   6.089
16861TIP3    H250461   5.271   8.387   6.195
16862TIP3   OH250462   5.312   8.175   4.540
16862TIP3    H150463   5.287   8.133   4.624
16862TIP3    H250464   5.348   8.100   4.489
16863TIP3   OH250465   5.582   8.241   5.769
16863TIP3    H150466   5.503   8.300   5.771
16863TIP3    H250467   5.630   8.274   5.690
16864TIP3   OH250468   5.413   7.969   4.381
16864TIP3    H150469   5.387   7.970   4.287
16864TIP3    H250470   5.511   7.975   4.373
16865TIP3   OH250471   6.100   8.641   5.902
16865TIP3    H150472   6.177   8.612   5.851
16865TIP3    H250473   6.095   8.574   5.972
16866TIP3   OH250474   6.234   8.300   4.044
16866TIP3    H150475   6.214   8.253   3.961
16866TIP3    H250476   6.203   8.390   4.019
16867TIP3   OH250477   5.704   8.028   5.895
16867TIP3    H150478   5.705   7.947   5.840
16867TIP3    H250479   5.660   8.093   5.837
16868TIP3   OH250480   5.707   7.814   5.701
16868TIP3    H150481   5.734   7.854   5.617
16868TIP3    H250482   5.614   7.790   5.684
16869TIP3   OH250483   5.735   8.350   5.575
16869TIP3    H150484   5.817   8.356   5.525
16869TIP3    H250485   5.679   8.417   5.530
16870TIP3   OH250486   6.319   8.317   5.957
16870TIP3    H150487   6.362   8.231   5.969
16870TIP3    H250488   6.390   8.369   5.917
16871TIP3   OH250489   6.358   8.572   5.697
16871TIP3    H150490   6.301   8.624   5.636
16871TIP3    H250491   6.446   8.589   5.655
16872TIP3   OH250492   5.582   8.140   6.124
16872TIP3    H150493   5.513   8.073   6.139
16872TIP3    H250494   5.618   8.113   6.037
16873TIP3   OH250495   5.840   7.578   5.768
16873TIP3    H150496   5.791   7.660   5.746
16873TIP3    H250497   5.770   7.510   5.757
16874TIP3   OH250498   5.964   8.084   5.985
16874TIP3    H150499   5.953   8.070   6.081
16874TIP3    H250500   5.875   8.058   5.955
16875TIP3   OH250501   6.206   8.035   5.841
16875TIP3    H150502   6.129   8.032   5.902
16875TIP3    H250503   6.278   8.001   5.898
16876TIP3   OH250504   6.435   7.972   5.992
16876TIP3    H150505   6.447   7.877   6.010
16876TIP3    H250506   6.430   8.010   6.082
16877TIP3   OH250507   5.423   7.920   6.177
16877TIP3    H150508   5.429   7.828   6.143
16877TIP3    H250509   5.459   7.908   6.268
16878TIP3   OH250510   5.935   7.589   6.026
16878TIP3    H150511   6.002   7.518   6.021
16878TIP3    H250512   5.895   7.581   5.937
16879TIP3   OH250513   6.001   7.804   6.183
16879TIP3    H150514   5.978   7.732   6.120
16879TIP3    H250515   5.922   7.862   6.178
16880TIP3   OH250516   5.221   9.037   4.288
16880TIP3    H150517   5.316   9.028   4.267
16880TIP3    H250518   5.190   9.078   4.206
16881TIP3   OH250519   4.700   8.413   4.501
16881TIP3    H150520   4.795   8.435   4.489
16881TIP3    H250521   4.696   8.324   4.460
16882TIP3   OH250522   4.615   9.025   4.914
16882TIP3    H150523   4.547   8.963   4.880
16882TIP3    H250524   4.660   8.968   4.981
16883TIP3   OH250525   4.752   8.876   5.102
16883TIP3    H150526   4.738   8.803   5.165
16883TIP3    H250527   4.799   8.939   5.159
16884TIP3   OH250528   6.476   9.279   4.902
16884TIP3    H150529   6.506   9.314   4.987
16884TIP3    H250530   6.540   9.318   4.840
16885TIP3   OH250531   6.506   9.299   5.187
16885TIP3    H150532   6.463   9.211   5.180
16885TIP3    H250533   6.585   9.274   5.238
16886TIP3   OH250534   6.555   8.978   5.758
16886TIP3    H150535   6.481   8.982   5.821
16886TIP3    H250536   6.595   9.066   5.766
16887TIP3   OH250537   6.369   8.488   4.377
16887TIP3    H150538   6.438   8.550   4.348
16887TIP3    H250539   6.412   8.447   4.456
16888TIP3   OH250540   6.497   8.355   4.581
16888TIP3    H150541   6.432   8.312   4.640
16888TIP3    H250542   6.562   8.392   4.643
16889TIP3   OH250543   6.551   8.746   5.012
16889TIP3    H150544   6.605   8.681   4.963
16889TIP3    H250545   6.545   8.820   4.949
16890TIP3   OH250546   6.383   9.047   5.208
16890TIP3    H150547   6.311   9.087   5.259
16890TIP3    H250548   6.334   8.998   5.138
16891TIP3   OH250549   6.435   8.262   4.228
16891TIP3    H150550   6.364   8.265   4.160
16891TIP3    H250551   6.408   8.339   4.283
16892TIP3   OH250552   6.304   7.936   4.184
16892TIP3    H150553   6.266   7.973   4.103
16892TIP3    H250554   6.280   7.841   4.174
16893TIP3   OH250555   6.311   8.210   4.726
16893TIP3    H150556   6.320   8.113   4.721
16893TIP3    H250557   6.298   8.225   4.822
16894TIP3   OH250558   4.938   8.285   5.473
16894TIP3    H150559   4.936   8.253   5.380
16894TIP3    H250560   5.035   8.286   5.490
16895TIP3   OH250561   6.600   8.635   5.585
16895TIP3    H150562   6.672   8.568   5.576
16895TIP3    H250563   6.627   8.702   5.521
16896TIP3   OH250564   6.786   8.442   5.604
16896TIP3    H150565   6.711   8.390   5.640
16896TIP3    H250566   6.858   8.377   5.617
16897TIP3   OH250567   6.250   7.670   4.170
16897TIP3    H150568   6.326   7.638   4.222
16897TIP3    H250569   6.178   7.609   4.194
16898TIP3   OH250570   6.307   7.927   4.622
16898TIP3    H150571   6.348   7.838   4.638
16898TIP3    H250572   6.366   7.960   4.551
16899TIP3   OH250573   6.469   8.102   5.116
16899TIP3    H150574   6.556   8.128   5.076
16899TIP3    H250575   6.483   8.137   5.206
16900TIP3   OH250576   6.538   8.245   5.350
16900TIP3    H150577   6.460   8.279   5.398
16900TIP3    H250578   6.570   8.326   5.304
16901TIP3   OH250579   5.156   7.972   6.148
16901TIP3    H150580   5.254   7.965   6.151
16901TIP3    H250581   5.131   7.887   6.189
16902TIP3   OH250582   6.989   7.836   5.905
16902TIP3    H150583   7.047   7.769   5.863
16902TIP3    H250584   6.963   7.891   5.829
16903TIP3   OH250585   6.416   7.677   4.661
16903TIP3    H150586   6.465   7.660   4.744
16903TIP3    H250587   6.356   7.599   4.658
16904TIP3   OH250588   5.116   7.662   5.478
16904TIP3    H150589   5.179   7.588   5.490
16904TIP3    H250590   5.178   7.738   5.473
16905TIP3   OH250591   4.919   7.936   5.552
16905TIP3    H150592   4.969   7.931   5.468
16905TIP3    H250593   4.948   8.022   5.586
16906TIP3   OH250594   6.861   7.976   5.710
16906TIP3    H150595   6.773   8.014   5.728
16906TIP3    H250596   6.835   7.902   5.652
16907TIP3   OH250597   6.498   7.611   4.292
16907TIP3    H150598   6.538   7.539   4.240
16907TIP3    H250599   6.565   7.682   4.285
16908TIP3   OH250600   4.902   7.437   5.052
16908TIP3    H150601   4.809   7.438   5.081
16908TIP3    H250602   4.900   7.497   4.974
16909TIP3   OH250603   6.061   9.146   4.560
16909TIP3    H150604   6.110   9.127   4.477
16909TIP3    H250605   6.119   9.209   4.603
16910TIP3   OH250606   5.122   7.520   5.867
16910TIP3    H150607   5.073   7.514   5.951
16910TIP3    H250608   5.055   7.559   5.808
16911TIP3   OH250609   5.163   8.947   5.945
16911TIP3    H150610   5.071   8.920   5.927
16911TIP3    H250611   5.171   8.927   6.040
16912TIP3   OH250612   5.341   8.979   5.493
16912TIP3    H150613   5.291   9.053   5.455
16912TIP3    H250614   5.426   8.994   5.448
16913TIP3   OH250615   5.787   9.224   5.631
16913TIP3    H150616   5.829   9.225   5.719
16913TIP3    H250617   5.852   9.274   5.578
16914TIP3   OH250618   5.964   9.377   5.488
16914TIP3    H150619   6.034   9.324   5.445
16914TIP3    H250620   6.017   9.433   5.548
16915TIP3   OH250621   6.760   7.737   5.589
16915TIP3    H150622   6.668   7.729   5.557
16915TIP3    H250623   6.792   7.645   5.577
16916TIP3   OH250624   5.019   9.241   5.513
16916TIP3    H150625   4.928   9.272   5.492
16916TIP3    H250626   5.026   9.270   5.605
16917TIP3   OH250627   5.254   9.217   5.372
16917TIP3    H150628   5.168   9.229   5.420
16917TIP3    H250629   5.230   9.246   5.282
16918TIP3   OH250630   5.680   9.244   5.171
16918TIP3    H150631   5.611   9.265   5.105
16918TIP3    H250632   5.692   9.331   5.215
16919TIP3   OH250633   5.949   9.186   5.224
16919TIP3    H150634   5.855   9.200   5.203
16919TIP3    H250635   5.991   9.260   5.179
16920TIP3   OH250636   6.156   9.376   5.138
16920TIP3    H150637   6.141   9.461   5.089
16920TIP3    H250638   6.182   9.316   5.065
16921TIP3   OH250639   4.931   9.032   5.261
16921TIP3    H150640   4.955   9.004   5.352
16921TIP3    H250641   5.001   8.986   5.210
16922TIP3   OH250642   5.123   8.902   5.117
16922TIP3    H150643   5.136   8.817   5.166
16922TIP3    H250644   5.214   8.937   5.115
16923TIP3   OH250645   5.391   8.999   5.119
16923TIP3    H150646   5.420   8.907   5.106
16923TIP3    H250647   5.434   9.017   5.205
16924TIP3   OH250648   5.962   7.652   5.205
16924TIP3    H150649   5.921   7.582   5.259
16924TIP3    H250650   6.036   7.605   5.163
16925TIP3   OH250651   6.487   7.535   5.114
16925TIP3    H150652   6.524   7.585   5.038
16925TIP3    H250653   6.392   7.552   5.106
16926TIP3   OH250654   6.582   7.634   4.877
16926TIP3    H150655   6.655   7.582   4.837
16926TIP3    H250656   6.616   7.725   4.862
16927TIP3   OH250657   5.213   7.362   5.224
16927TIP3    H150658   5.121   7.327   5.226
16927TIP3    H250659   5.263   7.277   5.222
16928TIP3   OH250660   4.994   7.232   4.870
16928TIP3    H150661   5.029   7.289   4.799
16928TIP3    H250662   4.969   7.297   4.939
16929TIP3   OH250663   5.655   7.396   5.105
16929TIP3    H150664   5.715   7.444   5.045
16929TIP3    H250665   5.681   7.430   5.191
16930TIP3   OH250666   6.203   7.541   5.089
16930TIP3    H150667   6.203   7.503   5.000
16930TIP3    H250668   6.190   7.460   5.144
16931TIP3   OH250669   6.234   7.463   4.651
16931TIP3    H150670   6.146   7.505   4.662
16931TIP3    H250671   6.219   7.378   4.697
16932TIP3   OH250672   4.717   8.802   4.651
16932TIP3    H150673   4.631   8.770   4.617
16932TIP3    H250674   4.706   8.897   4.633
16933TIP3   OH250675   5.116   7.392   4.635
16933TIP3    H150676   5.165   7.329   4.579
16933TIP3    H250677   5.190   7.446   4.671
16934TIP3   OH250678   5.629   7.566   4.734
16934TIP3    H150679   5.689   7.519   4.794
16934TIP3    H250680   5.650   7.659   4.759
16935TIP3   OH250681   5.489   8.992   4.234
16935TIP3    H150682   5.577   9.014   4.198
16935TIP3    H250683   5.466   8.917   4.175
16936TIP3   OH250684   6.205   9.109   4.327
16936TIP3    H150685   6.198   9.011   4.313
16936TIP3    H250686   6.163   9.142   4.246
16937TIP3   OH250687   5.421   7.643   6.115
16937TIP3    H150688   5.388   7.573   6.173
16937TIP3    H250689   5.516   7.644   6.142
16938TIP3   OH250690   5.670   7.639   6.234
16938TIP3    H150691   5.755   7.612   6.197
16938TIP3    H250692   5.656   7.570   6.302
16939TIP3   OH250693   4.792   8.826   4.290
16939TIP3    H150694   4.792   8.853   4.383
16939TIP3    H250695   4.881   8.785   4.280
16940TIP3   OH250696   6.494   7.702   6.023
16940TIP3    H150697   6.514   7.670   6.114
16940TIP3    H250698   6.583   7.696   5.981
16941TIP3   OH250699   6.431   9.253   5.520
16941TIP3    H150700   6.355   9.221   5.467
16941TIP3    H250701   6.414   9.350   5.517
16942TIP3   OH250702   7.702   8.630   4.273
16942TIP3    H150703   7.666   8.720   4.261
16942TIP3    H250704   7.626   8.576   4.246
16943TIP3   OH250705   7.693   8.625   4.663
16943TIP3    H150706   7.731   8.600   4.749
16943TIP3    H250707   7.655   8.541   4.633
16944TIP3   OH250708   6.998   8.522   5.029
16944TIP3    H150709   7.029   8.454   5.092
16944TIP3    H250710   7.078   8.574   5.016
16945TIP3   OH250711   6.970   8.931   4.753
16945TIP3    H150712   6.961   8.833   4.754
16945TIP3    H250713   7.067   8.939   4.747
16946TIP3   OH250714   6.675   8.136   4.538
16946TIP3    H150715   6.626   8.218   4.550
16946TIP3    H250716   6.607   8.080   4.498
16947TIP3   OH250717   6.736   8.421   4.709
16947TIP3    H150718   6.785   8.344   4.746
16947TIP3    H250719   6.794   8.448   4.636
16948TIP3   OH250720   7.584   9.394   4.360
16948TIP3    H150721   7.637   9.323   4.317
16948TIP3    H250722   7.581   9.363   4.452
16949TIP3   OH250723   7.498   8.851   4.709
16949TIP3    H150724   7.537   8.772   4.667
16949TIP3    H250725   7.582   8.897   4.733
16950TIP3   OH250726   8.510   8.174   4.705
16950TIP3    H150727   8.538   8.256   4.750
16950TIP3    H250728   8.531   8.194   4.613
16951TIP3   OH250729   7.911   8.354   4.742
16951TIP3    H150730   7.953   8.269   4.763
16951TIP3    H250731   7.879   8.338   4.651
16952TIP3   OH250732   7.247   8.013   4.708
16952TIP3    H150733   7.227   8.085   4.645
16952TIP3    H250734   7.200   7.939   4.664
16953TIP3   OH250735   7.941   8.105   4.330
16953TIP3    H150736   8.013   8.088   4.395
16953TIP3    H250737   7.993   8.138   4.254
16954TIP3   OH250738   6.882   8.214   4.815
16954TIP3    H150739   6.965   8.193   4.862
16954TIP3    H250740   6.893   8.159   4.735
16955TIP3   OH250741   7.322   8.413   4.609
16955TIP3    H150742   7.416   8.387   4.622
16955TIP3    H250743   7.283   8.329   4.576
16956TIP3   OH250744   8.583   8.377   4.878
16956TIP3    H150745   8.499   8.426   4.860
16956TIP3    H250746   8.600   8.405   4.969
16957TIP3   OH250747   7.245   7.996   5.142
16957TIP3    H150748   7.185   8.032   5.074
16957TIP3    H250749   7.193   8.014   5.223
16958TIP3   OH250750   7.610   8.865   4.147
16958TIP3    H150751   7.561   8.828   4.072
16958TIP3    H250752   7.552   8.942   4.169
16959TIP3   OH250753   7.351   8.771   4.937
16959TIP3    H150754   7.288   8.837   4.974
16959TIP3    H250755   7.394   8.822   4.866
16960TIP3   OH250756   8.150   8.107   4.501
16960TIP3    H150757   8.150   8.051   4.580
16960TIP3    H250758   8.207   8.181   4.529
16961TIP3   OH250759   7.115   8.111   4.926
16961TIP3    H150760   7.178   8.183   4.949
16961TIP3    H250761   7.164   8.069   4.851
16962TIP3   OH250762   7.178   8.965   5.035
16962TIP3    H150763   7.153   9.051   4.995
16962TIP3    H250764   7.100   8.950   5.092
16963TIP3   OH250765   6.573   8.655   4.271
16963TIP3    H150766   6.533   8.679   4.186
16963TIP3    H250767   6.603   8.741   4.306
16964TIP3   OH250768   8.017   9.176   4.514
16964TIP3    H150769   7.927   9.154   4.548
16964TIP3    H250770   7.999   9.263   4.472
16965TIP3   OH250771   8.304   8.073   4.873
16965TIP3    H150772   8.216   8.101   4.843
16965TIP3    H250773   8.362   8.105   4.801
16966TIP3   OH250774   7.600   7.715   4.854
16966TIP3    H150775   7.590   7.620   4.873
16966TIP3    H250776   7.523   7.751   4.901
16967TIP3   OH250777   7.714   9.223   4.194
16967TIP3    H150778   7.758   9.137   4.185
16967TIP3    H250779   7.778   9.284   4.149
16968TIP3   OH250780   8.234   9.086   4.855
16968TIP3    H150781   8.229   9.008   4.795
16968TIP3    H250782   8.223   9.160   4.792
16969TIP3   OH250783   7.532   8.481   4.110
16969TIP3    H150784   7.449   8.526   4.087
16969TIP3    H250785   7.574   8.469   4.023
16970TIP3   OH250786   7.490   8.259   3.834
16970TIP3    H150787   7.562   8.310   3.875
16970TIP3    H250788   7.543   8.195   3.782
16971TIP3   OH250789   8.433   8.718   4.696
16971TIP3    H150790   8.352   8.773   4.704
16971TIP3    H250791   8.463   8.741   4.606
16972TIP3   OH250792   7.885   8.573   4.082
16972TIP3    H150793   7.823   8.584   4.158
16972TIP3    H250794   7.959   8.527   4.126
16973TIP3   OH250795   8.113   8.599   4.995
16973TIP3    H150796   8.111   8.684   5.044
16973TIP3    H250797   8.028   8.604   4.948
16974TIP3   OH250798   7.111   8.559   4.499
16974TIP3    H150799   7.068   8.501   4.433
16974TIP3    H250800   7.187   8.504   4.528
16975TIP3   OH250801   7.240   8.969   4.648
16975TIP3    H150802   7.219   8.925   4.565
16975TIP3    H250803   7.330   8.936   4.667
16976TIP3   OH250804   7.245   8.529   4.855
16976TIP3    H150805   7.279   8.507   4.766
16976TIP3    H250806   7.290   8.614   4.874
16977TIP3   OH250807   7.770   9.164   4.627
16977TIP3    H150808   7.761   9.245   4.681
16977TIP3    H250809   7.759   9.092   4.692
16978TIP3   OH250810   7.384   9.087   5.178
16978TIP3    H150811   7.324   9.149   5.224
16978TIP3    H250812   7.318   9.033   5.129
16979TIP3   OH250813   7.720   8.420   3.910
16979TIP3    H150814   7.782   8.477   3.960
16979TIP3    H250815   7.744   8.443   3.817
16980TIP3   OH250816   7.139   8.643   5.280
16980TIP3    H150817   7.142   8.730   5.325
16980TIP3    H250818   7.044   8.623   5.286
16981TIP3   OH250819   7.461   9.098   4.182
16981TIP3    H150820   7.523   9.164   4.216
16981TIP3    H250821   7.394   9.152   4.139
16982TIP3   OH250822   7.178   9.256   5.265
16982TIP3    H150823   7.145   9.253   5.173
16982TIP3    H250824   7.098   9.234   5.317
16983TIP3   OH250825   8.234   7.659   3.957
16983TIP3    H150826   8.153   7.679   4.008
16983TIP3    H250827   8.246   7.742   3.906
16984TIP3   OH250828   6.975   8.402   4.308
16984TIP3    H150829   6.910   8.445   4.250
16984TIP3    H250830   6.938   8.313   4.316
16985TIP3   OH250831   8.034   9.036   3.516
16985TIP3    H150832   8.025   9.129   3.484
16985TIP3    H250833   8.113   9.007   3.467
16986TIP3   OH250834   6.757   8.785   5.211
16986TIP3    H150835   6.693   8.762   5.142
16986TIP3    H250836   6.795   8.698   5.236
16987TIP3   OH250837   6.612   8.976   4.846
16987TIP3    H150838   6.707   8.968   4.833
16987TIP3    H250839   6.606   9.057   4.900
16988TIP3   OH250840   8.459   9.422   4.890
16988TIP3    H150841   8.475   9.328   4.912
16988TIP3    H250842   8.379   9.441   4.943
16989TIP3   OH250843   7.582   9.216   5.035
16989TIP3    H150844   7.581   9.308   5.068
16989TIP3    H250845   7.511   9.175   5.089
16990TIP3   OH250846   7.343   9.346   3.985
16990TIP3    H150847   7.294   9.325   3.903
16990TIP3    H250848   7.308   9.434   4.009
16991TIP3   OH250849   6.780   9.193   4.370
16991TIP3    H150850   6.828   9.183   4.455
16991TIP3    H250851   6.725   9.112   4.371
16992TIP3   OH250852   7.546   9.247   3.628
16992TIP3    H150853   7.603   9.176   3.590
16992TIP3    H250854   7.578   9.251   3.720
16993TIP3   OH250855   7.593   9.290   3.901
16993TIP3    H150856   7.502   9.303   3.934
16993TIP3    H250857   7.635   9.253   3.980
16994TIP3   OH250858   8.363   8.559   5.176
16994TIP3    H150859   8.285   8.570   5.120
16994TIP3    H250860   8.381   8.463   5.166
16995TIP3   OH250861   6.963   8.968   5.202
16995TIP3    H150862   7.013   8.949   5.284
16995TIP3    H250863   6.889   8.904   5.208
16996TIP3   OH250864   7.361   7.791   4.984
16996TIP3    H150865   7.272   7.760   4.959
16996TIP3    H250866   7.337   7.873   5.030
16997TIP3   OH250867   7.896   7.907   5.179
16997TIP3    H150868   7.965   7.878   5.242
16997TIP3    H250869   7.813   7.885   5.226
16998TIP3   OH250870   8.134   8.334   5.096
16998TIP3    H150871   8.087   8.332   5.182
16998TIP3    H250872   8.110   8.422   5.061
16999TIP3   OH250873   7.802   8.482   3.661
16999TIP3    H150874   7.758   8.448   3.580
16999TIP3    H250875   7.887   8.511   3.624
17000TIP3   OH250876   7.508   7.840   3.956
17000TIP3    H150877   7.474   7.837   4.048
17000TIP3    H250878   7.470   7.757   3.922
17001TIP3   OH250879   7.294   8.306   5.003
17001TIP3    H150880   7.244   8.326   5.084
17001TIP3    H250881   7.277   8.387   4.950
17002TIP3   OH250882   7.177   8.193   4.517
17002TIP3    H150883   7.084   8.166   4.534
17002TIP3    H250884   7.191   8.153   4.428
17003TIP3   OH250885   7.670   8.281   4.245
17003TIP3    H150886   7.615   8.349   4.201
17003TIP3    H250887   7.723   8.246   4.171
17004TIP3   OH250888   7.842   8.558   5.332
17004TIP3    H150889   7.820   8.484   5.393
17004TIP3    H250890   7.936   8.570   5.353
17005TIP3   OH250891   7.825   8.307   4.483
17005TIP3    H150892   7.764   8.331   4.410
17005TIP3    H250893   7.862   8.225   4.443
17006TIP3   OH250894   7.112   8.336   5.212
17006TIP3    H150895   7.144   8.397   5.281
17006TIP3    H250896   7.101   8.253   5.263
17007TIP3   OH250897   7.164   7.814   3.922
17007TIP3    H150898   7.154   7.811   4.019
17007TIP3    H250899   7.085   7.864   3.896
17008TIP3   OH250900   6.705   7.859   4.793
17008TIP3    H150901   6.782   7.889   4.846
17008TIP3    H250902   6.745   7.824   4.712
17009TIP3   OH250903   6.678   7.838   4.312
17009TIP3    H150904   6.723   7.877   4.234
17009TIP3    H250905   6.617   7.911   4.334
17010TIP3   OH250906   7.832   8.554   4.906
17010TIP3    H150907   7.867   8.483   4.847
17010TIP3    H250908   7.806   8.501   4.984
17011TIP3   OH250909   7.505   8.019   4.579
17011TIP3    H150910   7.424   8.014   4.634
17011TIP3    H250911   7.575   8.010   4.646
17012TIP3   OH250912   6.939   8.070   4.587
17012TIP3    H150913   6.845   8.076   4.560
17012TIP3    H250914   6.964   7.979   4.563
17013TIP3   OH250915   7.209   8.068   4.275
17013TIP3    H150916   7.303   8.081   4.254
17013TIP3    H250917   7.163   8.091   4.191
17014TIP3   OH250918   7.997   8.092   4.783
17014TIP3    H150919   7.959   8.102   4.873
17014TIP3    H250920   7.934   8.029   4.744
17015TIP3   OH250921   7.049   8.103   4.053
17015TIP3    H150922   6.979   8.055   4.004
17015TIP3    H250923   7.102   8.137   3.978
17016TIP3   OH250924   8.162   9.777   4.992
17016TIP3    H150925   8.161   9.793   4.894
17016TIP3    H250926   8.224   9.844   5.020
17017TIP3   OH250927   7.123   8.890   5.421
17017TIP3    H150928   7.203   8.920   5.468
17017TIP3    H250929   7.059   8.888   5.496
17018TIP3   OH250930   7.589   8.345   4.676
17018TIP3    H150931   7.659   8.301   4.625
17018TIP3    H250932   7.597   8.301   4.763
17019TIP3   OH250933   7.111   7.831   4.554
17019TIP3    H150934   7.078   7.750   4.600
17019TIP3    H250935   7.163   7.793   4.482
17020TIP3   OH250936   7.564   8.239   4.965
17020TIP3    H150937   7.475   8.275   4.981
17020TIP3    H250938   7.622   8.299   5.016
17021TIP3   OH250939   7.300   8.631   4.060
17021TIP3    H150940   7.228   8.565   4.049
17021TIP3    H250941   7.282   8.664   4.152
17022TIP3   OH250942   8.204   8.868   4.689
17022TIP3    H150943   8.224   8.916   4.606
17022TIP3    H250944   8.118   8.825   4.669
17023TIP3   OH250945   7.760   7.941   3.928
17023TIP3    H150946   7.663   7.923   3.932
17023TIP3    H250947   7.767   8.036   3.945
17024TIP3   OH250948   7.699   8.947   5.057
17024TIP3    H150949   7.725   8.926   5.148
17024TIP3    H250950   7.663   9.037   5.066
17025TIP3   OH250951   7.829   8.191   4.030
17025TIP3    H150952   7.926   8.193   4.040
17025TIP3    H250953   7.812   8.265   3.968
17026TIP3   OH250954   6.994   8.653   4.736
17026TIP3    H150955   7.032   8.625   4.650
17026TIP3    H250956   7.034   8.589   4.797
17027TIP3   OH250957   7.451   8.782   3.889
17027TIP3    H150958   7.402   8.868   3.893
17027TIP3    H250959   7.393   8.725   3.944
17028TIP3   OH250960   6.872   8.575   5.351
17028TIP3    H150961   6.895   8.558   5.444
17028TIP3    H250962   6.806   8.505   5.334
17029TIP3   OH250963   7.599   8.687   5.370
17029TIP3    H150964   7.541   8.629   5.318
17029TIP3    H250965   7.687   8.654   5.343
17030TIP3   OH250966   7.860   9.208   4.953
17030TIP3    H150967   7.764   9.207   4.964
17030TIP3    H250968   7.888   9.261   5.030
17031TIP3   OH250969   8.269   8.279   3.863
17031TIP3    H150970   8.208   8.232   3.802
17031TIP3    H250971   8.270   8.366   3.817
17032TIP3   OH250972   8.484   9.134   4.946
17032TIP3    H150973   8.387   9.130   4.934
17032TIP3    H250974   8.513   9.108   4.856
17033TIP3   OH250975   7.976   9.067   3.785
17033TIP3    H150976   7.912   8.995   3.794
17033TIP3    H250977   8.001   9.058   3.691
17034TIP3   OH250978   7.972   8.722   4.623
17034TIP3    H150979   7.876   8.702   4.626
17034TIP3    H250980   8.004   8.645   4.572
17035TIP3   OH250981   7.094   8.956   4.361
17035TIP3    H150982   7.093   9.038   4.308
17035TIP3    H250983   6.999   8.939   4.369
17036TIP3   OH250984   6.658   8.261   4.065
17036TIP3    H150985   6.704   8.344   4.085
17036TIP3    H250986   6.581   8.267   4.125
17037TIP3   OH250987   7.237   8.724   4.308
17037TIP3    H150988   7.198   8.812   4.325
17037TIP3    H250989   7.198   8.672   4.381
17038TIP3   OH250990   7.364   9.299   4.831
17038TIP3    H150991   7.404   9.372   4.780
17038TIP3    H250992   7.441   9.265   4.879
17039TIP3   OH250993   7.015   9.194   4.215
17039TIP3    H150994   6.929   9.203   4.260
17039TIP3    H250995   7.047   9.288   4.218
17040TIP3   OH250996   7.753   8.935   4.788
17040TIP3    H150997   7.744   8.932   4.886
17040TIP3    H250998   7.833   8.882   4.775
17041TIP3   OH250999   7.725   8.833   3.675
17041TIP3    H151000   7.764   8.802   3.759
17041TIP3    H251001   7.634   8.800   3.684
17042TIP3   OH251002   8.000   9.470   4.841
17042TIP3    H151003   7.922   9.412   4.831
17042TIP3    H251004   7.987   9.534   4.768
17043TIP3   OH251005   8.032   9.303   3.472
17043TIP3    H151006   8.068   9.362   3.403
17043TIP3    H251007   7.960   9.360   3.508
17044TIP3   OH251008   7.086   8.080   5.358
17044TIP3    H151009   6.989   8.082   5.370
17044TIP3    H251010   7.114   8.018   5.428
17045TIP3   OH251011   7.890   8.789   3.914
17045TIP3    H151012   7.862   8.707   3.961
17045TIP3    H251013   7.974   8.759   3.873
17046TIP3   OH251014   6.800   9.163   4.991
17046TIP3    H151015   6.853   9.087   5.020
17046TIP3    H251016   6.835   9.233   5.049
17047TIP3   OH251017   7.095   8.807   3.672
17047TIP3    H151018   7.104   8.715   3.640
17047TIP3    H251019   7.073   8.793   3.766
17048TIP3   OH251020   7.037   8.812   3.945
17048TIP3    H151021   7.109   8.784   4.003
17048TIP3    H251022   7.042   8.910   3.951
17049TIP3   OH251023   6.774   8.506   4.147
17049TIP3    H151024   6.708   8.550   4.203
17049TIP3    H251025   6.789   8.575   4.079
17050TIP3   OH251026   7.919   8.146   5.042
17050TIP3    H151027   8.003   8.181   5.076
17050TIP3    H251028   7.907   8.063   5.094
17051TIP3   OH251029   7.798   7.896   4.205
17051TIP3    H151030   7.787   7.916   4.110
17051TIP3    H251031   7.841   7.977   4.239
17052TIP3   OH251032   7.305   9.011   3.896
17052TIP3    H151033   7.217   9.039   3.928
17052TIP3    H251034   7.317   9.074   3.823
17053TIP3   OH251035   7.491   8.075   4.307
17053TIP3    H151036   7.558   8.144   4.289
17053TIP3    H251037   7.497   8.066   4.404
17054TIP3   OH251038   7.761   8.391   5.114
17054TIP3    H151039   7.784   8.444   5.193
17054TIP3    H251040   7.817   8.312   5.124
17055TIP3   OH251041   7.636   7.800   4.409
17055TIP3    H151042   7.635   7.875   4.470
17055TIP3    H251043   7.696   7.835   4.339
17056TIP3   OH251044   7.048   9.086   3.960
17056TIP3    H151045   7.018   9.154   3.896
17056TIP3    H251046   7.031   9.130   4.046
17057TIP3   OH251047   7.147   7.798   4.199
17057TIP3    H151048   7.145   7.889   4.235
17057TIP3    H251049   7.243   7.779   4.206
17058TIP3   OH251050   8.401   8.292   5.095
17058TIP3    H151051   8.303   8.291   5.101
17058TIP3    H251052   8.412   8.249   5.009
17059TIP3   OH251053   8.053   8.486   4.481
17059TIP3    H151054   7.977   8.426   4.495
17059TIP3    H251055   8.124   8.440   4.530
17060TIP3   OH251056   6.765   8.716   3.953
17060TIP3    H151057   6.832   8.786   3.960
17060TIP3    H251058   6.809   8.660   3.886
17061TIP3   OH251059   6.710   7.990   4.088
17061TIP3    H151060   6.709   8.088   4.082
17061TIP3    H251061   6.630   7.966   4.039
17062TIP3   OH251062   7.994   9.437   4.430
17062TIP3    H151063   7.956   9.486   4.353
17062TIP3    H251064   8.089   9.457   4.413
17063TIP3   OH251065   7.096   7.711   4.960
17063TIP3    H151066   7.066   7.678   4.873
17063TIP3    H251067   7.086   7.632   5.017
17064TIP3   OH251068   6.638   8.933   4.342
17064TIP3    H151069   6.564   8.962   4.396
17064TIP3    H251070   6.613   8.971   4.255
17065TIP3   OH251071   6.793   9.470   5.414
17065TIP3    H151072   6.880   9.469   5.459
17065TIP3    H251073   6.774   9.375   5.409
17066TIP3   OH251074   7.276   9.435   5.457
17066TIP3    H151075   7.370   9.413   5.462
17066TIP3    H251076   7.249   9.378   5.382
17067TIP3   OH251077   7.258   9.011   3.588
17067TIP3    H151078   7.202   8.938   3.623
17067TIP3    H251079   7.330   8.960   3.547
17068TIP3   OH251080   7.910   9.345   5.187
17068TIP3    H151081   7.901   9.270   5.250
17068TIP3    H251082   7.989   9.392   5.220
17069TIP3   OH251083   7.694   9.055   3.499
17069TIP3    H151084   7.734   8.982   3.550
17069TIP3    H251085   7.741   9.053   3.414
17070TIP3   OH251086   6.922   8.877   5.613
17070TIP3    H151087   6.941   8.782   5.616
17070TIP3    H251088   6.836   8.879   5.567
17071TIP3   OH251089   6.900   8.529   3.805
17071TIP3    H151090   6.955   8.493   3.876
17071TIP3    H251091   6.966   8.532   3.732
17072TIP3   OH251092   7.529   8.961   5.386
17072TIP3    H151093   7.490   8.977   5.298
17072TIP3    H251094   7.563   8.869   5.378
17073TIP3   OH251095   7.418   8.728   3.616
17073TIP3    H151096   7.412   8.738   3.713
17073TIP3    H251097   7.418   8.630   3.608
17074TIP3   OH251098   8.023   8.970   4.993
17074TIP3    H151099   8.098   9.014   4.947
17074TIP3    H251100   7.953   9.036   4.977
17075TIP3   OH251101   7.042   8.613   5.593
17075TIP3    H151102   7.115   8.555   5.570
17075TIP3    H251103   7.068   8.643   5.682
17076TIP3   OH251104   7.111   8.431   4.028
17076TIP3    H151105   7.084   8.386   4.109
17076TIP3    H251106   7.146   8.357   3.974
17077TIP3   OH251107   7.376   8.495   5.255
17077TIP3    H151108   7.300   8.557   5.257
17077TIP3    H251109   7.426   8.529   5.177
17078TIP3   OH251110   7.209   8.226   3.868
17078TIP3    H151111   7.182   8.226   3.774
17078TIP3    H251112   7.307   8.230   3.860
17079TIP3   OH251113   7.894   8.895   5.388
17079TIP3    H151114   7.974   8.871   5.340
17079TIP3    H251115   7.892   8.830   5.459
17080TIP3   OH251116   8.034   8.559   3.534
17080TIP3    H151117   8.013   8.508   3.452
17080TIP3    H251118   8.001   8.647   3.504
17081TIP3   OH251119   7.499   8.284   5.383
17081TIP3    H151120   7.501   8.204   5.327
17081TIP3    H251121   7.457   8.349   5.324
17082TIP3   OH251122   7.503   8.071   5.189
17082TIP3    H151123   7.531   8.111   5.104
17082TIP3    H251124   7.410   8.047   5.170
17083TIP3   OH251125   7.530   8.606   5.063
17083TIP3    H151126   7.614   8.611   5.015
17083TIP3    H251127   7.476   8.674   5.017
17084TIP3   OH251128   8.117   8.575   5.447
17084TIP3    H151129   8.160   8.488   5.452
17084TIP3    H251130   8.187   8.628   5.405
17085TIP3   OH251131   8.153   8.827   5.181
17085TIP3    H151132   8.097   8.881   5.121
17085TIP3    H251133   8.241   8.845   5.140
17086TIP3   OH251134   7.377   8.397   5.612
17086TIP3    H151135   7.309   8.328   5.625
17086TIP3    H251136   7.413   8.372   5.525
17087TIP3   OH251137   7.636   7.835   5.256
17087TIP3    H151138   7.587   7.917   5.233
17087TIP3    H251139   7.567   7.767   5.244
17088TIP3   OH251140   7.761   8.340   5.472
17088TIP3    H151141   7.750   8.327   5.568
17088TIP3    H251142   7.671   8.314   5.442
17089TIP3   OH251143   8.002   8.292   5.328
17089TIP3    H151144   7.926   8.289   5.388
17089TIP3    H251145   8.075   8.258   5.384
17090TIP3   OH251146   8.227   8.227   5.480
17090TIP3    H151147   8.241   8.132   5.497
17090TIP3    H251148   8.225   8.265   5.570
17091TIP3   OH251149   7.218   8.176   5.665
17091TIP3    H151150   7.224   8.086   5.629
17091TIP3    H251151   7.255   8.162   5.755
17092TIP3   OH251152   7.730   7.844   5.514
17092TIP3    H151153   7.798   7.774   5.508
17092TIP3    H251154   7.691   7.838   5.424
17093TIP3   OH251155   7.796   8.059   5.672
17093TIP3    H151156   7.774   7.987   5.608
17093TIP3    H251157   7.718   8.117   5.664
17094TIP3   OH251158   7.017   9.288   3.773
17094TIP3    H151159   7.112   9.285   3.752
17094TIP3    H251160   6.984   9.336   3.695
17095TIP3   OH251161   6.496   8.668   3.990
17095TIP3    H151162   6.591   8.690   3.975
17095TIP3    H251163   6.491   8.580   3.948
17096TIP3   OH251164   6.408   9.281   4.404
17096TIP3    H151165   6.342   9.218   4.367
17096TIP3    H251166   6.454   9.224   4.468
17097TIP3   OH251167   6.545   9.134   4.589
17097TIP3    H151168   6.536   9.059   4.650
17097TIP3    H251169   6.598   9.195   4.645
17098TIP3   OH251170   8.237   9.535   4.384
17098TIP3    H151171   8.278   9.554   4.470
17098TIP3    H251172   8.298   9.584   4.327
17099TIP3   OH251173   8.310   9.550   4.668
17099TIP3    H151174   8.267   9.462   4.668
17099TIP3    H251175   8.389   9.528   4.721
17100TIP3   OH251176   8.349   9.237   5.242
17100TIP3    H151177   8.276   9.242   5.308
17100TIP3    H251178   8.388   9.324   5.245
17101TIP3   OH251179   8.155   8.752   3.893
17101TIP3    H151180   8.231   8.798   3.849
17101TIP3    H251181   8.207   8.693   3.953
17102TIP3   OH251182   8.287   8.618   4.079
17102TIP3    H151183   8.236   8.561   4.140
17102TIP3    H251184   8.367   8.642   4.132
17103TIP3   OH251185   8.336   8.997   4.484
17103TIP3    H151186   8.403   8.937   4.445
17103TIP3    H251187   8.343   9.077   4.429
17104TIP3   OH251188   8.180   9.304   4.693
17104TIP3    H151189   8.108   9.344   4.746
17104TIP3    H251190   8.129   9.254   4.625
17105TIP3   OH251191   8.233   8.524   3.718
17105TIP3    H151192   8.163   8.520   3.648
17105TIP3    H251193   8.198   8.596   3.772
17106TIP3   OH251194   8.098   8.196   3.669
17106TIP3    H151195   8.060   8.225   3.585
17106TIP3    H251196   8.076   8.100   3.666
17107TIP3   OH251197   8.104   8.462   4.212
17107TIP3    H151198   8.116   8.365   4.204
17107TIP3    H251199   8.093   8.473   4.309
17108TIP3   OH251200   6.734   8.542   4.961
17108TIP3    H151201   6.732   8.510   4.868
17108TIP3    H251202   6.831   8.543   4.977
17109TIP3   OH251203   8.394   8.890   5.067
17109TIP3    H151204   8.468   8.825   5.061
17109TIP3    H251205   8.427   8.962   5.011
17110TIP3   OH251206   8.578   8.697   5.092
17110TIP3    H151207   8.505   8.644   5.129
17110TIP3    H251208   8.653   8.635   5.103
17111TIP3   OH251209   8.044   7.931   3.664
17111TIP3    H151210   8.122   7.894   3.710
17111TIP3    H251211   7.974   7.866   3.680
17112TIP3   OH251212   8.106   8.185   4.107
17112TIP3    H151213   8.144   8.096   4.126
17112TIP3    H251214   8.164   8.213   4.035
17113TIP3   OH251215   8.265   8.360   4.603
17113TIP3    H151216   8.352   8.386   4.563
17113TIP3    H251217   8.279   8.395   4.693
17114TIP3   OH251218   8.334   8.501   4.837
17114TIP3    H151219   8.256   8.536   4.885
17114TIP3    H251220   8.366   8.582   4.791
17115TIP3   OH251221   6.951   8.230   5.639
17115TIP3    H151222   7.049   8.221   5.638
17115TIP3    H251223   6.927   8.143   5.678
17116TIP3   OH251224   8.784   8.088   5.390
17116TIP3    H151225   8.844   8.022   5.349
17116TIP3    H251226   8.760   8.143   5.313
17117TIP3   OH251227   8.209   7.935   4.150
17117TIP3    H151228   8.260   7.916   4.231
17117TIP3    H251229   8.151   7.856   4.146
17118TIP3   OH251230   6.912   7.920   4.968
17118TIP3    H151231   6.974   7.845   4.977
17118TIP3    H251232   6.975   7.994   4.961
17119TIP3   OH251233   6.715   8.194   5.039
17119TIP3    H151234   6.764   8.184   4.955
17119TIP3    H251235   6.748   8.280   5.069
17120TIP3   OH251236   8.656   8.231   5.198
17120TIP3    H151237   8.568   8.270   5.214
17120TIP3    H251238   8.630   8.158   5.139
17121TIP3   OH251239   8.294   7.868   3.778
17121TIP3    H151240   8.334   7.795   3.727
17121TIP3    H251241   8.363   7.937   3.772
17122TIP3   OH251242   6.698   7.699   4.543
17122TIP3    H151243   6.604   7.695   4.566
17122TIP3    H251244   6.697   7.755   4.463
17123TIP3   OH251245   7.871   9.385   4.051
17123TIP3    H151246   7.917   9.385   3.965
17123TIP3    H251247   7.911   9.463   4.095
17124TIP3   OH251248   6.919   7.780   5.356
17124TIP3    H151249   6.867   7.771   5.438
17124TIP3    H251250   6.852   7.815   5.295
17125TIP3   OH251251   6.958   9.206   5.431
17125TIP3    H151252   6.867   9.176   5.413
17125TIP3    H251253   6.969   9.184   5.524
17126TIP3   OH251254   7.136   9.237   4.980
17126TIP3    H151255   7.089   9.312   4.940
17126TIP3    H251256   7.223   9.249   4.935
17127TIP3   OH251257   7.582   9.481   5.118
17127TIP3    H151258   7.626   9.481   5.206
17127TIP3    H251259   7.648   9.531   5.065
17128TIP3   OH251260   7.761   9.632   4.975
17128TIP3    H151261   7.832   9.582   4.933
17128TIP3    H251262   7.812   9.691   5.034
17129TIP3   OH251263   8.557   7.992   5.075
17129TIP3    H151264   8.465   7.984   5.044
17129TIP3    H251265   8.589   7.900   5.062
17130TIP3   OH251266   6.813   9.493   5.002
17130TIP3    H151267   6.725   9.527   4.978
17130TIP3    H251268   6.823   9.531   5.091
17131TIP3   OH251269   7.050   9.471   4.860
17131TIP3    H151270   6.963   9.485   4.905
17131TIP3    H251271   7.030   9.505   4.770
17132TIP3   OH251272   7.476   9.501   4.657
17132TIP3    H151273   7.406   9.522   4.592
17132TIP3    H251274   7.489   9.589   4.699
17133TIP3   OH251275   7.745   9.439   4.709
17133TIP3    H151276   7.651   9.457   4.690
17133TIP3    H251277   7.788   9.515   4.667
17134TIP3   OH251278   7.947   9.633   4.623
17134TIP3    H151279   7.939   9.718   4.576
17134TIP3    H251280   7.970   9.572   4.550
17135TIP3   OH251281   6.723   9.286   4.748
17135TIP3    H151282   6.751   9.261   4.839
17135TIP3    H251283   6.796   9.244   4.697
17136TIP3   OH251284   6.918   9.159   4.605
17136TIP3    H151285   6.934   9.075   4.653
17136TIP3    H251286   7.009   9.196   4.600
17137TIP3   OH251287   7.184   9.253   4.607
17137TIP3    H151288   7.215   9.161   4.596
17137TIP3    H251289   7.229   9.275   4.691
17138TIP3   OH251290   7.757   7.908   4.690
17138TIP3    H151291   7.717   7.838   4.745
17138TIP3    H251292   7.832   7.862   4.648
17139TIP3   OH251293   8.285   7.797   4.603
17139TIP3    H151294   8.319   7.843   4.523
17139TIP3    H251295   8.189   7.807   4.592
17140TIP3   OH251296   8.379   7.892   4.364
17140TIP3    H151297   8.451   7.837   4.325
17140TIP3    H251298   8.414   7.982   4.346
17141TIP3   OH251299   7.009   7.619   4.712
17141TIP3    H151300   6.917   7.585   4.712
17141TIP3    H251301   7.059   7.534   4.709
17142TIP3   OH251302   6.795   7.488   4.359
17142TIP3    H151303   6.826   7.544   4.286
17142TIP3    H251304   6.767   7.554   4.425
17143TIP3   OH251305   7.451   7.653   4.592
17143TIP3    H151306   7.510   7.700   4.531
17143TIP3    H251307   7.479   7.687   4.678
17144TIP3   OH251308   7.999   7.797   4.575
17144TIP3    H151309   8.003   7.757   4.487
17144TIP3    H251310   7.987   7.717   4.632
17145TIP3   OH251311   8.030   7.720   4.137
17145TIP3    H151312   7.941   7.759   4.147
17145TIP3    H251313   8.017   7.634   4.184
17146TIP3   OH251314   6.512   9.059   4.140
17146TIP3    H151315   6.428   9.026   4.104
17146TIP3    H251316   6.502   9.153   4.119
17147TIP3   OH251317   6.913   7.647   4.123
17147TIP3    H151318   6.961   7.585   4.066
17147TIP3    H251319   6.986   7.701   4.159
17148TIP3   OH251320   7.424   7.823   4.221
17148TIP3    H151321   7.485   7.776   4.281
17148TIP3    H251322   7.446   7.916   4.246
17149TIP3   OH251323   7.284   9.249   3.720
17149TIP3    H151324   7.371   9.272   3.681
17149TIP3    H251325   7.262   9.173   3.661
17150TIP3   OH251326   7.997   9.353   3.809
17150TIP3    H151327   7.988   9.257   3.794
17150TIP3    H251328   7.955   9.391   3.729
17151TIP3   OH251329   7.216   7.901   5.604
17151TIP3    H151330   7.184   7.828   5.660
17151TIP3    H251331   7.311   7.901   5.629
17152TIP3   OH251332   7.466   7.898   5.721
17152TIP3    H151333   7.550   7.871   5.681
17152TIP3    H251334   7.454   7.827   5.788
17153TIP3   OH251335   6.590   9.084   3.778
17153TIP3    H151336   6.592   9.110   3.871
17153TIP3    H251337   6.678   9.042   3.765
17154TIP3   OH251338   8.291   7.959   5.509
17154TIP3    H151339   8.312   7.926   5.599
17154TIP3    H251340   8.378   7.954   5.465
17155TIP3   OH251341   8.221   9.507   5.013
17155TIP3    H151342   8.147   9.475   4.956
17155TIP3    H251343   8.209   9.603   5.003
17156TIP3   OH251344   8.789   8.774   4.521
17156TIP3    H151345   8.821   8.708   4.585
17156TIP3    H251346   8.864   8.834   4.516
17157TIP3   OH251347   8.759   9.148   4.189
17157TIP3    H151348   8.763   9.058   4.228
17157TIP3    H251349   8.815   9.200   4.249
17158TIP3   OH251350   8.469   8.390   4.025
17158TIP3    H151351   8.423   8.474   4.033
17158TIP3    H251352   8.400   8.334   3.986
17159TIP3   OH251353   8.530   8.674   4.189
17159TIP3    H151354   8.578   8.599   4.230
17159TIP3    H251355   8.599   8.710   4.131
17160TIP3   OH251356   9.032   8.265   4.201
17160TIP3    H151357   9.028   8.340   4.137
17160TIP3    H251358   8.990   8.195   4.146
17161TIP3   OH251359   8.676   8.472   4.301
17161TIP3    H151360   8.759   8.453   4.347
17161TIP3    H251361   8.689   8.417   4.220
17162TIP3   OH251362   9.118   8.684   4.099
17162TIP3    H151363   9.213   8.658   4.090
17162TIP3    H251364   9.076   8.600   4.069
17163TIP3   OH251365   9.032   8.250   4.626
17163TIP3    H151366   8.977   8.298   4.562
17163TIP3    H251367   8.985   8.270   4.709
17164TIP3   OH251368   8.905   8.369   4.414
17164TIP3    H151369   8.967   8.443   4.435
17164TIP3    H251370   8.953   8.329   4.337
17165TIP3   OH251371   8.367   8.881   3.790
17165TIP3    H151372   8.374   8.879   3.692
17165TIP3    H251373   8.403   8.967   3.816
17166TIP3   OH251374   9.390   7.957   4.344
17166TIP3    H151375   9.385   7.862   4.367
17166TIP3    H251376   9.314   7.991   4.395
17167TIP3   OH251377   8.881   8.798   4.002
17167TIP3    H151378   8.844   8.755   3.922
17167TIP3    H251379   8.972   8.762   4.003
17168TIP3   OH251380   9.032   8.799   4.336
17168TIP3    H151381   9.050   8.759   4.248
17168TIP3    H251382   9.055   8.892   4.323
17169TIP3   OH251383   8.935   8.900   4.763
17169TIP3    H151384   8.939   8.985   4.811
17169TIP3    H251385   8.840   8.880   4.770
17170TIP3   OH251386   8.747   8.661   3.797
17170TIP3    H151387   8.731   8.678   3.703
17170TIP3    H251388   8.743   8.565   3.802
17171TIP3   OH251389   8.544   9.032   4.701
17171TIP3    H151390   8.487   9.002   4.628
17171TIP3    H251391   8.587   8.949   4.732
17172TIP3   OH251392   8.413   9.237   4.326
17172TIP3    H151393   8.509   9.225   4.314
17172TIP3    H251394   8.411   9.305   4.395
17173TIP3   OH251395   8.744   9.216   4.679
17173TIP3    H151396   8.784   9.222   4.767
17173TIP3    H251397   8.680   9.142   4.691
17174TIP3   OH251398   9.145   8.041   4.470
17174TIP3    H151399   9.086   8.050   4.395
17174TIP3    H251400   9.128   8.125   4.519
17175TIP3   OH251401   9.693   8.150   4.658
17175TIP3    H151402   9.762   8.146   4.726
17175TIP3    H251403   9.610   8.145   4.709
17176TIP3   OH251404   9.280   8.086   3.437
17176TIP3    H151405   9.258   8.092   3.532
17176TIP3    H251406   9.243   7.998   3.417
17177TIP3   OH251407   9.074   8.567   4.483
17177TIP3    H151408   9.036   8.587   4.571
17177TIP3    H251409   9.065   8.653   4.437
17178TIP3   OH251410   8.974   8.456   4.010
17178TIP3    H151411   8.883   8.421   4.022
17178TIP3    H251412   8.996   8.418   3.922
17179TIP3   OH251413   8.900   8.593   4.704
17179TIP3    H151414   8.948   8.652   4.765
17179TIP3    H251415   8.897   8.510   4.755
17180TIP3   OH251416   8.936   8.042   3.418
17180TIP3    H151417   8.940   8.056   3.515
17180TIP3    H251418   8.878   8.113   3.389
17181TIP3   OH251419   8.500   8.117   4.278
17181TIP3    H151420   8.579   8.147   4.328
17181TIP3    H251421   8.537   8.081   4.196
17182TIP3   OH251422   8.474   8.093   3.801
17182TIP3    H151423   8.520   8.130   3.723
17182TIP3    H251424   8.414   8.167   3.821
17183TIP3   OH251425   9.280   8.300   4.071
17183TIP3    H151426   9.211   8.274   4.134
17183TIP3    H251427   9.360   8.266   4.115
17184TIP3   OH251428   8.735   8.325   4.075
17184TIP3    H151429   8.641   8.328   4.046
17184TIP3    H251430   8.764   8.235   4.049
17185TIP3   OH251431   9.003   8.321   3.767
17185TIP3    H151432   9.099   8.342   3.756
17185TIP3    H251433   8.966   8.349   3.681
17186TIP3   OH251434   8.835   8.355   3.539
17186TIP3    H151435   8.764   8.304   3.497
17186TIP3    H251436   8.883   8.385   3.461
17187TIP3   OH251437   8.917   9.132   4.911
17187TIP3    H151438   8.974   9.210   4.902
17187TIP3    H251439   8.859   9.159   4.985
17188TIP3   OH251440   8.906   8.090   4.036
17188TIP3    H151441   8.879   8.007   4.081
17188TIP3    H251442   8.962   8.056   3.964
17189TIP3   OH251443   9.357   8.479   4.483
17189TIP3    H151444   9.282   8.534   4.457
17189TIP3    H251445   9.433   8.539   4.470
17190TIP3   OH251446   8.774   8.878   4.235
17190TIP3    H151447   8.811   8.854   4.147
17190TIP3    H251448   8.829   8.824   4.294
17191TIP3   OH251449   8.668   8.832   4.839
17191TIP3    H151450   8.700   8.815   4.930
17191TIP3    H251451   8.605   8.759   4.827
17192TIP3   OH251452   8.453   8.520   3.549
17192TIP3    H151453   8.496   8.607   3.560
17192TIP3    H251454   8.379   8.525   3.614
17193TIP3   OH251455   8.882   8.336   4.845
17193TIP3    H151456   8.786   8.340   4.862
17193TIP3    H251457   8.913   8.276   4.916
17194TIP3   OH251458   8.592   9.407   4.549
17194TIP3    H151459   8.624   9.325   4.591
17194TIP3    H251460   8.653   9.469   4.594
17195TIP3   OH251461   8.572   8.785   3.602
17195TIP3    H151462   8.568   8.795   3.698
17195TIP3    H251463   8.659   8.827   3.581
17196TIP3   OH251464   9.283   8.329   3.797
17196TIP3    H151465   9.377   8.350   3.783
17196TIP3    H251466   9.282   8.326   3.896
17197TIP3   OH251467   9.413   8.069   3.910
17197TIP3    H151468   9.428   8.126   3.988
17197TIP3    H251469   9.492   8.092   3.858
17198TIP3   OH251470   8.943   8.055   3.693
17198TIP3    H151471   8.947   8.147   3.726
17198TIP3    H251472   9.038   8.033   3.697
17199TIP3   OH251473   8.504   8.247   3.578
17199TIP3    H151474   8.503   8.344   3.567
17199TIP3    H251475   8.432   8.218   3.521
17200TIP3   OH251476   8.397   9.170   3.835
17200TIP3    H151477   8.343   9.216   3.901
17200TIP3    H251478   8.480   9.222   3.845
17201TIP3   OH251479   8.714   9.111   5.104
17201TIP3    H151480   8.730   9.021   5.072
17201TIP3    H251481   8.632   9.136   5.057
17202TIP3   OH251482   8.838   8.846   5.079
17202TIP3    H151483   8.927   8.816   5.054
17202TIP3    H251484   8.855   8.899   5.158
17203TIP3   OH251485   8.888   8.651   3.499
17203TIP3    H151486   8.890   8.612   3.588
17203TIP3    H251487   8.958   8.597   3.457
17204TIP3   OH251488   9.157   8.736   4.733
17204TIP3    H151489   9.093   8.809   4.750
17204TIP3    H251490   9.205   8.769   4.655
17205TIP3   OH251491   9.287   8.534   4.875
17205TIP3    H151492   9.297   8.455   4.818
17205TIP3    H251493   9.252   8.600   4.811
17206TIP3   OH251494   9.291   8.319   4.689
17206TIP3    H151495   9.325   8.368   4.610
17206TIP3    H251496   9.199   8.299   4.661
17207TIP3   OH251497   9.161   8.655   5.091
17207TIP3    H151498   9.099   8.581   5.104
17207TIP3    H251499   9.205   8.630   5.007
17208TIP3   OH251500   9.430   8.089   4.747
17208TIP3    H151501   9.382   8.171   4.723
17208TIP3    H251502   9.364   8.020   4.727
17209TIP3   OH251503   9.550   8.602   4.956
17209TIP3    H151504   9.532   8.604   5.051
17209TIP3    H251505   9.463   8.581   4.920
17210TIP3   OH251506   9.011   8.431   5.149
17210TIP3    H151507   9.020   8.342   5.111
17210TIP3    H251508   9.045   8.416   5.240
17211TIP3   OH251509   9.525   8.091   5.000
17211TIP3    H151510   9.597   8.025   4.991
17211TIP3    H251511   9.488   8.090   4.909
17212TIP3   OH251512   9.548   8.297   5.174
17212TIP3    H151513   9.552   8.234   5.099
17212TIP3    H251514   9.531   8.381   5.129
17213TIP3   OH251515   8.325   8.913   3.498
17213TIP3    H151516   8.413   8.903   3.457
17213TIP3    H251517   8.282   8.833   3.460
17214TIP3   OH251518   8.190   9.530   3.894
17214TIP3    H151519   8.129   9.464   3.856
17214TIP3    H251520   8.247   9.475   3.951
17215TIP3   OH251521   8.338   9.372   4.070
17215TIP3    H151522   8.346   9.321   4.153
17215TIP3    H251523   8.380   9.455   4.096
17216TIP3   OH251524   8.529   8.804   4.443
17216TIP3    H151525   8.533   8.772   4.351
17216TIP3    H251526   8.625   8.803   4.465
17217TIP3   OH251527   8.744   8.484   5.122
17217TIP3    H151528   8.842   8.479   5.122
17217TIP3    H251529   8.723   8.398   5.165
17218TIP3   OH251530   8.707   8.178   4.455
17218TIP3    H151531   8.768   8.105   4.470
17218TIP3    H251532   8.768   8.254   4.445
17219TIP3   OH251533   8.511   8.450   4.525
17219TIP3    H151534   8.561   8.443   4.441
17219TIP3    H251535   8.548   8.532   4.561
17220TIP3   OH251536   8.494   7.959   4.034
17220TIP3    H151537   8.399   7.951   4.052
17220TIP3    H251538   8.495   8.012   3.952
17221TIP3   OH251539   8.704   8.025   4.835
17221TIP3    H151540   8.660   8.023   4.922
17221TIP3    H251541   8.638   8.076   4.782
17222TIP3   OH251542   8.735   9.397   4.933
17222TIP3    H151543   8.650   9.434   4.905
17222TIP3    H251544   8.760   9.452   5.008
17223TIP3   OH251545   9.488   8.162   4.169
17223TIP3    H151546   9.490   8.088   4.231
17223TIP3    H251547   9.584   8.175   4.147
17224TIP3   OH251548   8.808   7.879   4.199
17224TIP3    H151549   8.717   7.845   4.208
17224TIP3    H251550   8.859   7.798   4.216
17225TIP3   OH251551   8.590   7.744   3.845
17225TIP3    H151552   8.624   7.799   3.772
17225TIP3    H251553   8.565   7.811   3.911
17226TIP3   OH251554   9.249   7.912   4.083
17226TIP3    H151555   9.300   7.956   4.012
17226TIP3    H251556   9.299   7.939   4.162
17227TIP3   OH251557   9.844   7.986   4.043
17227TIP3    H151558   9.813   7.939   3.963
17227TIP3    H251559   9.808   7.928   4.113
17228TIP3   OH251560   8.261   9.310   3.607
17228TIP3    H151561   8.169   9.292   3.578
17228TIP3    H251562   8.266   9.403   3.577
17229TIP3   OH251563   8.710   7.904   3.611
17229TIP3    H151564   8.759   7.843   3.552
17229TIP3    H251565   8.783   7.958   3.647
17230TIP3   OH251566   9.218   8.077   3.708
17230TIP3    H151567   9.283   8.029   3.764
17230TIP3    H251568   9.238   8.168   3.738
17231TIP3   OH251569   9.012   8.158   5.091
17231TIP3    H151570   8.982   8.082   5.145
17231TIP3    H251571   9.108   8.158   5.113
17232TIP3   OH251572   9.261   8.158   5.211
17232TIP3    H151573   9.348   8.143   5.169
17232TIP3    H251574   9.255   8.082   5.272
17233TIP3   OH251575   0.990   8.981   6.404
17233TIP3    H151576   0.951   9.070   6.410
17233TIP3    H251577   1.000   8.975   6.307
17234TIP3   OH251578   1.242   8.880   7.090
17234TIP3    H151579   1.297   8.813   7.044
17234TIP3    H251580   1.205   8.929   7.014
17235TIP3   OH251581   1.105   9.017   6.893
17235TIP3    H151582   1.016   9.056   6.895
17235TIP3    H251583   1.089   8.938   6.836
17236TIP3   OH251584   0.741   8.667   5.468
17236TIP3    H151585   0.782   8.590   5.424
17236TIP3    H251586   0.812   8.734   5.462
17237TIP3   OH251587   1.014   8.790   6.760
17237TIP3    H151588   0.923   8.780   6.727
17237TIP3    H251589   1.046   8.697   6.755
17238TIP3   OH251590   0.823   8.671   6.025
17238TIP3    H151591   0.908   8.628   6.004
17238TIP3    H251592   0.849   8.764   6.029
17239TIP3   OH251593   0.913   9.177   5.711
17239TIP3    H151594   0.897   9.269   5.734
17239TIP3    H251595   0.852   9.130   5.769
17240TIP3   OH251596   2.754   9.218   5.883
17240TIP3    H151597   2.789   9.296   5.931
17240TIP3    H251598   2.770   9.246   5.791
17241TIP3   OH251599   2.160   9.403   5.913
17241TIP3    H151600   2.199   9.316   5.936
17241TIP3    H251601   2.121   9.383   5.826
17242TIP3   OH251602   1.498   9.057   5.884
17242TIP3    H151603   1.478   9.130   5.822
17242TIP3    H251604   1.449   8.984   5.840
17243TIP3   OH251605   2.193   9.144   5.510
17243TIP3    H151606   2.268   9.129   5.572
17243TIP3    H251607   2.240   9.181   5.434
17244TIP3   OH251608   1.117   9.238   5.999
17244TIP3    H151609   1.204   9.238   6.042
17244TIP3    H251610   1.139   9.204   5.910
17245TIP3   OH251611   1.585   9.461   5.771
17245TIP3    H151612   1.670   9.422   5.800
17245TIP3    H251613   1.534   9.384   5.741
17246TIP3   OH251614   2.842   9.417   6.054
17246TIP3    H151615   2.762   9.465   6.026
17246TIP3    H251616   2.845   9.440   6.148
17247TIP3   OH251617   1.494   9.041   6.319
17247TIP3    H151618   1.433   9.072   6.250
17247TIP3    H251619   1.441   9.057   6.399
17248TIP3   OH251620   2.408   9.148   5.679
17248TIP3    H151621   2.388   9.105   5.763
17248TIP3    H251622   2.452   9.230   5.708
17249TIP3   OH251623   1.366   9.150   6.104
17249TIP3    H151624   1.424   9.228   6.117
17249TIP3    H251625   1.411   9.108   6.028
17250TIP3   OH251626   2.552   9.118   6.050
17250TIP3    H151627   2.464   9.146   6.020
17250TIP3    H251628   2.610   9.150   5.978
17251TIP3   OH251629   1.851   8.761   6.033
17251TIP3    H151630   1.837   8.666   6.050
17251TIP3    H251631   1.773   8.798   6.079
17252TIP3   OH251632   1.744   9.272   5.036
17252TIP3    H151633   1.790   9.348   5.073
17252TIP3    H251634   1.805   9.242   4.967
17253TIP3   OH251635   2.390   9.641   6.157
17253TIP3    H151636   2.400   9.728   6.115
17253TIP3    H251637   2.298   9.617   6.127
17254TIP3   OH251638   2.486   8.706   5.138
17254TIP3    H151639   2.400   8.722   5.184
17254TIP3    H251640   2.495   8.789   5.087
17255TIP3   OH251641   2.610   9.609   6.345
17255TIP3    H151642   2.529   9.604   6.291
17255TIP3    H251643   2.636   9.514   6.346
17256TIP3   OH251644   1.612   8.836   6.160
17256TIP3    H151645   1.523   8.805   6.135
17256TIP3    H251646   1.588   8.919   6.205
17257TIP3   OH251647   2.144   8.953   6.355
17257TIP3    H151648   2.212   8.923   6.419
17257TIP3    H251649   2.060   8.930   6.401
17258TIP3   OH251650   2.387   9.370   6.279
17258TIP3    H151651   2.339   9.365   6.365
17258TIP3    H251652   2.354   9.452   6.241
17259TIP3   OH251653   1.760   8.882   5.132
17259TIP3    H151654   1.725   8.883   5.223
17259TIP3    H251655   1.719   8.799   5.099
17260TIP3   OH251656   1.533   9.363   6.168
17260TIP3    H151657   1.473   9.367   6.245
17260TIP3    H251658   1.498   9.434   6.112
17261TIP3   OH251659   1.429   9.236   5.694
17261TIP3    H151660   1.335   9.213   5.708
17261TIP3    H251661   1.442   9.200   5.604
17262TIP3   OH251662   1.929   9.324   5.425
17262TIP3    H151663   1.848   9.376   5.403
17262TIP3    H251664   1.967   9.308   5.336
17263TIP3   OH251665   2.097   9.592   6.501
17263TIP3    H151666   2.076   9.519   6.564
17263TIP3    H251667   2.189   9.611   6.526
17264TIP3   OH251668   2.066   9.341   5.663
17264TIP3    H151669   2.006   9.358   5.587
17264TIP3    H251670   2.109   9.261   5.625
17265TIP3   OH251671   1.386   9.378   6.408
17265TIP3    H151672   1.335   9.426   6.475
17265TIP3    H251673   1.357   9.287   6.426
17266TIP3   OH251674   1.411   8.858   5.101
17266TIP3    H151675   1.403   8.856   5.198
17266TIP3    H251676   1.335   8.913   5.077
17267TIP3   OH251677   0.959   8.906   5.950
17267TIP3    H151678   1.020   8.939   6.019
17267TIP3    H251679   1.019   8.858   5.892
17268TIP3   OH251680   0.926   8.898   5.494
17268TIP3    H151681   0.965   8.922   5.407
17268TIP3    H251682   0.897   8.986   5.523
17269TIP3   OH251683   2.134   9.588   6.109
17269TIP3    H151684   2.135   9.523   6.034
17269TIP3    H251685   2.062   9.548   6.162
17270TIP3   OH251686   1.754   9.050   5.755
17270TIP3    H151687   1.669   9.055   5.804
17270TIP3    H251688   1.817   9.069   5.826
17271TIP3   OH251689   1.186   9.120   5.754
17271TIP3    H151690   1.091   9.118   5.728
17271TIP3    H251691   1.215   9.029   5.739
17272TIP3   OH251692   1.461   9.111   5.450
17272TIP3    H151693   1.551   9.136   5.424
17272TIP3    H251694   1.407   9.135   5.372
17273TIP3   OH251695   2.241   9.137   5.957
17273TIP3    H151696   2.207   9.147   6.048
17273TIP3    H251697   2.176   9.073   5.921
17274TIP3   OH251698   1.293   9.127   5.232
17274TIP3    H151699   1.229   9.095   5.165
17274TIP3    H251700   1.343   9.193   5.180
17275TIP3   OH251701   1.832   9.364   5.847
17275TIP3    H151702   1.915   9.344   5.803
17275TIP3    H251703   1.852   9.350   5.941
17276TIP3   OH251704   1.357   8.876   5.732
17276TIP3    H151705   1.326   8.795   5.777
17276TIP3    H251706   1.404   8.841   5.656
17277TIP3   OH251707   1.809   9.276   6.150
17277TIP3    H151708   1.721   9.318   6.143
17277TIP3    H251709   1.864   9.344   6.192
17278TIP3   OH251710   2.006   8.998   5.105
17278TIP3    H151711   1.910   8.976   5.112
17278TIP3    H251712   2.008   9.094   5.122
17279TIP3   OH251713   2.077   9.258   5.186
17279TIP3    H151714   2.169   9.245   5.216
17279TIP3    H251715   2.082   9.345   5.143
17280TIP3   OH251716   1.839   9.615   6.618
17280TIP3    H151717   1.759   9.659   6.581
17280TIP3    H251718   1.884   9.589   6.537
17281TIP3   OH251719   2.522   9.317   5.044
17281TIP3    H151720   2.460   9.273   4.982
17281TIP3    H251721   2.522   9.405   5.004
17282TIP3   OH251722   1.340   9.117   6.540
17282TIP3    H151723   1.248   9.128   6.567
17282TIP3    H251724   1.373   9.054   6.606
17283TIP3   OH251725   2.168   9.192   6.219
17283TIP3    H151726   2.253   9.221   6.254
17283TIP3    H251727   2.152   9.109   6.268
17284TIP3   OH251728   2.055   8.936   5.379
17284TIP3    H151729   2.036   8.961   5.286
17284TIP3    H251730   2.092   9.018   5.416
17285TIP3   OH251731   1.751   9.114   5.483
17285TIP3    H151732   1.815   9.186   5.469
17285TIP3    H251733   1.747   9.110   5.581
17286TIP3   OH251734   1.999   9.430   6.289
17286TIP3    H151735   2.032   9.479   6.367
17286TIP3    H251736   2.053   9.349   6.290
17287TIP3   OH251737   1.886   8.845   5.588
17287TIP3    H151738   1.868   8.924   5.642
17287TIP3    H251739   1.946   8.883   5.520
17288TIP3   OH251740   1.396   8.842   5.378
17288TIP3    H151741   1.392   8.935   5.406
17288TIP3    H251742   1.493   8.827   5.385
17289TIP3   OH251743   2.655   9.341   6.271
17289TIP3    H151744   2.557   9.335   6.281
17289TIP3    H251745   2.665   9.292   6.188
17290TIP3   OH251746   2.293   9.514   5.640
17290TIP3    H151747   2.221   9.457   5.671
17290TIP3    H251748   2.367   9.488   5.699
17291TIP3   OH251749   0.951   9.037   5.261
17291TIP3    H151750   0.970   9.131   5.250
17291TIP3    H251751   0.875   9.021   5.205
17292TIP3   OH251752   1.350   8.755   6.134
17292TIP3    H151753   1.315   8.723   6.048
17292TIP3    H251754   1.340   8.676   6.191
17293TIP3   OH251755   1.312   9.648   6.765
17293TIP3    H151756   1.333   9.554   6.764
17293TIP3    H251757   1.290   9.663   6.858
17294TIP3   OH251758   1.643   9.496   6.385
17294TIP3    H151759   1.547   9.479   6.402
17294TIP3    H251760   1.646   9.482   6.289
17295TIP3   OH251761   1.470   9.264   5.077
17295TIP3    H151762   1.441   9.215   4.997
17295TIP3    H251763   1.567   9.260   5.070
17296TIP3   OH251764   1.752   9.315   6.564
17296TIP3    H151765   1.755   9.231   6.513
17296TIP3    H251766   1.718   9.377   6.496
17297TIP3   OH251767   1.753   9.111   6.368
17297TIP3    H151768   1.779   9.156   6.285
17297TIP3    H251769   1.659   9.089   6.349
17298TIP3   OH251770   2.369   9.624   6.614
17298TIP3    H151771   2.388   9.531   6.636
17298TIP3    H251772   2.457   9.654   6.588
17299TIP3   OH251773   1.619   9.442   6.784
17299TIP3    H151774   1.559   9.366   6.793
17299TIP3    H251775   1.666   9.420   6.701
17300TIP3   OH251776   1.886   8.878   6.432
17300TIP3    H151777   1.837   8.960   6.409
17300TIP3    H251778   1.816   8.810   6.420
17301TIP3   OH251779   2.015   9.374   6.647
17301TIP3    H151780   2.003   9.367   6.743
17301TIP3    H251781   1.923   9.353   6.620
17302TIP3   OH251782   2.255   9.335   6.510
17302TIP3    H151783   2.176   9.326   6.567
17302TIP3    H251784   2.326   9.298   6.567
17303TIP3   OH251785   2.485   9.274   6.657
17303TIP3    H151786   2.496   9.178   6.673
17303TIP3    H251787   2.478   9.311   6.747
17304TIP3   OH251788   1.470   9.219   6.845
17304TIP3    H151789   1.473   9.131   6.804
17304TIP3    H251790   1.506   9.200   6.934
17305TIP3   OH251791   1.977   8.889   6.690
17305TIP3    H151792   2.046   8.819   6.685
17305TIP3    H251793   1.939   8.882   6.601
17306TIP3   OH251794   2.045   9.103   6.848
17306TIP3    H151795   2.023   9.032   6.784
17306TIP3    H251796   1.968   9.163   6.839
17307TIP3   OH251797   2.351   9.239   4.843
17307TIP3    H151798   2.324   9.266   4.754
17307TIP3    H251799   2.328   9.144   4.841
17308TIP3   OH251800   2.391   9.491   5.387
17308TIP3    H151801   2.380   9.394   5.395
17308TIP3    H251802   2.364   9.518   5.478
17309TIP3   OH251803   2.821   9.765   6.277
17309TIP3    H151804   2.746   9.708   6.301
17309TIP3    H251805   2.894   9.701   6.280
17310TIP3   OH251806   2.296   8.973   4.831
17310TIP3    H151807   2.366   8.940   4.890
17310TIP3    H251808   2.217   8.920   4.855
17311TIP3   OH251809   2.343   9.221   5.284
17311TIP3    H151810   2.383   9.131   5.300
17311TIP3    H251811   2.404   9.255   5.217
17312TIP3   OH251812   2.513   9.396   5.771
17312TIP3    H151813   2.596   9.428   5.730
17312TIP3    H251814   2.527   9.432   5.861
17313TIP3   OH251815   2.591   9.528   6.001
17313TIP3    H151816   2.516   9.558   6.056
17313TIP3    H251817   2.639   9.613   5.986
17314TIP3   OH251818   1.204   9.274   6.806
17314TIP3    H151819   1.301   9.268   6.817
17314TIP3    H251820   1.175   9.190   6.844
17315TIP3   OH251821   3.033   9.137   6.569
17315TIP3    H151822   3.092   9.069   6.528
17315TIP3    H251823   3.011   9.193   6.492
17316TIP3   OH251824   2.446   8.976   5.334
17316TIP3    H151825   2.502   8.956   5.411
17316TIP3    H251826   2.391   8.896   5.328
17317TIP3   OH251827   1.157   8.955   6.137
17317TIP3    H151828   1.227   8.888   6.149
17317TIP3    H251829   1.209   9.037   6.134
17318TIP3   OH251830   0.990   9.244   6.245
17318TIP3    H151831   1.022   9.232   6.153
17318TIP3    H251832   0.962   9.337   6.242
17319TIP3   OH251833   2.907   9.281   6.371
17319TIP3    H151834   2.815   9.312   6.385
17319TIP3    H251835   2.890   9.203   6.316
17320TIP3   OH251836   2.548   8.914   4.957
17320TIP3    H151837   2.591   8.848   4.900
17320TIP3    H251838   2.615   8.984   4.962
17321TIP3   OH251839   0.955   8.730   5.703
17321TIP3    H151840   0.877   8.755   5.755
17321TIP3    H251841   0.952   8.795   5.630
17322TIP3   OH251842   1.172   8.820   6.530
17322TIP3    H151843   1.117   8.815   6.610
17322TIP3    H251844   1.112   8.872   6.472
17323TIP3   OH251845   2.805   9.038   6.253
17323TIP3    H151846   2.714   9.024   6.221
17323TIP3    H251847   2.841   8.946   6.243
17324TIP3   OH251848   2.018   8.957   5.880
17324TIP3    H151849   1.966   8.889   5.927
17324TIP3    H251850   2.080   8.903   5.827
17325TIP3   OH251851   2.530   8.829   5.775
17325TIP3    H151852   2.566   8.885   5.703
17325TIP3    H251853   2.435   8.850   5.772
17326TIP3   OH251854   2.629   8.927   5.538
17326TIP3    H151855   2.707   8.882   5.503
17326TIP3    H251856   2.656   9.020   5.524
17327TIP3   OH251857   1.257   8.662   5.887
17327TIP3    H151858   1.167   8.625   5.889
17327TIP3    H251859   1.310   8.579   5.885
17328TIP3   OH251860   1.044   8.528   5.533
17328TIP3    H151861   1.074   8.586   5.461
17328TIP3    H251862   1.015   8.594   5.601
17329TIP3   OH251863   1.702   8.694   5.767
17329TIP3    H151864   1.761   8.746   5.711
17329TIP3    H251865   1.718   8.734   5.854
17330TIP3   OH251866   2.253   8.841   5.751
17330TIP3    H151867   2.239   8.805   5.663
17330TIP3    H251868   2.237   8.762   5.807
17331TIP3   OH251869   2.277   8.759   5.314
17331TIP3    H151870   2.192   8.805   5.325
17331TIP3    H251871   2.259   8.675   5.362
17332TIP3   OH251872   1.161   8.692   5.302
17332TIP3    H151873   1.211   8.631   5.244
17332TIP3    H251874   1.234   8.748   5.337
17333TIP3   OH251875   1.674   8.867   5.397
17333TIP3    H151876   1.733   8.822   5.459
17333TIP3    H251877   1.693   8.960   5.422
17334TIP3   OH251878   1.464   8.945   6.780
17334TIP3    H151879   1.432   8.874   6.837
17334TIP3    H251880   1.559   8.945   6.804
17335TIP3   OH251881   1.713   8.941   6.897
17335TIP3    H151882   1.798   8.919   6.856
17335TIP3    H251883   1.704   8.868   6.962
17336TIP3   OH251884   2.539   9.004   6.685
17336TIP3    H151885   2.559   8.971   6.776
17336TIP3    H251886   2.627   8.997   6.643
17337TIP3   OH251887   2.722   9.439   5.208
17337TIP3    H151888   2.679   9.518   5.245
17337TIP3    H251889   2.647   9.391   5.170
17338TIP3   OH251890   4.556   9.473   5.371
17338TIP3    H151891   4.586   9.554   5.416
17338TIP3    H251892   4.564   9.498   5.278
17339TIP3   OH251893   3.956   9.653   5.397
17339TIP3    H151894   3.996   9.567   5.420
17339TIP3    H251895   3.918   9.632   5.309
17340TIP3   OH251896   3.289   9.307   5.367
17340TIP3    H151897   3.273   9.383   5.307
17340TIP3    H251898   3.224   9.243   5.336
17341TIP3   OH251899   3.988   9.399   4.996
17341TIP3    H151900   4.062   9.386   5.059
17341TIP3    H251901   4.035   9.439   4.920
17342TIP3   OH251902   2.915   9.496   5.488
17342TIP3    H151903   3.003   9.492   5.528
17342TIP3    H251904   2.934   9.466   5.397
17343TIP3   OH251905   3.380   9.716   5.258
17343TIP3    H151906   3.466   9.679   5.287
17343TIP3    H251907   3.331   9.638   5.229
17344TIP3   OH251908   4.640   9.675   5.541
17344TIP3    H151909   4.560   9.723   5.512
17344TIP3    H251910   4.644   9.703   5.634
17345TIP3   OH251911   3.292   9.297   5.803
17345TIP3    H151912   3.228   9.334   5.740
17345TIP3    H251913   3.242   9.304   5.887
17346TIP3   OH251914   4.199   9.406   5.165
17346TIP3    H151915   4.185   9.362   5.250
17346TIP3    H251916   4.247   9.487   5.192
17347TIP3   OH251917   3.161   9.409   5.588
17347TIP3    H151918   3.218   9.486   5.607
17347TIP3    H251919   3.214   9.367   5.516
17348TIP3   OH251920   4.349   9.373   5.537
17348TIP3    H151921   4.260   9.402   5.508
17348TIP3    H251922   4.406   9.406   5.464
17349TIP3   OH251923   3.643   9.013   5.515
17349TIP3    H151924   3.632   8.920   5.542
17349TIP3    H251925   3.569   9.054   5.564
17350TIP3   OH251926   3.541   9.527   4.525
17350TIP3    H151927   3.585   9.606   4.559
17350TIP3    H251928   3.601   9.499   4.454
17351TIP3   OH251929   4.184   9.900   5.646
17351TIP3    H151930   4.194   9.984   5.600
17351TIP3    H251931   4.091   9.877   5.620
17352TIP3   OH251932   4.279   8.960   4.621
17352TIP3    H151933   4.198   8.980   4.672
17352TIP3    H251934   4.292   9.043   4.572
17353TIP3   OH251935   4.408   9.864   5.832
17353TIP3    H151936   4.327   9.861   5.779
17353TIP3    H251937   4.432   9.769   5.834
17354TIP3   OH251938   3.408   9.099   5.640
17354TIP3    H151939   3.317   9.067   5.620
17354TIP3    H251940   3.386   9.178   5.693
17355TIP3   OH251941   3.940   9.209   5.842
17355TIP3    H151942   4.006   9.181   5.908
17355TIP3    H251943   3.855   9.188   5.887
17356TIP3   OH251944   4.185   9.628   5.766
17356TIP3    H151945   4.135   9.622   5.851
17356TIP3    H251946   4.150   9.710   5.728
17357TIP3   OH251947   3.557   9.137   4.619
17357TIP3    H151948   3.521   9.139   4.710
17357TIP3    H251949   3.514   9.055   4.587
17358TIP3   OH251950   3.330   9.615   5.651
17358TIP3    H151951   3.279   9.623   5.734
17358TIP3    H251952   3.306   9.696   5.603
17359TIP3   OH251953   3.224   9.491   5.182
17359TIP3    H151954   3.129   9.474   5.193
17359TIP3    H251955   3.238   9.461   5.090
17360TIP3   OH251956   3.723   9.579   4.910
17360TIP3    H151957   3.643   9.632   4.888
17360TIP3    H251958   3.763   9.564   4.822
17361TIP3   OH251959   3.888   9.848   5.990
17361TIP3    H151960   3.872   9.774   6.053
17361TIP3    H251961   3.979   9.874   6.015
17362TIP3   OH251962   3.861   9.596   5.148
17362TIP3    H151963   3.801   9.614   5.073
17362TIP3    H251964   3.904   9.516   5.110
17363TIP3   OH251965   3.173   9.630   5.893
17363TIP3    H151966   3.139   9.678   5.969
17363TIP3    H251967   3.148   9.539   5.918
17364TIP3   OH251968   3.208   9.114   4.589
17364TIP3    H151969   3.196   9.113   4.686
17364TIP3    H251970   3.131   9.168   4.563
17365TIP3   OH251971   2.768   9.142   5.447
17365TIP3    H151972   2.823   9.183   5.517
17365TIP3    H251973   2.780   9.203   5.373
17366TIP3   OH251974   2.739   9.135   4.986
17366TIP3    H151975   2.771   9.177   4.904
17366TIP3    H251976   2.672   9.199   5.014
17367TIP3   OH251977   3.931   9.840   5.587
17367TIP3    H151978   3.930   9.770   5.517
17367TIP3    H251979   3.859   9.806   5.644
17368TIP3   OH251980   3.549   9.306   5.242
17368TIP3    H151981   3.467   9.312   5.295
17368TIP3    H251982   3.617   9.325   5.309
17369TIP3   OH251983   2.980   9.370   5.240
17369TIP3    H151984   2.886   9.393   5.221
17369TIP3    H251985   2.985   9.281   5.203
17370TIP3   OH251986   3.256   9.365   4.939
17370TIP3    H151987   3.347   9.391   4.915
17370TIP3    H251988   3.204   9.392   4.860
17371TIP3   OH251989   4.041   9.391   5.444
17371TIP3    H151990   4.006   9.403   5.535
17371TIP3    H251991   3.974   9.330   5.408
17372TIP3   OH251992   3.090   9.381   4.722
17372TIP3    H151993   3.026   9.349   4.656
17372TIP3    H251994   3.140   9.447   4.668
17373TIP3   OH251995   3.627   9.618   5.333
17373TIP3    H151996   3.712   9.604   5.290
17373TIP3    H251997   3.647   9.607   5.428
17374TIP3   OH251998   3.157   9.068   5.216
17374TIP3    H151999   3.246   9.039   5.243
17374TIP3    H252000   3.178   9.117   5.134
17375TIP3   OH252001   3.606   9.533   5.634
17375TIP3    H152002   3.519   9.575   5.632
17375TIP3    H252003   3.662   9.599   5.680
17376TIP3   OH252004   3.803   9.254   4.587
17376TIP3    H152005   3.707   9.234   4.596
17376TIP3    H252006   3.808   9.350   4.605
17377TIP3   OH252007   3.874   9.512   4.673
17377TIP3    H152008   3.966   9.500   4.703
17377TIP3    H252009   3.879   9.598   4.628
17378TIP3   OH252010   3.633   9.867   6.102
17378TIP3    H152011   3.559   9.919   6.065
17378TIP3    H252012   3.689   9.853   6.023
17379TIP3   OH252013   4.316   9.571   4.531
17379TIP3    H152014   4.251   9.534   4.466
17379TIP3    H252015   4.323   9.660   4.495
17380TIP3   OH252016   3.128   9.375   6.019
17380TIP3    H152017   3.032   9.374   6.035
17380TIP3    H252018   3.160   9.312   6.087
17381TIP3   OH252019   3.966   9.446   5.703
17381TIP3    H152020   4.048   9.478   5.744
17381TIP3    H252021   3.948   9.364   5.755
17382TIP3   OH252022   3.850   9.193   4.865
17382TIP3    H152023   3.833   9.220   4.773
17382TIP3    H252024   3.888   9.274   4.904
17383TIP3   OH252025   3.544   9.372   4.971
17383TIP3    H152026   3.609   9.442   4.954
17383TIP3    H252027   3.544   9.367   5.069
17384TIP3   OH252028   3.795   9.687   5.775
17384TIP3    H152029   3.825   9.740   5.851
17384TIP3    H252030   3.850   9.608   5.781
17385TIP3   OH252031   3.681   9.100   5.072
17385TIP3    H152032   3.668   9.176   5.132
17385TIP3    H252033   3.742   9.139   5.005
17386TIP3   OH252034   3.194   9.098   4.871
17386TIP3    H152035   3.190   9.195   4.887
17386TIP3    H252036   3.291   9.085   4.874
17387TIP3   OH252037   4.451   9.595   5.757
17387TIP3    H152038   4.354   9.590   5.769
17387TIP3    H252039   4.459   9.553   5.671
17388TIP3   OH252040   4.090   9.769   5.126
17388TIP3    H152041   4.017   9.715   5.160
17388TIP3    H252042   4.163   9.746   5.186
17389TIP3   OH252043   2.746   9.294   4.758
17389TIP3    H152044   2.762   9.388   4.741
17389TIP3    H252045   2.664   9.277   4.710
17390TIP3   OH252046   3.148   9.010   5.621
17390TIP3    H152047   3.094   8.963   5.557
17390TIP3    H252048   3.148   8.945   5.694
17391TIP3   OH252049   3.123   9.897   6.229
17391TIP3    H152050   3.169   9.819   6.260
17391TIP3    H252051   3.108   9.950   6.311
17392TIP3   OH252052   3.443   9.748   5.872
17392TIP3    H152053   3.348   9.752   5.894
17392TIP3    H252054   3.443   9.754   5.775
17393TIP3   OH252055   3.266   9.519   4.565
17393TIP3    H152056   3.237   9.472   4.484
17393TIP3    H252057   3.363   9.518   4.557
17394TIP3   OH252058   3.549   9.568   6.055
17394TIP3    H152059   3.552   9.485   6.005
17394TIP3    H252060   3.516   9.630   5.986
17395TIP3   OH252061   3.551   9.367   5.854
17395TIP3    H152062   3.576   9.413   5.771
17395TIP3    H252063   3.457   9.345   5.837
17396TIP3   OH252064   4.166   9.883   6.103
17396TIP3    H152065   4.185   9.791   6.126
17396TIP3    H252066   4.254   9.914   6.078
17397TIP3   OH252067   3.409   9.704   6.270
17397TIP3    H152068   3.352   9.624   6.281
17397TIP3    H252069   3.459   9.681   6.190
17398TIP3   OH252070   3.684   9.135   5.917
17398TIP3    H152071   3.633   9.216   5.897
17398TIP3    H252072   3.614   9.066   5.908
17399TIP3   OH252073   3.813   9.628   6.135
17399TIP3    H152074   3.799   9.622   6.232
17399TIP3    H252075   3.720   9.610   6.107
17400TIP3   OH252076   4.050   9.587   5.995
17400TIP3    H152077   3.970   9.582   6.052
17400TIP3    H252078   4.119   9.552   6.054
17401TIP3   OH252079   4.283   9.532   6.145
17401TIP3    H152080   4.291   9.436   6.163
17401TIP3    H252081   4.273   9.570   6.235
17402TIP3   OH252082   3.259   9.483   6.331
17402TIP3    H152083   3.260   9.390   6.297
17402TIP3    H252084   3.298   9.467   6.420
17403TIP3   OH252085   3.779   9.148   6.174
17403TIP3    H152086   3.842   9.073   6.169
17403TIP3    H252087   3.735   9.140   6.087
17404TIP3   OH252088   3.842   9.361   6.334
17404TIP3    H152089   3.819   9.290   6.270
17404TIP3    H252090   3.763   9.419   6.329
17405TIP3   OH252091   4.143   9.499   4.330
17405TIP3    H152092   4.131   9.524   4.237
17405TIP3    H252093   4.119   9.404   4.327
17406TIP3   OH252094   4.187   9.747   4.874
17406TIP3    H152095   4.181   9.651   4.883
17406TIP3    H252096   4.159   9.775   4.964
17407TIP3   OH252097   4.619  10.018   5.758
17407TIP3    H152098   4.543   9.965   5.788
17407TIP3    H252099   4.691   9.952   5.764
17408TIP3   OH252100   4.090   9.233   4.324
17408TIP3    H152101   4.165   9.197   4.375
17408TIP3    H252102   4.017   9.171   4.344
17409TIP3   OH252103   4.140   9.475   4.771
17409TIP3    H152104   4.184   9.388   4.784
17409TIP3    H252105   4.200   9.514   4.705
17410TIP3   OH252106   4.310   9.651   5.259
17410TIP3    H152107   4.393   9.683   5.217
17410TIP3    H252108   4.324   9.690   5.348
17411TIP3   OH252109   4.387   9.786   5.489
17411TIP3    H152110   4.311   9.816   5.542
17411TIP3    H252111   4.435   9.871   5.474
17412TIP3   OH252112   2.992   9.543   6.307
17412TIP3    H152113   3.089   9.529   6.302
17412TIP3    H252114   2.966   9.455   6.343
17413TIP3   OH252115   4.833   9.394   6.056
17413TIP3    H152116   4.889   9.327   6.012
17413TIP3    H252117   4.804   9.450   5.980
17414TIP3   OH252118   4.260   9.231   4.808
17414TIP3    H152119   4.306   9.216   4.894
17414TIP3    H252120   4.198   9.155   4.808
17415TIP3   OH252121   2.959   9.218   5.626
17415TIP3    H152122   3.026   9.151   5.648
17415TIP3    H252123   3.014   9.298   5.620
17416TIP3   OH252124   2.759   9.500   5.710
17416TIP3    H152125   2.807   9.494   5.625
17416TIP3    H252126   2.776   9.591   5.735
17417TIP3   OH252127   4.704   9.534   5.861
17417TIP3    H152128   4.616   9.572   5.881
17417TIP3    H252129   4.676   9.462   5.802
17418TIP3   OH252130   4.340   9.169   4.443
17418TIP3    H152131   4.378   9.097   4.388
17418TIP3    H252132   4.406   9.240   4.434
17419TIP3   OH252133   2.962   9.084   6.017
17419TIP3    H152134   2.914   9.066   6.099
17419TIP3    H252135   2.889   9.114   5.959
17420TIP3   OH252136   4.601   9.296   5.738
17420TIP3    H152137   4.509   9.289   5.707
17420TIP3    H252138   4.631   9.203   5.726
17421TIP3   OH252139   3.811   9.212   5.360
17421TIP3    H152140   3.762   9.144   5.411
17421TIP3    H252141   3.879   9.160   5.315
17422TIP3   OH252142   4.329   9.089   5.263
17422TIP3    H152143   4.365   9.143   5.188
17422TIP3    H252144   4.234   9.110   5.258
17423TIP3   OH252145   4.424   9.191   5.027
17423TIP3    H152146   4.498   9.141   4.987
17423TIP3    H252147   4.455   9.283   5.013
17424TIP3   OH252148   3.481   8.963   5.263
17424TIP3    H152149   3.543   9.005   5.200
17424TIP3    H252150   3.523   8.987   5.347
17425TIP3   OH252151   4.048   9.098   5.239
17425TIP3    H152152   4.041   9.062   5.150
17425TIP3    H252153   4.033   9.017   5.294
17426TIP3   OH252154   4.074   9.021   4.801
17426TIP3    H152155   3.989   9.066   4.814
17426TIP3    H252156   4.058   8.936   4.848
17427TIP3   OH252157   2.962   8.961   4.768
17427TIP3    H152158   3.011   8.892   4.721
17427TIP3    H252159   3.032   9.009   4.815
17428TIP3   OH252160   3.470   9.124   4.885
17428TIP3    H152161   3.534   9.082   4.945
17428TIP3    H252162   3.488   9.218   4.908
17429TIP3   OH252163   3.258   9.217   6.279
17429TIP3    H152164   3.226   9.129   6.305
17429TIP3    H252165   3.353   9.207   6.298
17430TIP3   OH252166   3.514   9.201   6.388
17430TIP3    H152167   3.594   9.168   6.346
17430TIP3    H252168   3.495   9.130   6.453
17431TIP3   OH252169   4.335   9.259   6.173
17431TIP3    H152170   4.354   9.229   6.264
17431TIP3    H252171   4.423   9.253   6.131
17432TIP3   OH252172   4.525   9.723   4.696
17432TIP3    H152173   4.467   9.791   4.730
17432TIP3    H252174   4.463   9.651   4.676
17433TIP3   OH252175   6.350   9.727   4.857
17433TIP3    H152176   6.379   9.810   4.899
17433TIP3    H252177   6.375   9.744   4.764
17434TIP3   OH252178   5.749   9.918   4.913
17434TIP3    H152179   5.797   9.833   4.923
17434TIP3    H252180   5.721   9.911   4.821
17435TIP3   OH252181   5.782   9.659   4.483
17435TIP3    H152182   5.857   9.646   4.546
17435TIP3    H252183   5.830   9.695   4.407
17436TIP3   OH252184   4.702   9.757   4.976
17436TIP3    H152185   4.796   9.739   4.992
17436TIP3    H252186   4.687   9.730   4.884
17437TIP3   OH252187   5.167   9.960   4.781
17437TIP3    H152188   5.263   9.939   4.788
17437TIP3    H252189   5.141   9.910   4.703
17438TIP3   OH252190   6.426   9.931   5.032
17438TIP3    H152191   6.351   9.987   5.004
17438TIP3    H252192   6.448   9.971   5.118
17439TIP3   OH252193   5.083   9.555   5.292
17439TIP3    H152194   5.017   9.590   5.230
17439TIP3    H252195   5.035   9.567   5.377
17440TIP3   OH252196   5.993   9.666   4.652
17440TIP3    H152197   6.000   9.612   4.731
17440TIP3    H252198   6.047   9.744   4.677
17441TIP3   OH252199   4.955   9.663   5.067
17441TIP3    H152200   5.000   9.748   5.090
17441TIP3    H252201   5.024   9.621   5.015
17442TIP3   OH252202   6.144   9.628   5.021
17442TIP3    H152203   6.058   9.662   4.991
17442TIP3    H252204   6.206   9.661   4.953
17443TIP3   OH252205   5.439   9.270   5.003
17443TIP3    H152206   5.430   9.176   5.028
17443TIP3    H252207   5.363   9.309   5.051
17444TIP3   OH252208   5.339   9.786   4.015
17444TIP3    H152209   5.386   9.865   4.044
17444TIP3    H252210   5.396   9.755   3.942
17445TIP3   OH252211   6.076   9.218   4.108
17445TIP3    H152212   5.995   9.238   4.158
17445TIP3    H252213   6.088   9.300   4.057
17446TIP3   OH252214   6.206  10.121   5.322
17446TIP3    H152215   6.136  10.119   5.256
17446TIP3    H252216   6.229  10.026   5.326
17447TIP3   OH252217   5.201   9.358   5.131
17447TIP3    H152218   5.113   9.320   5.110
17447TIP3    H252219   5.174   9.432   5.189
17448TIP3   OH252220   5.736   9.464   5.329
17448TIP3    H152221   5.804   9.436   5.393
17448TIP3    H252222   5.652   9.442   5.376
17449TIP3   OH252223   5.976   9.901   5.254
17449TIP3    H152224   5.934   9.879   5.340
17449TIP3    H252225   5.931   9.982   5.230
17450TIP3   OH252226   5.353   9.393   4.107
17450TIP3    H152227   5.312   9.395   4.195
17450TIP3    H252228   5.313   9.312   4.071
17451TIP3   OH252229   5.124   9.868   5.136
17451TIP3    H152230   5.075   9.878   5.220
17451TIP3    H252231   5.100   9.949   5.087
17452TIP3   OH252232   5.518   9.831   4.398
17452TIP3    H152233   5.442   9.889   4.374
17452TIP3    H252234   5.563   9.820   4.311
17453TIP3   OH252235   5.688  10.102   5.465
17453TIP3    H152236   5.669  10.029   5.529
17453TIP3    H252237   5.771  10.136   5.503
17454TIP3   OH252238   5.657   9.851   4.645
17454TIP3    H152239   5.601   9.876   4.568
17454TIP3    H252240   5.699   9.772   4.605
17455TIP3   OH252241   4.975   9.887   5.381
17455TIP3    H152242   4.925   9.941   5.444
17455TIP3    H252243   4.948   9.797   5.410
17456TIP3   OH252244   5.008   9.373   4.079
17456TIP3    H152245   4.979   9.366   4.171
17456TIP3    H252246   4.932   9.421   4.040
17457TIP3   OH252247   4.541   9.418   4.939
17457TIP3    H152248   4.617   9.445   4.995
17457TIP3    H252249   4.583   9.380   4.860
17458TIP3   OH252250   4.524   9.396   4.463
17458TIP3    H152251   4.560   9.439   4.383
17458TIP3    H252252   4.459   9.464   4.491
17459TIP3   OH252253   5.333   9.570   4.740
17459TIP3    H152254   5.286   9.596   4.820
17459TIP3    H252255   5.425   9.568   4.774
17460TIP3   OH252256   5.054   9.617   4.443
17460TIP3    H152257   5.141   9.655   4.419
17460TIP3    H252258   4.997   9.652   4.371
17461TIP3   OH252259   5.838   9.656   4.935
17461TIP3    H152260   5.798   9.662   5.024
17461TIP3    H252261   5.780   9.593   4.891
17462TIP3   OH252262   4.895   9.629   4.220
17462TIP3    H152263   4.829   9.601   4.153
17462TIP3    H252264   4.943   9.696   4.167
17463TIP3   OH252265   5.425   9.869   4.815
17463TIP3    H152266   5.510   9.864   4.769
17463TIP3    H252267   5.449   9.859   4.908
17464TIP3   OH252268   5.401   9.791   5.127
17464TIP3    H152269   5.313   9.834   5.121
17464TIP3    H252270   5.458   9.863   5.159
17465TIP3   OH252271   5.600   9.508   4.079
17465TIP3    H152272   5.504   9.489   4.083
17465TIP3    H252273   5.605   9.605   4.092
17466TIP3   OH252274   5.670   9.770   4.161
17466TIP3    H152275   5.763   9.757   4.190
17466TIP3    H252276   5.676   9.854   4.114
17467TIP3   OH252277   5.433  10.121   5.589
17467TIP3    H152278   5.356  10.165   5.549
17467TIP3    H252279   5.501  10.123   5.520
17468TIP3   OH252280   6.108   9.829   4.020
17468TIP3    H152281   6.045   9.790   3.955
17468TIP3    H252282   6.118   9.917   3.981
17469TIP3   OH252283   4.923   9.629   5.507
17469TIP3    H152284   4.827   9.634   5.522
17469TIP3    H252285   4.951   9.573   5.582
17470TIP3   OH252286   5.756   9.704   5.195
17470TIP3    H152287   5.840   9.734   5.232
17470TIP3    H252288   5.742   9.620   5.245
17471TIP3   OH252289   5.639   9.454   4.353
17471TIP3    H152290   5.629   9.477   4.258
17471TIP3    H252291   5.682   9.534   4.389
17472TIP3   OH252292   5.337   9.631   4.462
17472TIP3    H152293   5.404   9.698   4.435
17472TIP3    H252294   5.347   9.632   4.559
17473TIP3   OH252295   5.630   9.963   5.229
17473TIP3    H152296   5.637   9.999   5.320
17473TIP3    H252297   5.660   9.871   5.241
17474TIP3   OH252298   5.479   9.356   4.554
17474TIP3    H152299   5.492   9.424   4.624
17474TIP3    H252300   5.539   9.392   4.484
17475TIP3   OH252301   4.986   9.355   4.369
17475TIP3    H152302   4.981   9.449   4.340
17475TIP3    H252303   5.081   9.336   4.352
17476TIP3   OH252304   6.245   9.853   5.251
17476TIP3    H152305   6.146   9.852   5.251
17476TIP3    H252306   6.263   9.821   5.161
17477TIP3   OH252307   5.876  10.029   4.626
17477TIP3    H152308   5.817   9.955   4.644
17477TIP3    H252309   5.957  10.006   4.675
17478TIP3   OH252310   4.545   9.553   4.241
17478TIP3    H152311   4.560   9.647   4.224
17478TIP3    H252312   4.471   9.531   4.184
17479TIP3   OH252313   4.944   9.269   5.112
17479TIP3    H152314   4.907   9.237   5.027
17479TIP3    H252315   4.930   9.191   5.170
17480TIP3   OH252316   4.923  10.154   5.716
17480TIP3    H152317   4.963  10.075   5.755
17480TIP3    H252318   4.900  10.208   5.794
17481TIP3   OH252319   5.239  10.007   5.356
17481TIP3    H152320   5.144   9.994   5.376
17481TIP3    H252321   5.238  10.021   5.259
17482TIP3   OH252322   5.063   9.775   4.059
17482TIP3    H152323   5.033   9.731   3.976
17482TIP3    H252324   5.160   9.777   4.048
17483TIP3   OH252325   5.345   9.825   5.539
17483TIP3    H152326   5.346   9.742   5.488
17483TIP3    H252327   5.313   9.889   5.472
17484TIP3   OH252328   5.344   9.621   5.341
17484TIP3    H152329   5.370   9.670   5.260
17484TIP3    H252330   5.250   9.603   5.323
17485TIP3   OH252331   5.965  10.140   5.586
17485TIP3    H152332   5.985  10.049   5.611
17485TIP3    H252333   6.054  10.172   5.563
17486TIP3   OH252334   5.211   9.956   5.758
17486TIP3    H152335   5.148   9.881   5.768
17486TIP3    H252336   5.256   9.933   5.675
17487TIP3   OH252337   5.478   9.390   5.405
17487TIP3    H152338   5.429   9.472   5.384
17487TIP3    H252339   5.408   9.322   5.395
17488TIP3   OH252340   5.611   9.887   5.619
17488TIP3    H152341   5.600   9.884   5.716
17488TIP3    H252342   5.517   9.872   5.594
17489TIP3   OH252343   5.847   9.836   5.479
17489TIP3    H152344   5.768   9.835   5.538
17489TIP3    H252345   5.918   9.808   5.540
17490TIP3   OH252346   6.074   9.788   5.632
17490TIP3    H152347   6.084   9.692   5.651
17490TIP3    H252348   6.067   9.827   5.722
17491TIP3   OH252349   5.056   9.733   5.814
17491TIP3    H152350   5.063   9.641   5.781
17491TIP3    H252351   5.092   9.723   5.904
17492TIP3   OH252352   5.573   9.403   5.663
17492TIP3    H152353   5.639   9.331   5.658
17492TIP3    H252354   5.532   9.396   5.574
17493TIP3   OH252355   5.637   9.617   5.822
17493TIP3    H152356   5.614   9.547   5.757
17493TIP3    H252357   5.559   9.677   5.816
17494TIP3   OH252358   5.938   9.756   3.817
17494TIP3    H152359   5.921   9.776   3.724
17494TIP3    H252360   5.916   9.660   3.818
17495TIP3   OH252361   5.975  10.007   4.366
17495TIP3    H152362   5.977   9.912   4.379
17495TIP3    H252363   5.951  10.039   4.456
17496TIP3   OH252364   6.417  10.278   5.252
17496TIP3    H152365   6.341  10.222   5.279
17496TIP3    H252366   6.489  10.212   5.253
17497TIP3   OH252367   5.885   9.491   3.812
17497TIP3    H152368   5.962   9.454   3.859
17497TIP3    H252369   5.814   9.427   3.830
17498TIP3   OH252370   5.935   9.731   4.259
17498TIP3    H152371   5.980   9.644   4.272
17498TIP3    H252372   5.995   9.771   4.193
17499TIP3   OH252373   6.103   9.916   4.751
17499TIP3    H152374   6.188   9.945   4.710
17499TIP3    H252375   6.115   9.956   4.839
17500TIP3   OH252376   6.162  10.060   4.989
17500TIP3    H152377   6.080  10.109   5.004
17500TIP3    H252378   6.223  10.134   4.966
17501TIP3   OH252379   4.788   9.795   5.789
17501TIP3    H152380   4.885   9.785   5.789
17501TIP3    H252381   4.763   9.709   5.829
17502TIP3   OH252382   6.623   9.644   5.543
17502TIP3    H152383   6.683   9.581   5.499
17502TIP3    H252384   6.598   9.703   5.468
17503TIP3   OH252385   6.055   9.488   4.298
17503TIP3    H152386   6.104   9.472   4.381
17503TIP3    H252387   5.995   9.411   4.296
17504TIP3   OH252388   4.751   9.470   5.110
17504TIP3    H152389   4.818   9.400   5.125
17504TIP3    H252390   4.806   9.550   5.108
17505TIP3   OH252391   4.557   9.757   5.204
17505TIP3    H152392   4.602   9.751   5.117
17505TIP3    H252393   4.569   9.851   5.223
17506TIP3   OH252394   6.498   9.791   5.349
17506TIP3    H152395   6.409   9.828   5.363
17506TIP3    H252396   6.476   9.718   5.289
17507TIP3   OH252397   6.134   9.426   3.928
17507TIP3    H152398   6.174   9.353   3.876
17507TIP3    H252399   6.203   9.495   3.922
17508TIP3   OH252400   4.540   9.253   4.693
17508TIP3    H152401   4.446   9.250   4.719
17508TIP3    H252402   4.537   9.312   4.614
17509TIP3   OH252403   4.760   9.333   5.504
17509TIP3    H152404   4.709   9.327   5.587
17509TIP3    H252405   4.693   9.373   5.444
17510TIP3   OH252406   6.396   9.552   5.227
17510TIP3    H152407   6.305   9.544   5.192
17510TIP3    H252408   6.429   9.460   5.214
17511TIP3   OH252409   5.587   9.463   4.825
17511TIP3    H152410   5.554   9.397   4.890
17511TIP3    H252411   5.671   9.422   4.795
17512TIP3   OH252412   6.123   9.352   4.754
17512TIP3    H152413   6.162   9.400   4.677
17512TIP3    H252414   6.028   9.368   4.742
17513TIP3   OH252415   6.219   9.448   4.516
17513TIP3    H152416   6.292   9.395   4.475
17513TIP3    H252417   6.254   9.539   4.500
17514TIP3   OH252418   4.849   9.181   4.870
17514TIP3    H152419   4.757   9.148   4.864
17514TIP3    H252420   4.899   9.098   4.860
17515TIP3   OH252421   4.640   9.045   4.510
17515TIP3    H152422   4.664   9.103   4.435
17515TIP3    H252423   4.606   9.109   4.575
17516TIP3   OH252424   5.279   9.240   4.739
17516TIP3    H152425   5.351   9.270   4.681
17516TIP3    H252426   5.320   9.249   4.827
17517TIP3   OH252427   5.835   9.357   4.728
17517TIP3    H152428   5.842   9.320   4.639
17517TIP3    H252429   5.825   9.275   4.782
17518TIP3   OH252430   5.871   9.277   4.288
17518TIP3    H152431   5.783   9.317   4.296
17518TIP3    H252432   5.856   9.192   4.335
17519TIP3   OH252433   4.751   9.203   4.273
17519TIP3    H152434   4.800   9.141   4.215
17519TIP3    H252435   4.824   9.254   4.314
17520TIP3   OH252436   5.258   9.384   4.383
17520TIP3    H152437   5.330   9.335   4.427
17520TIP3    H252438   5.291   9.476   4.395
17521TIP3   OH252439   5.058   9.458   5.752
17521TIP3    H152440   5.024   9.387   5.810
17521TIP3    H252441   5.152   9.459   5.780
17522TIP3   OH252442   5.306   9.454   5.871
17522TIP3    H152443   5.391   9.427   5.833
17522TIP3    H252444   5.292   9.384   5.939
17523TIP3   OH252445   6.133   9.517   5.661
17523TIP3    H152446   6.158   9.487   5.751
17523TIP3    H252447   6.219   9.513   5.614
17524TIP3   OH252448   6.314   9.960   4.175
17524TIP3    H152449   6.271  10.035   4.218
17524TIP3    H252450   6.239   9.903   4.153
17525TIP3   OH252451   7.545  10.180   4.379
17525TIP3    H152452   7.584  10.093   4.399
17525TIP3    H252453   7.519  10.166   4.285
17526TIP3   OH252454   6.885   9.826   4.344
17526TIP3    H152455   6.867   9.900   4.282
17526TIP3    H252456   6.837   9.754   4.299
17527TIP3   OH252457   7.579   9.912   3.977
17527TIP3    H152458   7.652   9.895   4.042
17527TIP3    H252459   7.632   9.946   3.905
17528TIP3   OH252460   6.508  10.010   4.464
17528TIP3    H152461   6.597  10.001   4.501
17528TIP3    H252462   6.522   9.977   4.374
17529TIP3   OH252463   6.968  10.227   4.240
17529TIP3    H152464   7.056  10.190   4.262
17529TIP3    H252465   6.920  10.150   4.204
17530TIP3   OH252466   6.882   9.810   4.780
17530TIP3    H152467   6.822   9.842   4.710
17530TIP3    H252468   6.828   9.829   4.860
17531TIP3   OH252469   7.798   9.915   4.143
17531TIP3    H152470   7.773   9.872   4.226
17531TIP3    H252471   7.879   9.964   4.167
17532TIP3   OH252472   6.753   9.918   4.563
17532TIP3    H152473   6.811   9.995   4.579
17532TIP3    H252474   6.800   9.877   4.487
17533TIP3   OH252475   7.940   9.887   4.501
17533TIP3    H152476   7.847   9.913   4.492
17533TIP3    H252477   7.978   9.919   4.418
17534TIP3   OH252478   7.240   9.530   4.494
17534TIP3    H152479   7.225   9.435   4.510
17534TIP3    H252480   7.161   9.568   4.539
17535TIP3   OH252481   7.128  10.038   3.495
17535TIP3    H152482   7.177  10.111   3.533
17535TIP3    H252483   7.188  10.006   3.425
17536TIP3   OH252484   7.862   9.475   3.592
17536TIP3    H152485   7.783   9.489   3.649
17536TIP3    H252486   7.879   9.564   3.559
17537TIP3   OH252487   7.000   9.604   4.621
17537TIP3    H152488   6.910   9.575   4.596
17537TIP3    H252489   6.977   9.689   4.665
17538TIP3   OH252490   7.532   9.722   4.815
17538TIP3    H152491   7.601   9.694   4.880
17538TIP3    H252492   7.449   9.700   4.861
17539TIP3   OH252493   7.780  10.145   4.734
17539TIP3    H152494   7.735  10.139   4.822
17539TIP3    H252495   7.740  10.224   4.697
17540TIP3   OH252496   7.149   9.651   3.593
17540TIP3    H152497   7.113   9.651   3.683
17540TIP3    H252498   7.107   9.569   3.558
17541TIP3   OH252499   6.920  10.127   4.624
17541TIP3    H152500   6.866  10.139   4.705
17541TIP3    H252501   6.904  10.208   4.574
17542TIP3   OH252502   6.816  10.006   4.154
17542TIP3    H152503   6.723   9.980   4.170
17542TIP3    H252504   6.830   9.968   4.064
17543TIP3   OH252505   7.318  10.094   3.884
17543TIP3    H152506   7.236  10.144   3.861
17543TIP3    H252507   7.358  10.076   3.797
17544TIP3   OH252508   7.481  10.365   4.963
17544TIP3    H152509   7.461  10.288   5.023
17544TIP3    H252510   7.576  10.372   4.973
17545TIP3   OH252511   7.447  10.114   4.126
17545TIP3    H152512   7.392  10.127   4.046
17545TIP3    H252513   7.498  10.037   4.094
17546TIP3   OH252514   6.765  10.149   4.868
17546TIP3    H152515   6.734  10.194   4.947
17546TIP3    H252516   6.738  10.057   4.889
17547TIP3   OH252517   6.801   9.628   3.561
17547TIP3    H152518   6.792   9.626   3.659
17547TIP3    H252519   6.723   9.680   3.536
17548TIP3   OH252520   6.341   9.672   4.430
17548TIP3    H152521   6.415   9.706   4.484
17548TIP3    H252522   6.384   9.639   4.350
17549TIP3   OH252523   6.317   9.649   3.950
17549TIP3    H152524   6.360   9.690   3.872
17549TIP3    H252525   6.257   9.722   3.975
17550TIP3   OH252526   7.488  10.370   4.570
17550TIP3    H152527   7.516  10.307   4.500
17550TIP3    H252528   7.436  10.310   4.627
17551TIP3   OH252529   7.141   9.819   4.215
17551TIP3    H152530   7.058   9.824   4.266
17551TIP3    H252531   7.206   9.846   4.281
17552TIP3   OH252532   6.576   9.889   4.220
17552TIP3    H152533   6.481   9.894   4.194
17552TIP3    H252534   6.601   9.798   4.198
17553TIP3   OH252535   6.849   9.881   3.911
17553TIP3    H152536   6.940   9.904   3.885
17553TIP3    H252537   6.796   9.905   3.831
17554TIP3   OH252538   7.632   9.905   4.419
17554TIP3    H152539   7.597   9.919   4.510
17554TIP3    H252540   7.564   9.846   4.382
17555TIP3   OH252541   6.680   9.899   3.692
17555TIP3    H152542   6.618   9.864   3.625
17555TIP3    H252543   6.731   9.963   3.638
17556TIP3   OH252544   7.220  10.130   4.304
17556TIP3    H152545   7.305  10.125   4.257
17556TIP3    H252546   7.246  10.123   4.397
17557TIP3   OH252547   6.747   9.646   4.191
17557TIP3    H152548   6.715   9.564   4.236
17557TIP3    H252549   6.794   9.611   4.114
17558TIP3   OH252550   7.197  10.041   4.615
17558TIP3    H152551   7.113  10.088   4.604
17558TIP3    H252552   7.255  10.109   4.655
17559TIP3   OH252553   7.394   9.763   3.572
17559TIP3    H152554   7.299   9.735   3.573
17559TIP3    H252555   7.388   9.859   3.578
17560TIP3   OH252556   7.468  10.031   3.645
17560TIP3    H152557   7.556   9.992   3.654
17560TIP3    H252558   7.478  10.084   3.565
17561TIP3   OH252559   7.225  10.399   5.075
17561TIP3    H152560   7.143  10.432   5.034
17561TIP3    H252561   7.275  10.368   4.998
17562TIP3   OH252562   6.719   9.890   4.994
17562TIP3    H152563   6.623   9.889   5.008
17562TIP3    H252564   6.750   9.831   5.065
17563TIP3   OH252565   7.558   9.962   4.680
17563TIP3    H152566   7.641   9.994   4.718
17563TIP3    H252567   7.543   9.879   4.729
17564TIP3   OH252568   7.442   9.703   3.843
17564TIP3    H152569   7.425   9.728   3.750
17564TIP3    H252570   7.482   9.784   3.880
17565TIP3   OH252571   7.137   9.886   3.945
17565TIP3    H152572   7.205   9.955   3.933
17565TIP3    H252573   7.135   9.878   4.043
17566TIP3   OH252574   7.386  10.193   4.753
17566TIP3    H152575   7.420  10.248   4.827
17566TIP3    H252576   7.446  10.116   4.754
17567TIP3   OH252577   7.273   9.614   4.049
17567TIP3    H152578   7.257   9.692   4.105
17567TIP3    H252579   7.333   9.652   3.981
17568TIP3   OH252580   6.785   9.612   3.838
17568TIP3    H152581   6.781   9.705   3.867
17568TIP3    H252582   6.881   9.596   3.845
17569TIP3   OH252583   8.058  10.115   4.713
17569TIP3    H152584   7.964  10.127   4.735
17569TIP3    H252585   8.051  10.060   4.635
17570TIP3   OH252586   6.338   9.810   3.730
17570TIP3    H152587   6.359   9.902   3.711
17570TIP3    H252588   6.264   9.790   3.673
17571TIP3   OH252589   6.735   9.525   4.597
17571TIP3    H152590   6.703   9.493   4.510
17571TIP3    H252591   6.724   9.446   4.653
17572TIP3   OH252592   6.717  10.406   5.202
17572TIP3    H152593   6.767  10.333   5.240
17572TIP3    H252594   6.697  10.463   5.280
17573TIP3   OH252595   7.035  10.260   4.845
17573TIP3    H152596   6.939  10.263   4.862
17573TIP3    H252597   7.040  10.261   4.748
17574TIP3   OH252598   6.855  10.037   3.535
17574TIP3    H152599   6.827   9.986   3.456
17574TIP3    H252600   6.953  10.029   3.530
17575TIP3   OH252601   7.139  10.082   5.027
17575TIP3    H152602   7.145   9.998   4.976
17575TIP3    H252603   7.106  10.143   4.958
17576TIP3   OH252604   7.141   9.878   4.830
17576TIP3    H152605   7.169   9.926   4.749
17576TIP3    H252606   7.047   9.858   4.810
17577TIP3   OH252607   7.000  10.216   5.239
17577TIP3    H152608   6.941  10.139   5.254
17577TIP3    H252609   7.048  10.187   5.159
17578TIP3   OH252610   7.274   9.647   4.894
17578TIP3    H152611   7.226   9.729   4.870
17578TIP3    H252612   7.204   9.580   4.880
17579TIP3   OH252613   7.401  10.146   5.105
17579TIP3    H152614   7.394  10.135   5.202
17579TIP3    H252615   7.309  10.122   5.081
17580TIP3   OH252616   7.640  10.106   4.963
17580TIP3    H152617   7.563  10.096   5.022
17580TIP3    H252618   7.713  10.081   5.023
17581TIP3   OH252619   7.845  10.040   5.128
17581TIP3    H152620   7.872   9.946   5.134
17581TIP3    H252621   7.832  10.064   5.221
17582TIP3   OH252622   6.850   9.991   5.301
17582TIP3    H152623   6.859   9.901   5.265
17582TIP3    H252624   6.886   9.979   5.391
17583TIP3   OH252625   7.367   9.658   5.151
17583TIP3    H152626   7.435   9.588   5.145
17583TIP3    H252627   7.328   9.653   5.062
17584TIP3   OH252628   7.428   9.871   5.313
17584TIP3    H152629   7.410   9.801   5.247
17584TIP3    H252630   7.352   9.931   5.301
17585TIP3   OH252631   7.668   9.774   3.318
17585TIP3    H152632   7.756   9.740   3.341
17585TIP3    H252633   7.613   9.695   3.313
17586TIP3   OH252634   6.580  10.049   5.271
17586TIP3    H152635   6.678  10.043   5.272
17586TIP3    H252636   6.559   9.964   5.314
17587TIP3   OH252637   7.809   9.763   3.809
17587TIP3    H152638   7.880   9.743   3.873
17587TIP3    H252639   7.768   9.676   3.798
17588TIP3   OH252640   6.546   9.729   4.611
17588TIP3    H152641   6.613   9.658   4.616
17588TIP3    H252642   6.603   9.807   4.597
17589TIP3   OH252643   6.351  10.015   4.687
17589TIP3    H152644   6.398  10.002   4.602
17589TIP3    H252645   6.369  10.109   4.702
17590TIP3   OH252646   6.336   9.510   4.180
17590TIP3    H152647   6.242   9.508   4.204
17590TIP3    H252648   6.336   9.567   4.100
17591TIP3   OH252649   6.556   9.593   4.994
17591TIP3    H152650   6.503   9.587   5.075
17591TIP3    H252651   6.491   9.629   4.931
17592TIP3   OH252652   8.196   9.805   4.717
17592TIP3    H152653   8.111   9.809   4.672
17592TIP3    H252654   8.229   9.716   4.692
17593TIP3   OH252655   7.406   9.727   4.339
17593TIP3    H152656   7.354   9.659   4.386
17593TIP3    H252657   7.469   9.673   4.288
17594TIP3   OH252658   7.919   9.601   4.225
17594TIP3    H152659   7.957   9.658   4.155
17594TIP3    H252660   7.824   9.625   4.222
17595TIP3   OH252661   8.021   9.718   3.994
17595TIP3    H152662   8.087   9.655   3.956
17595TIP3    H252663   8.070   9.801   3.988
17596TIP3   OH252664   6.646   9.432   4.350
17596TIP3    H152665   6.554   9.399   4.349
17596TIP3    H252666   6.695   9.348   4.346
17597TIP3   OH252667   6.433   9.302   3.996
17597TIP3    H152668   6.464   9.359   3.923
17597TIP3    H252669   6.405   9.368   4.063
17598TIP3   OH252670   7.091   9.464   4.229
17598TIP3    H152671   7.148   9.516   4.170
17598TIP3    H252672   7.109   9.504   4.314
17599TIP3   OH252673   7.640   9.612   4.211
17599TIP3    H152674   7.622   9.578   4.122
17599TIP3    H252675   7.623   9.532   4.266
17600TIP3   OH252676   7.663   9.527   3.775
17600TIP3    H152677   7.578   9.573   3.785
17600TIP3    H252678   7.644   9.442   3.821
17601TIP3   OH252679   6.549   9.462   3.760
17601TIP3    H152680   6.598   9.400   3.703
17601TIP3    H252681   6.623   9.516   3.796
17602TIP3   OH252682   7.062   9.638   3.858
17602TIP3    H152683   7.122   9.592   3.919
17602TIP3    H252684   7.082   9.731   3.883
17603TIP3   OH252685   6.853   9.713   5.240
17603TIP3    H152686   6.822   9.642   5.298
17603TIP3    H252687   6.948   9.715   5.264
17604TIP3   OH252688   7.102   9.710   5.357
17604TIP3    H152689   7.187   9.689   5.316
17604TIP3    H252690   7.093   9.638   5.422
17605TIP3   OH252691   7.927   9.774   5.146
17605TIP3    H152692   7.950   9.744   5.236
17605TIP3    H252693   8.013   9.768   5.100
17606TIP3   OH252694   2.750   1.191   8.817
17606TIP3    H152695   2.747   1.278   8.773
17606TIP3    H252696   2.831   1.152   8.779
17607TIP3   OH252697   2.767   1.472   8.768
17607TIP3    H152698   2.798   1.543   8.709
17607TIP3    H252699   2.676   1.501   8.784
17608TIP3   OH252700   2.430   1.252   8.778
17608TIP3    H152701   2.478   1.180   8.820
17608TIP3    H252702   2.450   1.235   8.684
17609TIP3   OH252703   4.071   1.028   9.067
17609TIP3    H152704   4.096   1.106   9.017
17609TIP3    H252705   4.061   0.966   8.990
17610TIP3   OH252706   4.414   1.317   9.123
17610TIP3    H152707   4.431   1.279   9.211
17610TIP3    H252708   4.457   1.403   9.128
17611TIP3   OH252709   4.103   1.780   9.122
17611TIP3    H152710   4.184   1.734   9.095
17611TIP3    H252711   4.122   1.806   9.213
17612TIP3   OH252712   4.033   0.889   8.844
17612TIP3    H152713   3.943   0.912   8.815
17612TIP3    H252714   4.078   0.873   8.758
17613TIP3   OH252715   3.997   0.681   8.605
17613TIP3    H152716   4.084   0.718   8.629
17613TIP3    H252717   4.026   0.601   8.558
17614TIP3   OH252718   4.384   0.973   8.854
17614TIP3    H152719   4.352   0.982   8.946
17614TIP3    H252720   4.476   0.944   8.874
17615TIP3   OH252721   4.236   0.822   8.672
17615TIP3    H152722   4.294   0.880   8.725
17615TIP3    H252723   4.261   0.849   8.580
17616TIP3   OH252724   4.542   1.447   8.284
17616TIP3    H152725   4.550   1.542   8.259
17616TIP3    H252726   4.634   1.416   8.266
17617TIP3   OH252727   3.873   1.778   8.740
17617TIP3    H152728   3.813   1.750   8.668
17617TIP3    H252729   3.829   1.858   8.775
17618TIP3   OH252730   4.059   1.663   8.401
17618TIP3    H152731   4.113   1.596   8.353
17618TIP3    H252732   4.096   1.659   8.490
17619TIP3   OH252733   4.113   1.667   8.692
17619TIP3    H152734   4.027   1.711   8.720
17619TIP3    H252735   4.178   1.719   8.745
17620TIP3   OH252736   4.308   0.892   8.422
17620TIP3    H152737   4.266   0.862   8.339
17620TIP3    H252738   4.391   0.931   8.388
17621TIP3   OH252739   4.195   0.702   8.975
17621TIP3    H152740   4.145   0.759   8.914
17621TIP3    H252741   4.247   0.649   8.910
17622TIP3   OH252742   3.535   0.534   8.820
17622TIP3    H152743   3.482   0.479   8.759
17622TIP3    H252744   3.609   0.557   8.762
17623TIP3   OH252745   3.797   1.045   8.826
17623TIP3    H152746   3.730   0.987   8.782
17623TIP3    H252747   3.778   1.019   8.918
17624TIP3   OH252748   4.336   0.574   8.777
17624TIP3    H152749   4.431   0.591   8.794
17624TIP3    H252750   4.315   0.645   8.712
17625TIP3   OH252751   3.978   1.228   8.691
17625TIP3    H152752   3.906   1.293   8.671
17625TIP3    H252753   3.923   1.153   8.722
17626TIP3   OH252754   4.778   0.694   8.631
17626TIP3    H152755   4.722   0.645   8.567
17626TIP3    H252756   4.775   0.782   8.588
17627TIP3   OH252757   4.458   1.501   8.542
17627TIP3    H152758   4.482   1.418   8.584
17627TIP3    H252759   4.482   1.484   8.449
17628TIP3   OH252760   3.507   1.610   8.969
17628TIP3    H152761   3.429   1.629   9.022
17628TIP3    H252762   3.554   1.696   8.976
17629TIP3   OH252763   4.224   1.253   8.450
17629TIP3    H152764   4.279   1.210   8.519
17629TIP3    H252765   4.144   1.198   8.447
17630TIP3   OH252766   4.571   1.720   8.261
17630TIP3    H152767   4.608   1.787   8.200
17630TIP3    H252768   4.493   1.769   8.292
17631TIP3   OH252769   4.389   1.187   8.667
17631TIP3    H152770   4.382   1.116   8.734
17631TIP3    H252771   4.485   1.182   8.648
17632TIP3   OH252772   3.619   1.216   8.438
17632TIP3    H152773   3.607   1.125   8.405
17632TIP3    H252774   3.583   1.208   8.529
17633TIP3   OH252775   3.551   1.230   8.703
17633TIP3    H152776   3.600   1.200   8.781
17633TIP3    H252777   3.552   1.328   8.713
17634TIP3   OH252778   3.830   1.447   8.668
17634TIP3    H152779   3.741   1.462   8.706
17634TIP3    H252780   3.820   1.501   8.588
17635TIP3   OH252781   3.565   1.500   8.726
17635TIP3    H152782   3.532   1.566   8.661
17635TIP3    H252783   3.537   1.542   8.810
17636TIP3   OH252784   3.267   1.143   8.720
17636TIP3    H152785   3.332   1.214   8.714
17636TIP3    H252786   3.313   1.075   8.665
17637TIP3   OH252787   4.531   1.853   9.178
17637TIP3    H152788   4.481   1.908   9.114
17637TIP3    H252789   4.619   1.893   9.170
17638TIP3   OH252790   3.772   1.427   8.361
17638TIP3    H152791   3.714   1.352   8.388
17638TIP3    H252792   3.838   1.380   8.305
17639TIP3   OH252793   4.200   1.475   8.265
17639TIP3    H152794   4.250   1.409   8.316
17639TIP3    H252795   4.248   1.476   8.179
17640TIP3   OH252796   3.409   0.949   8.575
17640TIP3    H152797   3.464   0.914   8.648
17640TIP3    H252798   3.476   0.949   8.503
17641TIP3   OH252799   3.943   1.146   8.392
17641TIP3    H152800   3.886   1.154   8.469
17641TIP3    H252801   3.938   1.048   8.377
17642TIP3   OH252802   3.608   0.857   8.765
17642TIP3    H152803   3.608   0.822   8.856
17642TIP3    H252804   3.638   0.777   8.716
17643TIP3   OH252805   3.716   0.643   8.636
17643TIP3    H152806   3.689   0.638   8.542
17643TIP3    H252807   3.814   0.644   8.628
17644TIP3   OH252808   4.541   0.972   8.299
17644TIP3    H152809   4.520   0.928   8.214
17644TIP3    H252810   4.511   1.063   8.276
17645TIP3   OH252811   3.524   1.697   8.539
17645TIP3    H152812   3.618   1.707   8.516
17645TIP3    H252813   3.485   1.751   8.468
17646TIP3   OH252814   2.996   1.092   8.727
17646TIP3    H152815   3.091   1.112   8.740
17646TIP3    H252816   2.999   0.998   8.701
17647TIP3   OH252817   4.784   1.960   9.168
17647TIP3    H152818   4.826   2.032   9.215
17647TIP3    H252819   4.819   1.974   9.079
17648TIP3   OH252820   4.668   1.165   8.633
17648TIP3    H152821   4.739   1.225   8.601
17648TIP3    H252822   4.714   1.124   8.710
17649TIP3   OH252823   4.798   1.030   8.832
17649TIP3    H152824   4.739   0.984   8.896
17649TIP3    H252825   4.870   1.063   8.889
17650TIP3   OH252826   4.833   1.413   9.188
17650TIP3    H152827   4.915   1.357   9.181
17650TIP3    H252828   4.864   1.497   9.149
17651TIP3   OH252829   4.737   0.933   8.485
17651TIP3    H152830   4.668   0.941   8.415
17651TIP3    H252831   4.713   1.011   8.540
17652TIP3   OH252832   4.619   0.603   8.430
17652TIP3    H152833   4.573   0.670   8.378
17652TIP3    H252834   4.577   0.522   8.398
17653TIP3   OH252835   4.616   0.881   8.982
17653TIP3    H152836   4.615   0.785   8.967
17653TIP3    H252837   4.593   0.888   9.076
17654TIP3   OH252838   4.599   0.615   8.837
17654TIP3    H152839   4.642   0.569   8.912
17654TIP3    H252840   4.674   0.634   8.777
17655TIP3   OH252841   4.333   1.797   8.808
17655TIP3    H152842   4.401   1.792   8.738
17655TIP3    H252843   4.375   1.861   8.869
17656TIP3   OH252844   2.984   1.437   8.931
17656TIP3    H152845   2.913   1.400   8.875
17656TIP3    H252846   2.999   1.522   8.887
17657TIP3   OH252847   3.793   1.666   8.487
17657TIP3    H152848   3.877   1.694   8.445
17657TIP3    H252849   3.770   1.592   8.426
17658TIP3   OH252850   4.506   1.776   8.586
17658TIP3    H152851   4.494   1.681   8.567
17658TIP3    H252852   4.467   1.817   8.506
17659TIP3   OH252853   3.102   1.504   8.550
17659TIP3    H152854   3.118   1.533   8.640
17659TIP3    H252855   3.186   1.458   8.527
17660TIP3   OH252856   5.999   1.302   8.543
17660TIP3    H152857   5.972   1.392   8.517
17660TIP3    H252858   5.928   1.251   8.501
17661TIP3   OH252859   6.001   1.301   8.918
17661TIP3    H152860   6.033   1.268   9.003
17661TIP3    H252861   5.960   1.222   8.879
17662TIP3   OH252862   5.311   1.226   9.288
17662TIP3    H152863   5.316   1.165   9.363
17662TIP3    H252864   5.400   1.222   9.248
17663TIP3   OH252865   6.249   1.600   8.600
17663TIP3    H152866   6.230   1.530   8.663
17663TIP3    H252867   6.274   1.674   8.656
17664TIP3   OH252868   5.275   1.608   9.020
17664TIP3    H152869   5.263   1.511   9.014
17664TIP3    H252870   5.371   1.613   8.999
17665TIP3   OH252871   4.973   0.795   8.801
17665TIP3    H152872   4.930   0.882   8.811
17665TIP3    H252873   4.908   0.750   8.743
17666TIP3   OH252874   5.040   1.087   8.954
17666TIP3    H152875   5.087   1.014   9.001
17666TIP3    H252876   5.106   1.114   8.889
17667TIP3   OH252877   5.896   2.065   8.617
17667TIP3    H152878   5.940   1.994   8.565
17667TIP3    H252879   5.890   2.023   8.703
17668TIP3   OH252880   5.800   1.524   8.970
17668TIP3    H152881   5.836   1.448   8.920
17668TIP3    H252882   5.885   1.568   8.991
17669TIP3   OH252883   6.215   1.038   8.998
17669TIP3    H152884   6.244   0.952   9.032
17669TIP3    H252885   6.185   1.016   8.907
17670TIP3   OH252886   5.188   0.894   9.073
17670TIP3    H152887   5.258   0.865   9.133
17670TIP3    H252888   5.203   0.832   8.998
17671TIP3   OH252889   5.625   1.087   8.873
17671TIP3    H152890   5.718   1.057   8.882
17671TIP3    H252891   5.582   1.005   8.840
17672TIP3   OH252892   6.866   1.035   9.141
17672TIP3    H152893   6.793   1.098   9.125
17672TIP3    H252894   6.891   1.056   9.233
17673TIP3   OH252895   5.895   1.521   8.406
17673TIP3    H152896   5.859   1.498   8.319
17673TIP3    H252897   5.845   1.602   8.427
17674TIP3   OH252898   5.657   1.448   9.199
17674TIP3    H152899   5.592   1.515   9.230
17674TIP3    H252900   5.701   1.495   9.125
17675TIP3   OH252901   5.435   0.805   9.178
17675TIP3    H152902   5.509   0.854   9.138
17675TIP3    H252903   5.427   0.730   9.117
17676TIP3   OH252904   5.472   1.641   9.305
17676TIP3    H152905   5.458   1.719   9.248
17676TIP3    H252906   5.394   1.647   9.361
17677TIP3   OH252907   4.872   1.329   8.527
17677TIP3    H152908   4.839   1.353   8.438
17677TIP3    H252909   4.906   1.414   8.561
17678TIP3   OH252910   6.318   1.845   8.770
17678TIP3    H152911   6.227   1.835   8.807
17678TIP3    H252912   6.309   1.929   8.722
17679TIP3   OH252913   6.016   1.892   8.441
17679TIP3    H152914   6.066   1.810   8.421
17679TIP3    H252915   6.076   1.958   8.398
17680TIP3   OH252916   6.158   1.677   8.350
17680TIP3    H152917   6.117   1.599   8.312
17680TIP3    H252918   6.197   1.641   8.432
17681TIP3   OH252919   6.543   1.758   9.109
17681TIP3    H152920   6.531   1.680   9.050
17681TIP3    H252921   6.525   1.832   9.047
17682TIP3   OH252922   5.837   1.155   8.368
17682TIP3    H152923   5.754   1.203   8.344
17682TIP3    H252924   5.882   1.152   8.282
17683TIP3   OH252925   5.788   0.942   8.088
17683TIP3    H152926   5.866   0.986   8.128
17683TIP3    H252927   5.833   0.872   8.037
17684TIP3   OH252928   6.741   1.397   8.958
17684TIP3    H152929   6.655   1.445   8.963
17684TIP3    H252930   6.766   1.416   8.865
17685TIP3   OH252931   6.174   1.204   8.354
17685TIP3    H152932   6.125   1.249   8.426
17685TIP3    H252933   6.265   1.202   8.388
17686TIP3   OH252934   6.416   1.272   9.253
17686TIP3    H152935   6.419   1.357   9.302
17686TIP3    H252936   6.332   1.281   9.205
17687TIP3   OH252937   5.417   1.231   8.755
17687TIP3    H152938   5.370   1.174   8.689
17687TIP3    H252939   5.490   1.173   8.782
17688TIP3   OH252940   5.539   1.637   8.908
17688TIP3    H152941   5.519   1.602   8.820
17688TIP3    H252942   5.630   1.605   8.923
17689TIP3   OH252943   5.539   1.217   9.104
17689TIP3    H152944   5.572   1.194   9.014
17689TIP3    H252945   5.590   1.299   9.124
17690TIP3   OH252946   6.074   1.841   8.886
17690TIP3    H152947   6.063   1.919   8.943
17690TIP3    H252948   6.062   1.766   8.949
17691TIP3   OH252949   5.692   1.772   9.445
17691TIP3    H152950   5.623   1.834   9.479
17691TIP3    H252951   5.636   1.707   9.399
17692TIP3   OH252952   6.027   1.077   8.165
17692TIP3    H152953   6.083   1.135   8.222
17692TIP3    H252954   6.056   1.107   8.076
17693TIP3   OH252955   5.763   1.774   8.447
17693TIP3    H152956   5.845   1.826   8.456
17693TIP3    H252957   5.705   1.835   8.398
17694TIP3   OH252958   5.470   1.919   9.511
17694TIP3    H152959   5.445   1.924   9.417
17694TIP3    H252960   5.392   1.878   9.551
17695TIP3   OH252961   5.275   1.082   8.567
17695TIP3    H152962   5.209   1.116   8.504
17695TIP3    H252963   5.255   0.987   8.569
17696TIP3   OH252964   6.337   1.715   7.739
17696TIP3    H152965   6.358   1.810   7.739
17696TIP3    H252966   6.424   1.672   7.740
17697TIP3   OH252967   4.921   1.662   9.093
17697TIP3    H152968   5.016   1.653   9.078
17697TIP3    H252969   4.917   1.740   9.150
17698TIP3   OH252970   6.785   2.102   9.154
17698TIP3    H152971   6.782   2.006   9.168
17698TIP3    H252972   6.700   2.128   9.196
17699TIP3   OH252973   5.890   1.883   9.289
17699TIP3    H152974   5.888   1.979   9.311
17699TIP3    H252975   5.817   1.849   9.345
17700TIP3   OH252976   5.645   2.016   8.243
17700TIP3    H152977   5.601   1.995   8.159
17700TIP3    H252978   5.613   2.106   8.263
17701TIP3   OH252979   5.083   1.867   8.626
17701TIP3    H152980   5.132   1.856   8.710
17701TIP3    H252981   5.027   1.787   8.627
17702TIP3   OH252982   5.854   1.911   7.880
17702TIP3    H152983   5.911   1.839   7.847
17702TIP3    H252984   5.886   1.921   7.972
17703TIP3   OH252985   5.898   1.969   8.152
17703TIP3    H152986   5.810   1.976   8.194
17703TIP3    H252987   5.948   1.921   8.220
17704TIP3   OH252988   6.681   1.243   9.412
17704TIP3    H152989   6.590   1.272   9.394
17704TIP3    H252990   6.669   1.158   9.455
17705TIP3   OH252991   6.327   1.072   9.419
17705TIP3    H152992   6.393   1.072   9.492
17705TIP3    H252993   6.356   1.149   9.366
17706TIP3   OH252994   6.102   1.128   7.907
17706TIP3    H152995   6.073   1.116   7.816
17706TIP3    H252996   6.117   1.226   7.906
17707TIP3   OH252997   5.643   0.989   9.210
17707TIP3    H152998   5.578   0.995   9.282
17707TIP3    H252999   5.617   1.068   9.157
17708TIP3   OH253000   5.468   0.889   8.768
17708TIP3    H153001   5.392   0.836   8.797
17708TIP3    H253002   5.491   0.843   8.684
17709TIP3   OH253003   5.975   0.955   8.497
17709TIP3    H153004   5.923   1.029   8.459
17709TIP3    H253005   6.025   0.926   8.419
17710TIP3   OH253006   6.134   0.983   8.737
17710TIP3    H153007   6.075   1.017   8.667
17710TIP3    H253008   6.162   0.900   8.696
17711TIP3   OH253009   6.143   1.235   9.163
17711TIP3    H153010   6.176   1.166   9.102
17711TIP3    H253011   6.106   1.179   9.234
17712TIP3   OH253012   5.237   0.741   8.846
17712TIP3    H153013   5.143   0.758   8.823
17712TIP3    H253014   5.246   0.648   8.825
17713TIP3   OH253015   5.527   0.763   8.530
17713TIP3    H153016   5.612   0.738   8.491
17713TIP3    H253017   5.466   0.757   8.453
17714TIP3   OH253018   5.347   0.778   8.311
17714TIP3    H153019   5.288   0.728   8.252
17714TIP3    H253020   5.408   0.816   8.245
17715TIP3   OH253021   6.474   2.452   9.254
17715TIP3    H153022   6.468   2.478   9.160
17715TIP3    H253023   6.551   2.503   9.283
17716TIP3   OH253024   5.895   1.022   8.928
17716TIP3    H153025   5.957   0.969   8.877
17716TIP3    H253026   5.897   0.974   9.014
17717TIP3   OH253027   5.902   0.903   9.180
17717TIP3    H153028   5.808   0.928   9.194
17717TIP3    H253029   5.948   0.953   9.250
17718TIP3   OH253030   5.600   1.302   8.319
17718TIP3    H153031   5.528   1.236   8.309
17718TIP3    H253032   5.584   1.335   8.410
17719TIP3   OH253033   6.506   1.538   8.947
17719TIP3    H153034   6.530   1.587   8.865
17719TIP3    H253035   6.420   1.497   8.922
17720TIP3   OH253036   6.006   1.620   9.309
17720TIP3    H153037   6.013   1.589   9.400
17720TIP3    H253038   5.967   1.709   9.319
17721TIP3   OH253039   6.125   0.836   8.270
17721TIP3    H153040   6.222   0.851   8.283
17721TIP3    H253041   6.099   0.916   8.221
17722TIP3   OH253042   5.297   1.335   8.981
17722TIP3    H153043   5.338   1.303   8.898
17722TIP3    H253044   5.335   1.273   9.045
17723TIP3   OH253045   5.745   1.453   8.143
17723TIP3    H153046   5.698   1.539   8.148
17723TIP3    H253047   5.689   1.396   8.200
17724TIP3   OH253048   6.164   1.878   9.195
17724TIP3    H153049   6.069   1.874   9.214
17724TIP3    H253050   6.196   1.929   9.273
17725TIP3   OH253051   6.579   0.949   8.114
17725TIP3    H153052   6.522   0.900   8.052
17725TIP3    H253053   6.570   1.039   8.074
17726TIP3   OH253054   6.792   1.810   9.197
17726TIP3    H153055   6.694   1.805   9.187
17726TIP3    H253056   6.819   1.782   9.107
17727TIP3   OH253057   6.280   1.765   8.014
17727TIP3    H153058   6.251   1.692   8.070
17727TIP3    H253059   6.278   1.722   7.926
17728TIP3   OH253060   6.271   1.402   8.867
17728TIP3    H153061   6.177   1.376   8.878
17728TIP3    H253062   6.306   1.323   8.821
17729TIP3   OH253063   5.398   1.633   8.625
17729TIP3    H153064   5.403   1.710   8.567
17729TIP3    H253065   5.304   1.611   8.619
17730TIP3   OH253066   4.962   0.930   8.322
17730TIP3    H153067   5.011   1.013   8.339
17730TIP3    H253068   4.886   0.940   8.383
17731TIP3   OH253069   5.537   1.397   8.565
17731TIP3    H153070   5.502   1.486   8.585
17731TIP3    H253071   5.499   1.344   8.638
17732TIP3   OH253072   5.667   1.973   9.087
17732TIP3    H153073   5.704   2.047   9.034
17732TIP3    H253074   5.747   1.939   9.129
17733TIP3   OH253075   5.318   1.869   8.470
17733TIP3    H153076   5.232   1.878   8.515
17733TIP3    H253077   5.350   1.961   8.472
17734TIP3   OH253078   6.057   1.608   9.042
17734TIP3    H153079   6.049   1.605   9.140
17734TIP3    H253080   6.134   1.551   9.027
17735TIP3   OH253081   6.304   2.142   9.096
17735TIP3    H153082   6.226   2.085   9.086
17735TIP3    H253083   6.290   2.206   9.023
17736TIP3   OH253084   6.376   1.986   7.748
17736TIP3    H153085   6.409   2.062   7.698
17736TIP3    H253086   6.292   2.024   7.781
17737TIP3   OH253087   5.103   1.850   9.230
17737TIP3    H153088   5.154   1.768   9.237
17737TIP3    H253089   5.146   1.904   9.297
17738TIP3   OH253090   5.390   1.485   7.928
17738TIP3    H153091   5.416   1.397   7.897
17738TIP3    H253092   5.374   1.468   8.023
17739TIP3   OH253093   5.340   1.486   8.204
17739TIP3    H153094   5.417   1.457   8.254
17739TIP3    H253095   5.347   1.584   8.209
17740TIP3   OH253096   5.073   1.177   8.400
17740TIP3    H153097   5.010   1.224   8.458
17740TIP3    H253098   5.093   1.246   8.334
17741TIP3   OH253099   5.606   1.685   8.154
17741TIP3    H153100   5.518   1.716   8.183
17741TIP3    H253101   5.624   1.748   8.082
17742TIP3   OH253102   5.822   0.737   8.562
17742TIP3    H153103   5.863   0.824   8.540
17742TIP3    H253104   5.775   0.758   8.644
17743TIP3   OH253105   6.055   1.063   9.360
17743TIP3    H153106   6.067   1.109   9.445
17743TIP3    H253107   6.143   1.021   9.352
17744TIP3   OH253108   5.348   1.760   8.215
17744TIP3    H153109   5.320   1.830   8.151
17744TIP3    H253110   5.334   1.804   8.301
17745TIP3   OH253111   6.356   1.165   8.741
17745TIP3    H153112   6.284   1.101   8.752
17745TIP3    H253113   6.431   1.119   8.787
17746TIP3   OH253114   5.068   1.391   8.208
17746TIP3    H153115   5.138   1.459   8.216
17746TIP3    H253116   5.112   1.333   8.142
17747TIP3   OH253117   4.988   0.637   8.329
17747TIP3    H153118   5.034   0.722   8.329
17747TIP3    H253119   4.902   0.664   8.363
17748TIP3   OH253120   6.324   2.117   8.689
17748TIP3    H153121   6.282   2.163   8.614
17748TIP3    H253122   6.419   2.134   8.667
17749TIP3   OH253123   4.942   1.605   8.598
17749TIP3    H153124   4.866   1.638   8.648
17749TIP3    H253125   4.922   1.643   8.509
17750TIP3   OH253126   5.561   1.685   7.842
17750TIP3    H153127   5.504   1.613   7.880
17750TIP3    H253128   5.637   1.632   7.813
17751TIP3   OH253129   6.227   2.012   9.421
17751TIP3    H153130   6.222   1.968   9.508
17751TIP3    H253131   6.299   2.076   9.439
17752TIP3   OH253132   6.010   1.711   7.758
17752TIP3    H153133   6.049   1.632   7.802
17752TIP3    H253134   6.075   1.720   7.686
17753TIP3   OH253135   5.203   1.202   8.063
17753TIP3    H153136   5.259   1.167   8.134
17753TIP3    H253137   5.269   1.207   7.990
17754TIP3   OH253138   5.697   1.401   7.869
17754TIP3    H153139   5.727   1.417   7.961
17754TIP3    H253140   5.705   1.303   7.866
17755TIP3   OH253141   6.328   1.647   9.246
17755TIP3    H153142   6.400   1.693   9.199
17755TIP3    H253143   6.254   1.708   9.229
17756TIP3   OH253144   5.409   1.104   8.284
17756TIP3    H153145   5.390   1.057   8.366
17756TIP3    H253146   5.447   1.032   8.229
17757TIP3   OH253147   5.511   0.902   8.126
17757TIP3    H153148   5.486   0.900   8.032
17757TIP3    H253149   5.609   0.906   8.118
17758TIP3   OH253150   6.365   1.248   7.766
17758TIP3    H153151   6.303   1.206   7.704
17758TIP3    H253152   6.307   1.322   7.798
17759TIP3   OH253153   5.841   1.279   9.327
17759TIP3    H153154   5.916   1.288   9.266
17759TIP3    H253155   5.778   1.343   9.289
17760TIP3   OH253156   6.470   1.491   9.416
17760TIP3    H153157   6.407   1.549   9.367
17760TIP3    H253158   6.556   1.520   9.379
17761TIP3   OH253159   5.322   1.964   8.029
17761TIP3    H153160   5.417   1.958   8.007
17761TIP3    H253161   5.290   2.010   7.949
17762TIP3   OH253162   4.801   1.341   8.248
17762TIP3    H153163   4.895   1.364   8.231
17762TIP3    H253164   4.795   1.254   8.204
17763TIP3   OH253165   4.713   1.953   8.656
17763TIP3    H153166   4.645   1.892   8.622
17763TIP3    H253167   4.757   1.897   8.723
17764TIP3   OH253168   4.846   1.807   8.845
17764TIP3    H153169   4.842   1.733   8.908
17764TIP3    H253170   4.905   1.868   8.893
17765TIP3   OH253171   6.579   2.205   8.644
17765TIP3    H153172   6.603   2.240   8.732
17765TIP3    H253173   6.638   2.254   8.585
17766TIP3   OH253174   6.607   2.228   8.926
17766TIP3    H153175   6.563   2.140   8.921
17766TIP3    H253176   6.682   2.205   8.984
17767TIP3   OH253177   6.658   1.907   9.496
17767TIP3    H153178   6.565   1.921   9.518
17767TIP3    H253179   6.694   1.998   9.496
17768TIP3   OH253180   6.495   1.405   8.110
17768TIP3    H153181   6.556   1.478   8.092
17768TIP3    H253182   6.524   1.373   8.198
17769TIP3   OH253183   6.605   1.278   8.327
17769TIP3    H153184   6.534   1.238   8.383
17769TIP3    H253185   6.662   1.322   8.393
17770TIP3   OH253186   6.653   1.677   8.758
17770TIP3    H153187   6.703   1.611   8.706
17770TIP3    H253188   6.643   1.750   8.694
17771TIP3   OH253189   6.483   1.977   8.951
17771TIP3    H153190   6.412   2.019   9.002
17771TIP3    H253191   6.433   1.929   8.881
17772TIP3   OH253192   6.532   1.179   7.966
17772TIP3    H153193   6.468   1.199   7.894
17772TIP3    H253194   6.513   1.258   8.023
17773TIP3   OH253195   6.417   0.856   7.912
17773TIP3    H153196   6.373   0.940   7.888
17773TIP3    H253197   6.360   0.792   7.868
17774TIP3   OH253198   6.421   1.142   8.476
17774TIP3    H153199   6.417   1.046   8.474
17774TIP3    H253200   6.401   1.162   8.570
17775TIP3   OH253201   5.056   1.259   9.175
17775TIP3    H153202   5.052   1.202   9.096
17775TIP3    H253203   5.146   1.240   9.209
17776TIP3   OH253204   6.715   1.562   9.320
17776TIP3    H153205   6.788   1.499   9.306
17776TIP3    H253206   6.739   1.636   9.261
17777TIP3   OH253207   6.913   1.362   9.343
17777TIP3    H153208   6.824   1.328   9.368
17777TIP3    H253209   6.965   1.291   9.383
17778TIP3   OH253210   6.394   0.854   8.316
17778TIP3    H153211   6.443   0.820   8.394
17778TIP3    H253212   6.465   0.896   8.264
17779TIP3   OH253213   6.575   1.057   8.861
17779TIP3    H153214   6.665   1.070   8.824
17779TIP3    H253215   6.590   1.084   8.954
17780TIP3   OH253216   6.636   1.180   9.102
17780TIP3    H153217   6.557   1.218   9.147
17780TIP3    H253218   6.669   1.258   9.052
17781TIP3   OH253219   6.162   2.074   8.301
17781TIP3    H153220   6.212   2.054   8.219
17781TIP3    H253221   6.219   2.139   8.344
17782TIP3   OH253222   5.440   1.910   9.233
17782TIP3    H153223   5.393   1.987   9.193
17782TIP3    H253224   5.526   1.923   9.188
17783TIP3   OH253225   5.882   2.151   9.349
17783TIP3    H153226   5.929   2.142   9.435
17783TIP3    H253227   5.948   2.202   9.298
17784TIP3   OH253228   6.063   2.304   9.220
17784TIP3    H153229   6.136   2.253   9.182
17784TIP3    H253230   6.112   2.366   9.278
17785TIP3   OH253231   5.125   2.169   9.257
17785TIP3    H153232   5.037   2.203   9.227
17785TIP3    H253233   5.120   2.188   9.351
17786TIP3   OH253234   5.355   2.143   9.114
17786TIP3    H153235   5.270   2.159   9.160
17786TIP3    H253236   5.335   2.177   9.024
17787TIP3   OH253237   5.777   2.173   8.916
17787TIP3    H153238   5.711   2.194   8.847
17787TIP3    H253239   5.791   2.261   8.956
17788TIP3   OH253240   6.048   2.115   8.966
17788TIP3    H153241   5.953   2.129   8.946
17788TIP3    H253242   6.089   2.190   8.922
17789TIP3   OH253243   6.257   2.306   8.881
17789TIP3    H153244   6.241   2.391   8.834
17789TIP3    H253245   6.281   2.246   8.807
17790TIP3   OH253246   5.022   1.962   8.993
17790TIP3    H153247   5.049   1.941   9.086
17790TIP3    H253248   5.098   1.921   8.945
17791TIP3   OH253249   5.222   1.832   8.861
17791TIP3    H153250   5.240   1.748   8.907
17791TIP3    H253251   5.312   1.870   8.854
17792TIP3   OH253252   5.486   1.928   8.862
17792TIP3    H153253   5.520   1.839   8.844
17792TIP3    H253254   5.532   1.947   8.946
17793TIP3   OH253255   4.813   1.734   8.398
17793TIP3    H153256   4.729   1.703   8.359
17793TIP3    H253257   4.807   1.828   8.375
17794TIP3   OH253258   5.590   1.922   7.975
17794TIP3    H153259   5.679   1.942   7.939
17794TIP3    H253260   5.567   1.846   7.917
17795TIP3   OH253261   6.308   2.032   8.069
17795TIP3    H153262   6.302   1.935   8.053
17795TIP3    H253263   6.263   2.066   7.989
17796TIP3   OH253264   4.894   1.756   8.034
17796TIP3    H153265   4.897   1.787   8.125
17796TIP3    H253266   4.983   1.715   8.022
17797TIP3   OH253267   6.539   2.186   9.247
17797TIP3    H153268   6.459   2.153   9.202
17797TIP3    H253269   6.518   2.281   9.252
17798TIP3   OH253270   7.798   1.558   8.026
17798TIP3    H153271   7.771   1.649   8.001
17798TIP3    H253272   7.724   1.508   7.986
17799TIP3   OH253273   7.802   1.548   8.408
17799TIP3    H153274   7.800   1.486   8.483
17799TIP3    H253275   7.759   1.493   8.341
17800TIP3   OH253276   7.098   1.460   8.766
17800TIP3    H153277   7.132   1.386   8.819
17800TIP3    H253278   7.180   1.506   8.745
17801TIP3   OH253279   8.043   1.857   8.086
17801TIP3    H153280   8.027   1.790   8.153
17801TIP3    H253281   8.071   1.933   8.140
17802TIP3   OH253282   7.072   1.862   8.497
17802TIP3    H153283   7.061   1.765   8.497
17802TIP3    H253284   7.168   1.869   8.486
17803TIP3   OH253285   6.771   1.054   8.286
17803TIP3    H153286   6.722   1.137   8.302
17803TIP3    H253287   6.708   1.009   8.227
17804TIP3   OH253288   6.843   1.353   8.456
17804TIP3    H153289   6.892   1.275   8.489
17804TIP3    H253290   6.893   1.376   8.376
17805TIP3   OH253291   7.697   2.324   8.106
17805TIP3    H153292   7.740   2.252   8.054
17805TIP3    H253293   7.682   2.279   8.190
17806TIP3   OH253294   7.594   1.784   8.454
17806TIP3    H153295   7.625   1.707   8.403
17806TIP3    H253296   7.681   1.826   8.473
17807TIP3   OH253297   6.984   1.141   8.559
17807TIP3    H153298   7.064   1.112   8.609
17807TIP3    H253299   6.998   1.087   8.478
17808TIP3   OH253300   7.423   1.343   8.357
17808TIP3    H153301   7.514   1.310   8.370
17808TIP3    H253302   7.377   1.262   8.325
17809TIP3   OH253303   7.693   1.779   7.891
17809TIP3    H153304   7.631   1.746   7.826
17809TIP3    H253305   7.649   1.862   7.918
17810TIP3   OH253306   7.456   1.700   8.684
17810TIP3    H153307   7.389   1.764   8.719
17810TIP3    H253308   7.492   1.750   8.608
17811TIP3   OH253309   7.221   1.044   8.654
17811TIP3    H153310   7.284   1.112   8.685
17811TIP3    H253311   7.265   1.011   8.575
17812TIP3   OH253312   7.280   1.897   8.779
17812TIP3    H153313   7.250   1.980   8.736
17812TIP3    H253314   7.201   1.878   8.834
17813TIP3   OH253315   6.683   1.589   8.013
17813TIP3    H153316   6.629   1.608   7.934
17813TIP3    H253317   6.705   1.678   8.045
17814TIP3   OH253318   8.111   2.095   8.246
17814TIP3    H153319   8.021   2.088   8.287
17814TIP3    H253320   8.106   2.186   8.210
17815TIP3   OH253321   7.814   2.151   7.927
17815TIP3    H153322   7.863   2.068   7.909
17815TIP3    H253323   7.874   2.215   7.882
17816TIP3   OH253324   7.957   1.935   7.834
17816TIP3    H153325   7.912   1.858   7.797
17816TIP3    H253326   7.993   1.899   7.917
17817TIP3   OH253327   7.635   1.412   7.855
17817TIP3    H153328   7.550   1.459   7.839
17817TIP3    H253329   7.670   1.407   7.764
17818TIP3   OH253330   7.588   1.189   7.589
17818TIP3    H153331   7.666   1.237   7.621
17818TIP3    H253332   7.630   1.126   7.526
17819TIP3   OH253333   7.975   1.491   7.826
17819TIP3    H153334   7.921   1.517   7.904
17819TIP3    H253335   8.058   1.463   7.870
17820TIP3   OH253336   7.210   1.488   8.243
17820TIP3    H153337   7.166   1.431   8.176
17820TIP3    H253338   7.285   1.431   8.271
17821TIP3   OH253339   7.338   1.901   8.390
17821TIP3    H153340   7.315   1.860   8.305
17821TIP3    H253341   7.427   1.865   8.406
17822TIP3   OH253342   7.345   1.457   8.601
17822TIP3    H153343   7.376   1.432   8.511
17822TIP3    H253344   7.391   1.541   8.618
17823TIP3   OH253345   7.870   2.099   8.370
17823TIP3    H153346   7.860   2.176   8.428
17823TIP3    H253347   7.858   2.024   8.431
17824TIP3   OH253348   7.483   2.017   8.916
17824TIP3    H153349   7.426   2.082   8.962
17824TIP3    H253350   7.415   1.973   8.860
17825TIP3   OH253351   7.827   1.331   7.655
17825TIP3    H153352   7.881   1.394   7.707
17825TIP3    H253353   7.850   1.360   7.563
17826TIP3   OH253354   7.233   1.572   9.021
17826TIP3    H153355   7.237   1.658   9.067
17826TIP3    H253356   7.136   1.556   9.026
17827TIP3   OH253357   7.561   2.025   7.941
17827TIP3    H153358   7.636   2.087   7.945
17827TIP3    H253359   7.504   2.063   7.873
17828TIP3   OH253360   7.279   2.179   9.008
17828TIP3    H153361   7.242   2.180   8.918
17828TIP3    H253362   7.200   2.160   9.063
17829TIP3   OH253363   7.075   1.337   8.049
17829TIP3    H153364   7.007   1.376   7.990
17829TIP3    H253365   7.043   1.247   8.059
17830TIP3   OH253366   8.133   1.958   7.243
17830TIP3    H153367   8.143   2.055   7.234
17830TIP3    H253368   8.226   1.928   7.234
17831TIP3   OH253369   6.857   1.714   8.953
17831TIP3    H153370   6.789   1.695   8.884
17831TIP3    H253371   6.893   1.625   8.972
17832TIP3   OH253372   6.711   1.907   8.589
17832TIP3    H153373   6.807   1.903   8.578
17832TIP3    H253374   6.700   1.988   8.640
17833TIP3   OH253375   7.686   2.142   8.782
17833TIP3    H153376   7.675   2.237   8.802
17833TIP3    H253377   7.610   2.104   8.832
17834TIP3   OH253378   7.453   2.289   7.724
17834TIP3    H153379   7.397   2.237   7.663
17834TIP3    H253380   7.399   2.367   7.743
17835TIP3   OH253381   6.881   2.124   8.112
17835TIP3    H153382   6.925   2.112   8.199
17835TIP3    H253383   6.827   2.043   8.109
17836TIP3   OH253384   7.648   2.181   7.369
17836TIP3    H153385   7.702   2.106   7.334
17836TIP3    H253386   7.675   2.179   7.464
17837TIP3   OH253387   7.700   2.221   7.639
17837TIP3    H153388   7.609   2.233   7.675
17837TIP3    H253389   7.740   2.168   7.710
17838TIP3   OH253390   7.058   1.899   8.938
17838TIP3    H153391   7.107   1.880   9.021
17838TIP3    H253392   6.985   1.835   8.945
17839TIP3   OH253393   7.900   1.384   7.398
17839TIP3    H153394   7.856   1.366   7.312
17839TIP3    H253395   7.970   1.447   7.372
17840TIP3   OH253396   7.401   1.228   8.744
17840TIP3    H153397   7.350   1.251   8.824
17840TIP3    H253398   7.388   1.309   8.691
17841TIP3   OH253399   7.266   1.143   8.255
17841TIP3    H153400   7.187   1.093   8.283
17841TIP3    H253401   7.288   1.097   8.171
17842TIP3   OH253402   7.771   1.212   7.983
17842TIP3    H153403   7.717   1.285   7.944
17842TIP3    H253404   7.818   1.179   7.904
17843TIP3   OH253405   7.939   1.246   8.207
17843TIP3    H153406   7.875   1.273   8.138
17843TIP3    H253407   7.940   1.150   8.194
17844TIP3   OH253408   7.204   1.271   8.941
17844TIP3    H153409   7.208   1.343   9.006
17844TIP3    H253410   7.146   1.205   8.981
17845TIP3   OH253411   7.034   0.999   8.327
17845TIP3    H153412   6.939   1.018   8.305
17845TIP3    H253413   7.038   0.904   8.307
17846TIP3   OH253414   7.323   1.015   8.017
17846TIP3    H153415   7.406   0.996   7.972
17846TIP3    H253416   7.259   1.012   7.943
17847TIP3   OH253417   7.147   1.029   7.800
17847TIP3    H153418   7.084   0.983   7.741
17847TIP3    H253419   7.205   1.070   7.733
17848TIP3   OH253420   8.261   2.749   8.737
17848TIP3    H153421   8.251   2.752   8.640
17848TIP3    H253422   8.341   2.805   8.746
17849TIP3   OH253423   7.214   1.819   9.152
17849TIP3    H153424   7.298   1.853   9.184
17849TIP3    H253425   7.157   1.822   9.232
17850TIP3   OH253426   7.696   1.276   8.432
17850TIP3    H153427   7.755   1.218   8.383
17850TIP3    H253428   7.688   1.230   8.518
17851TIP3   OH253429   7.671   1.168   8.708
17851TIP3    H153430   7.577   1.192   8.718
17851TIP3    H253431   7.710   1.213   8.785
17852TIP3   OH253432   7.404   1.550   7.819
17852TIP3    H153433   7.327   1.493   7.800
17852TIP3    H253434   7.381   1.589   7.907
17853TIP3   OH253435   8.303   1.764   8.421
17853TIP3    H153436   8.336   1.822   8.350
17853TIP3    H253437   8.212   1.744   8.392
17854TIP3   OH253438   7.836   1.896   8.795
17854TIP3    H153439   7.813   1.833   8.865
17854TIP3    H253440   7.767   1.965   8.802
17855TIP3   OH253441   7.921   1.089   7.756
17855TIP3    H153442   8.017   1.106   7.765
17855TIP3    H253443   7.892   1.169   7.707
17856TIP3   OH253444   7.097   1.587   8.478
17856TIP3    H153445   7.131   1.557   8.391
17856TIP3    H253446   7.130   1.517   8.537
17857TIP3   OH253447   6.968   1.493   9.089
17857TIP3    H153448   6.974   1.471   9.184
17857TIP3    H253449   6.893   1.438   9.060
17858TIP3   OH253450   7.942   2.158   8.668
17858TIP3    H153451   7.849   2.144   8.692
17858TIP3    H253452   7.966   2.237   8.718
17859TIP3   OH253453   8.376   1.207   7.597
17859TIP3    H153454   8.318   1.158   7.535
17859TIP3    H253455   8.368   1.297   7.559
17860TIP3   OH253456   8.076   2.028   7.513
17860TIP3    H153457   8.044   1.961   7.576
17860TIP3    H253458   8.079   1.978   7.430
17861TIP3   OH253459   8.049   1.663   8.341
17861TIP3    H153460   7.960   1.628   8.360
17861TIP3    H253461   8.092   1.584   8.303
17862TIP3   OH253462   7.193   1.888   8.110
17862TIP3    H153463   7.194   1.966   8.052
17862TIP3    H253464   7.099   1.866   8.109
17863TIP3   OH253465   6.758   1.187   7.807
17863TIP3    H153466   6.804   1.271   7.826
17863TIP3    H253467   6.680   1.195   7.866
17864TIP3   OH253468   7.337   1.657   8.060
17864TIP3    H153469   7.297   1.745   8.075
17864TIP3    H253470   7.294   1.603   8.130
17865TIP3   OH253471   7.462   2.232   8.572
17865TIP3    H153472   7.500   2.305   8.519
17865TIP3    H253473   7.540   2.199   8.617
17866TIP3   OH253474   7.113   2.125   7.955
17866TIP3    H153475   7.027   2.130   8.002
17866TIP3    H253476   7.141   2.218   7.958
17867TIP3   OH253477   7.853   1.865   8.523
17867TIP3    H153478   7.855   1.867   8.621
17867TIP3    H253479   7.924   1.803   8.501
17868TIP3   OH253480   7.835   1.767   7.405
17868TIP3    H153481   7.873   1.737   7.491
17868TIP3    H253482   7.741   1.739   7.416
17869TIP3   OH253483   8.077   2.415   8.593
17869TIP3    H153484   8.017   2.347   8.557
17869TIP3    H253485   8.089   2.469   8.511
17870TIP3   OH253486   8.168   2.235   7.233
17870TIP3    H153487   8.210   2.313   7.193
17870TIP3    H253488   8.086   2.276   7.266
17871TIP3   OH253489   7.982   1.692   7.632
17871TIP3    H153490   7.974   1.625   7.702
17871TIP3    H253491   8.078   1.691   7.615
17872TIP3   OH253492   6.903   2.094   8.732
17872TIP3    H153493   6.953   2.017   8.762
17872TIP3    H253494   6.929   2.160   8.797
17873TIP3   OH253495   7.176   1.746   7.414
17873TIP3    H153496   7.221   1.664   7.386
17873TIP3    H253497   7.166   1.727   7.510
17874TIP3   OH253498   7.139   1.742   7.689
17874TIP3    H153499   7.220   1.714   7.735
17874TIP3    H253500   7.141   1.839   7.699
17875TIP3   OH253501   6.873   1.434   7.886
17875TIP3    H153502   6.808   1.480   7.943
17875TIP3    H253503   6.889   1.504   7.820
17876TIP3   OH253504   7.415   1.994   7.656
17876TIP3    H153505   7.318   1.990   7.667
17876TIP3    H253506   7.431   1.929   7.586
17877TIP3   OH253507   7.620   0.993   8.053
17877TIP3    H153508   7.657   1.081   8.031
17877TIP3    H253509   7.566   1.013   8.131
17878TIP3   OH253510   7.141   2.015   7.699
17878TIP3    H153511   7.113   2.085   7.637
17878TIP3    H253512   7.126   2.057   7.786
17879TIP3   OH253513   8.155   1.412   8.233
17879TIP3    H153514   8.071   1.360   8.228
17879TIP3    H253515   8.208   1.357   8.293
17880TIP3   OH253516   6.868   1.647   7.695
17880TIP3    H153517   6.940   1.712   7.705
17880TIP3    H253518   6.910   1.589   7.627
17881TIP3   OH253519   6.781   0.895   7.815
17881TIP3    H153520   6.823   0.983   7.812
17881TIP3    H253521   6.698   0.918   7.859
17882TIP3   OH253522   8.116   2.373   8.173
17882TIP3    H153523   8.078   2.422   8.097
17882TIP3    H253524   8.211   2.388   8.158
17883TIP3   OH253525   6.741   1.871   8.086
17883TIP3    H153526   6.664   1.893   8.140
17883TIP3    H253527   6.712   1.905   7.998
17884TIP3   OH253528   6.893   2.401   9.154
17884TIP3    H153529   6.978   2.401   9.203
17884TIP3    H253530   6.871   2.306   9.154
17885TIP3   OH253531   7.371   2.375   9.185
17885TIP3    H153532   7.459   2.347   9.215
17885TIP3    H253533   7.352   2.308   9.118
17886TIP3   OH253534   7.350   1.943   7.338
17886TIP3    H153535   7.280   1.879   7.366
17886TIP3    H253536   7.427   1.883   7.349
17887TIP3   OH253537   7.795   1.986   7.240
17887TIP3    H153538   7.823   1.913   7.300
17887TIP3    H253539   7.857   1.976   7.166
17888TIP3   OH253540   7.024   1.816   9.348
17888TIP3    H153541   7.039   1.723   9.373
17888TIP3    H253542   6.936   1.813   9.307
17889TIP3   OH253543   7.000   1.459   7.549
17889TIP3    H153544   7.056   1.426   7.622
17889TIP3    H253545   7.068   1.464   7.477
17890TIP3   OH253546   7.507   1.829   9.116
17890TIP3    H153547   7.488   1.880   9.035
17890TIP3    H253548   7.559   1.753   9.079
17891TIP3   OH253549   7.155   1.539   9.345
17891TIP3    H153550   7.145   1.444   9.343
17891TIP3    H253551   7.131   1.560   9.437
17892TIP3   OH253552   7.202   1.360   7.768
17892TIP3    H153553   7.180   1.320   7.853
17892TIP3    H253554   7.241   1.285   7.719
17893TIP3   OH253555   7.460   1.415   8.991
17893TIP3    H153556   7.393   1.486   8.993
17893TIP3    H253557   7.520   1.446   8.921
17894TIP3   OH253558   7.309   1.153   7.613
17894TIP3    H153559   7.285   1.157   7.518
17894TIP3    H253560   7.407   1.161   7.608
17895TIP3   OH253561   8.136   1.488   7.270
17895TIP3    H153562   8.110   1.442   7.188
17895TIP3    H253563   8.103   1.578   7.248
17896TIP3   OH253564   7.632   1.504   8.767
17896TIP3    H153565   7.720   1.540   8.750
17896TIP3    H253566   7.573   1.577   8.739
17897TIP3   OH253567   7.119   2.227   7.519
17897TIP3    H153568   7.214   2.222   7.493
17897TIP3    H253569   7.084   2.266   7.437
17898TIP3   OH253570   6.599   1.602   7.730
17898TIP3    H153571   6.694   1.621   7.718
17898TIP3    H253572   6.590   1.513   7.691
17899TIP3   OH253573   6.508   2.212   8.143
17899TIP3    H153574   6.442   2.148   8.108
17899TIP3    H253575   6.554   2.156   8.209
17900TIP3   OH253576   6.644   2.068   8.333
17900TIP3    H153577   6.632   1.991   8.390
17900TIP3    H253578   6.695   2.126   8.392
17901TIP3   OH253579   8.372   2.461   8.132
17901TIP3    H153580   8.395   2.493   8.221
17901TIP3    H253581   8.432   2.513   8.076
17902TIP3   OH253582   8.405   2.493   8.413
17902TIP3    H153583   8.362   2.404   8.411
17902TIP3    H253584   8.489   2.471   8.457
17903TIP3   OH253585   8.258   1.682   7.590
17903TIP3    H153586   8.334   1.741   7.572
17903TIP3    H253587   8.289   1.637   7.672
17904TIP3   OH253588   8.355   1.541   7.792
17904TIP3    H153589   8.307   1.491   7.861
17904TIP3    H253590   8.437   1.568   7.837
17905TIP3   OH253591   8.434   1.921   8.228
17905TIP3    H153592   8.482   1.887   8.152
17905TIP3    H253593   8.405   2.007   8.195
17906TIP3   OH253594   8.278   2.252   8.416
17906TIP3    H153595   8.239   2.240   8.504
17906TIP3    H253596   8.238   2.179   8.366
17907TIP3   OH253597   8.329   1.446   7.457
17907TIP3    H153598   8.259   1.455   7.388
17907TIP3    H253599   8.305   1.521   7.514
17908TIP3   OH253600   8.210   1.114   7.400
17908TIP3    H153601   8.165   1.189   7.360
17908TIP3    H253602   8.166   1.040   7.357
17909TIP3   OH253603   8.200   1.395   7.962
17909TIP3    H153604   8.207   1.299   7.957
17909TIP3    H253605   8.192   1.411   8.059
17910TIP3   OH253606   6.832   1.467   8.706
17910TIP3    H153607   6.831   1.437   8.612
17910TIP3    H253608   6.930   1.475   8.720
17911TIP3   OH253609   8.188   1.120   7.790
17911TIP3    H153610   8.231   1.088   7.873
17911TIP3    H253611   8.264   1.155   7.740
17912TIP3   OH253612   6.829   1.126   8.785
17912TIP3    H153613   6.873   1.116   8.699
17912TIP3    H253614   6.847   1.219   8.805
17913TIP3   OH253615   7.956   2.336   7.786
17913TIP3    H153616   8.009   2.315   7.707
17913TIP3    H253617   8.016   2.394   7.836
17914TIP3   OH253618   7.063   2.129   9.181
17914TIP3    H153619   6.971   2.105   9.161
17914TIP3    H253620   7.067   2.114   9.276
17915TIP3   OH253621   7.237   2.168   8.723
17915TIP3    H153622   7.185   2.241   8.685
17915TIP3    H253623   7.321   2.184   8.675
17916TIP3   OH253624   7.668   2.410   8.831
17916TIP3    H153625   7.704   2.401   8.922
17916TIP3    H253626   7.738   2.464   8.788
17917TIP3   OH253627   7.863   2.561   8.716
17917TIP3    H153628   7.932   2.517   8.664
17917TIP3    H253629   7.917   2.617   8.776
17918TIP3   OH253630   6.915   2.427   8.744
17918TIP3    H153631   6.825   2.458   8.720
17918TIP3    H253632   6.921   2.459   8.834
17919TIP3   OH253633   7.150   2.404   8.603
17919TIP3    H153634   7.064   2.416   8.649
17919TIP3    H253635   7.128   2.434   8.513
17920TIP3   OH253636   7.574   2.431   8.400
17920TIP3    H153637   7.504   2.451   8.335
17920TIP3    H253638   7.586   2.518   8.444
17921TIP3   OH253639   7.841   2.371   8.451
17921TIP3    H153640   7.747   2.386   8.430
17921TIP3    H253641   7.884   2.445   8.406
17922TIP3   OH253642   8.056   2.564   8.365
17922TIP3    H153643   8.039   2.646   8.314
17922TIP3    H253644   8.078   2.500   8.294
17923TIP3   OH253645   6.826   2.220   8.491
17923TIP3    H153646   6.852   2.192   8.581
17923TIP3    H253647   6.896   2.174   8.439
17924TIP3   OH253648   7.018   2.089   8.348
17924TIP3    H153649   7.033   2.004   8.396
17924TIP3    H253650   7.109   2.124   8.342
17925TIP3   OH253651   7.286   2.187   8.346
17925TIP3    H153652   7.315   2.095   8.330
17925TIP3    H253653   7.328   2.203   8.433
17926TIP3   OH253654   6.617   1.989   7.879
17926TIP3    H153655   6.532   1.952   7.847
17926TIP3    H253656   6.601   2.083   7.861
17927TIP3   OH253657   7.378   2.201   7.439
17927TIP3    H153658   7.473   2.205   7.418
17927TIP3    H253659   7.359   2.110   7.406
17928TIP3   OH253660   8.105   2.295   7.556
17928TIP3    H153661   8.098   2.197   7.544
17928TIP3    H253662   8.060   2.326   7.475
17929TIP3   OH253663   6.692   2.020   7.521
17929TIP3    H153664   6.685   2.034   7.616
17929TIP3    H253665   6.779   1.975   7.513
17930TIP3   OH253666   8.250   2.481   8.795
17930TIP3    H153667   8.187   2.455   8.724
17930TIP3    H253668   8.270   2.573   8.772
17931TIP3   OH253669   8.529   1.295   7.819
17931TIP3    H153670   8.516   1.390   7.801
17931TIP3    H253671   8.499   1.256   7.735
17932TIP3   OH253672   8.606   1.595   7.868
17932TIP3    H153673   8.667   1.560   7.936
17932TIP3    H253674   8.668   1.650   7.819
17933TIP3   OH253675   9.390   2.042   7.439
17933TIP3    H153676   9.394   2.016   7.346
17933TIP3    H253677   9.382   2.139   7.430
17934TIP3   OH253678   8.474   1.844   7.500
17934TIP3    H153679   8.427   1.867   7.417
17934TIP3    H253680   8.500   1.931   7.535
17935TIP3   OH253681   9.382   1.454   7.047
17935TIP3    H153682   9.446   1.489   7.110
17935TIP3    H253683   9.403   1.359   7.044
17936TIP3   OH253684   9.360   2.313   7.416
17936TIP3    H153685   9.400   2.388   7.461
17936TIP3    H253686   9.296   2.356   7.357
17937TIP3   OH253687   8.880   1.596   7.531
17937TIP3    H153688   8.805   1.628   7.477
17937TIP3    H253689   8.856   1.505   7.549
17938TIP3   OH253690   8.504   2.172   8.069
17938TIP3    H153691   8.599   2.175   8.085
17938TIP3    H253692   8.473   2.240   8.130
17939TIP3   OH253693   9.239   2.528   7.222
17939TIP3    H153694   9.196   2.507   7.136
17939TIP3    H253695   9.208   2.619   7.239
17940TIP3   OH253696   8.676   2.381   7.598
17940TIP3    H153697   8.721   2.372   7.684
17940TIP3    H253698   8.620   2.300   7.599
17941TIP3   OH253699   9.441   2.433   6.857
17941TIP3    H153700   9.499   2.362   6.821
17941TIP3    H253701   9.476   2.442   6.948
17942TIP3   OH253702   9.491   2.482   7.126
17942TIP3    H153703   9.403   2.486   7.170
17942TIP3    H253704   9.548   2.448   7.196
17943TIP3   OH253705   9.671   1.666   6.874
17943TIP3    H153706   9.657   1.623   6.787
17943TIP3    H253707   9.756   1.709   6.861
17944TIP3   OH253708   8.908   1.313   7.275
17944TIP3    H153709   8.863   1.252   7.213
17944TIP3    H253710   8.990   1.330   7.226
17945TIP3   OH253711   9.171   1.845   7.287
17945TIP3    H153712   9.124   1.759   7.276
17945TIP3    H253713   9.174   1.853   7.384
17946TIP3   OH253714   9.334   1.965   7.101
17946TIP3    H153715   9.294   2.053   7.117
17946TIP3    H253716   9.283   1.910   7.165
17947TIP3   OH253717   9.899   2.269   6.931
17947TIP3    H153718   9.888   2.259   7.028
17947TIP3    H253719   9.820   2.223   6.900
17948TIP3   OH253720   8.989   2.142   7.569
17948TIP3    H153721   8.986   2.228   7.522
17948TIP3    H253722   8.896   2.127   7.586
17949TIP3   OH253723   8.550   1.447   7.292
17949TIP3    H153724   8.603   1.526   7.315
17949TIP3    H253725   8.476   1.454   7.356
17950TIP3   OH253726   9.129   1.901   7.568
17950TIP3    H153727   9.104   1.994   7.551
17950TIP3    H253728   9.057   1.875   7.626
17951TIP3   OH253729   8.912   2.384   7.445
17951TIP3    H153730   8.824   2.392   7.488
17951TIP3    H253731   8.942   2.478   7.448
17952TIP3   OH253732   9.614   2.025   6.917
17952TIP3    H153733   9.656   1.981   6.992
17952TIP3    H253734   9.522   1.997   6.930
17953TIP3   OH253735   8.705   2.337   8.207
17953TIP3    H153736   8.758   2.261   8.236
17953TIP3    H253737   8.758   2.408   8.249
17954TIP3   OH253738   8.987   1.994   6.901
17954TIP3    H153739   9.003   1.902   6.871
17954TIP3    H253740   8.967   1.980   6.995
17955TIP3   OH253741   8.934   1.997   7.174
17955TIP3    H153742   9.012   1.963   7.221
17955TIP3    H253743   8.942   2.094   7.185
17956TIP3   OH253744   8.669   1.691   7.374
17956TIP3    H153745   8.603   1.735   7.432
17956TIP3    H253746   8.685   1.761   7.308
17957TIP3   OH253747   9.203   2.202   7.132
17957TIP3    H153748   9.113   2.227   7.159
17957TIP3    H253749   9.217   2.261   7.057
17958TIP3   OH253750   8.944   2.273   7.189
17958TIP3    H153751   8.914   2.342   7.125
17958TIP3    H253752   8.927   2.318   7.275
17959TIP3   OH253753   8.661   1.904   7.180
17959TIP3    H153754   8.732   1.971   7.190
17959TIP3    H253755   8.705   1.846   7.114
17960TIP3   OH253756   8.578   1.151   7.298
17960TIP3    H153757   8.630   1.234   7.301
17960TIP3    H253758   8.500   1.178   7.348
17961TIP3   OH253759   8.537   2.122   7.573
17961TIP3    H153760   8.462   2.148   7.629
17961TIP3    H253761   8.508   2.159   7.486
17962TIP3   OH253762   9.153   2.198   6.818
17962TIP3    H153763   9.097   2.124   6.853
17962TIP3    H253764   9.227   2.148   6.779
17963TIP3   OH253765   9.587   2.237   6.735
17963TIP3    H153766   9.623   2.157   6.778
17963TIP3    H253767   9.629   2.237   6.646
17964TIP3   OH253768   8.795   1.716   7.034
17964TIP3    H153769   8.847   1.677   7.106
17964TIP3    H253770   8.863   1.719   6.963
17965TIP3   OH253771   9.304   1.910   6.837
17965TIP3    H153772   9.306   1.924   6.934
17965TIP3    H253773   9.302   1.812   6.834
17966TIP3   OH253774   9.016   1.615   7.262
17966TIP3    H153775   8.976   1.572   7.339
17966TIP3    H253776   9.043   1.538   7.208
17967TIP3   OH253777   9.105   1.410   7.095
17967TIP3    H153778   9.072   1.413   7.003
17967TIP3    H253779   9.200   1.427   7.081
17968TIP3   OH253780   8.913   2.475   7.002
17968TIP3    H153781   9.009   2.471   6.983
17968TIP3    H253782   8.883   2.523   6.923
17969TIP3   OH253783   8.393   1.858   7.217
17969TIP3    H153784   8.488   1.878   7.205
17969TIP3    H253785   8.387   1.768   7.177
17970TIP3   OH253786   8.305   2.469   7.632
17970TIP3    H153787   8.238   2.406   7.597
17970TIP3    H253788   8.351   2.411   7.698
17971TIP3   OH253789   8.442   2.321   7.819
17971TIP3    H153790   8.428   2.248   7.881
17971TIP3    H253791   8.492   2.383   7.876
17972TIP3   OH253792   9.730   2.587   7.308
17972TIP3    H153793   9.762   2.557   7.220
17972TIP3    H253794   9.790   2.661   7.325
17973TIP3   OH253795   8.704   2.753   8.205
17973TIP3    H153796   8.606   2.757   8.198
17973TIP3    H253797   8.715   2.690   8.278
17974TIP3   OH253798   8.921   2.657   8.064
17974TIP3    H153799   8.847   2.710   8.100
17974TIP3    H253800   8.920   2.688   7.971
17975TIP3   OH253801   8.623   2.476   7.977
17975TIP3    H153802   8.643   2.442   8.067
17975TIP3    H253803   8.695   2.433   7.927
17976TIP3   OH253804   8.819   2.348   7.830
17976TIP3    H153805   8.851   2.260   7.857
17976TIP3    H253806   8.904   2.396   7.822
17977TIP3   OH253807   9.080   2.446   7.834
17977TIP3    H153808   9.128   2.363   7.827
17977TIP3    H253809   9.094   2.469   7.927
17978TIP3   OH253810   8.410   2.244   7.368
17978TIP3    H153811   8.326   2.209   7.334
17978TIP3    H253812   8.396   2.338   7.354
17979TIP3   OH253813   9.181   2.435   6.952
17979TIP3    H153814   9.269   2.458   6.914
17979TIP3    H253815   9.159   2.360   6.893
17980TIP3   OH253816   9.826   2.521   7.067
17980TIP3    H153817   9.874   2.449   7.024
17980TIP3    H253818   9.807   2.578   6.990
17981TIP3   OH253819   8.481   2.273   7.002
17981TIP3    H153820   8.482   2.293   7.097
17981TIP3    H253821   8.569   2.232   6.990
17982TIP3   OH253822   2.279   2.952   8.980
17982TIP3    H153823   2.207   2.906   8.934
17982TIP3    H253824   2.243   2.962   9.068
17983TIP3   OH253825   1.828   2.251   8.748
17983TIP3    H153826   1.916   2.270   8.785
17983TIP3    H253827   1.844   2.168   8.696
17984TIP3   OH253828   2.085   2.384   8.830
17984TIP3    H153829   2.125   2.453   8.883
17984TIP3    H253830   2.099   2.417   8.738
17985TIP3   OH253831   2.383   3.001   8.429
17985TIP3    H153832   2.392   3.097   8.411
17985TIP3    H253833   2.475   2.970   8.413
17986TIP3   OH253834   1.678   3.310   8.908
17986TIP3    H153835   1.645   3.295   8.817
17986TIP3    H253836   1.656   3.405   8.922
17987TIP3   OH253837   1.894   3.218   8.547
17987TIP3    H153838   1.952   3.149   8.508
17987TIP3    H253839   1.933   3.228   8.636
17988TIP3   OH253840   1.939   3.274   8.820
17988TIP3    H153841   1.851   3.273   8.863
17988TIP3    H253842   1.990   3.214   8.877
17989TIP3   OH253843   2.143   2.457   8.575
17989TIP3    H153844   2.108   2.412   8.496
17989TIP3    H253845   2.227   2.492   8.541
17990TIP3   OH253846   3.970   3.789  -0.596
17990TIP3    H153847   3.890   3.818  -0.643
17990TIP3    H253848   4.002   3.872  -0.556
17991TIP3   OH253849   2.180   2.146   8.927
17991TIP3    H153850   2.274   2.145   8.908
17991TIP3    H253851   2.148   2.229   8.884
17992TIP3   OH253852   1.800   2.753   8.784
17992TIP3    H153853   1.752   2.836   8.803
17992TIP3    H253854   1.767   2.692   8.851
17993TIP3   OH253855   2.632   2.263   8.766
17993TIP3    H153856   2.565   2.208   8.721
17993TIP3    H253857   2.613   2.350   8.723
17994TIP3   OH253858   2.313   3.074   8.691
17994TIP3    H153859   2.311   3.002   8.755
17994TIP3    H253860   2.330   3.029   8.606
17995TIP3   OH253861   2.069   2.807   8.586
17995TIP3    H153862   2.129   2.777   8.658
17995TIP3    H253863   1.985   2.769   8.617
17996TIP3   OH253864   2.415   3.277   8.411
17996TIP3    H153865   2.454   3.348   8.358
17996TIP3    H253866   2.334   3.323   8.442
17997TIP3   OH253867   2.230   2.733   8.794
17997TIP3    H153868   2.212   2.698   8.884
17997TIP3    H253869   2.328   2.728   8.789
17998TIP3   OH253870   1.442   2.782   8.592
17998TIP3    H153871   1.461   2.699   8.544
17998TIP3    H253872   1.424   2.746   8.680
17999TIP3   OH253873   1.635   2.977   8.800
17999TIP3    H153874   1.541   3.005   8.795
17999TIP3    H253875   1.671   3.025   8.723
18000TIP3   OH253876   1.368   3.067   8.863
18000TIP3    H153877   1.352   3.133   8.792
18000TIP3    H253878   1.341   3.119   8.940
18001TIP3   OH253879   1.608   2.987   8.505
18001TIP3    H153880   1.554   2.911   8.539
18001TIP3    H253881   1.680   2.939   8.460
18002TIP3   OH253882   2.041   3.030   8.415
18002TIP3    H153883   2.081   2.961   8.473
18002TIP3    H253884   2.098   3.026   8.336
18003TIP3   OH253885   1.245   2.491   8.712
18003TIP3    H153886   1.293   2.443   8.780
18003TIP3    H253887   1.315   2.498   8.643
18004TIP3   OH253888   1.748   2.694   8.522
18004TIP3    H153889   1.762   2.708   8.618
18004TIP3    H253890   1.757   2.596   8.518
18005TIP3   OH253891   1.550   2.219   8.795
18005TIP3    H153892   1.531   2.180   8.709
18005TIP3    H253893   1.647   2.227   8.792
18006TIP3   OH253894   2.381   2.532   8.449
18006TIP3    H153895   2.360   2.483   8.366
18006TIP3    H253896   2.348   2.621   8.422
18007TIP3   OH253897   1.365   3.267   8.682
18007TIP3    H153898   1.461   3.268   8.664
18007TIP3    H253899   1.334   3.317   8.604
18008TIP3   OH253900   2.509   2.726   8.779
18008TIP3    H153901   2.579   2.787   8.747
18008TIP3    H253902   2.558   2.680   8.852
18009TIP3   OH253903   2.647   2.591   8.969
18009TIP3    H153904   2.591   2.556   9.041
18009TIP3    H253905   2.725   2.627   9.016
18010TIP3   OH253906   2.573   2.495   8.636
18010TIP3    H153907   2.506   2.500   8.563
18010TIP3    H253908   2.546   2.575   8.687
18011TIP3   OH253909   2.450   2.144   8.594
18011TIP3    H153910   2.440   2.215   8.529
18011TIP3    H253911   2.384   2.081   8.562
18012TIP3   OH253912   2.209   3.386   8.965
18012TIP3    H153913   2.254   3.365   8.880
18012TIP3    H253914   2.271   3.451   9.002
18013TIP3   OH253915   1.634   3.230   8.634
18013TIP3    H153916   1.724   3.248   8.600
18013TIP3    H253917   1.610   3.155   8.575
18014TIP3   OH253918   2.350   3.340   8.733
18014TIP3    H153919   2.342   3.243   8.718
18014TIP3    H253920   2.310   3.373   8.650
18015TIP3   OH253921   0.941   3.052   8.701
18015TIP3    H153922   0.950   3.095   8.787
18015TIP3    H253923   1.031   3.016   8.685
18016TIP3   OH253924   3.846   2.858   8.688
18016TIP3    H153925   3.816   2.949   8.666
18016TIP3    H253926   3.771   2.807   8.652
18017TIP3   OH253927   3.835   2.862   9.052
18017TIP3    H153928   3.856   2.830   9.142
18017TIP3    H253929   3.796   2.782   9.012
18018TIP3   OH253930   4.088   3.160   8.748
18018TIP3    H153931   4.072   3.090   8.812
18018TIP3    H253932   4.118   3.233   8.804
18019TIP3   OH253933   3.130   3.153   9.183
18019TIP3    H153934   3.117   3.061   9.153
18019TIP3    H253935   3.222   3.171   9.155
18020TIP3   OH253936   2.821   2.364   8.938
18020TIP3    H153937   2.778   2.451   8.947
18020TIP3    H253938   2.761   2.323   8.872
18021TIP3   OH253939   2.908   2.649   9.044
18021TIP3    H153940   2.950   2.573   9.086
18021TIP3    H253941   2.969   2.670   8.972
18022TIP3   OH253942   3.737   3.622   8.765
18022TIP3    H153943   3.782   3.551   8.715
18022TIP3    H253944   3.727   3.581   8.852
18023TIP3   OH253945   3.642   3.078   9.098
18023TIP3    H153946   3.684   3.003   9.053
18023TIP3    H253947   3.722   3.123   9.131
18024TIP3   OH253948   4.670   2.407   9.114
18024TIP3    H153949   4.692   2.492   9.157
18024TIP3    H253950   4.684   2.430   9.020
18025TIP3   OH253951   4.070   2.583   9.154
18025TIP3    H153952   4.103   2.490   9.159
18025TIP3    H253953   4.035   2.581   9.063
18026TIP3   OH253954   3.440   2.254   9.077
18026TIP3    H153955   3.386   2.319   9.028
18026TIP3    H253956   3.370   2.206   9.126
18027TIP3   OH253957   4.089   2.336   8.742
18027TIP3    H153958   4.163   2.320   8.806
18027TIP3    H253959   4.138   2.370   8.665
18028TIP3   OH253960   3.477   2.647   8.968
18028TIP3    H153961   3.567   2.611   8.982
18028TIP3    H253962   3.425   2.565   8.953
18029TIP3   OH253963   4.742   2.624   9.266
18029TIP3    H153964   4.654   2.666   9.256
18029TIP3    H253965   4.743   2.603   9.360
18030TIP3   OH253966   3.738   3.079   8.557
18030TIP3    H153967   3.695   3.054   8.474
18030TIP3    H253968   3.691   3.162   8.579
18031TIP3   OH253969   4.299   2.332   8.919
18031TIP3    H153970   4.307   2.295   9.008
18031TIP3    H253971   4.354   2.412   8.930
18032TIP3   OH253972   2.715   2.887   8.677
18032TIP3    H153973   2.679   2.910   8.589
18032TIP3    H253974   2.747   2.974   8.709
18033TIP3   OH253975   4.160   3.402   8.917
18033TIP3    H153976   4.069   3.395   8.953
18033TIP3    H253977   4.153   3.487   8.869
18034TIP3   OH253978   4.429   2.271   9.166
18034TIP3    H153979   4.391   2.311   9.245
18034TIP3    H253980   4.514   2.320   9.156
18035TIP3   OH253981   3.859   3.449   8.592
18035TIP3    H153982   3.908   3.367   8.570
18035TIP3    H253983   3.919   3.515   8.549
18036TIP3   OH253984   4.001   3.235   8.496
18036TIP3    H153985   3.965   3.155   8.455
18036TIP3    H253986   4.037   3.200   8.580
18037TIP3   OH253987   4.378   3.315   9.264
18037TIP3    H153988   4.371   3.237   9.204
18037TIP3    H253989   4.364   3.389   9.202
18038TIP3   OH253990   3.678   2.712   8.518
18038TIP3    H153991   3.594   2.757   8.495
18038TIP3    H253992   3.720   2.703   8.431
18039TIP3   OH253993   3.637   2.495   8.233
18039TIP3    H153994   3.707   2.544   8.280
18039TIP3    H253995   3.692   2.429   8.185
18040TIP3   OH253996   4.581   2.951   9.104
18040TIP3    H153997   4.496   3.001   9.114
18040TIP3    H253998   4.606   2.977   9.012
18041TIP3   OH253999   4.023   2.794   8.489
18041TIP3    H154000   3.967   2.817   8.567
18041TIP3    H254001   4.105   2.766   8.533
18042TIP3   OH254002   4.302   2.901   9.329
18042TIP3    H154003   4.320   2.912   9.425
18042TIP3    H254004   4.225   2.843   9.329
18043TIP3   OH254005   3.250   2.790   8.903
18043TIP3    H154006   3.206   2.732   8.837
18043TIP3    H254007   3.332   2.738   8.922
18044TIP3   OH254008   3.381   3.197   9.053
18044TIP3    H154009   3.366   3.158   8.965
18044TIP3    H254010   3.468   3.160   9.077
18045TIP3   OH254011   3.442   2.769   9.209
18045TIP3    H154012   3.473   2.740   9.120
18045TIP3    H254013   3.518   2.816   9.246
18046TIP3   OH254014   3.916   3.403   9.032
18046TIP3    H154015   3.894   3.480   9.087
18046TIP3    H254016   3.896   3.326   9.090
18047TIP3   OH254017   3.865   2.648   8.316
18047TIP3    H154018   3.924   2.708   8.367
18047TIP3    H254019   3.890   2.673   8.223
18048TIP3   OH254020   3.606   3.330   8.594
18048TIP3    H154021   3.686   3.384   8.607
18048TIP3    H254022   3.545   3.391   8.549
18049TIP3   OH254023   4.381   1.892   8.367
18049TIP3    H154024   4.298   1.916   8.413
18049TIP3    H254025   4.396   1.972   8.312
18050TIP3   OH254026   3.107   2.634   8.727
18050TIP3    H154027   3.049   2.677   8.661
18050TIP3    H254028   3.087   2.541   8.713
18051TIP3   OH254029   4.178   3.258   7.912
18051TIP3    H154030   4.186   3.355   7.898
18051TIP3    H254031   4.270   3.229   7.899
18052TIP3   OH254032   4.626   3.661   9.298
18052TIP3    H154033   4.624   3.565   9.317
18052TIP3    H254034   4.541   3.688   9.342
18053TIP3   OH254035   3.730   3.478   9.427
18053TIP3    H154036   3.690   3.563   9.453
18053TIP3    H254037   3.658   3.416   9.445
18054TIP3   OH254038   3.487   3.575   8.393
18054TIP3    H154039   3.441   3.554   8.310
18054TIP3    H254040   3.454   3.665   8.413
18055TIP3   OH254041   2.926   3.425   8.777
18055TIP3    H154042   2.973   3.414   8.863
18055TIP3    H254043   2.868   3.347   8.779
18056TIP3   OH254044   3.690   3.477   8.033
18056TIP3    H154045   3.747   3.406   7.996
18056TIP3    H254046   3.724   3.484   8.125
18057TIP3   OH254047   3.739   3.525   8.303
18057TIP3    H154048   3.651   3.534   8.345
18057TIP3    H254049   3.789   3.481   8.374
18058TIP3   OH254050   3.942   2.700   8.061
18058TIP3    H154051   3.906   2.672   7.975
18058TIP3    H254052   4.023   2.745   8.033
18059TIP3   OH254053   3.657   2.067   8.354
18059TIP3    H154054   3.624   2.067   8.446
18059TIP3    H254055   3.610   1.988   8.321
18060TIP3   OH254056   3.305   2.439   8.923
18060TIP3    H154057   3.218   2.397   8.943
18060TIP3    H254058   3.320   2.408   8.830
18061TIP3   OH254059   3.816   2.514   8.652
18061TIP3    H154060   3.760   2.583   8.610
18061TIP3    H254061   3.868   2.482   8.576
18062TIP3   OH254062   3.972   2.541   8.892
18062TIP3    H154063   3.912   2.569   8.819
18062TIP3    H254064   4.005   2.458   8.851
18063TIP3   OH254065   3.310   2.053   8.342
18063TIP3    H154066   3.284   2.038   8.434
18063TIP3    H254067   3.230   2.097   8.312
18064TIP3   OH254068   2.799   2.045   8.702
18064TIP3    H154069   2.885   2.064   8.655
18064TIP3    H254070   2.762   2.135   8.710
18065TIP3   OH254071   3.921   2.765   9.293
18065TIP3    H154072   3.992   2.710   9.252
18065TIP3    H254073   3.970   2.815   9.361
18066TIP3   OH254074   3.682   2.248   8.965
18066TIP3    H154075   3.591   2.247   9.005
18066TIP3    H254076   3.739   2.244   9.044
18067TIP3   OH254077   3.083   2.293   9.004
18067TIP3    H154078   2.995   2.301   8.963
18067TIP3    H254079   3.112   2.203   8.976
18068TIP3   OH254080   3.362   2.340   8.677
18068TIP3    H154081   3.457   2.324   8.662
18068TIP3    H254082   3.321   2.291   8.604
18069TIP3   OH254083   4.126   2.323   9.175
18069TIP3    H154084   4.097   2.305   9.267
18069TIP3    H254085   4.076   2.254   9.128
18070TIP3   OH254086   4.305   4.021   9.396
18070TIP3    H154087   4.317   4.031   9.300
18070TIP3    H254088   4.388   4.061   9.430
18071TIP3   OH254089   3.730   2.581   9.055
18071TIP3    H154090   3.805   2.536   9.012
18071TIP3    H254091   3.733   2.549   9.146
18072TIP3   OH254092   3.239   2.050   8.957
18072TIP3    H154093   3.239   1.954   8.963
18072TIP3    H254094   3.288   2.065   8.875
18073TIP3   OH254095   3.445   2.863   8.466
18073TIP3    H154096   3.373   2.796   8.455
18073TIP3    H254097   3.427   2.895   8.558
18074TIP3   OH254098   4.349   3.104   9.094
18074TIP3    H154099   4.371   3.149   9.010
18074TIP3    H254100   4.265   3.058   9.074
18075TIP3   OH254101   3.906   2.171   8.335
18075TIP3    H154102   3.809   2.153   8.337
18075TIP3    H254103   3.911   2.268   8.352
18076TIP3   OH254104   3.973   2.422   8.435
18076TIP3    H154105   4.070   2.429   8.446
18076TIP3    H254106   3.952   2.499   8.379
18077TIP3   OH254107   3.116   2.886   9.123
18077TIP3    H154108   3.163   2.861   9.041
18077TIP3    H254109   3.142   2.814   9.182
18078TIP3   OH254110   3.592   3.012   8.289
18078TIP3    H154111   3.544   3.098   8.297
18078TIP3    H254112   3.537   2.955   8.347
18079TIP3   OH254113   4.001   3.410   9.394
18079TIP3    H154114   3.910   3.444   9.383
18079TIP3    H254115   4.050   3.489   9.422
18080TIP3   OH254116   4.417   2.511   8.268
18080TIP3    H154117   4.355   2.466   8.206
18080TIP3    H254118   4.413   2.600   8.226
18081TIP3   OH254119   4.627   3.369   9.351
18081TIP3    H154120   4.530   3.365   9.335
18081TIP3    H254121   4.658   3.342   9.261
18082TIP3   OH254122   4.117   3.330   8.177
18082TIP3    H154123   4.090   3.259   8.237
18082TIP3    H254124   4.128   3.284   8.092
18083TIP3   OH254125   4.105   2.959   9.018
18083TIP3    H154126   4.011   2.933   9.020
18083TIP3    H254127   4.145   2.882   8.974
18084TIP3   OH254128   3.238   3.188   8.770
18084TIP3    H154129   3.241   3.268   8.715
18084TIP3    H254130   3.143   3.170   8.772
18085TIP3   OH254131   2.790   2.508   8.461
18085TIP3    H154132   2.844   2.582   8.492
18085TIP3    H254133   2.721   2.501   8.531
18086TIP3   OH254134   3.379   2.954   8.713
18086TIP3    H154135   3.343   3.043   8.732
18086TIP3    H254136   3.341   2.903   8.787
18087TIP3   OH254137   3.512   3.538   9.233
18087TIP3    H154138   3.545   3.613   9.179
18087TIP3    H254139   3.595   3.497   9.259
18088TIP3   OH254140   3.159   3.427   8.620
18088TIP3    H154141   3.073   3.434   8.666
18088TIP3    H254142   3.189   3.520   8.623
18089TIP3   OH254143   3.897   3.173   9.186
18089TIP3    H154144   3.905   3.178   9.282
18089TIP3    H254145   3.974   3.120   9.161
18090TIP3   OH254146   3.871   3.060   8.077
18090TIP3    H154147   3.923   3.035   8.157
18090TIP3    H254148   3.783   3.029   8.104
18091TIP3   OH254149   4.129   3.694   9.247
18091TIP3    H154150   4.045   3.656   9.212
18091TIP3    H254151   4.139   3.768   9.184
18092TIP3   OH254152   4.211   3.534   7.898
18092TIP3    H154153   4.249   3.606   7.845
18092TIP3    H254154   4.131   3.579   7.931
18093TIP3   OH254155   4.031   2.995   8.295
18093TIP3    H154156   4.020   2.927   8.365
18093TIP3    H254157   4.128   2.991   8.282
18094TIP3   OH254158   3.237   3.038   8.078
18094TIP3    H154159   3.250   2.947   8.047
18094TIP3    H254160   3.216   3.024   8.172
18095TIP3   OH254161   3.180   3.045   8.351
18095TIP3    H154162   3.254   3.013   8.406
18095TIP3    H254163   3.188   3.142   8.359
18096TIP3   OH254164   2.921   2.741   8.556
18096TIP3    H154165   2.852   2.785   8.609
18096TIP3    H254166   2.935   2.807   8.485
18097TIP3   OH254167   3.955   2.122   8.609
18097TIP3    H154168   3.931   2.144   8.516
18097TIP3    H254169   3.987   2.208   8.642
18098TIP3   OH254170   3.449   3.243   8.301
18098TIP3    H154171   3.362   3.270   8.335
18098TIP3    H254172   3.463   3.309   8.232
18099TIP3   OH254173   3.643   2.304   8.703
18099TIP3    H154174   3.704   2.378   8.683
18099TIP3    H254175   3.654   2.297   8.801
18100TIP3   OH254176   3.791   2.035   8.824
18100TIP3    H154177   3.767   2.118   8.868
18100TIP3    H254178   3.846   2.069   8.750
18101TIP3   OH254179   3.193   3.318   8.366
18101TIP3    H154180   3.162   3.387   8.303
18101TIP3    H254181   3.176   3.362   8.452
18102TIP3   OH254182   4.196   2.720   8.890
18102TIP3    H154183   4.122   2.657   8.896
18102TIP3    H254184   4.268   2.672   8.937
18103TIP3   OH254185   2.910   2.948   8.358
18103TIP3    H154186   2.981   3.015   8.365
18103TIP3    H254187   2.953   2.889   8.292
18104TIP3   OH254188   4.165   3.674   8.840
18104TIP3    H154189   4.123   3.721   8.764
18104TIP3    H254190   4.259   3.693   8.819
18105TIP3   OH254191   2.783   3.164   8.749
18105TIP3    H154192   2.706   3.194   8.799
18105TIP3    H254193   2.762   3.201   8.660
18106TIP3   OH254194   3.401   3.242   7.993
18106TIP3    H154195   3.344   3.171   8.030
18106TIP3    H254196   3.475   3.189   7.959
18107TIP3   OH254197   3.837   3.285   7.902
18107TIP3    H154198   3.879   3.218   7.960
18107TIP3    H254199   3.894   3.283   7.823
18108TIP3   OH254200   3.045   2.762   8.211
18108TIP3    H154201   3.096   2.718   8.281
18108TIP3    H254202   3.113   2.764   8.140
18109TIP3   OH254203   3.556   2.959   8.019
18109TIP3    H154204   3.557   2.971   8.116
18109TIP3    H254205   3.556   2.861   8.013
18110TIP3   OH254206   4.142   3.169   9.387
18110TIP3    H154207   4.233   3.188   9.358
18110TIP3    H254208   4.106   3.260   9.392
18111TIP3   OH254209   3.254   2.665   8.438
18111TIP3    H154210   3.236   2.616   8.519
18111TIP3    H254211   3.291   2.593   8.381
18112TIP3   OH254212   3.359   2.471   8.282
18112TIP3    H154213   3.322   2.449   8.194
18112TIP3    H254214   3.455   2.468   8.265
18113TIP3   OH254215   4.178   2.789   7.936
18113TIP3    H154216   4.154   2.741   7.854
18113TIP3    H254217   4.145   2.879   7.911
18114TIP3   OH254218   3.162   3.522   8.180
18114TIP3    H154219   3.257   3.516   8.159
18114TIP3    H254220   3.130   3.568   8.100
18115TIP3   OH254221   2.642   2.899   8.398
18115TIP3    H154222   2.736   2.921   8.381
18115TIP3    H254223   2.635   2.811   8.355
18116TIP3   OH254224   2.554   3.514   8.804
18116TIP3    H154225   2.489   3.449   8.770
18116TIP3    H254226   2.602   3.460   8.871
18117TIP3   OH254227   2.690   3.375   8.994
18117TIP3    H154228   2.673   3.301   9.054
18117TIP3    H254229   2.729   3.440   9.056
18118TIP3   OH254230   4.417   3.766   8.794
18118TIP3    H154231   4.445   3.797   8.882
18118TIP3    H254232   4.482   3.809   8.736
18119TIP3   OH254233   4.449   3.786   9.074
18119TIP3    H154234   4.408   3.696   9.071
18119TIP3    H254235   4.520   3.768   9.138
18120TIP3   OH254236   4.311   2.975   8.270
18120TIP3    H154237   4.379   3.038   8.242
18120TIP3    H254238   4.353   2.935   8.349
18121TIP3   OH254239   4.438   2.842   8.473
18121TIP3    H154240   4.372   2.799   8.532
18121TIP3    H254241   4.502   2.880   8.536
18122TIP3   OH254242   4.492   3.236   8.900
18122TIP3    H154243   4.547   3.171   8.852
18122TIP3    H254244   4.487   3.310   8.836
18123TIP3   OH254245   4.324   3.534   9.102
18123TIP3    H154246   4.252   3.575   9.153
18123TIP3    H254247   4.276   3.486   9.031
18124TIP3   OH254248   4.376   2.750   8.121
18124TIP3    H154249   4.305   2.752   8.053
18124TIP3    H254250   4.349   2.826   8.175
18125TIP3   OH254251   4.248   2.424   8.074
18125TIP3    H154252   4.204   2.461   7.997
18125TIP3    H254253   4.223   2.329   8.066
18126TIP3   OH254254   4.253   2.698   8.619
18126TIP3    H154255   4.259   2.602   8.613
18126TIP3    H254256   4.239   2.713   8.715
18127TIP3   OH254257   4.536   3.117   9.457
18127TIP3    H154258   4.593   3.056   9.407
18127TIP3    H254259   4.555   3.203   9.415
18128TIP3   OH254260   4.725   2.908   9.445
18128TIP3    H154261   4.660   2.861   9.498
18128TIP3    H254262   4.806   2.859   9.464
18129TIP3   OH254263   4.190   2.159   8.064
18129TIP3    H154264   4.261   2.122   8.119
18129TIP3    H254265   4.114   2.101   8.082
18130TIP3   OH254266   4.250   2.417   8.517
18130TIP3    H154267   4.290   2.328   8.530
18130TIP3    H254268   4.306   2.449   8.444
18131TIP3   OH254269   4.410   2.592   9.007
18131TIP3    H154270   4.496   2.616   8.966
18131TIP3    H254271   4.426   2.624   9.098
18132TIP3   OH254272   4.491   2.732   9.239
18132TIP3    H154273   4.415   2.780   9.279
18132TIP3    H254274   4.528   2.806   9.186
18133TIP3   OH254275   4.357   2.166   8.551
18133TIP3    H154276   4.407   2.150   8.634
18133TIP3    H254277   4.296   2.090   8.550
18134TIP3   OH254278   4.441   2.096   8.189
18134TIP3    H154279   4.477   2.027   8.129
18134TIP3    H254280   4.504   2.169   8.176
18135TIP3   OH254281   2.885   1.965   8.958
18135TIP3    H154282   2.799   1.933   8.988
18135TIP3    H254283   2.864   1.998   8.869
18136TIP3   OH254284   4.002   3.632   8.452
18136TIP3    H154285   4.053   3.615   8.370
18136TIP3    H254286   4.058   3.697   8.497
18137TIP3   OH254287   3.259   3.456   9.334
18137TIP3    H154288   3.234   3.549   9.321
18137TIP3    H254289   3.355   3.461   9.320
18138TIP3   OH254290   3.888   3.848   9.394
18138TIP3    H154291   3.958   3.806   9.342
18138TIP3    H254292   3.938   3.924   9.432
18139TIP3   OH254293   3.198   3.720   9.266
18139TIP3    H154294   3.112   3.730   9.309
18139TIP3    H254295   3.176   3.741   9.173
18140TIP3   OH254296   3.625   3.732   9.058
18140TIP3    H154297   3.552   3.747   8.995
18140TIP3    H254298   3.633   3.821   9.098
18141TIP3   OH254299   3.889   3.673   9.119
18141TIP3    H154300   3.795   3.688   9.095
18141TIP3    H254301   3.933   3.744   9.069
18142TIP3   OH254302   4.097   3.864   9.032
18142TIP3    H154303   4.081   3.948   8.985
18142TIP3    H254304   4.123   3.804   8.959
18143TIP3   OH254305   2.877   3.531   9.146
18143TIP3    H154306   2.866   3.492   9.233
18143TIP3    H254307   2.947   3.474   9.106
18144TIP3   OH254308   3.066   3.383   9.011
18144TIP3    H154309   3.085   3.303   9.065
18144TIP3    H254310   3.155   3.423   9.006
18145TIP3   OH254311   3.328   3.487   9.011
18145TIP3    H154312   3.360   3.396   8.997
18145TIP3    H254313   3.360   3.503   9.101
18146TIP3   OH254314   3.907   2.145   9.107
18146TIP3    H154315   3.876   2.066   9.151
18146TIP3    H254316   3.976   2.108   9.048
18147TIP3   OH254317   4.414   2.002   8.978
18147TIP3    H154318   4.461   2.060   8.914
18147TIP3    H254319   4.341   2.061   9.005
18148TIP3   OH254320   4.527   2.126   8.764
18148TIP3    H154321   4.600   2.075   8.722
18148TIP3    H254322   4.560   2.218   8.749
18149TIP3   OH254323   2.902   1.754   8.737
18149TIP3    H154324   2.987   1.788   8.703
18149TIP3    H254325   2.913   1.770   8.833
18150TIP3   OH254326   3.605   1.872   8.990
18150TIP3    H154327   3.660   1.938   8.946
18150TIP3    H254328   3.589   1.910   9.077
18151TIP3   OH254329   4.120   2.027   8.985
18151TIP3    H154330   4.136   2.014   8.890
18151TIP3    H254331   4.120   1.936   9.019
18152TIP3   OH254332   4.170   1.955   8.541
18152TIP3    H154333   4.089   2.008   8.554
18152TIP3    H254334   4.140   1.868   8.572
18153TIP3   OH254335   2.657   3.291   8.546
18153TIP3    H154336   2.573   3.256   8.511
18153TIP3    H254337   2.645   3.385   8.525
18154TIP3   OH254338   3.586   2.053   8.616
18154TIP3    H154339   3.615   2.002   8.692
18154TIP3    H254340   3.604   2.145   8.645
18155TIP3   OH254341   3.429   3.480   8.126
18155TIP3    H154342   3.517   3.502   8.090
18155TIP3    H254343   3.407   3.404   8.067
18156TIP3   OH254344   4.148   3.597   8.220
18156TIP3    H154345   4.140   3.499   8.207
18156TIP3    H254346   4.104   3.630   8.139
18157TIP3   OH254347   2.736   3.319   8.184
18157TIP3    H154348   2.737   3.339   8.278
18157TIP3    H254349   2.822   3.274   8.171
18158TIP3   OH254350   4.380   3.745   9.382
18158TIP3    H154351   4.292   3.712   9.357
18158TIP3    H254352   4.358   3.830   9.422
18159TIP3   OH254353   5.642   3.115   8.171
18159TIP3    H154354   5.613   3.206   8.152
18159TIP3    H254355   5.565   3.065   8.141
18160TIP3   OH254356   5.640   3.113   8.554
18160TIP3    H154357   5.672   3.088   8.643
18160TIP3    H254358   5.598   3.032   8.524
18161TIP3   OH254359   4.939   3.010   8.919
18161TIP3    H154360   4.970   2.943   8.982
18161TIP3    H254361   5.017   3.067   8.912
18162TIP3   OH254362   5.886   3.415   8.236
18162TIP3    H154363   5.868   3.346   8.301
18162TIP3    H254364   5.909   3.491   8.292
18163TIP3   OH254365   4.910   3.419   8.644
18163TIP3    H154366   4.901   3.321   8.646
18163TIP3    H254367   5.007   3.427   8.641
18164TIP3   OH254368   4.617   2.624   8.430
18164TIP3    H154369   4.567   2.706   8.444
18164TIP3    H254370   4.548   2.568   8.391
18165TIP3   OH254371   4.677   2.910   8.602
18165TIP3    H154372   4.726   2.833   8.639
18165TIP3    H254373   4.735   2.937   8.530
18166TIP3   OH254374   5.533   3.879   8.251
18166TIP3    H154375   5.579   3.806   8.205
18166TIP3    H254376   5.523   3.842   8.340
18167TIP3   OH254377   5.439   3.339   8.602
18167TIP3    H154378   5.477   3.263   8.556
18167TIP3    H254379   5.522   3.384   8.628
18168TIP3   OH254380   6.453   2.660   8.601
18168TIP3    H154381   6.480   2.743   8.645
18168TIP3    H254382   6.469   2.682   8.508
18169TIP3   OH254383   5.852   2.841   8.635
18169TIP3    H154384   5.894   2.756   8.655
18169TIP3    H254385   5.820   2.825   8.544
18170TIP3   OH254386   5.189   2.501   8.601
18170TIP3    H154387   5.168   2.573   8.538
18170TIP3    H254388   5.141   2.427   8.557
18171TIP3   OH254389   5.882   2.592   8.223
18171TIP3    H154390   5.955   2.575   8.288
18171TIP3    H254391   5.934   2.627   8.148
18172TIP3   OH254392   4.823   2.703   8.708
18172TIP3    H154393   4.906   2.682   8.755
18172TIP3    H254394   4.834   2.647   8.628
18173TIP3   OH254395   5.263   2.901   8.499
18173TIP3    H154396   5.357   2.874   8.513
18173TIP3    H254397   5.224   2.817   8.468
18174TIP3   OH254398   6.525   2.869   8.769
18174TIP3    H154399   6.440   2.915   8.752
18174TIP3    H254400   6.539   2.893   8.862
18175TIP3   OH254401   5.185   2.483   9.034
18175TIP3    H154402   5.127   2.520   8.965
18175TIP3    H254403   5.131   2.504   9.114
18176TIP3   OH254404   5.537   3.338   8.040
18176TIP3    H154405   5.489   3.313   7.960
18176TIP3    H254406   5.490   3.421   8.065
18177TIP3   OH254407   5.291   3.259   8.830
18177TIP3    H154408   5.228   3.324   8.868
18177TIP3    H254409   5.335   3.311   8.760
18178TIP3   OH254410   6.094   2.594   8.394
18178TIP3    H154411   6.082   2.544   8.476
18178TIP3    H254412   6.146   2.671   8.424
18179TIP3   OH254413   5.057   2.599   8.819
18179TIP3    H154414   5.118   2.673   8.841
18179TIP3    H254415   5.105   2.558   8.744
18180TIP3   OH254416   5.119   3.452   8.926
18180TIP3    H154417   5.094   3.539   8.889
18180TIP3    H254418   5.041   3.437   8.984
18181TIP3   OH254419   4.515   3.143   8.164
18181TIP3    H154420   4.473   3.168   8.080
18181TIP3    H254421   4.544   3.229   8.199
18182TIP3   OH254422   5.955   3.659   8.402
18182TIP3    H154423   5.866   3.648   8.444
18182TIP3    H254424   5.944   3.745   8.359
18183TIP3   OH254425   6.245   2.559   8.767
18183TIP3    H154426   6.157   2.588   8.738
18183TIP3    H254427   6.303   2.591   8.694
18184TIP3   OH254428   5.543   2.204   8.748
18184TIP3    H154429   5.529   2.109   8.764
18184TIP3    H254430   5.465   2.241   8.795
18185TIP3   OH254431   5.657   3.705   8.080
18185TIP3    H154432   5.707   3.623   8.058
18185TIP3    H254433   5.716   3.771   8.036
18186TIP3   OH254434   5.801   3.490   7.983
18186TIP3    H154435   5.753   3.413   7.950
18186TIP3    H254436   5.836   3.456   8.068
18187TIP3   OH254437   6.180   3.574   8.746
18187TIP3    H154438   6.168   3.494   8.692
18187TIP3    H254439   6.162   3.646   8.682
18188TIP3   OH254440   5.471   2.966   8.004
18188TIP3    H154441   5.390   3.015   7.983
18188TIP3    H254442   5.516   2.963   7.918
18189TIP3   OH254443   5.430   2.751   7.721
18189TIP3    H154444   5.499   2.799   7.770
18189TIP3    H254445   5.485   2.686   7.673
18190TIP3   OH254446   6.377   3.209   8.591
18190TIP3    H154447   6.293   3.260   8.600
18190TIP3    H254448   6.402   3.234   8.499
18191TIP3   OH254449   5.819   3.049   7.976
18191TIP3    H154450   5.763   3.073   8.053
18191TIP3    H254451   5.902   3.021   8.021
18192TIP3   OH254452   6.052   3.077   8.880
18192TIP3    H154453   6.059   3.156   8.939
18192TIP3    H254454   5.965   3.095   8.840
18193TIP3   OH254455   5.051   3.046   8.392
18193TIP3    H154456   5.009   2.988   8.325
18193TIP3    H254457   5.128   2.992   8.421
18194TIP3   OH254458   5.182   3.460   8.540
18194TIP3    H154459   5.160   3.414   8.457
18194TIP3    H254460   5.271   3.425   8.559
18195TIP3   OH254461   5.189   3.016   8.747
18195TIP3    H154462   5.222   2.997   8.656
18195TIP3    H254463   5.231   3.102   8.767
18196TIP3   OH254464   5.715   3.654   8.525
18196TIP3    H154465   5.700   3.733   8.579
18196TIP3    H254466   5.699   3.580   8.587
18197TIP3   OH254467   5.325   3.574   9.070
18197TIP3    H154468   5.267   3.636   9.118
18197TIP3    H254469   5.259   3.521   9.022
18198TIP3   OH254470   5.661   2.905   7.803
18198TIP3    H154471   5.719   2.965   7.854
18198TIP3    H254472   5.686   2.930   7.710
18199TIP3   OH254473   5.082   3.131   9.172
18199TIP3    H154474   5.086   3.217   9.218
18199TIP3    H254475   4.986   3.114   9.176
18200TIP3   OH254476   5.403   3.584   8.077
18200TIP3    H154477   5.480   3.641   8.096
18200TIP3    H254478   5.340   3.646   8.037
18201TIP3   OH254479   5.120   3.741   9.158
18201TIP3    H154480   5.082   3.738   9.069
18201TIP3    H254481   5.042   3.721   9.215
18202TIP3   OH254482   6.176   2.149   7.852
18202TIP3    H154483   6.093   2.165   7.903
18202TIP3    H254484   6.185   2.232   7.802
18203TIP3   OH254485   4.917   2.889   8.198
18203TIP3    H154486   4.851   2.934   8.141
18203TIP3    H254487   4.876   2.802   8.210
18204TIP3   OH254488   5.973   3.515   7.398
18204TIP3    H154489   5.980   3.612   7.384
18204TIP3    H254490   6.065   3.486   7.385
18205TIP3   OH254491   4.694   3.277   9.105
18205TIP3    H154492   4.630   3.254   9.035
18205TIP3    H254493   4.735   3.190   9.126
18206TIP3   OH254494   4.553   3.466   8.737
18206TIP3    H154495   4.649   3.459   8.727
18206TIP3    H254496   4.545   3.545   8.793
18207TIP3   OH254497   6.416   3.915   8.791
18207TIP3    H154498   6.417   3.819   8.808
18207TIP3    H254499   6.334   3.940   8.839
18208TIP3   OH254500   5.522   3.704   8.926
18208TIP3    H154501   5.521   3.796   8.961
18208TIP3    H254502   5.452   3.663   8.981
18209TIP3   OH254503   5.284   3.833   7.879
18209TIP3    H154504   5.237   3.811   7.796
18209TIP3    H254505   5.250   3.921   7.901
18210TIP3   OH254506   4.721   3.681   8.263
18210TIP3    H154507   4.768   3.671   8.349
18210TIP3    H254508   4.665   3.602   8.264
18211TIP3   OH254509   5.487   3.734   7.521
18211TIP3    H154510   5.544   3.663   7.484
18211TIP3    H254511   5.519   3.741   7.613
18212TIP3   OH254512   5.536   3.781   7.791
18212TIP3    H154513   5.447   3.791   7.830
18212TIP3    H254514   5.584   3.737   7.864
18213TIP3   OH254515   6.315   3.048   9.069
18213TIP3    H154516   6.230   3.072   9.028
18213TIP3    H254517   6.320   2.952   9.053
18214TIP3   OH254518   4.905   3.454   9.093
18214TIP3    H154519   4.953   3.441   9.178
18214TIP3    H254520   4.829   3.393   9.103
18215TIP3   OH254521   5.304   2.278   8.878
18215TIP3    H154522   5.214   2.248   8.852
18215TIP3    H254523   5.279   2.362   8.922
18216TIP3   OH254524   5.835   2.394   9.070
18216TIP3    H154525   5.905   2.368   9.133
18216TIP3    H254526   5.752   2.374   9.118
18217TIP3   OH254527   6.078   2.823   8.989
18217TIP3    H154528   6.028   2.821   9.074
18217TIP3    H254529   6.053   2.910   8.952
18218TIP3   OH254530   5.736   2.954   7.546
18218TIP3    H154531   5.702   2.927   7.459
18218TIP3    H254532   5.817   3.003   7.521
18219TIP3   OH254533   5.449   2.328   7.848
18219TIP3    H154534   5.416   2.326   7.940
18219TIP3    H254535   5.410   2.245   7.815
18220TIP3   OH254536   5.235   2.794   8.895
18220TIP3    H154537   5.184   2.815   8.976
18220TIP3    H254538   5.219   2.875   8.842
18221TIP3   OH254539   5.118   2.680   8.410
18221TIP3    H154540   5.025   2.654   8.427
18221TIP3    H254541   5.131   2.640   8.321
18222TIP3   OH254542   5.609   2.767   8.138
18222TIP3    H154543   5.555   2.838   8.096
18222TIP3    H254544   5.663   2.736   8.063
18223TIP3   OH254545   5.780   3.042   9.218
18223TIP3    H154546   5.766   2.971   9.283
18223TIP3    H254547   5.870   3.072   9.241
18224TIP3   OH254548   5.766   2.795   8.376
18224TIP3    H154549   5.706   2.824   8.305
18224TIP3    H254550   5.799   2.713   8.334
18225TIP3   OH254551   5.053   2.826   9.103
18225TIP3    H154552   5.081   2.888   9.171
18225TIP3    H254553   5.040   2.743   9.153
18226TIP3   OH254554   5.105   2.302   7.815
18226TIP3    H154555   5.095   2.298   7.912
18226TIP3    H254556   5.025   2.352   7.790
18227TIP3   OH254557   4.648   2.353   8.683
18227TIP3    H154558   4.724   2.381   8.737
18227TIP3    H254559   4.688   2.318   8.602
18228TIP3   OH254560   4.621   2.328   8.206
18228TIP3    H154561   4.664   2.367   8.126
18228TIP3    H254562   4.558   2.400   8.227
18229TIP3   OH254563   5.769   3.042   8.796
18229TIP3    H154564   5.807   2.970   8.741
18229TIP3    H254565   5.745   2.990   8.876
18230TIP3   OH254566   5.446   2.503   8.471
18230TIP3    H154567   5.363   2.501   8.524
18230TIP3    H254568   5.513   2.503   8.541
18231TIP3   OH254569   4.880   2.559   8.480
18231TIP3    H154570   4.785   2.566   8.453
18231TIP3    H254571   4.902   2.467   8.455
18232TIP3   OH254572   5.150   2.555   8.168
18232TIP3    H154573   5.243   2.570   8.145
18232TIP3    H254574   5.102   2.578   8.085
18233TIP3   OH254575   5.938   2.577   8.672
18233TIP3    H154576   5.905   2.590   8.763
18233TIP3    H254577   5.871   2.517   8.636
18234TIP3   OH254578   4.990   2.589   7.947
18234TIP3    H154579   4.918   2.543   7.900
18234TIP3    H254580   5.042   2.623   7.871
18235TIP3   OH254581   6.107   4.268   8.892
18235TIP3    H154582   6.106   4.293   8.798
18235TIP3    H254583   6.186   4.316   8.923
18236TIP3   OH254584   5.063   3.378   9.316
18236TIP3    H154585   5.144   3.408   9.362
18236TIP3    H254586   5.000   3.381   9.391
18237TIP3   OH254587   5.529   2.831   8.568
18237TIP3    H154588   5.601   2.791   8.517
18237TIP3    H254589   5.540   2.790   8.656
18238TIP3   OH254590   5.053   2.318   8.447
18238TIP3    H154591   5.019   2.238   8.492
18238TIP3    H254592   5.101   2.281   8.372
18239TIP3   OH254593   5.505   2.725   8.862
18239TIP3    H154594   5.416   2.764   8.874
18239TIP3    H254595   5.563   2.788   8.910
18240TIP3   OH254596   5.242   3.118   7.953
18240TIP3    H154597   5.170   3.053   7.942
18240TIP3    H254598   5.224   3.152   8.044
18241TIP3   OH254599   6.144   3.353   8.583
18241TIP3    H154600   6.165   3.403   8.502
18241TIP3    H254601   6.057   3.313   8.561
18242TIP3   OH254602   5.700   2.431   7.815
18242TIP3    H154603   5.604   2.413   7.824
18242TIP3    H254604   5.708   2.526   7.840
18243TIP3   OH254605   5.640   3.435   8.952
18243TIP3    H154606   5.677   3.414   9.039
18243TIP3    H254607   5.602   3.523   8.964
18244TIP3   OH254608   5.769   2.677   7.920
18244TIP3    H154609   5.866   2.684   7.934
18244TIP3    H254610   5.750   2.757   7.866
18245TIP3   OH254611   4.934   3.141   8.630
18245TIP3    H154612   4.973   3.112   8.544
18245TIP3    H254613   4.973   3.077   8.692
18246TIP3   OH254614   5.387   3.268   7.775
18246TIP3    H154615   5.340   3.355   7.782
18246TIP3    H254616   5.332   3.212   7.834
18247TIP3   OH254617   4.817   3.064   9.229
18247TIP3    H154618   4.833   3.049   9.324
18247TIP3    H254619   4.751   2.995   9.210
18248TIP3   OH254620   5.540   3.172   9.267
18248TIP3    H154621   5.483   3.117   9.212
18248TIP3    H254622   5.629   3.144   9.236
18249TIP3   OH254623   5.801   3.703   8.843
18249TIP3    H154624   5.705   3.696   8.857
18249TIP3    H254625   5.829   3.748   8.925
18250TIP3   OH254626   6.215   2.767   7.753
18250TIP3    H154627   6.152   2.721   7.693
18250TIP3    H254628   6.209   2.856   7.713
18251TIP3   OH254629   6.429   3.629   8.835
18251TIP3    H154630   6.331   3.620   8.829
18251TIP3    H254631   6.454   3.595   8.746
18252TIP3   OH254632   5.920   3.587   7.666
18252TIP3    H154633   5.885   3.520   7.727
18252TIP3    H254634   5.923   3.539   7.581
18253TIP3   OH254635   5.908   3.218   8.499
18253TIP3    H154636   5.815   3.192   8.515
18253TIP3    H254637   5.942   3.136   8.456
18254TIP3   OH254638   5.034   3.443   8.253
18254TIP3    H154639   5.035   3.525   8.200
18254TIP3    H254640   4.940   3.428   8.264
18255TIP3   OH254641   4.598   2.748   7.958
18255TIP3    H154642   4.644   2.832   7.979
18255TIP3    H254643   4.521   2.754   8.018
18256TIP3   OH254644   5.175   3.210   8.199
18256TIP3    H154645   5.139   3.300   8.216
18256TIP3    H254646   5.138   3.160   8.274
18257TIP3   OH254647   5.304   3.787   8.724
18257TIP3    H154648   5.346   3.860   8.674
18257TIP3    H254649   5.380   3.753   8.774
18258TIP3   OH254650   4.955   3.683   8.107
18258TIP3    H154651   4.869   3.690   8.153
18258TIP3    H254652   4.986   3.776   8.110
18259TIP3   OH254653   5.694   3.423   8.683
18259TIP3    H154654   5.682   3.421   8.781
18259TIP3    H254655   5.775   3.371   8.674
18260TIP3   OH254656   5.667   3.316   7.563
18260TIP3    H154657   5.719   3.290   7.643
18260TIP3    H254658   5.578   3.288   7.591
18261TIP3   OH254659   5.943   3.956   8.735
18261TIP3    H154660   5.866   3.896   8.731
18261TIP3    H254661   5.923   4.018   8.661
18262TIP3   OH254662   6.007   3.790   7.384
18262TIP3    H154663   6.038   3.861   7.325
18262TIP3    H254664   5.928   3.835   7.421
18263TIP3   OH254665   5.024   2.571   9.244
18263TIP3    H154666   4.929   2.586   9.257
18263TIP3    H254667   5.045   2.514   9.320
18264TIP3   OH254668   5.826   3.247   7.779
18264TIP3    H154669   5.816   3.183   7.852
18264TIP3    H254670   5.924   3.247   7.769
18265TIP3   OH254671   4.742   3.651   8.883
18265TIP3    H154672   4.796   3.576   8.914
18265TIP3    H254673   4.768   3.719   8.947
18266TIP3   OH254674   5.036   3.295   7.564
18266TIP3    H154675   5.047   3.202   7.535
18266TIP3    H254676   5.015   3.283   7.659
18267TIP3   OH254677   4.979   3.300   7.836
18267TIP3    H154678   5.049   3.273   7.897
18267TIP3    H254679   4.983   3.398   7.843
18268TIP3   OH254680   4.715   2.994   8.040
18268TIP3    H154681   4.648   3.038   8.097
18268TIP3    H254682   4.729   3.064   7.973
18269TIP3   OH254683   5.865   2.630   8.930
18269TIP3    H154684   5.942   2.670   8.972
18269TIP3    H254685   5.850   2.550   8.984
18270TIP3   OH254686   5.741   2.383   8.096
18270TIP3    H154687   5.728   2.406   8.002
18270TIP3    H254688   5.782   2.465   8.132
18271TIP3   OH254689   5.245   3.499   7.787
18271TIP3    H154690   5.158   3.526   7.822
18271TIP3    H254691   5.259   3.566   7.719
18272TIP3   OH254692   5.434   2.561   8.199
18272TIP3    H154693   5.498   2.633   8.182
18272TIP3    H254694   5.438   2.554   8.297
18273TIP3   OH254695   5.701   2.879   9.006
18273TIP3    H154696   5.722   2.937   9.083
18273TIP3    H254697   5.759   2.803   9.022
18274TIP3   OH254698   5.577   2.289   8.302
18274TIP3    H154699   5.568   2.366   8.361
18274TIP3    H254700   5.637   2.324   8.233
18275TIP3   OH254701   4.988   3.573   7.853
18275TIP3    H154702   4.958   3.643   7.789
18275TIP3    H254703   4.971   3.617   7.939
18276TIP3   OH254704   5.088   2.286   8.092
18276TIP3    H154705   5.086   2.377   8.127
18276TIP3    H254706   5.185   2.268   8.099
18277TIP3   OH254707   6.342   2.778   8.985
18277TIP3    H154708   6.245   2.778   8.995
18277TIP3    H254709   6.349   2.738   8.897
18278TIP3   OH254710   5.994   2.974   8.375
18278TIP3    H154711   5.917   2.916   8.388
18278TIP3    H254712   6.064   2.926   8.424
18279TIP3   OH254713   4.705   3.204   7.846
18279TIP3    H154714   4.771   3.276   7.853
18279TIP3    H254715   4.751   3.149   7.778
18280TIP3   OH254716   4.651   2.478   7.978
18280TIP3    H154717   4.647   2.576   7.974
18280TIP3    H254718   4.569   2.452   7.935
18281TIP3   OH254719   5.963   3.931   8.325
18281TIP3    H154720   5.919   3.977   8.250
18281TIP3    H254721   6.057   3.947   8.303
18282TIP3   OH254722   5.040   2.200   8.851
18282TIP3    H154723   5.007   2.169   8.763
18282TIP3    H254724   5.025   2.121   8.907
18283TIP3   OH254725   4.579   3.420   8.234
18283TIP3    H154726   4.506   3.449   8.291
18283TIP3    H254727   4.551   3.460   8.148
18284TIP3   OH254728   4.733   3.961   9.306
18284TIP3    H154729   4.820   3.961   9.352
18284TIP3    H254730   4.713   3.866   9.304
18285TIP3   OH254731   5.219   3.928   9.341
18285TIP3    H154732   5.311   3.901   9.354
18285TIP3    H254733   5.192   3.866   9.271
18286TIP3   OH254734   5.199   3.500   7.480
18286TIP3    H154735   5.141   3.429   7.516
18286TIP3    H254736   5.271   3.446   7.442
18287TIP3   OH254737   5.857   3.826   9.082
18287TIP3    H154738   5.843   3.756   9.151
18287TIP3    H254739   5.934   3.874   9.117
18288TIP3   OH254740   5.634   3.542   7.390
18288TIP3    H154741   5.675   3.473   7.446
18288TIP3    H254742   5.689   3.539   7.309
18289TIP3   OH254743   4.858   3.358   9.504
18289TIP3    H154744   4.884   3.264   9.497
18289TIP3    H254745   4.771   3.359   9.459
18290TIP3   OH254746   4.841   3.017   7.697
18290TIP3    H154747   4.895   2.982   7.770
18290TIP3    H254748   4.909   3.021   7.626
18291TIP3   OH254749   5.476   3.449   9.276
18291TIP3    H154750   5.434   3.465   9.190
18291TIP3    H254751   5.508   3.356   9.268
18292TIP3   OH254752   5.354   3.214   7.506
18292TIP3    H154753   5.352   3.228   7.602
18292TIP3    H254754   5.351   3.116   7.501
18293TIP3   OH254755   5.962   3.458   8.880
18293TIP3    H154756   6.039   3.504   8.844
18293TIP3    H254757   5.893   3.525   8.871
18294TIP3   OH254758   4.969   3.108   9.494
18294TIP3    H154759   5.023   3.029   9.480
18294TIP3    H254760   5.005   3.135   9.580
18295TIP3   OH254761   5.051   2.919   7.921
18295TIP3    H154762   5.022   2.878   8.004
18295TIP3    H254763   5.085   2.843   7.870
18296TIP3   OH254764   5.318   2.982   9.148
18296TIP3    H154765   5.242   3.044   9.153
18296TIP3    H254766   5.367   3.016   9.070
18297TIP3   OH254767   5.150   2.713   7.761
18297TIP3    H154768   5.122   2.715   7.667
18297TIP3    H254769   5.247   2.720   7.752
18298TIP3   OH254770   5.833   3.380   9.263
18298TIP3    H154771   5.925   3.414   9.271
18298TIP3    H254772   5.831   3.330   9.346
18299TIP3   OH254773   5.975   3.045   7.422
18299TIP3    H154774   5.951   2.997   7.340
18299TIP3    H254775   5.941   3.135   7.398
18300TIP3   OH254776   5.444   2.770   9.273
18300TIP3    H154777   5.444   2.692   9.215
18300TIP3    H254778   5.402   2.838   9.215
18301TIP3   OH254779   5.443   2.558   9.082
18301TIP3    H154780   5.472   2.601   8.998
18301TIP3    H254781   5.350   2.536   9.062
18302TIP3   OH254782   5.471   3.093   8.955
18302TIP3    H154783   5.555   3.102   8.909
18302TIP3    H254784   5.415   3.161   8.911
18303TIP3   OH254785   6.052   3.063   9.338
18303TIP3    H154786   6.112   2.988   9.340
18303TIP3    H254787   6.106   3.132   9.295
18304TIP3   OH254788   6.093   3.281   9.049
18304TIP3    H154789   6.031   3.349   9.014
18304TIP3    H254790   6.178   3.324   9.030
18305TIP3   OH254791   5.314   2.881   9.490
18305TIP3    H154792   5.243   2.815   9.498
18305TIP3    H254793   5.351   2.859   9.402
18306TIP3   OH254794   5.574   2.323   9.149
18306TIP3    H154795   5.527   2.406   9.123
18306TIP3    H254796   5.505   2.256   9.133
18307TIP3   OH254797   5.708   2.822   9.362
18307TIP3    H154798   5.711   2.815   9.459
18307TIP3    H254799   5.615   2.800   9.341
18308TIP3   OH254800   5.941   2.770   9.215
18308TIP3    H154801   5.866   2.778   9.277
18308TIP3    H254802   6.015   2.747   9.275
18309TIP3   OH254803   6.171   2.722   9.368
18309TIP3    H154804   6.181   2.625   9.381
18309TIP3    H254805   6.166   2.757   9.459
18310TIP3   OH254806   5.166   2.653   9.536
18310TIP3    H154807   5.174   2.557   9.522
18310TIP3    H254808   5.195   2.664   9.628
18311TIP3   OH254809   5.679   2.326   9.398
18311TIP3    H154810   5.747   2.259   9.376
18311TIP3    H254811   5.629   2.327   9.314
18312TIP3   OH254812   5.707   2.530   9.578
18312TIP3    H154813   5.699   2.474   9.497
18312TIP3    H254814   5.640   2.600   9.561
18313TIP3   OH254815   4.957   3.776   7.666
18313TIP3    H154816   5.053   3.773   7.645
18313TIP3    H254817   4.925   3.823   7.587
18314TIP3   OH254818   4.437   3.157   7.882
18314TIP3    H154819   4.532   3.178   7.868
18314TIP3    H254820   4.431   3.069   7.840
18315TIP3   OH254821   4.350   3.770   8.295
18315TIP3    H154822   4.283   3.708   8.260
18315TIP3    H254823   4.396   3.713   8.361
18316TIP3   OH254824   4.487   3.622   8.482
18316TIP3    H154825   4.476   3.548   8.543
18316TIP3    H254826   4.538   3.683   8.538
18317TIP3   OH254827   6.222   4.016   8.281
18317TIP3    H154828   6.236   4.045   8.373
18317TIP3    H254829   6.257   4.091   8.231
18318TIP3   OH254830   6.246   4.040   8.560
18318TIP3    H154831   6.200   3.953   8.560
18318TIP3    H254832   6.316   4.020   8.625
18319TIP3   OH254833   6.292   3.713   9.133
18319TIP3    H154834   6.229   3.694   9.204
18319TIP3    H254835   6.327   3.802   9.153
18320TIP3   OH254836   6.107   3.230   7.757
18320TIP3    H154837   6.176   3.294   7.730
18320TIP3    H254838   6.148   3.190   7.837
18321TIP3   OH254839   6.234   3.099   7.961
18321TIP3    H154840   6.168   3.055   8.018
18321TIP3    H254841   6.296   3.138   8.027
18322TIP3   OH254842   6.290   3.492   8.393
18322TIP3    H154843   6.343   3.427   8.344
18322TIP3    H254844   6.272   3.561   8.326
18323TIP3   OH254845   6.119   3.793   8.584
18323TIP3    H154846   6.050   3.831   8.641
18323TIP3    H254847   6.067   3.743   8.518
18324TIP3   OH254848   6.173   3.007   7.607
18324TIP3    H154849   6.101   3.009   7.540
18324TIP3    H254850   6.145   3.082   7.662
18325TIP3   OH254851   6.045   2.680   7.560
18325TIP3    H154852   5.998   2.716   7.484
18325TIP3    H254853   6.020   2.585   7.552
18326TIP3   OH254854   6.050   2.954   8.105
18326TIP3    H154855   6.055   2.857   8.101
18326TIP3    H254856   6.035   2.969   8.201
18327TIP3   OH254857   4.674   3.030   8.853
18327TIP3    H154858   4.673   2.998   8.760
18327TIP3    H254859   4.772   3.031   8.870
18328TIP3   OH254860   6.332   3.377   8.958
18328TIP3    H154861   6.409   3.315   8.955
18328TIP3    H254862   6.367   3.456   8.915
18329TIP3   OH254863   6.525   3.187   8.976
18329TIP3    H154864   6.450   3.140   9.017
18329TIP3    H254865   6.597   3.122   8.992
18330TIP3   OH254866   5.987   2.414   7.548
18330TIP3    H154867   6.060   2.382   7.603
18330TIP3    H254868   5.913   2.355   7.572
18331TIP3   OH254869   6.044   2.671   8.002
18331TIP3    H154870   6.084   2.582   8.019
18331TIP3    H254871   6.103   2.703   7.931
18332TIP3   OH254872   6.206   2.844   8.497
18332TIP3    H154873   6.293   2.871   8.458
18332TIP3    H254874   6.218   2.883   8.586
18333TIP3   OH254875   6.275   2.989   8.728
18333TIP3    H154876   6.197   3.020   8.779
18333TIP3    H254877   6.305   3.072   8.687
18334TIP3   OH254878   4.889   2.664   9.517
18334TIP3    H154879   4.983   2.691   9.513
18334TIP3    H254880   4.859   2.711   9.597
18335TIP3   OH254881   6.724   2.580   9.284
18335TIP3    H154882   6.784   2.515   9.240
18335TIP3    H254883   6.697   2.636   9.208
18336TIP3   OH254884   6.154   2.421   8.040
18336TIP3    H154885   6.200   2.404   8.124
18336TIP3    H254886   6.093   2.344   8.036
18337TIP3   OH254887   4.855   2.407   8.858
18337TIP3    H154888   4.918   2.334   8.869
18337TIP3    H254889   4.916   2.483   8.853
18338TIP3   OH254890   4.656   2.681   8.931
18338TIP3    H154891   4.704   2.676   8.846
18338TIP3    H254892   4.687   2.766   8.965
18339TIP3   OH254893   6.598   2.721   9.091
18339TIP3    H154894   6.512   2.762   9.115
18339TIP3    H254895   6.566   2.650   9.031
18340TIP3   OH254896   6.235   2.357   7.671
18340TIP3    H154897   6.272   2.283   7.619
18340TIP3    H254898   6.303   2.426   7.662
18341TIP3   OH254899   4.639   2.187   8.436
18341TIP3    H154900   4.544   2.183   8.458
18341TIP3    H254901   4.639   2.243   8.355
18342TIP3   OH254902   5.801   3.887   7.939
18342TIP3    H154903   5.851   3.873   7.857
18342TIP3    H254904   5.851   3.957   7.983
18343TIP3   OH254905   4.864   2.247   9.230
18343TIP3    H154906   4.813   2.229   9.310
18343TIP3    H254907   4.801   2.304   9.181
18344TIP3   OH254908   4.902   3.692   9.322
18344TIP3    H154909   4.809   3.668   9.307
18344TIP3    H254910   4.909   3.676   9.418
18345TIP3   OH254911   5.077   3.722   8.871
18345TIP3    H154912   5.029   3.799   8.833
18345TIP3    H254913   5.163   3.737   8.827
18346TIP3   OH254914   5.524   3.969   9.011
18346TIP3    H154915   5.566   3.967   9.100
18346TIP3    H254916   5.590   4.020   8.960
18347TIP3   OH254917   5.702   4.121   8.867
18347TIP3    H154918   5.773   4.067   8.829
18347TIP3    H254919   5.753   4.178   8.929
18348TIP3   OH254920   6.496   2.483   8.968
18348TIP3    H154921   6.405   2.479   8.935
18348TIP3    H254922   6.526   2.390   8.955
18349TIP3   OH254923   4.755   3.983   8.893
18349TIP3    H154924   4.665   4.016   8.872
18349TIP3    H254925   4.765   4.015   8.984
18350TIP3   OH254926   4.991   3.961   8.753
18350TIP3    H154927   4.905   3.973   8.799
18350TIP3    H254928   4.970   3.993   8.663
18351TIP3   OH254929   5.417   3.990   8.549
18351TIP3    H154930   5.346   4.010   8.486
18351TIP3    H254931   5.429   4.077   8.593
18352TIP3   OH254932   5.685   3.930   8.600
18352TIP3    H154933   5.590   3.944   8.582
18352TIP3    H254934   5.725   4.009   8.560
18353TIP3   OH254935   5.896   4.122   8.518
18353TIP3    H154936   5.879   4.206   8.470
18353TIP3    H254937   5.917   4.060   8.445
18354TIP3   OH254938   4.665   3.776   8.641
18354TIP3    H154939   4.693   3.750   8.732
18354TIP3    H254940   4.737   3.732   8.590
18355TIP3   OH254941   4.859   3.647   8.497
18355TIP3    H154942   4.874   3.562   8.546
18355TIP3    H254943   4.950   3.683   8.494
18356TIP3   OH254944   5.126   3.742   8.500
18356TIP3    H154945   5.156   3.650   8.488
18356TIP3    H254946   5.170   3.763   8.584
18357TIP3   OH254947   5.703   2.398   8.588
18357TIP3    H154948   5.659   2.328   8.639
18357TIP3    H254949   5.773   2.349   8.542
18358TIP3   OH254950   6.225   2.281   8.495
18358TIP3    H154951   6.261   2.331   8.418
18358TIP3    H254952   6.129   2.296   8.486
18359TIP3   OH254953   6.320   2.380   8.257
18359TIP3    H154954   6.392   2.328   8.216
18359TIP3    H254955   6.353   2.471   8.242
18360TIP3   OH254956   4.949   2.107   8.605
18360TIP3    H154957   4.857   2.074   8.602
18360TIP3    H254958   4.999   2.022   8.601
18361TIP3   OH254959   4.744   1.975   8.255
18361TIP3    H154960   4.768   2.031   8.179
18361TIP3    H254961   4.709   2.041   8.318
18362TIP3   OH254962   5.393   2.139   8.484
18362TIP3    H154963   5.452   2.187   8.424
18362TIP3    H254964   5.416   2.178   8.569
18363TIP3   OH254965   5.943   2.285   8.467
18363TIP3    H154966   5.939   2.246   8.379
18363TIP3    H254967   5.929   2.205   8.524
18364TIP3   OH254968   5.971   2.209   8.031
18364TIP3    H154969   5.883   2.249   8.041
18364TIP3    H254970   5.956   2.123   8.076
18365TIP3   OH254971   4.454   3.546   8.031
18365TIP3    H154972   4.369   3.513   7.997
18365TIP3    H254973   4.442   3.641   8.012
18366TIP3   OH254974   4.853   2.134   8.017
18366TIP3    H154975   4.901   2.072   7.959
18366TIP3    H254976   4.927   2.188   8.052
18367TIP3   OH254977   5.366   2.311   8.113
18367TIP3    H154978   5.425   2.263   8.173
18367TIP3    H254979   5.387   2.403   8.139
18368TIP3   OH254980   5.226   3.737   7.614
18368TIP3    H154981   5.313   3.760   7.576
18368TIP3    H254982   5.203   3.662   7.554
18369TIP3   OH254983   5.948   3.854   7.706
18369TIP3    H154984   5.939   3.757   7.694
18369TIP3    H254985   5.900   3.887   7.628
18370TIP3   OH254986   5.176   2.381   9.510
18370TIP3    H154987   5.161   2.306   9.570
18370TIP3    H254988   5.271   2.373   9.495
18371TIP3   OH254989   4.530   3.572   7.670
18371TIP3    H154990   4.531   3.597   7.763
18371TIP3    H254991   4.618   3.530   7.659
18372TIP3   OH254992   6.224   2.453   9.380
18372TIP3    H154993   6.232   2.421   9.473
18372TIP3    H254994   6.316   2.445   9.347
18373TIP3   OH254995   6.171   4.000   8.894
18373TIP3    H154996   6.092   3.966   8.847
18373TIP3    H254997   6.150   4.096   8.896
18374TIP3   OH254998   7.435   3.366   7.656
18374TIP3    H154999   7.413   3.460   7.642
18374TIP3    H255000   7.353   3.325   7.623
18375TIP3   OH255001   7.440   3.361   8.039
18375TIP3    H155002   7.472   3.348   8.131
18375TIP3    H255003   7.390   3.279   8.024
18376TIP3   OH255004   6.738   3.265   8.401
18376TIP3    H155005   6.763   3.196   8.466
18376TIP3    H255006   6.810   3.328   8.414
18377TIP3   OH255007   7.679   3.667   7.726
18377TIP3    H155008   7.668   3.604   7.799
18377TIP3    H255009   7.708   3.747   7.773
18378TIP3   OH255010   6.738   3.677   8.111
18378TIP3    H155011   6.706   3.584   8.108
18378TIP3    H255012   6.795   3.671   8.189
18379TIP3   OH255013   6.415   2.884   7.916
18379TIP3    H155014   6.361   2.964   7.931
18379TIP3    H255015   6.347   2.824   7.882
18380TIP3   OH255016   6.475   3.167   8.089
18380TIP3    H155017   6.522   3.090   8.127
18380TIP3    H255018   6.528   3.184   8.010
18381TIP3   OH255019   7.323   4.131   7.739
18381TIP3    H155020   7.368   4.059   7.691
18381TIP3    H255021   7.337   4.105   7.831
18382TIP3   OH255022   7.244   3.587   8.092
18382TIP3    H155023   7.284   3.513   8.044
18382TIP3    H255024   7.325   3.636   8.116
18383TIP3   OH255025   8.240   2.921   8.083
18383TIP3    H155026   8.271   3.001   8.130
18383TIP3    H255027   8.270   2.940   7.992
18384TIP3   OH255028   7.651   3.102   8.118
18384TIP3    H155029   7.689   3.016   8.146
18384TIP3    H255030   7.629   3.083   8.026
18385TIP3   OH255031   6.989   2.758   8.084
18385TIP3    H155032   6.961   2.829   8.023
18385TIP3    H255033   6.939   2.682   8.045
18386TIP3   OH255034   6.619   2.960   8.194
18386TIP3    H155035   6.701   2.937   8.242
18386TIP3    H255036   6.628   2.902   8.116
18387TIP3   OH255037   7.060   3.158   7.979
18387TIP3    H155038   7.151   3.129   8.000
18387TIP3    H255039   7.017   3.073   7.953
18388TIP3   OH255040   8.319   3.123   8.258
18388TIP3    H155041   8.235   3.172   8.246
18388TIP3    H255042   8.348   3.158   8.345
18389TIP3   OH255043   6.982   2.740   8.522
18389TIP3    H155044   6.921   2.776   8.455
18389TIP3    H255045   6.930   2.756   8.603
18390TIP3   OH255046   7.327   3.589   7.528
18390TIP3    H155047   7.287   3.570   7.442
18390TIP3    H255048   7.286   3.673   7.552
18391TIP3   OH255049   7.088   3.516   8.316
18391TIP3    H155050   7.025   3.582   8.352
18391TIP3    H255051   7.132   3.566   8.244
18392TIP3   OH255052   7.868   2.880   7.860
18392TIP3    H155053   7.864   2.807   7.924
18392TIP3    H255054   7.936   2.937   7.902
18393TIP3   OH255055   6.853   2.855   8.305
18393TIP3    H155056   6.915   2.928   8.328
18393TIP3    H255057   6.903   2.814   8.231
18394TIP3   OH255058   6.907   3.708   8.401
18394TIP3    H155059   6.888   3.802   8.380
18394TIP3    H255060   6.835   3.691   8.466
18395TIP3   OH255061   6.313   3.398   7.650
18395TIP3    H155062   6.266   3.422   7.567
18395TIP3    H255063   6.339   3.486   7.684
18396TIP3   OH255064   7.747   3.913   7.886
18396TIP3    H155065   7.658   3.906   7.927
18396TIP3    H255066   7.742   4.001   7.845
18397TIP3   OH255067   8.041   2.814   8.250
18397TIP3    H155068   7.954   2.849   8.225
18397TIP3    H255069   8.099   2.849   8.180
18398TIP3   OH255070   7.338   2.462   8.235
18398TIP3    H155071   7.327   2.366   8.252
18398TIP3    H255072   7.260   2.497   8.282
18399TIP3   OH255073   7.441   3.958   7.557
18399TIP3    H155074   7.497   3.878   7.538
18399TIP3    H255075   7.502   4.027   7.521
18400TIP3   OH255076   7.593   3.746   7.473
18400TIP3    H155077   7.560   3.666   7.431
18400TIP3    H255078   7.629   3.711   7.557
18401TIP3   OH255079   7.975   3.830   8.234
18401TIP3    H155080   7.965   3.752   8.175
18401TIP3    H255081   7.959   3.904   8.172
18402TIP3   OH255082   7.264   3.222   7.495
18402TIP3    H155083   7.181   3.269   7.471
18402TIP3    H255084   7.307   3.214   7.409
18403TIP3   OH255085   7.229   3.007   7.207
18403TIP3    H155086   7.299   3.059   7.250
18403TIP3    H255087   7.283   2.936   7.166
18404TIP3   OH255088   8.171   3.462   8.076
18404TIP3    H155089   8.089   3.517   8.084
18404TIP3    H255090   8.201   3.488   7.986
18405TIP3   OH255091   7.629   3.284   7.488
18405TIP3    H155092   7.553   3.309   7.547
18405TIP3    H255093   7.699   3.335   7.531
18406TIP3   OH255094   7.850   3.344   8.375
18406TIP3    H155095   7.851   3.425   8.429
18406TIP3    H255096   7.763   3.353   8.331
18407TIP3   OH255097   6.851   3.305   7.874
18407TIP3    H155098   6.804   3.245   7.812
18407TIP3    H255099   6.924   3.248   7.906
18408TIP3   OH255100   6.993   3.271   8.232
18408TIP3    H155101   7.021   3.258   8.140
18408TIP3    H255102   7.030   3.359   8.255
18409TIP3   OH255103   7.506   3.910   8.009
18409TIP3    H155104   7.495   3.991   8.062
18409TIP3    H255105   7.495   3.838   8.074
18410TIP3   OH255106   7.120   3.829   8.555
18410TIP3    H155107   7.063   3.892   8.604
18410TIP3    H255108   7.052   3.776   8.510
18411TIP3   OH255109   7.453   3.153   7.298
18411TIP3    H155110   7.525   3.196   7.348
18411TIP3    H255111   7.482   3.172   7.205
18412TIP3   OH255112   6.873   3.389   8.652
18412TIP3    H155113   6.879   3.473   8.701
18412TIP3    H255114   6.779   3.366   8.671
18413TIP3   OH255115   7.177   3.863   7.585
18413TIP3    H155116   7.267   3.899   7.590
18413TIP3    H255117   7.138   3.919   7.516
18414TIP3   OH255118   6.915   3.997   8.645
18414TIP3    H155119   6.877   3.996   8.556
18414TIP3    H255120   6.837   3.978   8.702
18415TIP3   OH255121   7.972   2.405   7.338
18415TIP3    H155122   7.890   2.421   7.388
18415TIP3    H255123   7.982   2.489   7.290
18416TIP3   OH255124   6.713   3.146   7.686
18416TIP3    H155125   6.646   3.189   7.629
18416TIP3    H255126   6.674   3.059   7.699
18417TIP3   OH255127   7.772   3.771   6.884
18417TIP3    H155128   7.780   3.868   6.871
18417TIP3    H255129   7.866   3.743   6.876
18418TIP3   OH255130   6.497   3.528   8.590
18418TIP3    H155131   6.426   3.505   8.526
18418TIP3    H255132   6.531   3.441   8.618
18419TIP3   OH255133   6.346   3.729   8.216
18419TIP3    H155134   6.442   3.722   8.229
18419TIP3    H255135   6.323   3.801   8.276
18420TIP3   OH255136   8.215   4.172   8.279
18420TIP3    H155137   8.214   4.076   8.296
18420TIP3    H255138   8.132   4.198   8.325
18421TIP3   OH255139   7.318   3.961   8.413
18421TIP3    H155140   7.319   4.053   8.447
18421TIP3    H255141   7.248   3.921   8.468
18422TIP3   OH255142   7.080   4.083   7.371
18422TIP3    H155143   7.037   4.067   7.285
18422TIP3    H255144   7.049   4.173   7.393
18423TIP3   OH255145   6.530   3.927   7.771
18423TIP3    H155146   6.490   3.914   7.859
18423TIP3    H255147   6.477   3.862   7.720
18424TIP3   OH255148   7.283   3.989   7.006
18424TIP3    H155149   7.342   3.919   6.969
18424TIP3    H255150   7.318   3.998   7.097
18425TIP3   OH255151   7.333   4.039   7.275
18425TIP3    H155152   7.244   4.048   7.318
18425TIP3    H255153   7.386   4.005   7.349
18426TIP3   OH255154   8.108   3.303   8.544
18426TIP3    H155155   8.020   3.316   8.506
18426TIP3    H255156   8.119   3.206   8.539
18427TIP3   OH255157   6.701   3.711   8.578
18427TIP3    H155158   6.750   3.698   8.662
18427TIP3    H255159   6.627   3.648   8.588
18428TIP3   OH255160   7.099   2.538   8.362
18428TIP3    H155161   7.010   2.504   8.337
18428TIP3    H255162   7.072   2.617   8.412
18429TIP3   OH255163   7.630   2.651   8.559
18429TIP3    H155164   7.697   2.624   8.624
18429TIP3    H255165   7.545   2.630   8.604
18430TIP3   OH255166   7.872   3.080   8.476
18430TIP3    H155167   7.825   3.076   8.562
18430TIP3    H255168   7.848   3.169   8.443
18431TIP3   OH255169   7.533   3.205   7.040
18431TIP3    H155170   7.497   3.182   6.952
18431TIP3    H255171   7.612   3.255   7.015
18432TIP3   OH255172   7.257   2.579   7.333
18432TIP3    H155173   7.218   2.579   7.422
18432TIP3    H255174   7.214   2.498   7.298
18433TIP3   OH255175   7.032   3.049   8.384
18433TIP3    H155176   6.980   3.069   8.464
18433TIP3    H255177   7.016   3.131   8.331
18434TIP3   OH255178   6.913   2.939   7.896
18434TIP3    H155179   6.820   2.910   7.915
18434TIP3    H255180   6.925   2.897   7.807
18435TIP3   OH255181   7.430   3.027   7.600
18435TIP3    H155182   7.366   3.101   7.595
18435TIP3    H255183   7.427   2.999   7.507
18436TIP3   OH255184   7.580   3.301   8.709
18436TIP3    H155185   7.558   3.230   8.772
18436TIP3    H255186   7.673   3.318   8.731
18437TIP3   OH255187   7.589   3.038   7.837
18437TIP3    H155188   7.509   3.074   7.793
18437TIP3    H255189   7.561   2.949   7.862
18438TIP3   OH255190   6.851   3.079   8.591
18438TIP3    H155191   6.868   3.143   8.661
18438TIP3    H255192   6.836   2.997   8.642
18439TIP3   OH255193   6.904   2.563   7.301
18439TIP3    H155194   6.892   2.554   7.398
18439TIP3    H255195   6.820   2.608   7.277
18440TIP3   OH255196   6.441   2.606   8.170
18440TIP3    H155197   6.519   2.632   8.223
18440TIP3    H255198   6.479   2.566   8.090
18441TIP3   OH255199   6.418   2.584   7.691
18441TIP3    H155200   6.462   2.624   7.612
18441TIP3    H255201   6.355   2.655   7.713
18442TIP3   OH255202   7.568   3.300   8.284
18442TIP3    H155203   7.603   3.227   8.228
18442TIP3    H255204   7.543   3.249   8.364
18443TIP3   OH255205   7.246   2.774   7.961
18443TIP3    H155206   7.159   2.764   8.005
18443TIP3    H255207   7.306   2.750   8.033
18444TIP3   OH255208   6.677   2.815   7.965
18444TIP3    H155209   6.582   2.823   7.940
18444TIP3    H255210   6.697   2.722   7.944
18445TIP3   OH255211   6.944   2.813   7.655
18445TIP3    H155212   7.037   2.827   7.628
18445TIP3    H255213   6.894   2.834   7.572
18446TIP3   OH255214   7.726   2.838   8.154
18446TIP3    H155215   7.699   2.847   8.249
18446TIP3    H255216   7.666   2.766   8.126
18447TIP3   OH255217   6.786   2.848   7.435
18447TIP3    H155218   6.712   2.800   7.393
18447TIP3    H255219   6.836   2.878   7.357
18448TIP3   OH255220   7.904   4.523   8.379
18448TIP3    H155221   7.902   4.551   8.286
18448TIP3    H255222   7.980   4.574   8.413
18449TIP3   OH255223   6.863   3.634   8.798
18449TIP3    H155224   6.940   3.665   8.849
18449TIP3    H255225   6.796   3.630   8.869
18450TIP3   OH255226   7.328   3.088   8.063
18450TIP3    H155227   7.378   3.013   8.030
18450TIP3    H255228   7.319   3.064   8.157
18451TIP3   OH255229   6.851   2.572   7.936
18451TIP3    H155230   6.812   2.495   7.984
18451TIP3    H255231   6.897   2.529   7.863
18452TIP3   OH255232   7.302   2.995   8.333
18452TIP3    H155233   7.211   3.021   8.360
18452TIP3    H255234   7.358   3.046   8.394
18453TIP3   OH255235   7.037   3.373   7.436
18453TIP3    H155236   6.967   3.305   7.424
18453TIP3    H255237   7.018   3.404   7.528
18454TIP3   OH255238   7.940   3.611   8.069
18454TIP3    H155239   7.965   3.661   7.988
18454TIP3    H255240   7.853   3.573   8.044
18455TIP3   OH255241   7.487   2.718   7.321
18455TIP3    H155242   7.399   2.675   7.318
18455TIP3    H255243   7.480   2.782   7.248
18456TIP3   OH255244   7.438   3.693   8.437
18456TIP3    H155245   7.462   3.669   8.527
18456TIP3    H255246   7.398   3.781   8.447
18457TIP3   OH255247   6.732   3.399   8.117
18457TIP3    H155248   6.772   3.363   8.036
18457TIP3    H255249   6.759   3.334   8.184
18458TIP3   OH255250   7.186   3.527   7.266
18458TIP3    H155251   7.136   3.612   7.271
18458TIP3    H255252   7.130   3.469   7.321
18459TIP3   OH255253   6.613   3.315   8.727
18459TIP3    H155254   6.631   3.305   8.823
18459TIP3    H255255   6.540   3.252   8.715
18460TIP3   OH255256   7.336   3.432   8.749
18460TIP3    H155257   7.276   3.370   8.704
18460TIP3    H255258   7.424   3.398   8.721
18461TIP3   OH255259   7.596   3.953   8.330
18461TIP3    H155260   7.500   3.952   8.346
18461TIP3    H255261   7.627   4.003   8.409
18462TIP3   OH255262   8.021   3.029   7.228
18462TIP3    H155263   7.951   2.981   7.181
18462TIP3    H255264   8.009   3.117   7.187
18463TIP3   OH255265   8.225   3.881   8.323
18463TIP3    H155266   8.127   3.876   8.316
18463TIP3    H255267   8.251   3.852   8.233
18464TIP3   OH255268   7.706   3.844   7.148
18464TIP3    H155269   7.685   3.774   7.211
18464TIP3    H255270   7.721   3.797   7.065
18465TIP3   OH255271   7.703   3.476   7.981
18465TIP3    H155272   7.612   3.447   8.000
18465TIP3    H255273   7.740   3.396   7.940
18466TIP3   OH255274   6.395   3.005   7.445
18466TIP3    H155275   6.439   3.090   7.467
18466TIP3    H255276   6.316   3.010   7.505
18467TIP3   OH255277   6.971   3.463   7.682
18467TIP3    H155278   6.962   3.549   7.721
18467TIP3    H255279   6.935   3.405   7.753
18468TIP3   OH255280   7.106   4.038   8.214
18468TIP3    H155281   7.142   4.115   8.167
18468TIP3    H255282   7.184   4.009   8.266
18469TIP3   OH255283   7.493   3.679   8.169
18469TIP3    H155284   7.479   3.680   8.267
18469TIP3    H255285   7.576   3.631   8.163
18470TIP3   OH255286   7.464   3.571   7.050
18470TIP3    H155287   7.514   3.547   7.131
18470TIP3    H255288   7.375   3.543   7.075
18471TIP3   OH255289   7.738   4.211   8.219
18471TIP3    H155290   7.660   4.153   8.214
18471TIP3    H255291   7.721   4.275   8.147
18472TIP3   OH255292   7.803   4.047   6.870
18472TIP3    H155293   7.847   4.122   6.826
18472TIP3    H255294   7.723   4.094   6.902
18473TIP3   OH255295   6.823   2.822   8.737
18473TIP3    H155296   6.727   2.829   8.752
18473TIP3    H255297   6.850   2.763   8.809
18474TIP3   OH255298   7.623   3.505   7.272
18474TIP3    H155299   7.615   3.432   7.335
18474TIP3    H255300   7.720   3.505   7.256
18475TIP3   OH255301   6.545   3.903   8.372
18475TIP3    H155302   6.591   3.832   8.419
18475TIP3    H255303   6.558   3.977   8.433
18476TIP3   OH255304   6.832   3.551   7.050
18476TIP3    H155305   6.841   3.459   7.019
18476TIP3    H255306   6.809   3.538   7.144
18477TIP3   OH255307   6.776   3.559   7.321
18477TIP3    H155308   6.846   3.527   7.379
18477TIP3    H255309   6.782   3.656   7.332
18478TIP3   OH255310   6.513   3.252   7.526
18478TIP3    H155311   6.445   3.294   7.583
18478TIP3    H255312   6.523   3.321   7.458
18479TIP3   OH255313   7.663   2.884   8.414
18479TIP3    H155314   7.737   2.926   8.460
18479TIP3    H255315   7.646   2.805   8.471
18480TIP3   OH255316   7.532   2.682   7.594
18480TIP3    H155317   7.505   2.689   7.500
18480TIP3    H255318   7.628   2.669   7.584
18481TIP3   OH255319   7.042   3.757   7.279
18481TIP3    H155320   6.954   3.788   7.309
18481TIP3    H255321   7.059   3.821   7.207
18482TIP3   OH255322   7.229   2.822   7.686
18482TIP3    H155323   7.306   2.879   7.669
18482TIP3    H255324   7.230   2.813   7.784
18483TIP3   OH255325   7.500   3.137   8.494
18483TIP3    H155326   7.517   3.194   8.572
18483TIP3    H255327   7.555   3.060   8.514
18484TIP3   OH255328   7.368   2.554   7.790
18484TIP3    H155329   7.366   2.623   7.858
18484TIP3    H255330   7.426   2.595   7.723
18485TIP3   OH255331   6.782   3.836   7.340
18485TIP3    H155332   6.760   3.889   7.260
18485TIP3    H255333   6.746   3.895   7.407
18486TIP3   OH255334   6.884   2.541   7.577
18486TIP3    H155335   6.881   2.630   7.616
18486TIP3    H255336   6.980   2.523   7.583
18487TIP3   OH255337   8.139   3.033   8.480
18487TIP3    H155338   8.041   3.032   8.482
18487TIP3    H255339   8.154   3.000   8.390
18488TIP3   OH255340   7.795   3.229   7.843
18488TIP3    H155341   7.722   3.174   7.875
18488TIP3    H255342   7.870   3.195   7.898
18489TIP3   OH255343   6.501   3.460   7.333
18489TIP3    H155344   6.565   3.533   7.336
18489TIP3    H255345   6.546   3.404   7.265
18490TIP3   OH255346   6.450   2.736   7.463
18490TIP3    H155347   6.442   2.833   7.461
18490TIP3    H255348   6.365   2.708   7.426
18491TIP3   OH255349   7.757   4.184   7.810
18491TIP3    H155350   7.716   4.232   7.734
18491TIP3    H255351   7.852   4.204   7.792
18492TIP3   OH255352   6.837   2.455   8.338
18492TIP3    H155353   6.803   2.421   8.253
18492TIP3    H255354   6.825   2.377   8.397
18493TIP3   OH255355   6.376   3.681   7.717
18493TIP3    H155356   6.307   3.706   7.781
18493TIP3    H255357   6.338   3.717   7.634
18494TIP3   OH255358   6.530   4.215   8.789
18494TIP3    H155359   6.615   4.216   8.838
18494TIP3    H255360   6.508   4.121   8.791
18495TIP3   OH255361   7.012   4.182   8.834
18495TIP3    H155362   7.106   4.162   8.845
18495TIP3    H255363   6.988   4.121   8.761
18496TIP3   OH255364   6.995   3.756   6.967
18496TIP3    H155365   6.938   3.683   7.002
18496TIP3    H255366   7.068   3.704   6.928
18497TIP3   OH255367   7.654   4.083   8.565
18497TIP3    H155368   7.643   4.015   8.635
18497TIP3    H255369   7.729   4.136   8.598
18498TIP3   OH255370   7.431   3.796   6.872
18498TIP3    H155371   7.474   3.733   6.933
18498TIP3    H255372   7.494   3.800   6.797
18499TIP3   OH255373   6.663   3.626   8.987
18499TIP3    H155374   6.673   3.531   9.007
18499TIP3    H255375   6.572   3.628   8.952
18500TIP3   OH255376   6.638   3.276   7.183
18500TIP3    H155377   6.689   3.235   7.255
18500TIP3    H255378   6.705   3.278   7.112
18501TIP3   OH255379   7.271   3.707   8.764
18501TIP3    H155380   7.227   3.720   8.678
18501TIP3    H255381   7.301   3.614   8.758
18502TIP3   OH255382   7.152   3.473   6.994
18502TIP3    H155383   7.149   3.484   7.091
18502TIP3    H255384   7.149   3.375   6.987
18503TIP3   OH255385   7.759   3.713   8.366
18503TIP3    H155386   7.835   3.761   8.327
18503TIP3    H255387   7.689   3.780   8.359
18504TIP3   OH255388   6.784   3.354   8.970
18504TIP3    H155389   6.855   3.289   8.961
18504TIP3    H255390   6.803   3.389   9.060
18505TIP3   OH255391   6.852   3.174   7.411
18505TIP3    H155392   6.817   3.132   7.491
18505TIP3    H255393   6.882   3.097   7.359
18506TIP3   OH255394   7.117   3.243   8.636
18506TIP3    H155395   7.037   3.300   8.638
18506TIP3    H255396   7.163   3.275   8.555
18507TIP3   OH255397   6.946   2.971   7.246
18507TIP3    H155398   6.917   2.971   7.153
18507TIP3    H255399   7.043   2.977   7.236
18508TIP3   OH255400   7.630   3.641   8.767
18508TIP3    H155401   7.716   3.623   8.728
18508TIP3    H255402   7.627   3.577   8.840
18509TIP3   OH255403   7.768   3.302   6.912
18509TIP3    H155404   7.745   3.254   6.829
18509TIP3    H255405   7.736   3.392   6.888
18510TIP3   OH255406   7.239   3.029   8.761
18510TIP3    H155407   7.237   2.949   8.705
18510TIP3    H255408   7.194   3.095   8.704
18511TIP3   OH255409   7.241   2.816   8.565
18511TIP3    H155410   7.265   2.854   8.478
18511TIP3    H255411   7.146   2.792   8.550
18512TIP3   OH255412   7.268   3.348   8.437
18512TIP3    H155413   7.352   3.361   8.392
18512TIP3    H255414   7.212   3.417   8.396
18513TIP3   OH255415   7.851   3.320   8.819
18513TIP3    H155416   7.900   3.243   8.852
18513TIP3    H255417   7.925   3.379   8.796
18514TIP3   OH255418   7.891   3.567   8.554
18514TIP3    H155419   7.833   3.623   8.496
18514TIP3    H255420   7.979   3.589   8.515
18515TIP3   OH255421   7.117   3.140   8.991
18515TIP3    H155422   7.047   3.074   9.006
18515TIP3    H255423   7.151   3.113   8.903
18516TIP3   OH255424   7.371   2.580   8.633
18516TIP3    H155425   7.321   2.662   8.611
18516TIP3    H255426   7.301   2.512   8.623
18517TIP3   OH255427   7.500   3.084   8.851
18517TIP3    H155428   7.489   3.074   8.947
18517TIP3    H255429   7.410   3.059   8.822
18518TIP3   OH255430   7.736   3.026   8.703
18518TIP3    H155431   7.661   3.033   8.765
18518TIP3    H255432   7.810   3.002   8.762
18519TIP3   OH255433   7.974   2.972   8.852
18519TIP3    H155434   7.977   2.879   8.881
18519TIP3    H255435   7.964   3.021   8.938
18520TIP3   OH255436   6.956   2.921   9.043
18520TIP3    H155437   6.961   2.829   9.010
18520TIP3    H255438   6.991   2.909   9.134
18521TIP3   OH255439   7.467   2.593   8.890
18521TIP3    H155440   7.529   2.518   8.879
18521TIP3    H255441   7.421   2.589   8.803
18522TIP3   OH255442   7.535   2.803   9.051
18522TIP3    H155443   7.509   2.733   8.987
18522TIP3    H255444   7.456   2.862   9.048
18523TIP3   OH255445   6.754   4.026   7.148
18523TIP3    H155446   6.849   4.032   7.128
18523TIP3    H255447   6.718   4.077   7.073
18524TIP3   OH255448   6.233   3.413   7.368
18524TIP3    H155449   6.328   3.434   7.355
18524TIP3    H255450   6.225   3.325   7.326
18525TIP3   OH255451   6.152   4.024   7.781
18525TIP3    H155452   6.081   3.965   7.746
18525TIP3    H255453   6.193   3.965   7.848
18526TIP3   OH255454   6.295   3.878   7.969
18526TIP3    H155455   6.273   3.804   8.028
18526TIP3    H255456   6.328   3.941   8.036
18527TIP3   OH255457   8.010   4.277   7.768
18527TIP3    H155458   8.034   4.310   7.857
18527TIP3    H255459   8.072   4.326   7.712
18528TIP3   OH255460   8.041   4.297   8.049
18528TIP3    H155461   7.998   4.209   8.047
18528TIP3    H255462   8.114   4.279   8.110
18529TIP3   OH255463   8.084   3.976   8.620
18529TIP3    H155464   8.013   3.983   8.687
18529TIP3    H255465   8.126   4.064   8.627
18530TIP3   OH255466   7.902   3.487   7.247
18530TIP3    H155467   7.969   3.552   7.216
18530TIP3    H255468   7.947   3.450   7.326
18531TIP3   OH255469   8.027   3.362   7.461
18531TIP3    H155470   7.991   3.331   7.545
18531TIP3    H255471   8.112   3.402   7.491
18532TIP3   OH255472   8.081   3.745   7.875
18532TIP3    H155473   8.140   3.683   7.828
18532TIP3    H255474   8.078   3.822   7.815
18533TIP3   OH255475   7.916   4.047   8.073
18533TIP3    H155476   7.847   4.090   8.127
18533TIP3    H255477   7.863   3.999   8.006
18534TIP3   OH255478   7.968   3.265   7.094
18534TIP3    H155479   7.896   3.268   7.027
18534TIP3    H255480   7.942   3.342   7.149
18535TIP3   OH255481   7.836   2.935   7.050
18535TIP3    H155482   7.795   2.974   6.972
18535TIP3    H255483   7.813   2.841   7.039
18536TIP3   OH255484   6.472   3.288   8.338
18536TIP3    H155485   6.470   3.255   8.246
18536TIP3    H255486   6.568   3.287   8.356
18537TIP3   OH255487   8.132   3.636   8.447
18537TIP3    H155488   8.206   3.571   8.442
18537TIP3    H255489   8.165   3.708   8.391
18538TIP3   OH255490   8.321   3.447   8.466
18538TIP3    H155491   8.246   3.394   8.501
18538TIP3    H255492   8.394   3.383   8.482
18539TIP3   OH255493   7.785   2.666   7.027
18539TIP3    H155494   7.859   2.641   7.087
18539TIP3    H255495   7.711   2.612   7.060
18540TIP3   OH255496   8.001   3.108   7.980
18540TIP3    H155497   8.090   3.131   7.943
18540TIP3    H255498   8.014   3.140   8.071
18541TIP3   OH255499   8.069   3.245   8.215
18541TIP3    H155500   7.994   3.280   8.267
18541TIP3    H255501   8.102   3.326   8.172
18542TIP3   OH255502   6.689   2.972   9.012
18542TIP3    H155503   6.787   2.965   9.017
18542TIP3    H255504   6.663   2.888   9.055
18543TIP3   OH255505   7.939   2.678   7.530
18543TIP3    H155506   7.992   2.665   7.611
18543TIP3    H255507   7.885   2.597   7.529
18544TIP3   OH255508   6.651   2.662   8.342
18544TIP3    H155509   6.713   2.588   8.355
18544TIP3    H255510   6.712   2.738   8.340
18545TIP3   OH255511   6.453   2.936   8.420
18545TIP3    H155512   6.502   2.933   8.335
18545TIP3    H255513   6.480   3.023   8.454
18546TIP3   OH255514   8.386   2.975   8.599
18546TIP3    H155515   8.297   3.013   8.588
18546TIP3    H255516   8.382   2.902   8.535
18547TIP3   OH255517   8.029   2.615   7.155
18547TIP3    H155518   8.075   2.541   7.111
18547TIP3    H255519   8.098   2.685   7.155
18548TIP3   OH255520   6.436   2.448   7.924
18548TIP3    H155521   6.342   2.439   7.947
18548TIP3    H255522   6.432   2.502   7.842
18549TIP3   OH255523   7.592   4.141   7.427
18549TIP3    H155524   7.647   4.130   7.347
18549TIP3    H255525   7.642   4.208   7.477
18550TIP3   OH255526   6.656   2.520   8.734
18550TIP3    H155527   6.606   2.515   8.817
18550TIP3    H255528   6.589   2.560   8.675
18551TIP3   OH255529   6.696   3.946   8.811
18551TIP3    H155530   6.603   3.920   8.796
18551TIP3    H255531   6.707   3.927   8.905
18552TIP3   OH255532   6.875   3.977   8.354
18552TIP3    H155533   6.827   4.055   8.320
18552TIP3    H255534   6.962   3.993   8.310
18553TIP3   OH255535   7.319   4.226   8.494
18553TIP3    H155536   7.359   4.225   8.584
18553TIP3    H255537   7.387   4.277   8.445
18554TIP3   OH255538   7.500   4.376   8.353
18554TIP3    H155539   7.575   4.325   8.318
18554TIP3    H255540   7.548   4.436   8.416
18555TIP3   OH255541   8.285   2.738   8.457
18555TIP3    H155542   8.195   2.724   8.421
18555TIP3    H255543   8.323   2.647   8.446
18556TIP3   OH255544   6.550   4.237   8.383
18556TIP3    H155545   6.460   4.271   8.361
18556TIP3    H255546   6.562   4.276   8.471
18557TIP3   OH255547   6.781   4.212   8.236
18557TIP3    H155548   6.698   4.226   8.287
18557TIP3    H255549   6.760   4.258   8.153
18558TIP3   OH255550   7.210   4.251   8.034
18558TIP3    H155551   7.159   4.292   7.963
18558TIP3    H255552   7.229   4.330   8.089
18559TIP3   OH255553   7.480   4.183   8.082
18559TIP3    H155554   7.386   4.204   8.067
18559TIP3    H255555   7.524   4.264   8.050
18560TIP3   OH255556   7.686   4.375   8.005
18560TIP3    H155557   7.674   4.461   7.959
18560TIP3    H255558   7.713   4.317   7.930
18561TIP3   OH255559   6.476   4.032   8.128
18561TIP3    H155560   6.471   4.014   8.224
18561TIP3    H255561   6.558   3.987   8.110
18562TIP3   OH255562   7.494   2.652   8.066
18562TIP3    H155563   7.453   2.585   8.125
18562TIP3    H255564   7.567   2.601   8.026
18563TIP3   OH255565   8.022   2.539   7.979
18563TIP3    H155566   8.057   2.587   7.901
18563TIP3    H255567   7.926   2.552   7.971
18564TIP3   OH255568   8.114   2.638   7.742
18564TIP3    H155569   8.186   2.584   7.702
18564TIP3    H255570   8.151   2.728   7.725
18565TIP3   OH255571   6.745   2.363   8.091
18565TIP3    H155572   6.653   2.330   8.090
18565TIP3    H255573   6.795   2.279   8.088
18566TIP3   OH255574   6.535   2.235   7.739
18566TIP3    H155575   6.562   2.293   7.666
18566TIP3    H255576   6.504   2.299   7.806
18567TIP3   OH255577   7.186   2.399   7.968
18567TIP3    H155578   7.252   2.444   7.914
18567TIP3    H255579   7.209   2.429   8.057
18568TIP3   OH255580   7.737   2.539   7.950
18568TIP3    H155581   7.741   2.491   7.866
18568TIP3    H255582   7.726   2.464   8.013
18569TIP3   OH255583   7.762   2.461   7.521
18569TIP3    H155584   7.668   2.461   7.500
18569TIP3    H255585   7.766   2.376   7.571
18570TIP3   OH255586   6.251   3.806   7.516
18570TIP3    H155587   6.167   3.769   7.484
18570TIP3    H255588   6.236   3.900   7.493
18571TIP3   OH255589   6.649   2.395   7.499
18571TIP3    H155590   6.696   2.328   7.446
18571TIP3    H255591   6.723   2.446   7.537
18572TIP3   OH255592   7.161   2.571   7.594
18572TIP3    H155593   7.212   2.516   7.656
18572TIP3    H255594   7.185   2.660   7.627
18573TIP3   OH255595   7.024   3.993   7.102
18573TIP3    H155596   7.111   4.017   7.063
18573TIP3    H255597   7.001   3.919   7.042
18574TIP3   OH255598   7.740   4.111   7.194
18574TIP3    H155599   7.732   4.014   7.180
18574TIP3    H255600   7.695   4.145   7.114
18575TIP3   OH255601   6.954   2.645   8.982
18575TIP3    H155602   6.920   2.574   9.040
18575TIP3    H255603   7.049   2.645   9.010
18576TIP3   OH255604   7.203   2.640   9.103
18576TIP3    H155605   7.287   2.610   9.065
18576TIP3    H255606   7.187   2.571   9.170
18577TIP3   OH255607   6.327   3.830   7.156
18577TIP3    H155608   6.320   3.857   7.249
18577TIP3    H255609   6.415   3.788   7.151
18578TIP3   OH255610   8.030   2.701   8.890
18578TIP3    H155611   8.065   2.662   8.972
18578TIP3    H255612   8.112   2.716   8.838
18579TIP3   OH255613   7.970   4.255   8.378
18579TIP3    H155614   7.889   4.224   8.333
18579TIP3    H255615   7.949   4.351   8.384
18580TIP3   OH255616   9.225   3.632   7.141
18580TIP3    H155617   9.206   3.723   7.110
18580TIP3    H255618   9.136   3.596   7.139
18581TIP3   OH255619   9.232   3.631   7.526
18581TIP3    H155620   9.258   3.601   7.615
18581TIP3    H255621   9.189   3.551   7.491
18582TIP3   OH255622   8.530   3.520   7.894
18582TIP3    H155623   8.561   3.454   7.959
18582TIP3    H255624   8.607   3.578   7.889
18583TIP3   OH255625   9.501   3.933   7.194
18583TIP3    H155626   9.465   3.861   7.246
18583TIP3    H255627   9.513   4.003   7.260
18584TIP3   OH255628   8.504   3.931   7.618
18584TIP3    H155629   8.493   3.833   7.620
18584TIP3    H255630   8.601   3.937   7.608
18585TIP3   OH255631   8.206   3.131   7.407
18585TIP3    H155632   8.161   3.216   7.416
18585TIP3    H255633   8.139   3.079   7.358
18586TIP3   OH255634   8.271   3.421   7.564
18586TIP3    H155635   8.318   3.346   7.607
18586TIP3    H255636   8.340   3.457   7.506
18587TIP3   OH255637   9.118   4.395   7.226
18587TIP3    H155638   9.169   4.326   7.178
18587TIP3    H255639   9.109   4.355   7.314
18588TIP3   OH255640   9.030   3.855   7.578
18588TIP3    H155641   9.055   3.778   7.525
18588TIP3    H255642   9.119   3.891   7.596
18589TIP3   OH255643   9.443   3.365   7.604
18589TIP3    H155644   9.480   3.278   7.626
18589TIP3    H255645   9.411   3.347   7.514
18590TIP3   OH255646   8.780   3.014   7.574
18590TIP3    H155647   8.761   3.087   7.511
18590TIP3    H255648   8.732   2.941   7.530
18591TIP3   OH255649   9.469   3.106   7.193
18591TIP3    H155650   9.543   3.090   7.257
18591TIP3    H255651   9.520   3.140   7.117
18592TIP3   OH255652   8.414   3.218   7.681
18592TIP3    H155653   8.497   3.198   7.728
18592TIP3    H255654   8.427   3.162   7.601
18593TIP3   OH255655   8.856   3.414   7.476
18593TIP3    H155656   8.949   3.388   7.489
18593TIP3    H255657   8.816   3.331   7.443
18594TIP3   OH255658   8.781   3.000   8.004
18594TIP3    H155659   8.720   3.037   7.938
18594TIP3    H255660   8.727   3.011   8.085
18595TIP3   OH255661   9.127   3.853   7.012
18595TIP3    H155662   9.070   3.803   6.951
18595TIP3    H255663   9.072   3.933   7.028
18596TIP3   OH255664   8.886   3.773   7.802
18596TIP3    H155665   8.820   3.836   7.840
18596TIP3    H255666   8.922   3.823   7.727
18597TIP3   OH255667   9.681   3.098   7.357
18597TIP3    H155668   9.692   3.060   7.446
18597TIP3    H255669   9.746   3.170   7.363
18598TIP3   OH255670   8.647   3.113   7.792
18598TIP3    H155671   8.709   3.186   7.815
18598TIP3    H255672   8.697   3.072   7.717
18599TIP3   OH255673   8.713   3.966   7.902
18599TIP3    H155674   8.683   4.050   7.863
18599TIP3    H255675   8.636   3.947   7.959
18600TIP3   OH255676   8.103   3.657   7.141
18600TIP3    H155677   8.070   3.681   7.053
18600TIP3    H255678   8.136   3.743   7.175
18601TIP3   OH255679   9.545   4.172   7.375
18601TIP3    H155680   9.456   4.169   7.417
18601TIP3    H255681   9.540   4.258   7.328
18602TIP3   OH255682   9.122   2.719   7.698
18602TIP3    H155683   9.124   2.630   7.738
18602TIP3    H255684   9.053   2.762   7.753
18603TIP3   OH255685   9.254   4.222   7.068
18603TIP3    H155686   9.295   4.135   7.061
18603TIP3    H255687   9.316   4.278   7.016
18604TIP3   OH255688   9.753   4.087   7.719
18604TIP3    H155689   9.750   4.007   7.663
18604TIP3    H255690   9.757   4.158   7.651
18605TIP3   OH255691   9.019   3.251   6.699
18605TIP3    H155692   9.068   3.322   6.745
18605TIP3    H255693   9.092   3.205   6.652
18606TIP3   OH255694   9.943   3.703   7.543
18606TIP3    H155695   9.873   3.768   7.562
18606TIP3    H255696   9.990   3.745   7.469
18607TIP3   OH255697   9.408   3.569   6.949
18607TIP3    H155698   9.349   3.587   7.027
18607TIP3    H255699   9.488   3.532   6.993
18608TIP3   OH255700   9.612   3.586   7.822
18608TIP3    H155701   9.634   3.667   7.870
18608TIP3    H255702   9.515   3.594   7.812
18609TIP3   OH255703   8.636   3.556   7.371
18609TIP3    H155704   8.595   3.499   7.303
18609TIP3    H255705   8.718   3.507   7.393
18610TIP3   OH255706   8.773   3.969   7.510
18610TIP3    H155707   8.752   3.927   7.424
18610TIP3    H255708   8.862   3.934   7.527
18611TIP3   OH255709   8.778   3.531   7.720
18611TIP3    H155710   8.811   3.508   7.630
18611TIP3    H255711   8.823   3.615   7.739
18612TIP3   OH255712   9.309   4.171   7.510
18612TIP3    H155713   9.253   4.218   7.571
18612TIP3    H255714   9.305   4.081   7.547
18613TIP3   OH255715   8.920   4.088   8.035
18613TIP3    H155716   8.861   4.148   8.087
18613TIP3    H255717   8.852   4.034   7.990
18614TIP3   OH255718   9.271   3.400   6.771
18614TIP3    H155719   9.302   3.473   6.828
18614TIP3    H255720   9.277   3.440   6.682
18615TIP3   OH255721   8.671   3.646   8.140
18615TIP3    H155722   8.676   3.729   8.191
18615TIP3    H255723   8.577   3.623   8.155
18616TIP3   OH255724   8.994   4.102   7.058
18616TIP3    H155725   9.059   4.171   7.076
18616TIP3    H255726   8.930   4.145   6.999
18617TIP3   OH255727   8.714   4.255   8.132
18617TIP3    H155728   8.676   4.250   8.042
18617TIP3    H255729   8.635   4.233   8.187
18618TIP3   OH255730   9.779   2.684   6.855
18618TIP3    H155731   9.686   2.698   6.884
18618TIP3    H255732   9.785   2.743   6.778
18619TIP3   OH255733   8.502   3.403   7.183
18619TIP3    H155734   8.444   3.444   7.115
18619TIP3    H255735   8.475   3.311   7.177
18620TIP3   OH255736   8.291   3.785   8.078
18620TIP3    H155737   8.226   3.759   8.010
18620TIP3    H255738   8.330   3.699   8.105
18621TIP3   OH255739   8.145   3.977   7.712
18621TIP3    H155740   8.241   3.973   7.703
18621TIP3    H255741   8.134   4.057   7.765
18622TIP3   OH255742   9.993   4.458   7.739
18622TIP3    H155743  10.050   4.387   7.774
18622TIP3    H255744   9.916   4.452   7.799
18623TIP3   OH255745   9.091   4.253   7.904
18623TIP3    H155746   9.126   4.289   7.986
18623TIP3    H255747   9.026   4.188   7.941
18624TIP3   OH255748   8.876   4.349   6.852
18624TIP3    H155749   8.829   4.323   6.770
18624TIP3    H255750   8.841   4.438   6.871
18625TIP3   OH255751   8.313   4.195   7.238
18625TIP3    H155752   8.362   4.185   7.322
18625TIP3    H255753   8.257   4.115   7.240
18626TIP3   OH255754   9.078   4.246   6.494
18626TIP3    H155755   9.136   4.175   6.456
18626TIP3    H255756   9.113   4.251   6.585
18627TIP3   OH255757   9.127   4.296   6.767
18627TIP3    H155758   9.035   4.306   6.801
18627TIP3    H255759   9.167   4.245   6.838
18628TIP3   OH255760   8.497   3.969   8.066
18628TIP3    H155761   8.546   3.952   8.149
18628TIP3    H255762   8.422   3.905   8.074
18629TIP3   OH255763   8.892   2.802   7.836
18629TIP3    H155764   8.801   2.772   7.814
18629TIP3    H255765   8.869   2.883   7.886
18630TIP3   OH255766   9.318   3.478   6.507
18630TIP3    H155767   9.306   3.427   6.426
18630TIP3    H255768   9.404   3.521   6.487
18631TIP3   OH255769   9.037   2.842   6.820
18631TIP3    H155770   9.007   2.840   6.913
18631TIP3    H255771   9.002   2.756   6.789
18632TIP3   OH255772   8.825   3.308   7.870
18632TIP3    H155773   8.776   3.329   7.952
18632TIP3    H255774   8.808   3.389   7.816
18633TIP3   OH255775   8.711   3.194   7.383
18633TIP3    H155776   8.618   3.169   7.399
18633TIP3    H255777   8.725   3.154   7.294
18634TIP3   OH255778   9.195   3.286   7.101
18634TIP3    H155779   9.144   3.349   7.049
18634TIP3    H255780   9.256   3.250   7.033
18635TIP3   OH255781   9.358   3.312   7.346
18635TIP3    H155782   9.298   3.338   7.273
18635TIP3    H255783   9.392   3.228   7.307
18636TIP3   OH255784   8.645   3.339   8.080
18636TIP3    H155785   8.674   3.400   8.149
18636TIP3    H255786   8.636   3.255   8.130
18637TIP3   OH255787   8.687   2.809   6.788
18637TIP3    H155788   8.687   2.808   6.886
18637TIP3    H255789   8.619   2.876   6.770
18638TIP3   OH255790   8.239   2.861   7.659
18638TIP3    H155791   8.314   2.892   7.713
18638TIP3    H255792   8.281   2.828   7.578
18639TIP3   OH255793   8.213   2.838   7.175
18639TIP3    H155794   8.259   2.877   7.098
18639TIP3    H255795   8.153   2.912   7.198
18640TIP3   OH255796   9.337   3.553   7.770
18640TIP3    H155797   9.383   3.486   7.714
18640TIP3    H255798   9.323   3.500   7.852
18641TIP3   OH255799   9.038   3.016   7.446
18641TIP3    H155800   8.956   3.013   7.499
18641TIP3    H255801   9.106   3.015   7.514
18642TIP3   OH255802   8.472   3.072   7.454
18642TIP3    H155803   8.377   3.075   7.428
18642TIP3    H255804   8.499   2.981   7.430
18643TIP3   OH255805   8.743   3.068   7.141
18643TIP3    H155806   8.837   3.085   7.119
18643TIP3    H255807   8.696   3.089   7.057
18644TIP3   OH255808   9.498   3.097   7.625
18644TIP3    H155809   9.471   3.105   7.719
18644TIP3    H255810   9.431   3.034   7.593
18645TIP3   OH255811   8.586   3.086   6.917
18645TIP3    H155812   8.513   3.054   6.862
18645TIP3    H255813   8.636   3.139   6.852
18646TIP3   OH255814   9.695   4.778   7.861
18646TIP3    H155815   9.697   4.805   7.767
18646TIP3    H255816   9.766   4.832   7.900
18647TIP3   OH255817   8.655   3.892   8.284
18647TIP3    H155818   8.733   3.927   8.333
18647TIP3    H255819   8.590   3.886   8.357
18648TIP3   OH255820   9.122   3.345   7.543
18648TIP3    H155821   9.195   3.303   7.494
18648TIP3    H255822   9.129   3.303   7.631
18649TIP3   OH255823   8.642   2.833   7.420
18649TIP3    H155824   8.610   2.752   7.466
18649TIP3    H255825   8.695   2.796   7.348
18650TIP3   OH255826   9.096   3.242   7.827
18650TIP3    H155827   9.008   3.279   7.848
18650TIP3    H255828   9.157   3.295   7.882
18651TIP3   OH255829   9.728   3.874   7.555
18651TIP3    H155830   9.753   3.916   7.470
18651TIP3    H255831   9.645   3.826   7.531
18652TIP3   OH255832   9.292   2.942   6.790
18652TIP3    H155833   9.194   2.932   6.796
18652TIP3    H255834   9.306   3.037   6.812
18653TIP3   OH255835   9.257   3.971   7.926
18653TIP3    H155836   9.278   3.913   8.001
18653TIP3    H255837   9.177   4.015   7.959
18654TIP3   OH255838   9.367   3.184   6.899
18654TIP3    H155839   9.465   3.194   6.905
18654TIP3    H255840   9.344   3.260   6.841
18655TIP3   OH255841   8.522   3.650   7.605
18655TIP3    H155842   8.562   3.625   7.519
18655TIP3    H255843   8.569   3.591   7.666
18656TIP3   OH255844   8.408   3.576   8.215
18656TIP3    H155845   8.433   3.567   8.309
18656TIP3    H255846   8.341   3.506   8.207
18657TIP3   OH255847   9.136   3.698   8.223
18657TIP3    H155848   9.077   3.629   8.189
18657TIP3    H255849   9.220   3.650   8.230
18658TIP3   OH255850   9.367   4.265   7.798
18658TIP3    H155851   9.306   4.193   7.822
18658TIP3    H255852   9.409   4.283   7.886
18659TIP3   OH255853   9.789   3.269   6.744
18659TIP3    H155854   9.731   3.226   6.678
18659TIP3    H255855   9.817   3.344   6.688
18660TIP3   OH255856  10.006   4.137   7.799
18660TIP3    H155857   9.910   4.125   7.787
18660TIP3    H255858  10.039   4.100   7.715
18661TIP3   OH255859   9.498   3.729   7.479
18661TIP3    H155860   9.405   3.699   7.488
18661TIP3    H255861   9.536   3.650   7.435
18662TIP3   OH255862   8.620   3.961   7.230
18662TIP3    H155863   8.625   4.039   7.172
18662TIP3    H255864   8.525   3.942   7.228
18663TIP3   OH255865   8.189   3.260   6.929
18663TIP3    H155866   8.240   3.342   6.950
18663TIP3    H255867   8.114   3.269   6.993
18664TIP3   OH255868   8.799   3.747   7.240
18664TIP3    H155869   8.743   3.822   7.213
18664TIP3    H255870   8.734   3.683   7.272
18665TIP3   OH255871   8.892   4.299   7.697
18665TIP3    H155872   8.933   4.368   7.639
18665TIP3    H255873   8.968   4.274   7.753
18666TIP3   OH255874   8.546   4.198   7.079
18666TIP3    H155875   8.461   4.205   7.125
18666TIP3    H255876   8.578   4.291   7.082
18667TIP3   OH255877   9.296   3.938   7.653
18667TIP3    H155878   9.284   3.932   7.751
18667TIP3    H255879   9.361   3.868   7.637
18668TIP3   OH255880   9.258   3.827   6.545
18668TIP3    H155881   9.295   3.810   6.633
18668TIP3    H255882   9.169   3.790   6.554
18669TIP3   OH255883   9.504   4.492   7.720
18669TIP3    H155884   9.483   4.399   7.700
18669TIP3    H255885   9.515   4.535   7.631
18670TIP3   OH255886   9.594   4.317   6.377
18670TIP3    H155887   9.626   4.364   6.299
18670TIP3    H255888   9.511   4.365   6.394
18671TIP3   OH255889   8.611   3.080   8.216
18671TIP3    H155890   8.517   3.101   8.233
18671TIP3    H255891   8.622   3.002   8.272
18672TIP3   OH255892   9.456   3.764   6.768
18672TIP3    H155893   9.414   3.702   6.834
18672TIP3    H255894   9.480   3.700   6.699
18673TIP3   OH255895   8.336   4.164   7.856
18673TIP3    H155896   8.388   4.089   7.890
18673TIP3    H255897   8.357   4.233   7.919
18674TIP3   OH255898   8.623   3.805   6.538
18674TIP3    H155899   8.645   3.714   6.513
18674TIP3    H255900   8.610   3.794   6.635
18675TIP3   OH255901   8.570   3.811   6.813
18675TIP3    H155902   8.653   3.776   6.850
18675TIP3    H255903   8.580   3.907   6.824
18676TIP3   OH255904   8.301   3.502   7.013
18676TIP3    H155905   8.240   3.553   7.069
18676TIP3    H255906   8.328   3.569   6.948
18677TIP3   OH255907   9.409   3.143   7.879
18677TIP3    H155908   9.482   3.192   7.921
18677TIP3    H255909   9.410   3.061   7.931
18678TIP3   OH255910   9.331   2.897   7.069
18678TIP3    H155911   9.319   2.919   6.975
18678TIP3    H255912   9.372   2.979   7.103
18679TIP3   OH255913   8.839   4.032   6.774
18679TIP3    H155914   8.745   4.049   6.793
18679TIP3    H255915   8.850   4.071   6.687
18680TIP3   OH255916   9.027   3.074   7.173
18680TIP3    H155917   9.091   3.145   7.153
18680TIP3    H255918   9.032   3.069   7.270
18681TIP3   OH255919   9.297   3.402   7.991
18681TIP3    H155920   9.316   3.447   8.076
18681TIP3    H255921   9.364   3.331   7.993
18682TIP3   OH255922   9.171   2.801   7.276
18682TIP3    H155923   9.161   2.878   7.335
18682TIP3    H255924   9.229   2.839   7.206
18683TIP3   OH255925   8.573   4.087   6.823
18683TIP3    H155926   8.548   4.159   6.762
18683TIP3    H255927   8.562   4.130   6.911
18684TIP3   OH255928   8.681   2.799   7.065
18684TIP3    H155929   8.677   2.891   7.098
18684TIP3    H255930   8.778   2.782   7.074
18685TIP3   OH255931   9.586   3.489   7.350
18685TIP3    H155932   9.509   3.431   7.360
18685TIP3    H255933   9.657   3.436   7.393
18686TIP3   OH255934   8.299   3.719   6.817
18686TIP3    H155935   8.370   3.785   6.828
18686TIP3    H255936   8.345   3.660   6.753
18687TIP3   OH255937   8.241   2.988   6.945
18687TIP3    H155938   8.247   3.085   6.945
18687TIP3    H255939   8.149   2.975   6.919
18688TIP3   OH255940   9.553   4.440   7.299
18688TIP3    H155941   9.510   4.487   7.224
18688TIP3    H255942   9.647   4.462   7.279
18689TIP3   OH255943   8.629   2.713   7.825
18689TIP3    H155944   8.597   2.678   7.739
18689TIP3    H255945   8.619   2.636   7.884
18690TIP3   OH255946   8.171   3.931   7.208
18690TIP3    H155947   8.098   3.963   7.263
18690TIP3    H255948   8.148   3.970   7.121
18691TIP3   OH255949   8.327   4.471   8.274
18691TIP3    H155950   8.411   4.471   8.325
18691TIP3    H255951   8.304   4.376   8.278
18692TIP3   OH255952   8.813   4.441   8.315
18692TIP3    H155953   8.904   4.412   8.328
18692TIP3    H255954   8.782   4.376   8.248
18693TIP3   OH255955   8.788   4.012   6.455
18693TIP3    H155956   8.734   3.938   6.492
18693TIP3    H255957   8.865   3.963   6.422
18694TIP3   OH255958   9.452   4.336   8.047
18694TIP3    H155959   9.435   4.270   8.117
18694TIP3    H255960   9.524   4.389   8.086
18695TIP3   OH255961   9.224   4.053   6.361
18695TIP3    H155962   9.271   3.984   6.411
18695TIP3    H255963   9.277   4.055   6.278
18696TIP3   OH255964   8.458   3.882   8.477
18696TIP3    H155965   8.476   3.788   8.490
18696TIP3    H255966   8.369   3.880   8.435
18697TIP3   OH255967   8.432   3.524   6.674
18697TIP3    H155968   8.483   3.486   6.749
18697TIP3    H255969   8.505   3.532   6.608
18698TIP3   OH255970   9.067   3.964   8.250
18698TIP3    H155971   9.019   3.972   8.166
18698TIP3    H255972   9.101   3.872   8.245
18699TIP3   OH255973   8.945   3.723   6.499
18699TIP3    H155974   8.934   3.716   6.596
18699TIP3    H255975   8.941   3.628   6.479
18700TIP3   OH255976   9.557   3.958   7.864
18700TIP3    H155977   9.619   4.011   7.810
18700TIP3    H255978   9.472   4.001   7.850
18701TIP3   OH255979   8.576   3.615   8.456
18701TIP3    H155980   8.624   3.531   8.462
18701TIP3    H255981   8.595   3.647   8.547
18702TIP3   OH255982   8.590   3.416   6.873
18702TIP3    H155983   8.629   3.423   6.961
18702TIP3    H255984   8.660   3.367   6.826
18703TIP3   OH255985   8.914   3.498   8.124
18703TIP3    H155986   8.837   3.558   8.126
18703TIP3    H255987   8.963   3.532   8.045
18704TIP3   OH255988   8.744   3.221   6.736
18704TIP3    H155989   8.720   3.228   6.642
18704TIP3    H255990   8.842   3.232   6.731
18705TIP3   OH255991   9.418   3.891   8.214
18705TIP3    H155992   9.513   3.889   8.197
18705TIP3    H255993   9.419   3.886   8.312
18706TIP3   OH255994   9.561   3.568   6.400
18706TIP3    H155995   9.561   3.516   6.318
18706TIP3    H255996   9.565   3.658   6.363
18707TIP3   OH255997   9.005   3.266   8.248
18707TIP3    H155998   9.032   3.202   8.179
18707TIP3    H255999   8.984   3.345   8.194
18708TIP3   OH256000   9.040   3.071   8.051
18708TIP3    H156001   9.070   3.109   7.965
18708TIP3    H256002   8.946   3.050   8.031
18709TIP3   OH256003   9.063   3.605   7.925
18709TIP3    H156004   9.144   3.601   7.872
18709TIP3    H256005   9.009   3.672   7.879
18710TIP3   OH256006   9.706   3.846   8.055
18710TIP3    H156007   9.638   3.886   7.996
18710TIP3    H256008   9.765   3.807   7.987
18711TIP3   OH256009   8.918   3.404   8.474
18711TIP3    H156010   8.832   3.361   8.489
18711TIP3    H256011   8.945   3.368   8.387
18712TIP3   OH256012   9.125   2.827   8.162
18712TIP3    H156013   9.112   2.907   8.109
18712TIP3    H256014   9.076   2.759   8.112
18713TIP3   OH256015   8.742   3.180   8.497
18713TIP3    H156016   8.790   3.117   8.442
18713TIP3    H256017   8.766   3.150   8.587
18714TIP3   OH256018   8.549   4.291   6.639
18714TIP3    H156019   8.645   4.287   6.618
18714TIP3    H256020   8.517   4.337   6.559
18715TIP3   OH256021   8.031   3.668   6.863
18715TIP3    H156022   8.123   3.698   6.842
18715TIP3    H256023   8.029   3.582   6.818
18716TIP3   OH256024   7.943   4.284   7.269
18716TIP3    H156025   7.876   4.221   7.234
18716TIP3    H256026   7.988   4.227   7.335
18717TIP3   OH256027   8.079   4.136   7.456
18717TIP3    H156028   8.069   4.062   7.517
18717TIP3    H256029   8.130   4.198   7.512
18718TIP3   OH256030   9.806   4.531   7.256
18718TIP3    H156031   9.837   4.573   7.338
18718TIP3    H256032   9.863   4.573   7.190
18719TIP3   OH256033   9.831   4.557   7.538
18719TIP3    H156034   9.796   4.468   7.518
18719TIP3    H256035   9.902   4.532   7.601
18720TIP3   OH256036   9.782   3.661   6.940
18720TIP3    H156037   9.737   3.582   6.977
18720TIP3    H256038   9.867   3.658   6.988
18721TIP3   OH256039   9.882   4.001   7.363
18721TIP3    H156040   9.930   3.940   7.304
18721TIP3    H256041   9.879   4.083   7.308
18722TIP3   OH256042   9.720   4.299   7.547
18722TIP3    H156043   9.649   4.330   7.604
18722TIP3    H256044   9.671   4.251   7.477
18723TIP3   OH256045   9.751   3.524   6.603
18723TIP3    H156046   9.693   3.530   6.524
18723TIP3    H256047   9.777   3.616   6.614
18724TIP3   OH256048   9.606   3.196   6.551
18724TIP3    H156049   9.633   3.234   6.466
18724TIP3    H256050   9.594   3.102   6.528
18725TIP3   OH256051   9.636   3.467   7.076
18725TIP3    H156052   9.649   3.371   7.062
18725TIP3    H256053   9.625   3.475   7.173
18726TIP3   OH256054   8.267   3.543   7.823
18726TIP3    H156055   8.269   3.514   7.730
18726TIP3    H256056   8.364   3.544   7.843
18727TIP3   OH256057   9.577   2.926   6.520
18727TIP3    H156058   9.657   2.896   6.568
18727TIP3    H256059   9.508   2.865   6.549
18728TIP3   OH256060   9.643   3.194   6.975
18728TIP3    H156061   9.680   3.104   6.989
18728TIP3    H256062   9.697   3.223   6.898
18729TIP3   OH256063   9.807   3.353   7.452
18729TIP3    H156064   9.896   3.371   7.418
18729TIP3    H256065   9.812   3.399   7.539
18730TIP3   OH256066   9.831   3.492   7.683
18730TIP3    H156067   9.746   3.524   7.723
18730TIP3    H256068   9.866   3.570   7.636
18731TIP3   OH256069   8.469   3.217   8.483
18731TIP3    H156070   8.567   3.228   8.493
18731TIP3    H256071   8.455   3.142   8.545
18732TIP3   OH256072   9.726   2.940   7.031
18732TIP3    H156073   9.771   2.918   7.114
18732TIP3    H256074   9.675   2.859   7.014
18733TIP3   OH256075   8.445   2.922   7.834
18733TIP3    H156076   8.507   2.847   7.844
18733TIP3    H256077   8.507   2.996   7.827
18734TIP3   OH256078   8.248   3.195   7.903
18734TIP3    H156079   8.300   3.190   7.821
18734TIP3    H256080   8.279   3.278   7.941
18735TIP3   OH256081   9.828   2.858   6.635
18735TIP3    H156082   9.874   2.775   6.612
18735TIP3    H256083   9.885   2.923   6.588
18736TIP3   OH256084   8.229   2.697   7.406
18736TIP3    H156085   8.135   2.701   7.433
18736TIP3    H256086   8.229   2.756   7.328
18737TIP3   OH256087   9.406   4.384   6.915
18737TIP3    H156088   9.447   4.377   6.826
18737TIP3    H256089   9.447   4.465   6.950
18738TIP3   OH256090   8.434   2.779   8.222
18738TIP3    H156091   8.385   2.772   8.306
18738TIP3    H256092   8.365   2.817   8.164
18739TIP3   OH256093   8.495   4.203   8.299
18739TIP3    H156094   8.402   4.178   8.280
18739TIP3    H256095   8.500   4.184   8.394
18740TIP3   OH256096   8.669   4.237   7.848
18740TIP3    H156097   8.616   4.310   7.810
18740TIP3    H256098   8.751   4.251   7.798
18741TIP3   OH256099   8.349   4.495   7.869
18741TIP3    H156100   8.259   4.527   7.845
18741TIP3    H256101   8.358   4.533   7.957
18742TIP3   OH256102   8.586   4.477   7.728
18742TIP3    H156103   8.499   4.488   7.774
18742TIP3    H256104   8.563   4.508   7.638
18743TIP3   OH256105   9.012   4.490   7.533
18743TIP3    H156106   8.947   4.502   7.461
18743TIP3    H256107   9.028   4.582   7.557
18744TIP3   OH256108   9.488   4.632   7.491
18744TIP3    H156109   9.471   4.717   7.445
18744TIP3    H256110   9.507   4.573   7.414
18745TIP3   OH256111   8.258   4.289   7.614
18745TIP3    H156112   8.284   4.262   7.704
18745TIP3    H256113   8.330   4.245   7.563
18746TIP3   OH256114   8.451   4.160   7.471
18746TIP3    H156115   8.467   4.074   7.518
18746TIP3    H256116   8.542   4.195   7.464
18747TIP3   OH256117   8.718   4.255   7.470
18747TIP3    H156118   8.747   4.163   7.455
18747TIP3    H256119   8.758   4.271   7.557
18748TIP3   OH256120   9.293   2.910   7.559
18748TIP3    H156121   9.244   2.843   7.612
18748TIP3    H256122   9.364   2.856   7.518
18749TIP3   OH256123   9.797   2.802   7.489
18749TIP3    H156124   9.847   2.851   7.420
18749TIP3    H256125   9.706   2.819   7.463
18750TIP3   OH256126   9.901   2.893   7.251
18750TIP3    H156127   9.959   2.851   7.183
18750TIP3    H256128   9.922   2.988   7.234
18751TIP3   OH256129   8.541   2.619   7.577
18751TIP3    H156130   8.449   2.585   7.579
18751TIP3    H256131   8.591   2.535   7.573
18752TIP3   OH256132   8.321   2.490   7.223
18752TIP3    H156133   8.358   2.548   7.155
18752TIP3    H256134   8.297   2.554   7.293
18753TIP3   OH256135   8.985   2.653   7.459
18753TIP3    H156136   9.041   2.705   7.399
18753TIP3    H256137   9.017   2.684   7.545
18754TIP3   OH256138   9.519   2.776   7.446
18754TIP3    H156139   9.523   2.782   7.349
18754TIP3    H256140   9.557   2.688   7.461
18755TIP3   OH256141   9.551   2.725   7.007
18755TIP3    H156142   9.464   2.768   7.020
18755TIP3    H256143   9.535   2.637   7.048
18756TIP3   OH256144   8.045   4.058   7.008
18756TIP3    H156145   7.961   4.026   6.970
18756TIP3    H256146   8.035   4.153   6.989
18757TIP3   OH256147   8.445   2.653   6.990
18757TIP3    H156148   8.492   2.588   6.934
18757TIP3    H256149   8.520   2.706   7.024
18758TIP3   OH256150   8.958   2.824   7.088
18758TIP3    H156151   9.019   2.778   7.148
18758TIP3    H256152   8.979   2.917   7.112
18759TIP3   OH256153   8.815   4.255   6.581
18759TIP3    H156154   8.905   4.274   6.548
18759TIP3    H256155   8.794   4.177   6.525
18760TIP3   OH256156   9.531   4.353   6.667
18760TIP3    H156157   9.555   4.279   6.610
18760TIP3    H256158   9.486   4.410   6.601
18761TIP3   OH256159   8.126   4.082   6.651
18761TIP3    H156160   8.129   4.108   6.743
18761TIP3    H256161   8.215   4.042   6.637
18762TIP3   OH256162   9.746   4.508   7.876
18762TIP3    H156163   9.662   4.493   7.829
18762TIP3    H256164   9.749   4.606   7.875
18763TIP3   OH256165   9.966   3.398   6.932
18763TIP3    H156166   9.914   3.464   6.885
18763TIP3    H256167   9.954   3.322   6.872
18764TIP3   OH256168  10.042   3.673   7.059
18764TIP3    H156169  10.097   3.595   7.077
18764TIP3    H256170  10.070   3.686   6.966
18765TIP3   OH256171   9.858   3.928   6.659
18765TIP3    H156172   9.841   3.910   6.564
18765TIP3    H256173   9.921   4.002   6.652
18766TIP3   OH256174  10.083   4.013   7.561
18766TIP3    H156175  10.013   4.001   7.494
18766TIP3    H256176  10.130   3.926   7.558
18767TIP3   OH256177   9.945   4.232   7.206
18767TIP3    H156178  10.040   4.237   7.189
18767TIP3    H256179   9.928   4.317   7.248
18768TIP3   OH256180  10.081   4.457   6.745
18768TIP3    H156181  10.136   4.447   6.825
18768TIP3    H256182  10.038   4.369   6.738
18769TIP3   OH256183  10.232   4.241   7.569
18769TIP3    H156184  10.264   4.221   7.658
18769TIP3    H256185  10.162   4.173   7.561
18770TIP3   OH256186  10.004   3.132   7.170
18770TIP3    H156187  10.095   3.164   7.178
18770TIP3    H256188   9.984   3.151   7.077
18771TIP3   OH256189   9.957   3.612   6.398
18771TIP3    H156190  10.039   3.583   6.442
18771TIP3    H256191   9.899   3.538   6.424
18772TIP3   OH256192  10.122   4.427   7.348
18772TIP3    H156193  10.168   4.349   7.384
18772TIP3    H256194  10.153   4.497   7.407
18773TIP3   OH256195   9.973   4.198   6.706
18773TIP3    H156196   9.883   4.227   6.724
18773TIP3    H256197   9.976   4.222   6.611
18774TIP3   OH256198  10.096   4.709   7.751
18774TIP3    H156199  10.178   4.689   7.796
18774TIP3    H256200  10.059   4.618   7.740
18775TIP3   OH256201   9.729   4.536   6.758
18775TIP3    H156202   9.673   4.469   6.715
18775TIP3    H256203   9.779   4.481   6.823
18776TIP3   OH256204   9.863   4.394   6.951
18776TIP3    H156205   9.871   4.316   7.007
18776TIP3    H256206   9.923   4.456   6.998
18777TIP3   OH256207  10.076   3.798   7.304
18777TIP3    H156208  10.061   3.764   7.213
18777TIP3    H256209  10.167   3.832   7.297
18778TIP3   OH256210  10.057   3.458   7.365
18778TIP3    H156211  10.042   3.471   7.271
18778TIP3    H256212  10.048   3.547   7.403
18779TIP3   OH256213   9.990   3.012   6.878
18779TIP3    H156214   9.905   3.000   6.833
18779TIP3    H256215  10.040   3.064   6.810
18780TIP3   OH256216  10.137   4.748   7.357
18780TIP3    H156217  10.052   4.790   7.330
18780TIP3    H256218  10.132   4.759   7.452
18781TIP3   OH256219  10.391   4.744   7.233
18781TIP3    H156220  10.299   4.744   7.264
18781TIP3    H256221  10.379   4.768   7.139
18782TIP3   OH256222  10.054   4.540   7.097
18782TIP3    H156223  10.082   4.520   7.189
18782TIP3    H256224  10.133   4.506   7.049
18783TIP3   OH256225  10.263   4.428   6.950
18783TIP3    H156226  10.292   4.335   6.942
18783TIP3    H256227  10.350   4.473   6.955
18784TIP3   OH256228   9.836   4.318   6.504
18784TIP3    H156229   9.761   4.274   6.459
18784TIP3    H256230   9.823   4.408   6.470
18785TIP3   OH256231   9.949   4.363   6.143
18785TIP3    H156232   9.911   4.378   6.231
18785TIP3    H256233   9.991   4.277   6.154
18786TIP3   OH256234   1.681   4.416   8.839
18786TIP3    H156235   1.654   4.507   8.813
18786TIP3    H256236   1.609   4.365   8.797
18787TIP3   OH256237   1.690   4.416   9.168
18787TIP3    H156238   1.658   4.384   9.254
18787TIP3    H256239   1.659   4.348   9.106
18788TIP3   OH256240   1.928   4.717   8.895
18788TIP3    H156241   1.913   4.646   8.958
18788TIP3    H256242   1.960   4.790   8.951
18789TIP3   OH256243   1.576   5.184   8.909
18789TIP3    H156244   1.625   5.110   8.867
18789TIP3    H256245   1.552   5.148   8.995
18790TIP3   OH256246   1.511   4.621   9.198
18790TIP3    H156247   1.577   4.559   9.163
18790TIP3    H256248   1.552   4.652   9.279
18791TIP3   OH256249   2.486   3.941   9.250
18791TIP3    H156250   2.505   4.017   9.306
18791TIP3    H256251   2.525   3.969   9.165
18792TIP3   OH256252   1.929   3.887   8.888
18792TIP3    H156253   2.003   3.876   8.953
18792TIP3    H256254   1.977   3.928   8.814
18793TIP3   OH256255   1.579   4.636   8.705
18793TIP3    H156256   1.535   4.615   8.622
18793TIP3    H256257   1.536   4.722   8.727
18794TIP3   OH256258   2.142   3.896   9.058
18794TIP3    H156259   2.149   3.864   9.150
18794TIP3    H256260   2.198   3.976   9.065
18795TIP3   OH256261   0.614   4.469   8.782
18795TIP3    H156262   0.533   4.492   8.735
18795TIP3    H256263   0.605   4.521   8.864
18796TIP3   OH256264   2.003   4.957   9.067
18796TIP3    H156265   1.917   4.952   9.115
18796TIP3    H256266   1.993   5.040   9.017
18797TIP3   OH256267   1.711   5.007   8.754
18797TIP3    H156268   1.755   4.924   8.724
18797TIP3    H256269   1.765   5.073   8.704
18798TIP3   OH256270   1.842   4.793   8.643
18798TIP3    H156271   1.802   4.713   8.605
18798TIP3    H256272   1.878   4.757   8.728
18799TIP3   OH256273   2.221   4.882   9.398
18799TIP3    H156274   2.208   4.808   9.336
18799TIP3    H256275   2.201   4.959   9.339
18800TIP3   OH256276   1.518   4.269   8.668
18800TIP3    H156277   1.435   4.318   8.648
18800TIP3    H256278   1.560   4.266   8.580
18801TIP3   OH256279   1.476   4.051   8.387
18801TIP3    H156280   1.546   4.102   8.432
18801TIP3    H256281   1.531   3.987   8.337
18802TIP3   OH256282   2.434   4.518   9.252
18802TIP3    H156283   2.342   4.547   9.259
18802TIP3    H256284   2.454   4.537   9.158
18803TIP3   OH256285   1.862   4.350   8.641
18803TIP3    H156286   1.808   4.375   8.719
18803TIP3    H256287   1.946   4.322   8.685
18804TIP3   OH256288   1.091   4.331   9.046
18804TIP3    H156289   1.042   4.282   8.975
18804TIP3    H256290   1.160   4.267   9.067
18805TIP3   OH256291   1.273   4.810   9.116
18805TIP3    H156292   1.226   4.741   9.065
18805TIP3    H256293   1.331   4.758   9.175
18806TIP3   OH256294   1.777   4.954   9.219
18806TIP3    H156295   1.736   5.042   9.226
18806TIP3    H256296   1.710   4.895   9.256
18807TIP3   OH256297   1.706   4.206   8.465
18807TIP3    H156298   1.764   4.266   8.517
18807TIP3    H256299   1.730   4.231   8.373
18808TIP3   OH256300   1.452   4.882   8.734
18808TIP3    H156301   1.518   4.948   8.762
18808TIP3    H256302   1.380   4.937   8.700
18809TIP3   OH256303   2.221   3.450   8.514
18809TIP3    H156304   2.139   3.470   8.564
18809TIP3    H256305   2.233   3.532   8.462
18810TIP3   OH256306   0.966   4.184   8.850
18810TIP3    H156307   0.900   4.225   8.790
18810TIP3    H256308   0.911   4.124   8.902
18811TIP3   OH256309   2.018   4.815   8.061
18811TIP3    H156310   2.026   4.912   8.048
18811TIP3    H256311   2.111   4.787   8.049
18812TIP3   OH256312   2.456   5.244   9.437
18812TIP3    H156313   2.463   5.146   9.437
18812TIP3    H256314   2.370   5.255   9.480
18813TIP3   OH256315   1.332   5.136   8.544
18813TIP3    H156316   1.282   5.111   8.463
18813TIP3    H256317   1.296   5.224   8.565
18814TIP3   OH256318   0.801   4.968   8.885
18814TIP3    H156319   0.811   4.948   8.980
18814TIP3    H256320   0.713   4.936   8.858
18815TIP3   OH256321   1.536   5.037   8.181
18815TIP3    H156322   1.593   4.965   8.146
18815TIP3    H256323   1.568   5.043   8.274
18816TIP3   OH256324   1.581   5.082   8.452
18816TIP3    H156325   1.492   5.094   8.492
18816TIP3    H256326   1.626   5.034   8.523
18817TIP3   OH256327   1.779   4.253   8.208
18817TIP3    H156328   1.748   4.227   8.119
18817TIP3    H256329   1.860   4.302   8.185
18818TIP3   OH256330   1.493   3.629   8.511
18818TIP3    H156331   1.460   3.626   8.602
18818TIP3    H256332   1.454   3.547   8.476
18819TIP3   OH256333   1.127   3.985   9.058
18819TIP3    H156334   1.073   3.906   9.074
18819TIP3    H256335   1.162   3.960   8.970
18820TIP3   OH256336   1.653   4.068   8.796
18820TIP3    H156337   1.601   4.140   8.755
18820TIP3    H256338   1.710   4.040   8.722
18821TIP3   OH256339   1.821   4.110   9.025
18821TIP3    H156340   1.753   4.125   8.958
18821TIP3    H256341   1.850   4.021   8.998
18822TIP3   OH256342   1.148   3.602   8.478
18822TIP3    H156343   1.140   3.596   8.575
18822TIP3    H256344   1.068   3.653   8.456
18823TIP3   OH256345   0.687   3.643   8.879
18823TIP3    H156346   0.717   3.672   8.791
18823TIP3    H256347   0.622   3.710   8.899
18824TIP3   OH256348   1.202   3.859   8.823
18824TIP3    H156349   1.291   3.873   8.788
18824TIP3    H256350   1.144   3.877   8.745
18825TIP3   OH256351   1.036   3.886   8.610
18825TIP3    H156352   0.962   3.843   8.563
18825TIP3    H256353   1.086   3.923   8.535
18826TIP3   OH256354   2.129   5.631   9.522
18826TIP3    H156355   2.136   5.624   9.426
18826TIP3    H256356   2.221   5.655   9.545
18827TIP3   OH256357   1.288   4.420   8.621
18827TIP3    H156358   1.215   4.355   8.608
18827TIP3    H256359   1.270   4.451   8.712
18828TIP3   OH256360   2.177   4.649   9.252
18828TIP3    H156361   2.216   4.694   9.173
18828TIP3    H256362   2.100   4.604   9.212
18829TIP3   OH256363   1.745   3.732   8.481
18829TIP3    H156364   1.648   3.715   8.487
18829TIP3    H256365   1.754   3.827   8.501
18830TIP3   OH256366   1.815   3.979   8.584
18830TIP3    H156367   1.912   3.985   8.597
18830TIP3    H256368   1.796   4.058   8.528
18831TIP3   OH256369   1.432   4.570   8.440
18831TIP3    H156370   1.386   4.657   8.445
18831TIP3    H256371   1.377   4.515   8.499
18832TIP3   OH256372   2.257   4.069   8.419
18832TIP3    H156373   2.195   4.023   8.358
18832TIP3    H256374   2.254   4.158   8.377
18833TIP3   OH256375   2.468   4.972   9.463
18833TIP3    H156376   2.378   4.939   9.444
18833TIP3    H256377   2.516   4.920   9.395
18834TIP3   OH256378   1.960   4.888   8.327
18834TIP3    H156379   1.931   4.818   8.388
18834TIP3    H256380   1.969   4.841   8.242
18835TIP3   OH256381   1.948   4.514   9.173
18835TIP3    H156382   1.854   4.486   9.166
18835TIP3    H256383   1.989   4.437   9.128
18836TIP3   OH256384   1.075   4.737   8.902
18836TIP3    H156385   1.093   4.824   8.861
18836TIP3    H256386   0.979   4.737   8.902
18837TIP3   OH256387   0.643   4.055   8.625
18837TIP3    H156388   0.711   4.126   8.629
18837TIP3    H256389   0.579   4.095   8.689
18838TIP3   OH256390   1.223   4.507   8.871
18838TIP3    H156391   1.183   4.596   8.879
18838TIP3    H256392   1.175   4.458   8.940
18839TIP3   OH256393   1.041   4.990   8.775
18839TIP3    H156394   0.946   4.992   8.801
18839TIP3    H256395   1.055   5.085   8.758
18840TIP3   OH256396   1.712   4.616   8.227
18840TIP3    H156397   1.763   4.591   8.308
18840TIP3    H256398   1.623   4.589   8.254
18841TIP3   OH256399   1.983   5.246   9.386
18841TIP3    H156400   1.890   5.223   9.370
18841TIP3    H256401   1.989   5.327   9.332
18842TIP3   OH256402   2.051   5.092   8.048
18842TIP3    H156403   2.090   5.165   7.997
18842TIP3    H256404   1.971   5.137   8.082
18843TIP3   OH256405   1.871   4.550   8.445
18843TIP3    H156406   1.862   4.483   8.516
18843TIP3    H256407   1.968   4.549   8.432
18844TIP3   OH256408   1.085   4.595   8.226
18844TIP3    H156409   1.092   4.502   8.198
18844TIP3    H256410   1.062   4.586   8.321
18845TIP3   OH256411   1.028   4.603   8.498
18845TIP3    H156412   1.095   4.579   8.563
18845TIP3    H256413   1.029   4.701   8.504
18846TIP3   OH256414   0.781   4.287   8.678
18846TIP3    H156415   0.717   4.337   8.733
18846TIP3    H256416   0.796   4.355   8.610
18847TIP3   OH256417   1.791   3.683   8.755
18847TIP3    H156418   1.776   3.707   8.661
18847TIP3    H256419   1.831   3.766   8.791
18848TIP3   OH256420   1.290   4.802   8.451
18848TIP3    H156421   1.203   4.828   8.485
18848TIP3    H256422   1.304   4.873   8.386
18849TIP3   OH256423   1.492   3.858   8.862
18849TIP3    H156424   1.553   3.926   8.828
18849TIP3    H256425   1.474   3.894   8.950
18850TIP3   OH256426   1.636   3.581   8.954
18850TIP3    H156427   1.640   3.650   9.021
18850TIP3    H256428   1.689   3.622   8.882
18851TIP3   OH256429   1.029   4.874   8.509
18851TIP3    H156430   0.999   4.935   8.437
18851TIP3    H256431   0.995   4.922   8.586
18852TIP3   OH256432   1.136   3.585   8.754
18852TIP3    H156433   1.131   3.674   8.793
18852TIP3    H256434   1.232   3.568   8.765
18853TIP3   OH256435   2.034   4.286   9.043
18853TIP3    H156436   1.958   4.223   9.051
18853TIP3    H256437   2.106   4.235   9.086
18854TIP3   OH256438   0.760   4.511   8.502
18854TIP3    H156439   0.825   4.583   8.510
18854TIP3    H256440   0.804   4.457   8.433
18855TIP3   OH256441   0.693   3.785   8.644
18855TIP3    H156442   0.689   3.882   8.642
18855TIP3    H256443   0.625   3.760   8.581
18856TIP3   OH256444   2.006   5.231   8.991
18856TIP3    H156445   1.963   5.278   8.916
18856TIP3    H256446   2.100   5.251   8.970
18857TIP3   OH256447   0.638   4.704   8.936
18857TIP3    H156448   0.582   4.763   8.880
18857TIP3    H256449   0.710   4.688   8.874
18858TIP3   OH256450   1.242   4.802   8.141
18858TIP3    H156451   1.184   4.733   8.180
18858TIP3    H256452   1.315   4.747   8.108
18859TIP3   OH256453   1.680   4.841   8.052
18859TIP3    H156454   1.721   4.775   8.110
18859TIP3    H256455   1.736   4.840   7.973
18860TIP3   OH256456   0.890   4.318   8.360
18860TIP3    H156457   0.945   4.285   8.433
18860TIP3    H256458   0.957   4.322   8.289
18861TIP3   OH256459   1.401   4.517   8.169
18861TIP3    H156460   1.397   4.530   8.265
18861TIP3    H256461   1.395   4.419   8.164
18862TIP3   OH256462   1.098   4.221   8.586
18862TIP3    H156463   1.064   4.183   8.668
18862TIP3    H256464   1.130   4.142   8.538
18863TIP3   OH256465   1.196   4.013   8.426
18863TIP3    H156466   1.167   4.018   8.332
18863TIP3    H256467   1.293   4.021   8.416
18864TIP3   OH256468   2.017   4.346   8.087
18864TIP3    H156469   1.996   4.299   8.004
18864TIP3    H256470   1.985   4.436   8.063
18865TIP3   OH256471   1.005   5.051   8.301
18865TIP3    H156472   1.101   5.067   8.290
18865TIP3    H256473   0.970   5.114   8.236
18866TIP3   OH256474   0.493   4.476   8.489
18866TIP3    H156475   0.588   4.486   8.511
18866TIP3    H256476   0.487   4.379   8.476
18867TIP3   OH256477   2.258   5.323   8.944
18867TIP3    H156478   2.287   5.360   9.029
18867TIP3    H256479   2.319   5.365   8.882
18868TIP3   OH256480   2.287   5.349   9.224
18868TIP3    H156481   2.248   5.259   9.218
18868TIP3    H256482   2.369   5.328   9.272
18869TIP3   OH256483   2.151   4.533   8.420
18869TIP3    H156484   2.220   4.596   8.392
18869TIP3    H256485   2.194   4.493   8.499
18870TIP3   OH256486   2.278   4.400   8.624
18870TIP3    H156487   2.213   4.357   8.684
18870TIP3    H256488   2.344   4.437   8.686
18871TIP3   OH256489   2.327   4.784   9.063
18871TIP3    H156490   2.384   4.724   9.011
18871TIP3    H256491   2.322   4.862   9.003
18872TIP3   OH256492   2.167   5.099   9.246
18872TIP3    H156493   2.096   5.144   9.296
18872TIP3    H256494   2.117   5.054   9.175
18873TIP3   OH256495   2.217   4.308   8.271
18873TIP3    H156496   2.145   4.310   8.204
18873TIP3    H256497   2.190   4.384   8.326
18874TIP3   OH256498   2.086   3.982   8.227
18874TIP3    H156499   2.047   4.019   8.147
18874TIP3    H256500   2.063   3.887   8.217
18875TIP3   OH256501   2.092   4.256   8.772
18875TIP3    H156502   2.101   4.160   8.766
18875TIP3    H256503   2.077   4.270   8.868
18876TIP3   OH256504   2.031   3.716   8.213
18876TIP3    H156505   2.107   3.684   8.265
18876TIP3    H256506   1.959   3.655   8.236
18877TIP3   OH256507   2.089   3.974   8.665
18877TIP3    H156508   2.129   3.885   8.681
18877TIP3    H256509   2.147   4.006   8.595
18878TIP3   OH256510   2.251   4.156   9.146
18878TIP3    H156511   2.341   4.181   9.115
18878TIP3    H256512   2.263   4.162   9.242
18879TIP3   OH256513   2.197   3.724   8.703
18879TIP3    H156514   2.248   3.706   8.785
18879TIP3    H256515   2.138   3.646   8.700
18880TIP3   OH256516   2.279   3.657   8.335
18880TIP3    H156517   2.319   3.585   8.282
18880TIP3    H256518   2.347   3.727   8.328
18881TIP3   OH256519   1.846   5.188   8.604
18881TIP3    H156520   1.893   5.171   8.520
18881TIP3    H256521   1.900   5.258   8.643
18882TIP3   OH256522   1.480   5.296   9.183
18882TIP3    H156523   1.400   5.291   9.127
18882TIP3    H256524   1.464   5.381   9.228
18883TIP3   OH256525   1.726   5.226   9.275
18883TIP3    H156526   1.634   5.246   9.244
18883TIP3    H256527   1.776   5.292   9.223
18884TIP3   OH256528   1.932   5.423   9.180
18884TIP3    H156529   1.916   5.507   9.132
18884TIP3    H256530   1.960   5.364   9.107
18885TIP3   OH256531   0.897   4.966   9.136
18885TIP3    H156532   0.931   4.884   9.176
18885TIP3    H256533   0.982   5.011   9.119
18886TIP3   OH256534   1.165   5.058   9.146
18886TIP3    H156535   1.209   4.972   9.127
18886TIP3    H256536   1.181   5.068   9.241
18887TIP3   OH256537   2.273   3.608   9.158
18887TIP3    H156538   2.313   3.645   9.076
18887TIP3    H256539   2.179   3.613   9.136
18888TIP3   OH256540   2.366   3.679   8.915
18888TIP3    H156541   2.440   3.628   8.874
18888TIP3    H256542   2.399   3.771   8.902
18889TIP3   OH256543   2.001   3.583   9.095
18889TIP3    H156544   1.989   3.580   8.999
18889TIP3    H256545   2.015   3.489   9.116
18890TIP3   OH256546   2.016   3.510   8.695
18890TIP3    H156547   1.928   3.553   8.700
18890TIP3    H256548   1.998   3.425   8.740
18891TIP3   OH256549   0.904   3.456   8.652
18891TIP3    H156550   0.952   3.381   8.613
18891TIP3    H256551   0.972   3.499   8.707
18892TIP3   OH256552   1.415   3.611   8.778
18892TIP3    H156553   1.475   3.563   8.837
18892TIP3    H256554   1.436   3.703   8.804
18893TIP3   OH256555   1.278   5.037   8.278
18893TIP3    H156556   1.365   5.059   8.239
18893TIP3    H256557   1.252   4.963   8.219
18894TIP3   OH256558   1.989   5.155   8.370
18894TIP3    H156559   1.981   5.057   8.356
18894TIP3    H256560   1.944   5.188   8.290
18895TIP3   OH256561   0.596   4.885   8.378
18895TIP3    H156562   0.637   4.953   8.436
18895TIP3    H256563   0.676   4.841   8.344
18896TIP3   OH256564   3.482   4.672   8.324
18896TIP3    H156565   3.454   4.763   8.303
18896TIP3    H256566   3.406   4.622   8.290
18897TIP3   OH256567   3.479   4.672   8.705
18897TIP3    H156568   3.512   4.643   8.792
18897TIP3    H256569   3.439   4.591   8.671
18898TIP3   OH256570   2.779   4.569   9.068
18898TIP3    H156571   2.811   4.503   9.132
18898TIP3    H256572   2.857   4.625   9.059
18899TIP3   OH256573   3.724   4.974   8.386
18899TIP3    H156574   3.710   4.904   8.451
18899TIP3    H256575   3.752   5.049   8.441
18900TIP3   OH256576   2.752   4.976   8.797
18900TIP3    H156577   2.743   4.879   8.797
18900TIP3    H256578   2.849   4.985   8.788
18901TIP3   OH256579   2.458   4.182   8.581
18901TIP3    H156580   2.407   4.264   8.593
18901TIP3    H256581   2.389   4.125   8.542
18902TIP3   OH256582   2.517   4.467   8.752
18902TIP3    H156583   2.566   4.390   8.789
18902TIP3    H256584   2.576   4.495   8.680
18903TIP3   OH256585   3.372   5.435   8.402
18903TIP3    H156586   3.419   5.364   8.353
18903TIP3    H256587   3.367   5.398   8.491
18904TIP3   OH256588   3.279   4.897   8.753
18904TIP3    H156589   3.318   4.821   8.707
18904TIP3    H256590   3.363   4.942   8.777
18905TIP3   OH256591   4.291   4.217   8.751
18905TIP3    H156592   4.320   4.300   8.795
18905TIP3    H256593   4.314   4.237   8.658
18906TIP3   OH256594   3.691   4.399   8.786
18906TIP3    H156595   3.734   4.314   8.805
18906TIP3    H256596   3.661   4.383   8.694
18907TIP3   OH256597   3.028   4.059   8.752
18907TIP3    H156598   3.009   4.131   8.688
18907TIP3    H256599   2.982   3.984   8.708
18908TIP3   OH256600   3.723   4.150   8.374
18908TIP3    H156601   3.796   4.134   8.438
18908TIP3    H256602   3.774   4.184   8.298
18909TIP3   OH256603   2.664   4.261   8.859
18909TIP3    H156604   2.747   4.240   8.905
18909TIP3    H256605   2.674   4.205   8.779
18910TIP3   OH256606   3.104   4.458   8.651
18910TIP3    H156607   3.198   4.433   8.664
18910TIP3    H256608   3.065   4.374   8.619
18911TIP3   OH256609   4.365   4.424   8.921
18911TIP3    H156610   4.281   4.472   8.904
18911TIP3    H256611   4.381   4.448   9.013
18912TIP3   OH256612   3.026   4.040   9.187
18912TIP3    H156613   2.968   4.080   9.120
18912TIP3    H256614   2.968   4.033   9.263
18913TIP3   OH256615   3.374   4.893   8.193
18913TIP3    H156616   3.331   4.871   8.110
18913TIP3    H256617   3.329   4.977   8.216
18914TIP3   OH256618   3.133   4.817   8.980
18914TIP3    H156619   3.070   4.883   9.017
18914TIP3    H256620   3.176   4.868   8.909
18915TIP3   OH256621   3.934   4.152   8.545
18915TIP3    H156622   3.927   4.101   8.627
18915TIP3    H256623   3.989   4.228   8.572
18916TIP3   OH256624   2.898   4.156   8.972
18916TIP3    H156625   2.960   4.230   8.991
18916TIP3    H256626   2.946   4.115   8.895
18917TIP3   OH256627   2.960   5.011   9.079
18917TIP3    H156628   2.934   5.096   9.039
18917TIP3    H256629   2.881   4.995   9.135
18918TIP3   OH256630   2.356   4.701   8.314
18918TIP3    H156631   2.314   4.726   8.230
18918TIP3    H256632   2.385   4.787   8.350
18919TIP3   OH256633   3.795   5.216   8.554
18919TIP3    H156634   3.705   5.208   8.593
18919TIP3    H256635   3.787   5.302   8.509
18920TIP3   OH256636   4.086   4.116   8.917
18920TIP3    H156637   3.998   4.146   8.887
18920TIP3    H256638   4.145   4.148   8.846
18921TIP3   OH256639   3.385   3.758   8.899
18921TIP3    H156640   3.370   3.663   8.917
18921TIP3    H256641   3.307   3.796   8.945
18922TIP3   OH256642   3.496   5.263   8.228
18922TIP3    H156643   3.547   5.181   8.207
18922TIP3    H256644   3.556   5.329   8.186
18923TIP3   OH256645   3.639   5.048   8.133
18923TIP3    H156646   3.601   4.968   8.095
18923TIP3    H256647   3.675   5.014   8.218
18924TIP3   OH256648   4.020   5.130   8.898
18924TIP3    H156649   4.010   5.053   8.838
18924TIP3    H256650   4.004   5.205   8.836
18925TIP3   OH256651   3.312   4.524   8.154
18925TIP3    H156652   3.232   4.574   8.131
18925TIP3    H256653   3.359   4.520   8.069
18926TIP3   OH256654   3.271   4.308   7.872
18926TIP3    H156655   3.340   4.357   7.920
18926TIP3    H256656   3.326   4.244   7.824
18927TIP3   OH256657   4.216   4.766   8.742
18927TIP3    H156658   4.133   4.818   8.748
18927TIP3    H256659   4.245   4.790   8.651
18928TIP3   OH256660   3.659   4.607   8.126
18928TIP3    H156661   3.605   4.631   8.205
18928TIP3    H256662   3.743   4.579   8.170
18929TIP3   OH256663   3.895   4.645   9.039
18929TIP3    H156664   3.893   4.728   9.090
18929TIP3    H256665   3.809   4.651   8.992
18930TIP3   OH256666   2.892   4.604   8.543
18930TIP3    H156667   2.850   4.546   8.476
18930TIP3    H256668   2.969   4.550   8.572
18931TIP3   OH256669   3.020   5.014   8.692
18931TIP3    H156670   3.001   4.972   8.607
18931TIP3    H256671   3.111   4.981   8.710
18932TIP3   OH256672   3.028   4.575   8.897
18932TIP3    H156673   3.062   4.554   8.807
18932TIP3    H256674   3.072   4.660   8.917
18933TIP3   OH256675   3.553   5.213   8.674
18933TIP3    H156676   3.540   5.292   8.728
18933TIP3    H256677   3.540   5.139   8.738
18934TIP3   OH256678   3.165   5.134   9.219
18934TIP3    H156679   3.104   5.196   9.265
18934TIP3    H256680   3.100   5.079   9.170
18935TIP3   OH256681   3.500   4.464   7.953
18935TIP3    H156682   3.560   4.523   8.005
18935TIP3    H256683   3.526   4.488   7.860
18936TIP3   OH256684   2.924   4.689   9.319
18936TIP3    H156685   2.924   4.773   9.369
18936TIP3    H256686   2.831   4.661   9.331
18937TIP3   OH256687   3.243   5.144   8.228
18937TIP3    H156688   3.323   5.197   8.245
18937TIP3    H256689   3.182   5.208   8.189
18938TIP3   OH256690   2.961   5.300   9.308
18938TIP3    H156691   2.926   5.300   9.216
18938TIP3    H256692   2.882   5.274   9.360
18939TIP3   OH256693   4.017   3.705   8.001
18939TIP3    H156694   3.935   3.724   8.051
18939TIP3    H256695   4.028   3.788   7.950
18940TIP3   OH256696   2.757   4.447   8.350
18940TIP3    H156697   2.692   4.491   8.292
18940TIP3    H256698   2.719   4.359   8.359
18941TIP3   OH256699   3.814   5.072   7.549
18941TIP3    H156700   3.822   5.169   7.535
18941TIP3    H256701   3.906   5.043   7.534
18942TIP3   OH256702   2.549   4.820   9.253
18942TIP3    H156703   2.484   4.797   9.184
18942TIP3    H256704   2.586   4.732   9.275
18943TIP3   OH256705   2.393   5.018   8.897
18943TIP3    H156706   2.488   5.012   8.878
18943TIP3    H256707   2.388   5.102   8.944
18944TIP3   OH256708   4.258   5.473   8.943
18944TIP3    H156709   4.257   5.377   8.958
18944TIP3    H256710   4.175   5.499   8.989
18945TIP3   OH256711   3.365   5.260   9.078
18945TIP3    H156712   3.363   5.354   9.109
18945TIP3    H256713   3.293   5.221   9.132
18946TIP3   OH256714   3.124   5.390   8.030
18946TIP3    H156715   3.078   5.371   7.946
18946TIP3    H256716   3.092   5.479   8.052
18947TIP3   OH256717   2.562   5.239   8.413
18947TIP3    H156718   2.610   5.229   8.499
18947TIP3    H256719   2.506   5.159   8.415
18948TIP3   OH256720   3.327   5.291   7.670
18948TIP3    H156721   3.385   5.220   7.634
18948TIP3    H256722   3.360   5.299   7.762
18949TIP3   OH256723   3.376   5.339   7.940
18949TIP3    H156724   3.288   5.348   7.982
18949TIP3    H256725   3.427   5.298   8.012
18950TIP3   OH256726   4.150   4.606   9.218
18950TIP3    H156727   4.068   4.619   9.168
18950TIP3    H256728   4.164   4.510   9.208
18951TIP3   OH256729   2.742   5.013   9.244
18951TIP3    H156730   2.789   4.997   9.329
18951TIP3    H256731   2.674   4.943   9.246
18952TIP3   OH256732   3.143   3.837   9.022
18952TIP3    H156733   3.053   3.806   8.997
18952TIP3    H256734   3.120   3.921   9.064
18953TIP3   OH256735   3.695   3.957   9.217
18953TIP3    H156736   3.755   3.917   9.282
18953TIP3    H256737   3.605   3.931   9.248
18954TIP3   OH256738   3.914   4.380   9.134
18954TIP3    H156739   3.870   4.377   9.222
18954TIP3    H256740   3.892   4.470   9.103
18955TIP3   OH256741   3.577   4.513   7.697
18955TIP3    H156742   3.543   4.485   7.609
18955TIP3    H256743   3.659   4.559   7.672
18956TIP3   OH256744   3.289   3.886   7.998
18956TIP3    H156745   3.256   3.884   8.090
18956TIP3    H256746   3.251   3.802   7.965
18957TIP3   OH256747   3.075   4.352   9.046
18957TIP3    H156748   3.026   4.373   9.128
18957TIP3    H256749   3.059   4.433   8.993
18958TIP3   OH256750   2.959   4.238   8.560
18958TIP3    H156751   2.866   4.211   8.577
18958TIP3    H256752   2.973   4.198   8.472
18959TIP3   OH256753   3.450   4.325   8.288
18959TIP3    H156754   3.397   4.396   8.245
18959TIP3    H256755   3.504   4.294   8.213
18960TIP3   OH256756   3.628   4.613   9.366
18960TIP3    H156757   3.601   4.534   9.417
18960TIP3    H256758   3.722   4.621   9.390
18961TIP3   OH256759   3.606   4.353   8.527
18961TIP3    H156760   3.547   4.382   8.454
18961TIP3    H256761   3.641   4.271   8.485
18962TIP3   OH256762   2.892   4.388   9.255
18962TIP3    H156763   2.919   4.455   9.320
18962TIP3    H256764   2.839   4.328   9.308
18963TIP3   OH256765   2.945   3.860   7.965
18963TIP3    H156766   2.936   3.855   8.062
18963TIP3    H256767   2.865   3.909   7.941
18964TIP3   OH256768   2.486   3.906   8.835
18964TIP3    H156769   2.563   3.936   8.888
18964TIP3    H256770   2.526   3.871   8.754
18965TIP3   OH256771   2.460   3.884   8.355
18965TIP3    H156772   2.505   3.923   8.277
18965TIP3    H256773   2.399   3.957   8.377
18966TIP3   OH256774   3.616   4.601   8.948
18966TIP3    H156775   3.650   4.528   8.890
18966TIP3    H256776   3.589   4.548   9.026
18967TIP3   OH256777   3.287   4.063   8.622
18967TIP3    H156778   3.205   4.059   8.675
18967TIP3    H256779   3.356   4.058   8.690
18968TIP3   OH256780   2.721   4.116   8.631
18968TIP3    H156781   2.626   4.122   8.603
18968TIP3    H256782   2.745   4.025   8.606
18969TIP3   OH256783   2.990   4.114   8.318
18969TIP3    H156784   3.085   4.127   8.296
18969TIP3    H256785   2.944   4.136   8.234
18970TIP3   OH256786   3.779   4.136   8.825
18970TIP3    H156787   3.742   4.149   8.915
18970TIP3    H256788   3.714   4.075   8.786
18971TIP3   OH256789   2.830   4.148   8.097
18971TIP3    H156790   2.760   4.101   8.049
18971TIP3    H256791   2.883   4.182   8.022
18972TIP3   OH256792   3.948   5.825   9.042
18972TIP3    H156793   3.946   5.849   8.948
18972TIP3    H256794   4.027   5.874   9.073
18973TIP3   OH256795   2.892   4.936   9.471
18973TIP3    H156796   2.959   5.001   9.499
18973TIP3    H256797   2.838   4.927   9.552
18974TIP3   OH256798   3.371   4.389   8.718
18974TIP3    H156799   3.442   4.350   8.665
18974TIP3    H256800   3.383   4.346   8.804
18975TIP3   OH256801   2.893   3.876   8.598
18975TIP3    H156802   2.859   3.796   8.643
18975TIP3    H256803   2.944   3.838   8.525
18976TIP3   OH256804   3.345   4.279   9.019
18976TIP3    H156805   3.257   4.321   9.025
18976TIP3    H256806   3.404   4.344   9.061
18977TIP3   OH256807   3.082   4.677   8.103
18977TIP3    H156808   3.010   4.611   8.092
18977TIP3    H256809   3.065   4.710   8.194
18978TIP3   OH256810   3.984   4.912   8.733
18978TIP3    H156811   4.008   4.961   8.652
18978TIP3    H256812   3.898   4.871   8.708
18979TIP3   OH256813   3.541   3.988   7.967
18979TIP3    H156814   3.444   3.971   7.975
18979TIP3    H256815   3.550   4.083   7.989
18980TIP3   OH256816   3.480   4.992   9.102
18980TIP3    H156817   3.509   4.973   9.192
18980TIP3    H256818   3.446   5.083   9.109
18981TIP3   OH256819   3.610   4.236   8.070
18981TIP3    H156820   3.707   4.241   8.084
18981TIP3    H256821   3.592   4.315   8.015
18982TIP3   OH256822   2.775   4.698   8.780
18982TIP3    H156823   2.813   4.671   8.694
18982TIP3    H256824   2.816   4.635   8.841
18983TIP3   OH256825   3.228   4.826   7.924
18983TIP3    H156826   3.181   4.912   7.932
18983TIP3    H256827   3.174   4.770   7.984
18984TIP3   OH256828   2.668   4.601   9.381
18984TIP3    H156829   2.644   4.627   9.472
18984TIP3    H256830   2.591   4.545   9.355
18985TIP3   OH256831   3.378   4.731   9.405
18985TIP3    H156832   3.322   4.670   9.355
18985TIP3    H256833   3.467   4.702   9.378
18986TIP3   OH256834   3.643   5.253   8.998
18986TIP3    H156835   3.546   5.253   9.009
18986TIP3    H256836   3.670   5.306   9.076
18987TIP3   OH256837   4.054   4.325   7.905
18987TIP3    H156838   3.991   4.280   7.844
18987TIP3    H256839   4.050   4.414   7.863
18988TIP3   OH256840   4.270   5.183   8.987
18988TIP3    H156841   4.173   5.177   8.978
18988TIP3    H256842   4.297   5.154   8.896
18989TIP3   OH256843   3.756   5.145   7.815
18989TIP3    H156844   3.727   5.076   7.876
18989TIP3    H256845   3.764   5.097   7.730
18990TIP3   OH256846   3.749   4.774   8.652
18990TIP3    H156847   3.655   4.749   8.665
18990TIP3    H256848   3.784   4.695   8.607
18991TIP3   OH256849   2.876   5.002   8.406
18991TIP3    H156850   2.878   5.083   8.352
18991TIP3    H256851   2.781   4.986   8.412
18992TIP3   OH256852   2.439   4.307   8.107
18992TIP3    H156853   2.486   4.390   8.128
18992TIP3    H256854   2.362   4.313   8.168
18993TIP3   OH256855   3.015   4.768   8.349
18993TIP3    H156856   2.980   4.858   8.367
18993TIP3    H256857   2.978   4.718   8.424
18994TIP3   OH256858   3.145   5.345   8.874
18994TIP3    H156859   3.185   5.418   8.823
18994TIP3    H256860   3.223   5.311   8.921
18995TIP3   OH256861   2.796   5.241   8.257
18995TIP3    H156862   2.710   5.249   8.303
18995TIP3    H256863   2.828   5.334   8.260
18996TIP3   OH256864   3.534   4.981   8.832
18996TIP3    H156865   3.525   4.978   8.930
18996TIP3    H256866   3.614   4.928   8.819
18997TIP3   OH256867   3.508   4.874   7.715
18997TIP3    H156868   3.561   4.848   7.794
18997TIP3    H256869   3.420   4.845   7.744
18998TIP3   OH256870   3.782   5.514   8.884
18998TIP3    H156871   3.703   5.458   8.875
18998TIP3    H256872   3.768   5.579   8.811
18999TIP3   OH256873   3.849   5.349   7.534
18999TIP3    H156874   3.877   5.420   7.475
18999TIP3    H256875   3.769   5.392   7.572
19000TIP3   OH256876   3.668   4.807   7.931
19000TIP3    H156877   3.658   4.740   8.002
19000TIP3    H256878   3.765   4.805   7.919
19001TIP3   OH256879   2.581   5.210   9.036
19001TIP3    H156880   2.636   5.136   9.065
19001TIP3    H256881   2.616   5.283   9.088
19002TIP3   OH256882   2.874   4.853   7.714
19002TIP3    H156883   2.888   4.762   7.685
19002TIP3    H256884   2.855   4.840   7.810
19003TIP3   OH256885   2.819   4.858   7.987
19003TIP3    H156886   2.892   4.830   8.045
19003TIP3    H256887   2.824   4.956   7.995
19004TIP3   OH256888   2.555   4.551   8.190
19004TIP3    H156889   2.489   4.596   8.247
19004TIP3    H256890   2.570   4.621   8.123
19005TIP3   OH256891   3.702   4.196   9.082
19005TIP3    H156892   3.785   4.235   9.114
19005TIP3    H256893   3.697   4.113   9.134
19006TIP3   OH256894   3.582   3.941   8.247
19006TIP3    H156895   3.570   3.963   8.153
19006TIP3    H256896   3.623   4.023   8.282
19007TIP3   OH256897   3.085   5.056   7.936
19007TIP3    H156898   2.998   5.084   7.971
19007TIP3    H256899   3.102   5.127   7.873
19008TIP3   OH256900   3.273   4.119   8.349
19008TIP3    H156901   3.339   4.190   8.331
19008TIP3    H256902   3.279   4.112   8.447
19009TIP3   OH256903   3.541   4.436   9.153
19009TIP3    H156904   3.561   4.488   9.233
19009TIP3    H256905   3.598   4.358   9.163
19010TIP3   OH256906   3.419   3.847   8.452
19010TIP3    H156907   3.412   3.924   8.511
19010TIP3    H256908   3.479   3.882   8.383
19011TIP3   OH256909   2.828   5.131   8.003
19011TIP3    H156910   2.799   5.201   7.940
19011TIP3    H256911   2.812   5.175   8.089
19012TIP3   OH256912   2.929   3.844   8.242
19012TIP3    H156913   2.927   3.934   8.278
19012TIP3    H256914   3.025   3.825   8.249
19013TIP3   OH256915   4.180   4.339   9.136
19013TIP3    H156916   4.081   4.338   9.140
19013TIP3    H256917   4.193   4.297   9.050
19014TIP3   OH256918   3.834   4.533   8.526
19014TIP3    H156919   3.759   4.472   8.538
19014TIP3    H256920   3.906   4.486   8.574
19015TIP3   OH256921   2.546   4.762   7.996
19015TIP3    H156922   2.614   4.832   8.004
19015TIP3    H256923   2.591   4.706   7.929
19016TIP3   OH256924   2.492   4.037   8.130
19016TIP3    H156925   2.490   4.134   8.125
19016TIP3    H256926   2.411   4.012   8.085
19017TIP3   OH256927   3.803   5.488   8.476
19017TIP3    H156928   3.760   5.534   8.400
19017TIP3    H256929   3.897   5.507   8.455
19018TIP3   OH256930   2.878   3.762   9.001
19018TIP3    H156931   2.847   3.727   8.914
19018TIP3    H256932   2.869   3.682   9.058
19019TIP3   OH256933   2.419   4.978   8.385
19019TIP3    H156934   2.344   5.007   8.439
19019TIP3    H256935   2.394   5.017   8.298
19020TIP3   OH256936   2.578   5.517   9.431
19020TIP3    H156937   2.659   5.501   9.483
19020TIP3    H256938   2.536   5.429   9.435
19021TIP3   OH256939   3.058   5.472   9.508
19021TIP3    H156940   3.154   5.460   9.504
19021TIP3    H256941   3.031   5.418   9.431
19022TIP3   OH256942   3.037   5.057   7.628
19022TIP3    H156943   2.982   4.986   7.667
19022TIP3    H256944   3.112   5.005   7.594
19023TIP3   OH256945   3.692   5.391   9.234
19023TIP3    H156946   3.686   5.317   9.299
19023TIP3    H256947   3.773   5.437   9.262
19024TIP3   OH256948   3.474   5.098   7.539
19024TIP3    H156949   3.517   5.032   7.597
19024TIP3    H256950   3.530   5.097   7.459
19025TIP3   OH256951   2.682   4.575   7.848
19025TIP3    H156952   2.737   4.540   7.920
19025TIP3    H256953   2.749   4.578   7.776
19026TIP3   OH256954   3.325   5.005   9.409
19026TIP3    H156955   3.279   5.016   9.324
19026TIP3    H256956   3.351   4.910   9.408
19027TIP3   OH256957   3.191   4.772   7.655
19027TIP3    H156958   3.194   4.785   7.752
19027TIP3    H256959   3.192   4.674   7.651
19028TIP3   OH256960   3.805   5.017   9.033
19028TIP3    H156961   3.880   5.061   8.990
19028TIP3    H256962   3.735   5.083   9.020
19029TIP3   OH256963   2.891   4.477   8.070
19029TIP3    H156964   2.865   4.434   8.153
19029TIP3    H256965   2.926   4.402   8.019
19030TIP3   OH256966   3.162   4.539   9.301
19030TIP3    H156967   3.086   4.601   9.304
19030TIP3    H256968   3.210   4.571   9.221
19031TIP3   OH256969   2.991   4.272   7.911
19031TIP3    H156970   2.964   4.273   7.817
19031TIP3    H256971   3.089   4.277   7.903
19032TIP3   OH256972   3.676   4.944   9.425
19032TIP3    H156973   3.759   4.926   9.379
19032TIP3    H256974   3.680   4.879   9.498
19033TIP3   OH256975   3.814   4.603   7.573
19033TIP3    H156976   3.792   4.555   7.491
19033TIP3    H256977   3.781   4.693   7.549
19034TIP3   OH256978   3.259   4.311   9.436
19034TIP3    H156979   3.266   4.244   9.365
19034TIP3    H256980   3.221   4.388   9.389
19035TIP3   OH256981   3.284   4.112   9.236
19035TIP3    H156982   3.313   4.159   9.154
19035TIP3    H256983   3.191   4.091   9.213
19036TIP3   OH256984   3.312   4.650   9.105
19036TIP3    H156985   3.396   4.659   9.057
19036TIP3    H256986   3.256   4.718   9.061
19037TIP3   OH256987   3.902   4.608   9.478
19037TIP3    H156988   3.949   4.525   9.494
19037TIP3    H256989   3.975   4.667   9.453
19038TIP3   OH256990   3.935   4.872   9.221
19038TIP3    H156991   3.878   4.926   9.161
19038TIP3    H256992   4.023   4.892   9.181
19039TIP3   OH256993   3.436   3.879   9.246
19039TIP3    H156994   3.383   3.960   9.235
19039TIP3    H256995   3.367   3.812   9.263
19040TIP3   OH256996   3.523   4.387   9.468
19040TIP3    H156997   3.557   4.325   9.536
19040TIP3    H256998   3.429   4.358   9.459
19041TIP3   OH256999   3.790   4.332   9.367
19041TIP3    H157000   3.710   4.327   9.421
19041TIP3    H257001   3.859   4.317   9.434
19042TIP3   OH257002   4.003   4.313   9.550
19042TIP3    H157003   4.018   4.217   9.534
19042TIP3    H257004   4.000   4.316   9.647
19043TIP3   OH257005   3.586   3.781   9.506
19043TIP3    H157006   3.652   3.845   9.478
19043TIP3    H257007   3.502   3.825   9.483
19044TIP3   OH257008   2.798   5.333   7.815
19044TIP3    H157009   2.894   5.329   7.796
19044TIP3    H257010   2.768   5.383   7.737
19045TIP3   OH257011   2.278   4.715   8.032
19045TIP3    H157012   2.373   4.737   8.019
19045TIP3    H257013   2.273   4.626   7.990
19046TIP3   OH257014   2.191   5.328   8.445
19046TIP3    H157015   2.124   5.265   8.409
19046TIP3    H257016   2.236   5.271   8.510
19047TIP3   OH257017   2.328   5.180   8.631
19047TIP3    H157018   2.315   5.106   8.692
19047TIP3    H257019   2.380   5.241   8.687
19048TIP3   OH257020   4.056   5.579   8.431
19048TIP3    H157021   4.080   5.612   8.520
19048TIP3    H257022   4.116   5.628   8.374
19049TIP3   OH257023   4.084   5.599   8.713
19049TIP3    H157024   4.042   5.511   8.710
19049TIP3    H257025   4.160   5.579   8.770
19050TIP3   OH257026   4.131   5.277   9.286
19050TIP3    H157027   4.057   5.284   9.349
19050TIP3    H257028   4.173   5.365   9.292
19051TIP3   OH257029   3.948   4.789   7.907
19051TIP3    H157030   4.017   4.852   7.880
19051TIP3    H257031   3.989   4.749   7.987
19052TIP3   OH257032   4.075   4.657   8.111
19052TIP3    H157033   4.010   4.614   8.170
19052TIP3    H257034   4.140   4.694   8.174
19053TIP3   OH257035   4.128   5.048   8.542
19053TIP3    H157036   4.183   4.984   8.493
19053TIP3    H257037   4.120   5.122   8.479
19054TIP3   OH257038   3.961   5.349   8.738
19054TIP3    H157039   3.890   5.391   8.790
19054TIP3    H257040   3.910   5.300   8.669
19055TIP3   OH257041   4.014   4.565   7.757
19055TIP3    H157042   3.941   4.567   7.690
19055TIP3    H257043   3.986   4.641   7.813
19056TIP3   OH257044   3.883   4.238   7.712
19056TIP3    H157045   3.842   4.275   7.633
19056TIP3    H257046   3.859   4.143   7.704
19057TIP3   OH257047   3.889   4.512   8.256
19057TIP3    H157048   3.897   4.415   8.251
19057TIP3    H257049   3.876   4.527   8.352
19058TIP3   OH257050   2.515   4.591   9.000
19058TIP3    H157051   2.514   4.558   8.908
19058TIP3    H257052   2.612   4.591   9.017
19059TIP3   OH257053   4.177   4.937   9.113
19059TIP3    H157054   4.250   4.872   9.105
19059TIP3    H257055   4.207   5.008   9.053
19060TIP3   OH257056   4.364   4.745   9.129
19060TIP3    H157057   4.290   4.694   9.169
19060TIP3    H257058   4.437   4.682   9.144
19061TIP3   OH257059   3.827   3.973   7.700
19061TIP3    H157060   3.903   3.940   7.753
19061TIP3    H257061   3.755   3.912   7.723
19062TIP3   OH257062   3.885   4.229   8.152
19062TIP3    H157063   3.926   4.141   8.168
19062TIP3    H257064   3.944   4.261   8.081
19063TIP3   OH257065   4.047   4.404   8.646
19063TIP3    H157066   4.133   4.430   8.606
19063TIP3    H257067   4.060   4.440   8.736
19064TIP3   OH257068   4.115   4.547   8.879
19064TIP3    H157069   4.038   4.581   8.928
19064TIP3    H257070   4.148   4.628   8.834
19065TIP3   OH257071   4.556   4.141   9.424
19065TIP3    H157072   4.620   4.078   9.382
19065TIP3    H257073   4.537   4.203   9.351
19066TIP3   OH257074   3.994   3.979   8.190
19066TIP3    H157075   4.042   3.962   8.274
19066TIP3    H257076   3.934   3.902   8.188
19067TIP3   OH257077   2.693   3.968   9.009
19067TIP3    H157078   2.753   3.891   9.017
19067TIP3    H257079   2.758   4.040   9.000
19068TIP3   OH257080   2.502   4.239   9.086
19068TIP3    H157081   2.549   4.232   9.001
19068TIP3    H257082   2.532   4.325   9.117
19069TIP3   OH257083   4.439   4.286   9.228
19069TIP3    H157084   4.351   4.321   9.256
19069TIP3    H257085   4.410   4.208   9.177
19070TIP3   OH257086   4.076   3.914   7.822
19070TIP3    H157087   4.115   3.841   7.769
19070TIP3    H257088   4.143   3.984   7.814
19071TIP3   OH257089   2.480   3.746   8.586
19071TIP3    H157090   2.386   3.741   8.608
19071TIP3    H257091   2.479   3.801   8.505
19072TIP3   OH257092   3.639   5.445   8.089
19072TIP3    H157093   3.693   5.431   8.008
19072TIP3    H257094   3.691   5.512   8.135
19073TIP3   OH257095   2.746   5.243   9.477
19073TIP3    H157096   2.653   5.230   9.452
19073TIP3    H257097   2.740   5.275   9.568
19074TIP3   OH257098   2.917   5.282   9.023
19074TIP3    H157099   2.871   5.359   8.983
19074TIP3    H257100   3.004   5.295   8.978
19075TIP3   OH257101   3.363   5.527   9.158
19075TIP3    H157102   3.406   5.529   9.246
19075TIP3    H257103   3.429   5.577   9.105
19076TIP3   OH257104   3.543   5.678   9.018
19076TIP3    H157105   3.615   5.628   8.977
19076TIP3    H257106   3.594   5.736   9.079
19077TIP3   OH257107   4.339   4.040   9.117
19077TIP3    H157108   4.248   4.034   9.084
19077TIP3    H257109   4.371   3.948   9.104
19078TIP3   OH257110   2.596   5.535   9.049
19078TIP3    H157111   2.508   5.570   9.023
19078TIP3    H257112   2.609   5.582   9.132
19079TIP3   OH257113   2.831   5.517   8.903
19079TIP3    H157114   2.745   5.530   8.949
19079TIP3    H257115   2.811   5.551   8.814
19080TIP3   OH257116   3.257   5.546   8.702
19080TIP3    H157117   3.188   5.567   8.635
19080TIP3    H257118   3.270   5.634   8.744
19081TIP3   OH257119   3.526   5.486   8.753
19081TIP3    H157120   3.432   5.503   8.733
19081TIP3    H257121   3.569   5.562   8.711
19082TIP3   OH257122   3.733   5.678   8.668
19082TIP3    H157123   3.719   5.763   8.621
19082TIP3    H257124   3.759   5.618   8.594
19083TIP3   OH257125   2.505   5.332   8.791
19083TIP3    H157126   2.532   5.308   8.882
19083TIP3    H257127   2.578   5.290   8.740
19084TIP3   OH257128   2.700   5.205   8.648
19084TIP3    H157129   2.716   5.120   8.696
19084TIP3    H257130   2.791   5.242   8.643
19085TIP3   OH257131   2.965   5.299   8.650
19085TIP3    H157132   2.997   5.208   8.637
19085TIP3    H257133   3.010   5.321   8.734
19086TIP3   OH257134   3.541   3.955   8.737
19086TIP3    H157135   3.499   3.884   8.790
19086TIP3    H257136   3.613   3.908   8.692
19087TIP3   OH257137   4.065   3.838   8.645
19087TIP3    H157138   4.102   3.888   8.569
19087TIP3    H257139   3.970   3.854   8.635
19088TIP3   OH257140   4.161   3.937   8.408
19088TIP3    H157141   4.233   3.885   8.367
19088TIP3    H257142   4.194   4.028   8.392
19089TIP3   OH257143   2.791   3.665   8.754
19089TIP3    H157144   2.699   3.631   8.754
19089TIP3    H257145   2.841   3.581   8.752
19090TIP3   OH257146   2.577   3.534   8.403
19090TIP3    H157147   2.608   3.589   8.330
19090TIP3    H257148   2.549   3.600   8.469
19091TIP3   OH257149   3.233   3.699   8.634
19091TIP3    H157150   3.293   3.746   8.575
19091TIP3    H257151   3.259   3.733   8.721
19092TIP3   OH257152   3.781   3.844   8.618
19092TIP3    H157153   3.780   3.806   8.529
19092TIP3    H257154   3.769   3.763   8.674
19093TIP3   OH257155   3.812   3.766   8.181
19093TIP3    H157156   3.724   3.807   8.191
19093TIP3    H257157   3.797   3.680   8.227
19094TIP3   OH257158   2.295   5.104   8.182
19094TIP3    H157159   2.209   5.071   8.147
19094TIP3    H257160   2.283   5.199   8.164
19095TIP3   OH257161   2.694   3.694   8.165
19095TIP3    H157162   2.742   3.630   8.109
19095TIP3    H257163   2.768   3.747   8.201
19096TIP3   OH257164   3.206   3.869   8.263
19096TIP3    H157165   3.266   3.821   8.323
19096TIP3    H257166   3.229   3.961   8.290
19097TIP3   OH257167   3.066   5.293   7.764
19097TIP3    H157168   3.154   5.316   7.727
19097TIP3    H257169   3.044   5.218   7.705
19098TIP3   OH257170   3.788   5.412   7.856
19098TIP3    H157171   3.778   5.315   7.844
19098TIP3    H257172   3.740   5.446   7.778
19099TIP3   OH257173   2.370   5.131   7.820
19099TIP3    H157174   2.370   5.155   7.914
19099TIP3    H257175   2.458   5.089   7.809
19100TIP3   OH257176   4.053   4.047   9.499
19100TIP3    H157177   4.076   3.993   9.578
19100TIP3    H257178   4.142   4.044   9.455
19101TIP3   OH257179   4.012   5.556   9.044
19101TIP3    H157180   3.933   5.525   8.996
19101TIP3    H257181   3.993   5.652   9.048
19102TIP3   OH257182   5.279   4.926   7.811
19102TIP3    H157183   5.251   5.018   7.793
19102TIP3    H257184   5.202   4.878   7.778
19103TIP3   OH257185   5.276   4.927   8.191
19103TIP3    H157186   5.308   4.901   8.279
19103TIP3    H257187   5.234   4.846   8.159
19104TIP3   OH257188   4.576   4.823   8.556
19104TIP3    H157189   4.607   4.756   8.620
19104TIP3    H257190   4.654   4.881   8.552
19105TIP3   OH257191   5.520   5.231   7.873
19105TIP3    H157192   5.507   5.163   7.941
19105TIP3    H257193   5.549   5.307   7.926
19106TIP3   OH257194   4.547   5.233   8.279
19106TIP3    H157195   4.537   5.136   8.282
19106TIP3    H257196   4.643   5.241   8.282
19107TIP3   OH257197   4.254   4.439   8.067
19107TIP3    H157198   4.203   4.521   8.081
19107TIP3    H257199   4.185   4.382   8.029
19108TIP3   OH257200   4.314   4.724   8.238
19108TIP3    H157201   4.362   4.647   8.276
19108TIP3    H257202   4.373   4.750   8.167
19109TIP3   OH257203   5.159   5.683   7.885
19109TIP3    H157204   5.214   5.615   7.843
19109TIP3    H257205   5.167   5.661   7.979
19110TIP3   OH257206   5.076   5.154   8.239
19110TIP3    H157207   5.115   5.077   8.194
19110TIP3    H257208   5.159   5.200   8.264
19111TIP3   OH257209   6.091   4.474   8.237
19111TIP3    H157210   6.117   4.557   8.283
19111TIP3    H257211   6.106   4.499   8.144
19112TIP3   OH257212   5.490   4.656   8.272
19112TIP3    H157213   5.530   4.569   8.292
19112TIP3    H257214   5.457   4.641   8.182
19113TIP3   OH257215   4.826   4.315   8.237
19113TIP3    H157216   4.804   4.388   8.175
19113TIP3    H257217   4.778   4.241   8.194
19114TIP3   OH257218   5.520   4.407   7.861
19114TIP3    H157219   5.593   4.390   7.925
19114TIP3    H257220   5.570   4.442   7.785
19115TIP3   OH257221   4.460   4.517   8.345
19115TIP3    H157222   4.542   4.496   8.392
19115TIP3    H257223   4.471   4.461   8.265
19116TIP3   OH257224   4.900   4.715   8.136
19116TIP3    H157225   4.994   4.689   8.151
19116TIP3    H257226   4.861   4.631   8.106
19117TIP3   OH257227   6.161   4.681   8.408
19117TIP3    H157228   6.078   4.729   8.389
19117TIP3    H257229   6.179   4.709   8.499
19118TIP3   OH257230   4.823   4.298   8.672
19118TIP3    H157231   4.762   4.334   8.604
19118TIP3    H257232   4.771   4.315   8.753
19119TIP3   OH257233   5.169   5.148   7.682
19119TIP3    H157234   5.130   5.125   7.596
19119TIP3    H257235   5.126   5.233   7.701
19120TIP3   OH257236   4.928   5.073   8.468
19120TIP3    H157237   4.866   5.139   8.505
19120TIP3    H257238   4.973   5.125   8.398
19121TIP3   OH257239   5.733   4.407   8.032
19121TIP3    H157240   5.717   4.361   8.115
19121TIP3    H257241   5.784   4.485   8.060
19122TIP3   OH257242   4.693   4.413   8.456
19122TIP3    H157243   4.755   4.486   8.479
19122TIP3    H257244   4.742   4.372   8.381
19123TIP3   OH257245   4.756   5.267   8.562
19123TIP3    H157246   4.731   5.355   8.527
19123TIP3    H257247   4.678   5.252   8.620
19124TIP3   OH257248   4.153   4.957   7.801
19124TIP3    H157249   4.108   4.983   7.718
19124TIP3    H257250   4.182   5.044   7.836
19125TIP3   OH257251   5.589   5.470   8.038
19125TIP3    H157252   5.500   5.465   8.078
19125TIP3    H257253   5.585   5.559   7.996
19126TIP3   OH257254   5.881   4.374   8.402
19126TIP3    H157255   5.793   4.404   8.374
19126TIP3    H257256   5.939   4.407   8.330
19127TIP3   OH257257   5.179   4.018   8.386
19127TIP3    H157258   5.167   3.923   8.404
19127TIP3    H257259   5.101   4.055   8.432
19128TIP3   OH257260   5.291   5.516   7.714
19128TIP3    H157261   5.344   5.435   7.691
19128TIP3    H257262   5.350   5.584   7.674
19129TIP3   OH257263   5.434   5.303   7.620
19129TIP3    H157264   5.404   5.220   7.580
19129TIP3    H257265   5.471   5.271   7.706
19130TIP3   OH257266   5.817   5.385   8.386
19130TIP3    H157267   5.806   5.310   8.324
19130TIP3    H257268   5.798   5.462   8.326
19131TIP3   OH257269   5.108   4.781   7.640
19131TIP3    H157270   5.027   4.829   7.615
19131TIP3    H257271   5.155   4.775   7.556
19132TIP3   OH257272   5.067   4.565   7.361
19132TIP3    H157273   5.138   4.614   7.406
19132TIP3    H257274   5.121   4.500   7.311
19133TIP3   OH257275   6.012   5.021   8.227
19133TIP3    H157276   5.930   5.074   8.234
19133TIP3    H257277   6.042   5.047   8.138
19134TIP3   OH257278   5.456   4.863   7.613
19134TIP3    H157279   5.401   4.887   7.691
19134TIP3    H257280   5.539   4.836   7.657
19135TIP3   OH257281   5.691   4.901   8.525
19135TIP3    H157282   5.690   4.985   8.573
19135TIP3    H257283   5.605   4.906   8.479
19136TIP3   OH257284   4.689   4.861   8.029
19136TIP3    H157285   4.647   4.802   7.963
19136TIP3    H257286   4.765   4.806   8.059
19137TIP3   OH257287   4.822   5.275   8.174
19137TIP3    H157288   4.801   5.217   8.099
19137TIP3    H257289   4.912   5.243   8.198
19138TIP3   OH257290   4.826   4.831   8.384
19138TIP3    H157291   4.859   4.811   8.294
19138TIP3    H257292   4.868   4.917   8.404
19139TIP3   OH257293   5.348   5.469   8.159
19139TIP3    H157294   5.336   5.551   8.211
19139TIP3    H257295   5.335   5.398   8.226
19140TIP3   OH257296   4.962   5.386   8.709
19140TIP3    H157297   4.903   5.450   8.755
19140TIP3    H257298   4.895   5.334   8.660
19141TIP3   OH257299   5.296   4.722   7.440
19141TIP3    H157300   5.356   4.779   7.492
19141TIP3    H257301   5.322   4.745   7.348
19142TIP3   OH257302   4.716   4.945   8.807
19142TIP3    H157303   4.721   5.031   8.853
19142TIP3    H257304   4.621   4.925   8.819
19143TIP3   OH257305   5.034   5.410   7.699
19143TIP3    H157306   5.120   5.447   7.729
19143TIP3    H257307   4.979   5.488   7.695
19144TIP3   OH257308   4.757   5.556   8.794
19144TIP3    H157309   4.721   5.555   8.704
19144TIP3    H257310   4.677   5.535   8.848
19145TIP3   OH257311   5.813   3.961   7.489
19145TIP3    H157312   5.731   3.980   7.538
19145TIP3    H257313   5.825   4.044   7.439
19146TIP3   OH257314   4.555   4.703   7.835
19146TIP3    H157315   4.487   4.746   7.779
19146TIP3    H257316   4.517   4.616   7.848
19147TIP3   OH257317   5.611   5.329   7.035
19147TIP3    H157318   5.619   5.426   7.022
19147TIP3    H257319   5.704   5.300   7.022
19148TIP3   OH257320   4.335   5.087   8.742
19148TIP3    H157321   4.270   5.063   8.673
19148TIP3    H257322   4.373   5.000   8.767
19149TIP3   OH257323   4.189   5.281   8.373
19149TIP3    H157324   4.286   5.274   8.367
19149TIP3    H257325   4.179   5.359   8.429
19150TIP3   OH257326   6.056   5.731   8.433
19150TIP3    H157327   6.052   5.634   8.447
19150TIP3    H257328   5.972   5.758   8.476
19151TIP3   OH257329   5.160   5.517   8.564
19151TIP3    H157330   5.160   5.610   8.597
19151TIP3    H257331   5.089   5.478   8.620
19152TIP3   OH257332   4.884   5.634   7.519
19152TIP3    H157333   4.878   5.629   7.422
19152TIP3    H257334   4.884   5.730   7.536
19153TIP3   OH257335   4.363   5.491   7.898
19153TIP3    H157336   4.406   5.484   7.987
19153TIP3    H257337   4.302   5.415   7.903
19154TIP3   OH257338   5.121   5.545   7.157
19154TIP3    H157339   5.181   5.476   7.120
19154TIP3    H257340   5.157   5.556   7.248
19155TIP3   OH257341   5.164   5.597   7.432
19155TIP3    H157342   5.083   5.594   7.485
19155TIP3    H257343   5.231   5.566   7.496
19156TIP3   OH257344   5.944   4.861   8.707
19156TIP3    H157345   5.865   4.876   8.652
19156TIP3    H257346   5.959   4.766   8.694
19157TIP3   OH257347   4.541   5.269   8.730
19157TIP3    H157348   4.591   5.254   8.813
19157TIP3    H257349   4.467   5.206   8.738
19158TIP3   OH257350   4.940   4.094   8.513
19158TIP3    H157351   4.850   4.063   8.488
19158TIP3    H257352   4.914   4.176   8.561
19159TIP3   OH257353   5.473   4.210   8.710
19159TIP3    H157354   5.541   4.180   8.774
19159TIP3    H257355   5.389   4.188   8.755
19160TIP3   OH257356   5.713   4.637   8.628
19160TIP3    H157357   5.664   4.636   8.713
19160TIP3    H257358   5.688   4.724   8.590
19161TIP3   OH257359   5.374   4.771   7.185
19161TIP3    H157360   5.339   4.742   7.098
19161TIP3    H257361   5.456   4.816   7.158
19162TIP3   OH257362   5.086   4.142   7.485
19162TIP3    H157363   5.052   4.139   7.577
19162TIP3    H257364   5.046   4.059   7.451
19163TIP3   OH257365   4.872   4.608   8.533
19163TIP3    H157366   4.821   4.628   8.614
19163TIP3    H257367   4.855   4.690   8.480
19164TIP3   OH257368   4.755   4.496   8.046
19164TIP3    H157369   4.662   4.468   8.064
19164TIP3    H257370   4.768   4.455   7.958
19165TIP3   OH257371   5.246   4.582   7.775
19165TIP3    H157372   5.193   4.653   7.732
19165TIP3    H257373   5.300   4.551   7.700
19166TIP3   OH257374   5.422   4.864   8.871
19166TIP3    H157375   5.398   4.786   8.926
19166TIP3    H257376   5.519   4.864   8.879
19167TIP3   OH257377   5.404   4.610   8.014
19167TIP3    H157378   5.344   4.640   7.943
19167TIP3    H257379   5.436   4.528   7.971
19168TIP3   OH257380   4.691   4.638   8.742
19168TIP3    H157381   4.716   4.700   8.811
19168TIP3    H257382   4.678   4.555   8.793
19169TIP3   OH257383   4.743   4.118   7.452
19169TIP3    H157384   4.732   4.112   7.549
19169TIP3    H257385   4.661   4.165   7.426
19170TIP3   OH257386   4.283   4.162   8.322
19170TIP3    H157387   4.360   4.191   8.375
19170TIP3    H257388   4.322   4.126   8.241
19171TIP3   OH257389   4.257   4.141   7.842
19171TIP3    H157390   4.301   4.180   7.764
19171TIP3    H257391   4.195   4.213   7.864
19172TIP3   OH257392   5.414   4.856   8.436
19172TIP3    H157393   5.447   4.784   8.377
19172TIP3    H257394   5.385   4.803   8.513
19173TIP3   OH257395   5.083   4.318   8.109
19173TIP3    H157396   5.000   4.315   8.161
19173TIP3    H257397   5.150   4.316   8.179
19174TIP3   OH257398   4.517   4.373   8.116
19174TIP3    H157399   4.422   4.379   8.090
19174TIP3    H257400   4.540   4.281   8.094
19175TIP3   OH257401   4.787   4.370   7.804
19175TIP3    H157402   4.881   4.384   7.782
19175TIP3    H257403   4.740   4.393   7.721
19176TIP3   OH257404   5.574   4.392   8.310
19176TIP3    H157405   5.540   4.404   8.401
19176TIP3    H257406   5.508   4.331   8.274
19177TIP3   OH257407   4.626   4.406   7.584
19177TIP3    H157408   4.556   4.358   7.537
19177TIP3    H257409   4.679   4.439   7.508
19178TIP3   OH257410   5.744   6.079   8.532
19178TIP3    H157411   5.736   6.106   8.439
19178TIP3    H257412   5.822   6.131   8.560
19179TIP3   OH257413   4.701   5.191   8.950
19179TIP3    H157414   4.781   5.223   8.998
19179TIP3    H257415   4.636   5.191   9.024
19180TIP3   OH257416   5.166   4.646   8.206
19180TIP3    H157417   5.237   4.604   8.156
19180TIP3    H257418   5.174   4.604   8.293
19181TIP3   OH257419   4.689   4.132   8.085
19181TIP3    H157420   4.655   4.053   8.131
19181TIP3    H257421   4.738   4.093   8.011
19182TIP3   OH257422   5.142   4.542   8.494
19182TIP3    H157423   5.052   4.577   8.510
19182TIP3    H257424   5.199   4.603   8.546
19183TIP3   OH257425   4.873   4.936   7.586
19183TIP3    H157426   4.806   4.865   7.580
19183TIP3    H257427   4.860   4.967   7.679
19184TIP3   OH257428   5.781   5.167   8.220
19184TIP3    H157429   5.805   5.218   8.139
19184TIP3    H257430   5.694   5.129   8.195
19185TIP3   OH257431   5.337   4.244   7.457
19185TIP3    H157432   5.241   4.226   7.462
19185TIP3    H257433   5.344   4.339   7.475
19186TIP3   OH257434   5.274   5.248   8.589
19186TIP3    H157435   5.301   5.232   8.680
19186TIP3    H257436   5.241   5.340   8.592
19187TIP3   OH257437   5.406   4.493   7.557
19187TIP3    H157438   5.503   4.499   7.571
19187TIP3    H257439   5.388   4.571   7.501
19188TIP3   OH257440   4.572   4.956   8.266
19188TIP3    H157441   4.611   4.926   8.182
19188TIP3    H257442   4.610   4.893   8.330
19189TIP3   OH257443   5.019   5.087   7.412
19189TIP3    H157444   4.967   5.168   7.425
19189TIP3    H257445   4.971   5.024   7.470
19190TIP3   OH257446   4.452   4.875   8.879
19190TIP3    H157447   4.473   4.862   8.974
19190TIP3    H257448   4.383   4.808   8.865
19191TIP3   OH257449   5.175   4.989   8.901
19191TIP3    H157450   5.115   4.930   8.852
19191TIP3    H257451   5.262   4.956   8.872
19192TIP3   OH257452   5.438   5.502   8.487
19192TIP3    H157453   5.342   5.510   8.496
19192TIP3    H257454   5.468   5.559   8.561
19193TIP3   OH257455   5.851   4.582   7.391
19193TIP3    H157456   5.788   4.536   7.330
19193TIP3    H257457   5.846   4.671   7.350
19194TIP3   OH257458   6.066   5.436   8.475
19194TIP3    H157459   5.969   5.434   8.465
19194TIP3    H257460   6.093   5.410   8.384
19195TIP3   OH257461   5.544   5.402   7.299
19195TIP3    H157462   5.526   5.331   7.362
19195TIP3    H257463   5.561   5.355   7.215
19196TIP3   OH257464   5.545   5.031   8.138
19196TIP3    H157465   5.451   5.005   8.152
19196TIP3    H257466   5.579   4.951   8.094
19197TIP3   OH257467   4.669   5.250   7.887
19197TIP3    H157468   4.678   5.337   7.847
19197TIP3    H257469   4.574   5.245   7.907
19198TIP3   OH257470   4.235   4.563   7.595
19198TIP3    H157471   4.282   4.646   7.617
19198TIP3    H257472   4.158   4.568   7.655
19199TIP3   OH257473   4.813   5.022   7.835
19199TIP3    H157474   4.773   5.109   7.852
19199TIP3    H257475   4.778   4.970   7.910
19200TIP3   OH257476   4.941   5.602   8.359
19200TIP3    H157477   4.982   5.676   8.309
19200TIP3    H257478   5.018   5.570   8.410
19201TIP3   OH257479   4.568   5.516   7.715
19201TIP3    H157480   4.499   5.505   7.784
19201TIP3    H257481   4.616   5.595   7.750
19202TIP3   OH257482   5.329   5.236   8.319
19202TIP3    H157483   5.320   5.235   8.417
19202TIP3    H257484   5.411   5.187   8.307
19203TIP3   OH257485   5.304   5.129   7.202
19203TIP3    H157486   5.359   5.105   7.281
19203TIP3    H257487   5.217   5.099   7.232
19204TIP3   OH257488   5.580   5.770   8.365
19204TIP3    H157489   5.498   5.720   8.354
19204TIP3    H257490   5.568   5.840   8.296
19205TIP3   OH257491   5.644   5.605   7.022
19205TIP3    H157492   5.685   5.679   6.973
19205TIP3    H257493   5.564   5.651   7.054
19206TIP3   OH257494   4.665   4.381   8.888
19206TIP3    H157495   4.568   4.384   8.902
19206TIP3    H257496   4.693   4.322   8.960
19207TIP3   OH257497   5.464   5.064   7.420
19207TIP3    H157498   5.455   4.996   7.490
19207TIP3    H257499   5.561   5.062   7.406
19208TIP3   OH257500   4.380   5.464   8.520
19208TIP3    H157501   4.433   5.391   8.556
19208TIP3    H257502   4.407   5.537   8.578
19209TIP3   OH257503   4.665   5.111   7.203
19209TIP3    H157504   4.682   5.023   7.165
19209TIP3    H257505   4.646   5.088   7.296
19210TIP3   OH257506   4.626   5.126   7.485
19210TIP3    H157507   4.672   5.060   7.539
19210TIP3    H257508   4.695   5.194   7.475
19211TIP3   OH257509   4.352   4.808   7.676
19211TIP3    H157510   4.285   4.851   7.734
19211TIP3    H257511   4.365   4.879   7.610
19212TIP3   OH257512   5.500   4.446   8.569
19212TIP3    H157513   5.581   4.481   8.607
19212TIP3    H257514   5.485   4.364   8.622
19213TIP3   OH257515   5.380   4.196   7.734
19213TIP3    H157516   5.365   4.218   7.640
19213TIP3    H257517   5.419   4.279   7.768
19214TIP3   OH257518   4.848   5.313   7.431
19214TIP3    H157519   4.862   5.390   7.488
19214TIP3    H257520   4.882   5.347   7.346
19215TIP3   OH257521   5.070   4.376   7.836
19215TIP3    H157522   5.135   4.447   7.819
19215TIP3    H257523   5.075   4.369   7.934
19216TIP3   OH257524   5.339   4.695   8.644
19216TIP3    H157525   5.356   4.746   8.725
19216TIP3    H257526   5.394   4.615   8.657
19217TIP3   OH257527   5.215   4.104   7.940
19217TIP3    H157528   5.206   4.182   7.998
19217TIP3    H257529   5.275   4.139   7.870
19218TIP3   OH257530   4.725   4.100   7.729
19218TIP3    H157531   4.723   4.190   7.765
19218TIP3    H257532   4.821   4.082   7.736
19219TIP3   OH257533   5.979   4.594   8.624
19219TIP3    H157534   5.881   4.593   8.632
19219TIP3    H257535   5.990   4.555   8.537
19220TIP3   OH257536   5.631   4.788   8.013
19220TIP3    H157537   5.554   4.729   8.025
19220TIP3    H257538   5.702   4.741   8.062
19221TIP3   OH257539   4.348   5.020   7.483
19221TIP3    H157540   4.421   5.083   7.493
19221TIP3    H257541   4.385   4.961   7.414
19222TIP3   OH257542   4.289   4.293   7.617
19222TIP3    H157543   4.285   4.391   7.612
19222TIP3    H257544   4.207   4.267   7.572
19223TIP3   OH257545   5.599   5.738   7.958
19223TIP3    H157546   5.557   5.787   7.883
19223TIP3    H257547   5.693   5.762   7.942
19224TIP3   OH257548   4.675   4.013   8.490
19224TIP3    H157549   4.643   3.979   8.403
19224TIP3    H257550   4.665   3.935   8.547
19225TIP3   OH257551   4.212   5.235   7.869
19225TIP3    H157552   4.144   5.263   7.933
19225TIP3    H257553   4.179   5.276   7.786
19226TIP3   OH257554   4.371   5.773   8.942
19226TIP3    H157555   4.457   5.774   8.989
19226TIP3    H257556   4.351   5.678   8.941
19227TIP3   OH257557   4.851   5.737   8.988
19227TIP3    H157558   4.946   5.724   8.994
19227TIP3    H257559   4.829   5.679   8.912
19228TIP3   OH257560   4.837   5.312   7.120
19228TIP3    H157561   4.781   5.238   7.151
19228TIP3    H257562   4.908   5.264   7.074
19229TIP3   OH257563   5.492   5.644   8.718
19229TIP3    H157564   5.485   5.575   8.788
19229TIP3    H257565   5.568   5.696   8.748
19230TIP3   OH257566   5.270   5.354   7.025
19230TIP3    H157567   5.316   5.292   7.085
19230TIP3    H257568   5.329   5.356   6.947
19231TIP3   OH257569   4.501   5.180   9.142
19231TIP3    H157570   4.519   5.084   9.146
19231TIP3    H257571   4.413   5.182   9.099
19232TIP3   OH257572   4.480   4.834   7.336
19232TIP3    H157573   4.531   4.789   7.405
19232TIP3    H257574   4.546   4.834   7.263
19233TIP3   OH257575   5.110   5.264   8.915
19233TIP3    H157576   5.067   5.282   8.829
19233TIP3    H257577   5.138   5.171   8.906
19234TIP3   OH257578   4.983   5.028   7.143
19234TIP3    H157579   4.990   5.040   7.240
19234TIP3    H257580   4.987   4.930   7.137
19235TIP3   OH257581   5.601   5.273   8.520
19235TIP3    H157582   5.676   5.318   8.477
19235TIP3    H257583   5.531   5.341   8.509
19236TIP3   OH257584   4.620   4.914   9.123
19236TIP3    H157585   4.693   4.853   9.105
19236TIP3    H257586   4.645   4.947   9.212
19237TIP3   OH257587   4.688   4.734   7.558
19237TIP3    H157588   4.660   4.690   7.640
19237TIP3    H257589   4.723   4.659   7.506
19238TIP3   OH257590   4.956   4.800   8.785
19238TIP3    H157591   4.878   4.859   8.788
19238TIP3    H257592   5.003   4.833   8.706
19239TIP3   OH257593   4.787   4.530   7.398
19239TIP3    H157594   4.761   4.528   7.304
19239TIP3    H257595   4.885   4.533   7.390
19240TIP3   OH257596   5.472   5.202   8.916
19240TIP3    H157597   5.554   5.184   8.868
19240TIP3    H257598   5.471   5.132   8.983
19241TIP3   OH257599   5.610   4.860   7.060
19241TIP3    H157600   5.587   4.812   6.978
19241TIP3    H257601   5.578   4.950   7.036
19242TIP3   OH257602   5.080   4.587   8.911
19242TIP3    H157603   5.078   4.506   8.856
19242TIP3    H257604   5.034   4.652   8.853
19243TIP3   OH257605   5.081   4.373   8.718
19243TIP3    H157606   5.108   4.413   8.633
19243TIP3    H257607   4.988   4.349   8.701
19244TIP3   OH257608   5.109   4.908   8.591
19244TIP3    H157609   5.192   4.918   8.542
19244TIP3    H257610   5.053   4.976   8.548
19245TIP3   OH257611   5.702   4.877   8.979
19245TIP3    H157612   5.748   4.791   8.973
19245TIP3    H257613   5.765   4.936   8.935
19246TIP3   OH257614   5.730   5.126   8.706
19246TIP3    H157615   5.673   5.181   8.647
19246TIP3    H257616   5.818   5.148   8.667
19247TIP3   OH257617   4.957   4.699   9.141
19247TIP3    H157618   4.888   4.632   9.157
19247TIP3    H257619   4.992   4.672   9.054
19248TIP3   OH257620   5.214   4.137   8.783
19248TIP3    H157621   5.164   4.219   8.763
19248TIP3    H257622   5.144   4.069   8.774
19249TIP3   OH257623   5.338   4.643   9.002
19249TIP3    H157624   5.323   4.626   9.097
19249TIP3    H257625   5.249   4.618   8.969
19250TIP3   OH257626   5.581   4.599   8.860
19250TIP3    H157627   5.503   4.591   8.919
19250TIP3    H257628   5.652   4.562   8.917
19251TIP3   OH257629   5.808   4.534   9.015
19251TIP3    H157630   5.820   4.437   9.028
19251TIP3    H257631   5.805   4.568   9.107
19252TIP3   OH257632   4.798   4.478   9.194
19252TIP3    H157633   4.803   4.387   9.161
19252TIP3    H257634   4.834   4.467   9.284
19253TIP3   OH257635   5.311   4.150   9.041
19253TIP3    H157636   5.376   4.077   9.038
19253TIP3    H257637   5.269   4.140   8.953
19254TIP3   OH257638   5.377   4.366   9.196
19254TIP3    H157639   5.353   4.292   9.135
19254TIP3    H257640   5.296   4.421   9.193
19255TIP3   OH257641   4.075   4.973   7.516
19255TIP3    H157642   4.170   4.992   7.504
19255TIP3    H257643   4.068   4.883   7.477
19256TIP3   OH257644   3.991   5.583   7.931
19256TIP3    H157645   3.921   5.523   7.897
19256TIP3    H257646   4.034   5.525   7.998
19257TIP3   OH257647   4.128   5.434   8.118
19257TIP3    H157648   4.113   5.362   8.182
19257TIP3    H257649   4.176   5.497   8.175
19258TIP3   OH257650   5.852   5.832   7.919
19258TIP3    H157651   5.873   5.869   8.007
19258TIP3    H257652   5.905   5.889   7.861
19259TIP3   OH257653   5.878   5.855   8.198
19259TIP3    H157654   5.840   5.765   8.198
19259TIP3    H257655   5.954   5.841   8.257
19260TIP3   OH257656   5.929   5.532   8.774
19260TIP3    H157657   5.855   5.541   8.837
19260TIP3    H257658   5.969   5.621   8.777
19261TIP3   OH257659   5.744   5.046   7.393
19261TIP3    H157660   5.812   5.110   7.366
19261TIP3    H257661   5.786   5.006   7.472
19262TIP3   OH257662   5.871   4.912   7.596
19262TIP3    H157663   5.806   4.870   7.656
19262TIP3    H257664   5.936   4.951   7.658
19263TIP3   OH257665   5.925   5.304   8.029
19263TIP3    H157666   5.979   5.243   7.977
19263TIP3    H257667   5.918   5.382   7.970
19264TIP3   OH257668   5.757   5.602   8.227
19264TIP3    H157669   5.688   5.651   8.275
19264TIP3    H257670   5.705   5.558   8.156
19265TIP3   OH257671   5.810   4.821   7.244
19265TIP3    H157672   5.738   4.824   7.177
19265TIP3    H257673   5.783   4.897   7.299
19266TIP3   OH257674   5.682   4.494   7.198
19266TIP3    H157675   5.637   4.532   7.121
19266TIP3    H257676   5.657   4.399   7.188
19267TIP3   OH257677   5.685   4.769   7.743
19267TIP3    H157678   5.692   4.672   7.739
19267TIP3    H257679   5.671   4.784   7.839
19268TIP3   OH257680   4.312   4.844   8.490
19268TIP3    H157681   4.310   4.812   8.397
19268TIP3    H257682   4.409   4.845   8.507
19269TIP3   OH257683   5.973   5.193   8.601
19269TIP3    H157684   6.047   5.129   8.591
19269TIP3    H257685   6.000   5.266   8.542
19270TIP3   OH257686   6.158   4.999   8.617
19270TIP3    H157687   6.084   4.949   8.657
19270TIP3    H257688   6.232   4.936   8.630
19271TIP3   OH257689   5.625   4.227   7.184
19271TIP3    H157690   5.694   4.194   7.243
19271TIP3    H257691   5.547   4.172   7.205
19272TIP3   OH257692   5.682   4.485   7.639
19272TIP3    H157693   5.722   4.397   7.654
19272TIP3    H257694   5.740   4.518   7.568
19273TIP3   OH257695   5.844   4.658   8.134
19273TIP3    H157696   5.930   4.686   8.094
19273TIP3    H257697   5.856   4.697   8.223
19274TIP3   OH257698   5.911   4.804   8.366
19274TIP3    H157699   5.833   4.838   8.414
19274TIP3    H257700   5.943   4.885   8.321
19275TIP3   OH257701   4.532   4.536   9.164
19275TIP3    H157702   4.630   4.527   9.168
19275TIP3    H257703   4.506   4.450   9.202
19276TIP3   OH257704   6.363   4.393   8.922
19276TIP3    H157705   6.421   4.328   8.879
19276TIP3    H257706   6.336   4.450   8.846
19277TIP3   OH257707   5.792   4.235   7.676
19277TIP3    H157708   5.837   4.218   7.761
19277TIP3    H257709   5.730   4.159   7.674
19278TIP3   OH257710   4.491   4.221   8.496
19278TIP3    H157711   4.553   4.147   8.507
19278TIP3    H257712   4.553   4.296   8.490
19279TIP3   OH257713   4.293   4.496   8.569
19279TIP3    H157714   4.342   4.488   8.485
19279TIP3    H257715   4.324   4.581   8.601
19280TIP3   OH257716   6.235   4.534   8.728
19280TIP3    H157717   6.148   4.574   8.749
19280TIP3    H257718   6.205   4.462   8.669
19281TIP3   OH257719   5.874   4.169   7.312
19281TIP3    H157720   5.911   4.099   7.255
19281TIP3    H257721   5.938   4.242   7.300
19282TIP3   OH257722   4.276   4.002   8.073
19282TIP3    H157723   4.182   3.997   8.096
19282TIP3    H257724   4.275   4.058   7.992
19283TIP3   OH257725   5.429   5.700   7.573
19283TIP3    H157726   5.489   5.691   7.495
19283TIP3    H257727   5.476   5.768   7.625
19284TIP3   OH257728   4.497   4.080   8.884
19284TIP3    H157729   4.448   4.074   8.967
19284TIP3    H257730   4.429   4.117   8.825
19285TIP3   OH257731   4.537   5.505   8.960
19285TIP3    H157732   4.444   5.479   8.945
19285TIP3    H257733   4.546   5.489   9.055
19286TIP3   OH257734   4.715   5.537   8.508
19286TIP3    H157735   4.667   5.613   8.470
19286TIP3    H257736   4.801   5.552   8.464
19287TIP3   OH257737   5.159   5.782   8.646
19287TIP3    H157738   5.201   5.785   8.735
19287TIP3    H257739   5.225   5.833   8.594
19288TIP3   OH257740   5.339   5.931   8.506
19288TIP3    H157741   5.414   5.889   8.462
19288TIP3    H257742   5.387   5.994   8.565
19289TIP3   OH257743   6.135   4.297   8.604
19289TIP3    H157744   6.042   4.291   8.574
19289TIP3    H257745   6.164   4.204   8.592
19290TIP3   OH257746   4.391   5.794   8.533
19290TIP3    H157747   4.301   5.828   8.510
19290TIP3    H257748   4.403   5.835   8.619
19291TIP3   OH257749   4.625   5.771   8.388
19291TIP3    H157750   4.540   5.785   8.435
19291TIP3    H257751   4.606   5.808   8.300
19292TIP3   OH257752   5.052   5.801   8.187
19292TIP3    H157753   4.986   5.828   8.121
19292TIP3    H257754   5.069   5.887   8.232
19293TIP3   OH257755   5.323   5.741   8.236
19293TIP3    H157756   5.228   5.761   8.220
19293TIP3    H257757   5.366   5.822   8.202
19294TIP3   OH257758   5.522   5.939   8.158
19294TIP3    H157759   5.499   6.031   8.133
19294TIP3    H257760   5.551   5.899   8.074
19295TIP3   OH257761   4.304   5.590   8.276
19295TIP3    H157762   4.328   5.564   8.368
19295TIP3    H257763   4.377   5.546   8.227
19296TIP3   OH257764   4.498   5.460   8.132
19296TIP3    H157765   4.511   5.376   8.183
19296TIP3    H257766   4.589   5.497   8.135
19297TIP3   OH257767   4.762   5.552   8.137
19297TIP3    H157768   4.795   5.460   8.133
19297TIP3    H257769   4.806   5.581   8.219
19298TIP3   OH257770   5.339   4.212   8.226
19298TIP3    H157771   5.294   4.143   8.278
19298TIP3    H257772   5.409   4.162   8.180
19299TIP3   OH257773   5.864   4.093   8.129
19299TIP3    H157774   5.897   4.146   8.054
19299TIP3    H257775   5.767   4.109   8.124
19300TIP3   OH257776   5.959   4.191   7.893
19300TIP3    H157777   6.032   4.142   7.851
19300TIP3    H257778   5.989   4.284   7.879
19301TIP3   OH257779   4.587   3.921   8.241
19301TIP3    H157780   4.495   3.887   8.242
19301TIP3    H257781   4.637   3.836   8.238
19302TIP3   OH257782   4.375   3.790   7.889
19302TIP3    H157783   4.404   3.847   7.816
19302TIP3    H257784   4.345   3.856   7.955
19303TIP3   OH257785   5.030   3.954   8.121
19303TIP3    H157786   5.090   4.004   8.063
19303TIP3    H257787   5.052   3.990   8.208
19304TIP3   OH257788   5.582   4.100   8.105
19304TIP3    H157789   5.572   4.063   8.016
19304TIP3    H257790   5.567   4.019   8.161
19305TIP3   OH257791   5.608   4.022   7.668
19305TIP3    H157792   5.521   4.064   7.677
19305TIP3    H257793   5.592   3.937   7.714
19306TIP3   OH257794   4.096   5.363   7.661
19306TIP3    H157795   4.011   5.327   7.631
19306TIP3    H257796   4.078   5.458   7.649
19307TIP3   OH257797   4.490   3.950   7.652
19307TIP3    H157798   4.538   3.886   7.595
19307TIP3    H257799   4.564   4.003   7.688
19308TIP3   OH257800   5.002   4.125   7.751
19308TIP3    H157801   5.061   4.077   7.811
19308TIP3    H257802   5.025   4.217   7.777
19309TIP3   OH257803   4.865   5.552   7.258
19309TIP3    H157804   4.951   5.570   7.216
19309TIP3    H257805   4.832   5.483   7.196
19310TIP3   OH257806   5.582   5.668   7.343
19310TIP3    H157807   5.571   5.571   7.329
19310TIP3    H257808   5.538   5.703   7.263
19311TIP3   OH257809   4.795   4.202   9.133
19311TIP3    H157810   4.763   4.131   9.191
19311TIP3    H257811   4.890   4.203   9.159
19312TIP3   OH257812   5.044   4.198   9.252
19312TIP3    H157813   5.129   4.167   9.216
19312TIP3    H257814   5.029   4.132   9.323
19313TIP3   OH257815   4.172   5.393   7.309
19313TIP3    H157816   4.148   5.404   7.402
19313TIP3    H257817   4.249   5.333   7.313
19314TIP3   OH257818   5.868   4.263   9.039
19314TIP3    H157819   5.887   4.230   9.130
19314TIP3    H257820   5.956   4.257   8.997
19315TIP3   OH257821   5.808   5.812   8.531
19315TIP3    H157822   5.729   5.782   8.481
19315TIP3    H257823   5.791   5.908   8.534
19316TIP3   OH257824   7.075   5.184   7.295
19316TIP3    H157825   7.048   5.277   7.277
19316TIP3    H257826   6.995   5.138   7.266
19317TIP3   OH257827   7.077   5.181   7.676
19317TIP3    H157828   7.106   5.159   7.766
19317TIP3    H257829   7.029   5.102   7.649
19318TIP3   OH257830   6.374   5.079   8.041
19318TIP3    H157831   6.405   5.013   8.106
19318TIP3    H257832   6.447   5.143   8.043
19319TIP3   OH257833   7.318   5.484   7.361
19319TIP3    H157834   7.301   5.421   7.432
19319TIP3    H257835   7.344   5.563   7.411
19320TIP3   OH257836   6.344   5.489   7.767
19320TIP3    H157837   6.334   5.392   7.771
19320TIP3    H257838   6.441   5.498   7.764
19321TIP3   OH257839   6.051   4.694   7.554
19321TIP3    H157840   6.002   4.777   7.569
19321TIP3    H257841   5.980   4.640   7.515
19322TIP3   OH257842   6.109   4.980   7.724
19322TIP3    H157843   6.159   4.905   7.762
19322TIP3    H257844   6.170   5.014   7.657
19323TIP3   OH257845   6.963   5.948   7.373
19323TIP3    H157846   7.012   5.875   7.329
19323TIP3    H257847   6.957   5.917   7.464
19324TIP3   OH257848   6.872   5.409   7.726
19324TIP3    H157849   6.912   5.336   7.676
19324TIP3    H257850   6.955   5.455   7.753
19325TIP3   OH257851   7.885   4.732   7.725
19325TIP3    H157852   7.912   4.813   7.773
19325TIP3    H257853   7.904   4.758   7.633
19326TIP3   OH257854   7.285   4.912   7.759
19326TIP3    H157855   7.326   4.826   7.779
19326TIP3    H257856   7.253   4.897   7.668
19327TIP3   OH257857   6.624   4.571   7.724
19327TIP3    H157858   6.601   4.645   7.664
19327TIP3    H257859   6.574   4.498   7.681
19328TIP3   OH257860   7.313   4.659   7.352
19328TIP3    H157861   7.387   4.645   7.416
19328TIP3    H257862   7.363   4.695   7.276
19329TIP3   OH257863   6.255   4.774   7.832
19329TIP3    H157864   6.338   4.755   7.879
19329TIP3    H257865   6.267   4.718   7.752
19330TIP3   OH257866   6.697   4.971   7.620
19330TIP3    H157867   6.790   4.945   7.636
19330TIP3    H257868   6.657   4.887   7.590
19331TIP3   OH257869   7.955   4.937   7.896
19331TIP3    H157870   7.872   4.987   7.880
19331TIP3    H257871   7.979   4.969   7.984
19332TIP3   OH257872   6.618   4.552   8.158
19332TIP3    H157873   6.559   4.593   8.091
19332TIP3    H257874   6.567   4.571   8.239
19333TIP3   OH257875   6.969   5.407   7.165
19333TIP3    H157876   6.922   5.387   7.083
19333TIP3    H257877   6.925   5.491   7.190
19334TIP3   OH257878   6.724   5.329   7.955
19334TIP3    H157879   6.661   5.395   7.992
19334TIP3    H257880   6.767   5.382   7.884
19335TIP3   OH257881   7.529   4.665   7.520
19335TIP3    H157882   7.508   4.624   7.605
19335TIP3    H257883   7.579   4.744   7.548
19336TIP3   OH257884   6.490   4.670   7.943
19336TIP3    H157885   6.550   4.745   7.966
19336TIP3    H257886   6.540   4.630   7.868
19337TIP3   OH257887   6.552   5.523   8.049
19337TIP3    H157888   6.528   5.610   8.012
19337TIP3    H257889   6.474   5.509   8.107
19338TIP3   OH257890   5.949   5.214   7.288
19338TIP3    H157891   5.907   5.241   7.205
19338TIP3    H257892   5.978   5.300   7.325
19339TIP3   OH257893   7.387   5.727   7.524
19339TIP3    H157894   7.298   5.720   7.566
19339TIP3    H257895   7.380   5.815   7.482
19340TIP3   OH257896   7.679   4.625   7.887
19340TIP3    H157897   7.592   4.662   7.863
19340TIP3    H257898   7.737   4.661   7.818
19341TIP3   OH257899   6.976   4.296   7.867
19341TIP3    H157900   6.991   4.214   7.916
19341TIP3    H257901   6.896   4.330   7.913
19342TIP3   OH257902   7.091   5.774   7.203
19342TIP3    H157903   7.143   5.694   7.180
19342TIP3    H257904   7.149   5.842   7.161
19343TIP3   OH257905   7.234   5.559   7.107
19343TIP3    H157906   7.185   5.482   7.075
19343TIP3    H257907   7.270   5.525   7.192
19344TIP3   OH257908   7.613   5.643   7.871
19344TIP3    H157909   7.602   5.566   7.811
19344TIP3    H257910   7.594   5.719   7.811
19345TIP3   OH257911   6.903   5.034   7.127
19345TIP3    H157912   6.822   5.086   7.109
19345TIP3    H257913   6.948   5.037   7.041
19346TIP3   OH257914   6.864   4.821   6.844
19346TIP3    H157915   6.931   4.870   6.895
19346TIP3    H257916   6.922   4.758   6.797
19347TIP3   OH257917   7.808   5.275   7.712
19347TIP3    H157918   7.726   5.330   7.720
19347TIP3    H257919   7.838   5.303   7.623
19348TIP3   OH257920   7.253   5.116   7.101
19348TIP3    H157921   7.196   5.144   7.177
19348TIP3    H257922   7.336   5.094   7.149
19349TIP3   OH257923   7.487   5.158   8.012
19349TIP3    H157924   7.487   5.241   8.064
19349TIP3    H257925   7.401   5.166   7.967
19350TIP3   OH257926   6.484   5.116   7.516
19350TIP3    H157927   6.443   5.058   7.448
19350TIP3    H257928   6.562   5.064   7.544
19351TIP3   OH257929   6.614   5.527   7.665
19351TIP3    H157930   6.595   5.485   7.580
19351TIP3    H257931   6.704   5.495   7.684
19352TIP3   OH257932   6.626   5.087   7.870
19352TIP3    H157933   6.657   5.071   7.778
19352TIP3    H257934   6.665   5.174   7.892
19353TIP3   OH257935   7.148   5.724   7.648
19353TIP3    H157936   7.131   5.806   7.698
19353TIP3    H257937   7.131   5.654   7.714
19354TIP3   OH257938   6.758   5.642   8.195
19354TIP3    H157939   6.700   5.707   8.241
19354TIP3    H257940   6.691   5.591   8.146
19355TIP3   OH257941   7.096   4.975   6.926
19355TIP3    H157942   7.152   5.037   6.979
19355TIP3    H257943   7.121   5.000   6.834
19356TIP3   OH257944   6.512   5.199   8.295
19356TIP3    H157945   6.518   5.287   8.338
19356TIP3    H257946   6.417   5.182   8.307
19357TIP3   OH257947   6.837   5.655   7.200
19357TIP3    H157948   6.914   5.711   7.220
19357TIP3    H257949   6.774   5.719   7.165
19358TIP3   OH257950   6.554   5.811   8.281
19358TIP3    H157951   6.518   5.812   8.191
19358TIP3    H257952   6.474   5.790   8.335
19359TIP3   OH257953   7.608   4.216   6.975
19359TIP3    H157954   7.526   4.237   7.025
19359TIP3    H257955   7.621   4.299   6.925
19360TIP3   OH257956   6.352   4.958   7.318
19360TIP3    H157957   6.286   5.006   7.264
19360TIP3    H257958   6.305   4.875   7.335
19361TIP3   OH257959   7.406   5.584   6.520
19361TIP3    H157960   7.412   5.681   6.508
19361TIP3    H257961   7.499   5.558   6.510
19362TIP3   OH257962   6.131   5.343   8.229
19362TIP3    H157963   6.065   5.322   8.160
19362TIP3    H257964   6.168   5.255   8.252
19363TIP3   OH257965   5.986   5.535   7.864
19363TIP3    H157966   6.082   5.536   7.856
19363TIP3    H257967   5.970   5.617   7.914
19364TIP3   OH257968   7.852   5.987   7.917
19364TIP3    H157969   7.850   5.891   7.934
19364TIP3    H257970   7.769   6.014   7.962
19365TIP3   OH257971   6.957   5.773   8.052
19365TIP3    H157972   6.957   5.866   8.084
19365TIP3    H257973   6.886   5.734   8.107
19366TIP3   OH257974   6.717   5.903   7.004
19366TIP3    H157975   6.670   5.886   6.920
19366TIP3    H257976   6.685   5.992   7.029
19367TIP3   OH257977   6.155   5.752   7.386
19367TIP3    H157978   6.204   5.744   7.471
19367TIP3    H257979   6.092   5.678   7.395
19368TIP3   OH257980   6.918   5.804   6.644
19368TIP3    H157981   6.977   5.733   6.608
19368TIP3    H257982   6.952   5.814   6.735
19369TIP3   OH257983   6.969   5.851   6.913
19369TIP3    H157984   6.880   5.862   6.955
19369TIP3    H257985   7.020   5.815   6.987
19370TIP3   OH257986   7.744   5.119   8.192
19370TIP3    H157987   7.660   5.133   8.145
19370TIP3    H257988   7.755   5.022   8.184
19371TIP3   OH257989   6.339   5.524   8.216
19371TIP3    H157990   6.386   5.512   8.300
19371TIP3    H257991   6.263   5.463   8.226
19372TIP3   OH257992   6.737   4.350   7.999
19372TIP3    H157993   6.645   4.322   7.976
19372TIP3    H257994   6.715   4.434   8.044
19373TIP3   OH257995   7.271   4.460   8.196
19373TIP3    H157996   7.339   4.440   8.263
19373TIP3    H257997   7.187   4.446   8.245
19374TIP3   OH257998   7.508   4.894   8.112
19374TIP3    H157999   7.461   4.890   8.199
19374TIP3    H258000   7.485   4.983   8.079
19375TIP3   OH258001   7.176   5.018   6.670
19375TIP3    H158002   7.139   4.996   6.582
19375TIP3    H258003   7.244   5.083   6.647
19376TIP3   OH258004   6.883   4.396   6.972
19376TIP3    H158005   6.849   4.396   7.064
19376TIP3    H258006   6.841   4.315   6.938
19377TIP3   OH258007   6.668   4.864   8.019
19377TIP3    H158008   6.618   4.886   8.101
19377TIP3    H258009   6.653   4.946   7.966
19378TIP3   OH258010   6.552   4.750   7.534
19378TIP3    H158011   6.459   4.726   7.551
19378TIP3    H258012   6.564   4.710   7.445
19379TIP3   OH258013   7.041   4.838   7.261
19379TIP3    H158014   6.987   4.909   7.221
19379TIP3    H258015   7.093   4.807   7.185
19380TIP3   OH258016   7.216   5.114   8.345
19380TIP3    H158017   7.194   5.043   8.409
19380TIP3    H258018   7.309   5.133   8.369
19381TIP3   OH258019   7.198   4.866   7.502
19381TIP3    H158020   7.139   4.899   7.432
19381TIP3    H258021   7.228   4.783   7.458
19382TIP3   OH258022   6.488   4.894   8.229
19382TIP3    H158023   6.511   4.960   8.296
19382TIP3    H258024   6.475   4.814   8.282
19383TIP3   OH258025   6.539   4.373   6.939
19383TIP3    H158026   6.527   4.370   7.036
19383TIP3    H258027   6.460   4.423   6.912
19384TIP3   OH258028   6.079   4.417   7.810
19384TIP3    H158029   6.155   4.449   7.862
19384TIP3    H258030   6.118   4.386   7.727
19385TIP3   OH258031   6.055   4.399   7.329
19385TIP3    H158032   6.097   4.439   7.250
19385TIP3    H258033   5.992   4.470   7.352
19386TIP3   OH258034   7.207   5.112   7.923
19386TIP3    H158035   7.242   5.041   7.865
19386TIP3    H258036   7.180   5.060   8.001
19387TIP3   OH258037   6.878   4.566   7.595
19387TIP3    H158038   6.794   4.570   7.645
19387TIP3    H258039   6.943   4.582   7.666
19388TIP3   OH258040   6.313   4.630   7.603
19388TIP3    H158041   6.218   4.640   7.577
19388TIP3    H258042   6.333   4.538   7.579
19389TIP3   OH258043   6.584   4.624   7.291
19389TIP3    H158044   6.676   4.644   7.267
19389TIP3    H258045   6.534   4.649   7.210
19390TIP3   OH258046   7.370   4.647   7.791
19390TIP3    H158047   7.342   4.660   7.885
19390TIP3    H258048   7.298   4.589   7.759
19391TIP3   OH258049   6.425   4.657   7.072
19391TIP3    H158050   6.352   4.614   7.024
19391TIP3    H258051   6.476   4.693   6.996
19392TIP3   OH258052   7.540   6.336   8.016
19392TIP3    H158053   7.538   6.363   7.923
19392TIP3    H258054   7.619   6.385   8.048
19393TIP3   OH258055   6.499   5.445   8.438
19393TIP3    H158056   6.578   5.478   8.485
19393TIP3    H258057   6.433   5.449   8.511
19394TIP3   OH258058   6.961   4.898   7.691
19394TIP3    H158059   7.039   4.864   7.644
19394TIP3    H258060   6.973   4.862   7.781
19395TIP3   OH258061   6.488   4.388   7.572
19395TIP3    H158062   6.452   4.308   7.615
19395TIP3    H258063   6.528   4.352   7.491
19396TIP3   OH258064   6.939   4.798   7.985
19396TIP3    H158065   6.849   4.836   7.998
19396TIP3    H258066   6.996   4.859   8.034
19397TIP3   OH258067   6.677   5.188   7.078
19397TIP3    H158068   6.603   5.125   7.067
19397TIP3    H258069   6.658   5.223   7.169
19398TIP3   OH258070   7.577   5.423   7.707
19398TIP3    H158071   7.601   5.474   7.626
19398TIP3    H258072   7.490   5.386   7.682
19399TIP3   OH258073   7.134   4.499   6.940
19399TIP3    H158074   7.037   4.482   6.947
19399TIP3    H258075   7.141   4.595   6.961
19400TIP3   OH258076   7.072   5.506   8.076
19400TIP3    H158077   7.099   5.489   8.167
19400TIP3    H258078   7.036   5.596   8.080
19401TIP3   OH258079   7.199   4.747   7.042
19401TIP3    H158080   7.294   4.756   7.062
19401TIP3    H258081   7.178   4.828   6.992
19402TIP3   OH258082   6.366   5.208   7.754
19402TIP3    H158083   6.407   5.182   7.670
19402TIP3    H258084   6.407   5.147   7.817
19403TIP3   OH258085   6.821   5.338   6.898
19403TIP3    H158086   6.773   5.425   6.904
19403TIP3    H258087   6.766   5.284   6.959
19404TIP3   OH258088   6.249   5.129   8.366
19404TIP3    H158089   6.270   5.119   8.461
19404TIP3    H258090   6.178   5.064   8.353
19405TIP3   OH258091   6.973   5.245   8.387
19405TIP3    H158092   6.915   5.186   8.336
19405TIP3    H258093   7.062   5.214   8.359
19406TIP3   OH258094   7.235   5.761   7.972
19406TIP3    H158095   7.138   5.766   7.984
19406TIP3    H258096   7.264   5.815   8.049
19407TIP3   OH258097   7.862   5.694   7.961
19407TIP3    H158098   7.764   5.691   7.952
19407TIP3    H258099   7.888   5.667   7.871
19408TIP3   OH258100   7.345   5.658   6.786
19408TIP3    H158101   7.321   5.590   6.850
19408TIP3    H258102   7.357   5.610   6.703
19409TIP3   OH258103   7.341   5.288   7.624
19409TIP3    H158104   7.248   5.263   7.639
19409TIP3    H258105   7.375   5.208   7.580
19410TIP3   OH258106   6.468   5.513   7.374
19410TIP3    H158107   6.469   5.596   7.324
19410TIP3    H258108   6.374   5.503   7.391
19411TIP3   OH258109   6.033   4.819   7.083
19411TIP3    H158110   6.078   4.904   7.102
19411TIP3    H258111   5.954   4.826   7.142
19412TIP3   OH258112   6.608   5.280   7.323
19412TIP3    H158113   6.572   5.370   7.338
19412TIP3    H258114   6.570   5.232   7.399
19413TIP3   OH258115   6.738   5.858   7.847
19413TIP3    H158116   6.777   5.933   7.797
19413TIP3    H258117   6.815   5.827   7.898
19414TIP3   OH258118   6.389   5.753   7.231
19414TIP3    H158119   6.303   5.762   7.276
19414TIP3    H258120   6.421   5.846   7.234
19415TIP3   OH258121   7.125   5.491   7.807
19415TIP3    H158122   7.115   5.492   7.905
19415TIP3    H258123   7.210   5.445   7.797
19416TIP3   OH258124   7.099   5.380   6.687
19416TIP3    H158125   7.152   5.358   6.767
19416TIP3    H258126   7.009   5.361   6.719
19417TIP3   OH258127   7.375   6.025   7.855
19417TIP3    H158128   7.295   5.971   7.847
19417TIP3    H258129   7.361   6.092   7.784
19418TIP3   OH258130   7.439   5.860   6.508
19418TIP3    H158131   7.478   5.933   6.457
19418TIP3    H258132   7.360   5.907   6.542
19419TIP3   OH258133   6.461   4.634   8.374
19419TIP3    H158134   6.365   4.642   8.390
19419TIP3    H258135   6.489   4.579   8.449
19420TIP3   OH258136   7.258   5.313   6.901
19420TIP3    H158137   7.252   5.253   6.978
19420TIP3    H258138   7.356   5.318   6.891
19421TIP3   OH258139   6.178   5.721   8.005
19421TIP3    H158140   6.232   5.650   8.044
19421TIP3    H258141   6.199   5.796   8.063
19422TIP3   OH258142   6.468   5.366   6.687
19422TIP3    H158143   6.480   5.273   6.660
19422TIP3    H258144   6.449   5.355   6.783
19423TIP3   OH258145   6.414   5.371   6.959
19423TIP3    H158146   6.481   5.346   7.024
19423TIP3    H258147   6.415   5.469   6.966
19424TIP3   OH258148   6.148   5.065   7.164
19424TIP3    H158149   6.082   5.110   7.221
19424TIP3    H258150   6.162   5.135   7.097
19425TIP3   OH258151   7.303   4.695   8.050
19425TIP3    H158152   7.374   4.741   8.096
19425TIP3    H258153   7.286   4.618   8.108
19426TIP3   OH258154   7.179   4.450   7.219
19426TIP3    H158155   7.162   4.475   7.126
19426TIP3    H258156   7.215   4.533   7.256
19427TIP3   OH258157   6.677   5.568   6.908
19427TIP3    H158158   6.591   5.595   6.944
19427TIP3    H258159   6.696   5.644   6.850
19428TIP3   OH258160   6.870   4.630   7.323
19428TIP3    H158161   6.932   4.704   7.305
19428TIP3    H258162   6.871   4.625   7.420
19429TIP3   OH258163   7.136   4.950   8.132
19429TIP3    H158164   7.153   5.010   8.208
19429TIP3    H258165   7.193   4.875   8.154
19430TIP3   OH258166   7.012   4.358   7.427
19430TIP3    H158167   6.998   4.437   7.483
19430TIP3    H258168   7.072   4.396   7.358
19431TIP3   OH258169   6.420   5.643   6.977
19431TIP3    H158170   6.391   5.713   6.914
19431TIP3    H258171   6.405   5.687   7.063
19432TIP3   OH258172   6.523   4.356   7.217
19432TIP3    H158173   6.518   4.448   7.249
19432TIP3    H258174   6.619   4.342   7.224
19433TIP3   OH258175   7.774   4.849   8.112
19433TIP3    H158176   7.676   4.847   8.119
19433TIP3    H258177   7.787   4.818   8.022
19434TIP3   OH258178   7.427   5.045   7.499
19434TIP3    H158179   7.349   4.988   7.515
19434TIP3    H258180   7.497   4.999   7.549
19435TIP3   OH258181   6.138   5.274   6.971
19435TIP3    H158182   6.201   5.348   6.979
19435TIP3    H258183   6.185   5.222   6.903
19436TIP3   OH258184   6.085   4.549   7.101
19436TIP3    H158185   6.082   4.647   7.099
19436TIP3    H258186   6.000   4.526   7.061
19437TIP3   OH258187   7.395   5.999   7.448
19437TIP3    H158188   7.352   6.046   7.373
19437TIP3    H258189   7.489   6.019   7.428
19438TIP3   OH258190   6.475   4.268   7.975
19438TIP3    H158191   6.438   4.238   7.889
19438TIP3    H258192   6.460   4.191   8.033
19439TIP3   OH258193   6.008   5.482   7.357
19439TIP3    H158194   5.941   5.518   7.417
19439TIP3    H258195   5.984   5.527   7.273
19440TIP3   OH258196   6.168   6.030   8.428
19440TIP3    H158197   6.253   6.032   8.477
19440TIP3    H258198   6.147   5.936   8.428
19441TIP3   OH258199   6.647   5.994   8.474
19441TIP3    H158200   6.743   5.980   8.481
19441TIP3    H258201   6.625   5.936   8.399
19442TIP3   OH258202   6.629   5.571   6.599
19442TIP3    H158203   6.574   5.500   6.640
19442TIP3    H258204   6.705   5.518   6.568
19443TIP3   OH258205   7.291   5.898   8.203
19443TIP3    H158206   7.281   5.830   8.273
19443TIP3    H258207   7.366   5.951   8.236
19444TIP3   OH258208   7.066   5.611   6.511
19444TIP3    H158209   7.114   5.550   6.570
19444TIP3    H258210   7.122   5.614   6.432
19445TIP3   OH258211   6.298   5.436   8.629
19445TIP3    H158212   6.313   5.340   8.632
19445TIP3    H258213   6.209   5.440   8.586
19446TIP3   OH258214   6.275   5.088   6.821
19446TIP3    H158215   6.330   5.056   6.895
19446TIP3    H258216   6.342   5.092   6.750
19447TIP3   OH258217   6.907   5.521   8.402
19447TIP3    H158218   6.864   5.539   8.316
19447TIP3    H258219   6.937   5.429   8.393
19448TIP3   OH258220   6.785   5.285   6.629
19448TIP3    H158221   6.785   5.300   6.726
19448TIP3    H258222   6.782   5.187   6.625
19449TIP3   OH258223   7.397   5.528   8.005
19449TIP3    H158224   7.472   5.575   7.964
19449TIP3    H258225   7.327   5.595   7.996
19450TIP3   OH258226   6.415   5.166   8.612
19450TIP3    H158227   6.494   5.115   8.590
19450TIP3    H258228   6.440   5.203   8.699
19451TIP3   OH258229   6.484   4.990   7.045
19451TIP3    H158230   6.455   4.951   7.128
19451TIP3    H258231   6.517   4.913   6.995
19452TIP3   OH258232   6.752   5.054   8.270
19452TIP3    H158233   6.675   5.115   8.275
19452TIP3    H258234   6.800   5.088   8.191
19453TIP3   OH258235   6.583   4.782   6.885
19453TIP3    H158236   6.555   4.786   6.791
19453TIP3    H258237   6.680   4.791   6.875
19454TIP3   OH258238   7.265   5.454   8.404
19454TIP3    H158239   7.351   5.439   8.364
19454TIP3    H258240   7.265   5.391   8.479
19455TIP3   OH258241   7.430   5.102   6.543
19455TIP3    H158242   7.388   5.065   6.463
19455TIP3    H258243   7.398   5.195   6.535
19456TIP3   OH258244   6.874   4.843   8.399
19456TIP3    H158245   6.874   4.764   8.343
19456TIP3    H258246   6.831   4.910   8.341
19457TIP3   OH258247   6.878   4.625   8.203
19457TIP3    H158248   6.904   4.672   8.121
19457TIP3    H258249   6.783   4.607   8.186
19458TIP3   OH258250   6.905   5.163   8.075
19458TIP3    H158251   6.989   5.179   8.031
19458TIP3    H258252   6.848   5.232   8.035
19459TIP3   OH258253   7.485   5.132   8.458
19459TIP3    H158254   7.538   5.053   8.477
19459TIP3    H258255   7.553   5.195   8.429
19460TIP3   OH258256   7.528   5.382   8.191
19460TIP3    H158257   7.469   5.437   8.134
19460TIP3    H258258   7.616   5.405   8.152
19461TIP3   OH258259   6.752   4.955   8.628
19461TIP3    H158260   6.683   4.888   8.642
19461TIP3    H258261   6.788   4.929   8.541
19462TIP3   OH258262   7.009   4.391   8.270
19462TIP3    H158263   6.962   4.475   8.249
19462TIP3    H258264   6.936   4.326   8.262
19463TIP3   OH258265   7.137   4.897   8.488
19463TIP3    H158266   7.128   4.888   8.585
19463TIP3    H258267   7.046   4.874   8.461
19464TIP3   OH258268   7.372   4.839   8.339
19464TIP3    H158269   7.298   4.848   8.402
19464TIP3    H258270   7.447   4.814   8.398
19465TIP3   OH258271   7.601   4.786   8.493
19465TIP3    H158272   7.615   4.691   8.514
19465TIP3    H258273   7.596   4.828   8.582
19466TIP3   OH258274   6.591   4.734   8.681
19466TIP3    H158275   6.601   4.643   8.647
19466TIP3    H258276   6.628   4.724   8.772
19467TIP3   OH258277   7.105   4.404   8.528
19467TIP3    H158278   7.173   4.333   8.524
19467TIP3    H258279   7.065   4.396   8.439
19468TIP3   OH258280   7.169   4.618   8.689
19468TIP3    H158281   7.146   4.548   8.624
19468TIP3    H258282   7.091   4.678   8.683
19469TIP3   OH258283   6.390   5.843   6.787
19469TIP3    H158284   6.486   5.842   6.770
19469TIP3    H258285   6.360   5.896   6.711
19470TIP3   OH258286   5.869   5.228   7.004
19470TIP3    H158287   5.965   5.250   6.992
19470TIP3    H258288   5.865   5.139   6.963
19471TIP3   OH258289   5.787   5.839   7.417
19471TIP3    H158290   5.717   5.778   7.384
19471TIP3    H258291   5.830   5.782   7.485
19472TIP3   OH258292   5.923   5.690   7.604
19472TIP3    H158293   5.909   5.620   7.670
19472TIP3    H258294   5.972   5.754   7.659
19473TIP3   OH258295   7.649   6.089   7.405
19473TIP3    H158296   7.672   6.123   7.493
19473TIP3    H258297   7.707   6.141   7.347
19474TIP3   OH258298   7.678   6.112   7.686
19474TIP3    H158299   7.635   6.024   7.684
19474TIP3    H258300   7.751   6.093   7.746
19475TIP3   OH258301   7.723   5.788   8.259
19475TIP3    H158302   7.650   5.797   8.324
19475TIP3    H258303   7.765   5.877   8.265
19476TIP3   OH258304   7.535   5.306   6.882
19476TIP3    H158305   7.605   5.366   6.851
19476TIP3    H258306   7.582   5.257   6.952
19477TIP3   OH258307   7.672   5.157   7.076
19477TIP3    H158308   7.604   5.127   7.139
19477TIP3    H258309   7.736   5.204   7.134
19478TIP3   OH258310   7.721   5.561   7.516
19478TIP3    H158311   7.775   5.500   7.462
19478TIP3    H258312   7.713   5.639   7.458
19479TIP3   OH258313   7.553   5.861   7.712
19479TIP3    H158314   7.483   5.906   7.764
19479TIP3    H258315   7.500   5.815   7.643
19480TIP3   OH258316   7.485   5.021   7.233
19480TIP3    H158317   7.479   4.925   7.239
19480TIP3    H258318   7.469   5.047   7.327
19481TIP3   OH258319   6.109   5.097   7.978
19481TIP3    H158320   6.106   5.069   7.884
19481TIP3    H258321   6.206   5.100   7.993
19482TIP3   OH258322   7.770   5.450   8.085
19482TIP3    H158323   7.844   5.386   8.077
19482TIP3    H258324   7.799   5.523   8.029
19483TIP3   OH258325   7.956   5.256   8.099
19483TIP3    H158326   7.883   5.207   8.141
19483TIP3    H258327   8.030   5.193   8.115
19484TIP3   OH258328   7.421   4.504   6.686
19484TIP3    H158329   7.495   4.463   6.734
19484TIP3    H258330   7.348   4.441   6.698
19485TIP3   OH258331   7.470   4.736   7.136
19485TIP3    H158332   7.509   4.645   7.146
19485TIP3    H258333   7.539   4.777   7.084
19486TIP3   OH258334   7.640   4.914   7.620
19486TIP3    H158335   7.726   4.942   7.581
19486TIP3    H258336   7.650   4.953   7.709
19487TIP3   OH258337   7.705   5.059   7.851
19487TIP3    H158338   7.629   5.094   7.903
19487TIP3    H258339   7.738   5.141   7.808
19488TIP3   OH258340   6.324   4.785   8.649
19488TIP3    H158341   6.422   4.781   8.654
19488TIP3    H258342   6.301   4.701   8.693
19489TIP3   OH258343   8.161   4.649   8.409
19489TIP3    H158344   8.218   4.584   8.363
19489TIP3    H258345   8.132   4.706   8.335
19490TIP3   OH258346   7.590   4.490   7.162
19490TIP3    H158347   7.635   4.475   7.247
19490TIP3    H258348   7.528   4.414   7.159
19491TIP3   OH258349   6.289   4.476   7.979
19491TIP3    H158350   6.355   4.405   7.993
19491TIP3    H258351   6.347   4.555   7.976
19492TIP3   OH258352   6.091   4.751   8.058
19492TIP3    H158353   6.139   4.748   7.972
19492TIP3    H258354   6.114   4.839   8.089
19493TIP3   OH258355   8.032   4.791   8.218
19493TIP3    H158356   7.948   4.832   8.247
19493TIP3    H258357   7.997   4.722   8.158
19494TIP3   OH258358   7.669   4.426   6.801
19494TIP3    H158359   7.706   4.354   6.745
19494TIP3    H258360   7.733   4.498   6.790
19495TIP3   OH258361   6.073   4.257   7.559
19495TIP3    H158362   5.979   4.253   7.583
19495TIP3    H258363   6.070   4.314   7.479
19496TIP3   OH258364   7.232   5.957   7.062
19496TIP3    H158365   7.285   5.946   6.981
19496TIP3    H258366   7.281   6.027   7.109
19497TIP3   OH258367   6.291   4.329   8.367
19497TIP3    H158368   6.244   4.328   8.452
19497TIP3    H258369   6.225   4.375   8.311
19498TIP3   OH258370   6.335   5.755   8.447
19498TIP3    H158371   6.240   5.736   8.432
19498TIP3    H258372   6.342   5.750   8.543
19499TIP3   OH258373   6.511   5.793   7.995
19499TIP3    H158374   6.461   5.868   7.958
19499TIP3    H258375   6.597   5.809   7.949
19500TIP3   OH258376   6.956   6.038   8.131
19500TIP3    H158377   6.996   6.040   8.221
19500TIP3    H258378   7.022   6.091   8.081
19501TIP3   OH258379   7.136   6.191   7.992
19501TIP3    H158380   7.210   6.141   7.954
19501TIP3    H258381   7.185   6.249   8.054
19502TIP3   OH258382   7.931   4.555   8.091
19502TIP3    H158383   7.839   4.551   8.060
19502TIP3    H258384   7.959   4.461   8.079
19503TIP3   OH258385   6.189   6.049   8.021
19503TIP3    H158386   6.098   6.080   7.998
19503TIP3    H258387   6.199   6.094   8.106
19504TIP3   OH258388   6.423   6.029   7.876
19504TIP3    H158389   6.337   6.042   7.923
19504TIP3    H258390   6.402   6.065   7.788
19505TIP3   OH258391   6.850   6.060   7.673
19505TIP3    H158392   6.780   6.081   7.609
19505TIP3    H258393   6.863   6.147   7.717
19506TIP3   OH258394   7.118   5.997   7.723
19506TIP3    H158395   7.023   6.015   7.707
19506TIP3    H258396   7.159   6.077   7.686
19507TIP3   OH258397   7.327   6.192   7.642
19507TIP3    H158398   7.311   6.277   7.596
19507TIP3    H258399   7.351   6.133   7.567
19508TIP3   OH258400   6.099   5.845   7.761
19508TIP3    H158401   6.123   5.821   7.853
19508TIP3    H258402   6.173   5.802   7.713
19509TIP3   OH258403   6.294   5.716   7.619
19509TIP3    H158404   6.309   5.633   7.670
19509TIP3    H258405   6.384   5.755   7.618
19510TIP3   OH258406   6.558   5.812   7.624
19510TIP3    H158407   6.590   5.720   7.615
19510TIP3    H258408   6.601   5.837   7.708
19511TIP3   OH258409   7.142   4.474   7.712
19511TIP3    H158410   7.089   4.406   7.758
19511TIP3    H258411   7.210   4.422   7.666
19512TIP3   OH258412   7.658   4.343   7.611
19512TIP3    H158413   7.695   4.401   7.541
19512TIP3    H258414   7.564   4.369   7.611
19513TIP3   OH258415   7.756   4.456   7.378
19513TIP3    H158416   7.829   4.403   7.340
19513TIP3    H258417   7.788   4.547   7.365
19514TIP3   OH258418   6.385   4.175   7.728
19514TIP3    H158419   6.293   4.142   7.727
19514TIP3    H258420   6.435   4.091   7.724
19515TIP3   OH258421   6.180   4.047   7.379
19515TIP3    H158422   6.200   4.104   7.303
19515TIP3    H258423   6.141   4.111   7.442
19516TIP3   OH258424   6.839   4.210   7.614
19516TIP3    H158425   6.890   4.260   7.548
19516TIP3    H258426   6.845   4.269   7.691
19517TIP3   OH258427   7.374   4.353   7.593
19517TIP3    H158428   7.370   4.319   7.503
19517TIP3    H258429   7.359   4.272   7.647
19518TIP3   OH258430   7.404   4.281   7.154
19518TIP3    H158431   7.318   4.325   7.166
19518TIP3    H258432   7.388   4.195   7.199
19519TIP3   OH258433   5.888   5.617   7.155
19519TIP3    H158434   5.802   5.586   7.120
19519TIP3    H258435   5.878   5.712   7.143
19520TIP3   OH258436   6.286   4.206   7.140
19520TIP3    H158437   6.334   4.145   7.082
19520TIP3    H258438   6.358   4.261   7.176
19521TIP3   OH258439   6.800   4.380   7.238
19521TIP3    H158440   6.861   4.337   7.300
19521TIP3    H258441   6.818   4.474   7.262
19522TIP3   OH258442   6.659   5.806   6.738
19522TIP3    H158443   6.746   5.830   6.701
19522TIP3    H258444   6.637   5.731   6.678
19523TIP3   OH258445   7.379   5.925   6.830
19523TIP3    H158446   7.369   5.828   6.816
19523TIP3    H258447   7.333   5.960   6.750
19524TIP3   OH258448   6.591   4.456   8.616
19524TIP3    H158449   6.557   4.387   8.677
19524TIP3    H258450   6.685   4.458   8.645
19525TIP3   OH258451   6.838   4.454   8.737
19525TIP3    H158452   6.926   4.430   8.702
19525TIP3    H258453   6.825   4.386   8.805
19526TIP3   OH258454   5.961   5.643   6.794
19526TIP3    H158455   5.962   5.671   6.887
19526TIP3    H258456   6.050   5.602   6.784
19527TIP3   OH258457   7.664   4.515   8.526
19527TIP3    H158458   7.683   4.486   8.618
19527TIP3    H258459   7.752   4.512   8.485
19528TIP3   OH258460   7.606   6.069   8.014
19528TIP3    H158461   7.525   6.038   7.970
19528TIP3    H258462   7.586   6.165   8.021
19529TIP3   OH258463   8.869   5.439   6.786
19529TIP3    H158464   8.842   5.531   6.765
19529TIP3    H258465   8.793   5.391   6.749
19530TIP3   OH258466   8.871   5.441   7.163
19530TIP3    H158467   8.900   5.412   7.251
19530TIP3    H258468   8.827   5.363   7.128
19531TIP3   OH258469   8.170   5.335   7.529
19531TIP3    H158470   8.201   5.270   7.595
19531TIP3    H258471   8.242   5.400   7.532
19532TIP3   OH258472   9.114   5.740   6.848
19532TIP3    H158473   9.099   5.675   6.917
19532TIP3    H258474   9.141   5.818   6.898
19533TIP3   OH258475   8.140   5.744   7.254
19533TIP3    H158476   8.130   5.647   7.258
19533TIP3    H258477   8.237   5.753   7.248
19534TIP3   OH258478   7.831   4.925   7.023
19534TIP3    H158479   7.795   5.016   7.022
19534TIP3    H258480   7.795   4.894   7.107
19535TIP3   OH258481   7.908   5.234   7.204
19535TIP3    H158482   7.961   5.163   7.246
19535TIP3    H258483   7.976   5.282   7.153
19536TIP3   OH258484   8.761   6.205   6.862
19536TIP3    H158485   8.806   6.134   6.813
19536TIP3    H258486   8.755   6.168   6.951
19537TIP3   OH258487   8.668   5.666   7.214
19537TIP3    H158488   8.707   5.593   7.163
19537TIP3    H258489   8.750   5.712   7.240
19538TIP3   OH258490   9.680   4.984   7.211
19538TIP3    H158491   9.707   5.069   7.253
19538TIP3    H258492   9.705   5.001   7.118
19539TIP3   OH258493   9.078   5.166   7.248
19539TIP3    H158494   9.124   5.081   7.262
19539TIP3    H258495   9.049   5.155   7.156
19540TIP3   OH258496   8.418   4.827   7.212
19540TIP3    H158497   8.399   4.901   7.150
19540TIP3    H258498   8.369   4.755   7.168
19541TIP3   OH258499   9.112   4.920   6.834
19541TIP3    H158500   9.186   4.905   6.898
19541TIP3    H258501   9.161   4.955   6.758
19542TIP3   OH258502   8.053   5.030   7.317
19542TIP3    H158503   8.135   5.013   7.369
19542TIP3    H258504   8.072   4.975   7.238
19543TIP3   OH258505   8.494   5.228   7.108
19543TIP3    H158506   8.588   5.202   7.123
19543TIP3    H258507   8.455   5.144   7.078
19544TIP3   OH258508   9.750   5.191   7.384
19544TIP3    H158509   9.670   5.243   7.365
19544TIP3    H258510   9.783   5.235   7.465
19545TIP3   OH258511   8.415   4.811   7.646
19545TIP3    H158512   8.356   4.849   7.579
19545TIP3    H258513   8.363   4.828   7.727
19546TIP3   OH258514   8.757   5.658   6.657
19546TIP3    H158515   8.723   5.645   6.567
19546TIP3    H258516   8.717   5.745   6.680
19547TIP3   OH258517   8.520   5.586   7.442
19547TIP3    H158518   8.458   5.652   7.479
19547TIP3    H258519   8.563   5.637   7.370
19548TIP3   OH258520   9.322   4.922   7.006
19548TIP3    H158521   9.314   4.875   7.090
19548TIP3    H258522   9.378   4.998   7.030
19549TIP3   OH258523   8.285   4.927   7.431
19549TIP3    H158524   8.346   5.001   7.454
19549TIP3    H258525   8.336   4.886   7.357
19550TIP3   OH258526   8.349   5.780   7.537
19550TIP3    H158527   8.324   5.866   7.499
19550TIP3    H258528   8.271   5.765   7.595
19551TIP3   OH258529   7.747   5.468   6.773
19551TIP3    H158530   7.702   5.497   6.692
19551TIP3    H258531   7.774   5.554   6.813
19552TIP3   OH258532   9.185   5.986   7.017
19552TIP3    H158533   9.094   5.977   7.055
19552TIP3    H258534   9.176   6.070   6.969
19553TIP3   OH258535   9.474   4.882   7.377
19553TIP3    H158536   9.387   4.914   7.345
19553TIP3    H258537   9.534   4.916   7.307
19554TIP3   OH258538   8.776   4.527   7.365
19554TIP3    H158539   8.756   4.432   7.378
19554TIP3    H258540   8.697   4.567   7.408
19555TIP3   OH258541   8.884   6.033   6.689
19555TIP3    H158542   8.934   5.951   6.665
19555TIP3    H258543   8.944   6.100   6.647
19556TIP3   OH258544   9.023   5.816   6.597
19556TIP3    H158545   9.000   5.736   6.548
19556TIP3    H258546   9.060   5.780   6.680
19557TIP3   OH258547   9.406   5.905   7.359
19557TIP3    H158548   9.400   5.826   7.301
19557TIP3    H258549   9.391   5.978   7.296
19558TIP3   OH258550   8.700   5.292   6.615
19558TIP3    H158551   8.621   5.346   6.593
19558TIP3    H258552   8.748   5.291   6.530
19559TIP3   OH258553   8.660   5.075   6.335
19559TIP3    H158554   8.728   5.128   6.381
19559TIP3    H258555   8.718   5.013   6.285
19560TIP3   OH258556   9.609   5.540   7.205
19560TIP3    H158557   9.525   5.591   7.211
19560TIP3    H258558   9.634   5.560   7.112
19561TIP3   OH258559   9.046   5.374   6.588
19561TIP3    H158560   8.993   5.400   6.666
19561TIP3    H258561   9.131   5.349   6.631
19562TIP3   OH258562   9.283   5.412   7.500
19562TIP3    H158563   9.283   5.498   7.546
19562TIP3    H258564   9.197   5.418   7.453
19563TIP3   OH258565   8.280   5.372   7.005
19563TIP3    H158566   8.241   5.316   6.935
19563TIP3    H258567   8.359   5.321   7.032
19564TIP3   OH258568   8.408   5.781   7.153
19564TIP3    H158569   8.391   5.744   7.065
19564TIP3    H258570   8.499   5.750   7.171
19565TIP3   OH258571   8.419   5.345   7.355
19565TIP3    H158572   8.453   5.327   7.265
19565TIP3    H258573   8.460   5.431   7.378
19566TIP3   OH258574   8.943   5.982   7.135
19566TIP3    H158575   8.926   6.063   7.187
19566TIP3    H258576   8.927   5.910   7.200
19567TIP3   OH258577   8.553   5.900   7.683
19567TIP3    H158578   8.494   5.964   7.729
19567TIP3    H258579   8.486   5.849   7.633
19568TIP3   OH258580   8.888   5.233   6.413
19568TIP3    H158581   8.948   5.292   6.464
19568TIP3    H258582   8.914   5.256   6.320
19569TIP3   OH258583   8.308   5.456   7.780
19569TIP3    H158584   8.315   5.543   7.825
19569TIP3    H258585   8.213   5.438   7.795
19570TIP3   OH258586   8.631   5.914   6.691
19570TIP3    H158587   8.712   5.968   6.704
19570TIP3    H258588   8.571   5.977   6.649
19571TIP3   OH258589   8.349   6.072   7.771
19571TIP3    H158590   8.314   6.070   7.680
19571TIP3    H258591   8.269   6.049   7.824
19572TIP3   OH258592   9.400   4.487   6.467
19572TIP3    H158593   9.316   4.508   6.513
19572TIP3    H258594   9.413   4.567   6.412
19573TIP3   OH258595   8.150   5.216   6.806
19573TIP3    H158596   8.087   5.266   6.750
19573TIP3    H258597   8.101   5.134   6.822
19574TIP3   OH258598   9.202   5.842   6.012
19574TIP3    H158599   9.208   5.939   5.993
19574TIP3    H258600   9.295   5.815   5.998
19575TIP3   OH258601   7.928   5.599   7.715
19575TIP3    H158602   7.861   5.577   7.648
19575TIP3    H258603   7.965   5.512   7.740
19576TIP3   OH258604   7.782   5.791   7.351
19576TIP3    H158605   7.879   5.793   7.342
19576TIP3    H258606   7.767   5.873   7.402
19577TIP3   OH258607   8.755   6.025   7.539
19577TIP3    H158608   8.750   6.120   7.566
19577TIP3    H258609   8.682   5.988   7.594
19578TIP3   OH258610   8.510   6.157   6.493
19578TIP3    H158611   8.469   6.139   6.406
19578TIP3    H258612   8.481   6.248   6.513
19579TIP3   OH258613   7.950   6.009   6.873
19579TIP3    H158614   7.999   5.999   6.958
19579TIP3    H258615   7.887   5.936   6.882
19580TIP3   OH258616   8.712   6.059   6.131
19580TIP3    H158617   8.771   5.991   6.091
19580TIP3    H258618   8.751   6.069   6.220
19581TIP3   OH258619   8.764   6.109   6.401
19581TIP3    H158620   8.676   6.117   6.445
19581TIP3    H258621   8.818   6.071   6.473
19582TIP3   OH258622   9.546   5.382   7.672
19582TIP3    H158623   9.464   5.397   7.622
19582TIP3    H258624   9.557   5.285   7.665
19583TIP3   OH258625   8.135   5.781   7.704
19583TIP3    H158626   8.183   5.767   7.788
19583TIP3    H258627   8.059   5.720   7.713
19584TIP3   OH258628   8.533   4.607   7.488
19584TIP3    H158629   8.444   4.576   7.462
19584TIP3    H258630   8.508   4.690   7.533
19585TIP3   OH258631   9.088   4.690   7.732
19585TIP3    H158632   9.093   4.767   7.792
19585TIP3    H258633   8.990   4.675   7.733
19586TIP3   OH258634   9.299   5.147   7.599
19586TIP3    H158635   9.254   5.148   7.686
19586TIP3    H258636   9.282   5.237   7.565
19587TIP3   OH258637   8.964   5.278   6.156
19587TIP3    H158638   8.932   5.255   6.067
19587TIP3    H258639   9.045   5.329   6.133
19588TIP3   OH258640   8.675   4.656   6.458
19588TIP3    H158641   8.644   4.652   6.550
19588TIP3    H258642   8.639   4.571   6.425
19589TIP3   OH258643   8.464   5.122   7.505
19589TIP3    H158644   8.414   5.143   7.587
19589TIP3    H258645   8.447   5.204   7.452
19590TIP3   OH258646   8.350   5.006   7.020
19590TIP3    H158647   8.256   4.984   7.035
19590TIP3    H258648   8.363   4.967   6.931
19591TIP3   OH258649   8.836   5.092   6.747
19591TIP3    H158650   8.785   5.164   6.705
19591TIP3    H258651   8.893   5.064   6.672
19592TIP3   OH258652   9.012   5.369   7.831
19592TIP3    H158653   8.988   5.301   7.897
19592TIP3    H258654   9.102   5.391   7.858
19593TIP3   OH258655   8.995   5.123   6.988
19593TIP3    H158656   8.937   5.156   6.917
19593TIP3    H258657   9.027   5.042   6.944
19594TIP3   OH258658   8.285   5.151   7.716
19594TIP3    H158659   8.304   5.217   7.784
19594TIP3    H258660   8.271   5.070   7.769
19595TIP3   OH258661   8.334   4.633   6.422
19595TIP3    H158662   8.326   4.626   6.519
19595TIP3    H258663   8.250   4.674   6.398
19596TIP3   OH258664   7.876   4.687   7.282
19596TIP3    H158665   7.948   4.709   7.345
19596TIP3    H258666   7.921   4.633   7.215
19597TIP3   OH258667   7.837   4.675   6.830
19597TIP3    H158668   7.868   4.698   6.741
19597TIP3    H258669   7.856   4.757   6.879
19598TIP3   OH258670   9.006   5.368   7.411
19598TIP3    H158671   9.038   5.296   7.352
19598TIP3    H258672   8.976   5.316   7.487
19599TIP3   OH258673   8.676   4.827   7.083
19599TIP3    H158674   8.593   4.826   7.135
19599TIP3    H258675   8.742   4.836   7.153
19600TIP3   OH258676   8.107   4.885   7.086
19600TIP3    H158677   8.015   4.880   7.055
19600TIP3    H258678   8.142   4.795   7.071
19601TIP3   OH258679   8.378   4.882   6.775
19601TIP3    H158680   8.474   4.896   6.760
19601TIP3    H258681   8.337   4.909   6.691
19602TIP3   OH258682   9.170   4.903   7.281
19602TIP3    H158683   9.133   4.917   7.371
19602TIP3    H258684   9.103   4.844   7.243
19603TIP3   OH258685   8.210   4.914   6.547
19603TIP3    H158686   8.158   4.863   6.483
19603TIP3    H258687   8.272   4.958   6.486
19604TIP3   OH258688   8.295   5.702   7.924
19604TIP3    H158689   8.373   5.736   7.972
19604TIP3    H258690   8.229   5.703   7.996
19605TIP3   OH258691   8.758   5.155   7.177
19605TIP3    H158692   8.834   5.122   7.125
19605TIP3    H258693   8.773   5.116   7.264
19606TIP3   OH258694   8.276   4.649   7.057
19606TIP3    H158695   8.246   4.567   7.103
19606TIP3    H258696   8.332   4.613   6.987
19607TIP3   OH258697   8.734   5.052   7.477
19607TIP3    H158698   8.645   5.091   7.484
19607TIP3    H258699   8.791   5.118   7.522
19608TIP3   OH258700   8.472   5.445   6.564
19608TIP3    H158701   8.396   5.383   6.552
19608TIP3    H258702   8.455   5.480   6.655
19609TIP3   OH258703   9.373   5.680   7.198
19609TIP3    H158704   9.398   5.729   7.117
19609TIP3    H258705   9.286   5.641   7.171
19610TIP3   OH258706   8.931   4.756   6.432
19610TIP3    H158707   8.833   4.743   6.434
19610TIP3    H258708   8.942   4.852   6.448
19611TIP3   OH258709   8.869   5.761   7.563
19611TIP3    H158710   8.891   5.746   7.656
19611TIP3    H258711   8.833   5.852   7.564
19612TIP3   OH258712   9.000   5.006   6.530
19612TIP3    H158713   9.096   5.013   6.542
19612TIP3    H258714   8.980   5.084   6.474
19613TIP3   OH258715   8.156   5.457   7.241
19613TIP3    H158716   8.201   5.437   7.156
19613TIP3    H258717   8.207   5.405   7.304
19614TIP3   OH258718   8.618   5.595   6.386
19614TIP3    H158719   8.571   5.682   6.391
19614TIP3    H258720   8.564   5.541   6.446
19615TIP3   OH258721   8.046   5.386   7.852
19615TIP3    H158722   8.068   5.377   7.947
19615TIP3    H258723   7.975   5.321   7.843
19616TIP3   OH258724   8.768   5.503   7.870
19616TIP3    H158725   8.708   5.444   7.822
19616TIP3    H258726   8.855   5.471   7.839
19617TIP3   OH258727   9.031   6.014   7.457
19617TIP3    H158728   8.935   6.021   7.471
19617TIP3    H258729   9.065   6.068   7.532
19618TIP3   OH258730   9.442   5.096   6.367
19618TIP3    H158731   9.380   5.051   6.305
19618TIP3    H258732   9.439   5.185   6.324
19619TIP3   OH258733   9.661   5.937   7.454
19619TIP3    H158734   9.565   5.949   7.438
19619TIP3    H258735   9.690   5.917   7.362
19620TIP3   OH258736   9.141   5.912   6.275
19620TIP3    H158737   9.118   5.836   6.329
19620TIP3    H258738   9.157   5.873   6.187
19621TIP3   OH258739   9.138   5.543   7.115
19621TIP3    H158740   9.044   5.519   7.126
19621TIP3    H258741   9.172   5.465   7.067
19622TIP3   OH258742   8.265   5.771   6.865
19622TIP3    H158743   8.269   5.852   6.811
19622TIP3    H258744   8.170   5.760   6.875
19623TIP3   OH258745   7.799   5.090   6.579
19623TIP3    H158746   7.872   5.154   6.598
19623TIP3    H258747   7.725   5.152   6.579
19624TIP3   OH258748   8.402   5.536   6.810
19624TIP3    H158749   8.369   5.627   6.825
19624TIP3    H258750   8.365   5.490   6.887
19625TIP3   OH258751   8.534   6.115   7.333
19625TIP3    H158752   8.573   6.189   7.282
19625TIP3    H258753   8.611   6.084   7.383
19626TIP3   OH258754   8.186   6.010   6.719
19626TIP3    H158755   8.099   6.019   6.763
19626TIP3    H258756   8.218   6.102   6.721
19627TIP3   OH258757   8.921   5.749   7.293
19627TIP3    H158758   8.913   5.748   7.391
19627TIP3    H258759   9.003   5.700   7.280
19628TIP3   OH258760   8.896   5.636   6.178
19628TIP3    H158761   8.949   5.614   6.257
19628TIP3    H258762   8.806   5.617   6.209
19629TIP3   OH258763   9.163   6.286   7.344
19629TIP3    H158764   9.086   6.230   7.323
19629TIP3    H258765   9.155   6.354   7.274
19630TIP3   OH258766   9.235   6.116   5.992
19630TIP3    H158767   9.266   6.179   5.925
19630TIP3    H258768   9.151   6.161   6.016
19631TIP3   OH258769   8.258   4.891   7.862
19631TIP3    H158770   8.162   4.900   7.880
19631TIP3    H258771   8.286   4.836   7.936
19632TIP3   OH258772   9.056   5.579   6.398
19632TIP3    H158773   9.048   5.509   6.465
19632TIP3    H258774   9.152   5.576   6.380
19633TIP3   OH258775   7.974   5.978   7.492
19633TIP3    H158776   8.027   5.905   7.529
19633TIP3    H258777   7.997   6.050   7.553
19634TIP3   OH258778   8.262   5.623   6.175
19634TIP3    H158779   8.279   5.532   6.145
19634TIP3    H258780   8.245   5.611   6.270
19635TIP3   OH258781   8.209   5.626   6.449
19635TIP3    H158782   8.284   5.605   6.507
19635TIP3    H258783   8.210   5.725   6.452
19636TIP3   OH258784   7.943   5.319   6.649
19636TIP3    H158785   7.881   5.368   6.706
19636TIP3    H258786   7.962   5.388   6.582
19637TIP3   OH258787   9.098   4.950   7.539
19637TIP3    H158788   9.172   5.004   7.573
19637TIP3    H258789   9.086   4.882   7.607
19638TIP3   OH258790   8.969   4.711   6.708
19638TIP3    H158791   8.957   4.732   6.613
19638TIP3    H258792   9.011   4.793   6.741
19639TIP3   OH258793   8.473   5.824   6.397
19639TIP3    H158794   8.386   5.855   6.430
19639TIP3    H258795   8.493   5.894   6.334
19640TIP3   OH258796   8.659   4.889   6.810
19640TIP3    H158797   8.725   4.959   6.788
19640TIP3    H258798   8.668   4.884   6.908
19641TIP3   OH258799   8.931   5.207   7.618
19641TIP3    H158800   8.946   5.268   7.694
19641TIP3    H258801   8.989   5.133   7.640
19642TIP3   OH258802   8.807   4.618   6.914
19642TIP3    H158803   8.793   4.698   6.969
19642TIP3    H258804   8.867   4.654   6.845
19643TIP3   OH258805   8.214   5.899   6.463
19643TIP3    H158806   8.187   5.969   6.399
19643TIP3    H258807   8.201   5.945   6.549
19644TIP3   OH258808   8.317   4.615   6.701
19644TIP3    H158809   8.320   4.706   6.736
19644TIP3    H258810   8.412   4.592   6.708
19645TIP3   OH258811   9.569   5.107   7.602
19645TIP3    H158812   9.470   5.103   7.602
19645TIP3    H258813   9.587   5.085   7.509
19646TIP3   OH258814   9.223   5.302   6.988
19646TIP3    H158815   9.147   5.241   6.997
19646TIP3    H258816   9.295   5.254   7.035
19647TIP3   OH258817   7.934   5.530   6.458
19647TIP3    H158818   7.996   5.605   6.467
19647TIP3    H258819   7.982   5.479   6.389
19648TIP3   OH258820   7.833   4.807   6.584
19648TIP3    H158821   7.879   4.892   6.570
19648TIP3    H258822   7.856   4.758   6.503
19649TIP3   OH258823   9.195   6.255   6.932
19649TIP3    H158824   9.150   6.304   6.859
19649TIP3    H258825   9.288   6.264   6.905
19650TIP3   OH258826   8.269   4.526   7.463
19650TIP3    H158827   8.237   4.492   7.377
19650TIP3    H258828   8.258   4.448   7.521
19651TIP3   OH258829   7.803   5.737   6.844
19651TIP3    H158830   7.735   5.774   6.902
19651TIP3    H258831   7.782   5.782   6.759
19652TIP3   OH258832   7.966   6.285   7.910
19652TIP3    H158833   8.050   6.285   7.960
19652TIP3    H258834   7.942   6.191   7.913
19653TIP3   OH258835   8.459   6.249   7.959
19653TIP3    H158836   8.550   6.217   7.956
19653TIP3    H258837   8.419   6.196   7.888
19654TIP3   OH258838   8.426   5.828   6.088
19654TIP3    H158839   8.373   5.754   6.125
19654TIP3    H258840   8.502   5.780   6.050
19655TIP3   OH258841   9.113   6.143   7.686
19655TIP3    H158842   9.072   6.084   7.754
19655TIP3    H258843   9.154   6.211   7.741
19656TIP3   OH258844   8.859   5.868   5.996
19656TIP3    H158845   8.917   5.813   6.051
19656TIP3    H258846   8.911   5.879   5.914
19657TIP3   OH258847   8.095   5.693   8.113
19657TIP3    H158848   8.109   5.597   8.123
19657TIP3    H258849   8.005   5.695   8.072
19658TIP3   OH258850   8.071   5.340   6.311
19658TIP3    H158851   8.132   5.316   6.382
19658TIP3    H258852   8.135   5.346   6.236
19659TIP3   OH258853   8.705   5.779   7.886
19659TIP3    H158854   8.658   5.795   7.802
19659TIP3    H258855   8.733   5.686   7.879
19660TIP3   OH258856   8.576   5.540   6.117
19660TIP3    H158857   8.582   5.555   6.213
19660TIP3    H258858   8.578   5.442   6.113
19661TIP3   OH258859   9.193   5.786   7.495
19661TIP3    H158860   9.267   5.830   7.448
19661TIP3    H258861   9.122   5.851   7.483
19662TIP3   OH258862   8.213   5.423   8.096
19662TIP3    H158863   8.289   5.364   8.083
19662TIP3    H258864   8.234   5.458   8.185
19663TIP3   OH258865   8.273   5.248   6.528
19663TIP3    H158866   8.256   5.207   6.614
19663TIP3    H258867   8.314   5.175   6.477
19664TIP3   OH258868   8.550   5.312   7.757
19664TIP3    H158869   8.471   5.370   7.763
19664TIP3    H258870   8.596   5.346   7.678
19665TIP3   OH258871   8.381   5.040   6.376
19665TIP3    H158872   8.354   5.044   6.281
19665TIP3    H258873   8.478   5.046   6.367
19666TIP3   OH258874   9.063   5.713   7.891
19666TIP3    H158875   9.144   5.689   7.844
19666TIP3    H258876   9.060   5.648   7.964
19667TIP3   OH258877   9.201   5.370   6.036
19667TIP3    H158878   9.181   5.326   5.951
19667TIP3    H258879   9.172   5.461   6.012
19668TIP3   OH258880   8.675   5.100   7.882
19668TIP3    H158881   8.669   5.020   7.826
19668TIP3    H258882   8.629   5.168   7.827
19669TIP3   OH258883   8.676   4.880   7.690
19669TIP3    H158884   8.699   4.929   7.609
19669TIP3    H258885   8.581   4.860   7.675
19670TIP3   OH258886   8.702   5.421   7.561
19670TIP3    H158887   8.785   5.437   7.514
19670TIP3    H258888   8.644   5.489   7.522
19671TIP3   OH258889   9.295   5.388   7.957
19671TIP3    H158890   9.346   5.307   7.943
19671TIP3    H258891   9.356   5.456   7.923
19672TIP3   OH258892   9.323   5.637   7.679
19672TIP3    H158893   9.264   5.693   7.621
19672TIP3    H258894   9.410   5.659   7.638
19673TIP3   OH258895   8.545   5.211   8.108
19673TIP3    H158896   8.477   5.144   8.126
19673TIP3    H258897   8.582   5.180   8.023
19674TIP3   OH258898   8.813   4.649   7.749
19674TIP3    H158899   8.762   4.731   7.730
19674TIP3    H258900   8.741   4.582   7.740
19675TIP3   OH258901   8.934   5.152   7.975
19675TIP3    H158902   8.918   5.147   8.071
19675TIP3    H258903   8.844   5.131   7.944
19676TIP3   OH258904   9.166   5.087   7.830
19676TIP3    H158905   9.092   5.104   7.891
19676TIP3    H258906   9.240   5.070   7.892
19677TIP3   OH258907   9.390   5.044   7.993
19677TIP3    H158908   9.404   4.948   8.006
19677TIP3    H258909   9.389   5.079   8.085
19678TIP3   OH258910   8.388   4.991   8.166
19678TIP3    H158911   8.395   4.898   8.136
19678TIP3    H258912   8.420   4.984   8.258
19679TIP3   OH258913   8.912   4.671   8.005
19679TIP3    H158914   8.941   4.581   8.027
19679TIP3    H258915   8.862   4.658   7.923
19680TIP3   OH258916   8.966   4.880   8.176
19680TIP3    H158917   8.943   4.812   8.109
19680TIP3    H258918   8.889   4.940   8.173
19681TIP3   OH258919   8.186   6.100   6.275
19681TIP3    H158920   8.282   6.098   6.257
19681TIP3    H258921   8.157   6.151   6.197
19682TIP3   OH258922   7.666   5.483   6.493
19682TIP3    H158923   7.761   5.507   6.480
19682TIP3    H258924   7.662   5.397   6.447
19683TIP3   OH258925   7.582   6.096   6.905
19683TIP3    H158926   7.513   6.036   6.870
19683TIP3    H258927   7.626   6.039   6.971
19684TIP3   OH258928   7.720   5.947   7.090
19684TIP3    H158929   7.704   5.876   7.155
19684TIP3    H258930   7.768   6.011   7.146
19685TIP3   OH258931   9.464   6.348   6.897
19685TIP3    H158932   9.465   6.375   6.990
19685TIP3    H258933   9.435   6.428   6.849
19686TIP3   OH258934   9.498   6.361   7.171
19686TIP3    H158935   9.452   6.273   7.169
19686TIP3    H258936   9.510   6.371   7.268
19687TIP3   OH258937   9.334   5.559   6.367
19687TIP3    H158938   9.401   5.623   6.336
19687TIP3    H258939   9.381   5.520   6.445
19688TIP3   OH258940   9.465   5.426   6.570
19688TIP3    H158941   9.398   5.384   6.629
19688TIP3    H258942   9.528   5.466   6.633
19689TIP3   OH258943   9.518   5.812   7.008
19689TIP3    H158944   9.569   5.749   6.953
19689TIP3    H258945   9.517   5.891   6.949
19690TIP3   OH258946   9.349   6.125   7.199
19690TIP3    H158947   9.280   6.167   7.254
19690TIP3    H258948   9.297   6.076   7.133
19691TIP3   OH258949   9.401   5.333   6.219
19691TIP3    H158950   9.331   5.336   6.150
19691TIP3    H258951   9.375   5.411   6.272
19692TIP3   OH258952   9.271   5.008   6.176
19692TIP3    H158953   9.235   5.050   6.097
19692TIP3    H258954   9.245   4.914   6.162
19693TIP3   OH258955   9.278   5.283   6.717
19693TIP3    H158956   9.287   5.187   6.711
19693TIP3    H258957   9.264   5.298   6.813
19694TIP3   OH258958   7.906   5.352   7.463
19694TIP3    H158959   7.905   5.328   7.368
19694TIP3    H258960   8.003   5.356   7.480
19695TIP3   OH258961   9.560   5.705   7.570
19695TIP3    H158962   9.642   5.654   7.580
19695TIP3    H258963   9.594   5.788   7.531
19696TIP3   OH258964   9.763   5.527   7.595
19696TIP3    H158965   9.683   5.477   7.623
19696TIP3    H258966   9.830   5.457   7.611
19697TIP3   OH258967   9.214   4.743   6.163
19697TIP3    H158968   9.292   4.710   6.213
19697TIP3    H258969   9.144   4.679   6.183
19698TIP3   OH258970   9.274   5.001   6.613
19698TIP3    H158971   9.316   4.912   6.627
19698TIP3    H258972   9.331   5.034   6.542
19699TIP3   OH258973   9.437   5.172   7.108
19699TIP3    H158974   9.522   5.198   7.067
19699TIP3    H258975   9.450   5.212   7.197
19700TIP3   OH258976   9.505   5.320   7.341
19700TIP3    H158977   9.426   5.354   7.387
19700TIP3    H258978   9.537   5.400   7.295
19701TIP3   OH258979   8.119   5.039   8.129
19701TIP3    H158980   8.217   5.038   8.138
19701TIP3    H258981   8.097   4.957   8.178
19702TIP3   OH258982  10.009   4.945   7.869
19702TIP3    H158983  10.019   4.851   7.843
19702TIP3    H258984   9.941   4.976   7.805
19703TIP3   OH258985   9.382   4.750   6.652
19703TIP3    H158986   9.431   4.734   6.735
19703TIP3    H258987   9.321   4.673   6.650
19704TIP3   OH258988   8.081   4.732   7.462
19704TIP3    H158989   8.145   4.659   7.478
19704TIP3    H258990   8.141   4.809   7.463
19705TIP3   OH258991   7.886   5.007   7.542
19705TIP3    H158992   7.938   5.008   7.459
19705TIP3    H258993   7.907   5.094   7.579
19706TIP3   OH258994   9.815   5.038   7.707
19706TIP3    H158995   9.728   5.084   7.709
19706TIP3    H258996   9.793   4.969   7.642
19707TIP3   OH258997   9.464   4.683   6.283
19707TIP3    H158998   9.503   4.611   6.229
19707TIP3    H258999   9.530   4.754   6.273
19708TIP3   OH259000   7.864   4.507   7.044
19708TIP3    H159001   7.773   4.498   7.078
19708TIP3    H259002   7.851   4.566   6.967
19709TIP3   OH259003   9.030   6.216   6.552
19709TIP3    H159004   9.074   6.197   6.466
19709TIP3    H259005   9.099   6.271   6.593
19710TIP3   OH259006   8.089   4.588   7.856
19710TIP3    H159007   8.041   4.586   7.940
19710TIP3    H259008   8.022   4.630   7.798
19711TIP3   OH259009   8.130   6.015   7.937
19711TIP3    H159010   8.037   5.993   7.920
19711TIP3    H259011   8.137   6.000   8.033
19712TIP3   OH259012   8.308   6.050   7.483
19712TIP3    H159013   8.258   6.125   7.445
19712TIP3    H259014   8.393   6.066   7.437
19713TIP3   OH259015   8.746   6.293   7.605
19713TIP3    H159016   8.782   6.291   7.697
19713TIP3    H259017   8.817   6.344   7.560
19714TIP3   OH259018   8.942   6.434   7.477
19714TIP3    H159019   9.004   6.373   7.435
19714TIP3    H259020   8.992   6.518   7.468
19715TIP3   OH259021   9.724   4.810   7.576
19715TIP3    H159022   9.635   4.806   7.539
19715TIP3    H259023   9.755   4.717   7.563
19716TIP3   OH259024   7.984   6.308   7.507
19716TIP3    H159025   7.895   6.341   7.483
19716TIP3    H259026   7.993   6.346   7.595
19717TIP3   OH259027   8.220   6.286   7.364
19717TIP3    H159028   8.133   6.299   7.409
19717TIP3    H259029   8.199   6.320   7.274
19718TIP3   OH259030   8.646   6.314   7.161
19718TIP3    H159031   8.578   6.336   7.094
19718TIP3    H259032   8.659   6.401   7.204
19719TIP3   OH259033   8.915   6.254   7.213
19719TIP3    H159034   8.820   6.272   7.194
19719TIP3    H259035   8.958   6.330   7.171
19720TIP3   OH259036   9.118   6.443   7.126
19720TIP3    H159037   9.100   6.531   7.085
19720TIP3    H259038   9.140   6.388   7.048
19721TIP3   OH259039   7.895   6.103   7.250
19721TIP3    H159040   7.921   6.078   7.341
19721TIP3    H259041   7.968   6.060   7.200
19722TIP3   OH259042   8.089   5.974   7.107
19722TIP3    H159043   8.105   5.890   7.156
19722TIP3    H259044   8.179   6.012   7.104
19723TIP3   OH259045   8.353   6.070   7.111
19723TIP3    H159046   8.387   5.979   7.098
19723TIP3    H259047   8.397   6.092   7.195
19724TIP3   OH259048   8.936   4.727   7.206
19724TIP3    H159049   8.889   4.655   7.252
19724TIP3    H259050   9.001   4.678   7.153
19725TIP3   OH259051   9.453   4.604   7.106
19725TIP3    H159052   9.492   4.655   7.031
19725TIP3    H259053   9.358   4.625   7.097
19726TIP3   OH259054   9.546   4.705   6.870
19726TIP3    H159055   9.618   4.652   6.828
19726TIP3    H259056   9.581   4.795   6.854
19727TIP3   OH259057   8.179   4.434   7.214
19727TIP3    H159058   8.088   4.398   7.216
19727TIP3    H259059   8.230   4.350   7.212
19728TIP3   OH259060   7.965   4.299   6.863
19728TIP3    H159061   7.999   4.354   6.790
19728TIP3    H259062   7.938   4.366   6.929
19729TIP3   OH259063   8.620   4.470   7.094
19729TIP3    H159064   8.681   4.516   7.035
19729TIP3    H259065   8.643   4.506   7.180
19730TIP3   OH259066   9.172   4.614   7.078
19730TIP3    H159067   9.161   4.582   6.987
19730TIP3    H259068   9.156   4.532   7.130
19731TIP3   OH259069   9.197   4.538   6.647
19731TIP3    H159070   9.109   4.580   6.654
19731TIP3    H259071   9.180   4.451   6.688
19732TIP3   OH259072   7.683   5.874   6.643
19732TIP3    H159073   7.597   5.843   6.609
19732TIP3    H259074   7.674   5.969   6.626
19733TIP3   OH259075   8.082   4.467   6.632
19733TIP3    H159076   8.126   4.400   6.575
19733TIP3    H259077   8.159   4.518   6.663
19734TIP3   OH259078   8.594   4.638   6.725
19734TIP3    H159079   8.656   4.590   6.783
19734TIP3    H259080   8.616   4.730   6.750
19735TIP3   OH259081   8.455   6.063   6.227
19735TIP3    H159082   8.543   6.086   6.190
19735TIP3    H259083   8.433   5.989   6.166
19736TIP3   OH259084   9.171   6.179   6.319
19736TIP3    H159085   9.164   6.082   6.301
19736TIP3    H259086   9.127   6.215   6.238
19737TIP3   OH259087   8.387   4.713   8.103
19737TIP3    H159088   8.352   4.645   8.163
19737TIP3    H259089   8.481   4.715   8.132
19738TIP3   OH259090   8.634   4.709   8.224
19738TIP3    H159091   8.723   4.684   8.196
19738TIP3    H259092   8.615   4.643   8.293
19739TIP3   OH259093   7.757   5.894   6.281
19739TIP3    H159094   7.760   5.929   6.372
19739TIP3    H259095   7.847   5.857   6.270
19740TIP3   OH259096   9.451   4.775   8.006
19740TIP3    H159097   9.472   4.742   8.096
19740TIP3    H259098   9.538   4.766   7.961
19741TIP3   OH259099   9.969   5.573   6.995
19741TIP3    H159100  10.000   5.507   7.060
19741TIP3    H259101  10.007   5.654   7.033
19742TIP3   OH259102   9.932   6.002   6.741
19742TIP3    H159103   9.932   5.904   6.748
19742TIP3    H259104  10.027   6.020   6.732
19743TIP3   OH259105   9.640   5.205   6.529
19743TIP3    H159106   9.592   5.289   6.542
19743TIP3    H259107   9.572   5.153   6.485
19744TIP3   OH259108   9.702   5.495   6.699
19744TIP3    H159109   9.752   5.418   6.735
19744TIP3    H259110   9.757   5.521   6.623
19745TIP3   OH259111  10.407   5.923   6.665
19745TIP3    H159112  10.450   5.868   6.598
19745TIP3    H259113  10.471   5.927   6.739
19746TIP3   OH259114  10.199   5.087   6.709
19746TIP3    H159115  10.198   5.153   6.637
19746TIP3    H259116  10.168   5.008   6.660
19747TIP3   OH259117   9.843   5.286   6.805
19747TIP3    H159118   9.926   5.266   6.853
19747TIP3    H259119   9.858   5.232   6.724
19748TIP3   OH259120  10.250   5.502   6.583
19748TIP3    H159121  10.345   5.485   6.595
19748TIP3    H259122  10.217   5.414   6.554
19749TIP3   OH259123  10.200   5.069   7.135
19749TIP3    H159124  10.143   5.102   7.064
19749TIP3    H259125  10.145   5.089   7.213
19750TIP3   OH259126  10.275   5.846   6.947
19750TIP3    H159127  10.212   5.912   6.976
19750TIP3    H259128  10.343   5.900   6.904
19751TIP3   OH259129  10.068   5.180   6.922
19751TIP3    H159130  10.133   5.252   6.941
19751TIP3    H259131  10.115   5.139   6.844
19752TIP3   OH259132   9.538   5.726   6.262
19752TIP3    H159133   9.500   5.749   6.175
19752TIP3    H259134   9.566   5.814   6.295
19753TIP3   OH259135  10.049   5.646   6.478
19753TIP3    H159136  10.012   5.586   6.410
19753TIP3    H259137  10.126   5.595   6.510
19754TIP3   OH259138  10.184   6.063   6.620
19754TIP3    H159139  10.149   6.029   6.535
19754TIP3    H259140  10.261   6.004   6.635
19755TIP3   OH259141  10.246   5.591   6.850
19755TIP3    H159142  10.242   5.589   6.752
19755TIP3    H259143  10.253   5.687   6.869
19756TIP3   OH259144  10.022   5.752   7.199
19756TIP3    H159145  10.028   5.845   7.224
19756TIP3    H259146   9.948   5.718   7.254
19757TIP3   OH259147  10.401   6.205   6.213
19757TIP3    H159148  10.462   6.279   6.207
19757TIP3    H259149  10.336   6.230   6.144
19758TIP3   OH259150   9.939   5.469   6.292
19758TIP3    H159151   9.876   5.518   6.235
19758TIP3    H259152   9.893   5.385   6.302
19759TIP3   OH259153   9.721   5.851   7.200
19759TIP3    H159154   9.653   5.839   7.129
19759TIP3    H259155   9.742   5.759   7.222
19760TIP3   OH259156   9.575   6.032   6.855
19760TIP3    H159157   9.668   6.040   6.829
19760TIP3    H259158   9.561   6.118   6.894
19761TIP3   OH259159  10.309   6.400   5.994
19761TIP3    H159160  10.273   6.376   5.908
19761TIP3    H259161  10.272   6.489   6.009
19762TIP3   OH259162   9.768   6.250   6.357
19762TIP3    H159163   9.793   6.256   6.451
19762TIP3    H259164   9.695   6.186   6.359
19763TIP3   OH259165   9.900   6.055   7.199
19763TIP3    H159166   9.929   6.039   7.291
19763TIP3    H259167   9.840   5.978   7.187
19764TIP3   OH259168  10.317   4.856   6.990
19764TIP3    H159169  10.231   4.827   6.956
19764TIP3    H259170  10.292   4.944   7.025
19765TIP3   OH259171  10.261   5.358   6.979
19765TIP3    H159172  10.223   5.391   7.063
19765TIP3    H259173  10.256   5.440   6.925
19766TIP3   OH259174  10.144   5.261   6.505
19766TIP3    H159175  10.053   5.233   6.527
19766TIP3    H259176  10.150   5.231   6.412
19767TIP3   OH259177  10.068   5.398   7.201
19767TIP3    H159178  10.077   5.459   7.275
19767TIP3    H259179  10.056   5.312   7.247
19768TIP3   OH259180  10.120   4.905   5.914
19768TIP3    H159181  10.079   4.873   5.995
19768TIP3    H259182  10.044   4.935   5.862
19769TIP3   OH259183   9.670   4.928   6.787
19769TIP3    H159184   9.747   4.961   6.838
19769TIP3    H259185   9.708   4.901   6.702
19770TIP3   OH259186   9.646   4.912   6.305
19770TIP3    H159187   9.686   4.951   6.224
19770TIP3    H259188   9.583   4.984   6.327
19771TIP3   OH259189   9.904   5.144   6.577
19771TIP3    H159190   9.809   5.149   6.550
19771TIP3    H259191   9.929   5.053   6.554
19772TIP3   OH259192  10.160   5.169   6.245
19772TIP3    H159193  10.230   5.182   6.180
19772TIP3    H259194  10.082   5.176   6.185
19773TIP3   OH259195   9.991   5.174   6.038
19773TIP3    H159196   9.928   5.129   5.979
19773TIP3    H259197  10.057   5.204   5.971
19774TIP3   OH259198  10.076   4.905   6.538
19774TIP3    H159199  10.043   4.826   6.587
19774TIP3    H259200  10.127   4.866   6.467
19775TIP3   OH259201  10.226   5.724   6.048
19775TIP3    H159202  10.174   5.642   6.049
19775TIP3    H259203  10.250   5.738   6.141
19776TIP3   OH259204   9.968   5.728   6.736
19776TIP3    H159205   9.992   5.701   6.645
19776TIP3    H259206   9.990   5.651   6.790
19777TIP3   OH259207   9.830   5.628   7.348
19777TIP3    H159208   9.819   5.607   7.443
19777TIP3    H259209   9.756   5.575   7.310
19778TIP3   OH259210  10.061   6.029   6.357
19778TIP3    H159211  10.065   6.110   6.301
19778TIP3    H259212   9.965   6.013   6.355
19779TIP3   OH259213   9.626   5.332   6.056
19779TIP3    H159214   9.670   5.418   6.072
19779TIP3    H259215   9.548   5.340   6.114
19780TIP3   OH259216  10.233   5.809   6.331
19780TIP3    H159217  10.182   5.892   6.321
19780TIP3    H259218  10.169   5.755   6.381
19781TIP3   OH259219   9.986   6.261   6.200
19781TIP3    H159220   9.901   6.265   6.250
19781TIP3    H259221  10.013   6.355   6.205
19782TIP3   OH259222  10.040   5.149   7.347
19782TIP3    H159223   9.943   5.153   7.359
19782TIP3    H259224  10.065   5.083   7.413
19783TIP3   OH259225   9.783   6.210   7.000
19783TIP3    H159226   9.831   6.147   7.062
19783TIP3    H259227   9.749   6.292   7.040
19784TIP3   OH259228  10.063   5.879   5.662
19784TIP3    H159229  10.080   5.787   5.634
19784TIP3    H259230  10.046   5.867   5.758
19785TIP3   OH259231  10.010   5.880   5.934
19785TIP3    H159232  10.094   5.850   5.974
19785TIP3    H259233  10.014   5.977   5.947
19786TIP3   OH259234   9.740   5.579   6.137
19786TIP3    H159235   9.673   5.625   6.193
19786TIP3    H259236   9.755   5.648   6.069
19787TIP3   OH259237  10.266   6.110   5.906
19787TIP3    H159238  10.173   6.124   5.929
19787TIP3    H259239  10.276   6.168   5.829
19788TIP3   OH259240  10.000   6.156   5.948
19788TIP3    H159241   9.972   6.228   5.887
19788TIP3    H259242   9.987   6.199   6.035
19789TIP3   OH259243  10.117   4.876   6.198
19789TIP3    H159244  10.084   4.960   6.234
19789TIP3    H259245  10.199   4.907   6.155
19790TIP3   OH259246   9.731   5.790   5.948
19790TIP3    H159247   9.799   5.859   5.955
19790TIP3    H259248   9.773   5.735   5.878
19791TIP3   OH259249   9.674   5.062   6.082
19791TIP3    H159250   9.677   5.159   6.074
19791TIP3    H259251   9.599   5.041   6.024
19792TIP3   OH259252  10.052   4.783   6.951
19792TIP3    H159253  10.026   4.752   6.861
19792TIP3    H259254  10.048   4.701   7.004
19793TIP3   OH259255   9.598   6.003   6.335
19793TIP3    H159256   9.514   6.033   6.372
19793TIP3    H259257   9.590   6.041   6.245
19794TIP3   OH259258  10.211   6.094   5.579
19794TIP3    H159259  10.159   6.018   5.613
19794TIP3    H259260  10.302   6.057   5.587
19795TIP3   OH259261   9.862   5.602   5.801
19795TIP3    H159262   9.922   5.574   5.872
19795TIP3    H259263   9.926   5.609   5.726
19796TIP3   OH259264  10.074   5.495   6.024
19796TIP3    H159265  10.042   5.455   6.106
19796TIP3    H259266  10.105   5.418   5.973
19797TIP3   OH259267  10.331   5.541   7.187
19797TIP3    H159268  10.305   5.607   7.255
19797TIP3    H259269  10.321   5.593   7.106
19798TIP3   OH259270  10.171   5.290   5.867
19798TIP3    H159271  10.134   5.287   5.776
19798TIP3    H259272  10.264   5.311   5.849
19799TIP3   OH259273  10.442   5.328   7.322
19799TIP3    H159274  10.455   5.238   7.283
19799TIP3    H259275  10.376   5.368   7.264
19800TIP3   OH259276  10.465   5.109   7.172
19800TIP3    H159277  10.494   5.120   7.080
19800TIP3    H259278  10.372   5.081   7.160
19801TIP3   OH259279  10.161   5.274   7.601
19801TIP3    H159280  10.164   5.178   7.580
19801TIP3    H259281  10.170   5.274   7.697
19802TIP3   OH259282   9.982   6.364   5.763
19802TIP3    H159283  10.078   6.362   5.744
19802TIP3    H259284   9.950   6.409   5.683
19803TIP3   OH259285   9.463   5.738   5.985
19803TIP3    H159286   9.557   5.763   5.967
19803TIP3    H259287   9.457   5.652   5.938
19804TIP3   OH259288   9.375   6.354   6.372
19804TIP3    H159289   9.304   6.301   6.327
19804TIP3    H259290   9.378   6.306   6.456
19805TIP3   OH259291   9.369   6.220   6.611
19805TIP3    H159292   9.393   6.124   6.625
19805TIP3    H259293   9.444   6.263   6.645
19806TIP3   OH259294   9.701   5.605   6.952
19806TIP3    H159295   9.693   5.578   6.858
19806TIP3    H259296   9.799   5.604   6.960
19807TIP3   OH259297   9.889   5.288   7.602
19807TIP3    H159298   9.986   5.299   7.594
19807TIP3    H259299   9.881   5.214   7.665
19808TIP3   OH259300   9.873   4.991   6.966
19808TIP3    H159301   9.936   4.917   6.969
19808TIP3    H259302   9.934   5.066   6.954
19809TIP3   OH259303   9.682   5.267   7.032
19809TIP3    H159304   9.729   5.255   6.947
19809TIP3    H259305   9.710   5.357   7.054
19810TIP3   OH259306   9.665   4.773   6.535
19810TIP3    H159307   9.570   4.768   6.555
19810TIP3    H259308   9.665   4.828   6.454
19811TIP3   OH259309   9.884   4.853   7.348
19811TIP3    H159310   9.828   4.847   7.428
19811TIP3    H259311   9.820   4.889   7.284
19812TIP3   OH259312   9.617   6.314   6.668
19812TIP3    H159313   9.618   6.297   6.764
19812TIP3    H259314   9.706   6.267   6.644
19813TIP3   OH259315   9.870   6.234   6.606
19813TIP3    H159316   9.900   6.154   6.654
19813TIP3    H259317   9.955   6.278   6.584
19814TIP3   OH259318  10.128   6.325   6.561
19814TIP3    H159319  10.160   6.233   6.569
19814TIP3    H259320  10.163   6.369   6.639
19815TIP3   OH259321   9.968   4.699   6.698
19815TIP3    H159322   9.875   4.671   6.692
19815TIP3    H259323  10.012   4.611   6.702
19816TIP3   OH259324   9.775   4.562   6.350
19816TIP3    H159325   9.796   4.620   6.275
19816TIP3    H259326   9.738   4.625   6.415
19817TIP3   OH259327   9.475   6.130   6.131
19817TIP3    H159328   9.389   6.106   6.091
19817TIP3    H259329   9.478   6.224   6.107
19818TIP3   OH259330   9.873   4.724   6.120
19818TIP3    H159331   9.910   4.657   6.059
19818TIP3    H259332   9.952   4.767   6.156
19819TIP3   OH259333  10.254   6.328   5.714
19819TIP3    H159334  10.349   6.338   5.701
19819TIP3    H259335  10.232   6.255   5.651
19820TIP3   OH259336  10.146   4.998   7.593
19820TIP3    H159337  10.100   4.927   7.640
19820TIP3    H259338  10.235   4.957   7.589
19821TIP3   OH259339  10.376   4.879   7.657
19821TIP3    H159340  10.447   4.938   7.621
19821TIP3    H259341  10.401   4.884   7.750
19822TIP3   OH259342   9.556   6.159   5.772
19822TIP3    H159343   9.553   6.191   5.863
19822TIP3    H259344   9.646   6.120   5.764
19823TIP3   OH259345   1.322   6.229   8.476
19823TIP3    H159346   1.293   6.320   8.454
19823TIP3    H259347   1.247   6.179   8.438
19824TIP3   OH259348   1.329   6.227   8.848
19824TIP3    H159349   1.354   6.196   8.936
19824TIP3    H259350   1.285   6.149   8.811
19825TIP3   OH259351   1.566   6.530   8.536
19825TIP3    H159352   1.550   6.461   8.601
19825TIP3    H259353   1.595   6.604   8.592
19826TIP3   OH259354   1.217   6.998   8.549
19826TIP3    H159355   1.259   6.922   8.502
19826TIP3    H259356   1.190   6.957   8.632
19827TIP3   OH259357   1.109   6.403   8.885
19827TIP3    H159358   1.185   6.353   8.850
19827TIP3    H259359   1.155   6.482   8.917
19828TIP3   OH259360   2.131   5.774   8.901
19828TIP3    H159361   2.160   5.856   8.946
19828TIP3    H259362   2.155   5.794   8.808
19829TIP3   OH259363   1.533   5.957   8.937
19829TIP3    H159364   1.577   5.871   8.952
19829TIP3    H259365   1.500   5.945   8.846
19830TIP3   OH259366   0.901   5.613   8.899
19830TIP3    H159367   0.863   5.688   8.848
19830TIP3    H259368   0.865   5.537   8.849
19831TIP3   OH259369   1.564   5.709   8.524
19831TIP3    H159370   1.637   5.694   8.588
19831TIP3    H259371   1.614   5.743   8.448
19832TIP3   OH259372   0.941   6.026   8.821
19832TIP3    H159373   1.034   5.997   8.821
19832TIP3    H259374   0.898   5.951   8.774
19833TIP3   OH259375   2.203   5.978   9.077
19833TIP3    H159376   2.122   6.030   9.058
19833TIP3    H259377   2.231   6.017   9.161
19834TIP3   OH259378   1.213   6.449   8.345
19834TIP3    H159379   1.177   6.427   8.258
19834TIP3    H259380   1.167   6.533   8.366
19835TIP3   OH259381   1.775   5.711   8.694
19835TIP3    H159382   1.774   5.654   8.772
19835TIP3    H259383   1.830   5.785   8.723
19836TIP3   OH259384   1.637   6.775   8.707
19836TIP3    H159385   1.547   6.767   8.746
19836TIP3    H259386   1.629   6.858   8.658
19837TIP3   OH259387   1.923   5.676   9.066
19837TIP3    H159388   1.836   5.701   9.029
19837TIP3    H259389   1.985   5.707   8.996
19838TIP3   OH259390   1.233   5.309   9.045
19838TIP3    H159391   1.211   5.216   9.067
19838TIP3    H259392   1.155   5.353   9.089
19839TIP3   OH259393   1.337   6.821   8.379
19839TIP3    H159394   1.386   6.738   8.357
19839TIP3    H259395   1.397   6.887   8.339
19840TIP3   OH259396   1.476   6.607   8.285
19840TIP3    H159397   1.449   6.526   8.239
19840TIP3    H259398   1.513   6.570   8.369
19841TIP3   OH259399   1.862   6.689   9.047
19841TIP3    H159400   1.852   6.611   8.988
19841TIP3    H259401   1.847   6.763   8.984
19842TIP3   OH259402   1.157   6.081   8.305
19842TIP3    H159403   1.074   6.129   8.281
19842TIP3    H259404   1.201   6.076   8.218
19843TIP3   OH259405   1.114   5.865   8.024
19843TIP3    H159406   1.183   5.916   8.070
19843TIP3    H259407   1.168   5.800   7.976
19844TIP3   OH259408   2.056   6.322   8.892
19844TIP3    H159409   1.974   6.376   8.897
19844TIP3    H259410   2.087   6.346   8.802
19845TIP3   OH259411   1.500   6.164   8.277
19845TIP3    H159412   1.445   6.189   8.355
19845TIP3    H259413   1.583   6.138   8.321
19846TIP3   OH259414   1.737   6.196   9.193
19846TIP3    H159415   1.736   6.282   9.239
19846TIP3    H259416   1.653   6.203   9.143
19847TIP3   OH259417   0.875   6.120   9.066
19847TIP3    H159418   0.899   6.086   8.976
19847TIP3    H259419   0.930   6.199   9.070
19848TIP3   OH259420   1.396   6.775   8.828
19848TIP3    H159421   1.378   6.844   8.893
19848TIP3    H259422   1.381   6.693   8.880
19849TIP3   OH259423   1.343   6.020   8.103
19849TIP3    H159424   1.401   6.081   8.154
19849TIP3    H259425   1.367   6.044   8.011
19850TIP3   OH259426   1.081   6.707   8.384
19850TIP3    H159427   1.166   6.751   8.398
19850TIP3    H259428   1.034   6.771   8.329
19851TIP3   OH259429   1.857   5.263   8.152
19851TIP3    H159430   1.775   5.281   8.202
19851TIP3    H259431   1.869   5.346   8.102
19852TIP3   OH259432   1.656   6.631   7.701
19852TIP3    H159433   1.663   6.727   7.685
19852TIP3    H259434   1.749   6.602   7.687
19853TIP3   OH259435   2.098   7.031   9.094
19853TIP3    H159436   2.099   6.934   9.104
19853TIP3    H259437   2.013   7.052   9.138
19854TIP3   OH259438   1.205   6.775   9.244
19854TIP3    H159439   1.206   6.873   9.253
19854TIP3    H259440   1.119   6.759   9.201
19855TIP3   OH259441   0.993   6.930   8.203
19855TIP3    H159442   0.957   6.902   8.116
19855TIP3    H259443   0.952   7.017   8.214
19856TIP3   OH259444   1.169   6.848   7.822
19856TIP3    H159445   1.224   6.777   7.782
19856TIP3    H259446   1.211   6.856   7.910
19857TIP3   OH259447   1.236   6.890   8.089
19857TIP3    H159448   1.152   6.896   8.138
19857TIP3    H259449   1.291   6.844   8.153
19858TIP3   OH259450   1.996   6.159   9.363
19858TIP3    H159451   1.912   6.181   9.320
19858TIP3    H259452   2.004   6.063   9.345
19859TIP3   OH259453   1.000   5.397   9.154
19859TIP3    H159454   0.925   5.345   9.184
19859TIP3    H259455   0.972   5.488   9.166
19860TIP3   OH259456   1.446   5.524   9.333
19860TIP3    H159457   1.511   5.508   9.405
19860TIP3    H259458   1.362   5.513   9.380
19861TIP3   OH259459   1.742   5.934   9.322
19861TIP3    H159460   1.763   5.965   9.413
19861TIP3    H259461   1.732   6.018   9.273
19862TIP3   OH259462   1.420   6.067   7.848
19862TIP3    H159463   1.383   6.043   7.760
19862TIP3    H259464   1.498   6.119   7.822
19863TIP3   OH259465   1.135   5.443   8.147
19863TIP3    H159466   1.100   5.440   8.239
19863TIP3    H259467   1.092   5.363   8.112
19864TIP3   OH259468   0.909   5.890   9.204
19864TIP3    H159469   0.873   5.926   9.286
19864TIP3    H259470   0.897   5.967   9.144
19865TIP3   OH259471   0.793   5.788   8.715
19865TIP3    H159472   0.698   5.796   8.697
19865TIP3    H259473   0.822   5.749   8.630
19866TIP3   OH259474   1.292   5.884   8.439
19866TIP3    H159475   1.238   5.954   8.396
19866TIP3    H259476   1.345   5.852   8.364
19867TIP3   OH259477   1.448   5.912   8.677
19867TIP3    H159478   1.389   5.941   8.605
19867TIP3    H259479   1.481   5.830   8.635
19868TIP3   OH259480   0.789   5.420   8.114
19868TIP3    H159481   0.778   5.421   8.212
19868TIP3    H259482   0.698   5.435   8.085
19869TIP3   OH259483   1.456   6.160   9.097
19869TIP3    H159484   1.492   6.090   9.038
19869TIP3    H259485   1.432   6.107   9.175
19870TIP3   OH259486   1.146   5.626   8.769
19870TIP3    H159487   1.063   5.620   8.821
19870TIP3    H259488   1.213   5.613   8.839
19871TIP3   OH259489   0.841   5.676   8.472
19871TIP3    H159490   0.934   5.688   8.443
19871TIP3    H259491   0.789   5.703   8.393
19872TIP3   OH259492   1.620   5.693   8.978
19872TIP3    H159493   1.571   5.708   9.062
19872TIP3    H259494   1.560   5.629   8.934
19873TIP3   OH259495   0.677   5.735   8.264
19873TIP3    H159496   0.601   5.676   8.246
19873TIP3    H259497   0.715   5.748   8.175
19874TIP3   OH259498   1.816   7.362   9.163
19874TIP3    H159499   1.795   7.411   9.082
19874TIP3    H259500   1.805   7.429   9.233
19875TIP3   OH259501   1.212   5.949   8.869
19875TIP3    H159502   1.278   5.905   8.813
19875TIP3    H259503   1.221   5.901   8.953
19876TIP3   OH259504   0.771   5.424   8.749
19876TIP3    H159505   0.713   5.346   8.762
19876TIP3    H259506   0.822   5.393   8.673
19877TIP3   OH259507   1.186   5.843   9.154
19877TIP3    H159508   1.095   5.874   9.166
19877TIP3    H259509   1.239   5.908   9.204
19878TIP3   OH259510   0.930   6.227   8.242
19878TIP3    H159511   0.856   6.162   8.240
19878TIP3    H259512   0.920   6.265   8.333
19879TIP3   OH259513   1.824   6.470   8.884
19879TIP3    H159514   1.850   6.518   8.803
19879TIP3    H259515   1.739   6.429   8.858
19880TIP3   OH259516   1.383   5.547   8.116
19880TIP3    H159517   1.287   5.527   8.125
19880TIP3    H259518   1.389   5.642   8.140
19881TIP3   OH259519   1.348   6.545   9.246
19881TIP3    H159520   1.307   6.490   9.316
19881TIP3    H259521   1.296   6.627   9.253
19882TIP3   OH259522   1.451   5.794   8.222
19882TIP3    H159523   1.548   5.801   8.234
19882TIP3    H259524   1.431   5.872   8.167
19883TIP3   OH259525   1.081   6.380   8.076
19883TIP3    H159526   1.034   6.466   8.084
19883TIP3    H259527   1.023   6.322   8.130
19884TIP3   OH259528   1.487   6.822   9.137
19884TIP3    H159529   1.396   6.794   9.157
19884TIP3    H259530   1.512   6.867   9.220
19885TIP3   OH259531   1.895   5.883   8.054
19885TIP3    H159532   1.833   5.838   7.993
19885TIP3    H259533   1.890   5.973   8.014
19886TIP3   OH259534   2.112   6.740   9.136
19886TIP3    H159535   2.014   6.735   9.127
19886TIP3    H259536   2.139   6.711   9.045
19887TIP3   OH259537   1.595   6.700   7.965
19887TIP3    H159538   1.569   6.625   8.020
19887TIP3    H259539   1.607   6.659   7.877
19888TIP3   OH259540   1.590   6.331   8.805
19888TIP3    H159541   1.497   6.304   8.814
19888TIP3    H259542   1.626   6.253   8.758
19889TIP3   OH259543   0.901   6.326   8.492
19889TIP3    H159544   0.889   6.421   8.504
19889TIP3    H259545   0.842   6.290   8.559
19890TIP3   OH259546   1.384   6.541   8.976
19890TIP3    H159547   1.378   6.535   9.074
19890TIP3    H259548   1.457   6.480   8.957
19891TIP3   OH259549   1.350   6.430   7.864
19891TIP3    H159550   1.398   6.406   7.946
19891TIP3    H259551   1.260   6.401   7.887
19892TIP3   OH259552   1.620   7.076   9.036
19892TIP3    H159553   1.546   7.014   9.027
19892TIP3    H259554   1.607   7.136   8.960
19893TIP3   OH259555   1.688   6.905   7.686
19893TIP3    H159556   1.721   6.972   7.624
19893TIP3    H259557   1.609   6.954   7.719
19894TIP3   OH259558   1.509   6.369   8.087
19894TIP3    H159559   1.499   6.299   8.155
19894TIP3    H259560   1.605   6.364   8.071
19895TIP3   OH259561   0.771   6.381   7.892
19895TIP3    H159562   0.782   6.296   7.844
19895TIP3    H259563   0.737   6.348   7.976
19896TIP3   OH259564   1.527   5.769   9.230
19896TIP3    H159565   1.618   5.787   9.259
19896TIP3    H259566   1.505   5.682   9.269
19897TIP3   OH259567   1.426   5.498   8.397
19897TIP3    H159568   1.409   5.520   8.303
19897TIP3    H259569   1.463   5.582   8.431
19898TIP3   OH259570   0.938   6.609   8.095
19898TIP3    H159571   0.844   6.625   8.110
19898TIP3    H259572   0.950   6.645   8.005
19899TIP3   OH259573   1.122   5.675   8.499
19899TIP3    H159574   1.183   5.749   8.480
19899TIP3    H259575   1.126   5.672   8.597
19900TIP3   OH259576   1.379   5.996   9.301
19900TIP3    H159577   1.395   6.004   9.396
19900TIP3    H259578   1.428   5.913   9.281
19901TIP3   OH259579   1.267   5.409   8.609
19901TIP3    H159580   1.247   5.492   8.656
19901TIP3    H259581   1.323   5.442   8.535
19902TIP3   OH259582   0.765   5.418   8.391
19902TIP3    H159583   0.795   5.502   8.433
19902TIP3    H259584   0.842   5.361   8.409
19903TIP3   OH259585   2.014   5.894   9.290
19903TIP3    H159586   1.918   5.878   9.291
19903TIP3    H259587   2.038   5.863   9.202
19904TIP3   OH259588   1.675   6.091   8.678
19904TIP3    H159589   1.599   6.030   8.686
19904TIP3    H259590   1.746   6.042   8.724
19905TIP3   OH259591   1.642   7.053   8.630
19905TIP3    H159592   1.601   7.099   8.554
19905TIP3    H259593   1.737   7.070   8.609
19906TIP3   OH259594   0.921   6.600   7.809
19906TIP3    H159595   0.867   6.521   7.831
19906TIP3    H259596   0.969   6.569   7.730
19907TIP3   OH259597   1.521   6.950   9.381
19907TIP3    H159598   1.506   6.886   9.454
19907TIP3    H259599   1.599   7.000   9.413
19908TIP3   OH259600   1.317   6.659   7.689
19908TIP3    H159601   1.362   6.593   7.745
19908TIP3    H259602   1.371   6.657   7.607
19909TIP3   OH259603   1.192   6.425   9.439
19909TIP3    H159604   1.122   6.490   9.445
19909TIP3    H259605   1.224   6.416   9.531
19910TIP3   OH259606   1.055   6.323   7.803
19910TIP3    H159607   1.044   6.340   7.898
19910TIP3    H259608   1.047   6.225   7.800
19911TIP3   OH259609   1.652   6.572   9.185
19911TIP3    H159610   1.719   6.624   9.137
19911TIP3    H259611   1.572   6.625   9.171
19912TIP3   OH259612   0.742   6.027   8.233
19912TIP3    H159613   0.693   5.961   8.285
19912TIP3    H259614   0.776   5.967   8.163
19913TIP3   OH259615   1.070   6.103   9.420
19913TIP3    H159616   0.977   6.130   9.408
19913TIP3    H259617   1.109   6.130   9.334
19914TIP3   OH259618   0.834   5.833   8.058
19914TIP3    H159619   0.808   5.838   7.964
19914TIP3    H259620   0.932   5.836   8.051
19915TIP3   OH259621   1.569   6.521   9.559
19915TIP3    H159622   1.651   6.533   9.508
19915TIP3    H259623   1.585   6.431   9.591
19916TIP3   OH259624   1.656   6.160   7.724
19916TIP3    H159625   1.632   6.114   7.641
19916TIP3    H259626   1.625   6.251   7.701
19917TIP3   OH259627   1.109   5.654   9.347
19917TIP3    H159628   1.149   5.696   9.268
19917TIP3    H259629   1.017   5.680   9.339
19918TIP3   OH259630   1.154   6.219   9.191
19918TIP3    H159631   1.244   6.209   9.158
19918TIP3    H259632   1.147   6.315   9.201
19919TIP3   OH259633   1.777   6.426   9.369
19919TIP3    H159634   1.721   6.479   9.307
19919TIP3    H259635   1.866   6.448   9.332
19920TIP3   OH259636   1.893   7.145   8.582
19920TIP3    H159637   1.930   7.177   8.666
19920TIP3    H259638   1.962   7.171   8.518
19921TIP3   OH259639   1.927   7.161   8.868
19921TIP3    H159640   1.884   7.072   8.862
19921TIP3    H259641   2.006   7.137   8.919
19922TIP3   OH259642   1.985   6.837   9.414
19922TIP3    H159643   1.910   6.837   9.477
19922TIP3    H259644   2.019   6.928   9.423
19923TIP3   OH259645   1.788   6.346   8.057
19923TIP3    H159646   1.856   6.411   8.028
19923TIP3    H259647   1.832   6.307   8.136
19924TIP3   OH259648   1.917   6.214   8.260
19924TIP3    H159649   1.851   6.172   8.320
19924TIP3    H259650   1.981   6.252   8.323
19925TIP3   OH259651   1.969   6.605   8.693
19925TIP3    H159652   2.023   6.541   8.643
19925TIP3    H259653   1.965   6.681   8.631
19926TIP3   OH259654   1.803   6.908   8.888
19926TIP3    H159655   1.730   6.944   8.942
19926TIP3    H259656   1.754   6.859   8.818
19927TIP3   OH259657   1.854   6.121   7.908
19927TIP3    H159658   1.783   6.125   7.840
19927TIP3    H259659   1.828   6.198   7.963
19928TIP3   OH259660   1.729   5.793   7.860
19928TIP3    H159661   1.679   5.836   7.789
19928TIP3    H259662   1.702   5.699   7.848
19929TIP3   OH259663   1.730   6.070   8.407
19929TIP3    H159664   1.737   5.973   8.402
19929TIP3    H259665   1.717   6.085   8.503
19930TIP3   OH259666   2.019   6.497   9.268
19930TIP3    H159667   2.092   6.431   9.258
19930TIP3    H259668   2.045   6.566   9.205
19931TIP3   OH259669   2.205   6.308   9.285
19931TIP3    H159670   2.133   6.251   9.320
19931TIP3    H259671   2.281   6.246   9.294
19932TIP3   OH259672   1.671   5.525   7.843
19932TIP3    H159673   1.742   5.497   7.904
19932TIP3    H259674   1.594   5.472   7.870
19933TIP3   OH259675   1.727   5.787   8.303
19933TIP3    H159676   1.768   5.699   8.318
19933TIP3    H259677   1.785   5.820   8.232
19934TIP3   OH259678   1.889   5.961   8.798
19934TIP3    H159679   1.974   5.988   8.756
19934TIP3    H259680   1.903   5.999   8.886
19935TIP3   OH259681   1.957   6.105   9.031
19935TIP3    H159682   1.879   6.141   9.078
19935TIP3    H259683   1.989   6.184   8.983
19936TIP3   OH259684   2.392   5.673   9.566
19936TIP3    H159685   2.466   5.623   9.526
19936TIP3    H259686   2.408   5.763   9.532
19937TIP3   OH259687   1.836   5.536   8.340
19937TIP3    H159688   1.883   5.519   8.424
19937TIP3    H259689   1.774   5.460   8.338
19938TIP3   OH259690   2.276   5.853   9.381
19938TIP3    H159691   2.180   5.868   9.390
19938TIP3    H259692   2.276   5.772   9.328
19939TIP3   OH259693   1.917   5.472   7.974
19939TIP3    H159694   1.957   5.400   7.921
19939TIP3    H259695   1.984   5.543   7.967
19940TIP3   OH259696   1.486   7.006   8.245
19940TIP3    H159697   1.523   6.981   8.158
19940TIP3    H259698   1.551   7.069   8.275
19941TIP3   OH259699   1.272   7.040   9.292
19941TIP3    H159700   1.354   7.009   9.338
19941TIP3    H259701   1.310   7.100   9.225
19942TIP3   OH259702   1.405   7.242   9.159
19942TIP3    H159703   1.469   7.187   9.111
19942TIP3    H259704   1.463   7.297   9.213
19943TIP3   OH259705   2.176   5.601   9.251
19943TIP3    H159706   2.087   5.592   9.214
19943TIP3    H259707   2.210   5.508   9.244
19944TIP3   OH259708   1.101   7.114   8.814
19944TIP3    H159709   1.008   7.128   8.792
19944TIP3    H259710   1.124   7.201   8.854
19945TIP3   OH259711   1.364   7.060   8.909
19945TIP3    H159712   1.273   7.057   8.873
19945TIP3    H259713   1.407   7.118   8.846
19946TIP3   OH259714   1.579   7.249   8.809
19946TIP3    H159715   1.533   7.305   8.745
19946TIP3    H259716   1.612   7.178   8.749
19947TIP3   OH259717   1.385   5.516   8.897
19947TIP3    H159718   1.341   5.444   8.946
19947TIP3    H259719   1.447   5.466   8.841
19948TIP3   OH259720   1.908   5.398   8.799
19948TIP3    H159721   1.944   5.446   8.721
19948TIP3    H259722   1.811   5.410   8.786
19949TIP3   OH259723   2.001   5.493   8.559
19949TIP3    H159724   2.074   5.441   8.517
19949TIP3    H259725   2.034   5.584   8.543
19950TIP3   OH259726   1.081   5.276   8.781
19950TIP3    H159727   1.150   5.320   8.729
19950TIP3    H259728   1.113   5.288   8.872
19951TIP3   OH259729   1.629   5.404   8.766
19951TIP3    H159730   1.616   5.368   8.677
19951TIP3    H259731   1.612   5.324   8.821
19952TIP3   OH259732   1.653   5.324   8.332
19952TIP3    H159733   1.565   5.366   8.341
19952TIP3    H259734   1.637   5.238   8.377
19953TIP3   OH259735   0.529   5.219   8.329
19953TIP3    H159736   0.564   5.162   8.259
19953TIP3    H259737   0.607   5.227   8.388
19954TIP3   OH259738   1.054   5.425   8.411
19954TIP3    H159739   1.098   5.372   8.479
19954TIP3    H259740   1.079   5.516   8.439
19955TIP3   OH259741   0.917   6.863   7.944
19955TIP3    H159742   1.003   6.860   7.898
19955TIP3    H259743   0.859   6.828   7.872
19956TIP3   OH259744   1.619   6.966   8.009
19956TIP3    H159745   1.614   6.869   7.991
19956TIP3    H259746   1.579   7.002   7.927
19957TIP3   OH259747   1.851   7.101   9.203
19957TIP3    H159748   1.773   7.075   9.150
19957TIP3    H259749   1.846   7.199   9.190
19958TIP3   OH259750   3.119   6.485   7.961
19958TIP3    H159751   3.091   6.577   7.941
19958TIP3    H259752   3.041   6.437   7.928
19959TIP3   OH259753   3.118   6.486   8.341
19959TIP3    H159754   3.149   6.458   8.429
19959TIP3    H259755   3.076   6.405   8.308
19960TIP3   OH259756   2.417   6.381   8.709
19960TIP3    H159757   2.449   6.315   8.773
19960TIP3    H259758   2.496   6.436   8.697
19961TIP3   OH259759   3.362   6.786   8.024
19961TIP3    H159760   3.348   6.720   8.092
19961TIP3    H259761   3.389   6.864   8.075
19962TIP3   OH259762   2.389   6.790   8.436
19962TIP3    H159763   2.381   6.693   8.436
19962TIP3    H259764   2.485   6.799   8.424
19963TIP3   OH259765   2.095   5.994   8.218
19963TIP3    H159766   2.046   6.078   8.232
19963TIP3    H259767   2.024   5.941   8.177
19964TIP3   OH259768   2.154   6.282   8.389
19964TIP3    H159769   2.204   6.205   8.426
19964TIP3    H259770   2.214   6.313   8.320
19965TIP3   OH259771   3.009   7.249   8.038
19965TIP3    H159772   3.056   7.178   7.990
19965TIP3    H259773   3.006   7.213   8.128
19966TIP3   OH259774   2.916   6.711   8.391
19966TIP3    H159775   2.955   6.636   8.343
19966TIP3    H259776   2.999   6.757   8.416
19967TIP3   OH259777   3.929   6.032   8.388
19967TIP3    H159778   3.957   6.114   8.433
19967TIP3    H259779   3.950   6.054   8.295
19968TIP3   OH259780   3.328   6.213   8.423
19968TIP3    H159781   3.371   6.128   8.443
19968TIP3    H259782   3.298   6.198   8.332
19969TIP3   OH259783   2.666   5.873   8.388
19969TIP3    H159784   2.646   5.946   8.326
19969TIP3    H259785   2.618   5.799   8.344
19970TIP3   OH259786   3.361   5.963   8.011
19970TIP3    H159787   3.434   5.948   8.075
19970TIP3    H259788   3.411   5.999   7.936
19971TIP3   OH259789   2.300   6.074   8.496
19971TIP3    H159790   2.383   6.055   8.542
19971TIP3    H259791   2.312   6.019   8.415
19972TIP3   OH259792   2.741   6.273   8.288
19972TIP3    H159793   2.835   6.247   8.301
19972TIP3    H259794   2.702   6.189   8.256
19973TIP3   OH259795   4.001   6.237   8.559
19973TIP3    H159796   3.918   6.287   8.541
19973TIP3    H259797   4.022   6.270   8.648
19974TIP3   OH259798   2.663   5.855   8.822
19974TIP3    H159799   2.604   5.892   8.754
19974TIP3    H259800   2.611   5.874   8.903
19975TIP3   OH259801   3.010   6.707   7.831
19975TIP3    H159802   2.968   6.689   7.745
19975TIP3    H259803   2.967   6.791   7.855
19976TIP3   OH259804   2.769   6.631   8.618
19976TIP3    H159805   2.707   6.698   8.654
19976TIP3    H259806   2.812   6.681   8.546
19977TIP3   OH259807   3.572   5.965   8.183
19977TIP3    H159808   3.559   5.920   8.267
19977TIP3    H259809   3.625   6.043   8.209
19978TIP3   OH259810   2.534   5.971   8.607
19978TIP3    H159811   2.595   6.044   8.629
19978TIP3    H259812   2.583   5.930   8.532
19979TIP3   OH259813   2.597   6.825   8.716
19979TIP3    H159814   2.572   6.910   8.674
19979TIP3    H259815   2.518   6.811   8.773
19980TIP3   OH259816   1.992   6.515   7.952
19980TIP3    H159817   1.952   6.540   7.867
19980TIP3    H259818   2.021   6.601   7.987
19981TIP3   OH259819   3.431   7.029   8.190
19981TIP3    H159820   3.341   7.023   8.229
19981TIP3    H259821   3.425   7.116   8.145
19982TIP3   OH259822   3.723   5.929   8.552
19982TIP3    H159823   3.636   5.962   8.525
19982TIP3    H259824   3.782   5.963   8.482
19983TIP3   OH259825   3.020   5.576   8.535
19983TIP3    H159826   3.007   5.480   8.553
19983TIP3    H259827   2.942   5.613   8.582
19984TIP3   OH259828   3.134   7.076   7.866
19984TIP3    H159829   3.185   6.995   7.843
19984TIP3    H259830   3.192   7.144   7.824
19985TIP3   OH259831   3.276   6.861   7.771
19985TIP3    H159832   3.237   6.782   7.733
19985TIP3    H259833   3.312   6.827   7.856
19986TIP3   OH259834   3.658   6.943   8.536
19986TIP3    H159835   3.648   6.867   8.475
19986TIP3    H259836   3.640   7.019   8.476
19987TIP3   OH259837   2.949   6.337   7.791
19987TIP3    H159838   2.868   6.389   7.770
19987TIP3    H259839   2.995   6.337   7.706
19988TIP3   OH259840   2.908   6.122   7.509
19988TIP3    H159841   2.976   6.172   7.558
19988TIP3    H259842   2.966   6.059   7.461
19989TIP3   OH259843   3.853   6.578   8.378
19989TIP3    H159844   3.771   6.632   8.384
19989TIP3    H259845   3.883   6.604   8.288
19990TIP3   OH259846   3.296   6.419   7.764
19990TIP3    H159847   3.241   6.445   7.842
19990TIP3    H259848   3.380   6.394   7.808
19991TIP3   OH259849   3.532   6.459   8.676
19991TIP3    H159850   3.530   6.543   8.725
19991TIP3    H259851   3.446   6.464   8.629
19992TIP3   OH259852   2.528   6.418   8.181
19992TIP3    H159853   2.488   6.360   8.112
19992TIP3    H259854   2.606   6.365   8.209
19993TIP3   OH259855   2.655   6.824   8.331
19993TIP3    H159856   2.638   6.788   8.243
19993TIP3    H259857   2.747   6.793   8.348
19994TIP3   OH259858   2.664   6.390   8.534
19994TIP3    H159859   2.698   6.369   8.445
19994TIP3    H259860   2.708   6.475   8.555
19995TIP3   OH259861   3.190   7.027   8.312
19995TIP3    H159862   3.176   7.108   8.364
19995TIP3    H259863   3.176   6.955   8.376
19996TIP3   OH259864   2.803   6.946   8.859
19996TIP3    H159865   2.743   7.010   8.904
19996TIP3    H259866   2.737   6.893   8.809
19997TIP3   OH259867   3.139   6.277   7.590
19997TIP3    H159868   3.197   6.337   7.642
19997TIP3    H259869   3.164   6.302   7.498
19998TIP3   OH259870   2.558   6.503   8.959
19998TIP3    H159871   2.563   6.589   9.005
19998TIP3    H259872   2.463   6.484   8.967
19999TIP3   OH259873   2.880   6.958   7.866
19999TIP3    H159874   2.959   7.012   7.882
19999TIP3    H259875   2.819   7.021   7.826
20000TIP3   OH259876   2.597   7.117   8.944
20000TIP3    H159877   2.564   7.114   8.852
20000TIP3    H259878   2.516   7.095   8.996
20001TIP3   OH259879   3.654   5.519   7.639
20001TIP3    H159880   3.572   5.538   7.689
20001TIP3    H259881   3.666   5.602   7.589
20002TIP3   OH259882   2.396   6.261   7.985
20002TIP3    H159883   2.331   6.308   7.928
20002TIP3    H259884   2.352   6.176   7.997
20003TIP3   OH259885   3.451   6.886   7.185
20003TIP3    H159886   3.458   6.984   7.172
20003TIP3    H259887   3.544   6.859   7.173
20004TIP3   OH259888   2.176   6.645   8.891
20004TIP3    H159889   2.113   6.622   8.821
20004TIP3    H259890   2.214   6.558   8.916
20005TIP3   OH259891   2.032   6.835   8.530
20005TIP3    H159892   2.126   6.825   8.510
20005TIP3    H259893   2.032   6.916   8.583
20006TIP3   OH259894   3.897   7.288   8.583
20006TIP3    H159895   3.894   7.192   8.595
20006TIP3    H259896   3.812   7.314   8.626
20007TIP3   OH259897   3.002   7.075   8.716
20007TIP3    H159898   3.000   7.168   8.747
20007TIP3    H259899   2.930   7.036   8.770
20008TIP3   OH259900   2.762   7.203   7.668
20008TIP3    H159901   2.716   7.186   7.584
20008TIP3    H259902   2.730   7.292   7.692
20009TIP3   OH259903   2.200   7.048   8.048
20009TIP3    H159904   2.248   7.042   8.133
20009TIP3    H259905   2.141   6.971   8.055
20010TIP3   OH259906   2.964   7.105   7.307
20010TIP3    H159907   3.022   7.035   7.271
20010TIP3    H259908   2.998   7.115   7.399
20011TIP3   OH259909   3.014   7.152   7.577
20011TIP3    H159910   2.925   7.163   7.618
20011TIP3    H259911   3.065   7.116   7.650
20012TIP3   OH259912   3.785   6.420   8.856
20012TIP3    H159913   3.705   6.433   8.803
20012TIP3    H259914   3.800   6.323   8.845
20013TIP3   OH259915   2.381   6.829   8.884
20013TIP3    H159916   2.433   6.809   8.965
20013TIP3    H259917   2.308   6.765   8.889
20014TIP3   OH259918   2.781   5.650   8.665
20014TIP3    H159919   2.691   5.621   8.639
20014TIP3    H259920   2.757   5.734   8.710
20015TIP3   OH259921   3.314   5.766   8.859
20015TIP3    H159922   3.382   5.740   8.924
20015TIP3    H259923   3.230   5.746   8.906
20016TIP3   OH259924   3.553   6.195   8.776
20016TIP3    H159925   3.505   6.192   8.862
20016TIP3    H259926   3.530   6.283   8.742
20017TIP3   OH259927   3.213   6.323   7.333
20017TIP3    H159928   3.181   6.299   7.244
20017TIP3    H259929   3.292   6.375   7.310
20018TIP3   OH259930   2.926   5.700   7.635
20018TIP3    H159931   2.894   5.699   7.727
20018TIP3    H259932   2.888   5.616   7.603
20019TIP3   OH259933   2.711   6.166   8.682
20019TIP3    H159934   2.664   6.188   8.765
20019TIP3    H259935   2.696   6.248   8.629
20020TIP3   OH259936   2.597   6.052   8.197
20020TIP3    H159937   2.504   6.027   8.214
20020TIP3    H259938   2.610   6.012   8.108
20021TIP3   OH259939   3.086   6.138   7.924
20021TIP3    H159940   3.033   6.210   7.883
20021TIP3    H259941   3.141   6.109   7.849
20022TIP3   OH259942   3.261   6.417   9.012
20022TIP3    H159943   3.239   6.344   9.074
20022TIP3    H259944   3.355   6.431   9.034
20023TIP3   OH259945   3.244   6.167   8.165
20023TIP3    H159946   3.185   6.199   8.093
20023TIP3    H259947   3.276   6.085   8.121
20024TIP3   OH259948   2.531   6.196   8.894
20024TIP3    H159949   2.564   6.258   8.960
20024TIP3    H259950   2.522   6.113   8.945
20025TIP3   OH259951   2.580   5.672   7.602
20025TIP3    H159952   2.573   5.670   7.700
20025TIP3    H259953   2.503   5.727   7.579
20026TIP3   OH259954   2.124   5.717   8.475
20026TIP3    H159955   2.200   5.749   8.527
20026TIP3    H259956   2.164   5.686   8.392
20027TIP3   OH259957   2.098   5.699   7.991
20027TIP3    H159958   2.142   5.738   7.913
20027TIP3    H259959   2.037   5.772   8.014
20028TIP3   OH259960   3.253   6.413   8.587
20028TIP3    H159961   3.287   6.342   8.528
20028TIP3    H259962   3.225   6.361   8.665
20029TIP3   OH259963   2.923   5.874   8.259
20029TIP3    H159964   2.841   5.873   8.312
20029TIP3    H259965   2.992   5.875   8.327
20030TIP3   OH259966   2.358   5.931   8.268
20030TIP3    H159967   2.263   5.937   8.241
20030TIP3    H259968   2.382   5.840   8.243
20031TIP3   OH259969   2.628   5.926   7.955
20031TIP3    H159970   2.722   5.943   7.934
20031TIP3    H259971   2.581   5.950   7.872
20032TIP3   OH259972   3.416   5.950   8.460
20032TIP3    H159973   3.382   5.962   8.551
20032TIP3    H259974   3.349   5.890   8.423
20033TIP3   OH259975   2.469   5.959   7.734
20033TIP3    H159976   2.397   5.916   7.683
20033TIP3    H259977   2.521   5.997   7.660
20034TIP3   OH259978   3.585   7.640   8.678
20034TIP3    H159979   3.583   7.664   8.584
20034TIP3    H259980   3.664   7.690   8.708
20035TIP3   OH259981   2.541   6.750   9.102
20035TIP3    H159982   2.622   6.780   9.148
20035TIP3    H259983   2.479   6.748   9.177
20036TIP3   OH259984   3.007   6.202   8.355
20036TIP3    H159985   3.081   6.164   8.305
20036TIP3    H259986   3.018   6.161   8.443
20037TIP3   OH259987   2.529   5.691   8.234
20037TIP3    H159988   2.496   5.610   8.280
20037TIP3    H259989   2.581   5.653   8.162
20038TIP3   OH259990   2.983   6.098   8.648
20038TIP3    H159991   2.894   6.136   8.661
20038TIP3    H259992   3.041   6.160   8.697
20039TIP3   OH259993   2.721   6.490   7.741
20039TIP3    H159994   2.647   6.426   7.730
20039TIP3    H259995   2.703   6.524   7.832
20040TIP3   OH259996   3.621   6.726   8.370
20040TIP3    H159997   3.646   6.776   8.290
20040TIP3    H259998   3.535   6.687   8.345
20041TIP3   OH259999   3.178   5.803   7.603
20041TIP3    H160000   3.081   5.788   7.611
20041TIP3    H260001   3.189   5.897   7.626
20042TIP3   OH260002   3.116   6.806   8.739
20042TIP3    H160003   3.144   6.789   8.830
20042TIP3    H260004   3.083   6.897   8.743
20043TIP3   OH260005   3.248   6.049   7.706
20043TIP3    H160006   3.344   6.057   7.721
20043TIP3    H260007   3.228   6.129   7.653
20044TIP3   OH260008   2.410   6.510   8.417
20044TIP3    H160009   2.449   6.486   8.331
20044TIP3    H260010   2.456   6.449   8.477
20045TIP3   OH260011   2.865   6.640   7.562
20045TIP3    H160012   2.818   6.727   7.567
20045TIP3    H260013   2.811   6.585   7.622
20046TIP3   OH260014   2.291   6.436   9.031
20046TIP3    H160015   2.317   6.422   9.124
20046TIP3    H260016   2.226   6.365   9.017
20047TIP3   OH260017   3.018   6.547   9.049
20047TIP3    H160018   2.960   6.489   8.999
20047TIP3    H260019   3.106   6.514   9.022
20048TIP3   OH260020   3.280   7.062   8.638
20048TIP3    H160021   3.183   7.067   8.646
20048TIP3    H260022   3.308   7.119   8.713
20049TIP3   OH260023   3.691   6.139   7.542
20049TIP3    H160024   3.629   6.094   7.480
20049TIP3    H260025   3.687   6.229   7.501
20050TIP3   OH260026   3.908   6.996   8.625
20050TIP3    H160027   3.810   6.992   8.615
20050TIP3    H260028   3.934   6.968   8.534
20051TIP3   OH260029   3.391   6.959   7.450
20051TIP3    H160030   3.365   6.890   7.512
20051TIP3    H260031   3.402   6.912   7.366
20052TIP3   OH260032   3.386   6.589   8.290
20052TIP3    H160033   3.292   6.563   8.302
20052TIP3    H260034   3.420   6.509   8.244
20053TIP3   OH260035   2.513   6.816   8.043
20053TIP3    H160036   2.517   6.898   7.989
20053TIP3    H260037   2.418   6.803   8.048
20054TIP3   OH260038   2.077   6.120   7.746
20054TIP3    H160039   2.123   6.205   7.765
20054TIP3    H260040   2.000   6.128   7.806
20055TIP3   OH260041   2.651   6.582   7.987
20055TIP3    H160042   2.618   6.672   8.003
20055TIP3    H260043   2.614   6.534   8.062
20056TIP3   OH260044   2.783   7.159   8.511
20056TIP3    H160045   2.821   7.232   8.459
20056TIP3    H260046   2.861   7.127   8.558
20057TIP3   OH260047   2.436   7.051   7.895
20057TIP3    H160048   2.349   7.064   7.937
20057TIP3    H260049   2.472   7.143   7.898
20058TIP3   OH260050   3.171   6.795   8.470
20058TIP3    H160051   3.162   6.792   8.567
20058TIP3    H260052   3.252   6.744   8.456
20059TIP3   OH260053   3.145   6.684   7.352
20059TIP3    H160054   3.198   6.660   7.432
20059TIP3    H260055   3.056   6.662   7.382
20060TIP3   OH260056   3.419   7.329   8.520
20060TIP3    H160057   3.339   7.274   8.508
20060TIP3    H260058   3.407   7.394   8.448
20061TIP3   OH260059   3.484   7.162   7.172
20061TIP3    H160060   3.521   7.235   7.119
20061TIP3    H260061   3.405   7.208   7.206
20062TIP3   OH260062   2.507   5.938   9.038
20062TIP3    H160063   2.411   5.941   9.054
20062TIP3    H260064   2.538   5.883   9.111
20063TIP3   OH260065   3.305   6.619   7.568
20063TIP3    H160066   3.296   6.554   7.641
20063TIP3    H260067   3.402   6.619   7.556
20064TIP3   OH260068   2.217   7.024   8.674
20064TIP3    H160069   2.272   6.948   8.700
20064TIP3    H260070   2.255   7.095   8.727
20065TIP3   OH260071   2.513   6.667   7.351
20065TIP3    H160072   2.526   6.575   7.323
20065TIP3    H260073   2.493   6.656   7.446
20066TIP3   OH260074   2.458   6.672   7.624
20066TIP3    H160075   2.530   6.648   7.684
20066TIP3    H260076   2.459   6.770   7.629
20067TIP3   OH260077   2.192   6.366   7.827
20067TIP3    H160078   2.126   6.411   7.884
20067TIP3    H260079   2.207   6.435   7.760
20068TIP3   OH260080   3.341   6.002   8.718
20068TIP3    H160081   3.421   6.042   8.758
20068TIP3    H260082   3.328   5.922   8.772
20069TIP3   OH260083   3.222   5.754   7.883
20069TIP3    H160084   3.207   5.778   7.790
20069TIP3    H260085   3.261   5.836   7.920
20070TIP3   OH260086   2.722   6.870   7.573
20070TIP3    H160087   2.635   6.898   7.608
20070TIP3    H260088   2.740   6.943   7.512
20071TIP3   OH260089   2.911   5.933   7.986
20071TIP3    H160090   2.975   6.004   7.968
20071TIP3    H260091   2.916   5.926   8.084
20072TIP3   OH260092   3.179   6.251   8.795
20072TIP3    H160093   3.200   6.307   8.873
20072TIP3    H260094   3.236   6.174   8.809
20073TIP3   OH260095   3.056   5.661   8.089
20073TIP3    H160096   3.048   5.737   8.149
20073TIP3    H260097   3.116   5.697   8.020
20074TIP3   OH260098   2.464   6.944   7.640
20074TIP3    H160099   2.436   7.014   7.576
20074TIP3    H260100   2.450   6.989   7.726
20075TIP3   OH260101   2.567   5.658   7.879
20075TIP3    H160102   2.564   5.749   7.914
20075TIP3    H260103   2.663   5.641   7.887
20076TIP3   OH260104   3.820   6.152   8.777
20076TIP3    H160105   3.722   6.150   8.782
20076TIP3    H260106   3.834   6.117   8.688
20077TIP3   OH260107   3.472   6.347   8.164
20077TIP3    H160108   3.396   6.287   8.176
20077TIP3    H260109   3.543   6.300   8.212
20078TIP3   OH260110   2.183   6.576   7.635
20078TIP3    H160111   2.246   6.650   7.641
20078TIP3    H260112   2.229   6.522   7.566
20079TIP3   OH260113   2.127   5.849   7.763
20079TIP3    H160114   2.132   5.947   7.761
20079TIP3    H260115   2.037   5.835   7.732
20080TIP3   OH260116   3.441   7.300   8.112
20080TIP3    H160117   3.398   7.347   8.037
20080TIP3    H260118   3.535   7.320   8.092
20081TIP3   OH260119   2.516   5.571   8.640
20081TIP3    H160120   2.485   5.538   8.553
20081TIP3    H260121   2.504   5.492   8.697
20082TIP3   OH260122   2.053   6.787   8.022
20082TIP3    H160123   1.978   6.820   8.072
20082TIP3    H260124   2.036   6.828   7.935
20083TIP3   OH260125   2.212   7.323   9.090
20083TIP3    H160126   2.299   7.320   9.134
20083TIP3    H260127   2.191   7.228   9.084
20084TIP3   OH260128   2.690   7.296   9.137
20084TIP3    H160129   2.785   7.279   9.146
20084TIP3    H260130   2.668   7.238   9.062
20085TIP3   OH260131   2.674   6.872   7.264
20085TIP3    H160132   2.619   6.801   7.303
20085TIP3    H260133   2.749   6.820   7.230
20086TIP3   OH260134   3.329   7.204   8.871
20086TIP3    H160135   3.323   7.132   8.938
20086TIP3    H260136   3.409   7.253   8.900
20087TIP3   OH260137   3.111   6.912   7.175
20087TIP3    H160138   3.158   6.850   7.233
20087TIP3    H260139   3.167   6.914   7.095
20088TIP3   OH260140   2.340   6.737   9.293
20088TIP3    H160141   2.361   6.642   9.297
20088TIP3    H260142   2.254   6.737   9.246
20089TIP3   OH260143   2.319   6.388   7.485
20089TIP3    H160144   2.376   6.358   7.558
20089TIP3    H260145   2.385   6.393   7.413
20090TIP3   OH260146   2.948   6.822   9.067
20090TIP3    H160147   2.909   6.838   8.979
20090TIP3    H260148   2.981   6.729   9.059
20091TIP3   OH260149   2.830   6.586   7.292
20091TIP3    H160150   2.831   6.600   7.389
20091TIP3    H260151   2.827   6.488   7.289
20092TIP3   OH260152   3.442   6.831   8.671
20092TIP3    H160153   3.517   6.875   8.627
20092TIP3    H260154   3.373   6.898   8.659
20093TIP3   OH260155   2.461   6.470   9.271
20093TIP3    H160156   2.535   6.411   9.252
20093TIP3    H260157   2.488   6.505   9.359
20094TIP3   OH260158   2.527   6.292   7.707
20094TIP3    H160159   2.501   6.250   7.791
20094TIP3    H260160   2.563   6.216   7.657
20095TIP3   OH260161   2.794   6.353   8.932
20095TIP3    H160162   2.720   6.416   8.938
20095TIP3    H260163   2.845   6.389   8.855
20096TIP3   OH260164   2.628   6.084   7.549
20096TIP3    H160165   2.601   6.088   7.455
20096TIP3    H260166   2.726   6.092   7.540
20097TIP3   OH260167   3.312   6.757   9.069
20097TIP3    H160168   3.393   6.735   9.022
20097TIP3    H260169   3.311   6.691   9.140
20098TIP3   OH260170   3.451   6.416   7.210
20098TIP3    H160171   3.428   6.370   7.127
20098TIP3    H260172   3.420   6.507   7.188
20099TIP3   OH260173   2.920   6.144   9.062
20099TIP3    H160174   2.920   6.064   9.005
20099TIP3    H260175   2.876   6.210   9.004
20100TIP3   OH260176   2.922   5.929   8.868
20100TIP3    H160177   2.950   5.972   8.785
20100TIP3    H260178   2.829   5.907   8.850
20101TIP3   OH260179   2.949   6.466   8.741
20101TIP3    H160180   3.033   6.475   8.695
20101TIP3    H260181   2.894   6.534   8.698
20102TIP3   OH260182   3.532   6.434   9.124
20102TIP3    H160183   3.581   6.351   9.132
20102TIP3    H260184   3.600   6.493   9.088
20103TIP3   OH260185   3.572   6.686   8.859
20103TIP3    H160186   3.515   6.740   8.800
20103TIP3    H260187   3.660   6.706   8.819
20104TIP3   OH260188   2.798   6.260   9.288
20104TIP3    H160189   2.727   6.195   9.305
20104TIP3    H260190   2.833   6.228   9.203
20105TIP3   OH260191   3.054   5.695   8.937
20105TIP3    H160192   3.007   5.778   8.914
20105TIP3    H260193   2.984   5.628   8.925
20106TIP3   OH260194   3.180   6.199   9.153
20106TIP3    H160195   3.167   6.189   9.249
20106TIP3    H260196   3.090   6.175   9.122
20107TIP3   OH260197   3.419   6.147   9.007
20107TIP3    H160198   3.343   6.150   9.068
20107TIP3    H260199   3.492   6.117   9.064
20108TIP3   OH260200   3.648   6.089   9.159
20108TIP3    H160201   3.661   5.994   9.177
20108TIP3    H260202   3.644   6.128   9.249
20109TIP3   OH260203   2.632   6.042   9.331
20109TIP3    H160204   2.644   5.950   9.302
20109TIP3    H260205   2.676   6.036   9.420
20110TIP3   OH260206   3.147   5.702   9.195
20110TIP3    H160207   3.217   5.634   9.187
20110TIP3    H260208   3.108   5.699   9.106
20111TIP3   OH260209   3.215   5.925   9.344
20111TIP3    H160210   3.189   5.853   9.282
20111TIP3    H260211   3.135   5.983   9.343
20112TIP3   OH260212   2.435   7.143   7.451
20112TIP3    H160213   2.530   7.144   7.433
20112TIP3    H260214   2.403   7.195   7.375
20113TIP3   OH260215   1.915   6.528   7.672
20113TIP3    H160216   2.010   6.551   7.657
20113TIP3    H260217   1.910   6.441   7.627
20114TIP3   OH260218   1.816   7.142   8.085
20114TIP3    H160219   1.755   7.076   8.047
20114TIP3    H260220   1.870   7.086   8.145
20115TIP3   OH260221   1.963   6.995   8.266
20115TIP3    H160222   1.955   6.919   8.326
20115TIP3    H260223   2.016   7.056   8.320
20116TIP3   OH260224   3.694   7.390   8.069
20116TIP3    H160225   3.716   7.430   8.155
20116TIP3    H260226   3.749   7.443   8.009
20117TIP3   OH260227   3.719   7.413   8.352
20117TIP3    H160228   3.680   7.324   8.347
20117TIP3    H260229   3.798   7.395   8.405
20118TIP3   OH260230   3.769   7.090   8.925
20118TIP3    H160231   3.696   7.099   8.989
20118TIP3    H260232   3.810   7.179   8.928
20119TIP3   OH260233   3.585   6.603   7.543
20119TIP3    H160234   3.653   6.668   7.516
20119TIP3    H260235   3.628   6.564   7.623
20120TIP3   OH260236   3.713   6.469   7.746
20120TIP3    H160237   3.647   6.429   7.807
20120TIP3    H260238   3.778   6.509   7.808
20121TIP3   OH260239   3.766   6.862   8.180
20121TIP3    H160240   3.820   6.800   8.128
20121TIP3    H260241   3.760   6.939   8.119
20122TIP3   OH260242   3.598   7.160   8.377
20122TIP3    H160243   3.527   7.207   8.426
20122TIP3    H260244   3.547   7.115   8.306
20123TIP3   OH260245   3.650   6.377   7.395
20123TIP3    H160246   3.579   6.382   7.327
20123TIP3    H260247   3.625   6.454   7.450
20124TIP3   OH260248   3.523   6.050   7.349
20124TIP3    H160249   3.478   6.093   7.274
20124TIP3    H260250   3.496   5.957   7.336
20125TIP3   OH260251   3.526   6.327   7.894
20125TIP3    H160252   3.535   6.230   7.890
20125TIP3    H260253   3.512   6.343   7.990
20126TIP3   OH260254   2.153   6.400   8.642
20126TIP3    H160255   2.151   6.370   8.549
20126TIP3    H260256   2.250   6.403   8.658
20127TIP3   OH260257   3.814   6.751   8.751
20127TIP3    H160258   3.888   6.686   8.742
20127TIP3    H260259   3.842   6.822   8.690
20128TIP3   OH260260   4.000   6.558   8.768
20128TIP3    H160261   3.926   6.507   8.808
20128TIP3    H260262   4.073   6.494   8.782
20129TIP3   OH260263   3.465   5.784   7.334
20129TIP3    H160264   3.539   5.755   7.392
20129TIP3    H260265   3.391   5.727   7.360
20130TIP3   OH260266   3.522   6.043   7.790
20130TIP3    H160267   3.564   5.955   7.804
20130TIP3    H260268   3.580   6.077   7.720
20131TIP3   OH260269   3.685   6.217   8.284
20131TIP3    H160270   3.770   6.244   8.244
20131TIP3    H260271   3.697   6.255   8.373
20132TIP3   OH260272   3.752   6.361   8.517
20132TIP3    H160273   3.674   6.396   8.565
20132TIP3    H260274   3.784   6.442   8.471
20133TIP3   OH260275   2.368   6.096   9.307
20133TIP3    H160276   2.466   6.090   9.312
20133TIP3    H260277   2.345   6.011   9.350
20134TIP3   OH260278   4.204   5.951   9.073
20134TIP3    H160279   4.262   5.886   9.030
20134TIP3    H260280   4.176   6.007   8.997
20135TIP3   OH260281   3.633   5.793   7.826
20135TIP3    H160282   3.680   5.776   7.911
20135TIP3    H260283   3.571   5.716   7.825
20136TIP3   OH260284   2.331   5.779   8.649
20136TIP3    H160285   2.395   5.705   8.658
20136TIP3    H260286   2.393   5.855   8.641
20137TIP3   OH260287   2.135   6.054   8.720
20137TIP3    H160288   2.183   6.045   8.635
20137TIP3    H260289   2.164   6.141   8.749
20138TIP3   OH260290   4.075   6.092   8.880
20138TIP3    H160291   3.988   6.132   8.900
20138TIP3    H260292   4.047   6.020   8.820
20139TIP3   OH260293   3.713   5.728   7.460
20139TIP3    H160294   3.752   5.657   7.405
20139TIP3    H260295   3.778   5.800   7.452
20140TIP3   OH260296   2.117   5.558   8.221
20140TIP3    H160297   2.023   5.555   8.246
20140TIP3    H260298   2.115   5.616   8.142
20141TIP3   OH260299   3.277   7.257   7.727
20141TIP3    H160300   3.329   7.246   7.645
20141TIP3    H260301   3.326   7.327   7.772
20142TIP3   OH260302   2.341   5.635   9.027
20142TIP3    H160303   2.289   5.633   9.110
20142TIP3    H260304   2.275   5.676   8.967
20143TIP3   OH260305   2.377   7.069   9.114
20143TIP3    H160306   2.287   7.037   9.095
20143TIP3    H260307   2.390   7.039   9.205
20144TIP3   OH260308   2.555   7.097   8.660
20144TIP3    H160309   2.509   7.173   8.620
20144TIP3    H260310   2.641   7.109   8.615
20145TIP3   OH260311   3.000   7.342   8.798
20145TIP3    H160312   3.043   7.343   8.886
20145TIP3    H260313   3.066   7.391   8.745
20146TIP3   OH260314   3.179   7.491   8.656
20146TIP3    H160315   3.250   7.443   8.611
20146TIP3    H260316   3.232   7.549   8.716
20147TIP3   OH260317   3.975   5.855   8.756
20147TIP3    H160318   3.883   5.850   8.722
20147TIP3    H260319   4.005   5.762   8.743
20148TIP3   OH260320   2.237   7.349   8.686
20148TIP3    H160321   2.149   7.383   8.660
20148TIP3    H260322   2.248   7.394   8.771
20149TIP3   OH260323   2.469   7.331   8.539
20149TIP3    H160324   2.383   7.344   8.584
20149TIP3    H260325   2.450   7.365   8.449
20150TIP3   OH260326   2.895   7.360   8.340
20150TIP3    H160327   2.825   7.379   8.274
20150TIP3    H260328   2.908   7.449   8.379
20151TIP3   OH260329   3.164   7.300   8.391
20151TIP3    H160330   3.070   7.318   8.370
20151TIP3    H260331   3.208   7.374   8.347
20152TIP3   OH260332   3.367   7.489   8.304
20152TIP3    H160333   3.355   7.576   8.258
20152TIP3    H260334   3.395   7.432   8.230
20153TIP3   OH260335   2.137   7.143   8.431
20153TIP3    H160336   2.170   7.120   8.520
20153TIP3    H260337   2.211   7.105   8.377
20154TIP3   OH260338   2.334   7.020   8.286
20154TIP3    H160339   2.353   6.936   8.333
20154TIP3    H260340   2.425   7.059   8.280
20155TIP3   OH260341   2.599   7.113   8.289
20155TIP3    H160342   2.634   7.023   8.273
20155TIP3    H260343   2.647   7.136   8.371
20156TIP3   OH260344   3.179   5.770   8.374
20156TIP3    H160345   3.136   5.700   8.427
20156TIP3    H260346   3.252   5.722   8.330
20157TIP3   OH260347   3.703   5.648   8.279
20157TIP3    H160348   3.739   5.702   8.205
20157TIP3    H260349   3.607   5.669   8.274
20158TIP3   OH260350   3.799   5.749   8.043
20158TIP3    H160351   3.873   5.699   8.003
20158TIP3    H260352   3.831   5.841   8.029
20159TIP3   OH260353   2.428   5.479   8.392
20159TIP3    H160354   2.336   5.445   8.392
20159TIP3    H260355   2.477   5.394   8.389
20160TIP3   OH260356   2.214   5.348   8.040
20160TIP3    H160357   2.244   5.406   7.967
20160TIP3    H260358   2.185   5.413   8.107
20161TIP3   OH260359   2.871   5.511   8.272
20161TIP3    H160360   2.930   5.561   8.212
20161TIP3    H260361   2.894   5.549   8.358
20162TIP3   OH260362   3.419   5.658   8.256
20162TIP3    H160363   3.416   5.621   8.167
20162TIP3    H260364   3.406   5.576   8.311
20163TIP3   OH260365   3.449   5.580   7.818
20163TIP3    H160366   3.362   5.623   7.829
20163TIP3    H260367   3.433   5.495   7.864
20164TIP3   OH260368   1.929   6.922   7.823
20164TIP3    H160369   1.845   6.890   7.786
20164TIP3    H260370   1.924   7.015   7.796
20165TIP3   OH260371   2.332   5.511   7.801
20165TIP3    H160372   2.381   5.447   7.746
20165TIP3    H260373   2.404   5.564   7.839
20166TIP3   OH260374   2.844   5.682   7.901
20166TIP3    H160375   2.904   5.637   7.962
20166TIP3    H260376   2.864   5.775   7.926
20167TIP3   OH260377   2.704   7.107   7.403
20167TIP3    H160378   2.791   7.132   7.365
20167TIP3    H260379   2.682   7.033   7.342
20168TIP3   OH260380   3.423   7.227   7.494
20168TIP3    H160381   3.413   7.129   7.480
20168TIP3    H260382   3.377   7.261   7.414
20169TIP3   OH260383   2.632   5.757   9.274
20169TIP3    H160384   2.605   5.683   9.332
20169TIP3    H260385   2.727   5.762   9.300
20170TIP3   OH260386   2.883   5.750   9.381
20170TIP3    H160387   2.973   5.731   9.348
20170TIP3    H260388   2.877   5.693   9.460
20171TIP3   OH260389   2.005   6.939   7.458
20171TIP3    H160390   2.009   6.979   7.546
20171TIP3    H260391   2.096   6.902   7.447
20172TIP3   OH260392   3.709   5.818   9.189
20172TIP3    H160393   3.730   5.787   9.280
20172TIP3    H260394   3.797   5.814   9.146
20173TIP3   OH260395   3.648   7.371   8.682
20173TIP3    H160396   3.570   7.340   8.632
20173TIP3    H260397   3.631   7.467   8.683
20174TIP3   OH260398   4.915   6.741   7.447
20174TIP3    H160399   4.889   6.834   7.429
20174TIP3    H260400   4.836   6.694   7.416
20175TIP3   OH260401   4.909   6.743   7.833
20175TIP3    H160402   4.946   6.716   7.919
20175TIP3    H260403   4.874   6.660   7.799
20176TIP3   OH260404   4.214   6.638   8.195
20176TIP3    H160405   4.245   6.571   8.259
20176TIP3    H260406   4.292   6.694   8.187
20177TIP3   OH260407   5.155   7.045   7.511
20177TIP3    H160408   5.147   6.976   7.578
20177TIP3    H260409   5.187   7.120   7.564
20178TIP3   OH260410   4.186   7.047   7.919
20178TIP3    H160411   4.176   6.949   7.921
20178TIP3    H260412   4.282   7.055   7.913
20179TIP3   OH260413   3.891   6.250   7.704
20179TIP3    H160414   3.844   6.334   7.720
20179TIP3    H260415   3.819   6.198   7.664
20180TIP3   OH260416   3.950   6.538   7.874
20180TIP3    H160417   4.000   6.462   7.912
20180TIP3    H260418   4.013   6.573   7.810
20181TIP3   OH260419   4.806   7.506   7.525
20181TIP3    H160420   4.853   7.435   7.478
20181TIP3    H260421   4.802   7.471   7.615
20182TIP3   OH260422   4.713   6.967   7.877
20182TIP3    H160423   4.754   6.889   7.835
20182TIP3    H260424   4.796   7.014   7.901
20183TIP3   OH260425   5.750   6.283   7.868
20183TIP3    H160426   5.745   6.358   7.930
20183TIP3    H260427   5.746   6.328   7.782
20184TIP3   OH260428   5.121   6.474   7.909
20184TIP3    H160429   5.168   6.394   7.937
20184TIP3    H260430   5.096   6.449   7.818
20185TIP3   OH260431   4.460   6.130   7.876
20185TIP3    H160432   4.443   6.204   7.814
20185TIP3    H260433   4.410   6.059   7.832
20186TIP3   OH260434   5.159   6.216   7.499
20186TIP3    H160435   5.230   6.202   7.566
20186TIP3    H260436   5.211   6.255   7.426
20187TIP3   OH260437   4.096   6.332   7.983
20187TIP3    H160438   4.179   6.313   8.030
20187TIP3    H260439   4.109   6.277   7.903
20188TIP3   OH260440   4.538   6.529   7.774
20188TIP3    H160441   4.632   6.503   7.788
20188TIP3    H260442   4.500   6.445   7.742
20189TIP3   OH260443   5.796   6.492   8.051
20189TIP3    H160444   5.707   6.529   8.032
20189TIP3    H260445   5.807   6.519   8.143
20190TIP3   OH260446   4.458   6.111   8.308
20190TIP3    H160447   4.400   6.150   8.241
20190TIP3    H260448   4.408   6.131   8.390
20191TIP3   OH260449   4.807   6.964   7.316
20191TIP3    H160450   4.763   6.944   7.233
20191TIP3    H260451   4.764   7.048   7.341
20192TIP3   OH260452   4.565   6.887   8.103
20192TIP3    H160453   4.503   6.954   8.140
20192TIP3    H260454   4.609   6.938   8.032
20193TIP3   OH260455   5.365   6.221   7.678
20193TIP3    H160456   5.339   6.195   7.768
20193TIP3    H260457   5.423   6.297   7.698
20194TIP3   OH260458   4.329   6.228   8.094
20194TIP3    H160459   4.390   6.302   8.117
20194TIP3    H260460   4.380   6.188   8.020
20195TIP3   OH260461   4.394   7.082   8.202
20195TIP3    H160462   4.369   7.168   8.162
20195TIP3    H260463   4.316   7.067   8.258
20196TIP3   OH260464   3.790   6.772   7.438
20196TIP3    H160465   3.747   6.799   7.355
20196TIP3    H260466   3.818   6.858   7.475
20197TIP3   OH260467   5.226   7.286   7.676
20197TIP3    H160468   5.136   7.279   7.715
20197TIP3    H260469   5.221   7.374   7.633
20198TIP3   OH260470   4.813   5.830   8.018
20198TIP3    H160471   4.804   5.737   8.044
20198TIP3    H260472   4.738   5.870   8.067
20199TIP3   OH260473   4.929   7.334   7.351
20199TIP3    H160474   4.981   7.252   7.330
20199TIP3    H260475   4.988   7.400   7.310
20200TIP3   OH260476   5.073   7.118   7.258
20200TIP3    H160477   5.032   7.038   7.223
20200TIP3    H260478   5.109   7.086   7.343
20201TIP3   OH260479   5.453   7.201   8.023
20201TIP3    H160480   5.445   7.123   7.963
20201TIP3    H260481   5.438   7.275   7.961
20202TIP3   OH260482   4.743   6.592   7.277
20202TIP3    H160483   4.664   6.645   7.256
20202TIP3    H260484   4.792   6.594   7.193
20203TIP3   OH260485   4.704   6.379   6.995
20203TIP3    H160486   4.771   6.428   7.046
20203TIP3    H260487   4.762   6.316   6.947
20204TIP3   OH260488   5.651   6.842   7.864
20204TIP3    H160489   5.567   6.892   7.870
20204TIP3    H260490   5.679   6.865   7.773
20205TIP3   OH260491   5.092   6.676   7.251
20205TIP3    H160492   5.038   6.701   7.329
20205TIP3    H260493   5.176   6.650   7.295
20206TIP3   OH260494   5.344   6.733   8.151
20206TIP3    H160495   5.326   6.812   8.205
20206TIP3    H260496   5.257   6.716   8.113
20207TIP3   OH260497   4.326   6.674   7.667
20207TIP3    H160498   4.286   6.616   7.599
20207TIP3    H260499   4.403   6.622   7.696
20208TIP3   OH260500   4.455   7.085   7.816
20208TIP3    H160501   4.436   7.043   7.731
20208TIP3    H260502   4.546   7.052   7.834
20209TIP3   OH260503   4.460   6.647   8.020
20209TIP3    H160504   4.496   6.626   7.931
20209TIP3    H260505   4.505   6.732   8.042
20210TIP3   OH260506   4.984   7.284   7.797
20210TIP3    H160507   4.972   7.364   7.852
20210TIP3    H260508   4.973   7.211   7.861
20211TIP3   OH260509   4.598   7.203   8.347
20211TIP3    H160510   4.536   7.266   8.390
20211TIP3    H260511   4.534   7.149   8.296
20212TIP3   OH260512   4.935   6.534   7.077
20212TIP3    H160513   4.994   6.593   7.129
20212TIP3    H260514   4.960   6.559   6.985
20213TIP3   OH260515   4.353   6.759   8.446
20213TIP3    H160516   4.358   6.846   8.490
20213TIP3    H260517   4.258   6.740   8.455
20214TIP3   OH260518   4.677   7.214   7.350
20214TIP3    H160519   4.757   7.267   7.368
20214TIP3    H260520   4.615   7.280   7.315
20215TIP3   OH260521   4.394   7.372   8.432
20215TIP3    H160522   4.359   7.371   8.341
20215TIP3    H260523   4.314   7.349   8.485
20216TIP3   OH260524   5.449   5.776   7.124
20216TIP3    H160525   5.368   5.797   7.176
20216TIP3    H260526   5.463   5.860   7.075
20217TIP3   OH260527   4.194   6.516   7.468
20217TIP3    H160528   4.128   6.564   7.414
20217TIP3    H260529   4.147   6.433   7.486
20218TIP3   OH260530   5.248   7.143   6.671
20218TIP3    H160531   5.256   7.240   6.659
20218TIP3    H260532   5.341   7.114   6.659
20219TIP3   OH260533   3.972   6.902   8.379
20219TIP3    H160534   3.907   6.879   8.309
20219TIP3    H260535   4.009   6.814   8.403
20220TIP3   OH260536   3.827   7.092   8.016
20220TIP3    H160537   3.923   7.091   8.004
20220TIP3    H260538   3.814   7.175   8.065
20221TIP3   OH260539   5.691   7.545   8.068
20221TIP3    H160540   5.691   7.448   8.080
20221TIP3    H260541   5.607   7.569   8.113
20222TIP3   OH260542   4.798   7.332   8.204
20222TIP3    H160543   4.796   7.425   8.236
20222TIP3    H260544   4.725   7.292   8.257
20223TIP3   OH260545   4.557   7.461   7.154
20223TIP3    H160546   4.511   7.443   7.070
20223TIP3    H260547   4.525   7.550   7.178
20224TIP3   OH260548   3.996   7.310   7.537
20224TIP3    H160549   4.044   7.301   7.622
20224TIP3    H260550   3.935   7.235   7.543
20225TIP3   OH260551   4.760   7.361   6.794
20225TIP3    H160552   4.818   7.291   6.758
20225TIP3    H260553   4.794   7.371   6.885
20226TIP3   OH260554   4.809   7.409   7.063
20226TIP3    H160555   4.721   7.419   7.107
20226TIP3    H260556   4.862   7.371   7.136
20227TIP3   OH260557   5.570   6.663   8.327
20227TIP3    H160558   5.493   6.688   8.272
20227TIP3    H260559   5.557   6.567   8.332
20228TIP3   OH260560   4.179   7.083   8.367
20228TIP3    H160561   4.227   7.067   8.451
20228TIP3    H260562   4.104   7.021   8.375
20229TIP3   OH260563   4.576   5.907   8.151
20229TIP3    H160564   4.485   5.879   8.128
20229TIP3    H260565   4.556   5.991   8.196
20230TIP3   OH260566   5.111   6.018   8.341
20230TIP3    H160567   5.182   6.002   8.406
20230TIP3    H260568   5.030   6.004   8.393
20231TIP3   OH260569   5.008   6.580   6.819
20231TIP3    H160570   4.978   6.555   6.730
20231TIP3    H260571   5.089   6.631   6.798
20232TIP3   OH260572   4.723   5.958   7.124
20232TIP3    H160573   4.692   5.953   7.216
20232TIP3    H260574   4.685   5.874   7.089
20233TIP3   OH260575   4.506   6.424   8.169
20233TIP3    H160576   4.459   6.446   8.251
20233TIP3    H260577   4.491   6.505   8.116
20234TIP3   OH260578   4.393   6.308   7.683
20234TIP3    H160579   4.300   6.284   7.701
20234TIP3    H260580   4.405   6.267   7.595
20235TIP3   OH260581   4.880   6.392   7.409
20235TIP3    H160582   4.828   6.465   7.369
20235TIP3    H260583   4.937   6.365   7.334
20236TIP3   OH260584   5.054   6.679   8.506
20236TIP3    H160585   5.034   6.601   8.562
20236TIP3    H260586   5.151   6.676   8.507
20237TIP3   OH260587   5.038   6.421   7.651
20237TIP3    H160588   4.981   6.452   7.577
20237TIP3    H260589   5.072   6.339   7.609
20238TIP3   OH260590   4.326   6.453   8.380
20238TIP3    H160591   4.359   6.517   8.446
20238TIP3    H260592   4.317   6.372   8.433
20239TIP3   OH260593   4.377   5.927   7.091
20239TIP3    H160594   4.367   5.928   7.188
20239TIP3    H260595   4.300   5.982   7.063
20240TIP3   OH260596   3.921   5.973   7.960
20240TIP3    H160597   3.995   6.007   8.014
20240TIP3    H260598   3.963   5.946   7.878
20241TIP3   OH260599   3.894   5.956   7.478
20241TIP3    H160600   3.936   5.997   7.400
20241TIP3    H260601   3.832   6.028   7.502
20242TIP3   OH260602   5.041   6.670   8.075
20242TIP3    H160603   5.080   6.600   8.017
20242TIP3    H260604   5.023   6.617   8.155
20243TIP3   OH260605   4.714   6.126   7.743
20243TIP3    H160606   4.636   6.131   7.803
20243TIP3    H260607   4.788   6.131   7.806
20244TIP3   OH260608   4.153   6.189   7.753
20244TIP3    H160609   4.058   6.196   7.727
20244TIP3    H260610   4.176   6.097   7.730
20245TIP3   OH260611   4.425   6.177   7.441
20245TIP3    H160612   4.518   6.202   7.424
20245TIP3    H260613   4.378   6.206   7.359
20246TIP3   OH260614   5.193   6.205   7.930
20246TIP3    H160615   5.191   6.218   8.027
20246TIP3    H260616   5.117   6.148   7.916
20247TIP3   OH260617   4.266   6.212   7.220
20247TIP3    H160618   4.193   6.172   7.170
20247TIP3    H260619   4.318   6.252   7.147
20248TIP3   OH260620   5.379   7.897   8.171
20248TIP3    H160621   5.378   7.914   8.075
20248TIP3    H260622   5.461   7.944   8.197
20249TIP3   OH260623   4.338   7.005   8.589
20249TIP3    H160624   4.418   7.037   8.636
20249TIP3    H260625   4.273   7.007   8.661
20250TIP3   OH260626   4.803   6.455   7.839
20250TIP3    H160627   4.882   6.425   7.791
20250TIP3    H260628   4.819   6.419   7.928
20251TIP3   OH260629   4.320   5.950   7.723
20251TIP3    H160630   4.290   5.868   7.767
20251TIP3    H260631   4.375   5.918   7.650
20252TIP3   OH260632   4.780   6.352   8.138
20252TIP3    H160633   4.694   6.395   8.151
20252TIP3    H260634   4.842   6.410   8.186
20253TIP3   OH260635   4.517   6.747   7.226
20253TIP3    H160636   4.443   6.683   7.216
20253TIP3    H260637   4.499   6.781   7.318
20254TIP3   OH260638   5.416   6.986   7.857
20254TIP3    H160639   5.442   7.033   7.774
20254TIP3    H260640   5.332   6.944   7.831
20255TIP3   OH260641   4.975   6.060   7.087
20255TIP3    H160642   4.878   6.045   7.097
20255TIP3    H260643   4.987   6.154   7.112
20256TIP3   OH260644   4.910   7.063   8.224
20256TIP3    H160645   4.938   7.042   8.314
20256TIP3    H260646   4.877   7.153   8.231
20257TIP3   OH260647   5.045   6.305   7.191
20257TIP3    H160648   5.140   6.312   7.210
20257TIP3    H260649   5.027   6.386   7.140
20258TIP3   OH260650   4.206   6.765   7.904
20258TIP3    H160651   4.247   6.741   7.818
20258TIP3    H260652   4.253   6.707   7.965
20259TIP3   OH260653   4.660   6.896   7.046
20259TIP3    H160654   4.614   6.983   7.053
20259TIP3    H260655   4.607   6.841   7.107
20260TIP3   OH260656   4.088   6.690   8.517
20260TIP3    H160657   4.111   6.676   8.611
20260TIP3    H260658   4.020   6.622   8.503
20261TIP3   OH260659   4.813   6.806   8.537
20261TIP3    H160660   4.758   6.747   8.483
20261TIP3    H260661   4.903   6.771   8.515
20262TIP3   OH260662   5.076   7.324   8.124
20262TIP3    H160663   4.979   7.323   8.133
20262TIP3    H260664   5.101   7.378   8.201
20263TIP3   OH260665   5.486   6.396   7.029
20263TIP3    H160666   5.424   6.351   6.967
20263TIP3    H260667   5.483   6.485   6.989
20264TIP3   OH260668   5.704   7.255   8.110
20264TIP3    H160669   5.606   7.248   8.102
20264TIP3    H260670   5.730   7.225   8.020
20265TIP3   OH260671   5.182   7.217   6.936
20265TIP3    H160672   5.163   7.148   7.001
20265TIP3    H260673   5.198   7.167   6.854
20266TIP3   OH260674   5.181   6.848   7.772
20266TIP3    H160675   5.089   6.820   7.788
20266TIP3    H260676   5.218   6.767   7.731
20267TIP3   OH260677   4.309   7.072   7.527
20267TIP3    H160678   4.311   7.154   7.475
20267TIP3    H260679   4.214   7.060   7.539
20268TIP3   OH260680   3.874   6.377   7.233
20268TIP3    H160681   3.919   6.462   7.252
20268TIP3    H260682   3.796   6.384   7.292
20269TIP3   OH260683   4.447   6.838   7.472
20269TIP3    H160684   4.413   6.928   7.489
20269TIP3    H260685   4.411   6.790   7.548
20270TIP3   OH260686   4.579   7.417   7.997
20270TIP3    H160687   4.618   7.490   7.946
20270TIP3    H260688   4.657   7.382   8.044
20271TIP3   OH260689   4.229   7.311   7.381
20271TIP3    H160690   4.143   7.319   7.426
20271TIP3    H260691   4.261   7.404   7.384
20272TIP3   OH260692   4.968   7.053   7.955
20272TIP3    H160693   4.959   7.048   8.053
20272TIP3    H260694   5.048   7.000   7.942
20273TIP3   OH260695   4.941   6.942   6.839
20273TIP3    H160696   4.995   6.918   6.917
20273TIP3    H260697   4.853   6.918   6.871
20274TIP3   OH260698   5.214   7.587   8.008
20274TIP3    H160699   5.135   7.531   7.995
20274TIP3    H260700   5.203   7.652   7.935
20275TIP3   OH260701   5.281   7.420   6.658
20275TIP3    H160702   5.322   7.495   6.612
20275TIP3    H260703   5.200   7.464   6.692
20276TIP3   OH260704   4.302   6.195   8.525
20276TIP3    H160705   4.206   6.199   8.540
20276TIP3    H260706   4.330   6.136   8.597
20277TIP3   OH260707   5.101   6.874   7.053
20277TIP3    H160708   5.092   6.810   7.127
20277TIP3    H260709   5.199   6.875   7.043
20278TIP3   OH260710   4.017   7.279   8.156
20278TIP3    H160711   4.071   7.207   8.193
20278TIP3    H260712   4.043   7.353   8.213
20279TIP3   OH260713   4.307   6.924   6.838
20279TIP3    H160714   4.322   6.832   6.810
20279TIP3    H260715   4.290   6.913   6.933
20280TIP3   OH260716   4.254   6.929   7.110
20280TIP3    H160717   4.324   6.903   7.172
20280TIP3    H260718   4.256   7.027   7.117
20281TIP3   OH260719   3.988   6.623   7.314
20281TIP3    H160720   3.922   6.668   7.371
20281TIP3    H260721   4.003   6.692   7.247
20282TIP3   OH260722   5.144   6.268   8.204
20282TIP3    H160723   5.239   6.288   8.220
20282TIP3    H260724   5.134   6.185   8.255
20283TIP3   OH260725   5.019   6.010   7.369
20283TIP3    H160726   5.006   6.037   7.276
20283TIP3    H260727   5.061   6.090   7.408
20284TIP3   OH260728   4.518   7.126   7.058
20284TIP3    H160729   4.431   7.154   7.095
20284TIP3    H260730   4.536   7.202   7.000
20285TIP3   OH260731   4.704   6.188   7.471
20285TIP3    H160732   4.769   6.259   7.453
20285TIP3    H260733   4.712   6.180   7.569
20286TIP3   OH260734   4.978   6.503   8.284
20286TIP3    H160735   5.004   6.553   8.364
20286TIP3    H260736   5.044   6.430   8.283
20287TIP3   OH260737   4.856   5.913   7.573
20287TIP3    H160738   4.858   5.983   7.642
20287TIP3    H260739   4.917   5.954   7.507
20288TIP3   OH260740   4.261   7.201   7.127
20288TIP3    H160741   4.232   7.272   7.064
20288TIP3    H260742   4.245   7.245   7.213
20289TIP3   OH260743   4.369   5.909   7.372
20289TIP3    H160744   4.354   6.001   7.402
20289TIP3    H260745   4.467   5.907   7.375
20290TIP3   OH260746   5.267   6.605   7.650
20290TIP3    H160747   5.193   6.544   7.668
20290TIP3    H260748   5.341   6.560   7.698
20291TIP3   OH260749   3.979   6.832   7.121
20291TIP3    H160750   4.043   6.905   7.130
20291TIP3    H260751   4.026   6.779   7.053
20292TIP3   OH260752   3.925   6.107   7.252
20292TIP3    H160753   3.925   6.204   7.249
20292TIP3    H260754   3.840   6.086   7.211
20293TIP3   OH260755   5.235   7.557   7.598
20293TIP3    H160756   5.194   7.604   7.523
20293TIP3    H260757   5.329   7.578   7.581
20294TIP3   OH260758   4.313   5.827   8.126
20294TIP3    H160759   4.279   5.794   8.040
20294TIP3    H260760   4.302   5.749   8.184
20295TIP3   OH260761   3.849   7.042   7.507
20295TIP3    H160762   3.780   7.077   7.566
20295TIP3    H260763   3.825   7.086   7.422
20296TIP3   OH260764   4.008   7.587   8.580
20296TIP3    H160765   4.094   7.587   8.627
20296TIP3    H260766   3.987   7.492   8.577
20297TIP3   OH260767   4.487   7.552   8.626
20297TIP3    H160768   4.583   7.542   8.630
20297TIP3    H260769   4.464   7.494   8.551
20298TIP3   OH260770   4.470   7.128   6.750
20298TIP3    H160771   4.414   7.058   6.791
20298TIP3    H260772   4.546   7.076   6.721
20299TIP3   OH260773   5.121   7.461   8.368
20299TIP3    H160774   5.129   7.388   8.433
20299TIP3    H260775   5.204   7.510   8.383
20300TIP3   OH260776   4.907   7.168   6.662
20300TIP3    H160777   4.952   7.106   6.722
20300TIP3    H260778   4.966   7.169   6.584
20301TIP3   OH260779   4.138   6.994   8.780
20301TIP3    H160780   4.155   6.898   8.782
20301TIP3    H260781   4.050   6.997   8.735
20302TIP3   OH260782   4.116   6.645   6.972
20302TIP3    H160783   4.171   6.614   7.045
20302TIP3    H260784   4.183   6.649   6.900
20303TIP3   OH260785   4.747   7.080   8.551
20303TIP3    H160786   4.705   7.094   8.464
20303TIP3    H260787   4.778   6.987   8.545
20304TIP3   OH260788   4.624   6.843   6.778
20304TIP3    H160789   4.627   6.857   6.875
20304TIP3    H260790   4.623   6.745   6.774
20305TIP3   OH260791   5.238   7.090   8.160
20305TIP3    H160792   5.314   7.130   8.115
20305TIP3    H260793   5.170   7.157   8.143
20306TIP3   OH260794   4.256   6.726   8.761
20306TIP3    H160795   4.334   6.674   8.738
20306TIP3    H260796   4.282   6.760   8.850
20307TIP3   OH260797   4.323   6.549   7.193
20307TIP3    H160798   4.297   6.510   7.278
20307TIP3    H260799   4.359   6.472   7.145
20308TIP3   OH260800   4.590   6.610   8.419
20308TIP3    H160801   4.515   6.674   8.423
20308TIP3    H260802   4.642   6.645   8.343
20309TIP3   OH260803   4.424   6.340   7.036
20309TIP3    H160804   4.397   6.344   6.942
20309TIP3    H260805   4.522   6.349   7.027
20310TIP3   OH260806   5.115   7.015   8.553
20310TIP3    H160807   5.189   6.983   8.500
20310TIP3    H260808   5.108   6.944   8.620
20311TIP3   OH260809   5.246   6.674   6.697
20311TIP3    H160810   5.223   6.627   6.614
20311TIP3    H260811   5.215   6.764   6.674
20312TIP3   OH260812   4.708   6.398   8.551
20312TIP3    H160813   4.716   6.320   8.493
20312TIP3    H260814   4.671   6.465   8.490
20313TIP3   OH260815   4.718   6.185   8.357
20313TIP3    H160816   4.748   6.229   8.274
20313TIP3    H260817   4.624   6.165   8.336
20314TIP3   OH260818   4.745   6.721   8.230
20314TIP3    H160819   4.830   6.725   8.185
20314TIP3    H260820   4.693   6.790   8.183
20315TIP3   OH260821   5.335   6.694   8.619
20315TIP3    H160822   5.357   6.601   8.601
20315TIP3    H260823   5.405   6.741   8.572
20316TIP3   OH260824   5.366   6.951   8.354
20316TIP3    H160825   5.311   7.002   8.290
20316TIP3    H260826   5.454   6.963   8.312
20317TIP3   OH260827   4.592   6.514   8.780
20317TIP3    H160828   4.524   6.445   8.793
20317TIP3    H260829   4.628   6.488   8.692
20318TIP3   OH260830   4.849   5.951   8.424
20318TIP3    H160831   4.803   6.034   8.401
20318TIP3    H260832   4.778   5.885   8.412
20319TIP3   OH260833   4.966   6.460   8.644
20319TIP3    H160834   4.958   6.446   8.740
20319TIP3    H260835   4.877   6.432   8.614
20320TIP3   OH260836   5.215   6.439   8.503
20320TIP3    H160837   5.146   6.406   8.563
20320TIP3    H260838   5.290   6.379   8.517
20321TIP3   OH260839   5.468   6.350   8.653
20321TIP3    H160840   5.464   6.253   8.666
20321TIP3    H260841   5.449   6.385   8.743
20322TIP3   OH260842   4.431   6.293   8.833
20322TIP3    H160843   4.442   6.204   8.796
20322TIP3    H260844   4.468   6.281   8.922
20323TIP3   OH260845   4.943   5.959   8.682
20323TIP3    H160846   5.013   5.891   8.675
20323TIP3    H260847   4.905   5.955   8.592
20324TIP3   OH260848   5.008   6.173   8.842
20324TIP3    H160849   4.987   6.104   8.775
20324TIP3    H260850   4.931   6.234   8.833
20325TIP3   OH260851   4.231   7.403   6.938
20325TIP3    H160852   4.327   7.400   6.919
20325TIP3    H260853   4.201   7.454   6.861
20326TIP3   OH260854   3.711   6.786   7.156
20326TIP3    H160855   3.806   6.808   7.143
20326TIP3    H260856   3.706   6.697   7.113
20327TIP3   OH260857   3.627   7.398   7.568
20327TIP3    H160858   3.558   7.337   7.533
20327TIP3    H260859   3.670   7.340   7.635
20328TIP3   OH260860   3.764   7.249   7.754
20328TIP3    H160861   3.749   7.177   7.818
20328TIP3    H260862   3.813   7.312   7.810
20329TIP3   OH260863   5.484   7.654   7.555
20329TIP3    H160864   5.514   7.686   7.642
20329TIP3    H260865   5.545   7.700   7.496
20330TIP3   OH260866   5.520   7.672   7.836
20330TIP3    H160867   5.479   7.583   7.831
20330TIP3    H260868   5.598   7.652   7.890
20331TIP3   OH260869   5.565   7.350   8.410
20331TIP3    H160870   5.494   7.359   8.476
20331TIP3    H260871   5.608   7.437   8.415
20332TIP3   OH260872   5.382   6.860   7.030
20332TIP3    H160873   5.450   6.924   7.003
20332TIP3    H260874   5.423   6.821   7.110
20333TIP3   OH260875   5.507   6.727   7.233
20333TIP3    H160876   5.444   6.686   7.296
20333TIP3    H260877   5.576   6.764   7.292
20334TIP3   OH260878   5.559   7.118   7.663
20334TIP3    H160879   5.617   7.056   7.615
20334TIP3    H260880   5.558   7.195   7.602
20335TIP3   OH260881   5.394   7.418   7.862
20335TIP3    H160882   5.323   7.462   7.912
20335TIP3    H260883   5.345   7.371   7.792
20336TIP3   OH260884   5.446   6.634   6.881
20336TIP3    H160885   5.374   6.640   6.815
20336TIP3    H260886   5.422   6.711   6.938
20337TIP3   OH260887   5.318   6.307   6.835
20337TIP3    H160888   5.273   6.349   6.760
20337TIP3    H260889   5.293   6.213   6.822
20338TIP3   OH260890   5.321   6.583   7.381
20338TIP3    H160891   5.334   6.487   7.381
20338TIP3    H260892   5.308   6.601   7.477
20339TIP3   OH260893   3.949   6.655   8.128
20339TIP3    H160894   3.948   6.627   8.035
20339TIP3    H260895   4.047   6.659   8.144
20340TIP3   OH260896   5.609   7.009   8.240
20340TIP3    H160897   5.680   6.940   8.232
20340TIP3    H260898   5.638   7.075   8.176
20341TIP3   OH260899   5.790   6.812   8.263
20341TIP3    H160900   5.715   6.754   8.290
20341TIP3    H260901   5.865   6.749   8.274
20342TIP3   OH260902   5.263   6.039   6.817
20342TIP3    H160903   5.338   6.013   6.874
20342TIP3    H260904   5.190   5.984   6.848
20343TIP3   OH260905   5.317   6.298   7.275
20343TIP3    H160906   5.360   6.211   7.291
20343TIP3    H260907   5.376   6.334   7.208
20344TIP3   OH260908   5.479   6.474   7.766
20344TIP3    H160909   5.566   6.504   7.731
20344TIP3    H260910   5.491   6.498   7.860
20345TIP3   OH260911   5.553   6.616   7.999
20345TIP3    H160912   5.477   6.644   8.053
20345TIP3    H260913   5.581   6.701   7.959
20346TIP3   OH260914   4.164   6.343   8.799
20346TIP3    H160915   4.262   6.338   8.803
20346TIP3    H260916   4.141   6.258   8.843
20347TIP3   OH260917   5.999   6.210   8.556
20347TIP3    H160918   6.057   6.143   8.513
20347TIP3    H260919   5.973   6.265   8.479
20348TIP3   OH260920   5.429   6.050   7.313
20348TIP3    H160921   5.478   6.036   7.397
20348TIP3    H260922   5.369   5.972   7.313
20349TIP3   OH260923   4.128   6.036   8.131
20349TIP3    H160924   4.192   5.963   8.144
20349TIP3    H260925   4.188   6.112   8.127
20350TIP3   OH260926   3.931   6.309   8.207
20350TIP3    H160927   3.980   6.305   8.122
20350TIP3    H260928   3.957   6.397   8.239
20351TIP3   OH260929   5.867   6.356   8.365
20351TIP3    H160930   5.788   6.387   8.414
20351TIP3    H260931   5.828   6.284   8.310
20352TIP3   OH260932   5.507   5.986   6.945
20352TIP3    H160933   5.552   5.914   6.895
20352TIP3    H260934   5.575   6.057   6.943
20353TIP3   OH260935   3.913   5.810   7.705
20353TIP3    H160936   3.820   5.810   7.734
20353TIP3    H260937   3.911   5.871   7.628
20354TIP3   OH260938   5.070   7.517   7.212
20354TIP3    H160939   5.125   7.503   7.132
20354TIP3    H260940   5.124   7.581   7.262
20355TIP3   OH260941   4.133   5.891   8.520
20355TIP3    H160942   4.084   5.888   8.604
20355TIP3    H260943   4.066   5.932   8.462
20356TIP3   OH260944   4.175   7.316   8.599
20356TIP3    H160945   4.082   7.293   8.581
20356TIP3    H260946   4.180   7.305   8.694
20357TIP3   OH260947   4.353   7.353   8.147
20357TIP3    H160948   4.303   7.428   8.108
20357TIP3    H260949   4.438   7.368   8.101
20358TIP3   OH260950   4.800   7.597   8.288
20358TIP3    H160951   4.843   7.604   8.375
20358TIP3    H260952   4.863   7.647   8.231
20359TIP3   OH260953   4.975   7.747   8.143
20359TIP3    H160954   5.046   7.700   8.097
20359TIP3    H260955   5.028   7.806   8.201
20360TIP3   OH260956   5.770   6.122   8.250
20360TIP3    H160957   5.677   6.139   8.224
20360TIP3    H260958   5.783   6.027   8.226
20361TIP3   OH260959   4.028   7.607   8.172
20361TIP3    H160960   3.940   7.639   8.145
20361TIP3    H260961   4.039   7.655   8.256
20362TIP3   OH260962   4.264   7.588   8.027
20362TIP3    H160963   4.178   7.601   8.073
20362TIP3    H260964   4.243   7.623   7.938
20363TIP3   OH260965   4.690   7.618   7.825
20363TIP3    H160966   4.621   7.639   7.760
20363TIP3    H260967   4.704   7.705   7.867
20364TIP3   OH260968   4.959   7.556   7.879
20364TIP3    H160969   4.866   7.575   7.856
20364TIP3    H260970   5.006   7.630   7.835
20365TIP3   OH260971   5.156   7.745   7.790
20365TIP3    H160972   5.151   7.832   7.747
20365TIP3    H260973   5.190   7.688   7.717
20366TIP3   OH260974   3.940   7.404   7.913
20366TIP3    H160975   3.964   7.379   8.004
20366TIP3    H260976   4.013   7.361   7.863
20367TIP3   OH260977   4.134   7.275   7.770
20367TIP3    H160978   4.150   7.191   7.820
20367TIP3    H260979   4.225   7.312   7.768
20368TIP3   OH260980   4.399   7.370   7.774
20368TIP3    H160981   4.431   7.279   7.763
20368TIP3    H260982   4.442   7.393   7.858
20369TIP3   OH260983   4.966   6.021   7.848
20369TIP3    H160984   4.933   5.952   7.908
20369TIP3    H260985   5.050   5.982   7.815
20370TIP3   OH260986   5.495   5.897   7.760
20370TIP3    H160987   5.537   5.956   7.694
20370TIP3    H260988   5.407   5.937   7.768
20371TIP3   OH260989   5.595   6.006   7.528
20371TIP3    H160990   5.670   5.957   7.489
20371TIP3    H260991   5.627   6.099   7.517
20372TIP3   OH260992   4.227   5.732   7.875
20372TIP3    H160993   4.133   5.701   7.877
20372TIP3    H260994   4.273   5.646   7.877
20373TIP3   OH260995   4.021   5.607   7.528
20373TIP3    H160996   4.041   5.665   7.452
20373TIP3    H260997   3.983   5.671   7.592
20374TIP3   OH260998   4.668   5.768   7.753
20374TIP3    H160999   4.729   5.822   7.699
20374TIP3    H261000   4.686   5.804   7.841
20375TIP3   OH261001   5.202   5.911   7.746
20375TIP3    H161002   5.221   5.879   7.657
20375TIP3    H261003   5.194   5.828   7.797
20376TIP3   OH261004   5.244   5.836   7.303
20376TIP3    H161005   5.160   5.883   7.316
20376TIP3    H261006   5.227   5.753   7.352
20377TIP3   OH261007   3.729   7.175   7.305
20377TIP3    H161008   3.642   7.144   7.271
20377TIP3    H261009   3.718   7.270   7.289
20378TIP3   OH261010   4.127   5.762   7.292
20378TIP3    H161011   4.174   5.704   7.229
20378TIP3    H261012   4.199   5.819   7.325
20379TIP3   OH261013   4.642   5.932   7.398
20379TIP3    H161014   4.717   5.904   7.455
20379TIP3    H261015   4.651   6.029   7.413
20380TIP3   OH261016   4.500   7.364   6.888
20380TIP3    H161017   4.588   7.387   6.852
20380TIP3    H261018   4.477   7.289   6.828
20381TIP3   OH261019   5.219   7.483   6.980
20381TIP3    H161020   5.209   7.385   6.967
20381TIP3    H261021   5.174   7.516   6.900
20382TIP3   OH261022   4.431   6.014   8.767
20382TIP3    H161023   4.399   5.945   8.827
20382TIP3    H261024   4.526   6.017   8.794
20383TIP3   OH261025   4.679   6.014   8.887
20383TIP3    H161026   4.765   5.992   8.848
20383TIP3    H261027   4.670   5.942   8.953
20384TIP3   OH261028   3.803   7.200   6.945
20384TIP3    H161029   3.801   7.230   7.037
20384TIP3    H261030   3.892   7.161   6.936
20385TIP3   OH261031   5.502   6.072   8.677
20385TIP3    H161032   5.526   6.044   8.768
20385TIP3    H261033   5.590   6.073   8.633
20386TIP3   OH261034   5.443   7.627   8.170
20386TIP3    H161035   5.366   7.598   8.117
20386TIP3    H261036   5.427   7.724   8.171
20387TIP3   OH261037   6.714   6.999   6.931
20387TIP3    H161038   6.687   7.092   6.915
20387TIP3    H261039   6.632   6.953   6.909
20388TIP3   OH261040   6.744   6.975   7.305
20388TIP3    H161041   6.719   6.989   7.397
20388TIP3    H261042   6.657   6.962   7.265
20389TIP3   OH261043   6.009   6.898   7.683
20389TIP3    H161044   6.043   6.831   7.745
20389TIP3    H261045   6.088   6.952   7.669
20390TIP3   OH261046   6.955   7.301   6.997
20390TIP3    H161047   6.936   7.232   7.062
20390TIP3    H261048   6.979   7.376   7.054
20391TIP3   OH261049   5.980   7.300   7.406
20391TIP3    H161050   5.971   7.202   7.408
20391TIP3    H261051   6.077   7.308   7.413
20392TIP3   OH261052   5.688   6.507   7.189
20392TIP3    H161053   5.644   6.591   7.207
20392TIP3    H261054   5.614   6.455   7.153
20393TIP3   OH261055   5.746   6.792   7.357
20393TIP3    H161056   5.796   6.719   7.398
20393TIP3    H261057   5.814   6.836   7.304
20394TIP3   OH261058   6.605   7.766   7.013
20394TIP3    H161059   6.652   7.692   6.968
20394TIP3    H261060   6.592   7.729   7.101
20395TIP3   OH261061   7.524   6.545   7.362
20395TIP3    H161062   7.551   6.629   7.405
20395TIP3    H261063   7.541   6.566   7.269
20396TIP3   OH261064   6.925   6.726   7.401
20396TIP3    H161065   6.962   6.637   7.413
20396TIP3    H261066   6.888   6.719   7.311
20397TIP3   OH261067   6.259   6.385   7.362
20397TIP3    H161068   6.239   6.459   7.301
20397TIP3    H261069   6.208   6.313   7.319
20398TIP3   OH261070   6.953   6.474   6.984
20398TIP3    H161071   7.026   6.460   7.049
20398TIP3    H261072   7.004   6.513   6.911
20399TIP3   OH261073   5.894   6.590   7.469
20399TIP3    H161074   5.976   6.570   7.517
20399TIP3    H261075   5.907   6.533   7.390
20400TIP3   OH261076   6.331   6.783   7.259
20400TIP3    H161077   6.424   6.757   7.276
20400TIP3    H261078   6.293   6.698   7.227
20401TIP3   OH261079   7.596   6.754   7.530
20401TIP3    H161080   7.512   6.801   7.510
20401TIP3    H261081   7.601   6.770   7.626
20402TIP3   OH261082   6.255   6.369   7.797
20402TIP3    H161083   6.196   6.408   7.729
20402TIP3    H261084   6.202   6.388   7.877
20403TIP3   OH261085   6.610   7.225   6.799
20403TIP3    H161086   6.558   7.197   6.723
20403TIP3    H261087   6.563   7.308   6.824
20404TIP3   OH261088   7.165   6.477   7.157
20404TIP3    H161089   7.144   6.436   7.242
20404TIP3    H261090   7.216   6.556   7.183
20405TIP3   OH261091   6.128   6.486   7.581
20405TIP3    H161092   6.189   6.561   7.603
20405TIP3    H261093   6.177   6.445   7.507
20406TIP3   OH261094   6.188   7.345   7.707
20406TIP3    H161095   6.165   7.422   7.653
20406TIP3    H261096   6.105   7.331   7.756
20407TIP3   OH261097   5.586   7.029   6.925
20407TIP3    H161098   5.544   7.059   6.843
20407TIP3    H261099   5.616   7.114   6.964
20408TIP3   OH261100   7.026   7.544   7.165
20408TIP3    H161101   6.937   7.533   7.206
20408TIP3    H261102   7.014   7.631   7.121
20409TIP3   OH261103   7.316   6.444   7.527
20409TIP3    H161104   7.227   6.473   7.500
20409TIP3    H261105   7.373   6.477   7.454
20410TIP3   OH261106   6.614   6.089   7.511
20410TIP3    H161107   6.598   5.994   7.527
20410TIP3    H261108   6.536   6.129   7.556
20411TIP3   OH261109   6.729   7.592   6.840
20411TIP3    H161110   6.779   7.510   6.820
20411TIP3    H261111   6.787   7.658   6.796
20412TIP3   OH261112   6.872   7.376   6.744
20412TIP3    H161113   6.818   7.300   6.716
20412TIP3    H261114   6.909   7.343   6.829
20413TIP3   OH261115   7.254   7.460   7.506
20413TIP3    H161116   7.238   7.380   7.451
20413TIP3    H261117   7.232   7.532   7.444
20414TIP3   OH261118   6.539   6.846   6.763
20414TIP3    H161119   6.459   6.899   6.743
20414TIP3    H261120   6.587   6.850   6.679
20415TIP3   OH261121   6.500   6.637   6.480
20415TIP3    H161122   6.566   6.685   6.533
20415TIP3    H261123   6.558   6.573   6.433
20416TIP3   OH261124   7.448   7.096   7.353
20416TIP3    H161125   7.363   7.146   7.360
20416TIP3    H261126   7.474   7.118   7.261
20417TIP3   OH261127   6.890   6.933   6.735
20417TIP3    H161128   6.834   6.958   6.813
20417TIP3    H261129   6.973   6.907   6.781
20418TIP3   OH261130   7.130   6.975   7.649
20418TIP3    H161131   7.122   7.062   7.692
20418TIP3    H261132   7.041   6.969   7.608
20419TIP3   OH261133   6.123   6.931   7.151
20419TIP3    H161134   6.086   6.871   7.084
20419TIP3    H261135   6.200   6.881   7.184
20420TIP3   OH261136   6.253   7.354   7.304
20420TIP3    H161137   6.248   7.289   7.233
20420TIP3    H261138   6.319   7.310   7.363
20421TIP3   OH261139   6.253   6.905   7.502
20421TIP3    H161140   6.284   6.874   7.414
20421TIP3    H261141   6.303   6.990   7.506
20422TIP3   OH261142   6.784   7.544   7.281
20422TIP3    H161143   6.771   7.620   7.340
20422TIP3    H261144   6.781   7.468   7.343
20423TIP3   OH261145   6.399   7.457   7.835
20423TIP3    H161146   6.334   7.519   7.875
20423TIP3    H261147   6.338   7.401   7.782
20424TIP3   OH261148   6.732   6.790   6.563
20424TIP3    H161149   6.790   6.849   6.616
20424TIP3    H261150   6.757   6.816   6.471
20425TIP3   OH261151   6.151   7.008   7.939
20425TIP3    H161152   6.157   7.099   7.975
20425TIP3    H261153   6.054   6.994   7.944
20426TIP3   OH261154   6.476   7.469   6.830
20426TIP3    H161155   6.550   7.524   6.859
20426TIP3    H261156   6.409   7.534   6.805
20427TIP3   OH261157   6.190   7.629   7.918
20427TIP3    H161158   6.156   7.625   7.827
20427TIP3    H261159   6.110   7.607   7.970
20428TIP3   OH261160   7.245   6.032   6.611
20428TIP3    H161161   7.164   6.053   6.663
20428TIP3    H261162   7.258   6.116   6.562
20429TIP3   OH261163   5.992   6.770   6.950
20429TIP3    H161164   5.923   6.817   6.899
20429TIP3    H261165   5.946   6.690   6.976
20430TIP3   OH261166   7.044   7.399   6.159
20430TIP3    H161167   7.052   7.496   6.146
20430TIP3    H261168   7.137   7.370   6.146
20431TIP3   OH261169   5.767   7.156   7.866
20431TIP3    H161170   5.704   7.132   7.795
20431TIP3    H261171   5.805   7.069   7.891
20432TIP3   OH261172   5.623   7.348   7.501
20432TIP3    H161173   5.719   7.345   7.488
20432TIP3    H261174   5.614   7.432   7.550
20433TIP3   OH261175   7.478   7.790   7.554
20433TIP3    H161176   7.478   7.693   7.567
20433TIP3    H261177   7.392   7.815   7.594
20434TIP3   OH261178   6.589   7.588   7.686
20434TIP3    H161179   6.589   7.680   7.719
20434TIP3    H261180   6.519   7.547   7.742
20435TIP3   OH261181   6.354   7.721   6.638
20435TIP3    H161182   6.305   7.699   6.557
20435TIP3    H261183   6.318   7.808   6.663
20436TIP3   OH261184   5.791   7.571   7.025
20436TIP3    H161185   5.840   7.566   7.110
20436TIP3    H261186   5.731   7.496   7.036
20437TIP3   OH261187   6.556   7.619   6.281
20437TIP3    H161188   6.614   7.548   6.245
20437TIP3    H261189   6.589   7.627   6.373
20438TIP3   OH261190   6.606   7.666   6.552
20438TIP3    H161191   6.517   7.676   6.592
20438TIP3    H261192   6.654   7.621   6.623
20439TIP3   OH261193   7.382   6.939   7.823
20439TIP3    H161194   7.298   6.951   7.775
20439TIP3    H261195   7.394   6.842   7.818
20440TIP3   OH261196   5.964   7.346   7.861
20440TIP3    H161197   6.020   7.324   7.939
20440TIP3    H261198   5.895   7.278   7.865
20441TIP3   OH261199   6.374   6.165   7.639
20441TIP3    H161200   6.284   6.134   7.614
20441TIP3    H261201   6.351   6.248   7.683
20442TIP3   OH261202   6.906   6.278   7.833
20442TIP3    H161203   6.974   6.253   7.899
20442TIP3    H261204   6.822   6.260   7.879
20443TIP3   OH261205   7.150   6.711   7.754
20443TIP3    H161206   7.099   6.706   7.838
20443TIP3    H261207   7.121   6.796   7.716
20444TIP3   OH261208   6.805   6.838   6.305
20444TIP3    H161209   6.774   6.812   6.216
20444TIP3    H261210   6.886   6.887   6.283
20445TIP3   OH261211   6.519   6.214   6.609
20445TIP3    H161212   6.487   6.213   6.701
20445TIP3    H261213   6.480   6.130   6.577
20446TIP3   OH261214   6.305   6.683   7.654
20446TIP3    H161215   6.256   6.702   7.736
20446TIP3    H261216   6.289   6.765   7.602
20447TIP3   OH261217   6.189   6.562   7.169
20447TIP3    H161218   6.096   6.538   7.188
20447TIP3    H261219   6.200   6.521   7.081
20448TIP3   OH261220   6.678   6.650   6.897
20448TIP3    H161221   6.624   6.722   6.857
20448TIP3    H261222   6.733   6.622   6.821
20449TIP3   OH261223   6.855   6.931   7.985
20449TIP3    H161224   6.830   6.858   8.047
20449TIP3    H261225   6.949   6.942   8.007
20450TIP3   OH261226   6.839   6.681   7.141
20450TIP3    H161227   6.777   6.716   7.074
20450TIP3    H261228   6.866   6.598   7.096
20451TIP3   OH261229   6.126   6.709   7.865
20451TIP3    H161230   6.147   6.775   7.932
20451TIP3    H261231   6.111   6.629   7.918
20452TIP3   OH261232   6.173   6.185   6.575
20452TIP3    H161233   6.166   6.183   6.673
20452TIP3    H261234   6.095   6.240   6.553
20453TIP3   OH261235   5.716   6.230   7.441
20453TIP3    H161236   5.787   6.264   7.500
20453TIP3    H261237   5.766   6.199   7.364
20454TIP3   OH261238   5.689   6.212   6.963
20454TIP3    H161239   5.735   6.252   6.887
20454TIP3    H261240   5.629   6.286   6.988
20455TIP3   OH261241   6.868   6.929   7.573
20455TIP3    H161242   6.883   6.863   7.502
20455TIP3    H261243   6.826   6.872   7.641
20456TIP3   OH261244   6.514   6.377   7.231
20456TIP3    H161245   6.431   6.383   7.283
20456TIP3    H261246   6.580   6.401   7.298
20457TIP3   OH261247   5.951   6.445   7.239
20457TIP3    H161248   5.855   6.452   7.214
20457TIP3    H261249   5.973   6.353   7.218
20458TIP3   OH261250   6.221   6.435   6.927
20458TIP3    H161251   6.314   6.457   6.909
20458TIP3    H261252   6.174   6.463   6.846
20459TIP3   OH261253   7.010   6.459   7.431
20459TIP3    H161254   6.977   6.475   7.523
20459TIP3    H261255   6.938   6.402   7.397
20460TIP3   OH261256   6.061   6.471   6.706
20460TIP3    H161257   5.988   6.429   6.658
20460TIP3    H261258   6.113   6.509   6.633
20461TIP3   OH261259   7.186   8.151   7.657
20461TIP3    H161260   7.181   8.172   7.563
20461TIP3    H261261   7.260   8.210   7.685
20462TIP3   OH261262   6.133   7.261   8.074
20462TIP3    H161263   6.213   7.294   8.119
20462TIP3    H261264   6.069   7.262   8.148
20463TIP3   OH261265   6.588   6.692   7.324
20463TIP3    H161266   6.675   6.689   7.282
20463TIP3    H261267   6.609   6.670   7.417
20464TIP3   OH261268   6.120   6.204   7.208
20464TIP3    H161269   6.087   6.124   7.255
20464TIP3    H261270   6.174   6.166   7.138
20465TIP3   OH261271   6.575   6.609   7.626
20465TIP3    H161272   6.485   6.648   7.634
20465TIP3    H261273   6.632   6.673   7.673
20466TIP3   OH261274   6.314   7.003   6.712
20466TIP3    H161275   6.240   6.939   6.702
20466TIP3    H261276   6.296   7.037   6.803
20467TIP3   OH261277   7.214   7.238   7.345
20467TIP3    H161278   7.235   7.288   7.264
20467TIP3    H261279   7.126   7.199   7.323
20468TIP3   OH261280   6.770   6.317   6.572
20468TIP3    H161281   6.673   6.302   6.584
20468TIP3    H261282   6.782   6.411   6.599
20469TIP3   OH261283   6.736   7.337   7.715
20469TIP3    H161284   6.715   7.293   7.798
20469TIP3    H261285   6.666   7.404   7.709
20470TIP3   OH261286   6.841   6.561   6.677
20470TIP3    H161287   6.937   6.570   6.695
20470TIP3    H261288   6.822   6.643   6.626
20471TIP3   OH261289   5.996   7.015   7.388
20471TIP3    H161290   6.043   6.997   7.304
20471TIP3    H261291   6.052   6.968   7.452
20472TIP3   OH261292   6.456   7.152   6.532
20472TIP3    H161293   6.410   7.239   6.540
20472TIP3    H261294   6.403   7.097   6.593
20473TIP3   OH261295   5.883   6.946   8.005
20473TIP3    H161296   5.904   6.931   8.099
20473TIP3    H261297   5.815   6.879   7.989
20474TIP3   OH261298   6.610   7.061   8.024
20474TIP3    H161299   6.550   7.008   7.969
20474TIP3    H261300   6.697   7.026   7.995
20475TIP3   OH261301   6.875   7.617   7.591
20475TIP3    H161302   6.789   7.575   7.604
20475TIP3    H261303   6.895   7.646   7.683
20476TIP3   OH261304   7.284   6.653   6.515
20476TIP3    H161305   7.221   6.608   6.454
20476TIP3    H261306   7.279   6.742   6.475
20477TIP3   OH261307   7.501   7.509   7.599
20477TIP3    H161308   7.404   7.502   7.588
20477TIP3    H261309   7.529   7.481   7.509
20478TIP3   OH261310   6.983   7.473   6.425
20478TIP3    H161311   6.957   7.404   6.488
20478TIP3    H261312   6.994   7.423   6.342
20479TIP3   OH261313   6.986   7.099   7.257
20479TIP3    H161314   6.896   7.065   7.277
20479TIP3    H261315   7.022   7.021   7.212
20480TIP3   OH261316   6.100   7.323   6.999
20480TIP3    H161317   6.101   7.411   6.957
20480TIP3    H261318   6.009   7.318   7.032
20481TIP3   OH261319   5.668   6.634   6.718
20481TIP3    H161320   5.715   6.717   6.739
20481TIP3    H261321   5.592   6.640   6.779
20482TIP3   OH261322   6.246   7.094   6.956
20482TIP3    H161323   6.207   7.183   6.973
20482TIP3    H261324   6.213   7.046   7.035
20483TIP3   OH261325   6.373   7.675   7.486
20483TIP3    H161326   6.419   7.744   7.435
20483TIP3    H261327   6.447   7.630   7.530
20484TIP3   OH261328   6.022   7.571   6.865
20484TIP3    H161329   5.937   7.576   6.914
20484TIP3    H261330   6.052   7.664   6.870
20485TIP3   OH261331   6.812   7.328   7.450
20485TIP3    H161332   6.764   7.313   7.534
20485TIP3    H261333   6.833   7.238   7.422
20486TIP3   OH261334   6.736   7.201   6.325
20486TIP3    H161335   6.791   7.175   6.403
20486TIP3    H261336   6.648   7.174   6.357
20487TIP3   OH261337   7.017   7.844   7.497
20487TIP3    H161338   6.945   7.776   7.504
20487TIP3    H261339   6.987   7.899   7.422
20488TIP3   OH261340   7.077   7.675   6.145
20488TIP3    H161341   7.117   7.749   6.095
20488TIP3    H261342   6.997   7.721   6.179
20489TIP3   OH261343   6.094   6.451   8.012
20489TIP3    H161344   5.997   6.457   8.023
20489TIP3    H261345   6.119   6.392   8.084
20490TIP3   OH261346   6.897   7.130   6.537
20490TIP3    H161347   6.887   7.068   6.612
20490TIP3    H261348   6.995   7.131   6.529
20491TIP3   OH261349   5.814   7.533   7.649
20491TIP3    H161350   5.868   7.461   7.684
20491TIP3    H261351   5.845   7.608   7.702
20492TIP3   OH261352   6.103   7.181   6.325
20492TIP3    H161353   6.118   7.089   6.298
20492TIP3    H261354   6.086   7.170   6.421
20493TIP3   OH261355   6.050   7.186   6.596
20493TIP3    H161356   6.116   7.158   6.662
20493TIP3    H261357   6.053   7.283   6.606
20494TIP3   OH261358   5.783   6.878   6.800
20494TIP3    H161359   5.719   6.923   6.859
20494TIP3    H261360   5.799   6.949   6.736
20495TIP3   OH261361   6.938   6.513   7.689
20495TIP3    H161362   7.013   6.553   7.735
20495TIP3    H261363   6.920   6.433   7.744
20496TIP3   OH261364   6.817   6.266   6.855
20496TIP3    H161365   6.801   6.293   6.763
20496TIP3    H261366   6.855   6.347   6.894
20497TIP3   OH261367   6.314   7.383   6.543
20497TIP3    H161368   6.228   7.409   6.582
20497TIP3    H261369   6.331   7.459   6.486
20498TIP3   OH261370   6.503   6.445   6.960
20498TIP3    H161371   6.567   6.518   6.943
20498TIP3    H261372   6.507   6.439   7.058
20499TIP3   OH261373   6.767   6.766   7.770
20499TIP3    H161374   6.788   6.823   7.846
20499TIP3    H261375   6.824   6.689   7.784
20500TIP3   OH261376   6.649   6.173   7.063
20500TIP3    H161377   6.635   6.250   7.123
20500TIP3    H261378   6.709   6.212   6.996
20501TIP3   OH261379   6.057   7.459   6.613
20501TIP3    H161380   6.027   7.530   6.552
20501TIP3    H261381   6.041   7.501   6.701
20502TIP3   OH261382   6.160   6.171   6.852
20502TIP3    H161383   6.156   6.262   6.888
20502TIP3    H261384   6.256   6.154   6.861
20503TIP3   OH261385   7.415   6.666   7.744
20503TIP3    H161386   7.317   6.667   7.758
20503TIP3    H261387   7.418   6.623   7.658
20504TIP3   OH261388   7.067   6.857   7.134
20504TIP3    H161389   6.986   6.805   7.152
20504TIP3    H261390   7.135   6.809   7.186
20505TIP3   OH261391   5.775   7.090   6.606
20505TIP3    H161392   5.841   7.161   6.618
20505TIP3    H261393   5.823   7.036   6.540
20506TIP3   OH261394   5.722   6.364   6.736
20506TIP3    H161395   5.723   6.462   6.734
20506TIP3    H261396   5.633   6.345   6.705
20507TIP3   OH261397   7.031   7.819   7.087
20507TIP3    H161398   6.989   7.865   7.012
20507TIP3    H261399   7.125   7.836   7.066
20508TIP3   OH261400   6.113   6.082   7.613
20508TIP3    H161401   6.077   6.052   7.527
20508TIP3    H261402   6.098   6.005   7.671
20509TIP3   OH261403   5.644   7.296   6.994
20509TIP3    H161404   5.579   7.333   7.055
20509TIP3    H261405   5.621   7.342   6.910
20510TIP3   OH261406   5.804   7.843   8.067
20510TIP3    H161407   5.891   7.842   8.112
20510TIP3    H261408   5.784   7.748   8.062
20511TIP3   OH261409   6.289   7.808   8.109
20511TIP3    H161410   6.382   7.784   8.113
20511TIP3    H261411   6.258   7.751   8.035
20512TIP3   OH261412   6.266   7.385   6.237
20512TIP3    H161413   6.210   7.315   6.278
20512TIP3    H261414   6.342   7.331   6.208
20513TIP3   OH261415   6.923   7.716   7.843
20513TIP3    H161416   6.912   7.641   7.906
20513TIP3    H261417   7.000   7.762   7.879
20514TIP3   OH261418   6.703   7.426   6.150
20514TIP3    H161419   6.746   7.361   6.209
20514TIP3    H261420   6.761   7.425   6.071
20515TIP3   OH261421   5.934   7.250   8.267
20515TIP3    H161422   5.952   7.154   8.268
20515TIP3    H261423   5.847   7.253   8.221
20516TIP3   OH261424   5.912   6.902   6.459
20516TIP3    H161425   5.967   6.869   6.533
20516TIP3    H261426   5.980   6.906   6.388
20517TIP3   OH261427   6.542   7.335   8.039
20517TIP3    H161428   6.497   7.353   7.954
20517TIP3    H261429   6.570   7.242   8.030
20518TIP3   OH261430   6.420   7.099   6.264
20518TIP3    H161431   6.422   7.113   6.361
20518TIP3    H261432   6.419   7.001   6.261
20519TIP3   OH261433   7.042   7.339   7.657
20519TIP3    H161434   7.098   7.397   7.602
20519TIP3    H261435   6.953   7.365   7.629
20520TIP3   OH261436   6.049   6.985   8.249
20520TIP3    H161437   6.124   6.929   8.224
20520TIP3    H261438   6.077   7.016   8.338
20521TIP3   OH261439   6.117   6.806   6.680
20521TIP3    H161440   6.092   6.770   6.766
20521TIP3    H261441   6.153   6.728   6.633
20522TIP3   OH261442   6.391   6.870   7.906
20522TIP3    H161443   6.311   6.927   7.913
20522TIP3    H261444   6.436   6.911   7.828
20523TIP3   OH261445   6.220   6.597   6.522
20523TIP3    H161446   6.194   6.601   6.428
20523TIP3    H261447   6.318   6.605   6.514
20524TIP3   OH261448   6.910   7.274   8.050
20524TIP3    H161449   6.975   7.239   7.987
20524TIP3    H261450   6.904   7.202   8.116
20525TIP3   OH261451   7.043   6.930   6.184
20525TIP3    H161452   7.021   6.884   6.101
20525TIP3    H261453   7.011   7.020   6.160
20526TIP3   OH261454   6.513   6.659   8.034
20526TIP3    H161455   6.511   6.579   7.979
20526TIP3    H261456   6.469   6.725   7.977
20527TIP3   OH261457   6.515   6.440   7.843
20527TIP3    H161458   6.541   6.486   7.760
20527TIP3    H261459   6.420   6.420   7.825
20528TIP3   OH261460   6.539   6.997   7.718
20528TIP3    H161461   6.622   6.981   7.672
20528TIP3    H261462   6.495   7.058   7.654
20529TIP3   OH261463   7.126   6.948   8.098
20529TIP3    H161464   7.172   6.864   8.116
20529TIP3    H261465   7.196   7.000   8.055
20530TIP3   OH261466   7.169   7.201   7.845
20530TIP3    H161467   7.110   7.253   7.785
20530TIP3    H261468   7.254   7.215   7.798
20531TIP3   OH261469   6.392   6.769   8.266
20531TIP3    H161470   6.322   6.702   8.280
20531TIP3    H261471   6.425   6.744   8.178
20532TIP3   OH261472   6.647   6.207   7.909
20532TIP3    H161473   6.599   6.290   7.886
20532TIP3    H261474   6.575   6.140   7.898
20533TIP3   OH261475   6.773   6.713   8.125
20533TIP3    H161476   6.760   6.701   8.221
20533TIP3    H261477   6.683   6.689   8.094
20534TIP3   OH261478   7.011   6.659   7.979
20534TIP3    H161479   6.935   6.663   8.040
20534TIP3    H261480   7.083   6.629   8.038
20535TIP3   OH261481   7.241   6.599   8.131
20535TIP3    H161482   7.252   6.504   8.152
20535TIP3    H261483   7.234   6.641   8.220
20536TIP3   OH261484   6.230   6.549   8.317
20536TIP3    H161485   6.237   6.458   8.283
20536TIP3    H261486   6.265   6.537   8.408
20537TIP3   OH261487   6.741   6.217   8.167
20537TIP3    H161488   6.809   6.147   8.160
20537TIP3    H261489   6.701   6.212   8.078
20538TIP3   OH261490   6.807   6.433   8.325
20538TIP3    H161491   6.783   6.362   8.261
20538TIP3    H261492   6.729   6.493   8.320
20539TIP3   OH261493   6.028   7.663   6.425
20539TIP3    H161494   6.123   7.657   6.406
20539TIP3    H261495   5.998   7.711   6.346
20540TIP3   OH261496   5.507   7.044   6.639
20540TIP3    H161497   5.602   7.066   6.629
20540TIP3    H261498   5.503   6.954   6.600
20541TIP3   OH261499   5.421   7.655   7.056
20541TIP3    H161500   5.353   7.591   7.023
20541TIP3    H261501   5.467   7.600   7.123
20542TIP3   OH261502   5.558   7.505   7.240
20542TIP3    H161503   5.547   7.434   7.305
20542TIP3    H261504   5.610   7.568   7.294
20543TIP3   OH261505   7.283   7.910   7.041
20543TIP3    H161506   7.311   7.937   7.130
20543TIP3    H261507   7.351   7.950   6.984
20544TIP3   OH261508   7.321   7.922   7.323
20544TIP3    H161509   7.274   7.836   7.321
20544TIP3    H261510   7.392   7.901   7.385
20545TIP3   OH261511   7.357   7.588   7.876
20545TIP3    H161512   7.281   7.600   7.936
20545TIP3    H261513   7.394   7.676   7.864
20546TIP3   OH261514   7.178   7.116   6.517
20546TIP3    H161515   7.247   7.180   6.490
20546TIP3    H261516   7.220   7.077   6.597
20547TIP3   OH261517   7.305   6.984   6.721
20547TIP3    H161518   7.239   6.941   6.780
20547TIP3    H261519   7.369   7.023   6.784
20548TIP3   OH261520   7.361   7.378   7.155
20548TIP3    H161521   7.413   7.312   7.104
20548TIP3    H261522   7.347   7.449   7.090
20549TIP3   OH261523   7.190   7.677   7.347
20549TIP3    H161524   7.118   7.717   7.401
20549TIP3    H261525   7.139   7.628   7.279
20550TIP3   OH261526   7.243   6.891   6.368
20550TIP3    H161527   7.170   6.895   6.301
20550TIP3    H261528   7.217   6.968   6.424
20551TIP3   OH261529   7.114   6.564   6.322
20551TIP3    H161530   7.071   6.605   6.246
20551TIP3    H261531   7.089   6.470   6.311
20552TIP3   OH261532   7.120   6.840   6.866
20552TIP3    H161533   7.126   6.743   6.863
20552TIP3    H261534   7.105   6.856   6.962
20553TIP3   OH261535   5.746   6.917   7.611
20553TIP3    H161536   5.746   6.887   7.519
20553TIP3    H261537   5.843   6.919   7.630
20554TIP3   OH261538   7.405   7.259   7.717
20554TIP3    H161539   7.482   7.198   7.708
20554TIP3    H261540   7.428   7.331   7.656
20555TIP3   OH261541   7.602   7.076   7.744
20555TIP3    H161542   7.522   7.029   7.777
20555TIP3    H261543   7.668   7.004   7.757
20556TIP3   OH261544   7.058   6.297   6.307
20556TIP3    H161545   7.133   6.269   6.363
20556TIP3    H261546   6.985   6.241   6.335
20557TIP3   OH261547   7.114   6.556   6.763
20557TIP3    H161548   7.155   6.468   6.778
20557TIP3    H261549   7.173   6.591   6.693
20558TIP3   OH261550   7.278   6.727   7.258
20558TIP3    H161551   7.363   6.756   7.218
20558TIP3    H261552   7.288   6.767   7.347
20559TIP3   OH261553   7.346   6.875   7.489
20559TIP3    H161554   7.268   6.907   7.539
20559TIP3    H261555   7.375   6.957   7.445
20560TIP3   OH261556   5.963   6.605   8.294
20560TIP3    H161557   6.061   6.596   8.293
20560TIP3    H261558   5.937   6.518   8.329
20561TIP3   OH261559   7.795   6.459   8.040
20561TIP3    H161560   7.855   6.394   7.997
20561TIP3    H261561   7.769   6.516   7.965
20562TIP3   OH261562   7.225   6.306   6.799
20562TIP3    H161563   7.272   6.291   6.884
20562TIP3    H261564   7.163   6.230   6.799
20563TIP3   OH261565   5.927   6.291   7.603
20563TIP3    H161566   5.988   6.220   7.627
20563TIP3    H261567   5.985   6.369   7.610
20564TIP3   OH261568   5.726   6.565   7.691
20564TIP3    H161569   5.778   6.566   7.608
20564TIP3    H261570   5.754   6.648   7.732
20565TIP3   OH261571   7.669   6.607   7.850
20565TIP3    H161572   7.583   6.645   7.876
20565TIP3    H261573   7.638   6.534   7.793
20566TIP3   OH261574   7.305   6.242   6.433
20566TIP3    H161575   7.346   6.170   6.381
20566TIP3    H261576   7.371   6.313   6.427
20567TIP3   OH261577   5.709   6.061   7.187
20567TIP3    H161578   5.618   6.068   7.222
20567TIP3    H261579   5.707   6.125   7.113
20568TIP3   OH261580   6.869   7.777   6.699
20568TIP3    H161581   6.920   7.759   6.617
20568TIP3    H261582   6.927   7.837   6.746
20569TIP3   OH261583   5.931   6.139   8.010
20569TIP3    H161584   5.881   6.148   8.092
20569TIP3    H261585   5.870   6.186   7.948
20570TIP3   OH261586   5.971   7.579   8.088
20570TIP3    H161587   5.881   7.550   8.065
20570TIP3    H261588   5.976   7.558   8.182
20571TIP3   OH261589   6.146   7.614   7.635
20571TIP3    H161590   6.100   7.690   7.595
20571TIP3    H261591   6.232   7.623   7.589
20572TIP3   OH261592   6.593   7.855   7.773
20572TIP3    H161593   6.638   7.854   7.860
20572TIP3    H261594   6.658   7.904   7.719
20573TIP3   OH261595   6.767   8.004   7.623
20573TIP3    H161596   6.835   7.948   7.584
20573TIP3    H261597   6.821   8.060   7.683
20574TIP3   OH261598   7.568   6.369   7.729
20574TIP3    H161599   7.476   6.365   7.697
20574TIP3    H261600   7.596   6.276   7.716
20575TIP3   OH261601   5.829   7.865   7.653
20575TIP3    H161602   5.761   7.909   7.595
20575TIP3    H261603   5.810   7.909   7.737
20576TIP3   OH261604   6.062   7.849   7.513
20576TIP3    H161605   5.976   7.857   7.560
20576TIP3    H261606   6.038   7.881   7.424
20577TIP3   OH261607   6.490   7.877   7.308
20577TIP3    H161608   6.414   7.895   7.248
20577TIP3    H261609   6.499   7.963   7.354
20578TIP3   OH261610   6.757   7.820   7.361
20578TIP3    H161611   6.661   7.830   7.343
20578TIP3    H261612   6.793   7.900   7.320
20579TIP3   OH261613   6.967   8.011   7.277
20579TIP3    H161614   6.947   8.091   7.225
20579TIP3    H261615   6.988   7.945   7.207
20580TIP3   OH261616   5.728   7.644   7.406
20580TIP3    H161617   5.761   7.624   7.496
20580TIP3    H261618   5.807   7.621   7.353
20581TIP3   OH261619   5.933   7.529   7.255
20581TIP3    H161620   5.947   7.447   7.307
20581TIP3    H261621   6.024   7.567   7.255
20582TIP3   OH261622   6.201   7.627   7.258
20582TIP3    H161623   6.228   7.533   7.252
20582TIP3    H261624   6.241   7.648   7.345
20583TIP3   OH261625   6.778   6.284   7.351
20583TIP3    H161626   6.728   6.217   7.401
20583TIP3    H261627   6.846   6.232   7.306
20584TIP3   OH261628   7.296   6.160   7.252
20584TIP3    H161629   7.332   6.215   7.179
20584TIP3    H261630   7.201   6.182   7.249
20585TIP3   OH261631   7.391   6.263   7.017
20585TIP3    H161632   7.465   6.213   6.976
20585TIP3    H261633   7.423   6.355   7.003
20586TIP3   OH261634   6.021   5.991   7.363
20586TIP3    H161635   5.929   5.957   7.365
20586TIP3    H261636   6.071   5.907   7.361
20587TIP3   OH261637   5.803   5.861   7.011
20587TIP3    H161638   5.835   5.920   6.941
20587TIP3    H261639   5.775   5.925   7.079
20588TIP3   OH261640   6.464   6.023   7.245
20588TIP3    H161641   6.522   6.076   7.188
20588TIP3    H261642   6.480   6.063   7.331
20589TIP3   OH261643   7.015   6.170   7.230
20589TIP3    H161644   7.005   6.136   7.140
20589TIP3    H261645   6.999   6.089   7.283
20590TIP3   OH261646   7.041   6.093   6.791
20590TIP3    H161647   6.955   6.139   6.805
20590TIP3    H261648   7.024   6.009   6.838
20591TIP3   OH261649   5.526   7.430   6.790
20591TIP3    H161650   5.440   7.400   6.757
20591TIP3    H261651   5.515   7.526   6.782
20592TIP3   OH261652   5.924   6.023   6.775
20592TIP3    H161653   5.974   5.961   6.719
20592TIP3    H261654   5.996   6.077   6.813
20593TIP3   OH261655   6.438   6.195   6.874
20593TIP3    H161656   6.498   6.151   6.937
20593TIP3    H261657   6.455   6.288   6.900
20594TIP3   OH261658   6.295   7.621   6.373
20594TIP3    H161659   6.384   7.643   6.338
20594TIP3    H261660   6.273   7.545   6.314
20595TIP3   OH261661   7.016   7.739   6.467
20595TIP3    H161662   7.007   7.642   6.455
20595TIP3    H261663   6.970   7.772   6.387
20596TIP3   OH261664   6.229   6.271   8.255
20596TIP3    H161665   6.194   6.202   8.314
20596TIP3    H261666   6.323   6.273   8.283
20597TIP3   OH261667   6.476   6.269   8.375
20597TIP3    H161668   6.562   6.245   8.337
20597TIP3    H261669   6.464   6.198   8.441
20598TIP3   OH261670   5.600   7.459   6.432
20598TIP3    H161671   5.598   7.481   6.527
20598TIP3    H261672   5.689   7.418   6.422
20599TIP3   OH261673   7.301   6.330   8.163
20599TIP3    H161674   7.320   6.300   8.255
20599TIP3    H261675   7.390   6.326   8.122
20600TIP3   OH261676   7.238   7.878   7.659
20600TIP3    H161677   7.159   7.855   7.605
20600TIP3    H261678   7.230   7.976   7.660
20601TIP3   OH261679   8.508   7.255   6.422
20601TIP3    H161680   8.479   7.346   6.401
20601TIP3    H261681   8.432   7.205   6.387
20602TIP3   OH261682   8.497   7.257   6.803
20602TIP3    H161683   8.530   7.230   6.892
20602TIP3    H261684   8.461   7.173   6.770
20603TIP3   OH261685   7.806   7.150   7.166
20603TIP3    H161686   7.836   7.083   7.229
20603TIP3    H261687   7.885   7.205   7.158
20604TIP3   OH261688   8.747   7.552   6.484
20604TIP3    H161689   8.743   7.478   6.545
20604TIP3    H261690   8.757   7.627   6.544
20605TIP3   OH261691   7.775   7.561   6.893
20605TIP3    H161692   7.766   7.463   6.893
20605TIP3    H261693   7.872   7.569   6.891
20606TIP3   OH261694   7.484   6.765   6.678
20606TIP3    H161695   7.435   6.848   6.693
20606TIP3    H261696   7.413   6.710   6.639
20607TIP3   OH261697   7.544   7.052   6.848
20607TIP3    H161698   7.592   6.975   6.886
20607TIP3    H261699   7.603   7.079   6.777
20608TIP3   OH261700   8.417   8.019   6.513
20608TIP3    H161701   8.458   7.952   6.453
20608TIP3    H261702   8.398   7.964   6.590
20609TIP3   OH261703   8.295   7.476   6.845
20609TIP3    H161704   8.333   7.397   6.803
20609TIP3    H261705   8.378   7.525   6.863
20610TIP3   OH261706   9.298   6.804   6.848
20610TIP3    H161707   9.325   6.895   6.862
20610TIP3    H261708   9.315   6.794   6.753
20611TIP3   OH261709   8.725   6.984   6.882
20611TIP3    H161710   8.763   6.897   6.902
20611TIP3    H261711   8.690   6.969   6.792
20612TIP3   OH261712   8.055   6.643   6.849
20612TIP3    H161713   8.035   6.716   6.786
20612TIP3    H261714   8.007   6.569   6.805
20613TIP3   OH261715   8.749   6.736   6.471
20613TIP3    H161716   8.823   6.716   6.533
20613TIP3    H261717   8.799   6.768   6.394
20614TIP3   OH261718   7.689   6.845   6.956
20614TIP3    H161719   7.772   6.824   7.003
20614TIP3    H261720   7.701   6.789   6.876
20615TIP3   OH261721   8.130   7.043   6.748
20615TIP3    H161722   8.223   7.017   6.761
20615TIP3    H261723   8.090   6.959   6.716
20616TIP3   OH261724   8.051   6.626   7.283
20616TIP3    H161725   7.991   6.663   7.215
20616TIP3    H261726   7.999   6.645   7.364
20617TIP3   OH261727   8.397   7.476   6.293
20617TIP3    H161728   8.359   7.453   6.208
20617TIP3    H261729   8.351   7.560   6.314
20618TIP3   OH261730   8.158   7.400   7.079
20618TIP3    H161731   8.093   7.464   7.115
20618TIP3    H261732   8.197   7.449   7.004
20619TIP3   OH261733   8.960   6.728   6.642
20619TIP3    H161734   8.950   6.678   6.724
20619TIP3    H261735   9.001   6.810   6.673
20620TIP3   OH261736   7.922   6.741   7.067
20620TIP3    H161737   7.984   6.814   7.090
20620TIP3    H261738   7.971   6.700   6.992
20621TIP3   OH261739   7.974   7.588   7.162
20621TIP3    H161740   7.951   7.676   7.125
20621TIP3    H261741   7.896   7.574   7.220
20622TIP3   OH261742   7.383   7.285   6.412
20622TIP3    H161743   7.340   7.311   6.328
20622TIP3    H261744   7.412   7.371   6.448
20623TIP3   OH261745   9.101   6.696   7.016
20623TIP3    H161746   9.014   6.719   6.979
20623TIP3    H261747   9.163   6.732   6.949
20624TIP3   OH261748   8.409   6.346   6.996
20624TIP3    H161749   8.395   6.251   7.013
20624TIP3    H261750   8.331   6.383   7.043
20625TIP3   OH261751   8.518   7.855   6.319
20625TIP3    H161752   8.569   7.772   6.300
20625TIP3    H261753   8.577   7.921   6.277
20626TIP3   OH261754   8.661   7.637   6.235
20626TIP3    H161755   8.634   7.558   6.185
20626TIP3    H261756   8.695   7.596   6.317
20627TIP3   OH261757   8.338   7.109   6.252
20627TIP3    H161758   8.258   7.159   6.228
20627TIP3    H261759   8.385   7.103   6.167
20628TIP3   OH261760   8.297   6.891   5.969
20628TIP3    H161761   8.366   6.942   6.016
20628TIP3    H261762   8.353   6.827   5.921
20629TIP3   OH261763   8.685   7.191   6.223
20629TIP3    H161764   8.631   7.215   6.302
20629TIP3    H261765   8.768   7.163   6.266
20630TIP3   OH261766   7.918   7.188   6.640
20630TIP3    H161767   7.876   7.130   6.573
20630TIP3    H261768   7.995   7.134   6.669
20631TIP3   OH261769   8.047   7.603   6.786
20631TIP3    H161770   8.023   7.558   6.703
20631TIP3    H261771   8.135   7.564   6.805
20632TIP3   OH261772   8.055   7.158   6.995
20632TIP3    H161773   8.087   7.138   6.905
20632TIP3    H261774   8.098   7.244   7.015
20633TIP3   OH261775   8.542   7.826   6.763
20633TIP3    H161776   8.611   7.859   6.822
20633TIP3    H261777   8.541   7.730   6.785
20634TIP3   OH261778   8.109   7.752   7.344
20634TIP3    H161779   8.070   7.831   7.306
20634TIP3    H261780   8.076   7.683   7.282
20635TIP3   OH261781   8.524   7.049   6.050
20635TIP3    H161782   8.586   7.106   6.101
20635TIP3    H261783   8.550   7.073   5.957
20636TIP3   OH261784   7.943   7.258   7.412
20636TIP3    H161785   7.943   7.348   7.452
20636TIP3    H261786   7.848   7.237   7.421
20637TIP3   OH261787   8.270   7.728   6.327
20637TIP3    H161788   8.349   7.783   6.338
20637TIP3    H261789   8.207   7.788   6.284
20638TIP3   OH261790   9.047   6.293   6.111
20638TIP3    H161791   8.959   6.315   6.146
20638TIP3    H261792   9.056   6.358   6.038
20639TIP3   OH261793   7.784   7.031   6.446
20639TIP3    H161794   7.718   7.076   6.389
20639TIP3    H261795   7.743   6.944   6.458
20640TIP3   OH261796   8.841   7.656   5.649
20640TIP3    H161797   8.850   7.753   5.632
20640TIP3    H261798   8.933   7.626   5.634
20641TIP3   OH261799   7.563   7.414   7.352
20641TIP3    H161800   7.495   7.393   7.285
20641TIP3    H261801   7.599   7.326   7.375
20642TIP3   OH261802   7.419   7.609   6.981
20642TIP3    H161803   7.515   7.601   6.974
20642TIP3    H261804   7.409   7.686   7.039
20643TIP3   OH261805   8.151   7.974   6.128
20643TIP3    H161806   8.105   7.952   6.045
20643TIP3    H261807   8.118   8.063   6.148
20644TIP3   OH261808   7.588   7.823   6.511
20644TIP3    H161809   7.635   7.814   6.596
20644TIP3    H261810   7.533   7.743   6.512
20645TIP3   OH261811   8.353   7.875   5.768
20645TIP3    H161812   8.410   7.805   5.730
20645TIP3    H261813   8.388   7.882   5.859
20646TIP3   OH261814   8.404   7.925   6.039
20646TIP3    H161815   8.313   7.934   6.077
20646TIP3    H261816   8.447   7.871   6.107
20647TIP3   OH261817   7.764   7.597   7.333
20647TIP3    H161818   7.815   7.571   7.412
20647TIP3    H261819   7.688   7.535   7.340
20648TIP3   OH261820   8.170   6.421   7.126
20648TIP3    H161821   8.080   6.390   7.100
20648TIP3    H261822   8.145   6.504   7.170
20649TIP3   OH261823   8.697   6.533   7.319
20649TIP3    H161824   8.761   6.513   7.389
20649TIP3    H261825   8.611   6.516   7.363
20650TIP3   OH261826   8.601   7.100   5.795
20650TIP3    H161827   8.569   7.070   5.707
20650TIP3    H261828   8.686   7.141   5.769
20651TIP3   OH261829   8.310   6.473   6.095
20651TIP3    H161830   8.280   6.469   6.188
20651TIP3    H261831   8.277   6.387   6.062
20652TIP3   OH261832   8.101   6.934   7.142
20652TIP3    H161833   8.054   6.957   7.225
20652TIP3    H261834   8.085   7.016   7.089
20653TIP3   OH261835   7.985   6.823   6.658
20653TIP3    H161836   7.892   6.796   6.675
20653TIP3    H261837   7.998   6.782   6.569
20654TIP3   OH261838   8.475   6.908   6.385
20654TIP3    H161839   8.423   6.979   6.342
20654TIP3    H261840   8.531   6.877   6.311
20655TIP3   OH261841   8.631   6.937   6.624
20655TIP3    H161842   8.571   6.965   6.552
20655TIP3    H261843   8.666   6.856   6.582
20656TIP3   OH261844   7.916   6.963   7.351
20656TIP3    H161845   7.951   7.026   7.416
20656TIP3    H261846   7.905   6.882   7.405
20657TIP3   OH261847   7.968   6.441   6.063
20657TIP3    H161848   7.961   6.440   6.160
20657TIP3    H261849   7.891   6.495   6.038
20658TIP3   OH261850   7.513   6.488   6.932
20658TIP3    H161851   7.588   6.520   6.987
20658TIP3    H261852   7.556   6.456   6.852
20659TIP3   OH261853   7.486   6.468   6.452
20659TIP3    H161854   7.530   6.508   6.374
20659TIP3    H261855   7.425   6.541   6.475
20660TIP3   OH261856   8.609   7.171   7.044
20660TIP3    H161857   8.661   7.109   6.988
20660TIP3    H261858   8.596   7.116   7.124
20661TIP3   OH261859   8.312   6.644   6.719
20661TIP3    H161860   8.230   6.643   6.773
20661TIP3    H261861   8.381   6.644   6.788
20662TIP3   OH261862   7.747   6.701   6.727
20662TIP3    H161863   7.652   6.708   6.701
20662TIP3    H261864   7.770   6.610   6.703
20663TIP3   OH261865   8.016   6.696   6.415
20663TIP3    H161866   8.110   6.712   6.395
20663TIP3    H261867   7.970   6.720   6.332
20664TIP3   OH261868   8.809   6.720   6.923
20664TIP3    H161869   8.779   6.732   7.016
20664TIP3    H261870   8.740   6.661   6.888
20665TIP3   OH261871   7.857   6.730   6.194
20665TIP3    H161872   7.786   6.685   6.144
20665TIP3    H261873   7.910   6.767   6.119
20666TIP3   OH261874   7.922   7.497   7.538
20666TIP3    H161875   7.972   7.578   7.560
20666TIP3    H261876   7.858   7.494   7.612
20667TIP3   OH261877   8.396   6.973   6.814
20667TIP3    H161878   8.468   6.933   6.762
20667TIP3    H261879   8.407   6.931   6.901
20668TIP3   OH261880   7.919   6.461   6.695
20668TIP3    H161881   7.886   6.380   6.740
20668TIP3    H261882   7.969   6.424   6.621
20669TIP3   OH261883   8.373   6.868   7.108
20669TIP3    H161884   8.283   6.905   7.120
20669TIP3    H261885   8.430   6.929   7.158
20670TIP3   OH261886   8.107   7.262   6.200
20670TIP3    H161887   8.036   7.195   6.190
20670TIP3    H261888   8.091   7.294   6.292
20671TIP3   OH261889   8.567   6.570   6.070
20671TIP3    H161890   8.469   6.558   6.071
20671TIP3    H261891   8.578   6.666   6.086
20672TIP3   OH261892   8.636   6.821   6.168
20672TIP3    H161893   8.733   6.824   6.180
20672TIP3    H261894   8.620   6.898   6.110
20673TIP3   OH261895   7.801   7.283   6.877
20673TIP3    H161896   7.840   7.255   6.792
20673TIP3    H261897   7.840   7.219   6.939
20674TIP3   OH261898   8.254   7.410   6.022
20674TIP3    H161899   8.207   7.497   6.030
20674TIP3    H261900   8.200   7.354   6.082
20675TIP3   OH261901   7.678   7.199   7.488
20675TIP3    H161902   7.692   7.177   7.582
20675TIP3    H261903   7.607   7.137   7.464
20676TIP3   OH261904   8.426   7.265   7.492
20676TIP3    H161905   8.364   7.249   7.419
20676TIP3    H261906   8.459   7.353   7.470
20677TIP3   OH261907   9.082   6.910   6.001
20677TIP3    H161908   9.019   6.863   5.941
20677TIP3    H261909   9.075   6.998   5.959
20678TIP3   OH261910   8.773   7.723   5.911
20678TIP3    H161911   8.757   7.646   5.967
20678TIP3    H261912   8.792   7.682   5.824
20679TIP3   OH261913   8.756   7.360   6.736
20679TIP3    H161914   8.668   7.324   6.756
20679TIP3    H261915   8.802   7.282   6.700
20680TIP3   OH261916   7.901   7.585   6.502
20680TIP3    H161917   7.902   7.667   6.449
20680TIP3    H261918   7.806   7.570   6.512
20681TIP3   OH261919   7.465   6.891   6.205
20681TIP3    H161920   7.511   6.974   6.226
20681TIP3    H261921   7.388   6.897   6.266
20682TIP3   OH261922   8.041   7.352   6.447
20682TIP3    H161923   8.005   7.441   6.465
20682TIP3    H261924   8.004   7.302   6.522
20683TIP3   OH261925   8.164   7.925   6.972
20683TIP3    H161926   8.196   8.012   6.944
20683TIP3    H261927   8.230   7.905   7.039
20684TIP3   OH261928   7.821   7.825   6.354
20684TIP3    H161929   7.735   7.832   6.401
20684TIP3    H261930   7.851   7.918   6.358
20685TIP3   OH261931   8.543   7.586   6.905
20685TIP3    H161932   8.552   7.593   7.001
20685TIP3    H261933   8.618   7.526   6.887
20686TIP3   OH261934   8.533   7.459   5.814
20686TIP3    H161935   8.587   7.434   5.893
20686TIP3    H261936   8.446   7.428   5.843
20687TIP3   OH261937   8.871   7.931   5.633
20687TIP3    H161938   8.917   8.000   5.581
20687TIP3    H261939   8.792   7.981   5.660
20688TIP3   OH261940   7.893   6.709   7.500
20688TIP3    H161941   7.796   6.714   7.511
20688TIP3    H261942   7.918   6.646   7.569
20689TIP3   OH261943   8.694   7.398   6.034
20689TIP3    H161944   8.683   7.327   6.101
20689TIP3    H261945   8.790   7.391   6.017
20690TIP3   OH261946   7.612   7.796   7.133
20690TIP3    H161947   7.660   7.715   7.155
20690TIP3    H261948   7.645   7.854   7.203
20691TIP3   OH261949   7.899   7.438   5.812
20691TIP3    H161950   7.914   7.347   5.782
20691TIP3    H261951   7.880   7.424   5.907
20692TIP3   OH261952   7.845   7.442   6.085
20692TIP3    H161953   7.917   7.414   6.143
20692TIP3    H261954   7.850   7.540   6.093
20693TIP3   OH261955   7.581   7.135   6.287
20693TIP3    H161956   7.515   7.180   6.344
20693TIP3    H261957   7.596   7.205   6.221
20694TIP3   OH261958   8.745   6.771   7.186
20694TIP3    H161959   8.795   6.811   7.259
20694TIP3    H261960   8.716   6.688   7.229
20695TIP3   OH261961   8.604   6.526   6.346
20695TIP3    H161962   8.594   6.545   6.250
20695TIP3    H261963   8.648   6.607   6.378
20696TIP3   OH261964   8.112   7.641   6.036
20696TIP3    H161965   8.024   7.669   6.069
20696TIP3    H261966   8.125   7.706   5.965
20697TIP3   OH261967   8.298   6.703   6.446
20697TIP3    H161968   8.364   6.773   6.427
20697TIP3    H261969   8.305   6.697   6.544
20698TIP3   OH261970   8.572   7.015   7.265
20698TIP3    H161971   8.559   7.047   7.356
20698TIP3    H261972   8.631   6.940   7.281
20699TIP3   OH261973   8.444   6.430   6.550
20699TIP3    H161974   8.436   6.507   6.609
20699TIP3    H261975   8.504   6.466   6.480
20700TIP3   OH261976   7.855   7.716   6.100
20700TIP3    H161977   7.824   7.786   6.037
20700TIP3    H261978   7.838   7.759   6.187
20701TIP3   OH261979   7.955   6.428   6.340
20701TIP3    H161980   7.953   6.519   6.375
20701TIP3    H261981   8.051   6.411   6.347
20702TIP3   OH261982   8.852   7.116   6.620
20702TIP3    H161983   8.773   7.060   6.628
20702TIP3    H261984   8.918   7.065   6.671
20703TIP3   OH261985   7.572   7.346   6.093
20703TIP3    H161986   7.640   7.416   6.102
20703TIP3    H261987   7.617   7.290   6.026
20704TIP3   OH261988   7.517   6.620   6.226
20704TIP3    H161989   7.517   6.718   6.223
20704TIP3    H261990   7.433   6.599   6.186
20705TIP3   OH261991   7.906   6.341   7.100
20705TIP3    H161992   7.873   6.309   7.014
20705TIP3    H261993   7.894   6.262   7.157
20706TIP3   OH261994   7.446   7.563   6.482
20706TIP3    H161995   7.374   7.591   6.540
20706TIP3    H261996   7.417   7.602   6.396
20707TIP3   OH261997   8.064   7.642   5.728
20707TIP3    H161998   8.008   7.569   5.764
20707TIP3    H261999   8.138   7.591   5.691
20708TIP3   OH262000   8.499   7.683   5.637
20708TIP3    H162001   8.544   7.619   5.694
20708TIP3    H262002   8.555   7.682   5.556
20709TIP3   OH262003   7.746   7.495   7.741
20709TIP3    H162004   7.751   7.397   7.743
20709TIP3    H262005   7.652   7.509   7.717
20710TIP3   OH262006   7.707   7.159   5.946
20710TIP3    H162007   7.763   7.124   6.018
20710TIP3    H262008   7.774   7.162   5.874
20711TIP3   OH262009   8.215   7.355   5.753
20711TIP3    H162010   8.219   7.368   5.850
20711TIP3    H262011   8.217   7.257   5.748
20712TIP3   OH262012   7.859   7.239   7.737
20712TIP3    H162013   7.927   7.172   7.721
20712TIP3    H262014   7.839   7.230   7.830
20713TIP3   OH262015   7.916   7.062   6.168
20713TIP3    H162016   7.890   7.019   6.251
20713TIP3    H262017   7.952   6.986   6.116
20714TIP3   OH262018   8.173   7.113   7.380
20714TIP3    H162019   8.099   7.176   7.385
20714TIP3    H262020   8.229   7.153   7.309
20715TIP3   OH262021   8.017   6.855   6.009
20715TIP3    H162022   7.991   6.857   5.915
20715TIP3    H262023   8.115   6.861   6.001
20716TIP3   OH262024   8.837   7.188   5.672
20716TIP3    H162025   8.818   7.139   5.590
20716TIP3    H262026   8.806   7.277   5.646
20717TIP3   OH262027   8.275   6.896   7.512
20717TIP3    H162028   8.288   6.822   7.450
20717TIP3    H262029   8.247   6.969   7.452
20718TIP3   OH262030   8.310   6.695   7.323
20718TIP3    H162031   8.337   6.739   7.240
20718TIP3    H262032   8.216   6.674   7.306
20719TIP3   OH262033   8.339   7.235   7.205
20719TIP3    H162034   8.421   7.239   7.153
20719TIP3    H262035   8.284   7.304   7.162
20720TIP3   OH262036   8.151   7.019   7.720
20720TIP3    H162037   8.097   6.942   7.751
20720TIP3    H262038   8.189   6.982   7.638
20721TIP3   OH262039   8.441   6.465   7.398
20721TIP3    H162040   8.393   6.547   7.373
20721TIP3    H262041   8.371   6.398   7.385
20722TIP3   OH262042   8.542   6.937   7.564
20722TIP3    H162043   8.566   6.895   7.647
20722TIP3    H262044   8.447   6.914   7.555
20723TIP3   OH262045   8.021   6.795   7.808
20723TIP3    H162046   8.027   6.707   7.765
20723TIP3    H262047   8.049   6.769   7.899
20724TIP3   OH262048   8.532   6.464   7.656
20724TIP3    H162049   8.600   6.395   7.644
20724TIP3    H262050   8.493   6.466   7.567
20725TIP3   OH262051   8.599   6.691   7.790
20725TIP3    H162052   8.583   6.607   7.741
20725TIP3    H262053   8.508   6.728   7.795
20726TIP3   OH262054   7.825   7.921   5.914
20726TIP3    H162055   7.920   7.914   5.893
20726TIP3    H262056   7.794   7.967   5.834
20727TIP3   OH262057   7.304   7.300   6.129
20727TIP3    H162058   7.399   7.321   6.116
20727TIP3    H262059   7.298   7.211   6.088
20728TIP3   OH262060   7.217   7.913   6.544
20728TIP3    H162061   7.150   7.850   6.508
20728TIP3    H262062   7.262   7.856   6.610
20729TIP3   OH262063   7.353   7.764   6.730
20729TIP3    H162064   7.342   7.690   6.792
20729TIP3    H262065   7.405   7.825   6.786
20730TIP3   OH262066   8.971   7.377   6.004
20730TIP3    H162067   9.041   7.438   5.974
20730TIP3    H262068   9.015   7.335   6.082
20731TIP3   OH262069   9.098   7.243   6.206
20731TIP3    H162070   9.036   7.199   6.267
20731TIP3    H262071   9.167   7.279   6.265
20732TIP3   OH262072   9.039   7.150   5.856
20732TIP3    H162073   8.967   7.150   5.789
20732TIP3    H262074   9.011   7.227   5.910
20733TIP3   OH262075   8.908   6.824   5.811
20733TIP3    H162076   8.867   6.849   5.728
20733TIP3    H262077   8.884   6.729   5.816
20734TIP3   OH262078   8.915   7.096   6.352
20734TIP3    H162079   8.922   6.999   6.345
20734TIP3    H262080   8.899   7.109   6.448
20735TIP3   OH262081   7.541   7.169   7.101
20735TIP3    H162082   7.539   7.139   7.008
20735TIP3    H262083   7.638   7.172   7.117
20736TIP3   OH262084   8.847   6.561   5.822
20736TIP3    H162085   8.924   6.503   5.835
20736TIP3    H262086   8.779   6.495   5.804
20737TIP3   OH262087   8.911   6.815   6.250
20737TIP3    H162088   8.951   6.726   6.267
20737TIP3    H262089   8.969   6.845   6.178
20738TIP3   OH262090   9.045   6.973   6.752
20738TIP3    H162091   9.132   6.994   6.711
20738TIP3    H262092   9.057   7.007   6.841
20739TIP3   OH262093   7.760   6.860   7.782
20739TIP3    H162094   7.857   6.846   7.781
20739TIP3    H262095   7.731   6.775   7.819
20740TIP3   OH262096   9.013   6.566   6.296
20740TIP3    H162097   9.063   6.542   6.377
20740TIP3    H262098   8.958   6.486   6.284
20741TIP3   OH262099   7.721   6.549   7.105
20741TIP3    H162100   7.784   6.475   7.117
20741TIP3    H262101   7.781   6.625   7.100
20742TIP3   OH262102   7.524   6.823   7.181
20742TIP3    H162103   7.572   6.817   7.096
20742TIP3    H262104   7.550   6.910   7.212
20743TIP3   OH262105   9.126   6.502   5.938
20743TIP3    H162106   9.115   6.433   5.868
20743TIP3    H262107   9.185   6.567   5.898
20744TIP3   OH262108   7.506   6.324   6.680
20744TIP3    H162109   7.412   6.324   6.708
20744TIP3    H262110   7.504   6.383   6.602
20745TIP3   OH262111   8.659   8.056   6.189
20745TIP3    H162112   8.683   8.032   6.096
20745TIP3    H262113   8.745   8.034   6.231
20746TIP3   OH262114   7.726   6.406   7.495
20746TIP3    H162115   7.676   6.401   7.578
20746TIP3    H262116   7.660   6.446   7.435
20747TIP3   OH262117   7.748   7.840   7.599
20747TIP3    H162118   7.659   7.815   7.567
20747TIP3    H262119   7.747   7.805   7.690
20748TIP3   OH262120   7.945   7.855   7.116
20748TIP3    H162121   7.890   7.927   7.078
20748TIP3    H262122   8.026   7.872   7.064
20749TIP3   OH262123   9.369   6.634   7.174
20749TIP3    H162124   9.273   6.636   7.159
20749TIP3    H262125   9.386   6.540   7.183
20750TIP3   OH262126   7.622   8.147   7.136
20750TIP3    H162127   7.527   8.163   7.118
20750TIP3    H262128   7.621   8.130   7.231
20751TIP3   OH262129   7.838   8.064   6.982
20751TIP3    H162130   7.768   8.104   7.037
20751TIP3    H262131   7.839   8.125   6.906
20752TIP3   OH262132   7.532   7.917   6.890
20752TIP3    H162133   7.561   7.891   6.980
20752TIP3    H262134   7.605   7.877   6.838
20753TIP3   OH262135   7.726   7.789   6.744
20753TIP3    H162136   7.741   7.705   6.793
20753TIP3    H262137   7.816   7.826   6.741
20754TIP3   OH262138   7.993   7.882   6.742
20754TIP3    H162139   8.024   7.790   6.733
20754TIP3    H262140   8.027   7.903   6.830
20755TIP3   OH262141   8.569   6.541   6.836
20755TIP3    H162142   8.525   6.470   6.886
20755TIP3    H262143   8.640   6.493   6.790
20756TIP3   OH262144   9.094   6.429   6.749
20756TIP3    H162145   9.129   6.470   6.666
20756TIP3    H262146   8.998   6.438   6.735
20757TIP3   OH262147   9.192   6.517   6.509
20757TIP3    H162148   9.258   6.470   6.456
20757TIP3    H262149   9.213   6.610   6.486
20758TIP3   OH262150   7.817   6.249   6.852
20758TIP3    H162151   7.725   6.215   6.852
20758TIP3    H262152   7.867   6.164   6.848
20759TIP3   OH262153   7.603   6.117   6.499
20759TIP3    H162154   7.633   6.176   6.427
20759TIP3    H262155   7.573   6.182   6.566
20760TIP3   OH262156   8.260   6.280   6.732
20760TIP3    H162157   8.318   6.329   6.671
20760TIP3    H262158   8.283   6.320   6.817
20761TIP3   OH262159   8.809   6.428   6.716
20761TIP3    H162160   8.809   6.393   6.626
20761TIP3    H262161   8.793   6.346   6.769
20762TIP3   OH262162   8.834   6.352   6.281
20762TIP3    H162163   8.746   6.392   6.287
20762TIP3    H262164   8.819   6.265   6.324
20763TIP3   OH262165   7.321   7.688   6.278
20763TIP3    H162166   7.236   7.654   6.244
20763TIP3    H262167   7.309   7.783   6.262
20764TIP3   OH262168   7.720   6.277   6.264
20764TIP3    H162169   7.769   6.216   6.206
20764TIP3    H262170   7.793   6.332   6.300
20765TIP3   OH262171   8.232   6.452   6.363
20765TIP3    H162172   8.295   6.407   6.422
20765TIP3    H262173   8.253   6.545   6.386
20766TIP3   OH262174   8.092   7.878   5.861
20766TIP3    H162175   8.180   7.901   5.824
20766TIP3    H262176   8.070   7.803   5.802
20767TIP3   OH262177   8.786   7.990   5.954
20767TIP3    H162178   8.788   7.892   5.940
20767TIP3    H262179   8.757   8.021   5.865
20768TIP3   OH262180   8.027   6.525   7.741
20768TIP3    H162181   7.994   6.456   7.801
20768TIP3    H262182   8.121   6.527   7.767
20769TIP3   OH262183   8.277   6.523   7.859
20769TIP3    H162184   8.360   6.494   7.817
20769TIP3    H262185   8.263   6.452   7.925
20770TIP3   OH262186   7.397   7.716   5.918
20770TIP3    H162187   7.397   7.737   6.013
20770TIP3    H262188   7.485   7.673   5.906
20771TIP3   OH262189   9.275   7.021   6.167
20771TIP3    H162190   9.226   7.104   6.176
20771TIP3    H262191   9.207   6.965   6.124
20772TIP3   OH262192   9.343   7.305   6.317
20772TIP3    H162193   9.391   7.225   6.346
20772TIP3    H262194   9.400   7.340   6.247
20773TIP3   OH262195   9.868   6.876   6.323
20773TIP3    H162196   9.863   6.956   6.267
20773TIP3    H262197   9.807   6.816   6.277
20774TIP3   OH262198   9.455   7.074   6.439
20774TIP3    H162199   9.552   7.077   6.453
20774TIP3    H262200   9.455   7.024   6.355
20775TIP3   OH262201   9.175   7.542   5.900
20775TIP3    H162202   9.136   7.570   5.814
20775TIP3    H262203   9.204   7.628   5.937
20776TIP3   OH262204  10.116   7.344   5.672
20776TIP3    H162205  10.039   7.405   5.672
20776TIP3    H262206  10.185   7.403   5.638
20777TIP3   OH262207  10.085   7.146   5.449
20777TIP3    H162208  10.124   7.186   5.529
20777TIP3    H262209  10.159   7.093   5.411
20778TIP3   OH262210   9.572   7.269   5.911
20778TIP3    H162211   9.503   7.322   5.866
20778TIP3    H262212   9.522   7.194   5.944
20779TIP3   OH262213  10.124   6.729   5.583
20779TIP3    H162214  10.091   6.724   5.675
20779TIP3    H262215  10.082   6.649   5.547
20780TIP3   OH262216   9.778   7.056   6.127
20780TIP3    H162217   9.685   7.040   6.154
20780TIP3    H262218   9.778   7.020   6.036
20781TIP3   OH262219   9.766   6.702   5.548
20781TIP3    H162220   9.761   6.689   5.645
20781TIP3    H262221   9.685   6.754   5.533
20782TIP3   OH262222   9.285   6.751   6.415
20782TIP3    H162223   9.368   6.772   6.459
20782TIP3    H262224   9.312   6.714   6.328
20783TIP3   OH262225   9.300   6.737   5.942
20783TIP3    H162226   9.334   6.775   5.859
20783TIP3    H262227   9.228   6.801   5.962
20784TIP3   OH262228   9.535   6.944   6.209
20784TIP3    H162229   9.443   6.951   6.175
20784TIP3    H262230   9.564   6.856   6.179
20785TIP3   OH262231   9.803   6.937   5.885
20785TIP3    H162232   9.891   6.963   5.855
20785TIP3    H262233   9.745   6.967   5.811
20786TIP3   OH262234   9.645   6.989   5.676
20786TIP3    H162235   9.572   6.945   5.629
20786TIP3    H262236   9.697   7.024   5.601
20787TIP3   OH262237   9.706   6.698   6.175
20787TIP3    H162238   9.653   6.615   6.162
20787TIP3    H262239   9.771   6.685   6.105
20788TIP3   OH262240   9.897   7.519   5.671
20788TIP3    H162241   9.828   7.449   5.673
20788TIP3    H262242   9.887   7.560   5.759
20789TIP3   OH262243  10.363   6.854   5.548
20789TIP3    H162244  10.270   6.823   5.561
20789TIP3    H262245  10.354   6.950   5.551
20790TIP3   OH262246   9.261   7.147   5.694
20790TIP3    H162247   9.307   7.231   5.713
20790TIP3    H262248   9.184   7.154   5.754
20791TIP3   OH262249   9.708   7.686   5.303
20791TIP3    H162250   9.705   7.597   5.265
20791TIP3    H262251   9.671   7.672   5.392
20792TIP3   OH262252   9.640   7.702   5.575
20792TIP3    H162253   9.712   7.655   5.620
20792TIP3    H262254   9.668   7.795   5.581
20793TIP3   OH262255   9.369   7.393   5.771
20793TIP3    H162256   9.306   7.439   5.831
20793TIP3    H262257   9.387   7.464   5.706
20794TIP3   OH262258  10.376   6.793   5.824
20794TIP3    H162259  10.382   6.796   5.728
20794TIP3    H262260  10.464   6.827   5.849
20795TIP3   OH262261  10.088   6.972   5.930
20795TIP3    H162262  10.141   7.044   5.891
20795TIP3    H262263  10.045   7.019   6.004
20796TIP3   OH262264  10.239   6.665   6.033
20796TIP3    H162265  10.265   6.739   6.092
20796TIP3    H262266  10.295   6.691   5.956
20797TIP3   OH262267   9.753   6.675   5.823
20797TIP3    H162268   9.751   6.768   5.855
20797TIP3    H262269   9.849   6.657   5.833
20798TIP3   OH262270   9.366   7.603   5.579
20798TIP3    H162271   9.431   7.674   5.585
20798TIP3    H262272   9.411   7.546   5.513
20799TIP3   OH262273   9.315   6.877   5.708
20799TIP3    H162274   9.310   6.975   5.707
20799TIP3    H262275   9.230   6.852   5.670
20800TIP3   OH262276   9.742   6.589   6.641
20800TIP3    H162277   9.705   6.671   6.679
20800TIP3    H262278   9.661   6.549   6.578
20801TIP3   OH262279   9.235   7.801   5.980
20801TIP3    H162280   9.163   7.850   6.021
20801TIP3    H262281   9.244   7.853   5.898
20802TIP3   OH262282   9.861   7.899   5.218
20802TIP3    H162283   9.808   7.823   5.250
20802TIP3    H262284   9.934   7.855   5.172
20803TIP3   OH262285   9.505   7.417   5.434
20803TIP3    H162286   9.559   7.380   5.506
20803TIP3    H262287   9.572   7.418   5.361
20804TIP3   OH262288  10.015   7.609   5.243
20804TIP3    H162289   9.974   7.625   5.328
20804TIP3    H262290  10.013   7.511   5.239
20805TIP3   OH262291   9.707   7.319   5.656
20805TIP3    H162292   9.684   7.289   5.747
20805TIP3    H262293   9.739   7.237   5.614
20806TIP3   OH262294   9.811   7.109   5.494
20806TIP3    H162295   9.782   7.115   5.401
20806TIP3    H262296   9.907   7.121   5.483
20807TIP3   OH262297   3.973   2.530  -0.250
20807TIP3    H162298   4.058   2.500  -0.284
20807TIP3    H262299   3.933   2.568  -0.331
20808TIP3   OH262300   9.098   7.555   5.616
20808TIP3    H162301   9.193   7.577   5.603
20808TIP3    H262302   9.094   7.466   5.575
20809TIP3   OH262303   8.985   8.155   6.039
20809TIP3    H162304   8.916   8.095   6.001
20809TIP3    H262305   8.987   8.122   6.130
20810TIP3   OH262306   9.494   6.781   6.592
20810TIP3    H162307   9.552   6.708   6.585
20810TIP3    H262308   9.554   6.856   6.567
20811TIP3   OH262309   9.291   7.036   6.666
20811TIP3    H162310   9.320   7.026   6.573
20811TIP3    H262311   9.321   7.130   6.678
20812TIP3   OH262312   9.297   6.606   6.179
20812TIP3    H162313   9.203   6.580   6.179
20812TIP3    H262314   9.306   6.648   6.091
20813TIP3   OH262315   9.763   6.556   6.922
20813TIP3    H162316   9.746   6.593   6.826
20813TIP3    H262317   9.687   6.482   6.919
20814TIP3   OH262318   9.588   6.459   6.224
20814TIP3    H162319   9.516   6.407   6.262
20814TIP3    H262320   9.604   6.532   6.296
20815TIP3   OH262321   9.411   6.367   5.982
20815TIP3    H162322   9.432   6.427   5.909
20815TIP3    H262323   9.363   6.426   6.043
20816TIP3   OH262324  10.052   6.528   6.209
20816TIP3    H162325  10.115   6.577   6.154
20816TIP3    H262326  10.051   6.579   6.291
20817TIP3   OH262327   9.117   7.939   5.767
20817TIP3    H162328   9.032   7.909   5.731
20817TIP3    H262329   9.114   8.033   5.740
20818TIP3   OH262330   9.515   6.538   5.746
20818TIP3    H162331   9.562   6.471   5.693
20818TIP3    H262332   9.589   6.587   5.786
20819TIP3   OH262333  10.031   6.711   5.846
20819TIP3    H162334  10.088   6.661   5.907
20819TIP3    H262335  10.048   6.802   5.878
20820TIP3   OH262336   9.193   7.971   5.405
20820TIP3    H162337   9.194   7.996   5.499
20820TIP3    H262338   9.281   7.928   5.393
20821TIP3   OH262339   1.304   7.751   8.525
20821TIP3    H162340   1.294   7.660   8.562
20821TIP3    H262341   1.225   7.750   8.467
20822TIP3   OH262342   1.200   7.523   8.165
20822TIP3    H162343   1.280   7.514   8.219
20822TIP3    H262344   1.238   7.547   8.079
20823TIP3   OH262345   1.430   7.546   8.339
20823TIP3    H162346   1.409   7.473   8.398
20823TIP3    H262347   1.510   7.517   8.293
20824TIP3   OH262348   1.136   8.424   7.891
20824TIP3    H162349   1.079   8.354   7.854
20824TIP3    H262350   1.147   8.394   7.981
20825TIP3   OH262351   1.653   8.112   8.500
20825TIP3    H162352   1.601   8.192   8.511
20825TIP3    H262353   1.703   8.135   8.418
20826TIP3   OH262354   1.145   7.994   7.907
20826TIP3    H162355   1.079   7.991   7.979
20826TIP3    H262356   1.223   7.951   7.948
20827TIP3   OH262357   1.046   7.796   7.727
20827TIP3    H162358   1.040   7.872   7.788
20827TIP3    H262359   1.027   7.840   7.642
20828TIP3   OH262360   1.497   7.079   7.789
20828TIP3    H162361   1.414   7.100   7.836
20828TIP3    H262362   1.509   7.159   7.734
20829TIP3   OH262363   1.295   8.446   7.337
20829TIP3    H162364   1.306   8.542   7.325
20829TIP3    H262365   1.387   8.413   7.322
20830TIP3   OH262366   1.171   7.313   8.996
20830TIP3    H162367   1.244   7.271   9.045
20830TIP3    H262368   1.093   7.285   9.046
20831TIP3   OH262369   1.042   7.903   7.468
20831TIP3    H162370   1.025   7.855   7.384
20831TIP3    H262371   1.135   7.930   7.455
20832TIP3   OH262372   1.100   7.731   8.314
20832TIP3    H162373   1.015   7.749   8.269
20832TIP3    H262374   1.126   7.650   8.263
20833TIP3   OH262375   1.273   7.489   8.599
20833TIP3    H162376   1.239   7.505   8.689
20833TIP3    H262377   1.205   7.427   8.566
20834TIP3   OH262378   0.980   7.367   7.754
20834TIP3    H162379   0.902   7.425   7.750
20834TIP3    H262380   1.048   7.436   7.774
20835TIP3   OH262381   1.128   7.570   7.845
20835TIP3    H162382   1.217   7.605   7.863
20835TIP3    H262383   1.085   7.650   7.806
20836TIP3   OH262384   1.507   7.692   7.705
20836TIP3    H162385   1.457   7.653   7.630
20836TIP3    H262386   1.525   7.780   7.668
20837TIP3   OH262387   1.234   8.514   7.604
20837TIP3    H162388   1.209   8.444   7.667
20837TIP3    H262389   1.251   8.465   7.521
20838TIP3   OH262390   1.319   8.727   7.328
20838TIP3    H162391   1.376   8.792   7.281
20838TIP3    H262392   1.232   8.763   7.304
20839TIP3   OH262393   1.142   8.186   7.706
20839TIP3    H162394   1.129   8.116   7.774
20839TIP3    H262395   1.240   8.181   7.698
20840TIP3   OH262396   1.177   7.541   8.845
20840TIP3    H162397   1.175   7.599   8.924
20840TIP3    H262398   1.167   7.454   8.888
20841TIP3   OH262399   1.076   7.299   8.020
20841TIP3    H162400   1.041   7.336   7.937
20841TIP3    H262401   1.098   7.380   8.069
20842TIP3   OH262402   1.312   7.914   8.309
20842TIP3    H162403   1.227   7.869   8.289
20842TIP3    H262404   1.350   7.849   8.371
20843TIP3   OH262405   1.288   7.980   7.359
20843TIP3    H162406   1.273   7.927   7.278
20843TIP3    H262407   1.265   8.069   7.324
20844TIP3   OH262408   1.421   8.169   7.690
20844TIP3    H162409   1.497   8.224   7.662
20844TIP3    H262410   1.458   8.129   7.773
20845TIP3   OH262411   1.540   8.054   7.903
20845TIP3    H162412   1.491   7.983   7.948
20845TIP3    H262413   1.623   8.058   7.952
20846TIP3   OH262414   1.492   7.942   7.542
20846TIP3    H162415   1.418   7.943   7.478
20846TIP3    H262416   1.464   8.014   7.602
20847TIP3   OH262417   1.361   7.610   7.487
20847TIP3    H162418   1.318   7.644   7.408
20847TIP3    H262419   1.336   7.515   7.483
20848TIP3   OH262420   1.364   7.881   8.036
20848TIP3    H162421   1.377   7.785   8.020
20848TIP3    H262422   1.363   7.888   8.133
20849TIP3   OH262423   1.308   7.342   7.487
20849TIP3    H162424   1.388   7.318   7.537
20849TIP3    H262425   1.242   7.279   7.518
20850TIP3   OH262426   1.385   7.616   7.948
20850TIP3    H162427   1.416   7.524   7.959
20850TIP3    H262428   1.439   7.643   7.870
20851TIP3   OH262429   2.073   7.507   9.240
20851TIP3    H162430   2.105   7.439   9.176
20851TIP3    H262431   2.037   7.573   9.179
20852TIP3   OH262432   1.446   7.358   8.005
20852TIP3    H162433   1.522   7.327   8.058
20852TIP3    H262434   1.399   7.274   7.984
20853TIP3   OH262435   1.929   7.639   9.029
20853TIP3    H162436   1.851   7.649   9.088
20853TIP3    H262437   1.900   7.567   8.970
20854TIP3   OH262438   1.549   7.284   7.611
20854TIP3    H162439   1.598   7.221   7.555
20854TIP3    H262440   1.609   7.362   7.610
20855TIP3   OH262441   1.805   7.411   8.888
20855TIP3    H162442   1.717   7.372   8.868
20855TIP3    H262443   1.858   7.327   8.889
20856TIP3   OH262444   1.070   7.303   8.540
20856TIP3    H162445   1.040   7.222   8.583
20856TIP3    H262446   1.141   7.267   8.481
20857TIP3   OH262447   1.550   7.230   8.439
20857TIP3    H162448   1.589   7.270   8.359
20857TIP3    H262449   1.454   7.227   8.418
20858TIP3   OH262450   1.655   7.332   8.197
20858TIP3    H162451   1.716   7.264   8.159
20858TIP3    H262452   1.698   7.412   8.162
20859TIP3   OH262453   1.279   7.207   8.391
20859TIP3    H162454   1.267   7.172   8.301
20859TIP3    H262455   1.263   7.126   8.445
20860TIP3   OH262456   1.289   7.134   7.964
20860TIP3    H162457   1.206   7.184   7.979
20860TIP3    H262458   1.269   7.049   8.008
20861TIP3   OH262459   1.239   8.779   7.646
20861TIP3    H162460   1.245   8.680   7.641
20861TIP3    H262461   1.246   8.800   7.552
20862TIP3   OH262462   2.755   8.301   7.601
20862TIP3    H162463   2.725   8.391   7.577
20862TIP3    H262464   2.683   8.249   7.560
20863TIP3   OH262465   2.749   8.304   7.982
20863TIP3    H162466   2.785   8.270   8.066
20863TIP3    H262467   2.715   8.223   7.941
20864TIP3   OH262468   2.072   8.219   8.359
20864TIP3    H162469   2.094   8.143   8.417
20864TIP3    H262470   2.151   8.224   8.302
20865TIP3   OH262471   2.997   8.603   7.661
20865TIP3    H162472   2.987   8.530   7.724
20865TIP3    H262473   3.031   8.674   7.717
20866TIP3   OH262474   2.053   8.605   8.095
20866TIP3    H162475   2.030   8.509   8.089
20866TIP3    H262476   2.145   8.601   8.059
20867TIP3   OH262477   1.794   8.093   8.022
20867TIP3    H162478   1.841   8.015   8.060
20867TIP3    H262479   1.843   8.109   7.941
20868TIP3   OH262480   2.657   9.062   7.687
20868TIP3    H162481   2.700   9.000   7.624
20868TIP3    H262482   2.629   8.999   7.755
20869TIP3   OH262483   2.556   8.524   8.032
20869TIP3    H162484   2.589   8.445   7.986
20869TIP3    H262485   2.642   8.569   8.045
20870TIP3   OH262486   3.572   7.872   8.041
20870TIP3    H162487   3.599   7.963   8.068
20870TIP3    H262488   3.585   7.878   7.945
20871TIP3   OH262489   2.961   8.028   8.060
20871TIP3    H162490   3.008   7.945   8.080
20871TIP3    H262491   2.934   8.013   7.968
20872TIP3   OH262492   2.308   7.690   8.027
20872TIP3    H162493   2.277   7.757   7.962
20872TIP3    H262494   2.272   7.608   7.984
20873TIP3   OH262495   2.998   7.779   7.650
20873TIP3    H162496   3.073   7.764   7.712
20873TIP3    H262497   3.046   7.814   7.573
20874TIP3   OH262498   1.927   7.886   8.142
20874TIP3    H162499   2.015   7.854   8.168
20874TIP3    H262500   1.902   7.814   8.078
20875TIP3   OH262501   2.372   8.083   7.935
20875TIP3    H162502   2.467   8.060   7.941
20875TIP3    H262503   2.334   8.000   7.898
20876TIP3   OH262504   2.300   7.669   8.454
20876TIP3    H162505   2.237   7.698   8.384
20876TIP3    H262506   2.246   7.688   8.534
20877TIP3   OH262507   2.645   8.520   7.471
20877TIP3    H162508   2.609   8.498   7.384
20877TIP3    H262509   2.599   8.604   7.491
20878TIP3   OH262510   2.408   8.449   8.256
20878TIP3    H162511   2.346   8.515   8.290
20878TIP3    H262512   2.449   8.495   8.180
20879TIP3   OH262513   3.210   7.779   7.821
20879TIP3    H162514   3.200   7.736   7.906
20879TIP3    H262515   3.260   7.860   7.845
20880TIP3   OH262516   2.168   7.786   8.241
20880TIP3    H162517   2.233   7.856   8.262
20880TIP3    H262518   2.213   7.742   8.165
20881TIP3   OH262519   1.630   8.328   7.587
20881TIP3    H162520   1.591   8.353   7.501
20881TIP3    H262521   1.661   8.414   7.622
20882TIP3   OH262522   3.067   8.838   7.831
20882TIP3    H162523   2.975   8.839   7.865
20882TIP3    H262524   3.068   8.920   7.778
20883TIP3   OH262525   3.361   7.737   8.184
20883TIP3    H162526   3.277   7.780   8.161
20883TIP3    H262527   3.424   7.785   8.126
20884TIP3   OH262528   2.663   7.393   8.180
20884TIP3    H162529   2.645   7.298   8.183
20884TIP3    H262530   2.582   7.428   8.221
20885TIP3   OH262531   2.766   8.895   7.500
20885TIP3    H162532   2.816   8.811   7.481
20885TIP3    H262533   2.829   8.959   7.458
20886TIP3   OH262534   2.908   8.679   7.410
20886TIP3    H162535   2.884   8.598   7.362
20886TIP3    H262536   2.945   8.643   7.493
20887TIP3   OH262537   3.298   8.759   8.174
20887TIP3    H162538   3.287   8.680   8.115
20887TIP3    H262539   3.284   8.831   8.109
20888TIP3   OH262540   2.589   8.157   7.429
20888TIP3    H162541   2.507   8.203   7.403
20888TIP3    H262542   2.631   8.141   7.343
20889TIP3   OH262543   2.545   7.934   7.170
20889TIP3    H162544   2.627   7.980   7.194
20889TIP3    H262545   2.579   7.872   7.103
20890TIP3   OH262546   3.484   8.401   8.013
20890TIP3    H162547   3.398   8.448   8.015
20890TIP3    H262548   3.512   8.414   7.920
20891TIP3   OH262549   2.934   8.239   7.402
20891TIP3    H162550   2.879   8.261   7.480
20891TIP3    H262551   3.017   8.209   7.445
20892TIP3   OH262552   3.165   8.274   8.320
20892TIP3    H162553   3.163   8.357   8.370
20892TIP3    H262554   3.083   8.282   8.268
20893TIP3   OH262555   2.165   8.234   7.817
20893TIP3    H162556   2.121   8.176   7.751
20893TIP3    H262557   2.240   8.178   7.845
20894TIP3   OH262558   2.293   8.615   7.961
20894TIP3    H162559   2.283   8.580   7.870
20894TIP3    H262560   2.387   8.596   7.980
20895TIP3   OH262561   2.295   8.204   8.180
20895TIP3    H162562   2.325   8.177   8.090
20895TIP3    H262563   2.342   8.290   8.192
20896TIP3   OH262564   2.820   8.853   7.950
20896TIP3    H162565   2.820   8.910   8.027
20896TIP3    H262566   2.815   8.764   7.991
20897TIP3   OH262567   2.776   8.092   7.229
20897TIP3    H162568   2.835   8.152   7.279
20897TIP3    H262569   2.801   8.115   7.136
20898TIP3   OH262570   2.515   8.776   7.509
20898TIP3    H162571   2.598   8.827   7.514
20898TIP3    H262572   2.457   8.835   7.459
20899TIP3   OH262573   3.290   7.333   7.275
20899TIP3    H162574   3.209   7.354   7.326
20899TIP3    H262575   3.304   7.416   7.226
20900TIP3   OH262576   2.029   8.076   7.630
20900TIP3    H162577   1.966   8.120   7.568
20900TIP3    H262578   1.992   7.987   7.633
20901TIP3   OH262579   3.089   8.702   6.826
20901TIP3    H162580   3.097   8.798   6.808
20901TIP3    H262581   3.181   8.671   6.810
20902TIP3   OH262582   3.538   9.097   8.204
20902TIP3    H162583   3.542   9.000   8.218
20902TIP3    H262584   3.456   9.119   8.250
20903TIP3   OH262585   2.401   9.017   7.302
20903TIP3    H162586   2.355   8.996   7.219
20903TIP3    H262587   2.366   9.105   7.325
20904TIP3   OH262588   1.830   8.877   7.688
20904TIP3    H162589   1.891   8.845   7.758
20904TIP3    H262590   1.777   8.796   7.673
20905TIP3   OH262591   2.601   8.920   6.944
20905TIP3    H162592   2.659   8.850   6.907
20905TIP3    H262593   2.636   8.928   7.035
20906TIP3   OH262594   2.654   8.968   7.214
20906TIP3    H162595   2.564   8.980   7.253
20906TIP3    H262596   2.700   8.922   7.285
20907TIP3   OH262597   3.417   8.233   8.491
20907TIP3    H162598   3.343   8.242   8.429
20907TIP3    H262599   3.442   8.139   8.477
20908TIP3   OH262600   2.420   7.464   8.301
20908TIP3    H162601   2.331   7.433   8.274
20908TIP3    H262602   2.394   7.549   8.342
20909TIP3   OH262603   2.953   7.582   8.496
20909TIP3    H162604   3.021   7.554   8.560
20909TIP3    H262605   2.869   7.560   8.541
20910TIP3   OH262606   3.190   8.003   8.409
20910TIP3    H162607   3.145   8.005   8.497
20910TIP3    H262608   3.172   8.093   8.374
20911TIP3   OH262609   2.857   8.149   6.978
20911TIP3    H162610   2.817   8.120   6.894
20911TIP3    H262611   2.939   8.192   6.945
20912TIP3   OH262612   2.563   7.511   7.271
20912TIP3    H162613   2.531   7.511   7.363
20912TIP3    H262614   2.522   7.428   7.239
20913TIP3   OH262615   2.350   7.979   8.322
20913TIP3    H162616   2.308   8.005   8.406
20913TIP3    H262617   2.334   8.059   8.268
20914TIP3   OH262618   2.223   7.861   7.834
20914TIP3    H162619   2.129   7.835   7.839
20914TIP3    H262620   2.246   7.823   7.746
20915TIP3   OH262621   2.724   7.955   7.562
20915TIP3    H162622   2.671   8.025   7.519
20915TIP3    H262623   2.778   7.922   7.487
20916TIP3   OH262624   2.916   8.229   8.637
20916TIP3    H162625   2.887   8.158   8.699
20916TIP3    H262626   3.011   8.234   8.659
20917TIP3   OH262627   2.880   7.982   7.800
20917TIP3    H162628   2.822   8.010   7.727
20917TIP3    H262629   2.915   7.900   7.759
20918TIP3   OH262630   2.164   8.018   8.539
20918TIP3    H162631   2.211   8.056   8.615
20918TIP3    H262632   2.155   7.925   8.567
20919TIP3   OH262633   2.218   7.485   7.240
20919TIP3    H162634   2.208   7.485   7.337
20919TIP3    H262635   2.142   7.541   7.213
20920TIP3   OH262636   1.726   7.493   7.613
20920TIP3    H162637   1.781   7.547   7.553
20920TIP3    H262638   1.709   7.556   7.685
20921TIP3   OH262639   2.882   8.227   8.223
20921TIP3    H162640   2.920   8.157   8.165
20921TIP3    H262641   2.861   8.173   8.302
20922TIP3   OH262642   2.561   7.689   7.896
20922TIP3    H162643   2.477   7.687   7.946
20922TIP3    H262644   2.627   7.689   7.967
20923TIP3   OH262645   2.268   7.745   7.590
20923TIP3    H162646   2.361   7.759   7.566
20923TIP3    H262647   2.219   7.767   7.507
20924TIP3   OH262648   3.049   7.766   8.099
20924TIP3    H162649   3.012   7.778   8.189
20924TIP3    H262650   2.984   7.704   8.061
20925TIP3   OH262651   2.106   7.777   7.373
20925TIP3    H162652   2.033   7.732   7.327
20925TIP3    H262653   2.157   7.810   7.296
20926TIP3   OH262654   2.645   8.018   7.992
20926TIP3    H162655   2.715   7.980   7.937
20926TIP3    H262656   2.659   7.972   8.077
20927TIP3   OH262657   2.219   7.485   7.876
20927TIP3    H162658   2.142   7.441   7.916
20927TIP3    H262659   2.206   7.468   7.782
20928TIP3   OH262660   2.621   7.909   8.286
20928TIP3    H162661   2.531   7.946   8.298
20928TIP3    H262662   2.679   7.971   8.335
20929TIP3   OH262663   2.354   8.308   7.376
20929TIP3    H162664   2.284   8.240   7.367
20929TIP3    H262665   2.339   8.338   7.469
20930TIP3   OH262666   3.250   8.549   8.008
20930TIP3    H162667   3.279   8.594   7.925
20930TIP3    H262668   3.168   8.503   7.980
20931TIP3   OH262669   2.816   7.612   7.250
20931TIP3    H162670   2.719   7.599   7.247
20931TIP3    H262671   2.824   7.710   7.252
20932TIP3   OH262672   2.785   8.580   8.348
20932TIP3    H162673   2.789   8.568   8.444
20932TIP3    H262674   2.714   8.645   8.341
20933TIP3   OH262675   2.885   7.866   7.349
20933TIP3    H162676   2.982   7.873   7.357
20933TIP3    H262677   2.862   7.939   7.288
20934TIP3   OH262678   2.055   8.332   8.051
20934TIP3    H162679   2.086   8.306   7.962
20934TIP3    H262680   2.083   8.256   8.103
20935TIP3   OH262681   2.504   8.456   7.201
20935TIP3    H162682   2.456   8.542   7.208
20935TIP3    H262683   2.449   8.399   7.259
20936TIP3   OH262684   2.666   8.339   8.651
20936TIP3    H162685   2.644   8.325   8.557
20936TIP3    H262686   2.761   8.311   8.650
20937TIP3   OH262687   2.948   8.873   8.277
20937TIP3    H162688   2.856   8.889   8.303
20937TIP3    H262689   2.998   8.928   8.338
20938TIP3   OH262690   3.329   7.954   7.178
20938TIP3    H162691   3.267   7.908   7.116
20938TIP3    H262692   3.323   8.043   7.138
20939TIP3   OH262693   3.546   8.819   8.256
20939TIP3    H162694   3.449   8.803   8.246
20939TIP3    H262695   3.576   8.784   8.169
20940TIP3   OH262696   3.029   8.773   7.090
20940TIP3    H162697   3.002   8.700   7.146
20940TIP3    H262698   3.040   8.730   7.003
20941TIP3   OH262699   3.017   8.405   7.926
20941TIP3    H162700   2.926   8.372   7.936
20941TIP3    H262701   3.059   8.327   7.884
20942TIP3   OH262702   2.155   8.630   7.682
20942TIP3    H162703   2.154   8.707   7.622
20942TIP3    H262704   2.060   8.614   7.691
20943TIP3   OH262705   1.714   7.937   7.382
20943TIP3    H162706   1.761   8.020   7.404
20943TIP3    H262707   1.636   7.942   7.443
20944TIP3   OH262708   2.293   8.396   7.627
20944TIP3    H162709   2.256   8.485   7.641
20944TIP3    H262710   2.251   8.345   7.699
20945TIP3   OH262711   2.070   8.859   7.536
20945TIP3    H162712   1.983   8.883   7.573
20945TIP3    H262713   2.112   8.947   7.528
20946TIP3   OH262714   2.825   8.609   8.081
20946TIP3    H162715   2.829   8.589   8.177
20946TIP3    H262716   2.897   8.553   8.048
20947TIP3   OH262717   2.782   8.504   6.990
20947TIP3    H162718   2.835   8.479   7.069
20947TIP3    H262719   2.695   8.471   7.016
20948TIP3   OH262720   3.071   9.126   8.116
20948TIP3    H162721   2.981   9.103   8.141
20948TIP3    H262722   3.059   9.197   8.051
20949TIP3   OH262723   3.122   8.977   6.810
20949TIP3    H162724   3.158   9.046   6.752
20949TIP3    H262725   3.042   9.024   6.842
20950TIP3   OH262726   2.161   7.747   8.679
20950TIP3    H162727   2.089   7.786   8.733
20950TIP3    H262728   2.186   7.671   8.735
20951TIP3   OH262729   2.942   8.443   7.211
20951TIP3    H162730   2.931   8.372   7.277
20951TIP3    H262731   3.039   8.435   7.194
20952TIP3   OH262732   2.147   8.483   6.990
20952TIP3    H162733   2.163   8.391   6.958
20952TIP3    H262734   2.127   8.467   7.084
20953TIP3   OH262735   2.092   8.486   7.264
20953TIP3    H162736   2.168   8.457   7.315
20953TIP3    H262737   2.098   8.584   7.270
20954TIP3   OH262738   1.832   8.180   7.464
20954TIP3    H162739   1.765   8.224   7.520
20954TIP3    H262740   1.847   8.250   7.397
20955TIP3   OH262741   2.972   7.824   8.361
20955TIP3    H162742   3.058   7.859   8.388
20955TIP3    H262743   2.965   7.741   8.411
20956TIP3   OH262744   2.860   7.568   7.522
20956TIP3    H162745   2.842   7.590   7.428
20956TIP3    H262746   2.897   7.652   7.555
20957TIP3   OH262747   2.360   8.686   7.213
20957TIP3    H162748   2.272   8.714   7.245
20957TIP3    H262749   2.375   8.751   7.143
20958TIP3   OH262750   2.550   7.747   7.622
20958TIP3    H162751   2.615   7.818   7.603
20958TIP3    H262752   2.555   7.741   7.720
20959TIP3   OH262753   2.814   8.063   8.431
20959TIP3    H162754   2.848   8.113   8.508
20959TIP3    H262755   2.871   7.983   8.432
20960TIP3   OH262756   2.694   7.475   7.726
20960TIP3    H162757   2.682   7.554   7.783
20960TIP3    H262758   2.754   7.511   7.657
20961TIP3   OH262759   2.103   8.760   7.276
20961TIP3    H162760   2.074   8.829   7.212
20961TIP3    H262761   2.085   8.803   7.362
20962TIP3   OH262762   2.203   7.473   7.519
20962TIP3    H162763   2.199   7.565   7.551
20962TIP3    H262764   2.299   7.457   7.526
20963TIP3   OH262765   3.463   7.973   8.410
20963TIP3    H162766   3.365   7.961   8.407
20963TIP3    H262767   3.484   7.982   8.316
20964TIP3   OH262768   3.107   8.165   7.803
20964TIP3    H162769   3.033   8.102   7.811
20964TIP3    H262770   3.180   8.116   7.847
20965TIP3   OH262771   1.820   8.392   7.270
20965TIP3    H162772   1.891   8.459   7.277
20965TIP3    H262773   1.863   8.334   7.203
20966TIP3   OH262774   1.776   7.668   7.390
20966TIP3    H162775   1.767   7.765   7.391
20966TIP3    H262776   1.685   7.638   7.388
20967TIP3   OH262777   3.084   9.092   7.725
20967TIP3    H162778   3.039   9.146   7.657
20967TIP3    H262779   3.177   9.119   7.709
20968TIP3   OH262780   2.157   7.384   8.279
20968TIP3    H162781   2.126   7.359   8.189
20968TIP3    H262782   2.140   7.303   8.330
20969TIP3   OH262783   1.700   8.619   7.662
20969TIP3    H162784   1.618   8.635   7.709
20969TIP3    H262785   1.675   8.650   7.572
20970TIP3   OH262786   2.313   8.685   6.904
20970TIP3    H162787   2.256   8.613   6.941
20970TIP3    H262788   2.387   8.633   6.869
20971TIP3   OH262789   2.748   8.728   6.814
20971TIP3    H162790   2.791   8.661   6.871
20971TIP3    H262791   2.803   8.726   6.733
20972TIP3   OH262792   1.955   8.204   7.123
20972TIP3    H162793   2.010   8.167   7.194
20972TIP3    H262794   2.021   8.208   7.050
20973TIP3   OH262795   2.466   8.402   6.931
20973TIP3    H162796   2.469   8.414   7.028
20973TIP3    H262797   2.471   8.303   6.926
20974TIP3   OH262798   3.090   8.636   8.306
20974TIP3    H162799   3.162   8.682   8.258
20974TIP3    H262800   3.017   8.698   8.291
20975TIP3   OH262801   2.167   8.105   7.345
20975TIP3    H162802   2.140   8.057   7.425
20975TIP3    H262803   2.204   8.032   7.290
20976TIP3   OH262804   2.429   8.155   8.555
20976TIP3    H162805   2.390   8.235   8.593
20976TIP3    H262806   2.489   8.194   8.488
20977TIP3   OH262807   2.265   7.900   7.186
20977TIP3    H162808   2.241   7.901   7.091
20977TIP3    H262809   2.363   7.905   7.181
20978TIP3   OH262810   2.967   8.584   8.702
20978TIP3    H162811   3.030   8.550   8.637
20978TIP3    H262812   2.961   8.510   8.765
20979TIP3   OH262813   3.090   8.231   6.845
20979TIP3    H162814   3.063   8.183   6.765
20979TIP3    H262815   3.057   8.321   6.821
20980TIP3   OH262816   2.565   7.950   8.684
20980TIP3    H162817   2.567   7.872   8.624
20980TIP3    H262818   2.519   8.017   8.629
20981TIP3   OH262819   2.559   7.741   8.502
20981TIP3    H162820   2.588   7.781   8.417
20981TIP3    H262821   2.465   7.719   8.482
20982TIP3   OH262822   2.594   8.292   8.388
20982TIP3    H162823   2.670   8.281   8.329
20982TIP3    H262824   2.536   8.352   8.336
20983TIP3   OH262825   3.179   8.245   8.764
20983TIP3    H162826   3.223   8.159   8.758
20983TIP3    H262827   3.246   8.304   8.726
20984TIP3   OH262828   3.210   8.499   8.499
20984TIP3    H162829   3.154   8.550   8.435
20984TIP3    H262830   3.298   8.512   8.455
20985TIP3   OH262831   2.462   7.999   8.926
20985TIP3    H162832   2.374   8.032   8.899
20985TIP3    H262833   2.497   7.974   8.837
20986TIP3   OH262834   2.692   7.509   8.573
20986TIP3    H162835   2.644   7.591   8.546
20986TIP3    H262836   2.623   7.441   8.557
20987TIP3   OH262837   2.817   8.023   8.780
20987TIP3    H162838   2.819   8.004   8.875
20987TIP3    H262839   2.728   7.991   8.754
20988TIP3   OH262840   3.062   7.967   8.645
20988TIP3    H162841   2.986   7.966   8.707
20988TIP3    H262842   3.134   7.932   8.702
20989TIP3   OH262843   3.286   7.898   8.794
20989TIP3    H162844   3.299   7.802   8.806
20989TIP3    H262845   3.285   7.930   8.886
20990TIP3   OH262846   2.236   7.839   9.011
20990TIP3    H162847   2.268   7.769   8.952
20990TIP3    H262848   2.307   7.838   9.078
20991TIP3   OH262849   2.779   7.512   8.830
20991TIP3    H162850   2.851   7.445   8.824
20991TIP3    H262851   2.743   7.509   8.739
20992TIP3   OH262852   2.862   7.718   8.985
20992TIP3    H162853   2.830   7.651   8.921
20992TIP3    H262854   2.791   7.786   8.983
20993TIP3   OH262855   2.071   8.960   7.088
20993TIP3    H162856   2.167   8.960   7.070
20993TIP3    H262857   2.040   9.011   7.011
20994TIP3   OH262858   1.552   8.344   7.307
20994TIP3    H162859   1.647   8.366   7.293
20994TIP3    H262860   1.548   8.255   7.266
20995TIP3   OH262861   3.325   9.210   7.700
20995TIP3    H162862   3.349   9.235   7.792
20995TIP3    H262863   3.393   9.256   7.649
20996TIP3   OH262864   3.369   9.220   7.972
20996TIP3    H162865   3.331   9.130   7.978
20996TIP3    H262866   3.440   9.214   8.035
20997TIP3   OH262867   3.385   8.901   8.544
20997TIP3    H162868   3.293   8.882   8.566
20997TIP3    H262869   3.376   8.978   8.486
20998TIP3   OH262870   3.222   8.417   7.182
20998TIP3    H162871   3.291   8.481   7.153
20998TIP3    H262872   3.265   8.377   7.261
20999TIP3   OH262873   3.350   8.285   7.385
20999TIP3    H162874   3.284   8.242   7.444
20999TIP3    H262875   3.414   8.323   7.449
21000TIP3   OH262876   3.398   8.677   7.815
21000TIP3    H162877   3.458   8.612   7.771
21000TIP3    H262878   3.396   8.750   7.749
21001TIP3   OH262879   3.252   8.965   8.003
21001TIP3    H162880   3.184   9.016   8.052
21001TIP3    H262881   3.198   8.917   7.937
21002TIP3   OH262882   3.287   8.193   7.031
21002TIP3    H162883   3.216   8.196   6.963
21002TIP3    H262884   3.260   8.269   7.086
21003TIP3   OH262885   3.164   7.863   6.982
21003TIP3    H162886   3.111   7.907   6.915
21003TIP3    H262887   3.135   7.770   6.971
21004TIP3   OH262888   3.163   8.141   7.531
21004TIP3    H162889   3.171   8.044   7.526
21004TIP3    H262890   3.151   8.156   7.628
21005TIP3   OH262891   1.796   8.188   8.286
21005TIP3    H162892   1.785   8.177   8.189
21005TIP3    H262893   1.891   8.213   8.291
21006TIP3   OH262894   3.450   8.563   8.381
21006TIP3    H162895   3.521   8.494   8.380
21006TIP3    H262896   3.477   8.620   8.309
21007TIP3   OH262897   3.637   8.380   8.436
21007TIP3    H162898   3.563   8.318   8.449
21007TIP3    H262899   3.712   8.317   8.438
21008TIP3   OH262900   3.105   7.596   6.967
21008TIP3    H162901   3.174   7.568   7.030
21008TIP3    H262902   3.026   7.545   6.994
21009TIP3   OH262903   3.162   7.859   7.428
21009TIP3    H162904   3.202   7.770   7.443
21009TIP3    H262905   3.218   7.891   7.356
21010TIP3   OH262906   3.317   8.024   7.912
21010TIP3    H162907   3.401   8.056   7.873
21010TIP3    H262908   3.327   8.064   8.002
21011TIP3   OH262909   3.360   8.163   8.144
21011TIP3    H162910   3.300   8.220   8.195
21011TIP3    H262911   3.434   8.223   8.122
21012TIP3   OH262912   2.003   7.852   8.877
21012TIP3    H162913   2.092   7.871   8.913
21012TIP3    H262914   1.978   7.776   8.935
21013TIP3   OH262915   3.841   7.766   8.709
21013TIP3    H162916   3.899   7.701   8.664
21013TIP3    H262917   3.811   7.823   8.635
21014TIP3   OH262918   3.270   7.607   7.463
21014TIP3    H162919   3.317   7.591   7.548
21014TIP3    H262920   3.208   7.532   7.462
21015TIP3   OH262921   1.979   7.590   8.349
21015TIP3    H162922   2.033   7.516   8.315
21015TIP3    H262923   2.011   7.661   8.292
21016TIP3   OH262924   1.743   7.853   8.382
21016TIP3    H162925   1.798   7.821   8.307
21016TIP3    H262926   1.772   7.945   8.383
21017TIP3   OH262927   3.711   7.910   8.518
21017TIP3    H162928   3.623   7.952   8.520
21017TIP3    H262929   3.692   7.840   8.453
21018TIP3   OH262930   3.351   7.542   7.100
21018TIP3    H162931   3.390   7.471   7.044
21018TIP3    H262932   3.416   7.614   7.090
21019TIP3   OH262933   2.918   9.076   7.367
21019TIP3    H162934   2.960   9.053   7.281
21019TIP3    H262935   2.979   9.143   7.399
21020TIP3   OH262936   1.985   7.453   8.675
21020TIP3    H162937   1.914   7.451   8.741
21020TIP3    H262938   1.943   7.491   8.597
21021TIP3   OH262939   3.612   7.669   8.395
21021TIP3    H162940   3.523   7.673   8.355
21021TIP3    H262941   3.638   7.576   8.377
21022TIP3   OH262942   2.780   9.151   8.038
21022TIP3    H162943   2.703   9.119   7.989
21022TIP3    H262944   2.834   9.187   7.966
21023TIP3   OH262945   3.012   9.296   7.891
21023TIP3    H162946   3.002   9.358   7.817
21023TIP3    H262947   3.049   9.220   7.841
21024TIP3   OH262948   1.986   8.781   7.887
21024TIP3    H162949   2.017   8.702   7.935
21024TIP3    H262950   2.040   8.851   7.928
21025TIP3   OH262951   2.257   8.897   7.909
21025TIP3    H162952   2.262   8.802   7.888
21025TIP3    H262953   2.200   8.932   7.838
21026TIP3   OH262954   2.818   7.586   8.015
21026TIP3    H162955   2.773   7.515   8.065
21026TIP3    H262956   2.887   7.538   7.967
21027TIP3   OH262957   3.340   7.460   7.916
21027TIP3    H162958   3.377   7.515   7.843
21027TIP3    H262959   3.245   7.484   7.912
21028TIP3   OH262960   3.436   7.564   7.681
21028TIP3    H162961   3.509   7.514   7.640
21028TIP3    H262962   3.467   7.656   7.667
21029TIP3   OH262963   2.067   7.291   8.039
21029TIP3    H162964   1.974   7.264   8.029
21029TIP3    H262965   2.115   7.206   8.025
21030TIP3   OH262966   1.858   7.165   7.669
21030TIP3    H162967   1.889   7.217   7.592
21030TIP3    H262968   1.814   7.234   7.720
21031TIP3   OH262969   2.523   7.312   7.909
21031TIP3    H162970   2.570   7.371   7.848
21031TIP3    H262971   2.512   7.369   7.986
21032TIP3   OH262972   3.056   7.473   7.894
21032TIP3    H162973   3.051   7.439   7.804
21032TIP3    H262974   3.041   7.390   7.947
21033TIP3   OH262975   3.086   7.395   7.455
21033TIP3    H162976   3.000   7.440   7.465
21033TIP3    H262977   3.068   7.310   7.501
21034TIP3   OH262978   1.566   8.729   7.458
21034TIP3    H162979   1.481   8.698   7.423
21034TIP3    H262980   1.563   8.821   7.429
21035TIP3   OH262981   1.970   7.316   7.443
21035TIP3    H162982   2.020   7.260   7.380
21035TIP3    H262983   2.040   7.375   7.478
21036TIP3   OH262984   2.481   7.496   7.538
21036TIP3    H162985   2.540   7.451   7.600
21036TIP3    H262986   2.501   7.590   7.562
21037TIP3   OH262987   2.341   8.922   7.038
21037TIP3    H162988   2.429   8.945   7.001
21037TIP3    H262989   2.318   8.847   6.978
21038TIP3   OH262990   3.058   9.040   7.132
21038TIP3    H162991   3.051   8.942   7.118
21038TIP3    H262992   3.015   9.073   7.050
21039TIP3   OH262993   2.275   7.563   8.911
21039TIP3    H162994   2.241   7.498   8.975
21039TIP3    H262995   2.368   7.570   8.941
21040TIP3   OH262996   2.520   7.580   9.046
21040TIP3    H162997   2.601   7.556   8.997
21040TIP3    H262998   2.510   7.504   9.106
21041TIP3   OH262999   1.645   8.757   7.094
21041TIP3    H163000   1.650   8.788   7.186
21041TIP3    H263001   1.734   8.715   7.081
21042TIP3   OH263002   3.347   7.631   8.825
21042TIP3    H163003   3.368   7.601   8.916
21042TIP3    H263004   3.435   7.627   8.782
21043TIP3   OH263005   4.553   8.559   7.083
21043TIP3    H163006   4.523   8.650   7.062
21043TIP3    H263007   4.476   8.508   7.053
21044TIP3   OH263008   4.552   8.558   7.467
21044TIP3    H163009   4.584   8.527   7.554
21044TIP3    H263010   4.509   8.478   7.432
21045TIP3   OH263011   3.850   8.453   7.827
21045TIP3    H163012   3.877   8.383   7.889
21045TIP3    H263013   3.929   8.509   7.827
21046TIP3   OH263014   4.798   8.858   7.146
21046TIP3    H163015   4.779   8.788   7.210
21046TIP3    H263016   4.821   8.933   7.204
21047TIP3   OH263017   3.822   8.863   7.556
21047TIP3    H163018   3.812   8.766   7.557
21047TIP3    H263019   3.919   8.870   7.553
21048TIP3   OH263020   3.529   8.067   7.340
21048TIP3    H163021   3.479   8.149   7.356
21048TIP3    H263022   3.459   8.011   7.303
21049TIP3   OH263023   3.588   8.353   7.513
21049TIP3    H163024   3.636   8.277   7.553
21049TIP3    H263025   3.647   8.377   7.440
21050TIP3   OH263026   4.445   9.323   7.163
21050TIP3    H163027   4.492   9.251   7.116
21050TIP3    H263028   4.429   9.283   7.250
21051TIP3   OH263029   4.350   8.784   7.513
21051TIP3    H163030   4.385   8.705   7.468
21051TIP3    H263031   4.435   8.827   7.536
21052TIP3   OH263032   4.763   8.287   7.546
21052TIP3    H163033   4.804   8.201   7.568
21052TIP3    H263034   4.731   8.269   7.455
21053TIP3   OH263035   4.101   7.944   7.511
21053TIP3    H163036   4.078   8.017   7.450
21053TIP3    H263037   4.051   7.871   7.469
21054TIP3   OH263038   4.793   8.033   7.134
21054TIP3    H163039   4.866   8.018   7.199
21054TIP3    H263040   4.845   8.070   7.060
21055TIP3   OH263041   3.737   8.150   7.618
21055TIP3    H163042   3.818   8.126   7.668
21055TIP3    H263043   3.747   8.092   7.540
21056TIP3   OH263044   4.175   8.345   7.409
21056TIP3    H163045   4.268   8.317   7.425
21056TIP3    H263046   4.135   8.260   7.380
21057TIP3   OH263047   5.440   8.335   7.683
21057TIP3    H163048   5.348   8.358   7.663
21057TIP3    H263049   5.440   8.329   7.779
21058TIP3   OH263050   4.101   7.923   7.942
21058TIP3    H163051   4.036   7.964   7.882
21058TIP3    H263052   4.055   7.939   8.029
21059TIP3   OH263053   4.448   8.781   6.952
21059TIP3    H163054   4.400   8.755   6.872
21059TIP3    H263055   4.401   8.864   6.975
21060TIP3   OH263056   4.204   8.703   7.742
21060TIP3    H163057   4.139   8.767   7.780
21060TIP3    H263058   4.243   8.755   7.668
21061TIP3   OH263059   5.004   8.038   7.305
21061TIP3    H163060   4.992   7.991   7.389
21061TIP3    H263061   5.058   8.114   7.333
21062TIP3   OH263062   3.968   8.044   7.730
21062TIP3    H163063   4.031   8.115   7.754
21062TIP3    H263064   4.018   8.001   7.657
21063TIP3   OH263065   4.031   8.896   7.840
21063TIP3    H163066   4.004   8.982   7.802
21063TIP3    H263067   3.952   8.878   7.896
21064TIP3   OH263068   3.426   8.585   7.075
21064TIP3    H163069   3.384   8.609   6.990
21064TIP3    H263070   3.455   8.672   7.109
21065TIP3   OH263071   4.867   9.091   7.309
21065TIP3    H163072   4.781   9.083   7.356
21065TIP3    H263073   4.862   9.182   7.279
21066TIP3   OH263074   5.157   8.004   7.679
21066TIP3    H163075   5.067   8.033   7.657
21066TIP3    H263076   5.208   8.031   7.602
21067TIP3   OH263077   4.454   7.648   7.660
21067TIP3    H163078   4.440   7.553   7.677
21067TIP3    H263079   4.376   7.685   7.706
21068TIP3   OH263080   4.571   9.149   6.995
21068TIP3    H163081   4.619   9.066   6.971
21068TIP3    H263082   4.630   9.214   6.949
21069TIP3   OH263083   4.711   8.934   6.894
21069TIP3    H163084   4.665   8.856   6.860
21069TIP3    H263085   4.747   8.899   6.979
21070TIP3   OH263086   5.088   9.025   7.644
21070TIP3    H163087   5.085   8.934   7.606
21070TIP3    H263088   5.031   9.071   7.582
21071TIP3   OH263089   4.383   8.409   6.915
21071TIP3    H163090   4.301   8.459   6.895
21071TIP3    H263091   4.427   8.407   6.829
21072TIP3   OH263092   4.341   8.194   6.631
21072TIP3    H163093   4.409   8.243   6.681
21072TIP3    H263094   4.397   8.129   6.584
21073TIP3   OH263095   5.287   8.657   7.510
21073TIP3    H163096   5.202   8.706   7.512
21073TIP3    H263097   5.309   8.662   7.416
21074TIP3   OH263098   4.730   8.492   6.887
21074TIP3    H163099   4.675   8.517   6.965
21074TIP3    H263100   4.813   8.464   6.932
21075TIP3   OH263101   4.965   8.531   7.801
21075TIP3    H163102   4.960   8.613   7.853
21075TIP3    H263103   4.878   8.534   7.755
21076TIP3   OH263104   3.963   8.489   7.302
21076TIP3    H163105   3.921   8.431   7.235
21076TIP3    H263106   4.040   8.435   7.331
21077TIP3   OH263107   4.094   8.904   7.450
21077TIP3    H163108   4.070   8.858   7.369
21077TIP3    H263109   4.184   8.868   7.468
21078TIP3   OH263110   4.103   8.458   7.659
21078TIP3    H163111   4.133   8.440   7.568
21078TIP3    H263112   4.143   8.546   7.678
21079TIP3   OH263113   4.631   9.097   7.438
21079TIP3    H163114   4.613   9.175   7.493
21079TIP3    H263115   4.612   9.022   7.498
21080TIP3   OH263116   4.235   9.018   7.981
21080TIP3    H163117   4.176   9.080   8.028
21080TIP3    H263118   4.169   8.965   7.932
21081TIP3   OH263119   4.573   8.348   6.714
21081TIP3    H163120   4.631   8.408   6.766
21081TIP3    H263121   4.598   8.373   6.622
21082TIP3   OH263122   3.987   8.575   8.081
21082TIP3    H163123   3.991   8.660   8.129
21082TIP3    H263124   3.893   8.553   8.090
21083TIP3   OH263125   4.316   9.028   6.987
21083TIP3    H163126   4.390   9.086   7.009
21083TIP3    H263127   4.251   9.088   6.948
21084TIP3   OH263128   4.031   9.188   8.073
21084TIP3    H163129   3.994   9.185   7.983
21084TIP3    H263130   3.954   9.160   8.128
21085TIP3   OH263131   5.085   7.590   6.761
21085TIP3    H163132   5.005   7.609   6.813
21085TIP3    H263133   5.098   7.674   6.713
21086TIP3   OH263134   3.830   8.332   7.107
21086TIP3    H163135   3.763   8.377   7.052
21086TIP3    H263136   3.787   8.247   7.123
21087TIP3   OH263137   4.885   8.958   6.309
21087TIP3    H163138   4.892   9.055   6.296
21087TIP3    H263139   4.977   8.929   6.296
21088TIP3   OH263140   3.612   8.711   8.018
21088TIP3    H163141   3.547   8.688   7.948
21088TIP3    H263142   3.643   8.623   8.046
21089TIP3   OH263143   3.464   8.909   7.648
21089TIP3    H163144   3.560   8.899   7.639
21089TIP3    H263145   3.459   8.987   7.707
21090TIP3   OH263146   5.307   9.347   7.669
21090TIP3    H163147   5.326   9.258   7.708
21090TIP3    H263148   5.240   9.379   7.734
21091TIP3   OH263149   4.433   9.146   7.838
21091TIP3    H163150   4.432   9.239   7.872
21091TIP3    H263151   4.361   9.106   7.892
21092TIP3   OH263152   4.197   9.277   6.790
21092TIP3    H163153   4.147   9.255   6.709
21092TIP3    H263154   4.162   9.365   6.814
21093TIP3   OH263155   3.633   9.124   7.174
21093TIP3    H163156   3.679   9.114   7.260
21093TIP3    H263157   3.578   9.043   7.173
21094TIP3   OH263158   4.398   9.178   6.430
21094TIP3    H163159   4.456   9.106   6.395
21094TIP3    H263160   4.430   9.185   6.523
21095TIP3   OH263161   4.448   9.224   6.701
21095TIP3    H163162   4.358   9.235   6.740
21095TIP3    H263163   4.493   9.177   6.773
21096TIP3   OH263164   5.220   8.495   7.976
21096TIP3    H163165   5.137   8.501   7.926
21096TIP3    H263166   5.239   8.400   7.969
21097TIP3   OH263167   3.814   8.899   8.007
21097TIP3    H163168   3.865   8.880   8.088
21097TIP3    H263169   3.742   8.833   8.011
21098TIP3   OH263170   4.215   7.722   7.789
21098TIP3    H163171   4.125   7.692   7.763
21098TIP3    H263172   4.189   7.804   7.835
21099TIP3   OH263173   4.747   7.837   7.983
21099TIP3    H163174   4.815   7.811   8.048
21099TIP3    H263175   4.663   7.817   8.029
21100TIP3   OH263176   4.988   8.265   7.900
21100TIP3    H163177   4.940   8.261   7.986
21100TIP3    H263178   4.962   8.352   7.866
21101TIP3   OH263179   4.647   8.396   6.457
21101TIP3    H163180   4.614   8.370   6.369
21101TIP3    H263181   4.728   8.445   6.433
21102TIP3   OH263182   4.361   7.771   6.760
21102TIP3    H163183   4.328   7.770   6.852
21102TIP3    H263184   4.321   7.688   6.727
21103TIP3   OH263185   4.151   8.236   7.808
21103TIP3    H163186   4.097   8.252   7.888
21103TIP3    H263187   4.131   8.317   7.756
21104TIP3   OH263188   4.029   8.125   7.321
21104TIP3    H163189   3.937   8.098   7.339
21104TIP3    H263190   4.042   8.083   7.233
21105TIP3   OH263191   4.521   8.211   7.049
21105TIP3    H163192   4.467   8.281   7.007
21105TIP3    H263193   4.574   8.179   6.974
21106TIP3   OH263194   4.695   8.490   8.136
21106TIP3    H163195   4.672   8.416   8.197
21106TIP3    H263196   4.790   8.501   8.158
21107TIP3   OH263197   4.679   8.239   7.287
21107TIP3    H163198   4.618   8.267   7.216
21107TIP3    H263199   4.712   8.156   7.246
21108TIP3   OH263200   3.967   8.275   8.007
21108TIP3    H163201   3.985   8.330   8.085
21108TIP3    H263202   3.895   8.218   8.043
21109TIP3   OH263203   4.016   7.744   6.726
21109TIP3    H163204   4.006   7.741   6.823
21109TIP3    H263205   3.937   7.796   6.701
21110TIP3   OH263206   3.557   7.788   7.595
21110TIP3    H163207   3.631   7.821   7.651
21110TIP3    H263208   3.601   7.757   7.515
21111TIP3   OH263209   3.532   7.771   7.115
21111TIP3    H163210   3.575   7.811   7.037
21111TIP3    H263211   3.469   7.843   7.138
21112TIP3   OH263212   4.689   8.487   7.711
21112TIP3    H163213   4.721   8.414   7.652
21112TIP3    H263214   4.660   8.434   7.788
21113TIP3   OH263215   4.356   7.947   7.382
21113TIP3    H163216   4.274   7.945   7.435
21113TIP3    H263217   4.424   7.944   7.452
21114TIP3   OH263218   3.792   8.003   7.389
21114TIP3    H163219   3.697   8.010   7.364
21114TIP3    H263220   3.813   7.910   7.367
21115TIP3   OH263221   4.062   7.996   7.079
21115TIP3    H163222   4.155   8.014   7.057
21115TIP3    H263223   4.013   8.021   6.997
21116TIP3   OH263224   4.848   8.022   7.583
21116TIP3    H163225   4.815   8.034   7.675
21116TIP3    H263226   4.782   7.961   7.547
21117TIP3   OH263227   3.903   8.031   6.859
21117TIP3    H163228   3.829   7.987   6.813
21117TIP3    H263229   3.953   8.066   6.783
21118TIP3   OH263230   5.018   9.712   7.807
21118TIP3    H163231   5.015   9.735   7.712
21118TIP3    H263232   5.104   9.751   7.834
21119TIP3   OH263233   3.976   8.821   8.225
21119TIP3    H163234   4.054   8.854   8.274
21119TIP3    H263235   3.911   8.815   8.298
21120TIP3   OH263236   4.441   8.276   7.482
21120TIP3    H163237   4.512   8.232   7.433
21120TIP3    H263238   4.446   8.233   7.569
21121TIP3   OH263239   3.963   7.761   7.359
21121TIP3    H163240   3.928   7.682   7.406
21121TIP3    H263241   4.013   7.722   7.286
21122TIP3   OH263242   4.418   8.172   7.766
21122TIP3    H163243   4.327   8.204   7.783
21122TIP3    H263244   4.473   8.231   7.821
21123TIP3   OH263245   4.155   8.562   6.865
21123TIP3    H163246   4.082   8.496   6.854
21123TIP3    H263247   4.136   8.595   6.956
21124TIP3   OH263248   5.051   8.798   7.496
21124TIP3    H163249   5.074   8.845   7.413
21124TIP3    H263250   4.967   8.754   7.472
21125TIP3   OH263251   4.611   7.876   6.722
21125TIP3    H163252   4.515   7.858   6.735
21125TIP3    H263253   4.621   7.969   6.750
21126TIP3   OH263254   4.566   8.888   7.860
21126TIP3    H163255   4.571   8.850   7.949
21126TIP3    H263256   4.512   8.967   7.873
21127TIP3   OH263257   4.681   8.120   6.830
21127TIP3    H163258   4.777   8.126   6.847
21127TIP3    H263259   4.662   8.200   6.778
21128TIP3   OH263260   3.849   8.588   7.541
21128TIP3    H163261   3.887   8.554   7.457
21128TIP3    H263262   3.878   8.521   7.605
21129TIP3   OH263263   4.298   8.712   6.686
21129TIP3    H163264   4.251   8.798   6.693
21129TIP3    H263265   4.243   8.656   6.745
21130TIP3   OH263266   3.722   8.499   8.157
21130TIP3    H163267   3.747   8.480   8.249
21130TIP3    H263268   3.676   8.416   8.133
21131TIP3   OH263269   4.450   8.620   8.174
21131TIP3    H163270   4.388   8.558   8.131
21131TIP3    H263271   4.536   8.583   8.145
21132TIP3   OH263272   4.716   9.155   7.752
21132TIP3    H163273   4.621   9.137   7.765
21132TIP3    H263274   4.738   9.199   7.837
21133TIP3   OH263275   5.124   8.210   6.665
21133TIP3    H163276   5.061   8.165   6.604
21133TIP3    H263277   5.120   8.299   6.625
21134TIP3   OH263278   5.339   9.074   7.743
21134TIP3    H163279   5.242   9.064   7.735
21134TIP3    H263280   5.367   9.037   7.656
21135TIP3   OH263281   4.829   9.029   6.576
21135TIP3    H163282   4.797   8.961   6.637
21135TIP3    H263283   4.835   8.982   6.491
21136TIP3   OH263284   4.820   8.660   7.413
21136TIP3    H163285   4.727   8.632   7.426
21136TIP3    H263286   4.856   8.579   7.369
21137TIP3   OH263287   3.946   8.887   7.165
21137TIP3    H163288   3.944   8.969   7.112
21137TIP3    H263289   3.851   8.870   7.176
21138TIP3   OH263290   3.511   8.191   6.871
21138TIP3    H163291   3.555   8.276   6.890
21138TIP3    H263292   3.432   8.198   6.929
21139TIP3   OH263293   4.088   8.655   7.111
21139TIP3    H163294   4.050   8.743   7.128
21139TIP3    H263295   4.049   8.603   7.184
21140TIP3   OH263296   4.215   9.230   7.636
21140TIP3    H163297   4.254   9.303   7.584
21140TIP3    H263298   4.292   9.196   7.684
21141TIP3   OH263299   3.867   9.125   7.019
21141TIP3    H163300   3.780   9.133   7.064
21141TIP3    H263301   3.897   9.219   7.021
21142TIP3   OH263302   4.607   8.867   7.592
21142TIP3    H163303   4.597   8.866   7.690
21142TIP3    H263304   4.681   8.805   7.579
21143TIP3   OH263305   4.578   8.759   6.475
21143TIP3    H163306   4.630   8.734   6.554
21143TIP3    H263307   4.489   8.731   6.502
21144TIP3   OH263308   4.850   9.410   7.658
21144TIP3    H163309   4.793   9.331   7.651
21144TIP3    H263310   4.830   9.457   7.575
21145TIP3   OH263311   4.918   9.234   6.296
21145TIP3    H163312   4.955   9.306   6.243
21145TIP3    H263313   4.838   9.279   6.330
21146TIP3   OH263314   3.966   7.980   8.170
21146TIP3    H163315   3.881   8.030   8.170
21146TIP3    H263316   3.962   7.930   8.252
21147TIP3   OH263317   4.738   8.691   6.690
21147TIP3    H163318   4.727   8.626   6.763
21147TIP3    H263319   4.835   8.690   6.680
21148TIP3   OH263320   3.653   9.092   7.793
21148TIP3    H163321   3.707   9.022   7.833
21148TIP3    H263322   3.677   9.169   7.847
21149TIP3   OH263323   3.948   8.738   6.475
21149TIP3    H163324   3.956   8.646   6.445
21149TIP3    H263325   3.927   8.726   6.570
21150TIP3   OH263326   3.892   8.744   6.746
21150TIP3    H163327   3.959   8.716   6.810
21150TIP3    H263328   3.895   8.842   6.755
21151TIP3   OH263329   3.627   8.438   6.951
21151TIP3    H163330   3.559   8.481   7.008
21151TIP3    H263331   3.639   8.507   6.884
21152TIP3   OH263332   4.775   8.073   7.841
21152TIP3    H163333   4.854   8.113   7.882
21152TIP3    H263334   4.761   7.993   7.896
21153TIP3   OH263335   4.656   7.825   7.006
21153TIP3    H163336   4.642   7.851   6.914
21153TIP3    H263337   4.695   7.906   7.045
21154TIP3   OH263338   4.157   8.943   6.697
21154TIP3    H163339   4.070   8.968   6.733
21154TIP3    H263340   4.170   9.013   6.632
21155TIP3   OH263341   4.345   8.004   7.110
21155TIP3    H163342   4.410   8.076   7.094
21155TIP3    H263343   4.348   7.996   7.208
21156TIP3   OH263344   4.615   8.324   7.918
21156TIP3    H163345   4.633   8.378   7.998
21156TIP3    H263346   4.669   8.245   7.933
21157TIP3   OH263347   4.489   7.731   7.213
21157TIP3    H163348   4.483   7.807   7.274
21157TIP3    H263349   4.550   7.768   7.144
21158TIP3   OH263350   3.901   9.017   6.765
21158TIP3    H163351   3.870   9.085   6.701
21158TIP3    H263352   3.883   9.060   6.851
21159TIP3   OH263353   4.001   7.729   7.002
21159TIP3    H163354   3.996   7.819   7.039
21159TIP3    H263355   4.097   7.712   7.011
21160TIP3   OH263356   5.257   8.231   7.893
21160TIP3    H163357   5.159   8.226   7.901
21160TIP3    H263358   5.270   8.179   7.812
21161TIP3   OH263359   4.907   8.418   7.289
21161TIP3    H163360   4.831   8.359   7.300
21161TIP3    H263361   4.978   8.370   7.337
21162TIP3   OH263362   3.617   8.647   6.760
21162TIP3    H163363   3.681   8.720   6.764
21162TIP3    H263364   3.661   8.592   6.691
21163TIP3   OH263365   3.563   7.921   6.887
21163TIP3    H163366   3.561   8.019   6.885
21163TIP3    H263367   3.475   7.900   6.852
21164TIP3   OH263368   4.902   9.380   7.229
21164TIP3    H163369   4.838   9.429   7.172
21164TIP3    H263370   4.963   9.350   7.161
21165TIP3   OH263371   3.953   7.641   7.763
21165TIP3    H163372   3.918   7.609   7.677
21165TIP3    H263373   3.939   7.563   7.820
21166TIP3   OH263374   3.492   8.866   7.145
21166TIP3    H163375   3.418   8.892   7.202
21166TIP3    H263376   3.462   8.904   7.059
21167TIP3   OH263377   3.679   9.365   8.202
21167TIP3    H163378   3.767   9.339   8.235
21167TIP3    H263379   3.644   9.277   8.180
21168TIP3   OH263380   4.164   9.378   8.229
21168TIP3    H163381   4.240   9.321   8.248
21168TIP3    H263382   4.110   9.317   8.175
21169TIP3   OH263383   4.109   8.943   6.389
21169TIP3    H163384   4.051   8.873   6.428
21169TIP3    H263385   4.182   8.888   6.357
21170TIP3   OH263386   4.764   9.275   7.996
21170TIP3    H163387   4.755   9.202   8.061
21170TIP3    H263388   4.846   9.320   8.025
21171TIP3   OH263389   4.545   8.984   6.301
21171TIP3    H163390   4.586   8.916   6.359
21171TIP3    H263391   4.603   8.982   6.222
21172TIP3   OH263392   3.775   8.788   8.411
21172TIP3    H163393   3.795   8.692   8.405
21172TIP3    H263394   3.688   8.794   8.366
21173TIP3   OH263395   3.756   8.463   6.611
21173TIP3    H163396   3.811   8.428   6.683
21173TIP3    H263397   3.822   8.466   6.538
21174TIP3   OH263398   4.386   8.894   8.187
21174TIP3    H163399   4.339   8.905   8.102
21174TIP3    H263400   4.416   8.800   8.183
21175TIP3   OH263401   4.267   8.659   6.416
21175TIP3    H163402   4.264   8.672   6.513
21175TIP3    H263403   4.262   8.561   6.411
21176TIP3   OH263404   4.879   8.899   7.796
21176TIP3    H163405   4.945   8.955   7.751
21176TIP3    H263406   4.798   8.953   7.787
21177TIP3   OH263407   3.896   8.540   8.394
21177TIP3    H163408   3.960   8.471   8.375
21177TIP3    H263409   3.925   8.571   8.483
21178TIP3   OH263410   3.964   8.363   6.833
21178TIP3    H163411   3.933   8.323   6.916
21178TIP3    H263412   3.996   8.285   6.783
21179TIP3   OH263413   4.237   8.437   8.067
21179TIP3    H163414   4.153   8.486   8.065
21179TIP3    H263415   4.280   8.465   7.983
21180TIP3   OH263416   4.061   8.155   6.672
21180TIP3    H163417   4.033   8.159   6.578
21180TIP3    H263418   4.158   8.164   6.663
21181TIP3   OH263419   4.749   8.830   8.194
21181TIP3    H163420   4.828   8.801   8.147
21181TIP3    H263421   4.743   8.764   8.265
21182TIP3   OH263422   4.885   8.489   6.333
21182TIP3    H163423   4.861   8.441   6.251
21182TIP3    H263424   4.852   8.579   6.310
21183TIP3   OH263425   4.355   8.216   8.186
21183TIP3    H163426   4.349   8.135   8.132
21183TIP3    H263427   4.310   8.282   8.130
21184TIP3   OH263428   4.357   8.001   7.991
21184TIP3    H163429   4.382   8.042   7.906
21184TIP3    H263430   4.262   7.978   7.975
21185TIP3   OH263431   4.386   8.540   7.864
21185TIP3    H163432   4.466   8.543   7.810
21185TIP3    H263433   4.328   8.605   7.819
21186TIP3   OH263434   4.963   8.503   8.246
21186TIP3    H163435   5.009   8.420   8.264
21186TIP3    H263436   5.037   8.561   8.221
21187TIP3   OH263437   5.007   8.759   7.987
21187TIP3    H163438   4.950   8.811   7.925
21187TIP3    H263439   5.095   8.775   7.945
21188TIP3   OH263440   4.233   8.329   8.416
21188TIP3    H163441   4.166   8.259   8.428
21188TIP3    H263442   4.267   8.307   8.327
21189TIP3   OH263443   4.487   7.766   8.061
21189TIP3    H163444   4.439   7.849   8.037
21189TIP3    H263445   4.417   7.699   8.048
21190TIP3   OH263446   4.614   8.272   8.276
21190TIP3    H163447   4.603   8.260   8.372
21190TIP3    H263448   4.524   8.246   8.245
21191TIP3   OH263449   4.851   8.217   8.128
21191TIP3    H163450   4.777   8.220   8.191
21191TIP3    H263451   4.925   8.187   8.185
21192TIP3   OH263452   5.078   8.156   8.276
21192TIP3    H163453   5.094   8.061   8.296
21192TIP3    H263454   5.075   8.196   8.366
21193TIP3   OH263455   4.079   8.107   8.463
21193TIP3    H163456   4.080   8.018   8.424
21193TIP3    H263457   4.107   8.088   8.555
21194TIP3   OH263458   4.582   7.773   8.318
21194TIP3    H163459   4.650   7.704   8.309
21194TIP3    H263460   4.541   7.770   8.229
21195TIP3   OH263461   4.646   7.987   8.479
21195TIP3    H163462   4.623   7.918   8.413
21195TIP3    H263463   4.569   8.048   8.471
21196TIP3   OH263464   3.869   9.220   6.578
21196TIP3    H163465   3.964   9.218   6.555
21196TIP3    H263466   3.834   9.266   6.500
21197TIP3   OH263467   3.348   8.600   6.795
21197TIP3    H163468   3.443   8.621   6.779
21197TIP3    H263469   3.341   8.512   6.752
21198TIP3   OH263470   3.258   9.214   7.209
21198TIP3    H163471   3.194   9.150   7.172
21198TIP3    H263472   3.306   9.156   7.273
21199TIP3   OH263473   3.397   9.065   7.394
21199TIP3    H163474   3.388   8.991   7.455
21199TIP3    H263475   3.448   9.127   7.450
21200TIP3   OH263476   5.192   9.161   8.040
21200TIP3    H163477   5.123   9.163   8.109
21200TIP3    H263478   5.242   9.243   8.059
21201TIP3   OH263479   5.019   8.674   6.669
21201TIP3    H163480   5.088   8.737   6.641
21201TIP3    H263481   5.060   8.634   6.749
21202TIP3   OH263482   5.145   8.543   6.874
21202TIP3    H163483   5.080   8.499   6.932
21202TIP3    H263484   5.210   8.579   6.938
21203TIP3   OH263485   5.201   8.936   7.306
21203TIP3    H163486   5.256   8.867   7.263
21203TIP3    H263487   5.179   8.995   7.232
21204TIP3   OH263488   5.084   8.450   6.518
21204TIP3    H163489   5.012   8.453   6.451
21204TIP3    H263490   5.056   8.525   6.574
21205TIP3   OH263491   4.955   8.122   6.471
21205TIP3    H163492   4.909   8.160   6.395
21205TIP3    H263493   4.931   8.028   6.462
21206TIP3   OH263494   4.960   8.397   7.018
21206TIP3    H163495   4.968   8.301   7.014
21206TIP3    H263496   4.947   8.413   7.114
21207TIP3   OH263497   3.585   8.486   7.758
21207TIP3    H163498   3.584   8.445   7.669
21207TIP3    H263499   3.681   8.478   7.780
21208TIP3   OH263500   5.249   8.824   7.871
21208TIP3    H163501   5.318   8.754   7.867
21208TIP3    H263502   5.284   8.890   7.810
21209TIP3   OH263503   5.436   8.633   7.894
21209TIP3    H163504   5.361   8.579   7.927
21209TIP3    H263505   5.509   8.569   7.911
21210TIP3   OH263506   4.899   7.856   6.457
21210TIP3    H163507   4.974   7.827   6.512
21210TIP3    H263508   4.826   7.798   6.485
21211TIP3   OH263509   4.955   8.114   6.913
21211TIP3    H163510   4.995   8.026   6.929
21211TIP3    H263511   5.014   8.146   6.843
21212TIP3   OH263512   5.119   8.283   7.408
21212TIP3    H163513   5.201   8.317   7.366
21212TIP3    H263514   5.132   8.321   7.498
21213TIP3   OH263515   5.178   8.431   7.637
21213TIP3    H163516   5.104   8.468   7.689
21213TIP3    H263517   5.218   8.512   7.599
21214TIP3   OH263518   3.819   8.184   8.495
21214TIP3    H163519   3.907   8.161   8.459
21214TIP3    H263520   3.777   8.096   8.496
21215TIP3   OH263521   5.634   8.021   8.195
21215TIP3    H163522   5.694   7.956   8.152
21215TIP3    H263523   5.610   8.078   8.119
21216TIP3   OH263524   5.064   7.864   6.950
21216TIP3    H163525   5.113   7.848   7.033
21216TIP3    H263526   5.004   7.787   6.949
21217TIP3   OH263527   3.766   7.848   7.766
21217TIP3    H163528   3.831   7.777   7.780
21217TIP3    H263529   3.824   7.926   7.767
21218TIP3   OH263530   3.556   8.128   7.836
21218TIP3    H163531   3.617   8.137   7.760
21218TIP3    H263532   3.605   8.171   7.908
21219TIP3   OH263533   5.512   8.168   8.001
21219TIP3    H163534   5.423   8.202   8.020
21219TIP3    H263535   5.489   8.092   7.943
21220TIP3   OH263536   5.145   7.801   6.581
21220TIP3    H163537   5.187   7.727   6.533
21220TIP3    H263538   5.214   7.870   6.578
21221TIP3   OH263539   3.551   7.625   7.342
21221TIP3    H163540   3.458   7.625   7.371
21221TIP3    H263541   3.548   7.685   7.265
21222TIP3   OH263542   4.716   9.328   6.852
21222TIP3    H163543   4.763   9.312   6.767
21222TIP3    H263544   4.762   9.406   6.885
21223TIP3   OH263545   3.766   7.698   8.155
21223TIP3    H163546   3.721   7.702   8.241
21223TIP3    H263547   3.708   7.757   8.102
21224TIP3   OH263548   3.819   9.127   8.247
21224TIP3    H163549   3.731   9.093   8.224
21224TIP3    H263550   3.819   9.109   8.344
21225TIP3   OH263551   3.990   9.167   7.787
21225TIP3    H163552   3.939   9.241   7.748
21225TIP3    H263553   4.074   9.182   7.739
21226TIP3   OH263554   4.437   9.410   7.924
21226TIP3    H163555   4.480   9.412   8.012
21226TIP3    H263556   4.501   9.460   7.870
21227TIP3   OH263557   4.613   9.560   7.777
21227TIP3    H163558   4.685   9.506   7.742
21227TIP3    H263559   4.662   9.622   7.836
21228TIP3   OH263560   5.403   7.927   7.897
21228TIP3    H163561   5.326   7.932   7.838
21228TIP3    H263562   5.447   7.846   7.863
21229TIP3   OH263563   3.675   9.405   7.791
21229TIP3    H163564   3.581   9.426   7.772
21229TIP3    H263565   3.682   9.459   7.873
21230TIP3   OH263566   3.911   9.404   7.660
21230TIP3    H163567   3.824   9.409   7.706
21230TIP3    H263568   3.887   9.437   7.571
21231TIP3   OH263569   4.327   9.431   7.463
21231TIP3    H163570   4.257   9.449   7.397
21231TIP3    H263571   4.337   9.519   7.504
21232TIP3   OH263572   4.596   9.381   7.503
21232TIP3    H163573   4.499   9.382   7.491
21232TIP3    H263574   4.619   9.468   7.470
21233TIP3   OH263575   4.841   9.571   7.427
21233TIP3    H163576   4.808   9.652   7.382
21233TIP3    H263577   4.845   9.507   7.353
21234TIP3   OH263578   3.575   9.219   7.551
21234TIP3    H163579   3.602   9.194   7.642
21234TIP3    H263580   3.647   9.174   7.501
21235TIP3   OH263581   3.770   9.090   7.409
21235TIP3    H163582   3.785   9.006   7.458
21235TIP3    H263583   3.861   9.126   7.405
21236TIP3   OH263584   4.038   9.185   7.409
21236TIP3    H163585   4.067   9.092   7.399
21236TIP3    H263586   4.079   9.205   7.495
21237TIP3   OH263587   4.611   7.840   7.496
21237TIP3    H163588   4.569   7.771   7.550
21237TIP3    H263589   4.685   7.792   7.454
21238TIP3   OH263590   5.135   7.718   7.401
21238TIP3    H163591   5.173   7.772   7.328
21238TIP3    H263592   5.040   7.741   7.396
21239TIP3   OH263593   5.230   7.823   7.166
21239TIP3    H163594   5.305   7.771   7.130
21239TIP3    H263595   5.266   7.914   7.155
21240TIP3   OH263596   3.862   7.550   7.514
21240TIP3    H163597   3.769   7.517   7.515
21240TIP3    H263598   3.911   7.465   7.511
21241TIP3   OH263599   3.650   7.419   7.164
21241TIP3    H163600   3.677   7.477   7.091
21241TIP3    H263601   3.617   7.483   7.230
21242TIP3   OH263602   4.305   7.581   7.395
21242TIP3    H163603   4.364   7.632   7.337
21242TIP3    H263604   4.324   7.619   7.482
21243TIP3   OH263605   4.850   7.729   7.380
21243TIP3    H163606   4.851   7.691   7.291
21243TIP3    H263607   4.838   7.648   7.436
21244TIP3   OH263608   4.882   7.651   6.941
21244TIP3    H163609   4.795   7.694   6.955
21244TIP3    H263610   4.867   7.566   6.988
21245TIP3   OH263611   3.365   8.990   6.942
21245TIP3    H163612   3.280   8.956   6.908
21245TIP3    H263613   3.353   9.084   6.920
21246TIP3   OH263614   3.764   7.579   6.926
21246TIP3    H163615   3.814   7.517   6.870
21246TIP3    H263616   3.836   7.634   6.964
21247TIP3   OH263617   4.279   7.754   7.024
21247TIP3    H163618   4.337   7.708   7.087
21247TIP3    H263619   4.297   7.847   7.050
21248TIP3   OH263620   4.137   9.179   6.524
21248TIP3    H163621   4.225   9.202   6.487
21248TIP3    H263622   4.114   9.104   6.465
21249TIP3   OH263623   4.857   9.297   6.616
21249TIP3    H163624   4.849   9.199   6.603
21249TIP3    H263625   4.810   9.330   6.537
21250TIP3   OH263626   4.066   7.824   8.410
21250TIP3    H163627   4.036   7.754   8.471
21250TIP3    H263628   4.161   7.830   8.435
21251TIP3   OH263629   4.317   7.829   8.526
21251TIP3    H163630   4.401   7.804   8.484
21251TIP3    H263631   4.305   7.756   8.591
21252TIP3   OH263632   3.444   9.019   6.582
21252TIP3    H163633   3.442   9.040   6.677
21252TIP3    H263634   3.531   8.975   6.571
21253TIP3   OH263635   5.142   7.887   8.314
21253TIP3    H163636   5.166   7.857   8.404
21253TIP3    H263637   5.229   7.887   8.268
21254TIP3   OH263638   5.086   9.446   7.795
21254TIP3    H163639   5.000   9.414   7.759
21254TIP3    H263640   5.063   9.539   7.812
21255TIP3   OH263641   6.326   8.805   6.941
21255TIP3    H163642   6.354   8.791   7.034
21255TIP3    H263643   6.290   8.715   6.924
21256TIP3   OH263644   5.644   8.709   7.319
21256TIP3    H163645   5.671   8.636   7.378
21256TIP3    H263646   5.725   8.761   7.317
21257TIP3   OH263647   5.615   9.120   7.047
21257TIP3    H163648   5.607   9.022   7.046
21257TIP3    H263649   5.712   9.128   7.044
21258TIP3   OH263650   5.326   8.326   6.826
21258TIP3    H163651   5.274   8.407   6.842
21258TIP3    H263652   5.256   8.267   6.793
21259TIP3   OH263653   5.385   8.609   7.001
21259TIP3    H163654   5.429   8.531   7.042
21259TIP3    H263655   5.442   8.625   6.925
21260TIP3   OH263656   6.254   9.549   6.639
21260TIP3    H163657   6.326   9.487   6.656
21260TIP3    H263658   6.215   9.557   6.727
21261TIP3   OH263659   6.160   9.039   6.961
21261TIP3    H163660   6.169   8.945   6.986
21261TIP3    H263661   6.230   9.080   7.017
21262TIP3   OH263662   7.159   8.359   6.990
21262TIP3    H163663   7.192   8.441   7.033
21262TIP3    H263664   7.188   8.373   6.898
21263TIP3   OH263665   6.576   8.556   7.026
21263TIP3    H163666   6.608   8.469   7.057
21263TIP3    H263667   6.529   8.529   6.945
21264TIP3   OH263668   5.906   8.197   6.990
21264TIP3    H163669   5.873   8.271   6.936
21264TIP3    H263670   5.852   8.123   6.954
21265TIP3   OH263671   6.591   8.291   6.619
21265TIP3    H163672   6.662   8.273   6.684
21265TIP3    H263673   6.644   8.324   6.545
21266TIP3   OH263674   5.529   8.401   7.103
21266TIP3    H163675   5.611   8.380   7.152
21266TIP3    H263676   5.545   8.347   7.023
21267TIP3   OH263677   5.971   8.602   6.896
21267TIP3    H163678   6.062   8.570   6.914
21267TIP3    H263679   5.927   8.519   6.867
21268TIP3   OH263680   7.213   8.564   7.176
21268TIP3    H163681   7.123   8.592   7.151
21268TIP3    H263682   7.196   8.528   7.265
21269TIP3   OH263683   5.891   8.191   7.426
21269TIP3    H163684   5.811   8.186   7.370
21269TIP3    H263685   5.845   8.184   7.511
21270TIP3   OH263686   6.002   8.964   7.224
21270TIP3    H163687   5.930   9.010   7.272
21270TIP3    H263688   6.039   9.038   7.175
21271TIP3   OH263689   6.799   8.294   6.791
21271TIP3    H163690   6.792   8.238   6.869
21271TIP3    H263691   6.858   8.365   6.820
21272TIP3   OH263692   5.766   8.317   7.198
21272TIP3    H163693   5.837   8.367   7.242
21272TIP3    H263694   5.817   8.257   7.140
21273TIP3   OH263695   5.824   9.150   7.326
21273TIP3    H163696   5.797   9.237   7.290
21273TIP3    H263697   5.747   9.133   7.385
21274TIP3   OH263698   5.223   8.842   6.562
21274TIP3    H163699   5.179   8.867   6.478
21274TIP3    H263700   5.250   8.929   6.597
21275TIP3   OH263701   6.953   8.272   7.167
21275TIP3    H163702   6.863   8.290   7.136
21275TIP3    H263703   7.009   8.293   7.089
21276TIP3   OH263704   6.252   7.904   7.147
21276TIP3    H163705   6.237   7.809   7.167
21276TIP3    H263706   6.175   7.943   7.194
21277TIP3   OH263707   6.517   9.210   6.366
21277TIP3    H163708   6.493   9.126   6.322
21277TIP3    H263709   6.534   9.180   6.458
21278TIP3   OH263710   6.187   8.668   6.398
21278TIP3    H163711   6.105   8.720   6.384
21278TIP3    H263712   6.223   8.663   6.309
21279TIP3   OH263713   6.138   8.450   6.119
21279TIP3    H163714   6.208   8.498   6.166
21279TIP3    H263715   6.192   8.384   6.071
21280TIP3   OH263716   7.071   8.897   6.975
21280TIP3    H163717   7.020   8.979   6.985
21280TIP3    H263718   7.121   8.919   6.893
21281TIP3   OH263719   6.523   8.752   6.373
21281TIP3    H163720   6.463   8.743   6.449
21281TIP3    H263721   6.608   8.722   6.412
21282TIP3   OH263722   6.701   8.832   7.222
21282TIP3    H163723   6.738   8.856   7.309
21282TIP3    H263724   6.606   8.840   7.238
21283TIP3   OH263725   5.761   8.748   6.787
21283TIP3    H163726   5.717   8.689   6.722
21283TIP3    H263727   5.835   8.691   6.817
21284TIP3   OH263728   5.889   9.159   6.937
21284TIP3    H163729   5.861   9.112   6.857
21284TIP3    H263730   5.981   9.128   6.947
21285TIP3   OH263731   5.895   8.717   7.146
21285TIP3    H163732   5.925   8.694   7.056
21285TIP3    H263733   5.939   8.802   7.164
21286TIP3   OH263734   6.351   9.363   6.935
21286TIP3    H163735   6.402   9.443   6.958
21286TIP3    H263736   6.420   9.296   6.932
21287TIP3   OH263737   6.030   9.275   7.460
21287TIP3    H163738   5.971   9.334   7.511
21287TIP3    H263739   5.965   9.216   7.418
21288TIP3   OH263740   6.370   8.603   6.196
21288TIP3    H163741   6.428   8.665   6.246
21288TIP3    H263742   6.394   8.628   6.103
21289TIP3   OH263743   5.785   8.837   7.561
21289TIP3    H163744   5.788   8.918   7.616
21289TIP3    H263745   5.693   8.809   7.576
21290TIP3   OH263746   6.134   9.321   6.479
21290TIP3    H163747   6.140   9.398   6.536
21290TIP3    H263748   6.063   9.345   6.418
21291TIP3   OH263749   5.828   9.435   7.563
21291TIP3    H163750   5.792   9.439   7.473
21291TIP3    H263751   5.748   9.422   7.617
21292TIP3   OH263752   6.883   7.847   6.249
21292TIP3    H163753   6.801   7.865   6.300
21292TIP3    H263754   6.893   7.930   6.198
21293TIP3   OH263755   5.625   8.591   6.596
21293TIP3    H163756   5.556   8.631   6.539
21293TIP3    H263757   5.588   8.503   6.612
21294TIP3   OH263758   6.683   9.219   5.812
21294TIP3    H163759   6.692   9.313   5.783
21294TIP3    H263760   6.773   9.185   5.791
21295TIP3   OH263761   5.407   8.973   7.501
21295TIP3    H163762   5.342   8.944   7.434
21295TIP3    H263763   5.445   8.887   7.531
21296TIP3   OH263764   5.269   9.179   7.135
21296TIP3    H163765   5.344   9.125   7.107
21296TIP3    H263766   5.313   9.251   7.183
21297TIP3   OH263767   6.215   9.412   7.319
21297TIP3    H163768   6.230   9.482   7.386
21297TIP3    H263769   6.147   9.359   7.368
21298TIP3   OH263770   6.003   9.539   6.273
21298TIP3    H163771   5.953   9.513   6.194
21298TIP3    H263772   5.963   9.624   6.298
21299TIP3   OH263773   5.430   9.380   6.660
21299TIP3    H163774   5.475   9.370   6.747
21299TIP3    H263775   5.375   9.300   6.659
21300TIP3   OH263776   6.206   9.433   5.928
21300TIP3    H163777   6.257   9.369   5.873
21300TIP3    H263778   6.211   9.389   6.014
21301TIP3   OH263779   6.929   8.745   7.368
21301TIP3    H163780   6.996   8.816   7.371
21301TIP3    H263781   6.972   8.683   7.430
21302TIP3   OH263782   5.606   9.161   7.494
21302TIP3    H163783   5.662   9.138   7.572
21302TIP3    H263784   5.539   9.090   7.498
21303TIP3   OH263785   6.022   7.991   7.274
21303TIP3    H163786   5.939   7.945   7.246
21303TIP3    H263787   5.983   8.067   7.321
21304TIP3   OH263788   6.543   8.096   7.471
21304TIP3    H163789   6.611   8.066   7.535
21304TIP3    H263790   6.459   8.073   7.516
21305TIP3   OH263791   6.773   8.509   7.383
21305TIP3    H163792   6.722   8.510   7.467
21305TIP3    H263793   6.784   8.604   7.365
21306TIP3   OH263794   6.445   8.662   5.944
21306TIP3    H163795   6.409   8.630   5.859
21306TIP3    H263796   6.530   8.699   5.914
21307TIP3   OH263797   6.157   8.028   6.246
21307TIP3    H163798   6.125   8.026   6.338
21307TIP3    H263799   6.118   7.945   6.213
21308TIP3   OH263800   5.953   8.498   7.301
21308TIP3    H163801   5.892   8.506   7.378
21308TIP3    H263802   5.925   8.575   7.247
21309TIP3   OH263803   5.823   8.385   6.807
21309TIP3    H163804   5.732   8.355   6.828
21309TIP3    H263805   5.837   8.341   6.720
21310TIP3   OH263806   6.323   8.477   6.539
21310TIP3    H163807   6.265   8.544   6.495
21310TIP3    H263808   6.370   8.438   6.463
21311TIP3   OH263809   6.482   8.750   7.616
21311TIP3    H163810   6.452   8.674   7.671
21311TIP3    H263811   6.577   8.735   7.615
21312TIP3   OH263812   6.479   8.496   6.768
21312TIP3    H163813   6.412   8.509   6.698
21312TIP3    H263814   6.516   8.412   6.735
21313TIP3   OH263815   5.761   8.523   7.502
21313TIP3    H163816   5.785   8.574   7.580
21313TIP3    H263817   5.744   8.435   7.544
21314TIP3   OH263818   5.812   8.002   6.212
21314TIP3    H163819   5.804   7.997   6.309
21314TIP3    H263820   5.731   8.052   6.189
21315TIP3   OH263821   5.360   8.046   7.081
21315TIP3    H163822   5.437   8.076   7.131
21315TIP3    H263823   5.399   8.004   7.002
21316TIP3   OH263824   5.327   8.026   6.601
21316TIP3    H163825   5.373   8.066   6.524
21316TIP3    H263826   5.266   8.099   6.624
21317TIP3   OH263827   6.435   8.735   7.182
21317TIP3    H163828   6.492   8.672   7.132
21317TIP3    H263829   6.423   8.681   7.264
21318TIP3   OH263830   6.157   8.216   6.870
21318TIP3    H163831   6.072   8.206   6.919
21318TIP3    H263832   6.221   8.194   6.940
21319TIP3   OH263833   5.590   8.259   6.873
21319TIP3    H163834   5.494   8.263   6.849
21319TIP3    H263835   5.614   8.166   6.853
21320TIP3   OH263836   5.857   8.256   6.567
21320TIP3    H163837   5.951   8.270   6.543
21320TIP3    H263838   5.809   8.277   6.483
21321TIP3   OH263839   6.643   8.282   7.068
21321TIP3    H163840   6.609   8.291   7.160
21321TIP3    H263841   6.580   8.218   7.033
21322TIP3   OH263842   5.697   8.291   6.346
21322TIP3    H163843   5.624   8.245   6.301
21322TIP3    H263844   5.748   8.324   6.269
21323TIP3   OH263845   5.764   9.081   7.707
21323TIP3    H163846   5.845   9.112   7.752
21323TIP3    H263847   5.704   9.071   7.783
21324TIP3   OH263848   6.242   8.539   6.972
21324TIP3    H163849   6.290   8.469   6.926
21324TIP3    H263850   6.237   8.501   7.063
21325TIP3   OH263851   5.755   8.018   6.844
21325TIP3    H163852   5.716   7.941   6.892
21325TIP3    H263853   5.814   7.973   6.782
21326TIP3   OH263854   6.215   8.443   7.235
21326TIP3    H163855   6.124   8.463   7.266
21326TIP3    H263856   6.271   8.486   7.302
21327TIP3   OH263857   5.952   8.819   6.354
21327TIP3    H163858   5.880   8.753   6.343
21327TIP3    H263859   5.935   8.851   6.446
21328TIP3   OH263860   6.828   9.044   6.967
21328TIP3    H163861   6.886   9.096   6.906
21328TIP3    H263862   6.742   9.068   6.927
21329TIP3   OH263863   6.407   8.132   6.213
21329TIP3    H163864   6.311   8.112   6.223
21329TIP3    H263865   6.414   8.226   6.239
21330TIP3   OH263866   6.337   9.128   7.343
21330TIP3    H163867   6.386   9.103   7.425
21330TIP3    H263868   6.305   9.216   7.366
21331TIP3   OH263869   6.476   8.378   6.321
21331TIP3    H163870   6.573   8.381   6.332
21331TIP3    H263871   6.459   8.454   6.261
21332TIP3   OH263872   5.645   8.847   7.027
21332TIP3    H163873   5.682   8.811   6.944
21332TIP3    H263874   5.672   8.779   7.091
21333TIP3   OH263875   6.091   8.967   6.163
21333TIP3    H163876   6.050   9.055   6.181
21333TIP3    H263877   6.048   8.913   6.232
21334TIP3   OH263878   5.520   8.765   7.642
21334TIP3    H163879   5.543   8.744   7.734
21334TIP3    H263880   5.456   8.695   7.621
21335TIP3   OH263881   6.236   8.868   7.662
21335TIP3    H163882   6.171   8.807   7.621
21335TIP3    H263883   6.320   8.833   7.626
21336TIP3   OH263884   6.488   9.383   7.269
21336TIP3    H163885   6.395   9.383   7.240
21336TIP3    H263886   6.476   9.411   7.362
21337TIP3   OH263887   6.919   8.467   6.153
21337TIP3    H163888   6.856   8.421   6.092
21337TIP3    H263889   6.917   8.555   6.111
21338TIP3   OH263890   6.606   9.273   6.075
21338TIP3    H163891   6.603   9.183   6.110
21338TIP3    H263892   6.627   9.255   5.981
21339TIP3   OH263893   6.590   8.866   6.914
21339TIP3    H163894   6.500   8.831   6.929
21339TIP3    H263895   6.615   8.820   6.831
21340TIP3   OH263896   5.741   9.143   6.650
21340TIP3    H163897   5.739   9.224   6.596
21340TIP3    H263898   5.647   9.123   6.659
21341TIP3   OH263899   5.305   8.449   6.355
21341TIP3    H163900   5.352   8.532   6.377
21341TIP3    H263901   5.228   8.454   6.416
21342TIP3   OH263902   5.894   8.914   6.605
21342TIP3    H163903   5.851   9.001   6.619
21342TIP3    H263904   5.852   8.860   6.674
21343TIP3   OH263905   6.009   9.483   7.123
21343TIP3    H163906   6.047   9.560   7.079
21343TIP3    H263907   6.087   9.450   7.172
21344TIP3   OH263908   5.664   9.382   6.506
21344TIP3    H163909   5.577   9.391   6.550
21344TIP3    H263910   5.696   9.475   6.509
21345TIP3   OH263911   6.402   9.086   7.071
21345TIP3    H163912   6.388   9.097   7.168
21345TIP3    H263913   6.499   9.087   7.070
21346TIP3   OH263914   6.372   9.020   5.965
21346TIP3    H163915   6.423   8.993   6.045
21346TIP3    H263916   6.284   8.985   5.987
21347TIP3   OH263917   6.713   9.493   5.788
21347TIP3    H163918   6.757   9.562   5.734
21347TIP3    H263919   6.633   9.543   5.814
21348TIP3   OH263920   5.736   8.286   7.660
21348TIP3    H163921   5.644   8.262   7.637
21348TIP3    H263922   5.759   8.210   7.717
21349TIP3   OH263923   6.539   8.969   6.192
21349TIP3    H163924   6.523   8.894   6.253
21349TIP3    H263925   6.634   8.954   6.172
21350TIP3   OH263926   5.414   9.355   7.325
21350TIP3    H163927   5.472   9.276   7.331
21350TIP3    H263928   5.480   9.425   7.341
21351TIP3   OH263929   5.742   8.996   5.961
21351TIP3    H163930   5.754   8.904   5.932
21351TIP3    H263931   5.722   8.983   6.056
21352TIP3   OH263932   5.686   9.000   6.233
21352TIP3    H163933   5.757   8.971   6.292
21352TIP3    H263934   5.691   9.098   6.243
21353TIP3   OH263935   5.422   8.693   6.437
21353TIP3    H163936   5.355   8.737   6.494
21353TIP3    H263937   5.435   8.763   6.370
21354TIP3   OH263938   6.565   8.326   7.323
21354TIP3    H163939   6.644   8.369   7.360
21354TIP3    H263940   6.554   8.248   7.381
21355TIP3   OH263941   6.449   8.083   6.494
21355TIP3    H163942   6.437   8.106   6.400
21355TIP3    H263943   6.490   8.165   6.530
21356TIP3   OH263944   5.955   9.205   6.188
21356TIP3    H163945   5.866   9.226   6.224
21356TIP3    H263946   5.960   9.269   6.116
21357TIP3   OH263947   6.143   8.263   6.598
21357TIP3    H163948   6.209   8.334   6.584
21357TIP3    H263949   6.145   8.254   6.696
21358TIP3   OH263950   6.411   8.577   7.401
21358TIP3    H163951   6.423   8.631   7.481
21358TIP3    H263952   6.467   8.500   7.421
21359TIP3   OH263953   6.286   7.990   6.701
21359TIP3    H163954   6.287   8.064   6.764
21359TIP3    H263955   6.345   8.025   6.630
21360TIP3   OH263956   5.696   9.274   6.252
21360TIP3    H163957   5.666   9.342   6.188
21360TIP3    H263958   5.678   9.317   6.337
21361TIP3   OH263959   5.796   7.985   6.487
21361TIP3    H163960   5.792   8.073   6.529
21361TIP3    H263961   5.892   7.967   6.497
21362TIP3   OH263962   7.037   8.456   7.362
21362TIP3    H163963   6.944   8.472   7.390
21362TIP3    H263964   7.020   8.386   7.296
21363TIP3   OH263965   6.703   8.665   6.768
21363TIP3    H163966   6.627   8.604   6.780
21363TIP3    H263967   6.776   8.612   6.806
21364TIP3   OH263968   5.413   8.904   6.244
21364TIP3    H163969   5.480   8.975   6.251
21364TIP3    H263970   5.458   8.848   6.177
21365TIP3   OH263971   5.361   8.179   6.374
21365TIP3    H163972   5.356   8.277   6.371
21365TIP3    H263973   5.274   8.154   6.340
21366TIP3   OH263974   6.620   9.605   6.697
21366TIP3    H163975   6.606   9.686   6.644
21366TIP3    H263976   6.715   9.597   6.697
21367TIP3   OH263977   5.786   7.873   7.229
21367TIP3    H163978   5.716   7.869   7.163
21367TIP3    H263979   5.736   7.861   7.313
21368TIP3   OH263980   5.286   9.127   6.635
21368TIP3    H163981   5.208   9.151   6.686
21368TIP3    H263982   5.261   9.162   6.546
21369TIP3   OH263983   5.435   9.647   7.690
21369TIP3    H163984   5.519   9.657   7.739
21369TIP3    H263985   5.420   9.552   7.699
21370TIP3   OH263986   5.907   9.198   5.878
21370TIP3    H163987   5.849   9.128   5.915
21370TIP3    H263988   5.978   9.143   5.840
21371TIP3   OH263989   6.342   9.245   5.788
21371TIP3    H163990   6.383   9.173   5.841
21371TIP3    H263991   6.392   9.241   5.704
21372TIP3   OH263992   5.571   9.059   7.902
21372TIP3    H163993   5.592   8.963   7.907
21372TIP3    H263994   5.483   9.058   7.860
21373TIP3   OH263995   5.549   8.718   6.095
21373TIP3    H163996   5.602   8.680   6.168
21373TIP3    H263997   5.617   8.721   6.024
21374TIP3   OH263998   6.181   9.140   7.667
21374TIP3    H163999   6.152   9.160   7.576
21374TIP3    H264000   6.213   9.048   7.659
21375TIP3   OH264001   6.060   8.913   5.899
21375TIP3    H164002   6.058   8.928   5.996
21375TIP3    H264003   6.060   8.815   5.896
21376TIP3   OH264004   6.630   9.135   7.259
21376TIP3    H164005   6.711   9.183   7.235
21376TIP3    H264006   6.571   9.207   7.285
21377TIP3   OH264007   5.694   8.802   7.879
21377TIP3    H164008   5.756   8.728   7.865
21377TIP3    H264009   5.718   8.829   7.970
21378TIP3   OH264010   5.760   8.619   6.320
21378TIP3    H164011   5.730   8.577   6.402
21378TIP3    H264012   5.793   8.543   6.269
21379TIP3   OH264013   6.031   8.694   7.553
21379TIP3    H164014   5.947   8.744   7.550
21379TIP3    H264015   6.072   8.717   7.467
21380TIP3   OH264016   5.857   8.414   6.158
21380TIP3    H164017   5.830   8.415   6.064
21380TIP3    H264018   5.955   8.419   6.150
21381TIP3   OH264019   6.679   8.746   5.822
21381TIP3    H164020   6.660   8.697   5.740
21381TIP3    H264021   6.648   8.835   5.795
21382TIP3   OH264022   6.144   8.470   7.673
21382TIP3    H164023   6.145   8.389   7.618
21382TIP3    H264024   6.101   8.535   7.614
21383TIP3   OH264025   6.149   8.263   7.475
21383TIP3    H164026   6.176   8.290   7.387
21383TIP3    H264027   6.054   8.241   7.460
21384TIP3   OH264028   6.181   8.793   7.348
21384TIP3    H164029   6.264   8.797   7.297
21384TIP3    H264030   6.127   8.863   7.307
21385TIP3   OH264031   6.017   8.591   7.892
21385TIP3    H164032   5.954   8.519   7.913
21385TIP3    H264033   6.056   8.556   7.809
21386TIP3   OH264034   6.283   8.024   7.542
21386TIP3    H164035   6.232   8.105   7.522
21386TIP3    H264036   6.214   7.954   7.532
21387TIP3   OH264037   6.399   8.540   7.757
21387TIP3    H164038   6.415   8.513   7.850
21387TIP3    H264039   6.308   8.504   7.743
21388TIP3   OH264040   6.620   8.490   7.601
21388TIP3    H164041   6.547   8.483   7.666
21388TIP3    H264042   6.690   8.439   7.648
21389TIP3   OH264043   6.816   8.365   7.730
21389TIP3    H164044   6.862   8.287   7.768
21389TIP3    H264045   6.828   8.434   7.798
21390TIP3   OH264046   5.872   8.366   7.953
21390TIP3    H164047   5.871   8.276   7.914
21390TIP3    H264048   5.903   8.346   8.043
21391TIP3   OH264049   6.378   8.030   7.800
21391TIP3    H164050   6.445   7.959   7.796
21391TIP3    H264051   6.337   8.023   7.712
21392TIP3   OH264052   6.433   8.240   7.965
21392TIP3    H164053   6.415   8.168   7.900
21392TIP3    H264054   6.354   8.297   7.955
21393TIP3   OH264055   5.665   9.475   6.064
21393TIP3    H164056   5.760   9.475   6.042
21393TIP3    H264057   5.631   9.524   5.987
21394TIP3   OH264058   5.144   8.857   6.279
21394TIP3    H164059   5.239   8.878   6.266
21394TIP3    H264060   5.138   8.769   6.238
21395TIP3   OH264061   5.059   9.469   6.690
21395TIP3    H164062   4.991   9.408   6.655
21395TIP3    H264063   5.101   9.412   6.758
21396TIP3   OH264064   5.189   9.325   6.884
21396TIP3    H164065   5.189   9.247   6.940
21396TIP3    H264066   5.243   9.386   6.939
21397TIP3   OH264067   6.812   8.936   6.155
21397TIP3    H164068   6.885   8.994   6.124
21397TIP3    H264069   6.855   8.893   6.232
21398TIP3   OH264070   6.935   8.802   6.356
21398TIP3    H164071   6.876   8.756   6.419
21398TIP3    H264072   7.008   8.834   6.414
21399TIP3   OH264073   6.987   9.177   6.801
21399TIP3    H164074   7.057   9.141   6.745
21399TIP3    H264075   6.949   9.248   6.748
21400TIP3   OH264076   6.880   8.708   6.006
21400TIP3    H164077   6.808   8.709   5.938
21400TIP3    H264078   6.852   8.784   6.060
21401TIP3   OH264079   6.747   8.382   5.961
21401TIP3    H164080   6.710   8.415   5.878
21401TIP3    H264081   6.724   8.286   5.954
21402TIP3   OH264082   6.750   8.651   6.500
21402TIP3    H164083   6.762   8.555   6.491
21402TIP3    H264084   6.742   8.662   6.597
21403TIP3   OH264085   5.382   8.744   7.244
21403TIP3    H164086   5.380   8.699   7.157
21403TIP3    H264087   5.477   8.735   7.267
21404TIP3   OH264088   6.694   8.116   5.949
21404TIP3    H164089   6.770   8.083   6.000
21404TIP3    H264090   6.622   8.054   5.971
21405TIP3   OH264091   6.754   8.372   6.398
21405TIP3    H164092   6.793   8.283   6.416
21405TIP3    H264093   6.812   8.401   6.326
21406TIP3   OH264094   6.915   8.544   6.882
21406TIP3    H164095   7.003   8.568   6.844
21406TIP3    H264096   6.932   8.571   6.974
21407TIP3   OH264097   6.967   8.688   7.108
21407TIP3    H164098   6.950   8.707   7.204
21407TIP3    H264099   7.028   8.762   7.082
21408TIP3   OH264100   5.604   8.428   7.948
21408TIP3    H164101   5.699   8.412   7.928
21408TIP3    H264102   5.577   8.338   7.974
21409TIP3   OH264103   6.858   8.122   6.439
21409TIP3    H164104   6.908   8.104   6.522
21409TIP3    H264105   6.799   8.044   6.436
21410TIP3   OH264106   5.347   8.406   7.319
21410TIP3    H164107   5.404   8.379   7.244
21410TIP3    H264108   5.410   8.452   7.375
21411TIP3   OH264109   7.290   8.413   7.439
21411TIP3    H164110   7.195   8.435   7.435
21411TIP3    H264111   7.285   8.317   7.420
21412TIP3   OH264112   6.942   8.056   6.069
21412TIP3    H164113   6.981   7.983   6.018
21412TIP3    H264114   7.011   8.126   6.062
21413TIP3   OH264115   5.345   7.884   6.831
21413TIP3    H164116   5.251   7.882   6.857
21413TIP3    H264117   5.343   7.942   6.752
21414TIP3   OH264118   5.601   9.400   7.735
21414TIP3    H164119   5.525   9.348   7.706
21414TIP3    H264120   5.609   9.374   7.829
21415TIP3   OH264121   5.780   9.423   7.272
21415TIP3    H164122   5.738   9.502   7.231
21415TIP3    H264123   5.868   9.431   7.229
21416TIP3   OH264124   7.197   8.164   7.362
21416TIP3    H164125   7.104   8.144   7.339
21416TIP3    H264126   7.236   8.074   7.354
21417TIP3   OH264127   5.455   9.668   7.304
21417TIP3    H164128   5.368   9.705   7.275
21417TIP3    H264129   5.473   9.727   7.379
21418TIP3   OH264130   5.688   9.650   7.148
21418TIP3    H164131   5.604   9.670   7.194
21418TIP3    H264132   5.673   9.691   7.060
21419TIP3   OH264133   6.128   9.700   6.944
21419TIP3    H164134   6.052   9.713   6.884
21419TIP3    H264135   6.107   9.766   7.012
21420TIP3   OH264136   6.405   9.649   6.981
21420TIP3    H164137   6.307   9.649   6.981
21420TIP3    H264138   6.426   9.681   6.892
21421TIP3   OH264139   5.371   9.469   7.039
21421TIP3    H164140   5.407   9.470   7.129
21421TIP3    H264141   5.445   9.428   6.988
21422TIP3   OH264142   5.567   9.347   6.897
21422TIP3    H164143   5.585   9.261   6.942
21422TIP3    H264144   5.658   9.384   6.890
21423TIP3   OH264145   5.833   9.440   6.898
21423TIP3    H164146   5.863   9.348   6.888
21423TIP3    H264147   5.878   9.463   6.982
21424TIP3   OH264148   6.403   8.094   6.980
21424TIP3    H164149   6.363   8.028   7.039
21424TIP3    H264150   6.478   8.044   6.942
21425TIP3   OH264151   6.933   7.983   6.892
21425TIP3    H164152   6.967   8.031   6.814
21425TIP3    H264153   6.836   7.993   6.882
21426TIP3   OH264154   7.027   8.080   6.654
21426TIP3    H164155   7.100   8.027   6.615
21426TIP3    H264156   7.062   8.171   6.638
21427TIP3   OH264157   5.648   7.807   6.985
21427TIP3    H164158   5.560   7.766   6.995
21427TIP3    H264159   5.706   7.729   6.997
21428TIP3   OH264160   5.437   7.676   6.647
21428TIP3    H164161   5.471   7.735   6.578
21428TIP3    H264162   5.413   7.740   6.718
21429TIP3   OH264163   6.098   7.842   6.879
21429TIP3    H164164   6.164   7.891   6.828
21429TIP3    H264165   6.114   7.872   6.969
21430TIP3   OH264166   6.652   7.985   6.865
21430TIP3    H164167   6.646   7.943   6.778
21430TIP3    H264168   6.638   7.907   6.924
21431TIP3   OH264169   6.678   7.907   6.429
21431TIP3    H164170   6.590   7.946   6.440
21431TIP3    H264171   6.666   7.821   6.476
21432TIP3   OH264172   5.162   9.245   6.428
21432TIP3    H164173   5.076   9.213   6.394
21432TIP3    H264174   5.150   9.340   6.411
21433TIP3   OH264175   5.561   7.839   6.410
21433TIP3    H164176   5.610   7.773   6.357
21433TIP3    H264177   5.634   7.891   6.449
21434TIP3   OH264178   6.074   8.012   6.511
21434TIP3    H164179   6.129   7.963   6.574
21434TIP3    H264180   6.096   8.104   6.538
21435TIP3   OH264181   5.934   9.436   6.008
21435TIP3    H164182   6.017   9.466   5.967
21435TIP3    H264183   5.911   9.361   5.950
21436TIP3   OH264184   6.627   9.543   6.116
21436TIP3    H164185   6.642   9.458   6.069
21436TIP3    H264186   6.596   9.599   6.041
21437TIP3   OH264187   5.865   8.089   7.898
21437TIP3    H164188   5.833   8.014   7.951
21437TIP3    H264189   5.960   8.088   7.922
21438TIP3   OH264190   6.116   8.085   8.014
21438TIP3    H164191   6.199   8.056   7.973
21438TIP3    H264192   6.101   8.014   8.080
21439TIP3   OH264193   5.237   9.274   6.068
21439TIP3    H164194   5.234   9.299   6.162
21439TIP3    H264195   5.326   9.232   6.060
21440TIP3   OH264196   6.941   8.129   7.792
21440TIP3    H164197   6.954   8.090   7.882
21440TIP3    H264198   7.031   8.130   7.755
21441TIP3   OH264199   7.119   8.579   6.315
21441TIP3    H164200   7.072   8.663   6.326
21441TIP3    H264201   7.049   8.523   6.276
21442TIP3   OH264202   7.174   8.862   6.476
21442TIP3    H164203   7.222   8.787   6.517
21442TIP3    H264204   7.243   8.901   6.420
21443TIP3   OH264205   7.693   8.460   6.486
21443TIP3    H164206   7.670   8.529   6.420
21443TIP3    H264207   7.645   8.384   6.448
21444TIP3   OH264208   8.351   8.534   6.106
21444TIP3    H164209   8.439   8.554   6.143
21444TIP3    H264210   8.344   8.600   6.036
21445TIP3   OH264211   7.319   8.662   6.588
21445TIP3    H164212   7.402   8.642   6.636
21445TIP3    H264213   7.331   8.605   6.510
21446TIP3   OH264214   7.745   8.857   6.383
21446TIP3    H164215   7.842   8.846   6.385
21446TIP3    H264216   7.715   8.769   6.353
21447TIP3   OH264217   7.674   8.431   6.892
21447TIP3    H164218   7.616   8.479   6.831
21447TIP3    H264219   7.639   8.461   6.978
21448TIP3   OH264220   7.554   8.576   6.695
21448TIP3    H164221   7.608   8.651   6.723
21448TIP3    H264222   7.611   8.533   6.627
21449TIP3   OH264223   7.016   9.099   6.048
21449TIP3    H164224   6.980   9.123   5.961
21449TIP3    H264225   7.049   9.185   6.082
21450TIP3   OH264226   8.032   8.161   6.621
21450TIP3    H164227   8.034   8.068   6.650
21450TIP3    H264228   7.958   8.195   6.677
21451TIP3   OH264229   7.957   8.898   5.865
21451TIP3    H164230   7.891   8.969   5.854
21451TIP3    H264231   8.026   8.923   5.803
21452TIP3   OH264232   7.931   8.705   5.603
21452TIP3    H164233   7.989   8.751   5.665
21452TIP3    H264234   7.995   8.647   5.557
21453TIP3   OH264235   7.564   9.017   6.266
21453TIP3    H164236   7.513   8.955   6.208
21453TIP3    H264237   7.630   8.955   6.305
21454TIP3   OH264238   8.180   8.873   5.690
21454TIP3    H164239   8.244   8.936   5.725
21454TIP3    H264240   8.192   8.888   5.593
21455TIP3   OH264241   8.676   8.107   5.730
21455TIP3    H164242   8.596   8.127   5.782
21455TIP3    H264243   8.686   8.188   5.677
21456TIP3   OH264244   7.418   8.851   6.091
21456TIP3    H164245   7.353   8.890   6.029
21456TIP3    H264246   7.386   8.760   6.098
21457TIP3   OH264247   7.219   9.638   6.164
21457TIP3    H164248   7.243   9.646   6.257
21457TIP3    H264249   7.153   9.567   6.168
21458TIP3   OH264250   7.994   9.688   5.412
21458TIP3    H164251   8.044   9.619   5.363
21458TIP3    H264252   8.041   9.687   5.496
21459TIP3   OH264253   7.808   8.234   6.761
21459TIP3    H164254   7.719   8.202   6.738
21459TIP3    H264255   7.782   8.317   6.808
21460TIP3   OH264256   8.237   8.917   5.430
21460TIP3    H164257   8.204   8.887   5.344
21460TIP3    H264258   8.324   8.953   5.404
21461TIP3   OH264259   7.952   8.285   5.732
21461TIP3    H164260   7.919   8.281   5.824
21461TIP3    H264261   7.914   8.201   5.698
21462TIP3   OH264262   7.618   8.632   6.291
21462TIP3    H164263   7.526   8.604   6.310
21462TIP3    H264264   7.631   8.592   6.203
21463TIP3   OH264265   8.097   8.710   6.006
21463TIP3    H164266   8.043   8.783   5.967
21463TIP3    H264267   8.148   8.680   5.928
21464TIP3   OH264268   7.608   8.258   5.699
21464TIP3    H164269   7.598   8.254   5.797
21464TIP3    H264270   7.527   8.308   5.675
21465TIP3   OH264271   7.150   8.306   6.569
21465TIP3    H164272   7.228   8.333   6.622
21465TIP3    H264273   7.189   8.267   6.489
21466TIP3   OH264274   7.123   8.283   6.090
21466TIP3    H164275   7.168   8.321   6.011
21466TIP3    H264276   7.062   8.355   6.112
21467TIP3   OH264277   7.947   8.453   6.359
21467TIP3    H164278   7.862   8.448   6.406
21467TIP3    H264279   8.006   8.480   6.432
21468TIP3   OH264280   7.382   8.514   6.364
21468TIP3    H164281   7.287   8.518   6.337
21468TIP3    H264282   7.407   8.422   6.343
21469TIP3   OH264283   7.651   8.510   6.050
21469TIP3    H164284   7.746   8.523   6.030
21469TIP3    H264285   7.607   8.534   5.966
21470TIP3   OH264286   7.492   8.549   5.830
21470TIP3    H164287   7.422   8.500   5.782
21470TIP3    H264288   7.545   8.583   5.755
21471TIP3   OH264289   7.556   8.275   6.334
21471TIP3    H164290   7.521   8.196   6.381
21471TIP3    H264291   7.606   8.235   6.262
21472TIP3   OH264292   7.741   9.082   5.835
21472TIP3    H164293   7.674   9.011   5.827
21472TIP3    H264294   7.731   9.110   5.929
21473TIP3   OH264295   8.203   8.387   5.702
21473TIP3    H164296   8.106   8.371   5.706
21473TIP3    H264297   8.212   8.482   5.721
21474TIP3   OH264298   8.271   8.636   5.803
21474TIP3    H164299   8.370   8.634   5.807
21474TIP3    H264300   8.256   8.715   5.747
21475TIP3   OH264301   7.424   9.037   6.502
21475TIP3    H164302   7.468   9.052   6.416
21475TIP3    H264303   7.491   8.987   6.550
21476TIP3   OH264304   7.877   9.223   5.637
21476TIP3    H164305   7.855   9.312   5.670
21476TIP3    H264306   7.841   9.168   5.710
21477TIP3   OH264307   8.713   8.711   5.629
21477TIP3    H164308   8.647   8.666   5.571
21477TIP3    H264309   8.712   8.797   5.579
21478TIP3   OH264310   7.540   9.394   6.160
21478TIP3    H164311   7.579   9.470   6.110
21478TIP3    H264312   7.448   9.394   6.128
21479TIP3   OH264313   7.102   8.705   5.842
21479TIP3    H164314   7.149   8.788   5.863
21479TIP3    H264315   7.025   8.711   5.903
21480TIP3   OH264316   7.703   9.174   6.093
21480TIP3    H164317   7.652   9.256   6.106
21480TIP3    H264318   7.653   9.112   6.150
21481TIP3   OH264319   7.394   9.669   5.954
21481TIP3    H164320   7.329   9.665   6.027
21481TIP3    H264321   7.479   9.661   6.000
21482TIP3   OH264322   8.163   9.273   5.447
21482TIP3    H164323   8.211   9.246   5.526
21482TIP3    H264324   8.073   9.245   5.470
21483TIP3   OH264325   7.470   8.509   7.099
21483TIP3    H164326   7.378   8.524   7.131
21483TIP3    H264327   7.502   8.439   7.157
21484TIP3   OH264328   7.535   9.252   5.451
21484TIP3    H164329   7.551   9.161   5.418
21484TIP3    H264330   7.515   9.236   5.545
21485TIP3   OH264331   7.481   9.257   5.726
21485TIP3    H164332   7.564   9.227   5.767
21485TIP3    H264333   7.488   9.354   5.732
21486TIP3   OH264334   7.218   8.950   5.925
21486TIP3    H164335   7.152   8.994   5.981
21486TIP3    H264336   7.233   9.019   5.857
21487TIP3   OH264337   8.236   8.322   5.974
21487TIP3    H164338   8.225   8.348   5.880
21487TIP3    H264339   8.274   8.404   6.013
21488TIP3   OH264340   7.746   9.468   5.689
21488TIP3    H164341   7.652   9.492   5.701
21488TIP3    H264342   7.770   9.527   5.616
21489TIP3   OH264343   7.933   8.507   6.087
21489TIP3    H164344   7.995   8.579   6.062
21489TIP3    H264345   7.937   8.510   6.185
21490TIP3   OH264346   8.086   8.251   6.200
21490TIP3    H164347   8.052   8.335   6.236
21490TIP3    H264348   8.142   8.282   6.125
21491TIP3   OH264349   7.483   9.533   5.734
21491TIP3    H164350   7.462   9.599   5.664
21491TIP3    H264351   7.445   9.581   5.811
21492TIP3   OH264352   7.590   8.242   5.976
21492TIP3    H164353   7.589   8.332   6.013
21492TIP3    H264354   7.686   8.223   5.983
21493TIP3   OH264355   7.209   9.161   5.731
21493TIP3    H164356   7.278   9.229   5.738
21493TIP3    H264357   7.252   9.103   5.664
21494TIP3   OH264358   7.155   8.435   5.865
21494TIP3    H164359   7.152   8.532   5.859
21494TIP3    H264360   7.075   8.409   5.818
21495TIP3   OH264361   7.541   8.155   6.737
21495TIP3    H164362   7.510   8.119   6.651
21495TIP3    H264363   7.533   8.077   6.795
21496TIP3   OH264364   7.082   9.365   6.118
21496TIP3    H164365   7.017   9.404   6.177
21496TIP3    H264366   7.060   9.411   6.033
21497TIP3   OH264367   7.703   9.451   5.364
21497TIP3    H164368   7.646   9.380   5.401
21497TIP3    H264369   7.775   9.398   5.326
21498TIP3   OH264370   8.133   9.499   5.276
21498TIP3    H164371   8.173   9.427   5.328
21498TIP3    H264372   8.181   9.496   5.190
21499TIP3   OH264373   7.344   8.974   5.584
21499TIP3    H164374   7.400   8.937   5.655
21499TIP3    H264375   7.410   8.977   5.511
21500TIP3   OH264376   7.848   9.166   5.376
21500TIP3    H164377   7.848   9.183   5.473
21500TIP3    H264378   7.852   9.067   5.377
21501TIP3   OH264379   7.555   8.876   5.806
21501TIP3    H164380   7.529   8.828   5.887
21501TIP3    H264381   7.591   8.803   5.751
21502TIP3   OH264382   7.653   8.671   5.645
21502TIP3    H164383   7.627   8.672   5.551
21502TIP3    H264384   7.751   8.677   5.637
21503TIP3   OH264385   8.467   9.001   5.306
21503TIP3    H164386   8.453   8.954   5.222
21503TIP3    H264387   8.445   9.092   5.278
21504TIP3   OH264388   7.464   9.736   5.552
21504TIP3    H164389   7.560   9.730   5.534
21504TIP3    H264390   7.434   9.780   5.470
21505TIP3   OH264391   6.940   9.113   5.769
21505TIP3    H164392   7.034   9.135   5.753
21505TIP3    H264393   6.934   9.025   5.726
21506TIP3   OH264394   6.842   9.720   6.179
21506TIP3    H164395   6.775   9.656   6.149
21506TIP3    H264396   6.897   9.666   6.238
21507TIP3   OH264397   6.995   9.578   6.356
21507TIP3    H164398   6.990   9.520   6.433
21507TIP3    H264399   6.991   9.664   6.402
21508TIP3   OH264400   8.663   8.936   5.487
21508TIP3    H164401   8.596   8.955   5.418
21508TIP3    H264402   8.682   9.025   5.519
21509TIP3   OH264403   8.530   8.635   5.445
21509TIP3    H164404   8.503   8.674   5.361
21509TIP3    H264405   8.506   8.541   5.431
21510TIP3   OH264406   7.185   8.967   6.738
21510TIP3    H164407   7.188   8.944   6.643
21510TIP3    H264408   7.264   9.025   6.746
21511TIP3   OH264409   8.479   8.370   5.426
21511TIP3    H164410   8.559   8.340   5.474
21511TIP3    H264411   8.410   8.307   5.453
21512TIP3   OH264412   8.543   8.620   5.845
21512TIP3    H164413   8.580   8.534   5.872
21512TIP3    H264414   8.612   8.653   5.785
21513TIP3   OH264415   8.648   8.386   5.955
21513TIP3    H164416   8.731   8.346   5.987
21513TIP3    H264417   8.591   8.307   5.943
21514TIP3   OH264418   7.358   8.365   6.744
21514TIP3    H164419   7.422   8.292   6.754
21514TIP3    H264420   7.417   8.442   6.741
21515TIP3   OH264421   7.160   8.639   6.815
21515TIP3    H164422   7.210   8.632   6.732
21515TIP3    H264423   7.185   8.727   6.844
21516TIP3   OH264424   8.721   8.308   5.539
21516TIP3    H164425   8.761   8.232   5.492
21516TIP3    H264426   8.798   8.367   5.549
21517TIP3   OH264427   7.143   8.145   6.322
21517TIP3    H164428   7.049   8.138   6.344
21517TIP3    H264429   7.141   8.200   6.240
21518TIP3   OH264430   7.358   8.214   7.135
21518TIP3    H164431   7.301   8.201   7.213
21518TIP3    H264432   7.293   8.250   7.071
21519TIP3   OH264433   8.201   8.341   6.494
21519TIP3    H164434   8.140   8.285   6.548
21519TIP3    H264435   8.201   8.290   6.411
21520TIP3   OH264436   7.453   8.062   6.487
21520TIP3    H164437   7.361   8.028   6.489
21520TIP3    H264438   7.504   7.978   6.485
21521TIP3   OH264439   7.238   7.933   6.136
21521TIP3    H164440   7.270   7.989   6.064
21521TIP3    H264441   7.211   7.998   6.203
21522TIP3   OH264442   7.895   8.098   6.368
21522TIP3    H164443   7.959   8.147   6.315
21522TIP3    H264444   7.917   8.127   6.458
21523TIP3   OH264445   8.414   8.231   6.344
21523TIP3    H164446   8.432   8.196   6.255
21523TIP3    H264447   8.413   8.148   6.397
21524TIP3   OH264448   8.475   8.168   5.917
21524TIP3    H164449   8.385   8.205   5.921
21524TIP3    H264450   8.460   8.080   5.960
21525TIP3   OH264451   6.951   9.509   5.929
21525TIP3    H164452   6.872   9.477   5.882
21525TIP3    H264453   6.952   9.601   5.899
21526TIP3   OH264454   7.357   8.093   5.899
21526TIP3    H164455   7.405   8.029   5.844
21526TIP3    H264456   7.431   8.146   5.936
21527TIP3   OH264457   7.867   8.260   5.996
21527TIP3    H164458   7.923   8.207   6.055
21527TIP3    H264459   7.890   8.351   6.026
21528TIP3   OH264460   7.726   9.692   5.489
21528TIP3    H164461   7.816   9.716   5.460
21528TIP3    H264462   7.710   9.614   5.432
21529TIP3   OH264463   7.034   9.526   5.556
21529TIP3    H164464   7.039   9.563   5.645
21529TIP3    H264465   7.123   9.485   5.544
21530TIP3   OH264466   9.412   8.552   5.196
21530TIP3    H164467   9.389   8.485   5.261
21530TIP3    H264468   9.326   8.583   5.162
21531TIP3   OH264469   8.948   8.565   5.588
21531TIP3    H164470   8.967   8.598   5.497
21531TIP3    H264471   8.868   8.619   5.607
21532TIP3   OH264472   8.939   8.690   5.353
21532TIP3    H164473   8.962   8.782   5.337
21532TIP3    H264474   8.866   8.675   5.291
21533TIP3   OH264475   8.913   8.357   5.749
21533TIP3    H164476   8.850   8.399   5.810
21533TIP3    H264477   8.945   8.436   5.699
21534TIP3   OH264478   9.045   8.168   5.608
21534TIP3    H164479   9.068   8.226   5.534
21534TIP3    H264480   8.998   8.230   5.668
21535TIP3   OH264481   9.141   8.341   5.382
21535TIP3    H164482   9.189   8.278   5.325
21535TIP3    H264483   9.212   8.385   5.430
21536TIP3   OH264484   1.213   9.087   7.269
21536TIP3    H164485   1.238   9.018   7.205
21536TIP3    H264486   1.240   9.168   7.226
21537TIP3   OH264487   3.267   9.666   7.666
21537TIP3    H164488   3.177   9.705   7.658
21537TIP3    H264489   3.301   9.680   7.574
21538TIP3   OH264490   2.635   9.565   7.277
21538TIP3    H164491   2.697   9.571   7.353
21538TIP3    H264492   2.664   9.640   7.225
21539TIP3   OH264493   2.842   9.597   7.455
21539TIP3    H164494   2.848   9.528   7.523
21539TIP3    H264495   2.930   9.637   7.457
21540TIP3   OH264496   2.196   9.723   6.821
21540TIP3    H164497   2.255   9.798   6.837
21540TIP3    H264498   2.240   9.680   6.746
21541TIP3   OH264499   2.928   9.149   6.913
21541TIP3    H164500   2.846   9.168   6.963
21541TIP3    H264501   2.938   9.232   6.861
21542TIP3   OH264502   2.202   9.328   6.908
21542TIP3    H164503   2.176   9.320   7.002
21542TIP3    H264504   2.163   9.246   6.874
21543TIP3   OH264505   2.366   9.764   7.134
21543TIP3    H164506   2.315   9.817   7.073
21543TIP3    H264507   2.439   9.734   7.075
21544TIP3   OH264508   1.859   9.305   6.871
21544TIP3    H164509   1.852   9.289   6.968
21544TIP3    H264510   1.778   9.356   6.854
21545TIP3   OH264511   1.928   9.506   7.155
21545TIP3    H164512   2.010   9.549   7.125
21545TIP3    H264513   1.860   9.544   7.095
21546TIP3   OH264514   1.720   9.582   7.000
21546TIP3    H164515   1.667   9.544   6.927
21546TIP3    H264516   1.770   9.652   6.954
21547TIP3   OH264517   1.742   9.258   7.426
21547TIP3    H164518   1.755   9.248   7.521
21547TIP3    H264519   1.831   9.284   7.396
21548TIP3   OH264520   2.451   9.436   6.876
21548TIP3    H164521   2.355   9.418   6.888
21548TIP3    H264522   2.460   9.533   6.890
21549TIP3   OH264523   2.543   9.695   6.937
21549TIP3    H164524   2.631   9.679   6.976
21549TIP3    H264525   2.557   9.778   6.889
21550TIP3   OH264526   2.959   9.759   6.824
21550TIP3    H164527   2.897   9.719   6.759
21550TIP3    H264528   2.974   9.845   6.781
21551TIP3   OH264529   2.492   9.371   7.152
21551TIP3    H164530   2.479   9.402   7.060
21551TIP3    H264531   2.539   9.448   7.193
21552TIP3   OH264532   2.203   9.560   7.244
21552TIP3    H164533   2.270   9.620   7.207
21552TIP3    H264534   2.199   9.596   7.334
21553TIP3   OH264535   2.332   9.284   7.366
21553TIP3    H164536   2.357   9.337   7.444
21553TIP3    H264537   2.382   9.330   7.294
21554TIP3   OH264538   1.844   9.249   7.138
21554TIP3    H164539   1.850   9.345   7.162
21554TIP3    H264540   1.938   9.226   7.154
21555TIP3   OH264541   1.917   9.709   6.858
21555TIP3    H164542   1.888   9.660   6.778
21555TIP3    H264543   2.014   9.707   6.850
21556TIP3   OH264544   2.788   9.689   6.621
21556TIP3    H164545   2.772   9.705   6.527
21556TIP3    H264546   2.767   9.593   6.625
21557TIP3   OH264547   2.819   9.936   7.177
21557TIP3    H164548   2.820   9.839   7.169
21557TIP3    H264549   2.824   9.948   7.273
21558TIP3   OH264550   2.736   9.424   6.618
21558TIP3    H164551   2.814   9.386   6.663
21558TIP3    H264552   2.666   9.359   6.635
21559TIP3   OH264553   2.796   9.671   7.054
21559TIP3    H164554   2.829   9.581   7.078
21559TIP3    H264555   2.861   9.695   6.986
21560TIP3   OH264556   2.907   9.421   7.100
21560TIP3    H164557   2.952   9.404   7.185
21560TIP3    H264558   2.843   9.347   7.098
21561TIP3   OH264559   2.987   9.358   6.731
21561TIP3    H164560   3.024   9.283   6.679
21561TIP3    H264561   3.057   9.425   6.724
21562TIP3   OH264562   2.440   9.366   7.616
21562TIP3    H164563   2.445   9.336   7.707
21562TIP3    H264564   2.533   9.367   7.589
21563TIP3   OH264565   2.978   9.294   7.568
21563TIP3    H164566   3.015   9.333   7.486
21563TIP3    H264567   2.882   9.293   7.549
21564TIP3   OH264568   3.071   9.380   7.324
21564TIP3    H164569   3.141   9.325   7.282
21564TIP3    H264570   3.106   9.470   7.303
21565TIP3   OH264571   1.494   8.952   7.290
21565TIP3    H164572   1.523   9.006   7.214
21565TIP3    H264573   1.457   9.022   7.348
21566TIP3   OH264574   2.166   9.113   7.523
21566TIP3    H164575   2.220   9.175   7.471
21566TIP3    H264576   2.132   9.172   7.592
21567TIP3   OH264577   2.703   9.286   7.531
21567TIP3    H164578   2.683   9.255   7.441
21567TIP3    H264579   2.683   9.206   7.585
21568TIP3   OH264580   2.722   9.210   7.092
21568TIP3    H164581   2.634   9.250   7.103
21568TIP3    H264582   2.708   9.124   7.137
21569TIP3   OH264583   1.600   9.124   7.079
21569TIP3    H164584   1.647   9.065   7.018
21569TIP3    H264585   1.675   9.175   7.116
21570TIP3   OH264586   2.129   9.294   7.174
21570TIP3    H164587   2.191   9.264   7.243
21570TIP3    H264588   2.125   9.389   7.197
21571TIP3   OH264589   3.166   9.891   6.978
21571TIP3    H164590   3.123   9.966   7.021
21571TIP3    H264591   3.092   9.832   6.958
21572TIP3   OH264592   5.004   9.911   7.148
21572TIP3    H164593   5.029   9.996   7.191
21572TIP3    H264594   5.019   9.933   7.055
21573TIP3   OH264595   4.402  10.095   7.174
21573TIP3    H164596   4.443  10.008   7.195
21573TIP3    H264597   4.363  10.076   7.086
21574TIP3   OH264598   3.736   9.758   7.150
21574TIP3    H164599   3.717   9.831   7.087
21574TIP3    H264600   3.689   9.685   7.105
21575TIP3   OH264601   4.432   9.845   6.774
21575TIP3    H164602   4.507   9.831   6.836
21575TIP3    H264603   4.480   9.883   6.698
21576TIP3   OH264604   3.377   9.962   7.255
21576TIP3    H164605   3.456   9.929   7.300
21576TIP3    H264606   3.381   9.913   7.171
21577TIP3   OH264607   3.817  10.158   7.051
21577TIP3    H164608   3.906  10.123   7.068
21577TIP3    H264609   3.770  10.083   7.011
21578TIP3   OH264610   5.079  10.114   7.326
21578TIP3    H164611   5.002  10.166   7.293
21578TIP3    H264612   5.106  10.166   7.403
21579TIP3   OH264613   3.733   9.740   7.586
21579TIP3    H164614   3.668   9.775   7.522
21579TIP3    H264615   3.681   9.732   7.667
21580TIP3   OH264616   4.645   9.850   6.943
21580TIP3    H164617   4.628   9.807   7.028
21580TIP3    H264618   4.692   9.931   6.970
21581TIP3   OH264619   3.607   9.856   7.369
21581TIP3    H164620   3.670   9.929   7.388
21581TIP3    H264621   3.654   9.813   7.294
21582TIP3   OH264622   4.791   9.817   7.314
21582TIP3    H164623   4.702   9.845   7.285
21582TIP3    H264624   4.848   9.849   7.241
21583TIP3   OH264625   4.093   9.460   7.300
21583TIP3    H164626   4.077   9.365   7.315
21583TIP3    H264627   4.014   9.499   7.344
21584TIP3   OH264628   3.983   9.973   6.301
21584TIP3    H164629   4.029  10.050   6.337
21584TIP3    H264630   4.045   9.943   6.232
21585TIP3   OH264631   4.627  10.327   7.417
21585TIP3    H164632   4.637  10.422   7.403
21585TIP3    H264633   4.529  10.321   7.406
21586TIP3   OH264634   4.723   9.405   6.399
21586TIP3    H164635   4.642   9.423   6.450
21586TIP3    H264636   4.735   9.488   6.350
21587TIP3   OH264637   4.854  10.302   7.597
21587TIP3    H164638   4.766  10.300   7.556
21587TIP3    H264639   4.866  10.210   7.622
21588TIP3   OH264640   3.852   9.537   7.423
21588TIP3    H164641   3.762   9.506   7.400
21588TIP3    H264642   3.829   9.621   7.466
21589TIP3   OH264643   4.384   9.653   7.622
21589TIP3    H164644   4.450   9.623   7.687
21589TIP3    H264645   4.299   9.631   7.666
21590TIP3   OH264646   4.634  10.073   7.543
21590TIP3    H164647   4.579  10.073   7.625
21590TIP3    H264648   4.605  10.155   7.499
21591TIP3   OH264649   4.003   9.582   6.396
21591TIP3    H164650   3.966   9.583   6.487
21591TIP3    H264651   3.960   9.500   6.363
21592TIP3   OH264652   3.781  10.064   7.438
21592TIP3    H164653   3.746  10.098   7.522
21592TIP3    H264654   3.776  10.141   7.380
21593TIP3   OH264655   3.668   9.936   6.958
21593TIP3    H164656   3.575   9.909   6.973
21593TIP3    H264657   3.682   9.900   6.868
21594TIP3   OH264658   4.168  10.025   6.688
21594TIP3    H164659   4.088  10.077   6.665
21594TIP3    H264660   4.208  10.009   6.600
21595TIP3   OH264661   4.305  10.041   6.926
21595TIP3    H164662   4.246  10.059   6.850
21595TIP3    H264663   4.348   9.961   6.888
21596TIP3   OH264664   3.655   9.561   6.365
21596TIP3    H164665   3.645   9.556   6.463
21596TIP3    H264666   3.575   9.609   6.341
21597TIP3   OH264667   3.189   9.605   7.232
21597TIP3    H164668   3.268   9.634   7.283
21597TIP3    H264669   3.227   9.567   7.151
21598TIP3   OH264670   3.170   9.581   6.755
21598TIP3    H164671   3.213   9.621   6.676
21598TIP3    H264672   3.109   9.653   6.779
21599TIP3   OH264673   4.359  10.278   7.363
21599TIP3    H164674   4.371  10.212   7.292
21599TIP3    H264675   4.294  10.231   7.418
21600TIP3   OH264676   3.994   9.749   7.020
21600TIP3    H164677   3.909   9.754   7.068
21600TIP3    H264678   4.056   9.778   7.090
21601TIP3   OH264679   3.428   9.818   7.023
21601TIP3    H164680   3.334   9.822   6.996
21601TIP3    H264681   3.453   9.726   7.002
21602TIP3   OH264682   3.702   9.813   6.714
21602TIP3    H164683   3.792   9.836   6.687
21602TIP3    H264684   3.648   9.836   6.635
21603TIP3   OH264685   4.486   9.832   7.221
21603TIP3    H164686   4.452   9.846   7.312
21603TIP3    H264687   4.418   9.772   7.185
21604TIP3   OH264688   3.532   9.831   6.497
21604TIP3    H164689   3.470   9.796   6.431
21604TIP3    H264690   3.583   9.894   6.442
21605TIP3   OH264691   4.069  10.057   7.103
21605TIP3    H164692   4.156  10.048   7.062
21605TIP3    H264693   4.089  10.054   7.198
21606TIP3   OH264694   3.600   9.576   6.996
21606TIP3    H164695   3.567   9.495   7.041
21606TIP3    H264696   3.644   9.540   6.919
21607TIP3   OH264697   4.046   9.965   7.402
21607TIP3    H164698   3.962  10.013   7.408
21607TIP3    H264699   4.109  10.024   7.449
21608TIP3   OH264700   4.247   9.699   6.363
21608TIP3    H164701   4.151   9.677   6.374
21608TIP3    H264702   4.250   9.795   6.384
21609TIP3   OH264703   4.318   9.958   6.450
21609TIP3    H164704   4.410   9.945   6.481
21609TIP3    H264705   4.323  10.045   6.408
21610TIP3   OH264706   4.760  10.018   6.308
21610TIP3    H164707   4.696   9.978   6.244
21610TIP3    H264708   4.760  10.109   6.275
21611TIP3   OH264709   4.416   9.888   7.483
21611TIP3    H164710   4.499   9.920   7.522
21611TIP3    H264711   4.399   9.806   7.533
21612TIP3   OH264712   4.295   9.638   6.642
21612TIP3    H164713   4.276   9.664   6.550
21612TIP3    H264714   4.332   9.720   6.681
21613TIP3   OH264715   3.992   9.815   6.749
21613TIP3    H164716   4.056   9.887   6.734
21613TIP3    H264717   3.988   9.812   6.846
21614TIP3   OH264718   4.235  10.105   7.539
21614TIP3    H164719   4.265  10.168   7.608
21614TIP3    H264720   4.302  10.034   7.542
21615TIP3   OH264721   4.128   9.548   6.854
21615TIP3    H164722   4.106   9.627   6.907
21615TIP3    H264723   4.186   9.586   6.785
21616TIP3   OH264724   3.637   9.543   6.642
21616TIP3    H164725   3.633   9.636   6.671
21616TIP3    H264726   3.734   9.528   6.649
21617TIP3   OH264727   4.894  10.012   7.538
21617TIP3    H164728   4.796  10.021   7.544
21617TIP3    H264729   4.906  10.025   7.443
21618TIP3   OH264730   4.534  10.213   6.904
21618TIP3    H164731   4.462  10.159   6.938
21618TIP3    H264732   4.607  10.191   6.964
21619TIP3   OH264733   3.190   9.743   6.536
21619TIP3    H164734   3.209   9.835   6.514
21619TIP3    H264735   3.118   9.718   6.476
21620TIP3   OH264736   3.588   9.457   7.401
21620TIP3    H164737   3.556   9.422   7.315
21620TIP3    H264738   3.576   9.379   7.460
21621TIP3   OH264739   3.709   9.967   6.340
21621TIP3    H164740   3.681   9.916   6.261
21621TIP3    H264741   3.807   9.961   6.336
21622TIP3   OH264742   4.003   9.973   7.842
21622TIP3    H164743   3.993   9.907   7.771
21622TIP3    H264744   3.980  10.056   7.796
21623TIP3   OH264745   3.994   9.803   7.621
21623TIP3    H164746   4.018   9.849   7.537
21623TIP3    H264747   3.899   9.786   7.607
21624TIP3   OH264748   4.128   9.579   7.702
21624TIP3    H164749   4.079   9.659   7.674
21624TIP3    H264750   4.058   9.510   7.689
21625TIP3   OH264751   4.496  10.030   7.771
21625TIP3    H164752   4.419  10.009   7.825
21625TIP3    H264753   4.569  10.008   7.831
21626TIP3   OH264754   4.729   9.981   7.937
21626TIP3    H164755   4.733   9.883   7.942
21626TIP3    H264756   4.716  10.006   8.029
21627TIP3   OH264757   4.228   9.588   7.956
21627TIP3    H164758   4.284   9.508   7.949
21627TIP3    H264759   4.180   9.584   7.871
21628TIP3   OH264760   4.394   9.800   8.013
21628TIP3    H164761   4.354   9.716   7.982
21628TIP3    H264762   4.313   9.843   8.047
21629TIP3   OH264763   4.592   9.940   6.108
21629TIP3    H164764   4.563   9.969   6.021
21629TIP3    H264765   4.567   9.844   6.104
21630TIP3   OH264766   4.631  10.191   6.652
21630TIP3    H164767   4.625  10.095   6.662
21630TIP3    H264768   4.605  10.221   6.742
21631TIP3   OH264769   5.044  10.477   7.520
21631TIP3    H164770   4.973  10.422   7.559
21631TIP3    H264771   5.122  10.425   7.540
21632TIP3   OH264772   4.535   9.674   6.095
21632TIP3    H164773   4.609   9.641   6.151
21632TIP3    H264774   4.460   9.617   6.120
21633TIP3   OH264775   4.584   9.919   6.550
21633TIP3    H164776   4.628   9.832   6.562
21633TIP3    H264777   4.643   9.959   6.484
21634TIP3   OH264778   4.755  10.095   7.038
21634TIP3    H164779   4.838  10.126   6.995
21634TIP3    H264780   4.769  10.137   7.126
21635TIP3   OH264781   4.837  10.232   7.267
21635TIP3    H164782   4.758  10.262   7.316
21635TIP3    H264783   4.880  10.317   7.245
21636TIP3   OH264784   5.271   9.815   7.831
21636TIP3    H164785   5.331   9.765   7.772
21636TIP3    H264786   5.249   9.894   7.777
21637TIP3   OH264787   4.705   9.675   6.587
21637TIP3    H164788   4.750   9.661   6.673
21637TIP3    H264789   4.642   9.600   6.586
21638TIP3   OH264790   3.402   9.663   7.404
21638TIP3    H164791   3.466   9.589   7.410
21638TIP3    H264792   3.462   9.739   7.398
21639TIP3   OH264793   3.269   9.947   7.512
21639TIP3    H164794   3.282   9.929   7.417
21639TIP3    H264795   3.237  10.038   7.509
21640TIP3   OH264796   5.134   9.980   7.659
21640TIP3    H164797   5.042  10.013   7.649
21640TIP3    H264798   5.128   9.907   7.595
21641TIP3   OH264799   4.783   9.614   6.219
21641TIP3    H164800   4.823   9.542   6.167
21641TIP3    H264801   4.851   9.684   6.213
21642TIP3   OH264802   3.187   9.447   6.988
21642TIP3    H164803   3.092   9.438   7.008
21642TIP3    H264804   3.186   9.499   6.905
21643TIP3   OH264805   3.417   9.485   7.795
21643TIP3    H164806   3.364   9.464   7.872
21643TIP3    H264807   3.363   9.551   7.747
21644TIP3   OH264808   5.025   9.753   7.521
21644TIP3    H164809   4.954   9.818   7.504
21644TIP3    H264810   4.977   9.671   7.496
21645TIP3   OH264811   4.263   9.658   7.148
21645TIP3    H164812   4.206   9.592   7.193
21645TIP3    H264813   4.317   9.602   7.090
21646TIP3   OH264814   4.777   9.538   7.048
21646TIP3    H164815   4.811   9.589   6.971
21646TIP3    H264816   4.680   9.551   7.038
21647TIP3   OH264817   4.870   9.632   6.807
21647TIP3    H164818   4.942   9.584   6.763
21647TIP3    H264819   4.900   9.725   6.793
21648TIP3   OH264820   3.498   9.364   7.154
21648TIP3    H164821   3.406   9.331   7.154
21648TIP3    H264822   3.547   9.279   7.150
21649TIP3   OH264823   3.289   9.234   6.802
21649TIP3    H164824   3.316   9.289   6.727
21649TIP3    H264825   3.258   9.300   6.867
21650TIP3   OH264826   3.943   9.395   7.032
21650TIP3    H164827   4.002   9.448   6.975
21650TIP3    H264828   3.958   9.435   7.118
21651TIP3   OH264829   4.501   9.541   7.014
21651TIP3    H164830   4.481   9.507   6.926
21651TIP3    H264831   4.481   9.462   7.070
21652TIP3   OH264832   4.519   9.466   6.580
21652TIP3    H164833   4.433   9.510   6.592
21652TIP3    H264834   4.502   9.380   6.625
21653TIP3   OH264835   3.401   9.396   6.564
21653TIP3    H164836   3.447   9.331   6.507
21653TIP3    H264837   3.477   9.447   6.600
21654TIP3   OH264838   3.915   9.569   6.661
21654TIP3    H164839   3.972   9.521   6.723
21654TIP3    H264840   3.936   9.661   6.687
21655TIP3   OH264841   3.650   9.558   8.009
21655TIP3    H164842   3.664   9.502   8.088
21655TIP3    H264843   3.701   9.639   8.032
21656TIP3   OH264844   3.974   9.575   8.119
21656TIP3    H164845   4.058   9.543   8.082
21656TIP3    H264846   3.982   9.546   8.211
21657TIP3   OH264847   4.777   9.709   7.943
21657TIP3    H164848   4.797   9.675   8.032
21657TIP3    H264849   4.865   9.704   7.900
21658TIP3   OH264850   4.963  10.148   6.467
21658TIP3    H164851   4.920  10.224   6.508
21658TIP3    H264852   4.888  10.091   6.444
21659TIP3   OH264853   6.139  10.357   6.669
21659TIP3    H164854   6.216  10.306   6.694
21659TIP3    H264855   6.143  10.353   6.572
21660TIP3   OH264856   5.536  10.014   6.635
21660TIP3    H164857   5.514  10.089   6.574
21660TIP3    H264858   5.485   9.942   6.591
21661TIP3   OH264859   6.230  10.098   6.261
21661TIP3    H164860   6.303  10.091   6.326
21661TIP3    H264861   6.276  10.137   6.185
21662TIP3   OH264862   5.157  10.196   6.756
21662TIP3    H164863   5.247  10.193   6.791
21662TIP3    H264864   5.171  10.165   6.665
21663TIP3   OH264865   5.625  10.416   6.517
21663TIP3    H164866   5.706  10.371   6.548
21663TIP3    H264867   5.568  10.342   6.490
21664TIP3   OH264868   5.525   9.996   7.076
21664TIP3    H164869   5.470  10.033   7.004
21664TIP3    H264870   5.472  10.022   7.154
21665TIP3   OH264871   6.444  10.113   6.432
21665TIP3    H164872   6.431  10.041   6.496
21665TIP3    H264873   6.527  10.150   6.462
21666TIP3   OH264874   5.406  10.110   6.857
21666TIP3    H164875   5.461  10.189   6.874
21666TIP3    H264876   5.454  10.071   6.780
21667TIP3   OH264877   5.889   9.716   6.786
21667TIP3    H164878   5.870   9.621   6.802
21667TIP3    H264879   5.812   9.757   6.832
21668TIP3   OH264880   5.785  10.225   5.795
21668TIP3    H164881   5.822  10.309   5.824
21668TIP3    H264882   5.842  10.202   5.720
21669TIP3   OH264883   6.522   9.667   5.894
21669TIP3    H164884   6.436   9.689   5.934
21669TIP3    H264885   6.537   9.746   5.837
21670TIP3   OH264886   5.648   9.791   6.914
21670TIP3    H164887   5.558   9.763   6.889
21670TIP3    H264888   5.627   9.876   6.956
21671TIP3   OH264889   5.798   9.837   5.882
21671TIP3    H164890   5.762   9.841   5.973
21671TIP3    H264891   5.754   9.756   5.850
21672TIP3   OH264892   5.577  10.317   6.921
21672TIP3    H164893   5.530  10.328   7.007
21672TIP3    H264894   5.567  10.406   6.884
21673TIP3   OH264895   5.465  10.194   6.445
21673TIP3    H164896   5.372  10.169   6.461
21673TIP3    H264897   5.478  10.157   6.355
21674TIP3   OH264898   5.964  10.280   6.170
21674TIP3    H164899   5.883  10.333   6.151
21674TIP3    H264900   6.001  10.266   6.081
21675TIP3   OH264901   6.104  10.310   6.400
21675TIP3    H164902   6.046  10.318   6.322
21675TIP3    H264903   6.150  10.228   6.374
21676TIP3   OH264904   5.432  10.331   7.154
21676TIP3    H164905   5.415  10.399   7.220
21676TIP3    H264906   5.392  10.251   7.194
21677TIP3   OH264907   5.450   9.816   5.852
21677TIP3    H164908   5.440   9.813   5.949
21677TIP3    H264909   5.372   9.870   5.828
21678TIP3   OH264910   4.990   9.858   6.721
21678TIP3    H164911   5.064   9.894   6.774
21678TIP3    H264912   5.033   9.828   6.640
21679TIP3   OH264913   4.966   9.839   6.238
21679TIP3    H164914   5.010   9.880   6.161
21679TIP3    H264915   4.905   9.911   6.264
21680TIP3   OH264916   5.791  10.002   6.508
21680TIP3    H164917   5.704  10.006   6.553
21680TIP3    H264918   5.847  10.049   6.572
21681TIP3   OH264919   5.224  10.078   6.509
21681TIP3    H164920   5.129  10.085   6.486
21681TIP3    H264921   5.246   9.986   6.489
21682TIP3   OH264922   5.500  10.068   6.201
21682TIP3    H164923   5.588  10.097   6.172
21682TIP3    H264924   5.443  10.092   6.124
21683TIP3   OH264925   6.268  10.082   6.708
21683TIP3    H164926   6.231  10.079   6.796
21683TIP3    H264927   6.202  10.027   6.661
21684TIP3   OH264928   5.329  10.084   5.986
21684TIP3    H164929   5.264  10.051   5.922
21684TIP3    H264930   5.378  10.149   5.931
21685TIP3   OH264931   5.867  10.303   6.593
21685TIP3    H164932   5.951  10.309   6.545
21685TIP3    H264933   5.896  10.328   6.682
21686TIP3   OH264934   5.398   9.832   6.484
21686TIP3    H164935   5.363   9.752   6.527
21686TIP3    H264936   5.439   9.797   6.404
21687TIP3   OH264937   5.845  10.241   6.921
21687TIP3    H164938   5.751  10.262   6.903
21687TIP3    H264939   5.886  10.328   6.914
21688TIP3   OH264940   6.043   9.955   5.851
21688TIP3    H164941   5.947   9.935   5.860
21688TIP3    H264942   6.048  10.051   5.869
21689TIP3   OH264943   6.117  10.213   5.936
21689TIP3    H164944   6.210  10.205   5.964
21689TIP3    H264945   6.118  10.300   5.892
21690TIP3   OH264946   6.534  10.263   5.805
21690TIP3    H164947   6.476  10.233   5.731
21690TIP3    H264948   6.562  10.349   5.771
21691TIP3   OH264949   5.371  10.080   7.293
21691TIP3    H164950   5.274  10.083   7.304
21691TIP3    H264951   5.397  10.022   7.366
21692TIP3   OH264952   6.098   9.892   6.126
21692TIP3    H164953   6.072   9.920   6.035
21692TIP3    H264954   6.130   9.976   6.165
21693TIP3   OH264955   5.793  10.069   6.236
21693TIP3    H164956   5.852  10.144   6.219
21693TIP3    H264957   5.784  10.070   6.333
21694TIP3   OH264958   5.927   9.807   6.344
21694TIP3    H164959   5.897   9.886   6.394
21694TIP3    H264960   5.981   9.848   6.274
21695TIP3   OH264961   5.434   9.799   6.129
21695TIP3    H164962   5.428   9.893   6.157
21695TIP3    H264963   5.531   9.786   6.136
21696TIP3   OH264964   4.991   9.996   6.012
21696TIP3    H164965   5.003  10.092   6.006
21696TIP3    H264966   4.902   9.982   5.976
21697TIP3   OH264967   5.385   9.709   6.889
21697TIP3    H164968   5.351   9.681   6.801
21697TIP3    H264969   5.364   9.631   6.943
21698TIP3   OH264970   5.505  10.220   5.828
21698TIP3    H164971   5.477  10.169   5.749
21698TIP3    H264972   5.602  10.217   5.821
21699TIP3   OH264973   5.794  10.046   7.109
21699TIP3    H164974   5.814  10.115   7.043
21699TIP3    H264975   5.696  10.042   7.103
21700TIP3   OH264976   5.928   9.812   7.128
21700TIP3    H164977   5.879   9.898   7.121
21700TIP3    H264978   5.855   9.752   7.149
21701TIP3   OH264979   6.378  10.199   5.589
21701TIP3    H164980   6.358  10.222   5.497
21701TIP3    H264981   6.357  10.103   5.589
21702TIP3   OH264982   6.385  10.457   6.143
21702TIP3    H164983   6.390  10.361   6.130
21702TIP3    H264984   6.384  10.468   6.239
21703TIP3   OH264985   6.330   9.933   5.585
21703TIP3    H164986   6.407   9.899   5.634
21703TIP3    H264987   6.259   9.870   5.608
21704TIP3   OH264988   6.388  10.186   6.040
21704TIP3    H164989   6.428  10.096   6.052
21704TIP3    H264990   6.440  10.216   5.963
21705TIP3   OH264991   5.236  10.208   7.545
21705TIP3    H164992   5.321  10.211   7.591
21705TIP3    H264993   5.191  10.138   7.597
21706TIP3   OH264994   6.489   9.932   6.075
21706TIP3    H164995   6.543   9.917   6.155
21706TIP3    H264996   6.431   9.854   6.077
21707TIP3   OH264997   5.198   9.917   6.897
21707TIP3    H164998   5.267   9.848   6.905
21707TIP3    H264999   5.252   9.997   6.887
21708TIP3   OH265000   5.002  10.202   6.979
21708TIP3    H165001   5.049  10.191   6.893
21708TIP3    H265002   5.013  10.297   6.993
21709TIP3   OH265003   6.576   9.869   5.704
21709TIP3    H165004   6.621   9.799   5.652
21709TIP3    H265005   6.642   9.941   5.701
21710TIP3   OH265006   4.984   9.697   6.468
21710TIP3    H165007   4.891   9.695   6.496
21710TIP3    H265008   4.982   9.755   6.389
21711TIP3   OH265009   5.197   9.764   7.289
21711TIP3    H165010   5.143   9.779   7.368
21711TIP3    H265011   5.139   9.803   7.220
21712TIP3   OH265012   6.059   9.912   6.638
21712TIP3    H165013   5.997   9.850   6.681
21712TIP3    H265014   6.105   9.856   6.575
21713TIP3   OH265015   6.557   9.824   6.545
21713TIP3    H165016   6.597   9.844   6.457
21713TIP3    H265017   6.462   9.814   6.522
21714TIP3   OH265018   6.651   9.882   6.295
21714TIP3    H165019   6.726   9.826   6.265
21714TIP3    H265020   6.684   9.969   6.264
21715TIP3   OH265021   5.294   9.620   6.640
21715TIP3    H165022   5.202   9.588   6.639
21715TIP3    H265023   5.343   9.535   6.636
21716TIP3   OH265024   5.083   9.490   6.288
21716TIP3    H165025   5.111   9.548   6.215
21716TIP3    H265026   5.052   9.555   6.354
21717TIP3   OH265027   5.742   9.650   6.519
21717TIP3    H165028   5.798   9.706   6.464
21717TIP3    H265029   5.749   9.693   6.605
21718TIP3   OH265030   6.286   9.783   6.493
21718TIP3    H165031   6.240   9.766   6.410
21718TIP3    H265032   6.273   9.700   6.543
21719TIP3   OH265033   6.305   9.720   6.068
21719TIP3    H165034   6.231   9.783   6.084
21719TIP3    H265035   6.257   9.636   6.073
21720TIP3   OH265036   5.197   9.651   6.050
21720TIP3    H165037   5.247   9.589   5.994
21720TIP3    H265038   5.270   9.706   6.087
21721TIP3   OH265039   5.712   9.824   6.147
21721TIP3    H165040   5.767   9.777   6.211
21721TIP3    H265041   5.731   9.917   6.173
21722TIP3   OH265042   5.502   9.887   7.527
21722TIP3    H165043   5.488   9.820   7.596
21722TIP3    H265044   5.598   9.900   7.530
21723TIP3   OH265045   6.759  10.404   5.909
21723TIP3    H165046   6.748  10.472   5.978
21723TIP3    H265047   6.689  10.341   5.931
21724TIP3   OH265048   7.602  10.089   5.352
21724TIP3    H165049   7.580  10.112   5.442
21724TIP3    H265050   7.552  10.006   5.338
21725TIP3   OH265051   7.244  10.072   5.334
21725TIP3    H165052   7.234  10.066   5.431
21725TIP3    H265053   7.170  10.131   5.312
21726TIP3   OH265054   6.755  10.085   6.158
21726TIP3    H165055   6.829  10.134   6.197
21726TIP3    H265056   6.800  10.046   6.082
21727TIP3   OH265057   6.760  10.097   5.722
21727TIP3    H165058   6.805  10.139   5.646
21727TIP3    H265059   6.709  10.173   5.756
21728TIP3   OH265060   7.133  10.315   5.482
21728TIP3    H165061   7.061  10.300   5.418
21728TIP3    H265062   7.184  10.385   5.436
21729TIP3   OH265063   7.218  10.043   5.608
21729TIP3    H165064   7.192  10.124   5.654
21729TIP3    H265065   7.300  10.019   5.654
21730TIP3   OH265066   6.789  10.253   5.496
21730TIP3    H165067   6.803  10.349   5.497
21730TIP3    H265068   6.701  10.243   5.461
21731TIP3   OH265069   7.297  10.464   5.324
21731TIP3    H165070   7.260  10.429   5.240
21731TIP3    H265071   7.386  10.489   5.298
21732TIP3   OH265072   6.770   9.929   5.931
21732TIP3    H165073   6.680   9.946   5.965
21732TIP3    H265074   6.778   9.996   5.860
21733TIP3   OH265075   7.069   9.856   6.060
21733TIP3    H165076   6.979   9.826   6.081
21733TIP3    H265077   7.123   9.780   6.087
21734TIP3   OH265078   6.878   9.735   5.765
21734TIP3    H165079   6.910   9.796   5.696
21734TIP3    H265080   6.847   9.800   5.833
21735TIP3   OH265081   6.989   9.899   5.535
21735TIP3    H165082   7.037   9.838   5.475
21735TIP3    H265083   7.062   9.955   5.567
21736TIP3   OH265084   6.778   2.150   9.529
21736TIP3    H165085   6.791   2.246   9.510
21736TIP3    H265086   6.869   2.116   9.515
21737TIP3   OH265087   6.258   2.362   9.631
21737TIP3    H165088   6.328   2.295   9.617
21737TIP3    H265089   6.271   2.386   9.723
21738TIP3   OH265090   6.554   1.613   9.677
21738TIP3    H165091   6.515   1.564   9.602
21738TIP3    H265092   6.643   1.632   9.643
21739TIP3   OH265093   6.763   2.198   9.795
21739TIP3    H165094   6.688   2.146   9.827
21739TIP3    H265095   6.761   2.178   9.700
21740TIP3   OH265096   6.815   2.422   9.518
21740TIP3    H165097   6.861   2.496   9.473
21740TIP3    H265098   6.731   2.469   9.539
21741TIP3   OH265099   5.985   2.105   9.593
21741TIP3    H165100   5.940   2.053   9.661
21741TIP3    H265101   6.072   2.061   9.590
21742TIP3   OH265102   6.437   2.161   9.507
21742TIP3    H165103   6.486   2.182   9.589
21742TIP3    H265104   6.503   2.173   9.436
21743TIP3   OH265105   6.791   1.681   9.555
21743TIP3    H165106   6.769   1.629   9.476
21743TIP3    H265107   6.758   1.769   9.528
21744TIP3   OH265108   6.809   2.499   9.801
21744TIP3    H165109   6.825   2.410   9.764
21744TIP3    H265110   6.746   2.537   9.736
21745TIP3   OH265111   7.594   2.162   9.203
21745TIP3    H165112   7.654   2.095   9.168
21745TIP3    H265113   7.644   2.195   9.281
21746TIP3   OH265114   7.527   2.448   9.447
21746TIP3    H165115   7.530   2.524   9.385
21746TIP3    H265116   7.585   2.477   9.517
21747TIP3   OH265117   7.301   2.106   9.449
21747TIP3    H165118   7.330   2.178   9.506
21747TIP3    H265119   7.362   2.112   9.375
21748TIP3   OH265120   7.775   2.372   9.071
21748TIP3    H165121   7.741   2.361   9.162
21748TIP3    H265122   7.866   2.337   9.085
21749TIP3   OH265123   7.570   2.668   9.292
21749TIP3    H165124   7.664   2.654   9.272
21749TIP3    H265125   7.540   2.715   9.212
21750TIP3   OH265126   7.030   2.052   9.488
21750TIP3    H165127   7.126   2.071   9.496
21750TIP3    H265128   7.032   1.960   9.455
21751TIP3   OH265129   7.002   2.654   9.912
21751TIP3    H165130   6.925   2.608   9.873
21751TIP3    H265131   7.016   2.601   9.994
21752TIP3   OH265132   7.062   2.417   9.655
21752TIP3    H165133   6.979   2.398   9.608
21752TIP3    H265134   7.052   2.511   9.675
21753TIP3   OH265135   7.821   2.606   9.190
21753TIP3    H165136   7.801   2.695   9.143
21753TIP3    H265137   7.794   2.536   9.114
21754TIP3   OH265138   7.132   2.461   9.302
21754TIP3    H165139   7.130   2.482   9.396
21754TIP3    H265140   7.221   2.421   9.291
21755TIP3   OH265141   4.616   3.706   9.625
21755TIP3    H165142   4.605   3.802   9.615
21755TIP3    H265143   4.711   3.693   9.604
21756TIP3   OH265144   4.609   3.986   9.650
21756TIP3    H165145   4.679   4.038   9.607
21756TIP3    H265146   4.542   4.055   9.660
21757TIP3   OH265147   5.950   3.531   9.959
21757TIP3    H165148   5.955   3.619   9.914
21757TIP3    H265149   5.955   3.476   9.878
21758TIP3   OH265150   6.311   3.843  10.015
21758TIP3    H165151   6.312   3.790  10.096
21758TIP3    H265152   6.336   3.930  10.048
21759TIP3   OH265153   5.968   4.309  10.035
21759TIP3    H165154   6.024   4.247   9.982
21759TIP3    H265155   6.012   4.306  10.121
21760TIP3   OH265156   5.956   3.764   9.830
21760TIP3    H165157   5.944   3.752   9.734
21760TIP3    H265158   5.924   3.857   9.839
21761TIP3   OH265159   6.108   4.150   9.866
21761TIP3    H165160   6.151   4.067   9.835
21761TIP3    H265161   6.163   4.216   9.817
21762TIP3   OH265162   6.234   3.929   9.759
21762TIP3    H165163   6.210   3.849   9.712
21762TIP3    H265164   6.272   3.892   9.841
21763TIP3   OH265165   5.931   3.407   9.716
21763TIP3    H165166   5.843   3.443   9.697
21763TIP3    H265167   5.984   3.447   9.642
21764TIP3   OH265168   5.869   3.182   9.508
21764TIP3    H165169   5.926   3.247   9.551
21764TIP3    H265170   5.934   3.135   9.451
21765TIP3   OH265171   6.246   3.448   9.790
21765TIP3    H165172   6.230   3.491   9.876
21765TIP3    H265173   6.342   3.451   9.784
21766TIP3   OH265174   5.858   4.017   9.854
21766TIP3    H165175   5.925   4.086   9.872
21766TIP3    H265176   5.783   4.068   9.822
21767TIP3   OH265177   6.619   2.590   9.623
21767TIP3    H165178   6.533   2.605   9.667
21767TIP3    H265179   6.630   2.673   9.572
21768TIP3   OH265180   6.416   3.958   9.180
21768TIP3    H165181   6.426   4.054   9.162
21768TIP3    H265182   6.507   3.927   9.163
21769TIP3   OH265183   5.733   4.282   9.652
21769TIP3    H165184   5.677   4.258   9.577
21769TIP3    H265185   5.688   4.360   9.689
21770TIP3   OH265186   5.932   4.177   9.295
21770TIP3    H165187   5.988   4.104   9.262
21770TIP3    H265188   5.962   4.185   9.388
21771TIP3   OH265189   5.981   4.223   9.563
21771TIP3    H165190   5.892   4.237   9.605
21771TIP3    H265191   6.030   4.183   9.636
21772TIP3   OH265192   5.881   2.798   9.608
21772TIP3    H165193   5.903   2.803   9.702
21772TIP3    H265194   5.893   2.702   9.595
21773TIP3   OH265195   6.063   3.211   9.870
21773TIP3    H165196   6.028   3.282   9.812
21773TIP3    H265197   6.127   3.172   9.806
21774TIP3   OH265198   5.530   2.743   9.611
21774TIP3    H165199   5.552   2.806   9.682
21774TIP3    H265200   5.462   2.793   9.562
21775TIP3   OH265201   5.434   3.008   9.697
21775TIP3    H165202   5.365   2.979   9.635
21775TIP3    H265203   5.479   3.076   9.643
21776TIP3   OH265204   5.672   3.559   9.728
21776TIP3    H165205   5.606   3.492   9.701
21776TIP3    H265206   5.670   3.545   9.824
21777TIP3   OH265207   6.144   2.886   9.582
21777TIP3    H165208   6.047   2.889   9.573
21777TIP3    H265209   6.167   2.980   9.600
21778TIP3   OH265210   6.233   3.138   9.663
21778TIP3    H165211   6.323   3.134   9.701
21778TIP3    H265212   6.235   3.223   9.616
21779TIP3   OH265213   5.826   3.722   9.567
21779TIP3    H165214   5.776   3.807   9.568
21779TIP3    H265215   5.766   3.662   9.615
21780TIP3   OH265216   6.656   3.211   9.531
21780TIP3    H165217   6.596   3.167   9.467
21780TIP3    H265218   6.651   3.301   9.493
21781TIP3   OH265219   6.352   4.031   9.439
21781TIP3    H165220   6.344   3.956   9.500
21781TIP3    H265221   6.375   3.988   9.355
21782TIP3   OH265222   5.418   4.095   9.861
21782TIP3    H165223   5.331   4.126   9.891
21782TIP3    H265224   5.471   4.175   9.879
21783TIP3   OH265225   6.451   4.235   9.161
21783TIP3    H165226   6.492   4.309   9.114
21783TIP3    H265227   6.371   4.280   9.195
21784TIP3   OH265228   5.473   3.742   9.344
21784TIP3    H165229   5.497   3.654   9.311
21784TIP3    H265230   5.454   3.722   9.438
21785TIP3   OH265231   5.428   3.738   9.623
21785TIP3    H165232   5.515   3.724   9.662
21785TIP3    H265233   5.424   3.837   9.617
21786TIP3   OH265234   6.109   2.845   9.849
21786TIP3    H165235   6.127   2.842   9.753
21786TIP3    H265236   6.196   2.876   9.883
21787TIP3   OH265237   5.685   3.952   9.571
21787TIP3    H165238   5.593   3.976   9.592
21787TIP3    H265239   5.705   4.015   9.500
21788TIP3   OH265240   5.423   4.009   9.606
21788TIP3    H165241   5.394   4.086   9.552
21788TIP3    H265242   5.415   4.046   9.697
21789TIP3   OH265243   5.149   3.650   9.611
21789TIP3    H165244   5.216   3.720   9.612
21789TIP3    H265245   5.193   3.586   9.552
21790TIP3   OH265246   6.412   4.369  10.081
21790TIP3    H165247   6.361   4.424  10.019
21790TIP3    H265248   6.501   4.410  10.072
21791TIP3   OH265249   5.641   3.941   9.257
21791TIP3    H165250   5.582   3.873   9.297
21791TIP3    H265251   5.716   3.885   9.231
21792TIP3   OH265252   6.082   3.981   9.164
21792TIP3    H165253   6.150   3.940   9.218
21792TIP3    H265254   6.127   3.986   9.077
21793TIP3   OH265255   5.287   3.458   9.471
21793TIP3    H165256   5.338   3.423   9.547
21793TIP3    H265257   5.357   3.461   9.403
21794TIP3   OH265258   5.787   3.660   9.286
21794TIP3    H165259   5.823   3.671   9.376
21794TIP3    H265260   5.793   3.563   9.277
21795TIP3   OH265261   5.476   3.365   9.674
21795TIP3    H165262   5.479   3.326   9.763
21795TIP3    H265263   5.518   3.294   9.621
21796TIP3   OH265264   5.597   3.156   9.540
21796TIP3    H165265   5.570   3.158   9.445
21796TIP3    H265266   5.695   3.162   9.529
21797TIP3   OH265267   6.449   3.495   9.179
21797TIP3    H165268   6.388   3.437   9.130
21797TIP3    H265269   6.402   3.580   9.168
21798TIP3   OH265270   5.403   4.228   9.440
21798TIP3    H165271   5.498   4.222   9.420
21798TIP3    H265272   5.371   4.274   9.360
21799TIP3   OH265273   4.872   3.622   9.590
21799TIP3    H165274   4.961   3.642   9.627
21799TIP3    H265275   4.878   3.525   9.581
21800TIP3   OH265276   6.665   4.475  10.068
21800TIP3    H165277   6.699   4.550  10.119
21800TIP3    H265278   6.704   4.497   9.982
21801TIP3   OH265279   6.568   3.678   9.525
21801TIP3    H165280   6.642   3.739   9.507
21801TIP3    H265281   6.598   3.637   9.609
21802TIP3   OH265282   6.680   3.544   9.737
21802TIP3    H165283   6.616   3.501   9.798
21802TIP3    H265284   6.746   3.582   9.798
21803TIP3   OH265285   6.712   3.930  10.090
21803TIP3    H165286   6.794   3.875  10.083
21803TIP3    H265287   6.742   4.014  10.050
21804TIP3   OH265288   6.617   3.447   9.386
21804TIP3    H165289   6.550   3.454   9.313
21804TIP3    H265290   6.590   3.525   9.439
21805TIP3   OH265291   6.494   3.120   9.335
21805TIP3    H165292   6.442   3.167   9.269
21805TIP3    H265293   6.464   3.028   9.321
21806TIP3   OH265294   6.505   3.396   9.888
21806TIP3    H165295   6.500   3.303   9.859
21806TIP3    H265296   6.466   3.394   9.976
21807TIP3   OH265297   6.433   2.853   9.320
21807TIP3    H165298   6.505   2.825   9.381
21807TIP3    H265299   6.356   2.800   9.348
21808TIP3   OH265300   6.506   3.137   9.760
21808TIP3    H165301   6.541   3.048   9.775
21808TIP3    H265302   6.560   3.165   9.683
21809TIP3   OH265303   6.598   2.869   9.815
21809TIP3    H165304   6.647   2.865   9.901
21809TIP3    H265305   6.556   2.781   9.809
21810TIP3   OH265306   6.679   2.800   9.452
21810TIP3    H165307   6.721   2.729   9.398
21810TIP3    H265308   6.743   2.872   9.445
21811TIP3   OH265309   6.237   4.327   9.712
21811TIP3    H165310   6.298   4.320   9.635
21811TIP3    H265311   6.279   4.397   9.766
21812TIP3   OH265312   6.406   2.647   9.788
21812TIP3    H165313   6.320   2.692   9.784
21812TIP3    H265314   6.410   2.620   9.882
21813TIP3   OH265315   4.888   4.007   9.709
21813TIP3    H165316   4.825   3.955   9.763
21813TIP3    H265317   4.848   4.096   9.704
21814TIP3   OH265318   5.669   4.181   9.386
21814TIP3    H165319   5.758   4.202   9.352
21814TIP3    H265320   5.647   4.104   9.329
21815TIP3   OH265321   6.391   4.298   9.483
21815TIP3    H165322   6.379   4.200   9.471
21815TIP3    H265323   6.345   4.331   9.403
21816TIP3   OH265324   4.975   4.020   9.450
21816TIP3    H165325   4.959   4.014   9.547
21816TIP3    H265326   5.064   3.979   9.443
21817TIP3   OH265327   7.877   3.821   9.449
21817TIP3    H165328   7.849   3.910   9.418
21817TIP3    H265329   7.806   3.766   9.409
21818TIP3   OH265330   7.799   3.814   9.806
21818TIP3    H165331   7.872   3.796   9.866
21818TIP3    H265332   7.836   3.794   9.719
21819TIP3   OH265333   7.190   3.733  10.190
21819TIP3    H165334   7.200   3.673  10.266
21819TIP3    H265335   7.278   3.728  10.148
21820TIP3   OH265336   8.125   4.117   9.493
21820TIP3    H165337   8.121   4.051   9.563
21820TIP3    H265338   8.147   4.198   9.544
21821TIP3   OH265339   7.150   4.123   9.918
21821TIP3    H165340   7.142   4.025   9.914
21821TIP3    H265341   7.245   4.133   9.898
21822TIP3   OH265342   6.859   3.328   9.689
21822TIP3    H165343   6.810   3.411   9.706
21822TIP3    H265344   6.788   3.271   9.659
21823TIP3   OH265345   6.918   3.607   9.861
21823TIP3    H165346   6.963   3.532   9.906
21823TIP3    H265347   6.979   3.626   9.789
21824TIP3   OH265348   7.768   4.578   9.512
21824TIP3    H165349   7.818   4.506   9.468
21824TIP3    H265350   7.767   4.550   9.604
21825TIP3   OH265351   7.656   4.040   9.874
21825TIP3    H165352   7.689   3.954   9.840
21825TIP3    H265353   7.736   4.095   9.866
21826TIP3   OH265354   7.402   3.211   9.874
21826TIP3    H165355   7.379   3.282   9.812
21826TIP3    H265356   7.367   3.133   9.828
21827TIP3   OH265357   7.062   3.407   9.973
21827TIP3    H165358   7.136   3.381  10.031
21827TIP3    H265359   7.078   3.349   9.896
21828TIP3   OH265360   7.493   3.597   9.763
21828TIP3    H165361   7.584   3.566   9.763
21828TIP3    H265362   7.446   3.518   9.729
21829TIP3   OH265363   7.776   4.037   9.308
21829TIP3    H165364   7.730   4.013   9.226
21829TIP3    H265365   7.731   4.121   9.330
21830TIP3   OH265366   7.518   3.961  10.101
21830TIP3    H165367   7.459   4.032  10.128
21830TIP3    H265368   7.571   4.003  10.030
21831TIP3   OH265369   7.289   3.324  10.097
21831TIP3    H165370   7.362   3.386  10.109
21831TIP3    H265371   7.329   3.261  10.035
21832TIP3   OH265372   6.768   3.849   9.428
21832TIP3    H165373   6.714   3.873   9.351
21832TIP3    H265374   6.793   3.937   9.464
21833TIP3   OH265375   8.174   4.346   9.650
21833TIP3    H165376   8.094   4.344   9.707
21833TIP3    H265377   8.176   4.439   9.620
21834TIP3   OH265378   7.899   4.404   9.346
21834TIP3    H165379   7.949   4.323   9.320
21834TIP3    H265380   7.956   4.472   9.302
21835TIP3   OH265381   8.040   4.191   9.243
21835TIP3    H165382   7.996   4.112   9.209
21835TIP3    H265383   8.077   4.158   9.328
21836TIP3   OH265384   7.716   3.676   9.268
21836TIP3    H165385   7.632   3.722   9.246
21836TIP3    H265386   7.757   3.668   9.180
21837TIP3   OH265387   7.670   3.451   8.983
21837TIP3    H165388   7.738   3.500   9.033
21837TIP3    H265389   7.727   3.388   8.935
21838TIP3   OH265390   8.046   3.746   9.244
21838TIP3    H165391   7.992   3.776   9.321
21838TIP3    H265392   8.126   3.715   9.289
21839TIP3   OH265393   7.291   3.749   9.651
21839TIP3    H165394   7.249   3.689   9.585
21839TIP3    H265395   7.365   3.694   9.684
21840TIP3   OH265396   7.408   4.156   9.804
21840TIP3    H165397   7.393   4.113   9.719
21840TIP3    H265398   7.497   4.122   9.829
21841TIP3   OH265399   7.418   3.717  10.021
21841TIP3    H165400   7.455   3.694   9.933
21841TIP3    H265401   7.469   3.798  10.044
21842TIP3   OH265402   7.957   4.349   9.822
21842TIP3    H165403   7.936   4.445   9.822
21842TIP3    H265404   7.901   4.318   9.895
21843TIP3   OH265405   7.898   3.603   9.064
21843TIP3    H165406   7.955   3.661   9.118
21843TIP3    H265407   7.925   3.630   8.973
21844TIP3   OH265408   7.645   4.286   9.340
21844TIP3    H165409   7.722   4.342   9.359
21844TIP3    H265410   7.580   4.349   9.306
21845TIP3   OH265411   7.160   3.589   9.457
21845TIP3    H165412   7.091   3.633   9.403
21845TIP3    H265413   7.117   3.505   9.478
21846TIP3   OH265414   8.214   4.215   8.661
21846TIP3    H165415   8.222   4.313   8.650
21846TIP3    H265416   8.307   4.187   8.650
21847TIP3   OH265417   6.800   4.179   9.994
21847TIP3    H165418   6.896   4.174   9.984
21847TIP3    H265419   6.790   4.257  10.052
21848TIP3   OH265420   7.524   4.534   9.144
21848TIP3    H165421   7.477   4.516   9.061
21848TIP3    H265422   7.493   4.623   9.169
21849TIP3   OH265423   6.962   4.382   9.527
21849TIP3    H165424   7.011   4.373   9.612
21849TIP3    H265425   6.906   4.303   9.530
21850TIP3   OH265426   7.726   4.433   8.784
21850TIP3    H165427   7.785   4.363   8.749
21850TIP3    H265428   7.759   4.443   8.876
21851TIP3   OH265429   7.776   4.481   9.053
21851TIP3    H165430   7.687   4.492   9.096
21851TIP3    H265431   7.827   4.443   9.126
21852TIP3   OH265432   7.970   3.659   8.808
21852TIP3    H165433   7.944   3.626   8.720
21852TIP3    H265434   8.056   3.700   8.787
21853TIP3   OH265435   7.694   3.028   9.108
21853TIP3    H165436   7.667   3.036   9.201
21853TIP3    H265437   7.645   2.948   9.082
21854TIP3   OH265438   7.347   3.387   9.669
21854TIP3    H165439   7.256   3.356   9.687
21854TIP3    H265440   7.366   3.341   9.584
21855TIP3   OH265441   7.845   3.464   9.392
21855TIP3    H165442   7.795   3.539   9.354
21855TIP3    H265443   7.901   3.436   9.317
21856TIP3   OH265444   7.346   3.001   9.081
21856TIP3    H165445   7.336   2.998   9.178
21856TIP3    H265446   7.267   3.052   9.055
21857TIP3   OH265447   6.911   3.071   9.919
21857TIP3    H165448   6.998   3.092   9.955
21857TIP3    H265449   6.931   3.010   9.845
21858TIP3   OH265450   6.860   3.028   9.468
21858TIP3    H165451   6.905   3.068   9.390
21858TIP3    H265452   6.800   3.102   9.491
21859TIP3   OH265453   7.629   3.259   9.716
21859TIP3    H165454   7.552   3.223   9.764
21859TIP3    H265455   7.699   3.233   9.778
21860TIP3   OH265456   7.118   3.260   9.744
21860TIP3    H165457   7.023   3.270   9.719
21860TIP3    H265458   7.140   3.169   9.718
21861TIP3   OH265459   7.385   3.251   9.432
21861TIP3    H165460   7.480   3.268   9.414
21861TIP3    H265461   7.341   3.279   9.349
21862TIP3   OH265462   7.230   3.289   9.210
21862TIP3    H165463   7.157   3.245   9.163
21862TIP3    H265464   7.282   3.324   9.135
21863TIP3   OH265465   7.295   3.025   9.702
21863TIP3    H165466   7.263   2.943   9.747
21863TIP3    H265467   7.327   2.990   9.618
21864TIP3   OH265468   7.482   3.820   9.217
21864TIP3    H165469   7.409   3.755   9.207
21864TIP3    H265470   7.465   3.854   9.308
21865TIP3   OH265471   7.938   3.145   9.057
21865TIP3    H165472   7.843   3.130   9.079
21865TIP3    H265473   7.960   3.229   9.103
21866TIP3   OH265474   8.029   3.380   9.177
21866TIP3    H165475   8.126   3.382   9.172
21866TIP3    H265476   8.004   3.457   9.122
21867TIP3   OH265477   7.181   3.850   9.887
21867TIP3    H165478   7.219   3.817   9.803
21867TIP3    H265479   7.212   3.784   9.950
21868TIP3   OH265480   7.626   3.968   9.037
21868TIP3    H165481   7.580   4.055   9.044
21868TIP3    H265482   7.572   3.914   9.097
21869TIP3   OH265483   8.469   3.430   8.911
21869TIP3    H165484   8.377   3.402   8.917
21869TIP3    H265485   8.458   3.527   8.905
21870TIP3   OH265486   8.156   4.288   8.928
21870TIP3    H165487   8.126   4.220   8.991
21870TIP3    H265488   8.165   4.239   8.845
21871TIP3   OH265489   7.275   4.143   9.515
21871TIP3    H165490   7.275   4.227   9.465
21871TIP3    H265491   7.181   4.130   9.531
21872TIP3   OH265492   6.837   3.450   9.221
21872TIP3    H165493   6.883   3.533   9.243
21872TIP3    H265494   6.759   3.455   9.281
21873TIP3   OH265495   7.418   3.912   9.463
21873TIP3    H165496   7.379   4.001   9.480
21873TIP3    H265497   7.378   3.861   9.536
21874TIP3   OH265498   7.551   4.481   9.963
21874TIP3    H165499   7.594   4.561   9.931
21874TIP3    H265500   7.609   4.452  10.035
21875TIP3   OH265501   7.195   4.384   9.371
21875TIP3    H165502   7.110   4.391   9.417
21875TIP3    H265503   7.227   4.477   9.375
21876TIP3   OH265504   7.907   4.017   8.829
21876TIP3    H165505   7.960   3.990   8.907
21876TIP3    H265506   7.819   3.989   8.858
21877TIP3   OH265507   8.249   4.492   8.650
21877TIP3    H165508   8.286   4.566   8.599
21877TIP3    H265509   8.168   4.536   8.684
21878TIP3   OH265510   8.062   3.947   9.045
21878TIP3    H165511   8.057   3.882   9.118
21878TIP3    H265512   8.158   3.946   9.026
21879TIP3   OH265513   6.986   4.371  10.130
21879TIP3    H165514   7.032   4.287  10.143
21879TIP3    H265515   7.014   4.416  10.211
21880TIP3   OH265516   7.274   3.995   8.827
21880TIP3    H165517   7.289   3.903   8.801
21880TIP3    H265518   7.256   3.986   8.923
21881TIP3   OH265519   7.221   4.001   9.098
21881TIP3    H165520   7.288   3.973   9.162
21881TIP3    H265521   7.224   4.099   9.108
21882TIP3   OH265522   6.956   3.694   9.302
21882TIP3    H165523   6.892   3.739   9.361
21882TIP3    H265524   6.969   3.764   9.236
21883TIP3   OH265525   7.910   3.081   9.336
21883TIP3    H165526   7.929   3.093   9.242
21883TIP3    H265527   7.999   3.098   9.373
21884TIP3   OH265528   7.485   4.200   9.048
21884TIP3    H165529   7.398   4.225   9.085
21884TIP3    H265530   7.503   4.277   8.992
21885TIP3   OH265531   7.660   3.264   9.447
21885TIP3    H165532   7.737   3.323   9.430
21885TIP3    H265533   7.653   3.270   9.545
21886TIP3   OH265534   7.228   4.274   9.117
21886TIP3    H165535   7.198   4.344   9.055
21886TIP3    H265536   7.212   4.317   9.204
21887TIP3   OH265537   7.332   2.988   9.359
21887TIP3    H165538   7.327   3.080   9.390
21887TIP3    H265539   7.428   2.972   9.367
21888TIP3   OH265540   6.946   3.905   9.110
21888TIP3    H165541   7.011   3.977   9.120
21888TIP3    H265542   6.992   3.851   9.043
21889TIP3   OH265543   6.891   3.180   9.239
21889TIP3    H165544   6.889   3.277   9.239
21889TIP3    H265545   6.803   3.158   9.208
21890TIP3   OH265546   8.210   4.617   9.585
21890TIP3    H165547   8.168   4.672   9.515
21890TIP3    H265548   8.304   4.633   9.568
21891TIP3   OH265549   6.818   4.122   9.499
21891TIP3    H165550   6.747   4.152   9.557
21891TIP3    H265551   6.791   4.161   9.413
21892TIP3   OH265552   7.435   4.200   8.739
21892TIP3    H165553   7.379   4.131   8.781
21892TIP3    H265554   7.512   4.147   8.714
21893TIP3   OH265555   7.873   4.240   8.652
21893TIP3    H165556   7.915   4.176   8.712
21893TIP3    H265557   7.933   4.241   8.576
21894TIP3   OH265558   7.083   3.719   8.962
21894TIP3    H165559   7.135   3.684   9.036
21894TIP3    H265560   7.152   3.722   8.892
21895TIP3   OH265561   7.591   3.915   8.768
21895TIP3    H165562   7.593   3.929   8.865
21895TIP3    H265563   7.590   3.817   8.764
21896TIP3   OH265564   7.291   3.621   9.185
21896TIP3    H165565   7.262   3.582   9.270
21896TIP3    H265566   7.325   3.542   9.137
21897TIP3   OH265567   7.391   3.413   9.025
21897TIP3    H165568   7.364   3.417   8.931
21897TIP3    H265569   7.488   3.421   9.017
21898TIP3   OH265570   8.209   3.746   8.685
21898TIP3    H165571   8.187   3.699   8.603
21898TIP3    H265572   8.177   3.836   8.661
21899TIP3   OH265573   7.197   4.475   8.928
21899TIP3    H165574   7.293   4.472   8.910
21899TIP3    H265575   7.167   4.526   8.851
21900TIP3   OH265576   6.675   3.861   9.140
21900TIP3    H165577   6.771   3.881   9.133
21900TIP3    H265578   6.671   3.771   9.102
21901TIP3   OH265579   6.593   4.470   9.557
21901TIP3    H165580   6.524   4.409   9.524
21901TIP3    H265581   6.636   4.414   9.625
21902TIP3   OH265582   6.726   4.322   9.745
21902TIP3    H165583   6.717   4.250   9.810
21902TIP3    H265584   6.784   4.383   9.794
21903TIP3   OH265585   8.472   4.727   9.547
21903TIP3    H165586   8.458   4.759   9.639
21903TIP3    H265587   8.459   4.807   9.494
21904TIP3   OH265588   8.339   3.935   9.007
21904TIP3    H165589   8.417   3.993   8.993
21904TIP3    H265590   8.345   3.915   9.103
21905TIP3   OH265591   8.345   3.822   9.260
21905TIP3    H165592   8.364   3.732   9.229
21905TIP3    H265593   8.437   3.854   9.273
21906TIP3   OH265594   8.412   3.706   8.864
21906TIP3    H165595   8.339   3.711   8.799
21906TIP3    H265596   8.387   3.782   8.921
21907TIP3   OH265597   8.208   3.389   8.830
21907TIP3    H165598   8.233   3.422   8.743
21907TIP3    H265599   8.213   3.292   8.817
21908TIP3   OH265600   6.935   3.774  10.084
21908TIP3    H165601   6.928   3.719  10.003
21908TIP3    H265602   7.026   3.754  10.113
21909TIP3   OH265603   8.225   3.116   8.823
21909TIP3    H165604   8.302   3.058   8.831
21909TIP3    H265605   8.149   3.055   8.824
21910TIP3   OH265606   6.877   2.889   9.698
21910TIP3    H165607   6.782   2.884   9.718
21910TIP3    H265608   6.879   2.944   9.617
21911TIP3   OH265609   8.038   4.586   9.203
21911TIP3    H165610   8.092   4.577   9.122
21911TIP3    H265611   8.085   4.657   9.250
21912TIP3   OH265612   7.213   4.633   9.997
21912TIP3    H165613   7.164   4.683  10.062
21912TIP3    H265614   7.215   4.692   9.920
21913TIP3   OH265615   7.657   4.707   9.817
21913TIP3    H165616   7.585   4.708   9.750
21913TIP3    H265617   7.651   4.796   9.853
21914TIP3   OH265618   7.920   4.614   9.844
21914TIP3    H165619   7.832   4.657   9.836
21914TIP3    H265620   7.980   4.690   9.828
21915TIP3   OH265621   8.097   4.813   9.781
21915TIP3    H165622   8.106   4.906   9.750
21915TIP3    H265623   8.149   4.764   9.716
21916TIP3   OH265624   6.902   4.477   9.892
21916TIP3    H165625   6.929   4.458   9.985
21916TIP3    H265626   6.980   4.439   9.846
21917TIP3   OH265627   7.102   4.346   9.758
21917TIP3    H165628   7.118   4.266   9.812
21917TIP3    H265629   7.191   4.388   9.760
21918TIP3   OH265630   7.364   4.444   9.760
21918TIP3    H165631   7.397   4.353   9.756
21918TIP3    H265632   7.400   4.469   9.848
21919TIP3   OH265633   7.211   2.809   9.835
21919TIP3    H165634   7.127   2.759   9.850
21919TIP3    H265635   7.254   2.800   9.922
21920TIP3   OH265636   6.965   2.677   9.507
21920TIP3    H165637   7.002   2.735   9.439
21920TIP3    H265638   6.948   2.739   9.580
21921TIP3   OH265639   6.696   4.246   9.294
21921TIP3    H165640   6.610   4.214   9.260
21921TIP3    H265641   6.683   4.342   9.282
21922TIP3   OH265642   7.094   2.839   9.279
21922TIP3    H165643   7.143   2.775   9.224
21922TIP3    H265644   7.167   2.892   9.316
21923TIP3   OH265645   7.613   3.006   9.378
21923TIP3    H165646   7.696   2.968   9.408
21923TIP3    H265647   7.628   3.100   9.402
21924TIP3   OH265648   7.466   4.436   8.878
21924TIP3    H165649   7.554   4.459   8.842
21924TIP3    H265650   7.444   4.361   8.818
21925TIP3   OH265651   8.187   4.555   8.971
21925TIP3    H165652   8.177   4.458   8.957
21925TIP3    H265653   8.140   4.590   8.892
21926TIP3   OH265654   6.770   4.275   8.936
21926TIP3    H165655   6.768   4.299   9.029
21926TIP3    H265656   6.858   4.233   8.926
21927TIP3   OH265657   8.554   4.099   8.920
21927TIP3    H165658   8.512   4.120   8.834
21927TIP3    H265659   8.580   4.187   8.953
21928TIP3   OH265660   9.308   4.782   8.625
21928TIP3    H165661   9.256   4.768   8.544
21928TIP3    H265662   9.270   4.865   8.660
21929TIP3   OH265663   8.761   4.636   9.012
21929TIP3    H165664   8.811   4.611   9.090
21929TIP3    H265665   8.693   4.567   9.011
21930TIP3   OH265666   9.519   4.684   8.255
21930TIP3    H165667   9.579   4.610   8.230
21930TIP3    H265668   9.545   4.700   8.348
21931TIP3   OH265669   9.549   4.741   8.519
21931TIP3    H165670   9.463   4.762   8.562
21931TIP3    H265671   9.583   4.677   8.582
21932TIP3   OH265672   9.362   4.226   8.518
21932TIP3    H165673   9.318   4.312   8.538
21932TIP3    H265674   9.361   4.182   8.605
21933TIP3   OH265675   9.016   4.465   9.044
21933TIP3    H165676   9.045   4.498   8.958
21933TIP3    H265677   8.985   4.376   9.022
21934TIP3   OH265678   8.634   3.714   8.701
21934TIP3    H165679   8.681   3.795   8.731
21934TIP3    H265680   8.561   3.709   8.767
21935TIP3   OH265681   8.987   4.649   8.838
21935TIP3    H165682   8.905   4.651   8.892
21935TIP3    H265683   9.022   4.739   8.856
21936TIP3   OH265684   9.954   4.730   8.068
21936TIP3    H165685  10.039   4.774   8.066
21936TIP3    H265686   9.912   4.776   8.142
21937TIP3   OH265687   9.067   4.250   8.313
21937TIP3    H165688   9.082   4.157   8.287
21937TIP3    H265689   9.058   4.240   8.410
21938TIP3   OH265690   9.029   4.259   8.590
21938TIP3    H165691   9.058   4.246   8.681
21938TIP3    H265692   9.021   4.357   8.587
21939TIP3   OH265693   8.755   3.951   8.774
21939TIP3    H165694   8.707   3.981   8.853
21939TIP3    H265695   8.756   4.032   8.721
21940TIP3   OH265696   9.273   4.476   8.556
21940TIP3    H165697   9.183   4.503   8.583
21940TIP3    H265698   9.294   4.546   8.493
21941TIP3   OH265699   9.008   4.529   8.597
21941TIP3    H165700   8.983   4.600   8.534
21941TIP3    H265701   8.995   4.575   8.683
21942TIP3   OH265702   8.742   4.168   8.597
21942TIP3    H165703   8.800   4.245   8.598
21942TIP3    H265704   8.788   4.112   8.530
21943TIP3   OH265705   8.657   3.424   8.674
21943TIP3    H165706   8.692   3.509   8.706
21943TIP3    H265707   8.609   3.398   8.755
21944TIP3   OH265708   8.613   4.378   8.995
21944TIP3    H165709   8.536   4.410   9.043
21944TIP3    H265710   8.593   4.413   8.905
21945TIP3   OH265711   9.228   4.456   8.228
21945TIP3    H165712   9.171   4.386   8.267
21945TIP3    H265713   9.304   4.402   8.200
21946TIP3   OH265714   9.675   4.483   8.143
21946TIP3    H165715   9.748   4.436   8.184
21946TIP3    H265716   9.713   4.503   8.054
21947TIP3   OH265717   8.872   3.985   8.440
21947TIP3    H165718   8.903   3.921   8.505
21947TIP3    H265719   8.945   3.983   8.375
21948TIP3   OH265720   9.376   4.172   8.246
21948TIP3    H165721   9.370   4.182   8.344
21948TIP3    H265722   9.382   4.074   8.240
21949TIP3   OH265723   8.993   4.731   8.413
21949TIP3    H165724   9.088   4.731   8.391
21949TIP3    H265725   8.960   4.787   8.340
21950TIP3   OH265726   8.474   4.115   8.633
21950TIP3    H165727   8.569   4.136   8.620
21950TIP3    H265728   8.468   4.026   8.592
21951TIP3   OH265729   8.392   4.725   9.043
21951TIP3    H165730   8.321   4.665   9.010
21951TIP3    H265731   8.434   4.668   9.110
21952TIP3   OH265732   8.528   4.575   9.231
21952TIP3    H165733   8.491   4.518   9.300
21952TIP3    H265734   8.585   4.636   9.283
21953TIP3   OH265735   8.734   4.723   9.360
21953TIP3    H165736   8.741   4.719   9.457
21953TIP3    H265737   8.827   4.717   9.335
21954TIP3   OH265738   8.493   4.503   8.786
21954TIP3    H165739   8.407   4.471   8.751
21954TIP3    H265740   8.481   4.598   8.770
21955TIP3   OH265741   9.260   4.693   8.359
21955TIP3    H165742   9.346   4.718   8.320
21955TIP3    H265743   9.238   4.615   8.302
21956TIP3   OH265744   8.565   4.532   8.422
21956TIP3    H165745   8.558   4.563   8.513
21956TIP3    H265746   8.655   4.493   8.419
21957TIP3   OH265747   4.156   5.465   9.878
21957TIP3    H165748   4.078   5.423   9.841
21957TIP3    H265749   4.128   5.486   9.967
21958TIP3   OH265750   3.729   4.758   9.632
21958TIP3    H165751   3.797   4.815   9.675
21958TIP3    H265752   3.788   4.693   9.589
21959TIP3   OH265753   3.930   4.906   9.732
21959TIP3    H165754   4.003   4.908   9.795
21959TIP3    H265755   3.974   4.934   9.648
21960TIP3   OH265756   4.260   5.516   9.328
21960TIP3    H165757   4.267   5.613   9.313
21960TIP3    H265758   4.352   5.487   9.314
21961TIP3   OH265759   3.594   5.853   9.796
21961TIP3    H165760   3.540   5.824   9.720
21961TIP3    H265761   3.561   5.943   9.813
21962TIP3   OH265762   3.771   5.733   9.447
21962TIP3    H165763   3.829   5.664   9.408
21962TIP3    H265764   3.811   5.743   9.536
21963TIP3   OH265765   3.837   5.781   9.710
21963TIP3    H165766   3.749   5.796   9.753
21963TIP3    H265767   3.884   5.731   9.778
21964TIP3   OH265768   4.021   4.954   9.475
21964TIP3    H165769   3.990   4.927   9.387
21964TIP3    H265770   4.102   5.003   9.453
21965TIP3   OH265771   3.672   5.264   9.689
21965TIP3    H165772   3.630   5.351   9.703
21965TIP3    H265773   3.621   5.208   9.748
21966TIP3   OH265774   4.516   4.777   9.664
21966TIP3    H165775   4.449   4.728   9.610
21966TIP3    H265776   4.495   4.867   9.629
21967TIP3   OH265777   4.191   5.589   9.592
21967TIP3    H165778   4.189   5.519   9.659
21967TIP3    H265779   4.208   5.541   9.509
21968TIP3   OH265780   3.947   5.317   9.487
21968TIP3    H165781   4.006   5.289   9.561
21968TIP3    H265782   3.862   5.288   9.523
21969TIP3   OH265783   4.292   5.792   9.312
21969TIP3    H165784   4.331   5.864   9.260
21969TIP3    H265785   4.212   5.839   9.344
21970TIP3   OH265786   4.107   5.241   9.694
21970TIP3    H165787   4.089   5.206   9.782
21970TIP3    H265788   4.205   5.243   9.692
21971TIP3   OH265789   3.324   5.299   9.493
21971TIP3    H165790   3.346   5.220   9.441
21971TIP3    H265791   3.306   5.258   9.579
21972TIP3   OH265792   3.525   5.495   9.698
21972TIP3    H165793   3.429   5.514   9.691
21972TIP3    H265794   3.560   5.554   9.629
21973TIP3   OH265795   3.261   5.561   9.730
21973TIP3    H165796   3.230   5.626   9.662
21973TIP3    H265797   3.272   5.625   9.804
21974TIP3   OH265798   3.485   5.504   9.404
21974TIP3    H165799   3.432   5.430   9.442
21974TIP3    H265800   3.558   5.455   9.362
21975TIP3   OH265801   3.918   5.543   9.315
21975TIP3    H165802   3.961   5.479   9.374
21975TIP3    H265803   3.976   5.543   9.237
21976TIP3   OH265804   3.157   5.065   9.608
21976TIP3    H165805   3.169   4.977   9.649
21976TIP3    H265806   3.212   5.054   9.528
21977TIP3   OH265807   3.627   5.213   9.425
21977TIP3    H165808   3.638   5.227   9.522
21977TIP3    H265809   3.632   5.115   9.422
21978TIP3   OH265810   3.437   4.783   9.675
21978TIP3    H165811   3.380   4.764   9.598
21978TIP3    H265812   3.525   4.770   9.637
21979TIP3   OH265813   4.258   5.047   9.350
21979TIP3    H165814   4.235   5.000   9.268
21979TIP3    H265815   4.226   5.137   9.327
21980TIP3   OH265816   3.237   5.775   9.571
21980TIP3    H165817   3.334   5.781   9.564
21980TIP3    H265818   3.211   5.833   9.496
21981TIP3   OH265819   4.388   5.240   9.679
21981TIP3    H165820   4.458   5.302   9.650
21981TIP3    H265821   4.434   5.195   9.754
21982TIP3   OH265822   4.521   5.103   9.868
21982TIP3    H165823   4.467   5.069   9.942
21982TIP3    H265824   4.601   5.138   9.914
21983TIP3   OH265825   4.457   5.013   9.534
21983TIP3    H165826   4.384   5.014   9.467
21983TIP3    H265827   4.429   5.088   9.589
21984TIP3   OH265828   4.334   4.679   9.490
21984TIP3    H165829   4.287   4.722   9.417
21984TIP3    H265830   4.310   4.585   9.477
21985TIP3   OH265831   4.273   4.415   9.471
21985TIP3    H165832   4.352   4.388   9.523
21985TIP3    H265833   4.201   4.364   9.511
21986TIP3   OH265834   4.515   4.370   9.595
21986TIP3    H165835   4.561   4.292   9.559
21986TIP3    H265836   4.589   4.435   9.596
21987TIP3   OH265837   4.087   5.899   9.867
21987TIP3    H165838   4.134   5.881   9.782
21987TIP3    H265839   4.144   5.966   9.906
21988TIP3   OH265840   3.511   5.744   9.539
21988TIP3    H165841   3.601   5.764   9.504
21988TIP3    H265842   3.487   5.672   9.477
21989TIP3   OH265843   4.229   5.856   9.633
21989TIP3    H165844   4.219   5.758   9.619
21989TIP3    H265845   4.187   5.890   9.552
21990TIP3   OH265846   2.837   5.604   9.611
21990TIP3    H165847   2.862   5.669   9.681
21990TIP3    H265848   2.922   5.557   9.595
21991TIP3   OH265849   5.672   5.350   9.570
21991TIP3    H165850   5.678   5.446   9.545
21991TIP3    H265851   5.600   5.357   9.635
21992TIP3   OH265852   5.709   5.364   9.950
21992TIP3    H165853   5.737   5.351  10.043
21992TIP3    H265854   5.667   5.277   9.933
21993TIP3   OH265855   5.959   5.667   9.654
21993TIP3    H165856   5.965   5.611   9.733
21993TIP3    H265857   5.990   5.752   9.692
21994TIP3   OH265858   5.010   5.668  10.089
21994TIP3    H165859   4.993   5.577  10.056
21994TIP3    H265860   5.101   5.684  10.055
21995TIP3   OH265861   4.702   4.875   9.840
21995TIP3    H165862   4.662   4.963   9.852
21995TIP3    H265863   4.639   4.838   9.774
21996TIP3   OH265864   4.780   5.161   9.937
21996TIP3    H165865   4.822   5.103  10.002
21996TIP3    H265866   4.854   5.188   9.882
21997TIP3   OH265867   5.610   6.133   9.667
21997TIP3    H165868   5.659   6.064   9.617
21997TIP3    H265869   5.617   6.099   9.757
21998TIP3   OH265870   5.521   5.588   9.997
21998TIP3    H165871   5.571   5.514   9.960
21998TIP3    H265872   5.595   5.643  10.029
21999TIP3   OH265873   6.543   4.931  10.019
21999TIP3    H165874   6.532   5.018  10.061
21999TIP3    H265875   6.561   4.957   9.927
22000TIP3   OH265876   5.947   5.106  10.060
22000TIP3    H165877   5.978   5.013  10.072
22000TIP3    H265878   5.910   5.095   9.970
22001TIP3   OH265879   5.311   4.756   9.966
22001TIP3    H165880   5.253   4.828   9.934
22001TIP3    H265881   5.253   4.717  10.036
22002TIP3   OH265882   5.966   4.859   9.638
22002TIP3    H165883   6.033   4.837   9.708
22002TIP3    H265884   6.026   4.886   9.566
22003TIP3   OH265885   5.359   5.161   9.857
22003TIP3    H165886   5.443   5.124   9.890
22003TIP3    H265887   5.303   5.080   9.848
22004TIP3   OH265888   5.614   5.591   9.453
22004TIP3    H165889   5.569   5.583   9.367
22004TIP3    H265890   5.576   5.676   9.483
22005TIP3   OH265891   6.171   4.852   9.820
22005TIP3    H165892   6.184   4.815   9.910
22005TIP3    H265893   6.227   4.931   9.830
22006TIP3   OH265894   4.596   5.403   9.578
22006TIP3    H165895   4.556   5.429   9.493
22006TIP3    H265896   4.626   5.489   9.614
22007TIP3   OH265897   6.026   5.907   9.802
22007TIP3    H165898   5.938   5.910   9.845
22007TIP3    H265899   6.033   6.000   9.769
22008TIP3   OH265900   6.296   4.799  10.064
22008TIP3    H165901   6.276   4.814  10.159
22008TIP3    H265902   6.385   4.838  10.056
22009TIP3   OH265903   5.735   5.963   9.490
22009TIP3    H165904   5.788   5.883   9.468
22009TIP3    H265905   5.794   6.031   9.451
22010TIP3   OH265906   5.880   5.748   9.399
22010TIP3    H165907   5.851   5.668   9.354
22010TIP3    H265908   5.913   5.713   9.485
22011TIP3   OH265909   5.524   5.009   9.151
22011TIP3    H165910   5.618   5.032   9.146
22011TIP3    H265911   5.527   4.927   9.100
22012TIP3   OH265912   6.454   5.452   9.993
22012TIP3    H165913   6.376   5.510  10.009
22012TIP3    H265914   6.489   5.494   9.912
22013TIP3   OH265915   5.892   5.294   9.401
22013TIP3    H165916   5.876   5.352   9.477
22013TIP3    H265917   5.983   5.262   9.423
22014TIP3   OH265918   5.127   5.302   9.805
22014TIP3    H165919   5.086   5.246   9.735
22014TIP3    H265920   5.210   5.252   9.824
22015TIP3   OH265921   5.253   5.705   9.956
22015TIP3    H165922   5.248   5.670   9.866
22015TIP3    H265923   5.342   5.676   9.984
22016TIP3   OH265924   5.320   5.286  10.107
22016TIP3    H165925   5.361   5.277  10.019
22016TIP3    H265926   5.392   5.319  10.164
22017TIP3   OH265927   5.788   5.919   9.930
22017TIP3    H165928   5.777   6.004   9.979
22017TIP3    H265929   5.769   5.850   9.996
22018TIP3   OH265930   5.485   5.843   9.493
22018TIP3    H165931   5.564   5.897   9.509
22018TIP3    H265932   5.423   5.907   9.456
22019TIP3   OH265933   6.257   4.406   9.265
22019TIP3    H165934   6.176   4.425   9.317
22019TIP3    H265935   6.269   4.490   9.216
22020TIP3   OH265936   4.995   5.151   9.613
22020TIP3    H165937   4.926   5.192   9.556
22020TIP3    H265938   4.963   5.060   9.621
22021TIP3   OH265939   6.055   5.773   8.813
22021TIP3    H165940   6.062   5.870   8.799
22021TIP3    H265941   6.149   5.746   8.800
22022TIP3   OH265942   5.363   6.089   9.296
22022TIP3    H165943   5.321   6.072   9.210
22022TIP3    H265944   5.334   6.179   9.317
22023TIP3   OH265945   4.803   5.941   9.679
22023TIP3    H165946   4.853   5.931   9.763
22023TIP3    H265947   4.743   5.865   9.685
22024TIP3   OH265948   5.566   5.990   8.936
22024TIP3    H165949   5.625   5.921   8.899
22024TIP3    H265950   5.602   6.000   9.027
22025TIP3   OH265951   5.616   6.039   9.205
22025TIP3    H165952   5.529   6.048   9.249
22025TIP3    H265953   5.671   6.007   9.279
22026TIP3   OH265954   5.814   5.194   8.964
22026TIP3    H165955   5.784   5.177   8.873
22026TIP3    H265956   5.889   5.254   8.948
22027TIP3   OH265957   5.536   4.587   9.262
22027TIP3    H165958   5.503   4.584   9.354
22027TIP3    H265959   5.494   4.505   9.227
22028TIP3   OH265960   5.182   4.955   9.815
22028TIP3    H165961   5.097   4.914   9.844
22028TIP3    H265962   5.197   4.906   9.731
22029TIP3   OH265963   5.856   5.055   9.803
22029TIP3    H165964   5.810   5.101   9.733
22029TIP3    H265965   5.889   4.974   9.757
22030TIP3   OH265966   5.189   4.563   9.226
22030TIP3    H165967   5.180   4.556   9.324
22030TIP3    H265968   5.105   4.610   9.204
22031TIP3   OH265969   4.705   4.584   9.610
22031TIP3    H165970   4.751   4.622   9.533
22031TIP3    H265971   4.644   4.658   9.632
22032TIP3   OH265972   5.802   5.291  10.195
22032TIP3    H165973   5.868   5.230  10.155
22032TIP3    H265974   5.857   5.336  10.263
22033TIP3   OH265975   5.558   4.776   9.865
22033TIP3    H165976   5.468   4.765   9.906
22033TIP3    H265977   5.616   4.748   9.938
22034TIP3   OH265978   4.968   4.808   9.894
22034TIP3    H165979   4.875   4.815   9.864
22034TIP3    H265980   4.991   4.715   9.876
22035TIP3   OH265981   5.231   4.815   9.584
22035TIP3    H165982   5.324   4.832   9.560
22035TIP3    H265983   5.181   4.833   9.502
22036TIP3   OH265984   5.987   4.843  10.074
22036TIP3    H165985   5.970   4.821  10.168
22036TIP3    H265986   5.956   4.763  10.030
22037TIP3   OH265987   5.070   4.851   9.364
22037TIP3    H165988   4.997   4.803   9.321
22037TIP3    H265989   5.120   4.882   9.286
22038TIP3   OH265990   5.609   5.101   9.959
22038TIP3    H165991   5.680   5.042   9.928
22038TIP3    H265992   5.603   5.077  10.054
22039TIP3   OH265993   5.110   4.548   9.847
22039TIP3    H165994   5.135   4.466   9.894
22039TIP3    H265995   5.194   4.573   9.809
22040TIP3   OH265996   5.334   5.373   9.371
22040TIP3    H165997   5.261   5.308   9.360
22040TIP3    H265998   5.315   5.407   9.462
22041TIP3   OH265999   6.224   5.600  10.005
22041TIP3    H166000   6.255   5.665   9.938
22041TIP3    H266001   6.136   5.578   9.971
22042TIP3   OH266002   5.783   4.699   9.241
22042TIP3    H166003   5.689   4.668   9.243
22042TIP3    H266004   5.774   4.795   9.237
22043TIP3   OH266005   5.844   4.988   9.308
22043TIP3    H166006   5.923   4.957   9.357
22043TIP3    H266007   5.885   5.012   9.223
22044TIP3   OH266008   4.988   5.398  10.025
22044TIP3    H166009   5.039   5.373   9.945
22044TIP3    H266010   5.026   5.340  10.092
22045TIP3   OH266011   5.473   5.526   9.193
22045TIP3    H166012   5.423   5.611   9.196
22045TIP3    H266013   5.418   5.471   9.253
22046TIP3   OH266014   6.293   5.027   9.170
22046TIP3    H166015   6.230   4.982   9.109
22046TIP3    H266016   6.290   5.116   9.128
22047TIP3   OH266017   5.989   5.847   9.076
22047TIP3    H166018   5.971   5.776   9.138
22047TIP3    H266019   6.006   5.801   8.992
22048TIP3   OH266020   5.976   5.476   9.919
22048TIP3    H166021   5.884   5.442   9.920
22048TIP3    H266022   6.024   5.400   9.880
22049TIP3   OH266023   5.117   5.697   9.662
22049TIP3    H166024   5.122   5.782   9.615
22049TIP3    H266025   5.022   5.690   9.678
22050TIP3   OH266026   4.679   5.009   9.372
22050TIP3    H166027   4.725   5.093   9.392
22050TIP3    H266028   4.601   5.015   9.433
22051TIP3   OH266029   5.263   5.466   9.619
22051TIP3    H166030   5.224   5.556   9.630
22051TIP3    H266031   5.219   5.418   9.691
22052TIP3   OH266032   5.384   6.051  10.112
22052TIP3    H166033   5.435   6.122  10.068
22052TIP3    H266034   5.445   6.018  10.178
22053TIP3   OH266035   5.037   5.942   9.521
22053TIP3    H166036   4.951   5.950   9.568
22053TIP3    H266037   5.069   6.034   9.526
22054TIP3   OH266038   5.768   5.687  10.090
22054TIP3    H166039   5.770   5.687  10.187
22054TIP3    H266040   5.850   5.642  10.065
22055TIP3   OH266041   5.750   5.568   8.980
22055TIP3    H166042   5.800   5.547   9.062
22055TIP3    H266043   5.659   5.549   9.009
22056TIP3   OH266044   6.088   6.049   8.798
22056TIP3    H166045   6.128   6.123   8.749
22056TIP3    H266046   6.008   6.095   8.832
22057TIP3   OH266047   5.908   5.505   9.201
22057TIP3    H166048   5.904   5.428   9.260
22057TIP3    H266049   6.005   5.510   9.185
22058TIP3   OH266050   5.116   5.553   8.978
22058TIP3    H166051   5.129   5.461   8.950
22058TIP3    H266052   5.097   5.542   9.074
22059TIP3   OH266053   5.061   5.559   9.251
22059TIP3    H166054   5.130   5.534   9.314
22059TIP3    H266055   5.063   5.657   9.257
22060TIP3   OH266056   4.794   5.253   9.453
22060TIP3    H166057   4.729   5.297   9.511
22060TIP3    H266058   4.809   5.323   9.387
22061TIP3   OH266059   5.815   4.659   9.512
22061TIP3    H166060   5.812   4.673   9.415
22061TIP3    H266061   5.873   4.731   9.544
22062TIP3   OH266062   5.326   5.754   9.199
22062TIP3    H166063   5.240   5.784   9.235
22062TIP3    H266064   5.345   5.828   9.140
22063TIP3   OH266065   5.518   4.830   9.602
22063TIP3    H166066   5.613   4.836   9.587
22063TIP3    H266067   5.516   4.820   9.700
22064TIP3   OH266068   5.668   4.560   9.717
22064TIP3    H166069   5.663   4.639   9.774
22064TIP3    H266070   5.729   4.590   9.646
22065TIP3   OH266071   5.068   5.831   9.267
22065TIP3    H166072   5.040   5.901   9.204
22065TIP3    H266073   5.054   5.876   9.354
22066TIP3   OH266074   5.170   4.544   9.498
22066TIP3    H166075   5.165   4.628   9.547
22066TIP3    H266076   5.263   4.520   9.515
22067TIP3   OH266077   6.074   5.236   9.790
22067TIP3    H166078   6.008   5.169   9.815
22067TIP3    H266079   6.154   5.198   9.833
22068TIP3   OH266080   4.786   5.463   9.261
22068TIP3    H166081   4.851   5.536   9.269
22068TIP3    H266082   4.832   5.409   9.193
22069TIP3   OH266083   4.736   4.740   9.386
22069TIP3    H166084   4.729   4.838   9.386
22069TIP3    H266085   4.650   4.713   9.353
22070TIP3   OH266086   6.047   6.178   9.735
22070TIP3    H166087   6.005   6.230   9.663
22070TIP3    H266088   6.141   6.203   9.722
22071TIP3   OH266089   4.657   5.673   9.649
22071TIP3    H166090   4.585   5.709   9.703
22071TIP3    H266091   4.638   5.715   9.562
22072TIP3   OH266092   5.277   5.759   8.891
22072TIP3    H166093   5.223   5.687   8.930
22072TIP3    H266094   5.353   5.709   8.857
22073TIP3   OH266095   5.713   5.798   8.802
22073TIP3    H166096   5.766   5.741   8.860
22073TIP3    H266097   5.768   5.803   8.721
22074TIP3   OH266098   4.922   5.276   9.111
22074TIP3    H166099   4.976   5.243   9.184
22074TIP3    H266100   4.989   5.280   9.040
22075TIP3   OH266101   5.433   5.475   8.922
22075TIP3    H166102   5.433   5.488   9.019
22075TIP3    H266103   5.431   5.377   8.916
22076TIP3   OH266104   5.137   5.178   9.338
22076TIP3    H166105   5.103   5.137   9.419
22076TIP3    H266106   5.165   5.099   9.286
22077TIP3   OH266107   5.229   4.971   9.175
22077TIP3    H166108   5.201   4.973   9.081
22077TIP3    H266109   5.325   4.985   9.167
22078TIP3   OH266110   6.055   5.302   8.839
22078TIP3    H166111   6.031   5.257   8.756
22078TIP3    H266112   6.023   5.393   8.816
22079TIP3   OH266113   5.038   6.031   9.079
22079TIP3    H166114   5.134   6.030   9.062
22079TIP3    H266115   5.009   6.082   9.001
22080TIP3   OH266116   4.519   5.416   9.297
22080TIP3    H166117   4.613   5.438   9.283
22080TIP3    H266118   4.513   5.327   9.255
22081TIP3   OH266119   4.434   6.029   9.705
22081TIP3    H166120   4.367   5.965   9.672
22081TIP3    H266121   4.480   5.974   9.773
22082TIP3   OH266122   4.568   5.888   9.895
22082TIP3    H166123   4.549   5.818   9.958
22082TIP3    H266124   4.612   5.952   9.954
22083TIP3   OH266125   6.299   6.281   9.700
22083TIP3    H166126   6.314   6.348   9.769
22083TIP3    H266127   6.350   6.320   9.628
22084TIP3   OH266128   6.187   5.490   9.171
22084TIP3    H166129   6.254   5.556   9.142
22084TIP3    H266130   6.233   5.452   9.250
22085TIP3   OH266131   6.314   5.357   9.374
22085TIP3    H166132   6.252   5.318   9.439
22085TIP3    H266133   6.383   5.396   9.432
22086TIP3   OH266134   6.341   5.735   9.794
22086TIP3    H166135   6.420   5.687   9.765
22086TIP3    H266136   6.349   5.819   9.747
22087TIP3   OH266137   6.207   6.028  10.005
22087TIP3    H166138   6.143   6.095  10.031
22087TIP3    H266139   6.160   5.979   9.936
22088TIP3   OH266140   6.253   5.264   9.023
22088TIP3    H166141   6.182   5.269   8.955
22088TIP3    H266142   6.229   5.342   9.077
22089TIP3   OH266143   6.117   4.939   8.982
22089TIP3    H166144   6.083   4.980   8.902
22089TIP3    H266145   6.096   4.844   8.967
22090TIP3   OH266146   6.124   5.211   9.521
22090TIP3    H166147   6.147   5.117   9.522
22090TIP3    H266148   6.116   5.231   9.617
22091TIP3   OH266149   6.068   4.672   8.961
22091TIP3    H166150   6.145   4.642   9.015
22091TIP3    H266151   5.997   4.612   8.988
22092TIP3   OH266152   6.115   4.924   9.412
22092TIP3    H166153   6.159   4.837   9.426
22092TIP3    H266154   6.175   4.961   9.345
22093TIP3   OH266155   6.288   5.109   9.897
22093TIP3    H166156   6.379   5.132   9.866
22093TIP3    H266157   6.296   5.142   9.990
22094TIP3   OH266158   6.336   5.241  10.133
22094TIP3    H166159   6.290   5.282  10.207
22094TIP3    H266160   6.385   5.317  10.094
22095TIP3   OH266161   6.231   4.680   9.453
22095TIP3    H166162   6.283   4.666   9.535
22095TIP3    H266163   6.174   4.601   9.454
22096TIP3   OH266164   6.315   4.616   9.085
22096TIP3    H166165   6.357   4.543   9.036
22096TIP3    H266166   6.383   4.686   9.081
22097TIP3   OH266167   4.745   4.471   9.854
22097TIP3    H166168   4.651   4.474   9.878
22097TIP3    H266169   4.744   4.516   9.767
22098TIP3   OH266170   5.876   6.145   9.352
22098TIP3    H166171   5.933   6.136   9.273
22098TIP3    H266172   5.925   6.211   9.404
22099TIP3   OH266173   5.039   6.189  10.148
22099TIP3    H166174   5.021   6.246  10.223
22099TIP3    H266175   5.051   6.251  10.074
22100TIP3   OH266176   5.495   6.263   9.967
22100TIP3    H166177   5.426   6.265   9.898
22100TIP3    H266178   5.497   6.354   9.996
22101TIP3   OH266179   5.759   6.177  10.019
22101TIP3    H166180   5.675   6.215   9.989
22101TIP3    H266181   5.823   6.247   9.991
22102TIP3   OH266182   5.934   6.370   9.922
22102TIP3    H166183   5.948   6.460   9.887
22102TIP3    H266184   5.988   6.317   9.862
22103TIP3   OH266185   4.750   6.040  10.045
22103TIP3    H166186   4.754   6.015  10.138
22103TIP3    H266187   4.828   5.993  10.008
22104TIP3   OH266188   4.945   5.899   9.910
22104TIP3    H166189   4.965   5.822   9.966
22104TIP3    H266190   5.032   5.945   9.910
22105TIP3   OH266191   5.202   6.002   9.911
22105TIP3    H166192   5.240   5.913   9.904
22105TIP3    H266193   5.240   6.028   9.998
22106TIP3   OH266194   5.773   4.649   9.996
22106TIP3    H166195   5.764   4.581  10.065
22106TIP3    H266196   5.849   4.614   9.945
22107TIP3   OH266197   6.298   4.530   9.886
22107TIP3    H166198   6.341   4.588   9.820
22107TIP3    H266199   6.224   4.586   9.915
22108TIP3   OH266200   6.404   4.643   9.662
22108TIP3    H166201   6.478   4.590   9.625
22108TIP3    H266202   6.439   4.734   9.649
22109TIP3   OH266203   4.787   4.250   9.651
22109TIP3    H166204   4.840   4.304   9.590
22109TIP3    H266205   4.780   4.308   9.729
22110TIP3   OH266206   5.519   4.389   9.875
22110TIP3    H166207   5.567   4.467   9.845
22110TIP3    H266208   5.463   4.422   9.947
22111TIP3   OH266209   5.998   4.541   9.886
22111TIP3    H166210   6.028   4.511   9.799
22111TIP3    H266211   5.995   4.457   9.937
22112TIP3   OH266212   6.052   4.464   9.445
22112TIP3    H166213   5.961   4.497   9.452
22112TIP3    H266214   6.043   4.379   9.493
22113TIP3   OH266215   4.535   5.806   9.447
22113TIP3    H166216   4.450   5.774   9.412
22113TIP3    H266217   4.525   5.900   9.429
22114TIP3   OH266218   4.935   4.400   9.425
22114TIP3    H166219   4.983   4.331   9.376
22114TIP3    H266220   5.009   4.450   9.466
22115TIP3   OH266221   5.449   4.570   9.527
22115TIP3    H166222   5.498   4.519   9.594
22115TIP3    H266223   5.468   4.661   9.557
22116TIP3   OH266224   5.307   5.994   9.030
22116TIP3    H166225   5.395   6.018   8.993
22116TIP3    H266226   5.285   5.920   8.969
22117TIP3   OH266227   6.026   6.113   9.121
22117TIP3    H166228   6.015   6.016   9.107
22117TIP3    H266229   5.981   6.149   9.041
22118TIP3   OH266230   4.610   5.829   9.085
22118TIP3    H166231   4.613   5.858   9.178
22118TIP3    H266232   4.699   5.789   9.073
22119TIP3   OH266233   7.518   5.627   9.074
22119TIP3    H166234   7.493   5.720   9.058
22119TIP3    H266235   7.438   5.581   9.045
22120TIP3   OH266236   7.504   5.630   9.451
22120TIP3    H166237   7.540   5.612   9.541
22120TIP3    H266238   7.468   5.543   9.428
22121TIP3   OH266239   6.822   5.529   9.817
22121TIP3    H166240   6.842   5.500   9.907
22121TIP3    H266241   6.903   5.576   9.791
22122TIP3   OH266242   7.755   5.925   9.139
22122TIP3    H166243   7.752   5.853   9.204
22122TIP3    H266244   7.788   5.998   9.193
22123TIP3   OH266245   6.792   5.933   9.550
22123TIP3    H166246   6.781   5.836   9.550
22123TIP3    H266247   6.888   5.941   9.536
22124TIP3   OH266248   6.495   5.137   9.330
22124TIP3    H166249   6.449   5.221   9.346
22124TIP3    H266250   6.423   5.085   9.292
22125TIP3   OH266251   6.553   5.422   9.496
22125TIP3    H166252   6.604   5.349   9.538
22125TIP3    H266253   6.618   5.460   9.435
22126TIP3   OH266254   7.378   6.376   9.133
22126TIP3    H166255   7.441   6.322   9.081
22126TIP3    H266256   7.402   6.347   9.222
22127TIP3   OH266257   7.306   5.845   9.497
22127TIP3    H166258   7.351   5.768   9.456
22127TIP3    H266259   7.385   5.900   9.514
22128TIP3   OH266260   8.310   5.178   9.497
22128TIP3    H166261   8.334   5.268   9.525
22128TIP3    H266262   8.335   5.179   9.404
22129TIP3   OH266263   7.734   5.352   9.540
22129TIP3    H166264   7.774   5.264   9.553
22129TIP3    H266265   7.701   5.344   9.449
22130TIP3   OH266266   7.065   5.016   9.503
22130TIP3    H166267   7.045   5.089   9.440
22130TIP3    H266268   7.017   4.943   9.459
22131TIP3   OH266269   7.761   5.105   9.125
22131TIP3    H166270   7.834   5.090   9.190
22131TIP3    H266271   7.811   5.143   9.051
22132TIP3   OH266272   6.701   5.220   9.609
22132TIP3    H166273   6.783   5.198   9.656
22132TIP3    H266274   6.711   5.164   9.530
22133TIP3   OH266275   7.141   5.415   9.400
22133TIP3    H166276   7.235   5.391   9.412
22133TIP3    H266277   7.102   5.331   9.368
22134TIP3   OH266278   7.065   4.996   9.937
22134TIP3    H166279   7.004   5.034   9.871
22134TIP3    H266280   7.007   4.987  10.015
22135TIP3   OH266281   7.410   5.851   8.944
22135TIP3    H166282   7.367   5.831   8.860
22135TIP3    H266283   7.368   5.938   8.966
22136TIP3   OH266284   7.137   5.777   9.731
22136TIP3    H166285   7.119   5.854   9.787
22136TIP3    H266286   7.211   5.809   9.677
22137TIP3   OH266287   7.973   5.103   9.297
22137TIP3    H166288   7.954   5.065   9.384
22137TIP3    H266289   8.021   5.185   9.321
22138TIP3   OH266290   6.934   5.113   9.722
22138TIP3    H166291   6.997   5.186   9.741
22138TIP3    H266292   6.980   5.070   9.646
22139TIP3   OH266293   6.391   5.658   9.066
22139TIP3    H166294   6.352   5.686   8.982
22139TIP3    H266295   6.421   5.744   9.103
22140TIP3   OH266296   8.112   5.068   9.663
22140TIP3    H166297   8.029   5.099   9.625
22140TIP3    H266298   8.180   5.105   9.603
22141TIP3   OH266299   7.422   4.716   9.653
22141TIP3    H166300   7.405   4.621   9.672
22141TIP3    H266301   7.343   4.756   9.698
22142TIP3   OH266302   7.549   6.226   8.990
22142TIP3    H166303   7.593   6.143   8.962
22142TIP3    H266304   7.598   6.290   8.934
22143TIP3   OH266305   7.675   6.005   8.886
22143TIP3    H166306   7.633   5.927   8.847
22143TIP3    H266307   7.707   5.969   8.972
22144TIP3   OH266308   7.346   5.477   8.904
22144TIP3    H166309   7.267   5.531   8.884
22144TIP3    H266310   7.395   5.481   8.821
22145TIP3   OH266311   7.307   5.266   8.621
22145TIP3    H166312   7.373   5.315   8.674
22145TIP3    H266313   7.366   5.203   8.575
22146TIP3   OH266314   7.695   5.562   8.877
22146TIP3    H166315   7.641   5.588   8.956
22146TIP3    H266316   7.779   5.536   8.920
22147TIP3   OH266317   6.928   5.560   9.294
22147TIP3    H166318   6.889   5.503   9.225
22147TIP3    H266319   7.006   5.508   9.322
22148TIP3   OH266320   7.057   5.972   9.444
22148TIP3    H166321   7.038   5.934   9.357
22148TIP3    H266322   7.144   5.932   9.465
22149TIP3   OH266323   7.066   5.528   9.648
22149TIP3    H166324   7.099   5.513   9.557
22149TIP3    H266325   7.100   5.619   9.668
22150TIP3   OH266326   7.539   5.420   8.704
22150TIP3    H166327   7.597   5.479   8.757
22150TIP3    H266328   7.564   5.445   8.612
22151TIP3   OH266329   7.281   6.102   8.971
22151TIP3    H166330   7.344   6.163   9.012
22151TIP3    H266331   7.214   6.162   8.937
22152TIP3   OH266332   8.052   4.662   8.752
22152TIP3    H166333   7.972   4.682   8.804
22152TIP3    H266334   8.066   4.746   8.704
22153TIP3   OH266335   6.797   5.403   9.095
22153TIP3    H166336   6.730   5.450   9.041
22153TIP3    H266337   6.752   5.320   9.113
22154TIP3   OH266338   7.849   6.028   8.298
22154TIP3    H166339   7.857   6.126   8.287
22154TIP3    H266340   7.943   6.001   8.285
22155TIP3   OH266341   6.428   5.979   9.642
22155TIP3    H166342   6.524   5.984   9.630
22155TIP3    H266343   6.409   6.058   9.695
22156TIP3   OH266344   7.160   6.347   8.783
22156TIP3    H166345   7.114   6.333   8.698
22156TIP3    H266346   7.130   6.436   8.810
22157TIP3   OH266347   6.598   6.196   9.163
22157TIP3    H166348   6.649   6.188   9.247
22157TIP3    H266349   6.533   6.125   9.175
22158TIP3   OH266350   7.362   6.248   8.419
22158TIP3    H166351   7.422   6.178   8.385
22158TIP3    H266352   7.394   6.259   8.511
22159TIP3   OH266353   7.409   6.295   8.685
22159TIP3    H166354   7.323   6.305   8.731
22159TIP3    H266355   7.465   6.262   8.757
22160TIP3   OH266356   7.183   4.800   9.773
22160TIP3    H166357   7.093   4.766   9.752
22160TIP3    H266358   7.160   4.881   9.822
22161TIP3   OH266359   7.611   5.464   8.445
22161TIP3    H166360   7.582   5.441   8.355
22161TIP3    H266361   7.690   5.518   8.426
22162TIP3   OH266362   7.326   4.843   8.749
22162TIP3    H166363   7.295   4.843   8.842
22162TIP3    H266364   7.287   4.760   8.718
22163TIP3   OH266365   7.114   5.307   9.794
22163TIP3    H166366   7.092   5.343   9.880
22163TIP3    H266367   7.099   5.385   9.735
22164TIP3   OH266368   6.996   5.195   9.311
22164TIP3    H166369   6.903   5.169   9.328
22164TIP3    H266370   7.009   5.154   9.222
22165TIP3   OH266371   7.485   5.280   9.037
22165TIP3    H166372   7.432   5.352   8.997
22165TIP3    H266373   7.541   5.253   8.963
22166TIP3   OH266374   7.642   5.309   9.282
22166TIP3    H166375   7.586   5.345   9.211
22166TIP3    H266376   7.674   5.228   9.236
22167TIP3   OH266377   6.980   4.815   8.716
22167TIP3    H166378   6.973   4.813   8.814
22167TIP3    H266379   6.903   4.870   8.693
22168TIP3   OH266380   6.526   4.869   9.579
22168TIP3    H166381   6.598   4.898   9.639
22168TIP3    H266382   6.573   4.831   9.504
22169TIP3   OH266383   6.496   4.842   9.105
22169TIP3    H166384   6.541   4.882   9.027
22169TIP3    H266385   6.437   4.916   9.129
22170TIP3   OH266386   7.620   5.552   9.683
22170TIP3    H166387   7.672   5.480   9.641
22170TIP3    H266388   7.608   5.523   9.773
22171TIP3   OH266389   7.322   5.014   9.373
22171TIP3    H166390   7.240   5.014   9.426
22171TIP3    H266391   7.390   5.021   9.441
22172TIP3   OH266392   6.758   5.074   9.381
22172TIP3    H166393   6.663   5.080   9.355
22172TIP3    H266394   6.781   4.983   9.358
22173TIP3   OH266395   7.028   5.068   9.069
22173TIP3    H166396   7.122   5.087   9.049
22173TIP3    H266397   6.981   5.093   8.986
22174TIP3   OH266398   7.818   5.091   9.570
22174TIP3    H166399   7.795   5.098   9.665
22174TIP3    H266400   7.748   5.032   9.538
22175TIP3   OH266401   6.869   5.102   8.848
22175TIP3    H166402   6.796   5.059   8.799
22175TIP3    H266403   6.920   5.139   8.774
22176TIP3   OH266404   7.406   5.343   9.464
22176TIP3    H166405   7.483   5.309   9.417
22176TIP3    H266406   7.416   5.305   9.554
22177TIP3   OH266407   6.928   4.834   9.349
22177TIP3    H166408   6.895   4.754   9.395
22177TIP3    H266409   6.981   4.795   9.278
22178TIP3   OH266410   7.381   5.239   9.743
22178TIP3    H166411   7.288   5.265   9.759
22178TIP3    H266412   7.428   5.286   9.814
22179TIP3   OH266413   7.121   5.633   8.854
22179TIP3    H166414   7.047   5.570   8.843
22179TIP3    H266415   7.103   5.668   8.945
22180TIP3   OH266416   7.577   4.949   8.710
22180TIP3    H166417   7.481   4.933   8.724
22180TIP3    H266418   7.590   5.041   8.739
22181TIP3   OH266419   7.648   5.191   8.818
22181TIP3    H166420   7.744   5.199   8.837
22181TIP3    H266421   7.630   5.273   8.768
22182TIP3   OH266422   6.810   5.651   9.530
22182TIP3    H166423   6.850   5.629   9.443
22182TIP3    H266424   6.854   5.588   9.588
22183TIP3   OH266425   7.264   5.783   8.673
22183TIP3    H166426   7.217   5.869   8.680
22183TIP3    H266427   7.210   5.728   8.735
22184TIP3   OH266428   8.089   5.283   8.656
22184TIP3    H166429   8.027   5.238   8.594
22184TIP3    H266430   8.084   5.373   8.617
22185TIP3   OH266431   7.785   6.104   8.562
22185TIP3    H166432   7.766   6.036   8.628
22185TIP3    H266433   7.800   6.054   8.480
22186TIP3   OH266434   7.767   5.736   9.386
22186TIP3    H166435   7.680   5.699   9.409
22186TIP3    H266436   7.814   5.657   9.352
22187TIP3   OH266437   6.912   5.957   9.153
22187TIP3    H166438   6.915   6.042   9.104
22187TIP3    H266439   6.817   5.949   9.168
22188TIP3   OH266440   6.476   5.264   8.859
22188TIP3    H166441   6.522   5.348   8.879
22188TIP3    H266442   6.399   5.271   8.920
22189TIP3   OH266443   7.051   5.725   9.099
22189TIP3    H166444   7.016   5.815   9.115
22189TIP3    H266445   7.015   5.677   9.176
22190TIP3   OH266446   6.834   6.198   9.008
22190TIP3    H166447   6.748   6.206   9.053
22190TIP3    H266448   6.866   6.291   9.013
22191TIP3   OH266449   7.544   5.964   9.557
22191TIP3    H166450   7.557   5.964   9.653
22191TIP3    H266451   7.625   5.917   9.531
22192TIP3   OH266452   7.545   5.826   8.466
22192TIP3    H166453   7.599   5.803   8.546
22192TIP3    H266454   7.456   5.805   8.499
22193TIP3   OH266455   7.883   6.303   8.286
22193TIP3    H166456   7.927   6.378   8.242
22193TIP3    H266457   7.803   6.349   8.319
22194TIP3   OH266458   7.705   5.761   8.681
22194TIP3    H166459   7.696   5.697   8.755
22194TIP3    H266460   7.802   5.762   8.671
22195TIP3   OH266461   6.619   6.177   9.779
22195TIP3    H166462   6.668   6.098   9.804
22195TIP3    H266463   6.637   6.236   9.854
22196TIP3   OH266464   6.912   5.810   8.465
22196TIP3    H166465   6.926   5.718   8.438
22196TIP3    H266466   6.894   5.800   8.561
22197TIP3   OH266467   6.858   5.815   8.737
22197TIP3    H166468   6.927   5.791   8.800
22197TIP3    H266469   6.859   5.913   8.744
22198TIP3   OH266470   6.591   5.509   8.942
22198TIP3    H166471   6.526   5.555   8.999
22198TIP3    H266472   6.606   5.579   8.875
22199TIP3   OH266473   7.755   5.133   9.836
22199TIP3    H166474   7.808   5.190   9.894
22199TIP3    H266475   7.695   5.095   9.901
22200TIP3   OH266476   7.624   4.897   8.996
22200TIP3    H166477   7.609   4.925   8.904
22200TIP3    H266478   7.663   4.979   9.035
22201TIP3   OH266479   7.121   6.013   8.685
22201TIP3    H166480   7.034   6.040   8.722
22201TIP3    H266481   7.141   6.091   8.630
22202TIP3   OH266482   7.310   5.075   9.100
22202TIP3    H166483   7.374   5.147   9.082
22202TIP3    H266484   7.315   5.069   9.198
22203TIP3   OH266485   7.456   4.804   9.203
22203TIP3    H166486   7.446   4.880   9.263
22203TIP3    H266487   7.517   4.841   9.135
22204TIP3   OH266488   6.864   6.087   8.755
22204TIP3    H166489   6.835   6.158   8.692
22204TIP3    H266490   6.849   6.132   8.841
22205TIP3   OH266491   6.967   4.801   8.992
22205TIP3    H166492   6.963   4.892   9.028
22205TIP3    H266493   7.063   4.784   9.001
22206TIP3   OH266494   7.865   5.492   9.276
22206TIP3    H166495   7.790   5.430   9.288
22206TIP3    H266496   7.938   5.445   9.320
22207TIP3   OH266497   6.582   5.719   8.749
22207TIP3    H166498   6.644   5.793   8.758
22207TIP3    H266499   6.630   5.667   8.680
22208TIP3   OH266500   6.529   4.994   8.879
22208TIP3    H166501   6.530   5.092   8.876
22208TIP3    H266502   6.443   4.974   8.839
22209TIP3   OH266503   6.919   4.717   9.753
22209TIP3    H166504   6.886   4.683   9.667
22209TIP3    H266505   6.906   4.640   9.811
22210TIP3   OH266506   6.451   5.923   9.134
22210TIP3    H166507   6.386   5.962   9.195
22210TIP3    H266508   6.429   5.970   9.051
22211TIP3   OH266509   7.073   6.015   8.376
22211TIP3    H166510   7.017   5.945   8.418
22211TIP3    H266511   7.149   5.962   8.348
22212TIP3   OH266512   7.511   6.054   8.289
22212TIP3    H166513   7.557   5.994   8.350
22212TIP3    H266514   7.570   6.056   8.212
22213TIP3   OH266515   6.719   5.531   8.599
22213TIP3    H166516   6.775   5.501   8.673
22213TIP3    H266517   6.787   5.536   8.528
22214TIP3   OH266518   7.228   5.729   8.405
22214TIP3    H166519   7.230   5.744   8.502
22214TIP3    H266520   7.225   5.631   8.402
22215TIP3   OH266521   6.926   5.435   8.821
22215TIP3    H166522   6.900   5.397   8.906
22215TIP3    H266523   6.962   5.358   8.773
22216TIP3   OH266524   7.028   5.226   8.663
22216TIP3    H166525   7.001   5.232   8.569
22216TIP3    H266526   7.125   5.236   8.654
22217TIP3   OH266527   7.850   5.560   8.323
22217TIP3    H166528   7.826   5.515   8.241
22217TIP3    H266529   7.819   5.651   8.302
22218TIP3   OH266530   7.333   5.064   9.969
22218TIP3    H166531   7.347   5.098   9.880
22218TIP3    H266532   7.239   5.040   9.968
22219TIP3   OH266533   6.834   6.286   8.564
22219TIP3    H166534   6.930   6.286   8.547
22219TIP3    H266535   6.804   6.340   8.488
22220TIP3   OH266536   6.314   5.672   8.784
22220TIP3    H166537   6.409   5.695   8.771
22220TIP3    H266538   6.310   5.584   8.741
22221TIP3   OH266539   6.230   6.283   9.197
22221TIP3    H166540   6.161   6.222   9.162
22221TIP3    H266541   6.273   6.226   9.263
22222TIP3   OH266542   6.368   6.133   9.380
22222TIP3    H166543   6.353   6.064   9.447
22222TIP3    H266544   6.420   6.196   9.433
22223TIP3   OH266545   7.983   5.746   8.657
22223TIP3    H166546   8.052   5.812   8.632
22223TIP3    H266547   8.025   5.706   8.736
22224TIP3   OH266548   8.110   5.615   8.857
22224TIP3    H166549   8.055   5.575   8.928
22224TIP3    H266550   8.187   5.651   8.907
22225TIP3   OH266551   8.049   5.520   8.509
22225TIP3    H166552   7.976   5.527   8.443
22225TIP3    H266553   8.027   5.596   8.567
22226TIP3   OH266554   7.922   5.192   8.460
22226TIP3    H166555   7.875   5.237   8.389
22226TIP3    H266556   7.896   5.099   8.446
22227TIP3   OH266557   7.920   5.469   9.007
22227TIP3    H166558   7.941   5.375   9.011
22227TIP3    H266559   7.912   5.492   9.103
22228TIP3   OH266560   6.554   5.544   9.752
22228TIP3    H166561   6.549   5.518   9.658
22228TIP3    H266562   6.652   5.547   9.766
22229TIP3   OH266563   7.867   4.923   8.441
22229TIP3    H166564   7.942   4.901   8.501
22229TIP3    H266565   7.793   4.871   8.476
22230TIP3   OH266566   7.919   5.182   8.902
22230TIP3    H166567   7.964   5.096   8.917
22230TIP3    H266568   7.980   5.222   8.837
22231TIP3   OH266569   8.070   5.354   9.392
22231TIP3    H166570   8.149   5.392   9.350
22231TIP3    H266571   8.086   5.381   9.483
22232TIP3   OH266572   8.033   4.934   8.940
22232TIP3    H166573   8.080   4.920   9.025
22232TIP3    H266574   7.971   4.858   8.940
22233TIP3   OH266575   6.731   4.922   9.754
22233TIP3    H166576   6.792   4.848   9.770
22233TIP3    H266577   6.793   4.997   9.751
22234TIP3   OH266578   6.541   5.192   9.838
22234TIP3    H166579   6.589   5.197   9.753
22234TIP3    H266580   6.544   5.284   9.869
22235TIP3   OH266581   8.110   4.873   8.572
22235TIP3    H166582   8.156   4.803   8.523
22235TIP3    H266583   8.176   4.946   8.571
22236TIP3   OH266584   6.517   4.696   9.332
22236TIP3    H166585   6.425   4.698   9.361
22236TIP3    H266586   6.516   4.757   9.255
22237TIP3   OH266587   7.661   6.410   8.823
22237TIP3    H166588   7.719   6.389   8.746
22237TIP3    H266589   7.731   6.427   8.889
22238TIP3   OH266590   6.733   4.753  10.119
22238TIP3    H166591   6.705   4.746  10.212
22238TIP3    H266592   6.668   4.817  10.084
22239TIP3   OH266593   6.849   6.434   9.627
22239TIP3    H166594   6.847   6.494   9.703
22239TIP3    H266595   6.844   6.497   9.552
22240TIP3   OH266596   6.540   6.288   9.535
22240TIP3    H166597   6.566   6.267   9.628
22240TIP3    H266598   6.619   6.252   9.489
22241TIP3   OH266599   6.737   6.159   9.394
22241TIP3    H166600   6.755   6.079   9.448
22241TIP3    H266601   6.826   6.200   9.389
22242TIP3   OH266602   6.999   6.257   9.393
22242TIP3    H166603   7.037   6.168   9.402
22242TIP3    H266604   7.003   6.291   9.484
22243TIP3   OH266605   7.580   4.912   9.490
22243TIP3    H166606   7.536   4.842   9.541
22243TIP3    H266607   7.652   4.864   9.446
22244TIP3   OH266608   8.108   4.785   9.392
22244TIP3    H166609   8.141   4.842   9.319
22244TIP3    H266610   8.014   4.811   9.397
22245TIP3   OH266611   8.199   4.889   9.158
22245TIP3    H166612   8.273   4.841   9.114
22245TIP3    H266613   8.227   4.982   9.139
22246TIP3   OH266614   6.828   4.622   9.505
22246TIP3    H166615   6.736   4.587   9.506
22246TIP3    H266616   6.878   4.538   9.503
22247TIP3   OH266617   6.610   4.492   9.152
22247TIP3    H166618   6.643   4.550   9.081
22247TIP3    H266619   6.584   4.556   9.220
22248TIP3   OH266620   7.270   4.654   9.385
22248TIP3    H166621   7.330   4.706   9.329
22248TIP3    H266622   7.289   4.690   9.473
22249TIP3   OH266623   7.820   4.801   9.372
22249TIP3    H166624   7.816   4.767   9.282
22249TIP3    H266625   7.805   4.720   9.425
22250TIP3   OH266626   7.848   4.723   8.932
22250TIP3    H166627   7.763   4.769   8.946
22250TIP3    H266628   7.831   4.638   8.979
22251TIP3   OH266629   6.332   6.061   8.934
22251TIP3    H166630   6.246   6.032   8.899
22251TIP3    H266631   6.323   6.157   8.919
22252TIP3   OH266632   6.731   4.653   8.916
22252TIP3    H166633   6.781   4.590   8.861
22252TIP3    H266634   6.803   4.707   8.953
22253TIP3   OH266635   7.245   4.825   9.015
22253TIP3    H166636   7.304   4.780   9.077
22253TIP3    H266637   7.263   4.918   9.040
22254TIP3   OH266638   7.103   6.250   8.516
22254TIP3    H166639   7.191   6.274   8.479
22254TIP3    H266640   7.081   6.176   8.456
22255TIP3   OH266641   7.826   6.370   8.605
22255TIP3    H166642   7.818   6.274   8.590
22255TIP3    H266643   7.785   6.406   8.524
22256TIP3   OH266644   6.405   6.085   8.573
22256TIP3    H166645   6.406   6.117   8.664
22256TIP3    H266646   6.496   6.046   8.563
22257TIP3   OH266647   8.294   5.382   8.822
22257TIP3    H166648   8.265   5.473   8.844
22257TIP3    H266649   8.214   5.346   8.782
22258TIP3   OH266650   8.369   5.683   8.946
22258TIP3    H166651   8.409   5.688   9.035
22258TIP3    H266652   8.448   5.687   8.891
22259TIP3   OH266653   8.938   5.136   9.004
22259TIP3    H166654   8.938   5.164   9.097
22259TIP3    H266655   8.861   5.187   8.972
22260TIP3   OH266656   8.180   5.920   8.555
22260TIP3    H166657   8.137   5.954   8.476
22260TIP3    H266658   8.212   6.003   8.597
22261TIP3   OH266659   9.103   5.522   8.103
22261TIP3    H166660   9.158   5.568   8.167
22261TIP3    H266661   9.168   5.462   8.060
22262TIP3   OH266662   9.849   4.923   8.238
22262TIP3    H166663   9.766   4.933   8.291
22262TIP3    H266664   9.838   4.994   8.173
22263TIP3   OH266665   8.586   5.624   8.494
22263TIP3    H166666   8.507   5.681   8.485
22263TIP3    H266667   8.570   5.576   8.575
22264TIP3   OH266668   9.427   5.719   7.920
22264TIP3    H166669   9.388   5.688   7.837
22264TIP3    H266670   9.454   5.808   7.898
22265TIP3   OH266671   9.132   5.098   8.233
22265TIP3    H166672   9.098   5.099   8.325
22265TIP3    H266673   9.086   5.018   8.201
22266TIP3   OH266674   8.773   5.456   8.745
22266TIP3    H166675   8.692   5.419   8.787
22266TIP3    H266676   8.787   5.389   8.676
22267TIP3   OH266677   8.778   5.076   8.200
22267TIP3    H166678   8.768   5.068   8.298
22267TIP3    H266679   8.700   5.131   8.180
22268TIP3   OH266680   8.309   5.112   9.061
22268TIP3    H166681   8.378   5.145   9.122
22268TIP3    H266682   8.358   5.098   8.980
22269TIP3   OH266683   8.290   5.097   8.588
22269TIP3    H166684   8.341   5.140   8.516
22269TIP3    H266685   8.235   5.173   8.617
22270TIP3   OH266686   8.564   5.331   8.852
22270TIP3    H166687   8.466   5.336   8.847
22270TIP3    H266688   8.585   5.237   8.840
22271TIP3   OH266689   8.816   5.294   8.534
22271TIP3    H166690   8.899   5.343   8.519
22271TIP3    H266691   8.756   5.331   8.465
22272TIP3   OH266692   8.658   5.349   8.326
22272TIP3    H166693   8.581   5.315   8.278
22272TIP3    H266694   8.711   5.385   8.253
22273TIP3   OH266695   8.698   5.084   8.815
22273TIP3    H166696   8.684   5.010   8.878
22273TIP3    H266697   8.782   5.062   8.774
22274TIP3   OH266698   8.877   5.909   8.341
22274TIP3    H166699   8.837   5.820   8.327
22274TIP3    H266700   8.886   5.905   8.439
22275TIP3   OH266701   9.372   5.222   8.212
22275TIP3    H166702   9.278   5.192   8.213
22275TIP3    H266703   9.366   5.314   8.182
22276TIP3   OH266704   8.268   5.520   8.344
22276TIP3    H166705   8.314   5.605   8.365
22276TIP3    H266706   8.193   5.525   8.407
22277TIP3   OH266707   8.706   6.064   7.953
22277TIP3    H166708   8.720   5.973   7.921
22277TIP3    H266709   8.682   6.048   8.046
22278TIP3   OH266710   8.644   6.061   8.224
22278TIP3    H166711   8.692   5.998   8.281
22278TIP3    H266712   8.661   6.145   8.269
22279TIP3   OH266713   8.366   5.771   8.421
22279TIP3    H166714   8.307   5.814   8.486
22279TIP3    H266715   8.379   5.846   8.358
22280TIP3   OH266716   9.435   5.136   8.467
22280TIP3    H166717   9.415   5.170   8.377
22280TIP3    H266718   9.419   5.214   8.522
22281TIP3   OH266719   9.079   5.362   8.573
22281TIP3    H166720   9.174   5.381   8.571
22281TIP3    H266721   9.050   5.406   8.655
22282TIP3   OH266722   9.242   5.038   8.696
22282TIP3    H166723   9.273   5.087   8.774
22282TIP3    H266724   9.300   5.077   8.628
22283TIP3   OH266725   8.763   5.037   8.471
22283TIP3    H166726   8.755   5.128   8.508
22283TIP3    H266727   8.859   5.024   8.485
22284TIP3   OH266728   8.371   5.977   8.227
22284TIP3    H166729   8.431   6.053   8.234
22284TIP3    H266730   8.422   5.921   8.165
22285TIP3   OH266731   8.326   5.250   8.357
22285TIP3    H166732   8.329   5.348   8.360
22285TIP3    H266733   8.233   5.234   8.342
22286TIP3   OH266734   8.703   4.972   9.252
22286TIP3    H166735   8.693   4.954   9.157
22286TIP3    H266736   8.714   4.881   9.287
22287TIP3   OH266737   8.243   6.176   8.628
22287TIP3    H166738   8.189   6.227   8.689
22287TIP3    H266739   8.236   6.229   8.547
22288TIP3   OH266740   8.850   6.272   7.851
22288TIP3    H166741   8.801   6.196   7.889
22288TIP3    H266742   8.938   6.260   7.890
22289TIP3   OH266743   8.516   5.790   8.084
22289TIP3    H166744   8.566   5.751   8.157
22289TIP3    H266745   8.585   5.793   8.015
22290TIP3   OH266746   9.019   5.985   7.888
22290TIP3    H166747   9.014   5.998   7.984
22290TIP3    H266748   9.021   5.887   7.883
22291TIP3   OH266749   8.741   5.683   8.284
22291TIP3    H166750   8.695   5.658   8.368
22291TIP3    H266751   8.764   5.595   8.249
22292TIP3   OH266752   8.827   5.460   8.140
22292TIP3    H166753   8.795   5.476   8.049
22292TIP3    H266754   8.922   5.481   8.131
22293TIP3   OH266755   8.105   5.932   8.262
22293TIP3    H166756   8.200   5.954   8.255
22293TIP3    H266757   8.104   5.841   8.226
22294TIP3   OH266758   9.668   5.462   7.938
22294TIP3    H166759   9.643   5.487   7.848
22294TIP3    H266760   9.648   5.365   7.933
22295TIP3   OH266761   9.625   5.197   7.926
22295TIP3    H166762   9.713   5.168   7.958
22295TIP3    H266763   9.566   5.125   7.953
22296TIP3   OH266764   8.506   5.158   9.243
22296TIP3    H166765   8.571   5.086   9.253
22296TIP3    H266766   8.567   5.228   9.212
22297TIP3   OH266767   2.671  -0.198   3.769
22297TIP3    H166768   2.656  -0.166   3.678
22297TIP3    H266769   2.730  -0.127   3.798
22298TIP3   OH266770   9.878   5.143   8.011
22298TIP3    H166771   9.933   5.076   7.966
22298TIP3    H266772   9.945   5.179   8.073
22299TIP3   OH266773   8.310   4.943   8.811
22299TIP3    H166774   8.221   4.954   8.847
22299TIP3    H266775   8.312   5.010   8.740
22300TIP3   OH266776   8.630   4.880   8.997
22300TIP3    H166777   8.537   4.850   8.995
22300TIP3    H266778   8.677   4.794   8.992
22301TIP3   OH266779   8.411   4.746   8.638
22301TIP3    H166780   8.440   4.808   8.569
22301TIP3    H266781   8.379   4.809   8.707
22302TIP3   OH266782   9.066   4.909   8.887
22302TIP3    H166783   9.121   4.956   8.822
22302TIP3    H266784   9.022   4.983   8.934
22303TIP3   OH266785   9.634   4.967   8.388
22303TIP3    H166786   9.558   5.025   8.408
22303TIP3    H266787   9.612   4.888   8.441
22304TIP3   OH266788   8.140   6.302   8.404
22304TIP3    H166789   8.051   6.277   8.373
22304TIP3    H266790   8.124   6.393   8.431
22305TIP3   OH266791   8.523   4.907   8.403
22305TIP3    H166792   8.576   4.848   8.346
22305TIP3    H266793   8.594   4.962   8.443
22306TIP3   OH266794   9.046   5.085   8.498
22306TIP3    H166795   9.101   5.049   8.569
22306TIP3    H266796   9.037   5.178   8.525
22307TIP3   OH266797   8.204   6.344   8.057
22307TIP3    H166798   8.187   6.367   8.150
22307TIP3    H266799   8.293   6.302   8.061
22308TIP3   OH266800   2.101   7.080   9.477
22308TIP3    H166801   2.108   7.172   9.444
22308TIP3    H266802   2.190   7.045   9.454
22309TIP3   OH266803   1.863   6.530   9.614
22309TIP3    H166804   1.838   6.473   9.539
22309TIP3    H266805   1.950   6.561   9.584
22310TIP3   OH266806   2.146   7.130   9.742
22310TIP3    H166807   2.065   7.096   9.785
22310TIP3    H266808   2.129   7.103   9.649
22311TIP3   OH266809   1.810   6.857   9.617
22311TIP3    H166810   1.862   6.814   9.688
22311TIP3    H266811   1.723   6.862   9.661
22312TIP3   OH266812   2.126   7.364   9.461
22312TIP3    H166813   2.129   7.412   9.375
22312TIP3    H266814   2.034   7.380   9.485
22313TIP3   OH266815   1.758   7.091   9.469
22313TIP3    H166816   1.809   7.012   9.493
22313TIP3    H266817   1.794   7.111   9.380
22314TIP3   OH266818   1.452   6.770   9.587
22314TIP3    H166819   1.444   6.783   9.683
22314TIP3    H266820   1.501   6.686   9.579
22315TIP3   OH266821   2.097   6.611   9.506
22315TIP3    H166822   2.086   6.557   9.425
22315TIP3    H266823   2.071   6.698   9.468
22316TIP3   OH266824   2.311   6.576   9.675
22316TIP3    H166825   2.231   6.588   9.620
22316TIP3    H266826   2.287   6.615   9.760
22317TIP3   OH266827   2.155   6.243   9.659
22317TIP3    H166828   2.140   6.297   9.581
22317TIP3    H266829   2.149   6.154   9.623
22318TIP3   OH266830   3.562   6.933   9.741
22318TIP3    H166831   3.534   7.024   9.716
22318TIP3    H266832   3.487   6.882   9.705
22319TIP3   OH266833   3.801   7.232   9.802
22319TIP3    H166834   3.804   7.160   9.865
22319TIP3    H266835   3.840   7.306   9.853
22320TIP3   OH266836   3.455   7.702   9.801
22320TIP3    H166837   3.497   7.617   9.777
22320TIP3    H266838   3.398   7.681   9.877
22321TIP3   OH266839   4.381   6.480  10.160
22321TIP3    H166840   4.358   6.527  10.243
22321TIP3    H266841   4.353   6.543  10.092
22322TIP3   OH266842   3.807   6.398   9.789
22322TIP3    H166843   3.880   6.389   9.855
22322TIP3    H266844   3.855   6.443   9.717
22323TIP3   OH266845   3.452   7.151   9.610
22323TIP3    H166846   3.414   7.133   9.522
22323TIP3    H266847   3.410   7.236   9.632
22324TIP3   OH266848   4.020   6.412   9.962
22324TIP3    H166849   4.018   6.388  10.056
22324TIP3    H266850   4.073   6.494   9.969
22325TIP3   OH266851   2.438   6.934   9.720
22325TIP3    H166852   2.385   6.974   9.650
22325TIP3    H266853   2.464   7.011   9.775
22326TIP3   OH266854   3.870   7.450   9.973
22326TIP3    H166855   3.779   7.453  10.008
22326TIP3    H266856   3.874   7.535   9.923
22327TIP3   OH266857   3.580   7.513   9.643
22327TIP3    H166858   3.633   7.433   9.619
22327TIP3    H266859   3.639   7.582   9.607
22328TIP3   OH266860   3.722   7.302   9.546
22328TIP3    H166861   3.692   7.220   9.504
22328TIP3    H266862   3.755   7.269   9.632
22329TIP3   OH266863   3.394   6.785   9.568
22329TIP3    H166864   3.313   6.835   9.545
22329TIP3    H266865   3.441   6.781   9.483
22330TIP3   OH266866   3.353   6.567   9.286
22330TIP3    H166867   3.422   6.617   9.334
22330TIP3    H266868   3.409   6.503   9.238
22331TIP3   OH266869   4.296   6.994  10.117
22331TIP3    H166870   4.230   7.050  10.161
22331TIP3    H266871   4.325   7.053  10.044
22332TIP3   OH266872   3.740   6.864   9.543
22332TIP3    H166873   3.687   6.890   9.622
22332TIP3    H266874   3.824   6.837   9.586
22333TIP3   OH266875   2.963   6.855   9.950
22333TIP3    H166876   2.918   6.801   9.880
22333TIP3    H266877   3.037   6.798   9.974
22334TIP3   OH266878   3.068   7.288  10.048
22334TIP3    H166879   3.085   7.207   9.998
22334TIP3    H266880   3.134   7.279  10.121
22335TIP3   OH266881   3.623   7.448  10.098
22335TIP3    H166882   3.530   7.474  10.099
22335TIP3    H266883   3.624   7.368  10.153
22336TIP3   OH266884   3.582   6.723   9.368
22336TIP3    H166885   3.642   6.781   9.420
22336TIP3    H266886   3.608   6.747   9.276
22337TIP3   OH266887   3.323   7.408   9.647
22337TIP3    H166888   3.409   7.455   9.657
22337TIP3    H266889   3.269   7.473   9.602
22338TIP3   OH266890   4.098   5.964   9.415
22338TIP3    H166891   4.017   5.986   9.466
22338TIP3    H266892   4.111   6.047   9.364
22339TIP3   OH266893   2.842   6.700   9.759
22339TIP3    H166894   2.775   6.742   9.701
22339TIP3    H266895   2.789   6.630   9.799
22340TIP3   OH266896   3.896   7.331   8.965
22340TIP3    H166897   3.904   7.428   8.949
22340TIP3    H266898   3.989   7.302   8.951
22341TIP3   OH266899   3.197   7.646   9.442
22341TIP3    H166900   3.164   7.620   9.354
22341TIP3    H266901   3.159   7.734   9.454
22342TIP3   OH266902   3.407   7.549   9.086
22342TIP3    H166903   3.465   7.479   9.048
22342TIP3    H266904   3.443   7.557   9.177
22343TIP3   OH266905   3.457   7.599   9.358
22343TIP3    H166906   3.370   7.605   9.402
22343TIP3    H266907   3.513   7.562   9.428
22344TIP3   OH266908   3.657   6.769   9.111
22344TIP3    H166909   3.625   6.744   9.023
22344TIP3    H266910   3.739   6.818   9.087
22345TIP3   OH266911   3.373   6.144   9.412
22345TIP3    H166912   3.340   6.141   9.504
22345TIP3    H266913   3.331   6.063   9.376
22346TIP3   OH266914   3.530   6.585   9.699
22346TIP3    H166915   3.479   6.657   9.657
22346TIP3    H266916   3.588   6.557   9.625
22347TIP3   OH266917   3.704   6.624   9.927
22347TIP3    H166918   3.631   6.644   9.866
22347TIP3    H266919   3.726   6.534   9.898
22348TIP3   OH266920   3.027   6.118   9.384
22348TIP3    H166921   3.015   6.110   9.481
22348TIP3    H266922   2.945   6.165   9.360
22349TIP3   OH266923   2.533   6.155   9.765
22349TIP3    H166924   2.586   6.191   9.691
22349TIP3    H266925   2.536   6.227   9.829
22350TIP3   OH266926   3.082   6.359   9.719
22350TIP3    H166927   3.167   6.397   9.695
22350TIP3    H266928   3.021   6.394   9.650
22351TIP3   OH266929   2.908   6.412   9.513
22351TIP3    H166930   2.835   6.364   9.471
22351TIP3    H266931   2.960   6.441   9.435
22352TIP3   OH266932   3.162   6.938   9.520
22352TIP3    H166933   3.092   6.870   9.510
22352TIP3    H266934   3.152   6.963   9.614
22353TIP3   OH266935   4.060   7.165  10.164
22353TIP3    H166936   4.098   7.222  10.094
22353TIP3    H266937   3.983   7.128  10.118
22354TIP3   OH266938   3.624   6.247   9.381
22354TIP3    H166939   3.527   6.231   9.389
22354TIP3    H266940   3.633   6.342   9.404
22355TIP3   OH266941   3.693   6.494   9.484
22355TIP3    H166942   3.789   6.500   9.500
22355TIP3    H266943   3.675   6.573   9.430
22356TIP3   OH266944   3.310   7.084   9.340
22356TIP3    H166945   3.263   7.170   9.347
22356TIP3    H266946   3.255   7.029   9.400
22357TIP3   OH266947   4.135   6.585   9.320
22357TIP3    H166948   4.073   6.539   9.259
22357TIP3    H266949   4.131   6.673   9.278
22358TIP3   OH266950   3.832   7.404   9.228
22358TIP3    H166951   3.811   7.332   9.289
22358TIP3    H266952   3.847   7.358   9.143
22359TIP3   OH266953   3.832   7.033  10.068
22359TIP3    H166954   3.742   6.999  10.069
22359TIP3    H266955   3.878   6.958  10.024
22360TIP3   OH266956   2.954   7.228   9.765
22360TIP3    H166957   2.967   7.316   9.727
22360TIP3    H266958   2.880   7.241   9.826
22361TIP3   OH266959   2.527   6.568   9.514
22361TIP3    H166960   2.577   6.648   9.540
22361TIP3    H266961   2.451   6.575   9.576
22362TIP3   OH266962   3.116   7.013   9.780
22362TIP3    H166963   3.070   7.098   9.768
22362TIP3    H266964   3.056   6.967   9.841
22363TIP3   OH266965   2.893   7.495   9.659
22363TIP3    H166966   2.827   7.514   9.728
22363TIP3    H266967   2.950   7.573   9.664
22364TIP3   OH266968   3.589   7.129   9.131
22364TIP3    H166969   3.643   7.105   9.210
22364TIP3    H266970   3.501   7.104   9.161
22365TIP3   OH266971   3.929   7.606   8.950
22365TIP3    H166972   3.967   7.677   8.895
22365TIP3    H266973   3.849   7.653   8.982
22366TIP3   OH266974   3.749   7.065   9.349
22366TIP3    H166975   3.741   6.997   9.419
22366TIP3    H266976   3.846   7.064   9.335
22367TIP3   OH266977   2.955   7.112   9.131
22367TIP3    H166978   2.970   7.021   9.099
22367TIP3    H266979   2.935   7.097   9.225
22368TIP3   OH266980   2.897   7.114   9.404
22368TIP3    H166981   2.971   7.087   9.462
22368TIP3    H266982   2.904   7.212   9.408
22369TIP3   OH266983   2.644   6.806   9.599
22369TIP3    H166984   2.573   6.842   9.657
22369TIP3    H266985   2.656   6.882   9.538
22370TIP3   OH266986   3.671   6.196   9.657
22370TIP3    H166987   3.653   6.222   9.564
22370TIP3    H266988   3.710   6.277   9.694
22371TIP3   OH266989   3.168   7.314   9.352
22371TIP3    H166990   3.078   7.341   9.381
22371TIP3    H266991   3.186   7.381   9.285
22372TIP3   OH266992   3.373   6.367   9.745
22372TIP3    H166993   3.435   6.441   9.726
22372TIP3    H266994   3.347   6.388   9.837
22373TIP3   OH266995   3.508   6.104   9.856
22373TIP3    H166996   3.505   6.172   9.924
22373TIP3    H266997   3.563   6.147   9.787
22374TIP3   OH266998   2.906   7.386   9.407
22374TIP3    H166999   2.881   7.458   9.344
22374TIP3    H267000   2.897   7.431   9.493
22375TIP3   OH267001   3.023   6.098   9.664
22375TIP3    H167002   3.017   6.191   9.695
22375TIP3    H267003   3.120   6.087   9.667
22376TIP3   OH267004   3.916   6.797   9.944
22376TIP3    H167005   3.839   6.736   9.952
22376TIP3    H267006   3.985   6.747   9.991
22377TIP3   OH267007   2.627   7.024   9.410
22377TIP3    H167008   2.702   7.086   9.419
22377TIP3    H267009   2.666   6.964   9.343
22378TIP3   OH267010   2.586   6.300   9.532
22378TIP3    H167011   2.575   6.398   9.530
22378TIP3    H267012   2.496   6.269   9.516
22379TIP3   OH267013   3.888   7.693   9.854
22379TIP3    H167014   3.847   7.760   9.797
22379TIP3    H267015   3.980   7.725   9.858
22380TIP3   OH267016   2.509   7.184   9.814
22380TIP3    H167017   2.429   7.225   9.848
22380TIP3    H267018   2.506   7.202   9.719
22381TIP3   OH267019   3.119   7.316   9.044
22381TIP3    H167020   3.065   7.243   9.081
22381TIP3    H267021   3.194   7.266   9.007
22382TIP3   OH267022   3.554   7.357   8.953
22382TIP3    H167023   3.603   7.296   9.010
22382TIP3    H267024   3.609   7.360   8.872
22383TIP3   OH267025   2.761   6.835   9.263
22383TIP3    H167026   2.814   6.798   9.335
22383TIP3    H267027   2.828   6.838   9.192
22384TIP3   OH267028   3.271   7.030   9.071
22384TIP3    H167029   3.275   7.043   9.168
22384TIP3    H267030   3.272   6.932   9.066
22385TIP3   OH267031   2.975   6.735   9.489
22385TIP3    H167032   2.940   6.692   9.569
22385TIP3    H267033   3.008   6.658   9.437
22386TIP3   OH267034   3.073   6.530   9.325
22386TIP3    H167035   3.046   6.532   9.231
22386TIP3    H267036   3.170   6.537   9.316
22387TIP3   OH267037   3.894   6.861   8.989
22387TIP3    H167038   3.873   6.815   8.906
22387TIP3    H267039   3.863   6.951   8.965
22388TIP3   OH267040   2.878   7.595   9.232
22388TIP3    H167041   2.975   7.592   9.218
22388TIP3    H267042   2.854   7.640   9.148
22389TIP3   OH267043   2.353   6.978   9.436
22389TIP3    H167044   2.449   6.999   9.432
22389TIP3    H267045   2.352   6.887   9.401
22390TIP3   OH267046   4.125   7.840   9.856
22390TIP3    H167047   4.191   7.879   9.915
22390TIP3    H267048   4.146   7.887   9.774
22391TIP3   OH267049   4.029   7.048   9.322
22391TIP3    H167050   4.097   7.112   9.294
22391TIP3    H267051   4.072   7.008   9.401
22392TIP3   OH267052   4.156   6.915   9.525
22392TIP3    H167053   4.091   6.873   9.586
22392TIP3    H267054   4.221   6.954   9.587
22393TIP3   OH267055   4.185   7.293   9.953
22393TIP3    H167056   4.260   7.240   9.921
22393TIP3    H267057   4.191   7.372   9.896
22394TIP3   OH267058   4.050   7.626  10.123
22394TIP3    H167059   3.985   7.630  10.194
22394TIP3    H267060   4.015   7.553  10.069
22395TIP3   OH267061   4.095   6.823   9.173
22395TIP3    H167062   4.023   6.826   9.105
22395TIP3    H267063   4.069   6.899   9.228
22396TIP3   OH267064   3.965   6.496   9.128
22396TIP3    H167065   3.924   6.536   9.050
22396TIP3    H267066   3.940   6.402   9.116
22397TIP3   OH267067   3.969   6.772   9.673
22397TIP3    H167068   3.978   6.675   9.669
22397TIP3    H267069   3.955   6.787   9.769
22398TIP3   OH267070   3.910   6.230   9.112
22398TIP3    H167071   3.985   6.200   9.167
22398TIP3    H267072   3.837   6.171   9.138
22399TIP3   OH267073   3.966   6.489   9.567
22399TIP3    H167074   4.007   6.400   9.582
22399TIP3    H267075   4.025   6.522   9.497
22400TIP3   OH267076   4.131   6.664  10.055
22400TIP3    H167077   4.217   6.698  10.020
22400TIP3    H267078   4.131   6.704  10.143
22401TIP3   OH267079   4.076   6.239   9.603
22401TIP3    H167080   4.126   6.222   9.686
22401TIP3    H267081   4.016   6.162   9.602
22402TIP3   OH267082   4.157   6.173   9.237
22402TIP3    H167083   4.198   6.101   9.185
22402TIP3    H267084   4.224   6.244   9.231
22403TIP3   OH267085   3.724   7.698   9.504
22403TIP3    H167086   3.774   7.681   9.422
22403TIP3    H267087   3.770   7.775   9.539
22404TIP3   OH267088   4.150   6.117  10.057
22404TIP3    H167089   4.190   6.157   9.977
22404TIP3    H267090   4.055   6.131  10.039
22405TIP3   OH267091   4.244   6.193   9.816
22405TIP3    H167092   4.318   6.143   9.776
22405TIP3    H267093   4.277   6.285   9.804
22406TIP3   OH267094   3.878   6.101   9.993
22406TIP3    H167095   3.865   6.095   9.897
22406TIP3    H267096   3.891   6.008  10.018
22407TIP3   OH267097   3.895   6.027   9.595
22407TIP3    H167098   3.807   6.068   9.605
22407TIP3    H267099   3.880   5.939   9.637
22408TIP3   OH267100   2.374   7.324   9.592
22408TIP3    H167101   2.289   7.301   9.550
22408TIP3    H267102   2.384   7.415   9.560
22409TIP3   OH267103   2.777   5.980   9.548
22409TIP3    H167104   2.823   5.897   9.527
22409TIP3    H267105   2.828   6.010   9.624
22410TIP3   OH267106   3.297   6.117   9.679
22410TIP3    H167107   3.367   6.089   9.740
22410TIP3    H267108   3.305   6.214   9.694
22411TIP3   OH267109   3.148   7.550   9.182
22411TIP3    H167110   3.234   7.575   9.143
22411TIP3    H267111   3.124   7.477   9.121
22412TIP3   OH267112   3.867   7.670   9.270
22412TIP3    H167113   3.858   7.573   9.255
22412TIP3    H267114   3.824   7.705   9.189
22413TIP3   OH267115   2.457   7.388   9.238
22413TIP3    H167116   2.469   7.405   9.332
22413TIP3    H267117   2.541   7.343   9.215
22414TIP3   OH267118   5.362   7.183   9.229
22414TIP3    H167119   5.343   7.276   9.210
22414TIP3    H267120   5.286   7.137   9.187
22415TIP3   OH267121   5.345   7.190   9.609
22415TIP3    H167122   5.379   7.165   9.698
22415TIP3    H267123   5.315   7.104   9.576
22416TIP3   OH267124   4.659   7.082   9.966
22416TIP3    H167125   4.667   7.056  10.059
22416TIP3    H267126   4.742   7.129   9.949
22417TIP3   OH267127   5.590   7.482   9.285
22417TIP3    H167128   5.600   7.416   9.355
22417TIP3    H267129   5.625   7.561   9.332
22418TIP3   OH267130   4.631   7.493   9.705
22418TIP3    H167131   4.622   7.396   9.703
22418TIP3    H267132   4.727   7.501   9.686
22419TIP3   OH267133   4.335   6.695   9.482
22419TIP3    H167134   4.287   6.779   9.497
22419TIP3    H267135   4.265   6.642   9.441
22420TIP3   OH267136   4.395   6.983   9.650
22420TIP3    H167137   4.444   6.907   9.689
22420TIP3    H267138   4.455   7.011   9.579
22421TIP3   OH267139   5.243   7.943   9.298
22421TIP3    H167140   5.297   7.873   9.255
22421TIP3    H267141   5.246   7.916   9.391
22422TIP3   OH267142   5.158   7.409   9.657
22422TIP3    H167143   5.199   7.330   9.617
22422TIP3    H267144   5.241   7.457   9.679
22423TIP3   OH267145   6.176   6.753   9.655
22423TIP3    H167146   6.201   6.844   9.678
22423TIP3    H267147   6.213   6.749   9.565
22424TIP3   OH267148   5.566   6.915   9.688
22424TIP3    H167149   5.613   6.830   9.704
22424TIP3    H267150   5.538   6.902   9.596
22425TIP3   OH267151   4.905   6.574   9.652
22425TIP3    H167152   4.888   6.646   9.588
22425TIP3    H267153   4.860   6.499   9.607
22426TIP3   OH267154   5.602   6.666   9.277
22426TIP3    H167155   5.674   6.650   9.341
22426TIP3    H267156   5.653   6.700   9.201
22427TIP3   OH267157   4.541   6.779   9.760
22427TIP3    H167158   4.626   6.764   9.804
22427TIP3    H267159   4.552   6.723   9.680
22428TIP3   OH267160   4.982   6.973   9.551
22428TIP3    H167161   5.076   6.948   9.562
22428TIP3    H267162   4.943   6.889   9.519
22429TIP3   OH267163   4.907   6.551  10.082
22429TIP3    H167164   4.850   6.606  10.025
22429TIP3    H267165   4.868   6.567  10.171
22430TIP3   OH267166   5.245   7.402   9.076
22430TIP3    H167167   5.168   7.345   9.064
22430TIP3    H267168   5.209   7.479   9.121
22431TIP3   OH267169   4.988   7.332   9.880
22431TIP3    H167170   4.947   7.411   9.916
22431TIP3    H267171   5.056   7.370   9.820
22432TIP3   OH267172   5.812   6.667   9.449
22432TIP3    H167173   5.808   6.624   9.535
22432TIP3    H267174   5.869   6.744   9.469
22433TIP3   OH267175   4.778   6.679   9.867
22433TIP3    H167176   4.842   6.750   9.889
22433TIP3    H267177   4.827   6.635   9.794
22434TIP3   OH267178   4.233   7.216   9.216
22434TIP3    H167179   4.192   7.242   9.132
22434TIP3    H267180   4.262   7.303   9.252
22435TIP3   OH267181   5.658   7.702   9.430
22435TIP3    H167182   5.577   7.705   9.485
22435TIP3    H267183   5.665   7.796   9.403
22436TIP3   OH267184   5.958   6.620   9.796
22436TIP3    H167185   5.881   6.675   9.778
22436TIP3    H267186   6.030   6.668   9.750
22437TIP3   OH267187   5.260   6.273   9.801
22437TIP3    H167188   5.245   6.178   9.822
22437TIP3    H267189   5.182   6.312   9.847
22438TIP3   OH267190   5.370   7.773   9.124
22438TIP3    H167191   5.424   7.692   9.105
22438TIP3    H267192   5.433   7.841   9.092
22439TIP3   OH267193   5.513   7.561   9.036
22439TIP3    H167194   5.493   7.478   8.991
22439TIP3    H267195   5.551   7.529   9.121
22440TIP3   OH267196   5.192   7.046   9.056
22440TIP3    H167197   5.110   7.090   9.027
22440TIP3    H267198   5.239   7.032   8.971
22441TIP3   OH267199   5.148   6.823   8.777
22441TIP3    H167200   5.220   6.872   8.820
22441TIP3    H267201   5.202   6.758   8.725
22442TIP3   OH267202   6.080   7.259   9.648
22442TIP3    H167203   6.014   7.330   9.638
22442TIP3    H267204   6.138   7.274   9.572
22443TIP3   OH267205   5.537   7.121   9.028
22443TIP3    H167206   5.486   7.143   9.109
22443TIP3    H267207   5.622   7.093   9.069
22444TIP3   OH267208   4.772   7.120   9.443
22444TIP3    H167209   4.729   7.061   9.377
22444TIP3    H267210   4.848   7.066   9.472
22445TIP3   OH267211   4.895   7.522   9.595
22445TIP3    H167212   4.881   7.480   9.510
22445TIP3    H267213   4.987   7.494   9.617
22446TIP3   OH267214   4.909   7.085   9.799
22446TIP3    H167215   4.942   7.068   9.708
22446TIP3    H267216   4.947   7.174   9.818
22447TIP3   OH267217   5.428   7.719   9.571
22447TIP3    H167218   5.399   7.801   9.617
22447TIP3    H267219   5.413   7.650   9.638
22448TIP3   OH267220   5.374   6.983   8.854
22448TIP3    H167221   5.438   7.038   8.906
22448TIP3    H267222   5.402   7.006   8.762
22449TIP3   OH267223   5.112   7.674   9.086
22449TIP3    H167224   5.197   7.707   9.124
22449TIP3    H267225   5.048   7.736   9.126
22450TIP3   OH267226   5.894   6.220   8.902
22450TIP3    H167227   5.813   6.241   8.953
22450TIP3    H267228   5.908   6.303   8.852
22451TIP3   OH267229   4.635   6.963   9.252
22451TIP3    H167230   4.569   7.008   9.194
22451TIP3    H267231   4.596   6.875   9.260
22452TIP3   OH267232   5.694   7.589   8.454
22452TIP3    H167233   5.702   7.685   8.436
22452TIP3    H267234   5.786   7.559   8.438
22453TIP3   OH267235   4.267   7.534   9.792
22453TIP3    H167236   4.361   7.531   9.773
22453TIP3    H267237   4.256   7.614   9.844
22454TIP3   OH267238   5.005   7.910   8.930
22454TIP3    H167239   4.953   7.898   8.849
22454TIP3    H267240   4.973   7.997   8.961
22455TIP3   OH267241   4.441   7.753   9.312
22455TIP3    H167242   4.489   7.745   9.398
22455TIP3    H267243   4.381   7.677   9.318
22456TIP3   OH267244   5.207   7.797   8.575
22456TIP3    H167245   5.265   7.733   8.528
22456TIP3    H267246   5.262   7.817   8.653
22457TIP3   OH267247   5.253   7.834   8.856
22457TIP3    H167248   5.181   7.882   8.903
22457TIP3    H267249   5.324   7.835   8.923
22458TIP3   OH267250   5.023   6.358   9.923
22458TIP3    H167251   4.936   6.321   9.902
22458TIP3    H267252   4.995   6.438   9.972
22459TIP3   OH267253   5.454   7.039   8.601
22459TIP3    H167254   5.419   7.007   8.515
22459TIP3    H267255   5.540   7.075   8.574
22460TIP3   OH267256   5.162   6.402   8.899
22460TIP3    H167257   5.133   6.399   8.993
22460TIP3    H267258   5.126   6.317   8.868
22461TIP3   OH267259   4.955   6.868   9.950
22461TIP3    H167260   4.920   6.901  10.034
22461TIP3    H267261   4.940   6.946   9.891
22462TIP3   OH267262   4.836   6.754   9.462
22462TIP3    H167263   4.743   6.726   9.478
22462TIP3    H267264   4.851   6.713   9.373
22463TIP3   OH267265   5.326   6.839   9.188
22463TIP3    H167266   5.276   6.912   9.145
22463TIP3    H267267   5.383   6.809   9.114
22464TIP3   OH267268   5.481   6.867   9.430
22464TIP3    H167269   5.426   6.898   9.355
22464TIP3    H267270   5.517   6.786   9.388
22465TIP3   OH267271   4.819   6.371   8.868
22465TIP3    H167272   4.812   6.370   8.966
22465TIP3    H267273   4.742   6.426   8.844
22466TIP3   OH267274   4.365   6.420   9.738
22466TIP3    H167275   4.442   6.457   9.785
22466TIP3    H267276   4.402   6.388   9.654
22467TIP3   OH267277   4.337   6.399   9.256
22467TIP3    H167278   4.382   6.439   9.178
22467TIP3    H267279   4.277   6.473   9.279
22468TIP3   OH267280   5.463   7.111   9.844
22468TIP3    H167281   5.513   7.044   9.791
22468TIP3    H267282   5.509   7.108   9.928
22469TIP3   OH267283   5.163   6.577   9.523
22469TIP3    H167284   5.084   6.573   9.580
22469TIP3    H267285   5.235   6.574   9.589
22470TIP3   OH267286   4.598   6.630   9.534
22470TIP3    H167287   4.504   6.637   9.505
22470TIP3    H267288   4.623   6.540   9.505
22471TIP3   OH267289   4.868   6.628   9.220
22471TIP3    H167290   4.963   6.642   9.201
22471TIP3    H267291   4.823   6.652   9.136
22472TIP3   OH267292   5.651   6.655   9.717
22472TIP3    H167293   5.621   6.658   9.811
22472TIP3    H267294   5.591   6.588   9.680
22473TIP3   OH267295   4.708   6.663   8.997
22473TIP3    H167296   4.639   6.617   8.947
22473TIP3    H267297   4.762   6.699   8.924
22474TIP3   OH267298   5.248   6.903   9.614
22474TIP3    H167299   5.322   6.868   9.560
22474TIP3    H267300   5.265   6.860   9.699
22475TIP3   OH267301   4.770   6.392   9.497
22475TIP3    H167302   4.740   6.310   9.542
22475TIP3    H267303   4.824   6.357   9.424
22476TIP3   OH267304   5.218   6.781   9.908
22476TIP3    H167305   5.129   6.820   9.918
22476TIP3    H267306   5.276   6.846   9.950
22477TIP3   OH267307   4.963   7.197   9.008
22477TIP3    H167308   4.892   7.131   8.991
22477TIP3    H267309   4.941   7.226   9.100
22478TIP3   OH267310   5.854   7.424   9.642
22478TIP3    H167311   5.885   7.477   9.564
22478TIP3    H267312   5.772   7.385   9.606
22479TIP3   OH267313   5.418   6.501   8.878
22479TIP3    H167314   5.320   6.488   8.875
22479TIP3    H267315   5.428   6.597   8.888
22480TIP3   OH267316   5.488   6.754   8.972
22480TIP3    H167317   5.585   6.756   8.987
22480TIP3    H267318   5.473   6.829   8.913
22481TIP3   OH267319   4.657   7.216   9.680
22481TIP3    H167320   4.695   7.187   9.594
22481TIP3    H267321   4.690   7.147   9.740
22482TIP3   OH267322   5.928   6.840   8.807
22482TIP3    H167323   5.865   6.795   8.745
22482TIP3    H267324   5.926   6.929   8.765
22483TIP3   OH267325   5.618   7.660   8.712
22483TIP3    H167326   5.614   7.586   8.774
22483TIP3    H267327   5.641   7.617   8.628
22484TIP3   OH267328   5.614   7.293   9.549
22484TIP3    H167329   5.524   7.257   9.560
22484TIP3    H267330   5.660   7.215   9.510
22485TIP3   OH267331   4.751   7.517   9.300
22485TIP3    H167332   4.747   7.602   9.252
22485TIP3    H267333   4.657   7.502   9.318
22486TIP3   OH267334   4.317   6.822   9.010
22486TIP3    H167335   4.364   6.906   9.030
22486TIP3    H267336   4.240   6.828   9.070
22487TIP3   OH267337   4.898   7.289   9.255
22487TIP3    H167338   4.853   7.375   9.271
22487TIP3    H267339   4.861   7.235   9.327
22488TIP3   OH267340   5.022   7.855   9.759
22488TIP3    H167341   5.056   7.932   9.710
22488TIP3    H267342   5.090   7.841   9.825
22489TIP3   OH267343   4.679   7.756   9.162
22489TIP3    H167344   4.591   7.765   9.204
22489TIP3    H267345   4.709   7.849   9.164
22490TIP3   OH267346   5.417   7.497   9.738
22490TIP3    H167347   5.443   7.486   9.831
22490TIP3    H267348   5.487   7.449   9.692
22491TIP3   OH267349   5.384   7.388   8.616
22491TIP3    H167350   5.435   7.364   8.696
22491TIP3    H267351   5.307   7.331   8.624
22492TIP3   OH267352   5.725   7.864   8.437
22492TIP3    H167353   5.768   7.936   8.387
22492TIP3    H267354   5.644   7.911   8.465
22493TIP3   OH267355   5.544   7.324   8.837
22493TIP3    H167356   5.535   7.255   8.905
22493TIP3    H267357   5.640   7.321   8.821
22494TIP3   OH267358   4.466   7.747   9.952
22494TIP3    H167359   4.484   7.653   9.936
22494TIP3    H267360   4.542   7.772  10.005
22495TIP3   OH267361   4.773   7.357   8.617
22495TIP3    H167362   4.759   7.265   8.586
22495TIP3    H267363   4.738   7.352   8.708
22496TIP3   OH267364   4.702   7.373   8.882
22496TIP3    H167365   4.762   7.344   8.952
22496TIP3    H267366   4.703   7.471   8.894
22497TIP3   OH267367   4.433   7.067   9.092
22497TIP3    H167368   4.367   7.111   9.149
22497TIP3    H267369   4.446   7.137   9.024
22498TIP3   OH267370   5.582   6.690   9.981
22498TIP3    H167371   5.652   6.744  10.019
22498TIP3    H267372   5.552   6.638  10.056
22499TIP3   OH267373   5.460   6.455   9.151
22499TIP3    H167374   5.447   6.477   9.056
22499TIP3    H267375   5.502   6.538   9.184
22500TIP3   OH267376   5.148   6.635   9.251
22500TIP3    H167377   5.215   6.704   9.231
22500TIP3    H267378   5.157   6.627   9.348
22501TIP3   OH267379   5.296   6.360   9.353
22501TIP3    H167380   5.294   6.435   9.415
22501TIP3    H267381   5.357   6.396   9.284
22502TIP3   OH267382   4.705   7.643   8.906
22502TIP3    H167383   4.678   7.712   8.841
22502TIP3    H267384   4.690   7.689   8.991
22503TIP3   OH267385   4.807   6.360   9.145
22503TIP3    H167386   4.805   6.451   9.179
22503TIP3    H267387   4.903   6.341   9.152
22504TIP3   OH267388   5.710   7.050   9.428
22504TIP3    H167389   5.638   6.985   9.442
22504TIP3    H267390   5.786   7.007   9.473
22505TIP3   OH267391   4.424   7.277   8.899
22505TIP3    H167392   4.483   7.354   8.903
22505TIP3    H267393   4.471   7.223   8.832
22506TIP3   OH267394   4.369   6.551   9.032
22506TIP3    H167395   4.369   6.649   9.027
22506TIP3    H267396   4.286   6.530   8.987
22507TIP3   OH267397   5.645   7.973   9.367
22507TIP3    H167398   5.616   8.035   9.297
22507TIP3    H267399   5.739   7.996   9.374
22508TIP3   OH267400   4.757   6.273   9.904
22508TIP3    H167401   4.729   6.235   9.817
22508TIP3    H267402   4.753   6.192   9.961
22509TIP3   OH267403   4.295   7.489   9.286
22509TIP3    H167404   4.224   7.521   9.343
22509TIP3    H267405   4.271   7.531   9.200
22510TIP3   OH267406   4.924   7.570   8.538
22510TIP3    H167407   4.867   7.493   8.564
22510TIP3    H267408   4.993   7.524   8.485
22511TIP3   OH267409   5.352   7.615   8.437
22511TIP3    H167410   5.402   7.554   8.494
22511TIP3    H267411   5.406   7.616   8.355
22512TIP3   OH267412   4.561   7.091   8.750
22512TIP3    H167413   4.615   7.055   8.822
22512TIP3    H267414   4.627   7.092   8.677
22513TIP3   OH267415   5.086   7.285   8.578
22513TIP3    H167416   5.009   7.284   8.636
22513TIP3    H267417   5.095   7.188   8.561
22514TIP3   OH267418   4.771   6.995   8.971
22514TIP3    H167419   4.745   6.952   9.054
22514TIP3    H267420   4.807   6.920   8.919
22515TIP3   OH267421   4.869   6.787   8.813
22515TIP3    H167422   4.843   6.787   8.719
22515TIP3    H267423   4.967   6.791   8.806
22516TIP3   OH267424   5.689   7.118   8.477
22516TIP3    H167425   5.669   7.070   8.394
22516TIP3    H267426   5.658   7.208   8.451
22517TIP3   OH267427   5.169   6.615  10.139
22517TIP3    H167428   5.192   6.653  10.052
22517TIP3    H267429   5.075   6.591  10.124
22518TIP3   OH267430   4.678   7.842   8.716
22518TIP3    H167431   4.773   7.845   8.697
22518TIP3    H267432   4.643   7.894   8.641
22519TIP3   OH267433   4.156   7.229   8.934
22519TIP3    H167434   4.250   7.251   8.921
22519TIP3    H267435   4.150   7.141   8.892
22520TIP3   OH267436   4.068   7.842   9.348
22520TIP3    H167437   4.002   7.780   9.311
22520TIP3    H267438   4.113   7.785   9.414
22521TIP3   OH267439   4.206   7.693   9.533
22521TIP3    H167440   4.193   7.620   9.596
22521TIP3    H267441   4.261   7.753   9.587
22522TIP3   OH267442   5.823   7.307   8.808
22522TIP3    H167443   5.894   7.368   8.780
22522TIP3    H267444   5.864   7.265   8.887
22523TIP3   OH267445   5.948   7.173   9.009
22523TIP3    H167446   5.887   7.131   9.074
22523TIP3    H267447   6.018   7.210   9.067
22524TIP3   OH267448   5.971   7.549   9.433
22524TIP3    H167449   6.047   7.493   9.407
22524TIP3    H267450   5.990   7.634   9.392
22525TIP3   OH267451   5.891   7.080   8.659
22525TIP3    H167452   5.818   7.084   8.593
22525TIP3    H267453   5.865   7.156   8.716
22526TIP3   OH267454   5.757   6.751   8.615
22526TIP3    H167455   5.726   6.790   8.532
22526TIP3    H267456   5.735   6.656   8.600
22527TIP3   OH267457   5.764   7.027   9.158
22527TIP3    H167458   5.777   6.931   9.156
22527TIP3    H267459   5.753   7.044   9.254
22528TIP3   OH267460   4.395   7.120   9.893
22528TIP3    H167461   4.391   7.082   9.803
22528TIP3    H267462   4.491   7.111   9.912
22529TIP3   OH267463   5.711   6.479   8.588
22529TIP3    H167464   5.778   6.454   8.655
22529TIP3    H267465   5.630   6.431   8.616
22530TIP3   OH267466   5.762   6.743   9.053
22530TIP3    H167467   5.804   6.655   9.068
22530TIP3    H267468   5.821   6.777   8.983
22531TIP3   OH267469   5.929   6.922   9.533
22531TIP3    H167470   6.016   6.952   9.500
22531TIP3    H267471   5.933   6.958   9.625
22532TIP3   OH267472   5.957   7.054   9.768
22532TIP3    H167473   5.948   7.093   9.856
22532TIP3    H267474   6.010   7.125   9.724
22533TIP3   OH267475   5.872   6.494   9.092
22533TIP3    H167476   5.922   6.479   9.175
22533TIP3    H267477   5.812   6.417   9.091
22534TIP3   OH267478   4.590   6.485   9.918
22534TIP3    H167479   4.650   6.410   9.893
22534TIP3    H267480   4.643   6.562   9.888
22535TIP3   OH267481   4.381   6.746   9.992
22535TIP3    H167482   4.429   6.762   9.909
22535TIP3    H267483   4.379   6.835  10.033
22536TIP3   OH267484   5.953   6.429   8.726
22536TIP3    H167485   5.995   6.359   8.672
22536TIP3    H267486   6.019   6.501   8.720
22537TIP3   OH267487   4.357   6.262   9.488
22537TIP3    H167488   4.263   6.257   9.510
22537TIP3    H267489   4.356   6.317   9.407
22538TIP3   OH267490   5.509   7.962   8.986
22538TIP3    H167491   5.562   7.943   8.906
22538TIP3    H267492   5.564   8.030   9.027
22539TIP3   OH267493   4.675   8.001   9.791
22539TIP3    H167494   4.643   8.069   9.851
22539TIP3    H267495   4.690   8.051   9.709
22540TIP3   OH267496   5.113   8.064   9.608
22540TIP3    H167497   5.047   8.079   9.536
22540TIP3    H267498   5.117   8.154   9.648
22541TIP3   OH267499   5.357   7.961   9.669
22541TIP3    H167500   5.269   7.997   9.646
22541TIP3    H267501   5.414   8.038   9.651
22542TIP3   OH267502   4.382   7.840   9.692
22542TIP3    H167503   4.415   7.829   9.783
22542TIP3    H267504   4.460   7.808   9.641
22543TIP3   OH267505   4.579   7.719   9.546
22543TIP3    H167506   4.598   7.637   9.598
22543TIP3    H267507   4.667   7.762   9.546
22544TIP3   OH267508   4.841   7.812   9.550
22544TIP3    H167509   4.877   7.722   9.546
22544TIP3    H267510   4.878   7.840   9.637
22545TIP3   OH267511   5.415   6.468   9.636
22545TIP3    H167512   5.377   6.396   9.688
22545TIP3    H267513   5.492   6.426   9.593
22546TIP3   OH267514   5.943   6.340   9.537
22546TIP3    H167515   5.982   6.399   9.469
22546TIP3    H267516   5.853   6.376   9.546
22547TIP3   OH267517   6.039   6.452   9.307
22547TIP3    H167518   6.113   6.400   9.268
22547TIP3    H267519   6.073   6.543   9.293
22548TIP3   OH267520   4.669   6.180   9.658
22548TIP3    H167521   4.578   6.146   9.657
22548TIP3    H267522   4.720   6.096   9.655
22549TIP3   OH267523   4.455   6.049   9.303
22549TIP3    H167524   4.486   6.106   9.230
22549TIP3    H267525   4.427   6.115   9.370
22550TIP3   OH267526   5.110   6.214   9.537
22550TIP3    H167527   5.169   6.262   9.477
22550TIP3    H267528   5.139   6.247   9.623
22551TIP3   OH267529   5.649   6.360   9.524
22551TIP3    H167530   5.662   6.325   9.435
22551TIP3    H267531   5.641   6.277   9.577
22552TIP3   OH267532   5.689   6.280   9.082
22552TIP3    H167533   5.603   6.324   9.092
22552TIP3    H267534   5.674   6.196   9.129
22553TIP3   OH267535   4.172   7.621   9.085
22553TIP3    H167536   4.087   7.589   9.049
22553TIP3    H267537   4.163   7.715   9.065
22554TIP3   OH267538   4.572   6.209   9.068
22554TIP3    H167539   4.621   6.147   9.011
22554TIP3    H267540   4.645   6.263   9.104
22555TIP3   OH267541   5.084   6.383   9.167
22555TIP3    H167542   5.147   6.339   9.227
22555TIP3    H267543   5.104   6.476   9.190
22556TIP3   OH267544   4.955   7.797   8.681
22556TIP3    H167545   5.031   7.830   8.628
22556TIP3    H267546   4.925   7.724   8.622
22557TIP3   OH267547   5.654   7.926   8.756
22557TIP3    H167548   5.647   7.829   8.740
22557TIP3    H267549   5.615   7.961   8.672
22558TIP3   OH267550   4.246   7.643   8.723
22558TIP3    H167551   4.247   7.677   8.813
22558TIP3    H267552   4.336   7.604   8.713
22559TIP3   OH267553   6.132   6.950   8.965
22559TIP3    H167554   6.088   7.034   8.985
22559TIP3    H267555   6.058   6.899   8.928
22560TIP3   OH267556   6.182   7.243   9.128
22560TIP3    H167557   6.230   7.169   9.173
22560TIP3    H267558   6.250   7.274   9.067
22561TIP3   OH267559   6.706   6.828   9.127
22561TIP3    H167560   6.682   6.901   9.067
22561TIP3    H267561   6.650   6.756   9.092
22562TIP3   OH267562   7.397   6.874   8.742
22562TIP3    H167563   7.391   6.884   8.839
22562TIP3    H267564   7.380   6.965   8.714
22563TIP3   OH267565   6.340   7.057   9.233
22563TIP3    H167566   6.373   7.032   9.322
22563TIP3    H267567   6.370   6.982   9.179
22564TIP3   OH267568   6.769   7.228   9.021
22564TIP3    H167569   6.852   7.199   9.061
22564TIP3    H267570   6.726   7.142   8.998
22565TIP3   OH267571   6.695   6.807   9.545
22565TIP3    H167572   6.631   6.847   9.483
22565TIP3    H267573   6.678   6.859   9.624
22566TIP3   OH267574   6.568   6.928   9.341
22566TIP3    H167575   6.598   7.016   9.370
22566TIP3    H267576   6.631   6.903   9.271
22567TIP3   OH267577   6.029   7.472   8.702
22567TIP3    H167578   5.989   7.498   8.617
22567TIP3    H267579   6.058   7.558   8.739
22568TIP3   OH267580   7.056   6.540   9.270
22568TIP3    H167581   7.054   6.448   9.300
22568TIP3    H267582   6.984   6.579   9.325
22569TIP3   OH267583   6.977   7.287   8.524
22569TIP3    H167584   6.902   7.347   8.511
22569TIP3    H267585   7.028   7.298   8.443
22570TIP3   OH267586   6.943   7.078   8.258
22570TIP3    H167587   7.005   7.121   8.319
22570TIP3    H267588   7.002   7.017   8.210
22571TIP3   OH267589   6.576   7.387   8.919
22571TIP3    H167590   6.527   7.326   8.860
22571TIP3    H267591   6.646   7.327   8.955
22572TIP3   OH267592   7.189   7.241   8.340
22572TIP3    H167593   7.254   7.300   8.380
22572TIP3    H267594   7.202   7.259   8.244
22573TIP3   OH267595   7.687   6.476   8.386
22573TIP3    H167596   7.608   6.495   8.440
22573TIP3    H267597   7.699   6.560   8.338
22574TIP3   OH267598   6.434   7.224   8.738
22574TIP3    H167599   6.364   7.262   8.681
22574TIP3    H267600   6.398   7.137   8.757
22575TIP3   OH267601   6.227   7.997   8.795
22575TIP3    H167602   6.237   8.015   8.891
22575TIP3    H267603   6.181   7.911   8.797
22576TIP3   OH267604   6.986   8.030   8.042
22576TIP3    H167605   7.057   7.965   8.021
22576TIP3    H267606   7.003   8.048   8.137
22577TIP3   OH267607   6.823   6.609   9.412
22577TIP3    H167608   6.735   6.574   9.384
22577TIP3    H267609   6.791   6.689   9.460
22578TIP3   OH267610   7.255   7.297   8.088
22578TIP3    H167611   7.213   7.265   8.006
22578TIP3    H267612   7.343   7.323   8.053
22579TIP3   OH267613   6.966   6.658   8.387
22579TIP3    H167614   6.935   6.655   8.480
22579TIP3    H267615   6.925   6.575   8.355
22580TIP3   OH267616   6.626   7.010   8.943
22580TIP3    H167617   6.536   6.979   8.966
22580TIP3    H267618   6.639   6.965   8.857
22581TIP3   OH267619   7.100   7.075   8.648
22581TIP3    H167620   7.055   7.157   8.617
22581TIP3    H267621   7.154   7.050   8.571
22582TIP3   OH267622   6.620   6.631   8.353
22582TIP3    H167623   6.611   6.628   8.450
22582TIP3    H267624   6.540   6.682   8.328
22583TIP3   OH267625   6.161   6.675   9.222
22583TIP3    H167626   6.233   6.709   9.280
22583TIP3    H267627   6.210   6.647   9.143
22584TIP3   OH267628   6.133   6.656   8.742
22584TIP3    H167629   6.178   6.697   8.665
22584TIP3    H267630   6.074   6.730   8.767
22585TIP3   OH267631   6.960   6.829   9.014
22585TIP3    H167632   6.873   6.825   9.061
22585TIP3    H267633   7.014   6.855   9.091
22586TIP3   OH267634   6.397   6.886   9.012
22586TIP3    H167635   6.301   6.894   8.992
22586TIP3    H267636   6.417   6.793   8.991
22587TIP3   OH267637   6.660   6.879   8.706
22587TIP3    H167638   6.755   6.895   8.691
22587TIP3    H267639   6.617   6.907   8.622
22588TIP3   OH267640   6.504   6.921   8.484
22588TIP3    H167641   6.433   6.874   8.437
22588TIP3    H267642   6.556   6.955   8.408
22589TIP3   OH267643   6.561   6.645   8.982
22589TIP3    H167644   6.530   6.566   9.031
22589TIP3    H267645   6.622   6.607   8.918
22590TIP3   OH267646   6.754   7.455   8.488
22590TIP3    H167647   6.686   7.385   8.479
22590TIP3    H267648   6.742   7.483   8.582
22591TIP3   OH267649   7.211   6.765   8.344
22591TIP3    H167650   7.116   6.746   8.359
22591TIP3    H267651   7.222   6.857   8.377
22592TIP3   OH267652   7.283   7.006   8.452
22592TIP3    H167653   7.381   7.003   8.465
22592TIP3    H267654   7.272   7.084   8.393
22593TIP3   OH267655   6.457   7.429   9.165
22593TIP3    H167656   6.490   7.422   9.074
22593TIP3    H267657   6.483   7.345   9.204
22594TIP3   OH267658   6.903   7.604   8.308
22594TIP3    H167659   6.859   7.690   8.324
22594TIP3    H267660   6.854   7.547   8.371
22595TIP3   OH267661   7.717   7.076   8.271
22595TIP3    H167662   7.643   7.040   8.216
22595TIP3    H267663   7.716   7.167   8.234
22596TIP3   OH267664   6.554   7.765   8.805
22596TIP3    H167665   6.585   7.851   8.770
22596TIP3    H267666   6.458   7.772   8.793
22597TIP3   OH267667   6.114   7.078   8.497
22597TIP3    H167668   6.160   7.162   8.518
22597TIP3    H267669   6.036   7.084   8.558
22598TIP3   OH267670   6.715   7.546   8.745
22598TIP3    H167671   6.664   7.629   8.759
22598TIP3    H267672   6.666   7.485   8.804
22599TIP3   OH267673   6.404   8.041   8.597
22599TIP3    H167674   6.337   8.028   8.669
22599TIP3    H267675   6.488   8.041   8.646
22600TIP3   OH267676   7.154   7.638   8.070
22600TIP3    H167677   7.213   7.623   8.146
22600TIP3    H267678   7.070   7.600   8.102
22601TIP3   OH267679   6.550   7.620   8.104
22601TIP3    H167680   6.555   7.529   8.072
22601TIP3    H267681   6.526   7.607   8.198
22602TIP3   OH267682   6.493   7.630   8.375
22602TIP3    H167683   6.565   7.601   8.433
22602TIP3    H267684   6.498   7.728   8.382
22603TIP3   OH267685   6.229   7.323   8.578
22603TIP3    H167686   6.163   7.367   8.636
22603TIP3    H267687   6.242   7.393   8.511
22604TIP3   OH267688   7.248   6.688   8.619
22604TIP3    H167689   7.234   6.720   8.528
22604TIP3    H267690   7.301   6.760   8.658
22605TIP3   OH267691   6.762   7.839   8.325
22605TIP3    H167692   6.672   7.867   8.353
22605TIP3    H267693   6.761   7.867   8.233
22606TIP3   OH267694   6.937   6.881   8.743
22606TIP3    H167695   7.000   6.952   8.718
22606TIP3    H267696   6.949   6.877   8.841
22607TIP3   OH267697   7.087   6.616   8.845
22607TIP3    H167698   7.078   6.694   8.903
22607TIP3    H267699   7.146   6.652   8.774
22608TIP3   OH267700   6.502   7.904   8.385
22608TIP3    H167701   6.474   7.969   8.316
22608TIP3    H267702   6.462   7.949   8.463
22609TIP3   OH267703   6.603   6.615   8.628
22609TIP3    H167704   6.599   6.704   8.668
22609TIP3    H267705   6.699   6.598   8.638
22610TIP3   OH267706   6.219   7.533   8.386
22610TIP3    H167707   6.284   7.605   8.391
22610TIP3    H267708   6.264   7.477   8.318
22611TIP3   OH267709   6.167   6.808   8.515
22611TIP3    H167710   6.165   6.905   8.513
22611TIP3    H267711   6.082   6.785   8.475
22612TIP3   OH267712   6.558   6.528   9.388
22612TIP3    H167713   6.520   6.497   9.303
22612TIP3    H267714   6.543   6.451   9.447
22613TIP3   OH267715   6.087   7.749   8.774
22613TIP3    H167716   6.014   7.777   8.831
22613TIP3    H267717   6.058   7.787   8.687
22614TIP3   OH267718   6.716   7.818   8.020
22614TIP3    H167719   6.656   7.746   8.051
22614TIP3    H267720   6.786   7.765   7.977
22615TIP3   OH267721   7.172   7.869   7.928
22615TIP3    H167722   7.175   7.780   7.968
22615TIP3    H267723   7.202   7.858   7.836
22616TIP3   OH267724   6.355   7.348   8.236
22616TIP3    H167725   6.409   7.311   8.307
22616TIP3    H267726   6.422   7.350   8.163
22617TIP3   OH267727   6.870   7.544   8.042
22617TIP3    H167728   6.861   7.555   8.139
22617TIP3    H267729   6.867   7.446   8.036
22618TIP3   OH267730   6.570   7.250   8.462
22618TIP3    H167731   6.538   7.207   8.544
22618TIP3    H267732   6.601   7.173   8.410
22619TIP3   OH267733   6.664   7.044   8.298
22619TIP3    H167734   6.636   7.045   8.204
22619TIP3    H267735   6.761   7.050   8.289
22620TIP3   OH267736   7.484   7.362   7.954
22620TIP3    H167737   7.455   7.323   7.870
22620TIP3    H267738   7.464   7.457   7.936
22621TIP3   OH267739   6.462   8.109   8.208
22621TIP3    H167740   6.559   8.107   8.190
22621TIP3    H267741   6.433   8.153   8.126
22622TIP3   OH267742   5.951   7.486   8.421
22622TIP3    H167743   6.046   7.508   8.406
22622TIP3    H267744   5.946   7.398   8.378
22623TIP3   OH267745   5.858   8.099   8.821
22623TIP3    H167746   5.787   8.043   8.783
22623TIP3    H267747   5.893   8.037   8.889
22624TIP3   OH267748   5.936   7.932   9.019
22624TIP3    H167749   5.964   7.859   9.077
22624TIP3    H267750   5.901   7.995   9.086
22625TIP3   OH267751   7.667   7.309   8.147
22625TIP3    H167752   7.600   7.324   8.076
22625TIP3    H267753   7.699   7.399   8.160
22626TIP3   OH267754   7.533   7.008   8.087
22626TIP3    H167755   7.495   7.042   8.005
22626TIP3    H267756   7.513   6.912   8.080
22627TIP3   OH267757   6.172   7.368   9.386
22627TIP3    H167758   6.180   7.329   9.297
22627TIP3    H267759   6.263   7.394   9.406
22628TIP3   OH267760   7.488   6.742   8.072
22628TIP3    H167761   7.567   6.713   8.124
22628TIP3    H267762   7.417   6.684   8.105
22629TIP3   OH267763   7.553   6.997   8.497
22629TIP3    H167764   7.587   6.911   8.529
22629TIP3    H267765   7.628   7.029   8.445
22630TIP3   OH267766   7.669   6.755   8.583
22630TIP3    H167767   7.734   6.726   8.648
22630TIP3    H267768   7.605   6.681   8.583
22631TIP3   OH267769   6.363   6.735   9.398
22631TIP3    H167770   6.438   6.673   9.407
22631TIP3    H267771   6.409   6.821   9.408
22632TIP3   OH267772   7.726   6.679   8.188
22632TIP3    H167773   7.771   6.603   8.146
22632TIP3    H267774   7.799   6.743   8.199
22633TIP3   OH267775   6.153   6.506   8.966
22633TIP3    H167776   6.062   6.512   8.998
22633TIP3    H267777   6.153   6.569   8.891
22634TIP3   OH267778   6.341   6.561   9.787
22634TIP3    H167779   6.322   6.595   9.875
22634TIP3    H267780   6.295   6.626   9.731
22635TIP3   OH267781   7.217   6.736   9.132
22635TIP3    H167782   7.152   6.672   9.167
22635TIP3    H267783   7.274   6.681   9.074
22636TIP3   OH267784   6.464   6.435   9.140
22636TIP3    H167785   6.373   6.401   9.142
22636TIP3    H267786   6.515   6.351   9.138
22637TIP3   OH267787   6.250   6.305   8.789
22637TIP3    H167788   6.280   6.364   8.718
22637TIP3    H267789   6.220   6.369   8.857
22638TIP3   OH267790   6.906   6.468   9.023
22638TIP3    H167791   6.966   6.520   8.966
22638TIP3    H267792   6.927   6.504   9.110
22639TIP3   OH267793   7.406   6.606   8.989
22639TIP3    H167794   7.448   6.576   8.908
22639TIP3    H267795   7.404   6.523   9.041
22640TIP3   OH267796   7.486   6.541   8.569
22640TIP3    H167797   7.396   6.578   8.578
22640TIP3    H267798   7.475   6.456   8.616
22641TIP3   OH267799   5.968   7.876   8.571
22641TIP3    H167800   5.882   7.849   8.533
22641TIP3    H267801   5.963   7.972   8.552
22642TIP3   OH267802   6.368   6.465   8.554
22642TIP3    H167803   6.418   6.404   8.497
22642TIP3    H267804   6.440   6.521   8.591
22643TIP3   OH267805   6.881   6.633   8.650
22643TIP3    H167806   6.940   6.588   8.714
22643TIP3    H267807   6.896   6.726   8.679
22644TIP3   OH267808   6.718   8.067   8.126
22644TIP3    H167809   6.803   8.099   8.093
22644TIP3    H267810   6.709   7.984   8.074
22645TIP3   OH267811   6.046   7.903   8.209
22645TIP3    H167812   6.043   7.931   8.302
22645TIP3    H267813   6.134   7.861   8.201
22646TIP3   OH267814   8.376   6.847   7.821
22646TIP3    H167815   8.395   6.907   7.896
22646TIP3    H267816   8.310   6.898   7.772
22647TIP3   OH267817   7.909   6.894   8.197
22647TIP3    H167818   7.964   6.941   8.131
22647TIP3    H267819   7.840   6.962   8.216
22648TIP3   OH267820   7.976   7.077   7.998
22648TIP3    H167821   7.966   7.173   8.010
22648TIP3    H267822   7.890   7.049   7.963
22649TIP3   OH267823   7.902   6.708   8.411
22649TIP3    H167824   7.833   6.745   8.468
22649TIP3    H267825   7.953   6.785   8.384
22650TIP3   OH267826   8.045   6.539   8.251
22650TIP3    H167827   8.065   6.598   8.175
22650TIP3    H267828   7.989   6.598   8.308
22651TIP3   OH267829   8.138   6.699   8.038
22651TIP3    H167830   8.207   6.658   7.983
22651TIP3    H267831   8.179   6.781   8.071
22652TIP3   OH267832   2.968   8.382   8.890
22652TIP3    H167833   3.019   8.411   8.968
22652TIP3    H267834   3.031   8.318   8.851
22653TIP3   OH267835   3.736   7.778   9.052
22653TIP3    H167836   3.655   7.801   9.103
22653TIP3    H267837   3.750   7.861   9.001
22654TIP3   OH267838   3.313   8.583   8.740
22654TIP3    H167839   3.272   8.548   8.658
22654TIP3    H267840   3.397   8.618   8.704
22655TIP3   OH267841   3.008   7.958   8.988
22655TIP3    H167842   2.994   7.962   9.086
22655TIP3    H267843   2.976   7.867   8.973
22656TIP3   OH267844   2.695   7.924   9.031
22656TIP3    H167845   2.685   7.921   9.127
22656TIP3    H267846   2.604   7.944   9.000
22657TIP3   OH267847   3.265   8.031   9.030
22657TIP3    H167848   3.170   8.031   9.006
22657TIP3    H267849   3.292   8.125   9.025
22658TIP3   OH267850   3.363   8.278   9.065
22658TIP3    H167851   3.449   8.278   9.113
22658TIP3    H267852   3.376   8.354   9.007
22659TIP3   OH267853   3.771   8.392   8.954
22659TIP3    H167854   3.703   8.348   8.897
22659TIP3    H267855   3.776   8.477   8.907
22660TIP3   OH267856   3.292   8.052   9.303
22660TIP3    H167857   3.273   8.033   9.209
22660TIP3    H267858   3.367   8.112   9.296
22661TIP3   OH267859   3.536   8.679   8.611
22661TIP3    H167860   3.520   8.626   8.530
22661TIP3    H267861   3.502   8.766   8.581
22662TIP3   OH267862   3.718   8.638   8.805
22662TIP3    H167863   3.670   8.624   8.721
22662TIP3    H267864   3.652   8.692   8.849
22663TIP3   OH267865   3.585   8.322   8.764
22663TIP3    H167866   3.575   8.341   8.670
22663TIP3    H267867   3.568   8.225   8.764
22664TIP3   OH267868   3.542   8.054   8.767
22664TIP3    H167869   3.624   8.017   8.806
22664TIP3    H267870   3.478   7.982   8.774
22665TIP3   OH267871   3.600   8.301   9.189
22665TIP3    H167872   3.643   8.220   9.224
22665TIP3    H267873   3.678   8.344   9.148
22666TIP3   OH267874   3.712   8.053   9.246
22666TIP3    H167875   3.762   8.037   9.328
22666TIP3    H267876   3.653   7.975   9.243
22667TIP3   OH267877   3.794   7.986   8.873
22667TIP3    H167878   3.834   7.915   8.818
22667TIP3    H267879   3.860   8.057   8.865
22668TIP3   OH267880   3.798   7.914   9.707
22668TIP3    H167881   3.834   7.960   9.628
22668TIP3    H267882   3.702   7.923   9.690
22669TIP3   OH267883   3.879   8.007   9.463
22669TIP3    H167884   3.951   7.955   9.421
22669TIP3    H267885   3.912   8.098   9.443
22670TIP3   OH267886   3.530   7.909   9.648
22670TIP3    H167887   3.504   7.866   9.565
22670TIP3    H267888   3.502   7.840   9.713
22671TIP3   OH267889   3.532   7.837   9.234
22671TIP3    H167890   3.441   7.870   9.230
22671TIP3    H267891   3.519   7.752   9.281
22672TIP3   OH267892   2.435   7.810   9.206
22672TIP3    H167893   2.462   7.731   9.155
22672TIP3    H267894   2.476   7.793   9.292
22673TIP3   OH267895   2.973   7.951   9.252
22673TIP3    H167896   2.961   7.906   9.337
22673TIP3    H267897   2.946   8.041   9.275
22674TIP3   OH267898   4.987   9.020   8.882
22674TIP3    H167899   4.931   9.094   8.850
22674TIP3    H267900   4.934   8.944   8.850
22675TIP3   OH267901   3.984   8.500   9.119
22675TIP3    H167902   3.922   8.568   9.150
22675TIP3    H267903   3.922   8.429   9.094
22676TIP3   OH267904   4.550   8.389   9.278
22676TIP3    H167905   4.531   8.458   9.212
22676TIP3    H267906   4.499   8.314   9.239
22677TIP3   OH267907   4.627   8.785   9.164
22677TIP3    H167908   4.720   8.757   9.178
22677TIP3    H267909   4.583   8.700   9.142
22678TIP3   OH267910   4.844   9.221   8.746
22678TIP3    H167911   4.842   9.171   8.664
22678TIP3    H267912   4.910   9.292   8.724
22679TIP3   OH267913   5.475   8.481   9.082
22679TIP3    H167914   5.435   8.426   9.150
22679TIP3    H267915   5.543   8.530   9.129
22680TIP3   OH267916   4.439   8.465   9.516
22680TIP3    H167917   4.457   8.557   9.492
22680TIP3    H267918   4.477   8.418   9.438
22681TIP3   OH267919   4.897   8.085   9.433
22681TIP3    H167920   4.879   7.991   9.453
22681TIP3    H267921   4.819   8.126   9.477
22682TIP3   OH267922   5.056   9.362   8.647
22682TIP3    H167923   5.100   9.289   8.599
22682TIP3    H267924   5.130   9.396   8.700
22683TIP3   OH267925   4.835   8.888   8.690
22683TIP3    H167926   4.746   8.896   8.654
22683TIP3    H267927   4.883   8.838   8.621
22684TIP3   OH267928   4.785   8.639   8.409
22684TIP3    H167929   4.856   8.685   8.459
22684TIP3    H267930   4.838   8.572   8.363
22685TIP3   OH267931   5.159   8.947   8.668
22685TIP3    H167932   5.099   8.967   8.743
22685TIP3    H267933   5.235   8.915   8.720
22686TIP3   OH267934   4.422   8.929   9.045
22686TIP3    H167935   4.371   8.869   8.986
22686TIP3    H267936   4.495   8.870   9.075
22687TIP3   OH267937   5.009   8.793   8.493
22687TIP3    H167938   5.068   8.850   8.548
22687TIP3    H267939   5.039   8.817   8.402
22688TIP3   OH267940   5.528   8.035   8.536
22688TIP3    H167941   5.449   8.060   8.587
22688TIP3    H267942   5.546   8.118   8.487
22689TIP3   OH267943   4.271   8.765   8.870
22689TIP3    H167944   4.198   8.810   8.822
22689TIP3    H267945   4.230   8.682   8.896
22690TIP3   OH267946   5.332   9.387   8.099
22690TIP3    H167947   5.328   9.482   8.074
22690TIP3    H267948   5.424   9.365   8.071
22691TIP3   OH267949   4.848   9.615   8.191
22691TIP3    H167950   4.904   9.545   8.151
22691TIP3    H267951   4.876   9.608   8.285
22692TIP3   OH267952   4.896   9.630   8.459
22692TIP3    H167953   4.862   9.683   8.536
22692TIP3    H267954   4.947   9.562   8.508
22693TIP3   OH267955   4.668   8.160   9.556
22693TIP3    H167956   4.570   8.149   9.548
22693TIP3    H267957   4.676   8.249   9.597
22694TIP3   OH267958   5.090   8.851   8.236
22694TIP3    H167959   5.056   8.817   8.151
22694TIP3    H267960   5.177   8.886   8.209
22695TIP3   OH267961   4.797   8.216   8.537
22695TIP3    H167962   4.767   8.215   8.630
22695TIP3    H267963   4.759   8.132   8.505
22696TIP3   OH267964   4.478   8.569   9.088
22696TIP3    H167965   4.386   8.541   9.107
22696TIP3    H267966   4.490   8.526   9.000
22697TIP3   OH267967   4.461   8.188   8.504
22697TIP3    H167968   4.450   8.186   8.601
22697TIP3    H267969   4.381   8.237   8.477
22698TIP3   OH267970   4.001   8.225   9.363
22698TIP3    H167971   4.074   8.257   9.421
22698TIP3    H267972   4.049   8.191   9.286
22699TIP3   OH267973   3.977   8.215   8.895
22699TIP3    H167974   4.018   8.253   8.815
22699TIP3    H267975   3.913   8.285   8.915
22700TIP3   OH267976   4.800   8.357   9.156
22700TIP3    H167977   4.721   8.371   9.212
22700TIP3    H267978   4.867   8.411   9.201
22701TIP3   OH267979   4.250   8.453   9.162
22701TIP3    H167980   4.153   8.461   9.148
22701TIP3    H267981   4.265   8.357   9.150
22702TIP3   OH267982   4.507   8.437   8.852
22702TIP3    H167983   4.601   8.458   8.834
22702TIP3    H267984   4.461   8.466   8.770
22703TIP3   OH267985   5.292   8.439   9.377
22703TIP3    H167986   5.225   8.482   9.432
22703TIP3    H267987   5.233   8.386   9.320
22704TIP3   OH267988   4.345   8.479   8.634
22704TIP3    H167989   4.274   8.432   8.586
22704TIP3    H267990   4.397   8.513   8.559
22705TIP3   OH267991   4.874   8.705   9.258
22705TIP3    H167992   4.920   8.684   9.174
22705TIP3    H267993   4.935   8.665   9.321
22706TIP3   OH267994   4.410   8.202   9.135
22706TIP3    H167995   4.375   8.124   9.182
22706TIP3    H267996   4.453   8.163   9.058
22707TIP3   OH267997   4.875   8.610   9.582
22707TIP3    H167998   4.803   8.661   9.540
22707TIP3    H267999   4.931   8.681   9.616
22708TIP3   OH268000   4.577   9.021   8.629
22708TIP3    H168001   4.517   8.944   8.628
22708TIP3    H268002   4.575   9.048   8.723
22709TIP3   OH268003   5.054   8.304   8.500
22709TIP3    H168004   4.956   8.298   8.512
22709TIP3    H268005   5.073   8.399   8.518
22710TIP3   OH268006   5.127   8.547   8.576
22710TIP3    H168007   5.218   8.553   8.612
22710TIP3    H268008   5.102   8.640   8.565
22711TIP3   OH268009   4.736   9.164   8.460
22711TIP3    H168010   4.689   9.246   8.482
22711TIP3    H268011   4.688   9.100   8.517
22712TIP3   OH268012   5.568   8.635   8.436
22712TIP3    H168013   5.498   8.602   8.375
22712TIP3    H268014   5.568   8.729   8.409
22713TIP3   OH268015   5.283   9.448   8.373
22713TIP3    H168016   5.233   9.367   8.391
22713TIP3    H268017   5.299   9.439   8.277
22714TIP3   OH268018   3.954   8.633   8.647
22714TIP3    H168019   4.000   8.718   8.664
22714TIP3    H268020   3.876   8.642   8.704
22715TIP3   OH268021   4.526   9.122   8.877
22715TIP3    H168022   4.496   9.199   8.925
22715TIP3    H268023   4.497   9.051   8.939
22716TIP3   OH268024   5.023   9.206   8.255
22716TIP3    H168025   5.074   9.179   8.335
22716TIP3    H268026   4.936   9.170   8.277
22717TIP3   OH268027   5.322   9.650   8.047
22717TIP3    H168028   5.322   9.711   7.970
22717TIP3    H268029   5.280   9.708   8.114
22718TIP3   OH268030   5.183   9.153   8.482
22718TIP3    H168031   5.165   9.078   8.543
22718TIP3    H268032   5.280   9.142   8.470
22719TIP3   OH268033   4.387   9.183   8.249
22719TIP3    H168034   4.400   9.090   8.221
22719TIP3    H268035   4.373   9.171   8.346
22720TIP3   OH268036   4.352   9.190   8.521
22720TIP3    H168037   4.406   9.128   8.574
22720TIP3    H268038   4.352   9.269   8.577
22721TIP3   OH268039   4.059   8.885   8.733
22721TIP3    H168040   4.022   8.947   8.798
22721TIP3    H268041   4.074   8.948   8.659
22722TIP3   OH268042   5.111   8.280   8.781
22722TIP3    H168043   5.090   8.294   8.687
22722TIP3    H268044   5.126   8.372   8.811
22723TIP3   OH268045   4.589   9.407   8.487
22723TIP3    H168046   4.503   9.443   8.464
22723TIP3    H268047   4.643   9.440   8.413
22724TIP3   OH268048   4.784   8.447   8.883
22724TIP3    H168049   4.860   8.510   8.879
22724TIP3    H268050   4.787   8.434   8.980
22725TIP3   OH268051   4.941   8.179   8.989
22725TIP3    H168052   4.914   8.255   9.045
22725TIP3    H268053   5.001   8.225   8.925
22726TIP3   OH268054   4.446   8.173   8.781
22726TIP3    H168055   4.442   8.265   8.815
22726TIP3    H268056   4.542   8.157   8.789
22727TIP3   OH268057   4.063   9.085   8.544
22727TIP3    H168058   4.103   9.173   8.546
22727TIP3    H268059   4.114   9.041   8.473
22728TIP3   OH268060   4.004   8.359   8.667
22728TIP3    H168061   3.997   8.456   8.657
22728TIP3    H268062   3.933   8.326   8.611
22729TIP3   OH268063   4.399   8.084   9.544
22729TIP3    H168064   4.365   8.056   9.457
22729TIP3    H268065   4.382   8.006   9.599
22730TIP3   OH268066   4.558   9.382   8.174
22730TIP3    H168067   4.497   9.310   8.204
22730TIP3    H268068   4.628   9.328   8.132
22731TIP3   OH268069   4.996   9.421   8.074
22731TIP3    H168070   5.032   9.354   8.136
22731TIP3    H268071   5.059   9.419   8.000
22732TIP3   OH268072   4.200   8.906   8.386
22732TIP3    H168073   4.251   8.866   8.457
22732TIP3    H268074   4.267   8.907   8.314
22733TIP3   OH268075   4.709   9.101   8.193
22733TIP3    H168076   4.707   9.114   8.290
22733TIP3    H268077   4.708   9.003   8.187
22734TIP3   OH268078   4.407   8.806   8.612
22734TIP3    H168079   4.376   8.765   8.695
22734TIP3    H268080   4.441   8.729   8.562
22735TIP3   OH268081   4.506   8.602   8.449
22735TIP3    H168082   4.480   8.603   8.355
22735TIP3    H268083   4.604   8.607   8.441
22736TIP3   OH268084   5.324   8.935   8.110
22736TIP3    H168085   5.306   8.882   8.030
22736TIP3    H268086   5.288   9.022   8.080
22737TIP3   OH268087   4.746   8.390   9.698
22737TIP3    H168088   4.806   8.453   9.654
22737TIP3    H268089   4.743   8.428   9.788
22738TIP3   OH268090   4.335   9.678   8.351
22738TIP3    H168091   4.423   9.664   8.309
22738TIP3    H268092   4.278   9.697   8.275
22739TIP3   OH268093   3.791   9.046   8.505
22739TIP3    H168094   3.879   9.062   8.543
22739TIP3    H268095   3.791   8.949   8.493
22740TIP3   OH268096   5.470   9.124   8.467
22740TIP3    H168097   5.551   9.137   8.417
22740TIP3    H268098   5.501   9.083   8.550
22741TIP3   OH268099   5.525   8.903   8.291
22741TIP3    H168100   5.453   8.898   8.224
22741TIP3    H268101   5.483   8.959   8.358
22742TIP3   OH268102   5.388   8.572   8.239
22742TIP3    H168103   5.347   8.595   8.154
22742TIP3    H268104   5.370   8.476   8.241
22743TIP3   OH268105   5.457   8.785   8.721
22743TIP3    H168106   5.414   8.699   8.735
22743TIP3    H268107   5.421   8.839   8.794
22744TIP3   OH268108   5.342   8.305   8.238
22744TIP3    H168109   5.420   8.274   8.288
22744TIP3    H268110   5.272   8.242   8.264
22745TIP3   OH268111   5.389   8.528   8.662
22745TIP3    H168112   5.431   8.445   8.692
22745TIP3    H268113   5.459   8.566   8.607
22746TIP3   OH268114   5.517   8.292   8.721
22746TIP3    H168115   5.558   8.285   8.810
22746TIP3    H268116   5.450   8.221   8.726
22747TIP3   OH268117   4.206   8.284   9.527
22747TIP3    H168118   4.277   8.220   9.548
22747TIP3    H268119   4.245   8.366   9.564
22748TIP3   OH268120   5.588   8.244   8.356
22748TIP3    H168121   5.629   8.170   8.305
22748TIP3    H268122   5.658   8.312   8.354
22749TIP3   OH268123   3.995   8.062   9.116
22749TIP3    H168124   3.903   8.069   9.147
22749TIP3    H268125   3.996   8.124   9.040
22750TIP3   OH268126   5.069   8.285   9.301
22750TIP3    H168127   5.008   8.215   9.331
22750TIP3    H268128   5.121   8.240   9.233
22751TIP3   OH268129   5.569   8.178   9.202
22751TIP3    H168130   5.612   8.217   9.122
22751TIP3    H268131   5.474   8.190   9.181
22752TIP3   OH268132   5.668   8.251   8.956
22752TIP3    H168133   5.744   8.203   8.917
22752TIP3    H268134   5.691   8.342   8.927
22753TIP3   OH268135   4.306   7.994   9.293
22753TIP3    H168136   4.214   7.961   9.294
22753TIP3    H268137   4.355   7.909   9.290
22754TIP3   OH268138   4.096   7.862   8.941
22754TIP3    H168139   4.123   7.920   8.868
22754TIP3    H268140   4.063   7.926   9.006
22755TIP3   OH268141   4.754   8.024   9.172
22755TIP3    H168142   4.804   8.087   9.118
22755TIP3    H268143   4.763   8.063   9.260
22756TIP3   OH268144   5.295   8.171   9.159
22756TIP3    H168145   5.282   8.146   9.067
22756TIP3    H268146   5.276   8.088   9.208
22757TIP3   OH268147   5.322   8.094   8.716
22757TIP3    H168148   5.243   8.150   8.731
22757TIP3    H268149   5.302   8.015   8.768
22758TIP3   OH268150   4.209   8.020   8.709
22758TIP3    H168151   4.258   7.961   8.649
22758TIP3    H268152   4.281   8.076   8.744
22759TIP3   OH268153   4.724   8.195   8.804
22759TIP3    H168154   4.787   8.156   8.868
22759TIP3    H268155   4.740   8.290   8.824
22760TIP3   OH268156   4.591   9.628   8.277
22760TIP3    H168157   4.681   9.642   8.242
22760TIP3    H268158   4.570   9.543   8.233
22761TIP3   OH268159   5.774   8.805   8.559
22761TIP3    H168160   5.764   8.839   8.650
22761TIP3    H268161   5.710   8.733   8.558
22762TIP3   OH268162   6.571   8.479   7.973
22762TIP3    H168163   6.613   8.491   8.062
22762TIP3    H268164   6.538   8.387   7.980
22763TIP3   OH268165   6.246   8.438   7.983
22763TIP3    H168166   6.241   8.434   8.080
22763TIP3    H268167   6.170   8.495   7.963
22764TIP3   OH268168   5.768   8.456   8.814
22764TIP3    H168169   5.850   8.501   8.842
22764TIP3    H268170   5.802   8.411   8.734
22765TIP3   OH268171   5.784   8.476   8.380
22765TIP3    H168172   5.818   8.518   8.298
22765TIP3    H268173   5.714   8.540   8.404
22766TIP3   OH268174   6.146   8.694   8.123
22766TIP3    H168175   6.071   8.667   8.067
22766TIP3    H268176   6.194   8.754   8.064
22767TIP3   OH268177   5.744   8.889   8.132
22767TIP3    H168178   5.803   8.949   8.178
22767TIP3    H268179   5.665   8.891   8.191
22768TIP3   OH268180   6.240   8.416   8.258
22768TIP3    H168181   6.225   8.492   8.317
22768TIP3    H268182   6.329   8.386   8.285
22769TIP3   OH268183   5.803   8.620   8.150
22769TIP3    H168184   5.793   8.717   8.146
22769TIP3    H268185   5.721   8.588   8.110
22770TIP3   OH268186   5.986   9.172   7.844
22770TIP3    H168187   6.034   9.152   7.927
22770TIP3    H268188   6.057   9.153   7.778
22771TIP3   OH268189   6.303   8.845   7.934
22771TIP3    H168190   6.249   8.830   7.854
22771TIP3    H268191   6.388   8.867   7.894
22772TIP3   OH268192   5.588   9.315   8.012
22772TIP3    H168193   5.654   9.327   8.081
22772TIP3    H268194   5.592   9.218   7.993
22773TIP3   OH268195   5.780   8.303   8.586
22773TIP3    H168196   5.688   8.312   8.618
22773TIP3    H268197   5.787   8.374   8.518
22774TIP3   OH268198   6.085   8.228   8.708
22774TIP3    H168199   5.993   8.201   8.730
22774TIP3    H268200   6.135   8.147   8.731
22775TIP3   OH268201   5.888   8.110   8.420
22775TIP3    H168202   5.919   8.171   8.351
22775TIP3    H268203   5.857   8.174   8.488
22776TIP3   OH268204   6.002   8.274   8.189
22776TIP3    H168205   6.048   8.211   8.130
22776TIP3    H268206   6.077   8.326   8.223
22777TIP3   OH268207   4.984  10.103   7.903
22777TIP3    H168208   5.042  10.030   7.878
22777TIP3    H268209   4.895  10.063   7.899
22778TIP3   OH268210   4.958   9.878   8.330
22778TIP3    H168211   4.885   9.938   8.309
22778TIP3    H268212   4.907   9.800   8.358
   9.80000   9.23953   8.00167   0.00000   0.00000  -3.26667   0.00000  -3.26667  -4.61976
