Title t= 288.00000 step= 144000
19927
    1ASP      N    1   1.361   0.405   2.150
    1ASP    HT1    2   1.280   0.471   2.152
    1ASP    HT2    3   1.393   0.381   2.245
    1ASP    HT3    4   1.324   0.315   2.115
    1ASP     CA    5   1.469   0.441   2.055
    1ASP     HA    6   1.534   0.355   2.046
    1ASP     CB    7   1.402   0.466   1.911
    1ASP    HB1    8   1.348   0.562   1.918
    1ASP    HB2    9   1.329   0.386   1.883
    1ASP     CG   10   1.502   0.474   1.799
    1ASP    OD1   11   1.617   0.429   1.825
    1ASP    OD2   12   1.470   0.516   1.686
    1ASP      C   13   1.558   0.550   2.121
    1ASP      O   14   1.538   0.589   2.236
    2ALA      N   15   1.666   0.588   2.051
    2ALA     HN   16   1.668   0.548   1.960
    2ALA     CA   17   1.770   0.690   2.090
    2ALA     HA   18   1.819   0.659   2.181
    2ALA     CB   19   1.874   0.702   1.972
    2ALA    HB1   20   1.915   0.601   1.948
    2ALA    HB2   21   1.951   0.779   1.992
    2ALA    HB3   22   1.823   0.723   1.875
    2ALA      C   23   1.715   0.829   2.128
    2ALA      O   24   1.601   0.864   2.106
    3ASP      N   25   1.797   0.917   2.193
    3ASP     HN   26   1.894   0.898   2.203
    3ASP     CA   27   1.766   1.043   2.257
    3ASP     HA   28   1.731   1.016   2.356
    3ASP     CB   29   1.897   1.126   2.269
    3ASP    HB1   30   1.882   1.204   2.347
    3ASP    HB2   31   1.911   1.165   2.166
    3ASP     CG   32   2.030   1.067   2.309
    3ASP    OD1   33   2.032   0.942   2.333
    3ASP    OD2   34   2.124   1.139   2.311
    3ASP      C   35   1.653   1.134   2.212
    3ASP      O   36   1.638   1.154   2.091
    4GLY      N   37   1.580   1.197   2.308
    4GLY     HN   38   1.610   1.192   2.403
    4GLY     CA   39   1.489   1.312   2.274
    4GLY    HA1   40   1.431   1.340   2.361
    4GLY    HA2   41   1.425   1.276   2.195
    4GLY      C   42   1.555   1.439   2.214
    4GLY      O   43   1.676   1.454   2.219
    5PRO      N   44   1.480   1.536   2.164
    5PRO     CD   45   1.333   1.533   2.188
    5PRO    HD1   46   1.313   1.497   2.291
    5PRO    HD2   47   1.297   1.464   2.109
    5PRO     CA   48   1.531   1.665   2.118
    5PRO     HA   49   1.605   1.651   2.041
    5PRO     CB   50   1.396   1.726   2.059
    5PRO    HB1   51   1.369   1.688   1.958
    5PRO    HB2   52   1.407   1.837   2.065
    5PRO     CG   53   1.283   1.673   2.153
    5PRO    HG1   54   1.256   1.749   2.229
    5PRO    HG2   55   1.191   1.664   2.092
    5PRO      C   56   1.586   1.746   2.232
    5PRO      O   57   1.673   1.831   2.206
    6GLY      N   58   1.548   1.726   2.361
    6GLY     HN   59   1.477   1.660   2.383
    6GLY     CA   60   1.612   1.796   2.464
    6GLY    HA1   61   1.718   1.786   2.449
    6GLY    HA2   62   1.571   1.755   2.555
    6GLY      C   63   1.580   1.943   2.478
    6GLY      O   64   1.653   2.028   2.527
    7ASP      N   65   1.454   1.977   2.441
    7ASP     HN   66   1.389   1.914   2.399
    7ASP     CA   67   1.403   2.115   2.440
    7ASP     HA   68   1.476   2.172   2.383
    7ASP     CB   69   1.271   2.113   2.361
    7ASP    HB1   70   1.199   2.192   2.392
    7ASP    HB2   71   1.228   2.014   2.386
    7ASP     CG   72   1.277   2.119   2.206
    7ASP    OD1   73   1.389   2.122   2.146
    7ASP    OD2   74   1.169   2.135   2.142
    7ASP      C   75   1.404   2.187   2.578
    7ASP      O   76   1.396   2.116   2.681
    8PRO      N   77   1.421   2.322   2.591
    8PRO     CD   78   1.430   2.414   2.479
    8PRO    HD1   79   1.340   2.410   2.414
    8PRO    HD2   80   1.517   2.379   2.419
    8PRO     CA   81   1.430   2.389   2.720
    8PRO     HA   82   1.517   2.345   2.767
    8PRO     CB   83   1.434   2.536   2.683
    8PRO    HB1   84   1.496   2.600   2.750
    8PRO    HB2   85   1.332   2.582   2.688
    8PRO     CG   86   1.463   2.551   2.530
    8PRO    HG1   87   1.396   2.630   2.488
    8PRO    HG2   88   1.571   2.572   2.517
    8PRO      C   89   1.309   2.356   2.809
    8PRO      O   90   1.198   2.321   2.767
    9ASP      N   91   1.338   2.378   2.939
    9ASP     HN   92   1.418   2.424   2.976
    9ASP     CA   93   1.236   2.358   3.040
    9ASP     HA   94   1.163   2.289   3.000
    9ASP     CB   95   1.295   2.305   3.174
    9ASP    HB1   96   1.214   2.285   3.248
    9ASP    HB2   97   1.367   2.379   3.215
    9ASP     CG   98   1.362   2.176   3.140
    9ASP    OD1   99   1.293   2.082   3.093
    9ASP    OD2  100   1.476   2.163   3.189
    9ASP      C  101   1.166   2.495   3.068
    9ASP      O  102   1.217   2.604   3.055
   10ALA      N  103   1.034   2.483   3.107
   10ALA     HN  104   0.986   2.396   3.118
   10ALA     CA  105   0.943   2.591   3.131
   10ALA     HA  106   0.928   2.643   3.038
   10ALA     CB  107   0.805   2.538   3.174
   10ALA    HB1  108   0.757   2.483   3.090
   10ALA    HB2  109   0.740   2.620   3.211
   10ALA    HB3  110   0.828   2.463   3.253
   10ALA      C  111   0.986   2.697   3.230
   10ALA      O  112   1.049   2.671   3.337
   11GLY      N  113   0.958   2.826   3.199
   11GLY     HN  114   0.911   2.844   3.113
   11GLY     CA  115   1.017   2.938   3.267
   11GLY    HA1  116   1.019   3.028   3.206
   11GLY    HA2  117   1.118   2.911   3.295
   11GLY      C  118   0.954   2.970   3.410
   11GLY    OT1  119   0.851   3.046   3.416
   11GLY    OT2  120   1.021   2.944   3.515
   12SOD    SOD  121   4.685   1.805   2.933
   13SOD    SOD  122   0.507   5.718   0.143
   14SOD    SOD  123   4.400   4.934   2.287
   15SOD    SOD  124   6.026   1.475   0.700
   16SOD    SOD  125   0.502   3.532   3.187
   17SOD    SOD  126   3.262   3.366   4.594
   18SOD    SOD  127   0.665   3.361   1.151
   19SOD    SOD  128   1.757   2.870   0.015
   20SOD    SOD  129   1.837   4.490   3.161
   21SOD    SOD  130   3.672   4.927   2.094
   22SOD    SOD  131   5.476   2.727   2.049
   23SOD    SOD  132   2.159   3.360   3.666
   24SOD    SOD  133   0.947   5.930   2.794
   25SOD    SOD  134   3.335   5.969   2.774
   26SOD    SOD  135   6.213   4.373   2.311
   27SOD    SOD  136   5.117   2.636   2.484
   28SOD    SOD  137   5.665   4.158   0.354
   29SOD    SOD  138   5.790   0.573   4.594
   30SOD    SOD  139   2.803   2.674   3.641
   31SOD    SOD  140   3.182   3.984   0.966
   32SOD    SOD  141   1.253   4.686   5.168
   33SOD    SOD  142   6.064   1.214   3.144
   34CLA    CLA  143   1.192   4.148   5.067
   35CLA    CLA  144   6.075   1.384   0.234
   36CLA    CLA  145   1.122   0.216   1.780
   37CLA    CLA  146   2.927   5.235   2.767
   38CLA    CLA  147   4.581   1.721   4.376
   39CLA    CLA  148   4.123   0.145   1.314
   40CLA    CLA  149   3.259   3.319   0.026
   41CLA    CLA  150   6.056   5.316   0.465
   42CLA    CLA  151   2.957   0.942   4.317
   43CLA    CLA  152   3.859   4.588   2.355
   44CLA    CLA  153   6.216   4.394   3.826
   45CLA    CLA  154   5.428   1.685   1.842
   46CLA    CLA  155   3.670   0.643   0.169
   47CLA    CLA  156   3.733   3.947   5.138
   48CLA    CLA  157   3.478   0.886   3.992
   49CLA    CLA  158   0.893   4.199   2.073
   50CLA    CLA  159   3.778   5.514   3.784
   51CLA    CLA  160   3.133   3.755   4.849
   52TIP3   OH2  161   6.112   4.178   0.988
   52TIP3    H1  162   6.197   4.221   0.980
   52TIP3    H2  163   6.104   4.125   0.908
   53TIP3   OH2  164   5.837   1.013   5.008
   53TIP3    H1  165   5.759   1.064   5.032
   53TIP3    H2  166   5.903   1.039   5.072
   54TIP3   OH2  167   4.206   5.178   3.320
   54TIP3    H1  168   4.263   5.118   3.368
   54TIP3    H2  169   4.121   5.171   3.364
   55TIP3   OH2  170   5.129   5.602   0.799
   55TIP3    H1  171   5.199   5.565   0.744
   55TIP3    H2  172   5.133   5.696   0.781
   56TIP3   OH2  173   3.470   2.078   5.066
   56TIP3    H1  174   3.551   2.125   5.045
   56TIP3    H2  175   3.453   2.099   5.158
   57TIP3   OH2  176   3.788   2.902   0.703
   57TIP3    H1  177   3.868   2.869   0.662
   57TIP3    H2  178   3.815   2.979   0.751
   58TIP3   OH2  179   3.944   5.873   3.733
   58TIP3    H1  180   3.853   5.893   3.712
   58TIP3    H2  181   3.985   5.958   3.747
   59TIP3   OH2  182   4.961   0.397   1.134
   59TIP3    H1  183   5.056   0.381   1.133
   59TIP3    H2  184   4.945   0.440   1.219
   60TIP3   OH2  185   6.037   2.154   0.841
   60TIP3    H1  186   6.028   2.094   0.768
   60TIP3    H2  187   6.010   2.104   0.918
   61TIP3   OH2  188   6.024   4.820   0.698
   61TIP3    H1  189   6.070   4.759   0.640
   61TIP3    H2  190   6.083   4.895   0.706
   62TIP3   OH2  191   2.830   5.692   4.907
   62TIP3    H1  192   2.903   5.651   4.861
   62TIP3    H2  193   2.847   5.673   5.000
   63TIP3   OH2  194   2.623   4.987   2.072
   63TIP3    H1  195   2.641   4.894   2.054
   63TIP3    H2  196   2.578   5.018   1.994
   64TIP3   OH2  197   1.522   2.879   2.605
   64TIP3    H1  198   1.445   2.822   2.602
   64TIP3    H2  199   1.535   2.895   2.698
   65TIP3   OH2  200   3.050   5.273   3.489
   65TIP3    H1  201   3.098   5.314   3.561
   65TIP3    H2  202   3.099   5.297   3.411
   66TIP3   OH2  203   4.864   4.558   4.264
   66TIP3    H1  204   4.838   4.591   4.350
   66TIP3    H2  205   4.937   4.614   4.238
   67TIP3   OH2  206   3.797   0.123   2.128
   67TIP3    H1  207   3.762   0.154   2.211
   67TIP3    H2  208   3.883   0.166   2.120
   68TIP3   OH2  209   2.630   3.635   3.018
   68TIP3    H1  210   2.655   3.550   2.981
   68TIP3    H2  211   2.534   3.632   3.022
   69TIP3   OH2  212   5.097   2.895   5.160
   69TIP3    H1  213   5.178   2.906   5.211
   69TIP3    H2  214   5.120   2.833   5.091
   70TIP3   OH2  215   2.561   2.739   4.420
   70TIP3    H1  216   2.523   2.793   4.351
   70TIP3    H2  217   2.548   2.790   4.500
   71TIP3   OH2  218   5.012   1.363   0.203
   71TIP3    H1  219   5.024   1.308   0.126
   71TIP3    H2  220   5.084   1.426   0.200
   72TIP3   OH2  221   3.310   1.609   5.060
   72TIP3    H1  222   3.256   1.669   5.009
   72TIP3    H2  223   3.394   1.654   5.070
   73TIP3   OH2  224   1.410   2.431   0.773
   73TIP3    H1  225   1.456   2.464   0.696
   73TIP3    H2  226   1.319   2.421   0.745
   74TIP3   OH2  227   1.774   4.814   4.440
   74TIP3    H1  228   1.775   4.737   4.384
   74TIP3    H2  229   1.772   4.778   4.529
   75TIP3   OH2  230   2.562   3.922   4.521
   75TIP3    H1  231   2.595   3.868   4.450
   75TIP3    H2  232   2.641   3.954   4.566
   76TIP3   OH2  233   3.741   3.268   0.788
   76TIP3    H1  234   3.679   3.219   0.842
   76TIP3    H2  235   3.817   3.210   0.781
   77TIP3   OH2  236   1.586   4.724   3.674
   77TIP3    H1  237   1.659   4.663   3.673
   77TIP3    H2  238   1.613   4.795   3.616
   78TIP3   OH2  239   4.330   2.733   3.176
   78TIP3    H1  240   4.404   2.723   3.115
   78TIP3    H2  241   4.320   2.828   3.185
   79TIP3   OH2  242   4.525   5.213   3.337
   79TIP3    H1  243   4.560   5.124   3.347
   79TIP3    H2  244   4.503   5.220   3.244
   80TIP3   OH2  245   1.944   2.848   1.433
   80TIP3    H1  246   1.965   2.919   1.494
   80TIP3    H2  247   1.873   2.800   1.476
   81TIP3   OH2  248   1.308   0.768   1.168
   81TIP3    H1  249   1.367   0.728   1.105
   81TIP3    H2  250   1.250   0.696   1.195
   82TIP3   OH2  251   3.147   0.020   2.075
   82TIP3    H1  252   3.134  -0.048   2.009
   82TIP3    H2  253   3.060   0.059   2.086
   83TIP3   OH2  254   2.114   5.098   2.638
   83TIP3    H1  255   2.190   5.059   2.681
   83TIP3    H2  256   2.041   5.078   2.696
   84TIP3   OH2  257   2.565   0.767   1.060
   84TIP3    H1  258   2.594   0.834   1.122
   84TIP3    H2  259   2.640   0.753   1.002
   85TIP3   OH2  260   3.120   0.131   3.165
   85TIP3    H1  261   3.155   0.180   3.090
   85TIP3    H2  262   3.044   0.182   3.194
   86TIP3   OH2  263   5.878   2.544   4.778
   86TIP3    H1  264   5.864   2.505   4.692
   86TIP3    H2  265   5.960   2.507   4.809
   87TIP3   OH2  266   2.280   0.928   4.979
   87TIP3    H1  267   2.324   0.898   4.899
   87TIP3    H2  268   2.303   1.021   4.984
   88TIP3   OH2  269   0.868   1.891   1.752
   88TIP3    H1  270   0.936   1.873   1.687
   88TIP3    H2  271   0.910   1.872   1.836
   89TIP3   OH2  272   2.386   4.527   3.711
   89TIP3    H1  273   2.373   4.472   3.788
   89TIP3    H2  274   2.332   4.604   3.727
   90TIP3   OH2  275   4.727   4.949   0.715
   90TIP3    H1  276   4.821   4.939   0.734
   90TIP3    H2  277   4.684   4.904   0.788
   91TIP3   OH2  278   5.029   1.699   5.123
   91TIP3    H1  279   4.965   1.725   5.057
   91TIP3    H2  280   4.984   1.712   5.207
   92TIP3   OH2  281   3.134   1.790   4.920
   92TIP3    H1  282   3.128   1.849   4.845
   92TIP3    H2  283   3.139   1.848   4.996
   93TIP3   OH2  284   1.783   1.234   0.241
   93TIP3    H1  285   1.831   1.165   0.195
   93TIP3    H2  286   1.845   1.266   0.307
   94TIP3   OH2  287  -0.021   5.590   2.468
   94TIP3    H1  288   0.014   5.674   2.496
   94TIP3    H2  289   0.010   5.528   2.534
   95TIP3   OH2  290   2.150   4.386   0.168
   95TIP3    H1  291   2.111   4.445   0.104
   95TIP3    H2  292   2.077   4.356   0.221
   96TIP3   OH2  293   2.921   2.827   5.116
   96TIP3    H1  294   2.860   2.785   5.177
   96TIP3    H2  295   3.000   2.772   5.121
   97TIP3   OH2  296   4.203   2.039   0.304
   97TIP3    H1  297   4.129   2.085   0.265
   97TIP3    H2  298   4.272   2.044   0.238
   98TIP3   OH2  299   2.292   4.298   1.062
   98TIP3    H1  300   2.325   4.279   0.974
   98TIP3    H2  301   2.334   4.231   1.117
   99TIP3   OH2  302   5.672   1.465   1.852
   99TIP3    H1  303   5.739   1.494   1.914
   99TIP3    H2  304   5.609   1.537   1.849
  100TIP3   OH2  305   2.547   5.168   0.667
  100TIP3    H1  306   2.595   5.086   0.678
  100TIP3    H2  307   2.519   5.192   0.756
  101TIP3   OH2  308   3.988   2.129   1.031
  101TIP3    H1  309   4.012   2.047   0.988
  101TIP3    H2  310   4.068   2.182   1.030
  102TIP3   OH2  311   1.139   0.225   0.760
  102TIP3    H1  312   1.104   0.138   0.778
  102TIP3    H2  313   1.193   0.245   0.836
  103TIP3   OH2  314   5.751   5.519   3.477
  103TIP3    H1  315   5.734   5.473   3.559
  103TIP3    H2  316   5.825   5.577   3.497
  104TIP3   OH2  317   4.982   0.647   0.355
  104TIP3    H1  318   4.998   0.722   0.413
  104TIP3    H2  319   4.887   0.635   0.357
  105TIP3   OH2  320   4.743   5.504   1.310
  105TIP3    H1  321   4.826   5.492   1.357
  105TIP3    H2  322   4.740   5.432   1.248
  106TIP3   OH2  323   2.461   4.520   1.093
  106TIP3    H1  324   2.396   4.450   1.094
  106TIP3    H2  325   2.410   4.601   1.097
  107TIP3   OH2  326   0.224   2.294   0.047
  107TIP3    H1  327   0.134   2.268   0.029
  107TIP3    H2  328   0.226   2.312   0.141
  108TIP3   OH2  329   4.083   3.703   2.232
  108TIP3    H1  330   4.033   3.729   2.310
  108TIP3    H2  331   4.028   3.730   2.159
  109TIP3   OH2  332   2.480   2.543   3.354
  109TIP3    H1  333   2.421   2.502   3.418
  109TIP3    H2  334   2.502   2.472   3.293
  110TIP3   OH2  335   1.134   2.912   4.689
  110TIP3    H1  336   1.183   2.843   4.643
  110TIP3    H2  337   1.170   2.910   4.778
  111TIP3   OH2  338   1.507   2.081   0.109
  111TIP3    H1  339   1.442   2.018   0.080
  111TIP3    H2  340   1.579   2.028   0.143
  112TIP3   OH2  341   4.507   2.477   3.474
  112TIP3    H1  342   4.488   2.384   3.464
  112TIP3    H2  343   4.524   2.489   3.567
  113TIP3   OH2  344   2.797   2.263   4.478
  113TIP3    H1  345   2.780   2.323   4.550
  113TIP3    H2  346   2.848   2.192   4.518
  114TIP3   OH2  347   1.032   1.354   1.883
  114TIP3    H1  348   1.023   1.315   1.796
  114TIP3    H2  349   1.090   1.429   1.869
  115TIP3   OH2  350   5.782   3.441   1.325
  115TIP3    H1  351   5.773   3.437   1.230
  115TIP3    H2  352   5.858   3.386   1.344
  116TIP3   OH2  353   0.050   0.356   4.745
  116TIP3    H1  354   0.007   0.432   4.787
  116TIP3    H2  355   0.120   0.394   4.693
  117TIP3   OH2  356   1.501   3.265   2.835
  117TIP3    H1  357   1.466   3.338   2.785
  117TIP3    H2  358   1.438   3.194   2.821
  118TIP3   OH2  359   5.166   3.757   0.046
  118TIP3    H1  360   5.086   3.778  -0.002
  118TIP3    H2  361   5.230   3.737  -0.023
  119TIP3   OH2  362   2.908   3.756   2.849
  119TIP3    H1  363   2.963   3.694   2.896
  119TIP3    H2  364   2.967   3.798   2.786
  120TIP3   OH2  365   4.237   2.320   1.865
  120TIP3    H1  366   4.170   2.358   1.922
  120TIP3    H2  367   4.310   2.301   1.924
  121TIP3   OH2  368   0.852   3.394   0.989
  121TIP3    H1  369   0.914   3.328   0.959
  121TIP3    H2  370   0.851   3.460   0.919
  122TIP3   OH2  371   0.285   1.671   3.937
  122TIP3    H1  372   0.348   1.646   4.004
  122TIP3    H2  373   0.224   1.597   3.932
  123TIP3   OH2  374   4.118   3.266   4.367
  123TIP3    H1  375   4.132   3.171   4.374
  123TIP3    H2  376   4.048   3.284   4.430
  124TIP3   OH2  377   5.746   0.231   2.282
  124TIP3    H1  378   5.782   0.196   2.201
  124TIP3    H2  379   5.773   0.170   2.350
  125TIP3   OH2  380   3.734   3.825   1.635
  125TIP3    H1  381   3.766   3.737   1.656
  125TIP3    H2  382   3.692   3.855   1.716
  126TIP3   OH2  383   0.447   3.619   1.549
  126TIP3    H1  384   0.356   3.601   1.569
  126TIP3    H2  385   0.495   3.545   1.586
  127TIP3   OH2  386   3.788   2.000   2.436
  127TIP3    H1  387   3.829   2.021   2.520
  127TIP3    H2  388   3.828   2.060   2.374
  128TIP3   OH2  389   0.861   1.793   1.142
  128TIP3    H1  390   0.860   1.703   1.110
  128TIP3    H2  391   0.917   1.840   1.081
  129TIP3   OH2  392   3.694   4.508   3.211
  129TIP3    H1  393   3.761   4.440   3.222
  129TIP3    H2  394   3.742   4.591   3.222
  130TIP3   OH2  395   2.619   4.167   2.344
  130TIP3    H1  396   2.562   4.148   2.419
  130TIP3    H2  397   2.694   4.213   2.381
  131TIP3   OH2  398   2.940   1.529   3.365
  131TIP3    H1  399   2.997   1.580   3.307
  131TIP3    H2  400   3.000   1.475   3.417
  132TIP3   OH2  401   5.758   0.192   4.373
  132TIP3    H1  402   5.755   0.194   4.277
  132TIP3    H2  403   5.817   0.120   4.394
  133TIP3   OH2  404   4.691   2.064   0.510
  133TIP3    H1  405   4.603   2.072   0.547
  133TIP3    H2  406   4.708   1.970   0.508
  134TIP3   OH2  407   1.887   2.653   2.889
  134TIP3    H1  408   1.907   2.560   2.875
  134TIP3    H2  409   1.860   2.658   2.980
  135TIP3   OH2  410   6.130   5.487   3.651
  135TIP3    H1  411   6.113   5.473   3.558
  135TIP3    H2  412   6.222   5.512   3.655
  136TIP3   OH2  413   2.079   1.082   1.477
  136TIP3    H1  414   2.141   1.141   1.521
  136TIP3    H2  415   1.994   1.123   1.489
  137TIP3   OH2  416   4.965   2.196   0.809
  137TIP3    H1  417   4.971   2.282   0.767
  137TIP3    H2  418   4.871   2.178   0.813
  138TIP3   OH2  419   3.413   3.451   0.927
  138TIP3    H1  420   3.329   3.495   0.914
  138TIP3    H2  421   3.472   3.521   0.956
  139TIP3   OH2  422   2.982   4.786   3.398
  139TIP3    H1  423   3.019   4.779   3.486
  139TIP3    H2  424   2.994   4.878   3.373
  140TIP3   OH2  425   6.161   3.158   0.578
  140TIP3    H1  426   6.070   3.169   0.604
  140TIP3    H2  427   6.188   3.075   0.619
  141TIP3   OH2  428   0.481   5.603   0.334
  141TIP3    H1  429   0.399   5.615   0.382
  141TIP3    H2  430   0.548   5.597   0.403
  142TIP3   OH2  431   2.964   0.441   4.929
  142TIP3    H1  432   2.958   0.510   4.863
  142TIP3    H2  433   2.903   0.373   4.899
  143TIP3   OH2  434   3.290   3.274   2.080
  143TIP3    H1  435   3.236   3.262   2.002
  143TIP3    H2  436   3.375   3.300   2.046
  144TIP3   OH2  437   0.270   2.477   4.491
  144TIP3    H1  438   0.269   2.565   4.529
  144TIP3    H2  439   0.330   2.428   4.548
  145TIP3   OH2  440   3.189   5.655   4.270
  145TIP3    H1  441   3.209   5.741   4.305
  145TIP3    H2  442   3.271   5.625   4.232
  146TIP3   OH2  443   1.535   1.710   3.946
  146TIP3    H1  444   1.613   1.684   3.897
  146TIP3    H2  445   1.474   1.637   3.936
  147TIP3   OH2  446   2.632   2.548   3.783
  147TIP3    H1  447   2.688   2.472   3.795
  147TIP3    H2  448   2.602   2.570   3.871
  148TIP3   OH2  449   2.644   0.272   4.567
  148TIP3    H1  450   2.679   0.187   4.544
  148TIP3    H2  451   2.686   0.333   4.506
  149TIP3   OH2  452   4.483   5.463   0.766
  149TIP3    H1  453   4.469   5.375   0.801
  149TIP3    H2  454   4.484   5.519   0.844
  150TIP3   OH2  455   2.009   0.459   4.038
  150TIP3    H1  456   1.988   0.552   4.036
  150TIP3    H2  457   1.993   0.428   3.949
  151TIP3   OH2  458   4.875   2.129   4.600
  151TIP3    H1  459   4.854   2.054   4.544
  151TIP3    H2  460   4.966   2.114   4.628
  152TIP3   OH2  461   0.683   1.943   3.727
  152TIP3    H1  462   0.627   1.875   3.764
  152TIP3    H2  463   0.769   1.926   3.764
  153TIP3   OH2  464   1.016   5.881   2.362
  153TIP3    H1  465   1.093   5.920   2.319
  153TIP3    H2  466   0.974   5.831   2.292
  154TIP3   OH2  467   5.721   5.078   5.096
  154TIP3    H1  468   5.815   5.062   5.100
  154TIP3    H2  469   5.702   5.131   5.174
  155TIP3   OH2  470   4.305   4.817   0.942
  155TIP3    H1  471   4.238   4.797   0.877
  155TIP3    H2  472   4.256   4.843   1.020
  156TIP3   OH2  473   3.565   4.523   2.947
  156TIP3    H1  474   3.591   4.497   3.036
  156TIP3    H2  475   3.524   4.445   2.911
  157TIP3   OH2  476   2.457   2.685   2.687
  157TIP3    H1  477   2.447   2.657   2.596
  157TIP3    H2  478   2.408   2.620   2.738
  158TIP3   OH2  479   4.359   1.541   2.829
  158TIP3    H1  480   4.316   1.575   2.750
  158TIP3    H2  481   4.433   1.601   2.843
  159TIP3   OH2  482   0.803   4.603   4.779
  159TIP3    H1  483   0.876   4.658   4.807
  159TIP3    H2  484   0.745   4.599   4.855
  160TIP3   OH2  485   0.296   1.719   2.751
  160TIP3    H1  486   0.270   1.671   2.673
  160TIP3    H2  487   0.215   1.759   2.783
  161TIP3   OH2  488   3.045   3.883   2.512
  161TIP3    H1  489   3.030   3.955   2.452
  161TIP3    H2  490   3.014   3.805   2.465
  162TIP3   OH2  491   3.580   4.531   1.217
  162TIP3    H1  492   3.544   4.619   1.217
  162TIP3    H2  493   3.666   4.540   1.257
  163TIP3   OH2  494   5.029   0.371   3.140
  163TIP3    H1  495   5.017   0.338   3.229
  163TIP3    H2  496   4.941   0.400   3.114
  164TIP3   OH2  497   0.126   0.756   2.620
  164TIP3    H1  498   0.169   0.841   2.627
  164TIP3    H2  499   0.193   0.698   2.584
  165TIP3   OH2  500   2.805   1.606   4.249
  165TIP3    H1  501   2.794   1.540   4.317
  165TIP3    H2  502   2.862   1.565   4.185
  166TIP3   OH2  503   3.762   0.085   4.218
  166TIP3    H1  504   3.721   0.120   4.139
  166TIP3    H2  505   3.705   0.014   4.246
  167TIP3   OH2  506   5.306   4.628   2.122
  167TIP3    H1  507   5.300   4.545   2.075
  167TIP3    H2  508   5.314   4.694   2.053
  168TIP3   OH2  509   0.099   5.620   4.166
  168TIP3    H1  510   0.034   5.578   4.109
  168TIP3    H2  511   0.160   5.550   4.188
  169TIP3   OH2  512   3.418   3.177   0.267
  169TIP3    H1  513   3.373   3.182   0.352
  169TIP3    H2  514   3.363   3.227   0.208
  170TIP3   OH2  515   0.085   2.236   0.727
  170TIP3    H1  516   0.112   2.237   0.819
  170TIP3    H2  517   0.040   2.319   0.714
  171TIP3   OH2  518   3.809   3.767   1.199
  171TIP3    H1  519   3.826   3.678   1.232
  171TIP3    H2  520   3.896   3.808   1.196
  172TIP3   OH2  521   1.885   0.115   1.808
  172TIP3    H1  522   1.906   0.139   1.899
  172TIP3    H2  523   1.911   0.023   1.802
  173TIP3   OH2  524   3.617   0.740   5.007
  173TIP3    H1  525   3.593   0.694   5.088
  173TIP3    H2  526   3.700   0.783   5.028
  174TIP3   OH2  527   0.430   3.950   4.201
  174TIP3    H1  528   0.490   4.024   4.189
  174TIP3    H2  529   0.455   3.912   4.285
  175TIP3   OH2  530   0.030   4.570   1.724
  175TIP3    H1  531   0.007   4.526   1.642
  175TIP3    H2  532  -0.029   4.646   1.727
  176TIP3   OH2  533   5.922   5.474   2.144
  176TIP3    H1  534   5.925   5.563   2.180
  176TIP3    H2  535   5.944   5.418   2.218
  177TIP3   OH2  536   4.935   4.400   1.627
  177TIP3    H1  537   4.962   4.334   1.564
  177TIP3    H2  538   4.991   4.385   1.704
  178TIP3   OH2  539   4.385   1.591   2.333
  178TIP3    H1  540   4.460   1.590   2.392
  178TIP3    H2  541   4.418   1.552   2.252
  179TIP3   OH2  542   5.329   5.729   3.897
  179TIP3    H1  543   5.360   5.792   3.832
  179TIP3    H2  544   5.253   5.772   3.937
  180TIP3   OH2  545   1.152   4.449   0.919
  180TIP3    H1  546   1.188   4.528   0.959
  180TIP3    H2  547   1.160   4.382   0.986
  181TIP3   OH2  548   6.064   3.443   0.967
  181TIP3    H1  549   6.145   3.425   0.920
  181TIP3    H2  550   6.091   3.457   1.058
  182TIP3   OH2  551   4.687   1.727   0.076
  182TIP3    H1  552   4.708   1.746  -0.015
  182TIP3    H2  553   4.705   1.808   0.123
  183TIP3   OH2  554   5.902   2.769   1.444
  183TIP3    H1  555   5.910   2.817   1.362
  183TIP3    H2  556   5.869   2.683   1.418
  184TIP3   OH2  557   4.712   4.526   1.558
  184TIP3    H1  558   4.735   4.525   1.465
  184TIP3    H2  559   4.793   4.499   1.602
  185TIP3   OH2  560   0.067   3.569   0.118
  185TIP3    H1  561  -0.010   3.526   0.155
  185TIP3    H2  562   0.032   3.629   0.052
  186TIP3   OH2  563   3.863   0.804   5.091
  186TIP3    H1  564   3.852   0.824   5.185
  186TIP3    H2  565   3.901   0.884   5.055
  187TIP3   OH2  566   2.110   2.233   3.354
  187TIP3    H1  567   2.089   2.143   3.329
  187TIP3    H2  568   2.050   2.287   3.302
  188TIP3   OH2  569   4.691   3.729   2.060
  188TIP3    H1  570   4.658   3.799   2.115
  188TIP3    H2  571   4.612   3.687   2.025
  189TIP3   OH2  572   4.648   0.581   3.131
  189TIP3    H1  573   4.608   0.638   3.066
  189TIP3    H2  574   4.702   0.520   3.080
  190TIP3   OH2  575   5.854   1.376   0.807
  190TIP3    H1  576   5.775   1.360   0.755
  190TIP3    H2  577   5.869   1.294   0.854
  191TIP3   OH2  578   5.759   0.745   4.058
  191TIP3    H1  579   5.839   0.758   4.109
  191TIP3    H2  580   5.762   0.813   3.991
  192TIP3   OH2  581   5.456   5.653   5.057
  192TIP3    H1  582   5.470   5.587   4.989
  192TIP3    H2  583   5.372   5.694   5.034
  193TIP3   OH2  584   3.268   3.140   0.508
  193TIP3    H1  585   3.328   3.213   0.519
  193TIP3    H2  586   3.286   3.081   0.581
  194TIP3   OH2  587   0.301   5.769   1.030
  194TIP3    H1  588   0.209   5.760   1.005
  194TIP3    H2  589   0.301   5.840   1.095
  195TIP3   OH2  590   4.337   2.669   1.223
  195TIP3    H1  591   4.388   2.640   1.147
  195TIP3    H2  592   4.323   2.589   1.274
  196TIP3   OH2  593   0.451   2.831   5.054
  196TIP3    H1  594   0.376   2.824   4.996
  196TIP3    H2  595   0.414   2.830   5.142
  197TIP3   OH2  596   4.546   2.439   1.770
  197TIP3    H1  597   4.534   2.347   1.793
  197TIP3    H2  598   4.496   2.451   1.689
  198TIP3   OH2  599   3.209   2.453   1.610
  198TIP3    H1  600   3.270   2.448   1.536
  198TIP3    H2  601   3.167   2.367   1.612
  199TIP3   OH2  602   5.886   4.933   3.144
  199TIP3    H1  603   5.803   4.915   3.099
  199TIP3    H2  604   5.890   5.028   3.149
  200TIP3   OH2  605   2.109   5.118   5.128
  200TIP3    H1  606   2.162   5.071   5.064
  200TIP3    H2  607   2.019   5.087   5.112
  201TIP3   OH2  608   4.740   3.669   0.451
  201TIP3    H1  609   4.772   3.749   0.493
  201TIP3    H2  610   4.794   3.659   0.373
  202TIP3   OH2  611   5.993   0.292   4.956
  202TIP3    H1  612   6.023   0.347   5.029
  202TIP3    H2  613   6.043   0.323   4.880
  203TIP3   OH2  614   0.792   0.117   1.032
  203TIP3    H1  615   0.875   0.072   1.028
  203TIP3    H2  616   0.729   0.051   1.062
  204TIP3   OH2  617   2.896   2.420   3.300
  204TIP3    H1  618   2.866   2.330   3.287
  204TIP3    H2  619   2.829   2.474   3.257
  205TIP3   OH2  620   0.424   2.800   2.914
  205TIP3    H1  621   0.416   2.740   2.839
  205TIP3    H2  622   0.334   2.819   2.939
  206TIP3   OH2  623   6.020   0.429   4.191
  206TIP3    H1  624   6.113   0.404   4.198
  206TIP3    H2  625   6.018   0.496   4.124
  207TIP3   OH2  626   2.710   2.975   0.542
  207TIP3    H1  627   2.729   2.882   0.556
  207TIP3    H2  628   2.794   3.019   0.555
  208TIP3   OH2  629   0.415   1.517   1.548
  208TIP3    H1  630   0.488   1.578   1.538
  208TIP3    H2  631   0.347   1.550   1.490
  209TIP3   OH2  632   5.677   0.685   4.768
  209TIP3    H1  633   5.614   0.630   4.812
  209TIP3    H2  634   5.753   0.687   4.826
  210TIP3   OH2  635   5.663   5.465   1.945
  210TIP3    H1  636   5.729   5.486   1.878
  210TIP3    H2  637   5.682   5.526   2.017
  211TIP3   OH2  638   6.058   1.854   0.579
  211TIP3    H1  639   6.075   1.816   0.493
  211TIP3    H2  640   6.141   1.847   0.626
  212TIP3   OH2  641   5.072   1.991   2.835
  212TIP3    H1  642   5.101   2.042   2.910
  212TIP3    H2  643   5.125   2.024   2.762
  213TIP3   OH2  644   2.618   4.315   4.022
  213TIP3    H1  645   2.672   4.341   3.947
  213TIP3    H2  646   2.562   4.391   4.038
  214TIP3   OH2  647   1.588   3.189   4.278
  214TIP3    H1  648   1.613   3.100   4.303
  214TIP3    H2  649   1.525   3.216   4.345
  215TIP3   OH2  650   5.659   0.097   4.892
  215TIP3    H1  651   5.672   0.018   4.838
  215TIP3    H2  652   5.577   0.134   4.861
  216TIP3   OH2  653   1.105   5.298   4.638
  216TIP3    H1  654   1.158   5.365   4.594
  216TIP3    H2  655   1.027   5.289   4.583
  217TIP3   OH2  656   3.232   1.233   3.771
  217TIP3    H1  657   3.303   1.292   3.797
  217TIP3    H2  658   3.156   1.291   3.759
  218TIP3   OH2  659   5.774   1.521   3.150
  218TIP3    H1  660   5.772   1.498   3.243
  218TIP3    H2  661   5.688   1.559   3.132
  219TIP3   OH2  662   4.243   4.619   4.007
  219TIP3    H1  663   4.259   4.701   3.962
  219TIP3    H2  664   4.198   4.644   4.088
  220TIP3   OH2  665   0.354   4.757   2.012
  220TIP3    H1  666   0.422   4.749   1.945
  220TIP3    H2  667   0.324   4.668   2.027
  221TIP3   OH2  668   2.489   5.765   3.848
  221TIP3    H1  669   2.574   5.782   3.806
  221TIP3    H2  670   2.448   5.698   3.792
  222TIP3   OH2  671   5.322   5.377   5.106
  222TIP3    H1  672   5.269   5.423   5.040
  222TIP3    H2  673   5.257   5.334   5.162
  223TIP3   OH2  674   3.862   3.478   2.082
  223TIP3    H1  675   3.930   3.519   2.029
  223TIP3    H2  676   3.853   3.534   2.159
  224TIP3   OH2  677   3.847   0.367   3.220
  224TIP3    H1  678   3.800   0.428   3.162
  224TIP3    H2  679   3.842   0.407   3.307
  225TIP3   OH2  680   5.619   3.066   2.987
  225TIP3    H1  681   5.589   3.106   2.905
  225TIP3    H2  682   5.713   3.052   2.974
  226TIP3   OH2  683   2.113   4.727   3.362
  226TIP3    H1  684   2.195   4.691   3.393
  226TIP3    H2  685   2.137   4.782   3.287
  227TIP3   OH2  686   1.301   0.986   0.077
  227TIP3    H1  687   1.319   0.975   0.171
  227TIP3    H2  688   1.387   1.005   0.039
  228TIP3   OH2  689   4.889   2.675   0.251
  228TIP3    H1  690   4.916   2.718   0.170
  228TIP3    H2  691   4.795   2.661   0.240
  229TIP3   OH2  692   4.113   1.503   2.177
  229TIP3    H1  693   4.204   1.522   2.196
  229TIP3    H2  694   4.078   1.468   2.259
  230TIP3   OH2  695   4.482   5.169   4.447
  230TIP3    H1  696   4.448   5.110   4.380
  230TIP3    H2  697   4.512   5.110   4.517
  231TIP3   OH2  698   0.656   0.776   4.356
  231TIP3    H1  699   0.585   0.833   4.327
  231TIP3    H2  700   0.695   0.823   4.430
  232TIP3   OH2  701   4.857   1.623   3.352
  232TIP3    H1  702   4.915   1.695   3.377
  232TIP3    H2  703   4.774   1.643   3.396
  233TIP3   OH2  704   2.254   0.931   3.136
  233TIP3    H1  705   2.287   1.011   3.095
  233TIP3    H2  706   2.332   0.883   3.161
  234TIP3   OH2  707   4.950   1.615   1.767
  234TIP3    H1  708   4.928   1.604   1.675
  234TIP3    H2  709   5.020   1.681   1.768
  235TIP3   OH2  710   6.234   2.894   4.911
  235TIP3    H1  711   6.145   2.887   4.946
  235TIP3    H2  712   6.251   2.988   4.907
  236TIP3   OH2  713   5.943   4.280   3.840
  236TIP3    H1  714   5.889   4.333   3.782
  236TIP3    H2  715   6.030   4.321   3.836
  237TIP3   OH2  716   4.632   0.697   2.421
  237TIP3    H1  717   4.699   0.630   2.434
  237TIP3    H2  718   4.682   0.776   2.401
  238TIP3   OH2  719   5.836   2.997   4.424
  238TIP3    H1  720   5.744   2.976   4.436
  238TIP3    H2  721   5.849   3.077   4.476
  239TIP3   OH2  722   5.553   5.831   3.034
  239TIP3    H1  723   5.491   5.832   3.107
  239TIP3    H2  724   5.595   5.917   3.038
  240TIP3   OH2  725   4.634   2.070   3.836
  240TIP3    H1  726   4.612   1.993   3.888
  240TIP3    H2  727   4.629   2.143   3.898
  241TIP3   OH2  728   5.690   1.224   5.121
  241TIP3    H1  729   5.685   1.216   5.216
  241TIP3    H2  730   5.742   1.303   5.107
  242TIP3   OH2  731   5.407   5.445   4.821
  242TIP3    H1  732   5.439   5.423   4.734
  242TIP3    H2  733   5.438   5.374   4.877
  243TIP3   OH2  734   4.207   0.564   4.938
  243TIP3    H1  735   4.121   0.553   4.980
  243TIP3    H2  736   4.197   0.526   4.851
  244TIP3   OH2  737   5.085   5.464   4.226
  244TIP3    H1  738   5.088   5.434   4.135
  244TIP3    H2  739   5.086   5.383   4.277
  245TIP3   OH2  740   4.772   0.356   3.342
  245TIP3    H1  741   4.793   0.448   3.357
  245TIP3    H2  742   4.804   0.311   3.420
  246TIP3   OH2  743   1.510   5.965   3.516
  246TIP3    H1  744   1.423   5.930   3.533
  246TIP3    H2  745   1.506   5.997   3.426
  247TIP3   OH2  746   4.511   5.663   2.232
  247TIP3    H1  747   4.507   5.728   2.302
  247TIP3    H2  748   4.495   5.714   2.152
  248TIP3   OH2  749   2.139   5.466   4.894
  248TIP3    H1  750   2.229   5.459   4.926
  248TIP3    H2  751   2.105   5.547   4.932
  249TIP3   OH2  752   1.124   2.593   1.200
  249TIP3    H1  753   1.144   2.549   1.282
  249TIP3    H2  754   1.178   2.672   1.201
  250TIP3   OH2  755   1.327   3.401   2.665
  250TIP3    H1  756   1.378   3.373   2.589
  250TIP3    H2  757   1.251   3.447   2.628
  251TIP3   OH2  758   2.097   2.167   2.934
  251TIP3    H1  759   2.161   2.220   2.981
  251TIP3    H2  760   2.040   2.131   3.002
  252TIP3   OH2  761   1.757   3.586   4.366
  252TIP3    H1  762   1.742   3.525   4.294
  252TIP3    H2  763   1.760   3.532   4.444
  253TIP3   OH2  764   0.091   1.556   3.713
  253TIP3    H1  765   0.018   1.508   3.752
  253TIP3    H2  766   0.068   1.648   3.725
  254TIP3   OH2  767   0.920   2.467   2.049
  254TIP3    H1  768   0.867   2.534   2.093
  254TIP3    H2  769   1.010   2.497   2.060
  255TIP3   OH2  770   0.255   1.279   4.901
  255TIP3    H1  771   0.174   1.327   4.914
  255TIP3    H2  772   0.238   1.221   4.827
  256TIP3   OH2  773   3.526   3.508   4.208
  256TIP3    H1  774   3.595   3.518   4.274
  256TIP3    H2  775   3.573   3.494   4.126
  257TIP3   OH2  776   3.819   1.906   0.224
  257TIP3    H1  777   3.738   1.871   0.261
  257TIP3    H2  778   3.854   1.963   0.292
  258TIP3   OH2  779   6.149   0.714   4.706
  258TIP3    H1  780   6.168   0.689   4.616
  258TIP3    H2  781   6.056   0.738   4.705
  259TIP3   OH2  782   3.793   1.535   0.234
  259TIP3    H1  783   3.849   1.588   0.289
  259TIP3    H2  784   3.853   1.483   0.181
  260TIP3   OH2  785   0.406   4.933   2.706
  260TIP3    H1  786   0.501   4.935   2.689
  260TIP3    H2  787   0.388   4.842   2.729
  261TIP3   OH2  788   3.173   3.970   3.808
  261TIP3    H1  789   3.138   3.993   3.722
  261TIP3    H2  790   3.213   4.051   3.840
  262TIP3   OH2  791   3.236   4.276   1.660
  262TIP3    H1  792   3.191   4.296   1.578
  262TIP3    H2  793   3.176   4.217   1.706
  263TIP3   OH2  794   0.688   1.641   0.448
  263TIP3    H1  795   0.689   1.705   0.376
  263TIP3    H2  796   0.767   1.661   0.498
  264TIP3   OH2  797   0.879   5.329   4.464
  264TIP3    H1  798   0.889   5.423   4.446
  264TIP3    H2  799   0.878   5.288   4.377
  265TIP3   OH2  800   1.654   1.385   4.684
  265TIP3    H1  801   1.566   1.410   4.658
  265TIP3    H2  802   1.700   1.371   4.601
  266TIP3   OH2  803   3.517   4.521   3.412
  266TIP3    H1  804   3.571   4.490   3.340
  266TIP3    H2  805   3.439   4.557   3.370
  267TIP3   OH2  806   0.318   5.210   0.409
  267TIP3    H1  807   0.380   5.250   0.470
  267TIP3    H2  808   0.247   5.273   0.403
  268TIP3   OH2  809   1.375   4.996   3.448
  268TIP3    H1  810   1.435   5.065   3.477
  268TIP3    H2  811   1.432   4.922   3.426
  269TIP3   OH2  812   1.172   1.757   1.633
  269TIP3    H1  813   1.088   1.734   1.593
  269TIP3    H2  814   1.237   1.740   1.565
  270TIP3   OH2  815   1.678   5.646   1.995
  270TIP3    H1  816   1.659   5.740   1.997
  270TIP3    H2  817   1.690   5.622   2.087
  271TIP3   OH2  818   0.677   4.410   1.953
  271TIP3    H1  819   0.634   4.344   1.899
  271TIP3    H2  820   0.737   4.360   2.008
  272TIP3   OH2  821   5.807   4.956   0.147
  272TIP3    H1  822   5.827   4.983   0.236
  272TIP3    H2  823   5.878   4.994   0.094
  273TIP3   OH2  824   2.253   1.760   3.682
  273TIP3    H1  825   2.259   1.666   3.664
  273TIP3    H2  826   2.170   1.771   3.730
  274TIP3   OH2  827   0.601   3.628   2.179
  274TIP3    H1  828   0.552   3.608   2.100
  274TIP3    H2  829   0.649   3.709   2.158
  275TIP3   OH2  830   3.081   2.652   1.928
  275TIP3    H1  831   3.044   2.565   1.913
  275TIP3    H2  832   3.132   2.670   1.849
  276TIP3   OH2  833   1.239   0.375   0.988
  276TIP3    H1  834   1.223   0.449   0.929
  276TIP3    H2  835   1.326   0.343   0.963
  277TIP3   OH2  836   2.419   0.168   3.047
  277TIP3    H1  837   2.480   0.188   2.976
  277TIP3    H2  838   2.474   0.127   3.115
  278TIP3   OH2  839   5.554   3.804   2.982
  278TIP3    H1  840   5.601   3.878   2.942
  278TIP3    H2  841   5.516   3.840   3.062
  279TIP3   OH2  842   4.083   0.135   2.111
  279TIP3    H1  843   4.124   0.156   2.028
  279TIP3    H2  844   4.139   0.176   2.177
  280TIP3   OH2  845   2.065   1.789   2.926
  280TIP3    H1  846   2.089   1.804   2.834
  280TIP3    H2  847   1.974   1.818   2.932
  281TIP3   OH2  848   0.743   2.552   2.440
  281TIP3    H1  849   0.744   2.520   2.531
  281TIP3    H2  850   0.833   2.578   2.423
  282TIP3   OH2  851   6.022   0.024   2.682
  282TIP3    H1  852   6.001  -0.059   2.725
  282TIP3    H2  853   6.108   0.047   2.716
  283TIP3   OH2  854   0.151   0.078   0.480
  283TIP3    H1  855   0.167  -0.016   0.469
  283TIP3    H2  856   0.121   0.107   0.394
  284TIP3   OH2  857   0.923   0.083   4.229
  284TIP3    H1  858   0.890   0.070   4.318
  284TIP3    H2  859   1.010   0.120   4.242
  285TIP3   OH2  860   2.377   1.262   2.555
  285TIP3    H1  861   2.453   1.299   2.600
  285TIP3    H2  862   2.323   1.337   2.533
  286TIP3   OH2  863   0.100   2.600   0.179
  286TIP3    H1  864   0.027   2.650   0.143
  286TIP3    H2  865   0.178   2.649   0.152
  287TIP3   OH2  866   1.151   0.497   2.381
  287TIP3    H1  867   1.114   0.481   2.468
  287TIP3    H2  868   1.098   0.569   2.346
  288TIP3   OH2  869   2.785   5.069   3.198
  288TIP3    H1  870   2.779   5.147   3.143
  288TIP3    H2  871   2.877   5.063   3.223
  289TIP3   OH2  872   4.420   3.150   2.621
  289TIP3    H1  873   4.349   3.214   2.626
  289TIP3    H2  874   4.389   3.084   2.559
  290TIP3   OH2  875   3.478   4.947   2.824
  290TIP3    H1  876   3.399   4.902   2.854
  290TIP3    H2  877   3.448   5.005   2.755
  291TIP3   OH2  878   2.023   3.317   2.524
  291TIP3    H1  879   2.107   3.281   2.550
  291TIP3    H2  880   1.958   3.265   2.573
  292TIP3   OH2  881   5.757   3.999   2.899
  292TIP3    H1  882   5.792   4.082   2.866
  292TIP3    H2  883   5.761   4.008   2.994
  293TIP3   OH2  884   5.574   1.913   1.669
  293TIP3    H1  885   5.510   1.872   1.728
  293TIP3    H2  886   5.616   1.840   1.625
  294TIP3   OH2  887   0.715   0.993   0.390
  294TIP3    H1  888   0.770   0.971   0.315
  294TIP3    H2  889   0.744   0.933   0.459
  295TIP3   OH2  890   4.276   1.334   5.110
  295TIP3    H1  891   4.192   1.288   5.107
  295TIP3    H2  892   4.338   1.268   5.141
  296TIP3   OH2  893   4.278   1.630   1.400
  296TIP3    H1  894   4.230   1.711   1.390
  296TIP3    H2  895   4.362   1.645   1.356
  297TIP3   OH2  896   1.370   0.114   3.035
  297TIP3    H1  897   1.297   0.171   3.012
  297TIP3    H2  898   1.427   0.169   3.089
  298TIP3   OH2  899   3.760   3.267   2.370
  298TIP3    H1  900   3.774   3.212   2.293
  298TIP3    H2  901   3.827   3.336   2.361
  299TIP3   OH2  902   3.161   1.351   1.837
  299TIP3    H1  903   3.075   1.333   1.876
  299TIP3    H2  904   3.211   1.394   1.906
  300TIP3   OH2  905   4.662   1.675   2.513
  300TIP3    H1  906   4.724   1.604   2.494
  300TIP3    H2  907   4.706   1.754   2.481
  301TIP3   OH2  908   4.166   0.722   3.091
  301TIP3    H1  909   4.163   0.642   3.038
  301TIP3    H2  910   4.246   0.714   3.143
  302TIP3   OH2  911   1.179   1.753   2.907
  302TIP3    H1  912   1.124   1.823   2.873
  302TIP3    H2  913   1.227   1.792   2.979
  303TIP3   OH2  914   4.057   3.270   3.565
  303TIP3    H1  915   4.116   3.226   3.503
  303TIP3    H2  916   4.110   3.283   3.643
  304TIP3   OH2  917   2.256   4.565   0.845
  304TIP3    H1  918   2.218   4.483   0.814
  304TIP3    H2  919   2.343   4.567   0.804
  305TIP3   OH2  920   5.844   1.178   3.293
  305TIP3    H1  921   5.789   1.100   3.302
  305TIP3    H2  922   5.794   1.248   3.334
  306TIP3   OH2  923   4.507   0.083   4.200
  306TIP3    H1  924   4.498   0.052   4.110
  306TIP3    H2  925   4.445   0.029   4.250
  307TIP3   OH2  926   1.762   5.542   0.441
  307TIP3    H1  927   1.767   5.512   0.532
  307TIP3    H2  928   1.809   5.475   0.392
  308TIP3   OH2  929   0.369   1.998   2.910
  308TIP3    H1  930   0.306   2.038   2.849
  308TIP3    H2  931   0.454   2.027   2.879
  309TIP3   OH2  932   0.584   4.573   4.145
  309TIP3    H1  933   0.545   4.528   4.070
  309TIP3    H2  934   0.633   4.646   4.106
  310TIP3   OH2  935   0.771   3.863   3.084
  310TIP3    H1  936   0.833   3.935   3.069
  310TIP3    H2  937   0.685   3.902   3.068
  311TIP3   OH2  938   2.747   0.661   4.011
  311TIP3    H1  939   2.810   0.603   4.055
  311TIP3    H2  940   2.797   0.740   3.992
  312TIP3   OH2  941   3.341   1.338   4.783
  312TIP3    H1  942   3.319   1.294   4.865
  312TIP3    H2  943   3.400   1.408   4.807
  313TIP3   OH2  944   4.314   4.100   4.675
  313TIP3    H1  945   4.348   4.183   4.706
  313TIP3    H2  946   4.220   4.103   4.695
  314TIP3   OH2  947   6.283   4.950   5.067
  314TIP3    H1  948   6.207   4.964   5.010
  314TIP3    H2  949   6.250   4.898   5.139
  315TIP3   OH2  950   1.583   2.486   4.346
  315TIP3    H1  951   1.580   2.435   4.427
  315TIP3    H2  952   1.506   2.458   4.296
  316TIP3   OH2  953   6.107   5.269   3.838
  316TIP3    H1  954   6.096   5.308   3.751
  316TIP3    H2  955   6.196   5.294   3.864
  317TIP3   OH2  956   1.886   3.957   3.163
  317TIP3    H1  957   1.833   3.930   3.088
  317TIP3    H2  958   1.966   3.993   3.124
  318TIP3   OH2  959   0.442   1.002   0.365
  318TIP3    H1  960   0.429   1.008   0.270
  318TIP3    H2  961   0.537   1.000   0.376
  319TIP3   OH2  962   3.156   1.077   3.463
  319TIP3    H1  963   3.077   1.097   3.514
  319TIP3    H2  964   3.156   0.981   3.457
  320TIP3   OH2  965   1.519   5.819   4.433
  320TIP3    H1  966   1.586   5.752   4.418
  320TIP3    H2  967   1.452   5.775   4.486
  321TIP3   OH2  968   6.216   0.557   4.481
  321TIP3    H1  969   6.192   0.505   4.404
  321TIP3    H2  970   6.310   0.546   4.490
  322TIP3   OH2  971   1.175   2.254   0.100
  322TIP3    H1  972   1.165   2.167   0.139
  322TIP3    H2  973   1.162   2.240   0.007
  323TIP3   OH2  974   0.914   5.532   1.355
  323TIP3    H1  975   0.963   5.518   1.274
  323TIP3    H2  976   0.916   5.627   1.369
  324TIP3   OH2  977   0.427   3.941   4.723
  324TIP3    H1  978   0.473   3.996   4.786
  324TIP3    H2  979   0.354   3.904   4.771
  325TIP3   OH2  980   1.469   2.594   5.171
  325TIP3    H1  981   1.563   2.576   5.170
  325TIP3    H2  982   1.451   2.629   5.084
  326TIP3   OH2  983   1.347   5.492   4.220
  326TIP3    H1  984   1.309   5.488   4.132
  326TIP3    H2  985   1.323   5.578   4.253
  327TIP3   OH2  986   0.347   0.686   4.360
  327TIP3    H1  987   0.368   0.691   4.453
  327TIP3    H2  988   0.330   0.777   4.335
  328TIP3   OH2  989   2.906   1.094   2.216
  328TIP3    H1  990   2.829   1.062   2.169
  328TIP3    H2  991   2.980   1.053   2.172
  329TIP3   OH2  992   1.051   1.972   2.657
  329TIP3    H1  993   1.108   1.911   2.609
  329TIP3    H2  994   1.101   1.995   2.735
  330TIP3   OH2  995   5.075   1.086   0.295
  330TIP3    H1  996   5.153   1.083   0.239
  330TIP3    H2  997   5.047   1.178   0.291
  331TIP3   OH2  998   1.907   4.813   0.986
  331TIP3    H1  999   1.906   4.751   0.913
  331TIP3    H2 1000   1.953   4.767   1.055
  332TIP3   OH2 1001   3.670   2.090   3.845
  332TIP3    H1 1002   3.747   2.143   3.823
  332TIP3    H2 1003   3.596   2.148   3.832
  333TIP3   OH2 1004   0.438   1.345   0.288
  333TIP3    H1 1005   0.345   1.359   0.306
  333TIP3    H2 1006   0.445   1.346   0.193
  334TIP3   OH2 1007   6.006   0.829   3.695
  334TIP3    H1 1008   5.944   0.867   3.757
  334TIP3    H2 1009   6.012   0.893   3.624
  335TIP3   OH2 1010   2.851   0.983   1.348
  335TIP3    H1 1011   2.768   0.981   1.301
  335TIP3    H2 1012   2.845   0.913   1.412
  336TIP3   OH2 1013   4.960   1.317   3.092
  336TIP3    H1 1014   4.940   1.223   3.090
  336TIP3    H2 1015   4.887   1.359   3.047
  337TIP3   OH2 1016   2.061   2.041   4.762
  337TIP3    H1 1017   2.139   2.055   4.709
  337TIP3    H2 1018   2.086   2.068   4.850
  338TIP3   OH2 1019   2.093   3.783   0.501
  338TIP3    H1 1020   2.057   3.709   0.550
  338TIP3    H2 1021   2.099   3.853   0.565
  339TIP3   OH2 1022   6.116   5.308   4.250
  339TIP3    H1 1023   6.172   5.351   4.185
  339TIP3    H2 1024   6.031   5.299   4.206
  340TIP3   OH2 1025   0.898   3.723   2.287
  340TIP3    H1 1026   0.868   3.774   2.211
  340TIP3    H2 1027   0.898   3.786   2.359
  341TIP3   OH2 1028   2.118   1.754   4.988
  341TIP3    H1 1029   2.143   1.809   4.913
  341TIP3    H2 1030   2.201   1.721   5.022
  342TIP3   OH2 1031   2.258   4.734   4.004
  342TIP3    H1 1032   2.198   4.775   4.066
  342TIP3    H2 1033   2.308   4.671   4.056
  343TIP3   OH2 1034   1.054   0.183   4.948
  343TIP3    H1 1035   1.149   0.172   4.940
  343TIP3    H2 1036   1.042   0.220   5.036
  344TIP3   OH2 1037   2.869   4.222   4.688
  344TIP3    H1 1038   2.919   4.253   4.764
  344TIP3    H2 1039   2.923   4.154   4.649
  345TIP3   OH2 1040   2.091   3.455   4.864
  345TIP3    H1 1041   2.045   3.495   4.790
  345TIP3    H2 1042   2.081   3.517   4.936
  346TIP3   OH2 1043   5.402   1.855   0.154
  346TIP3    H1 1044   5.335   1.870   0.220
  346TIP3    H2 1045   5.454   1.936   0.153
  347TIP3   OH2 1046   5.596   2.066   0.166
  347TIP3    H1 1047   5.670   2.006   0.161
  347TIP3    H2 1048   5.634   2.152   0.149
  348TIP3   OH2 1049   5.074   4.003   0.764
  348TIP3    H1 1050   5.096   3.980   0.854
  348TIP3    H2 1051   5.046   4.095   0.769
  349TIP3   OH2 1052   4.369   4.979   2.511
  349TIP3    H1 1053   4.426   5.038   2.560
  349TIP3    H2 1054   4.347   4.910   2.574
  350TIP3   OH2 1055   5.291   0.340   0.447
  350TIP3    H1 1056   5.290   0.246   0.429
  350TIP3    H2 1057   5.369   0.373   0.400
  351TIP3   OH2 1058   6.299   2.073   2.277
  351TIP3    H1 1059   6.237   2.010   2.241
  351TIP3    H2 1060   6.273   2.157   2.240
  352TIP3   OH2 1061   5.755   4.516   2.647
  352TIP3    H1 1062   5.664   4.506   2.619
  352TIP3    H2 1063   5.749   4.558   2.733
  353TIP3   OH2 1064   5.512   3.261   3.816
  353TIP3    H1 1065   5.575   3.200   3.777
  353TIP3    H2 1066   5.562   3.341   3.832
  354TIP3   OH2 1067   2.555   3.784   0.703
  354TIP3    H1 1068   2.637   3.819   0.739
  354TIP3    H2 1069   2.546   3.698   0.743
  355TIP3   OH2 1070   2.887   2.852   1.217
  355TIP3    H1 1071   2.804   2.871   1.173
  355TIP3    H2 1072   2.920   2.773   1.174
  356TIP3   OH2 1073   0.784   4.975   4.449
  356TIP3    H1 1074   0.700   4.931   4.457
  356TIP3    H2 1075   0.817   4.981   4.539
  357TIP3   OH2 1076   1.251   4.239   3.365
  357TIP3    H1 1077   1.193   4.271   3.435
  357TIP3    H2 1078   1.264   4.315   3.308
  358TIP3   OH2 1079   1.119   2.623   2.350
  358TIP3    H1 1080   1.126   2.561   2.278
  358TIP3    H2 1081   1.091   2.570   2.425
  359TIP3   OH2 1082   6.181   0.988   1.111
  359TIP3    H1 1083   6.117   0.949   1.170
  359TIP3    H2 1084   6.235   1.044   1.168
  360TIP3   OH2 1085   4.431   4.060   2.481
  360TIP3    H1 1086   4.359   4.112   2.517
  360TIP3    H2 1087   4.388   3.992   2.430
  361TIP3   OH2 1088   5.545   5.448   4.592
  361TIP3    H1 1089   5.548   5.495   4.509
  361TIP3    H2 1090   5.633   5.457   4.628
  362TIP3   OH2 1091   1.826   5.150   3.119
  362TIP3    H1 1092   1.746   5.143   3.170
  362TIP3    H2 1093   1.887   5.197   3.176
  363TIP3   OH2 1094   0.158   1.705   2.500
  363TIP3    H1 1095   0.127   1.677   2.414
  363TIP3    H2 1096   0.161   1.801   2.495
  364TIP3   OH2 1097   0.335   1.713   0.996
  364TIP3    H1 1098   0.344   1.765   1.076
  364TIP3    H2 1099   0.344   1.622   1.026
  365TIP3   OH2 1100   0.496   3.699   2.446
  365TIP3    H1 1101   0.407   3.679   2.417
  365TIP3    H2 1102   0.552   3.663   2.378
  366TIP3   OH2 1103   1.534   0.212   3.284
  366TIP3    H1 1104   1.572   0.298   3.307
  366TIP3    H2 1105   1.606   0.165   3.242
  367TIP3   OH2 1106   4.963   3.250   3.737
  367TIP3    H1 1107   4.938   3.243   3.829
  367TIP3    H2 1108   5.042   3.197   3.730
  368TIP3   OH2 1109   6.009   4.793   0.340
  368TIP3    H1 1110   6.055   4.877   0.347
  368TIP3    H2 1111   6.021   4.752   0.426
  369TIP3   OH2 1112   5.683   3.478   3.644
  369TIP3    H1 1113   5.738   3.444   3.715
  369TIP3    H2 1114   5.739   3.540   3.598
  370TIP3   OH2 1115   5.513   4.757   4.762
  370TIP3    H1 1116   5.572   4.780   4.834
  370TIP3    H2 1117   5.569   4.758   4.684
  371TIP3   OH2 1118   3.637   3.267   3.272
  371TIP3    H1 1119   3.592   3.330   3.328
  371TIP3    H2 1120   3.696   3.221   3.331
  372TIP3   OH2 1121   5.085   1.979   2.042
  372TIP3    H1 1122   5.133   1.951   1.964
  372TIP3    H2 1123   5.020   2.041   2.009
  373TIP3   OH2 1124   3.224   2.043   3.736
  373TIP3    H1 1125   3.267   2.058   3.820
  373TIP3    H2 1126   3.289   1.993   3.685
  374TIP3   OH2 1127   4.455   0.422   2.791
  374TIP3    H1 1128   4.523   0.377   2.740
  374TIP3    H2 1129   4.433   0.362   2.862
  375TIP3   OH2 1130   1.689   3.254   0.593
  375TIP3    H1 1131   1.623   3.275   0.526
  375TIP3    H2 1132   1.773   3.259   0.547
  376TIP3   OH2 1133   2.247   0.818   4.381
  376TIP3    H1 1134   2.293   0.770   4.450
  376TIP3    H2 1135   2.316   0.848   4.322
  377TIP3   OH2 1136   4.564   3.290   4.598
  377TIP3    H1 1137   4.509   3.231   4.649
  377TIP3    H2 1138   4.503   3.331   4.536
  378TIP3   OH2 1139   3.463   5.311   4.746
  378TIP3    H1 1140   3.421   5.260   4.676
  378TIP3    H2 1141   3.554   5.318   4.718
  379TIP3   OH2 1142   0.245   3.001   0.366
  379TIP3    H1 1143   0.215   3.081   0.323
  379TIP3    H2 1144   0.337   3.018   0.388
  380TIP3   OH2 1145   0.826   0.211   1.472
  380TIP3    H1 1146   0.746   0.253   1.442
  380TIP3    H2 1147   0.826   0.126   1.428
  381TIP3   OH2 1148   0.561   0.163   4.652
  381TIP3    H1 1149   0.596   0.160   4.741
  381TIP3    H2 1150   0.504   0.086   4.646
  382TIP3   OH2 1151   5.798   2.814   0.287
  382TIP3    H1 1152   5.789   2.719   0.281
  382TIP3    H2 1153   5.835   2.830   0.374
  383TIP3   OH2 1154   4.316   4.264   1.671
  383TIP3    H1 1155   4.357   4.235   1.589
  383TIP3    H2 1156   4.252   4.329   1.644
  384TIP3   OH2 1157   6.161   4.651   0.555
  384TIP3    H1 1158   6.241   4.662   0.504
  384TIP3    H2 1159   6.181   4.579   0.615
  385TIP3   OH2 1160   0.822   1.240   2.241
  385TIP3    H1 1161   0.892   1.305   2.250
  385TIP3    H2 1162   0.780   1.261   2.158
  386TIP3   OH2 1163   3.600   3.666   5.115
  386TIP3    H1 1164   3.666   3.726   5.152
  386TIP3    H2 1165   3.539   3.723   5.069
  387TIP3   OH2 1166   1.757   2.035   4.236
  387TIP3    H1 1167   1.703   2.079   4.170
  387TIP3    H2 1168   1.754   2.093   4.312
  388TIP3   OH2 1169   0.670   1.904   3.443
  388TIP3    H1 1170   0.688   1.938   3.531
  388TIP3    H2 1171   0.685   1.810   3.450
  389TIP3   OH2 1172   5.774   1.458   3.415
  389TIP3    H1 1173   5.708   1.466   3.484
  389TIP3    H2 1174   5.857   1.463   3.462
  390TIP3   OH2 1175   4.123   1.730   3.599
  390TIP3    H1 1176   4.044   1.677   3.588
  390TIP3    H2 1177   4.116   1.798   3.531
  391TIP3   OH2 1178   1.749   4.538   5.160
  391TIP3    H1 1179   1.778   4.502   5.243
  391TIP3    H2 1180   1.686   4.475   5.126
  392TIP3   OH2 1181   3.005   0.741   1.991
  392TIP3    H1 1182   3.021   0.649   1.969
  392TIP3    H2 1183   2.912   0.753   1.978
  393TIP3   OH2 1184   2.345   0.242   3.594
  393TIP3    H1 1185   2.325   0.273   3.505
  393TIP3    H2 1186   2.286   0.291   3.650
  394TIP3   OH2 1187   1.055   3.252   0.248
  394TIP3    H1 1188   0.997   3.219   0.180
  394TIP3    H2 1189   1.022   3.214   0.329
  395TIP3   OH2 1190   1.678   4.439   2.468
  395TIP3    H1 1191   1.628   4.357   2.462
  395TIP3    H2 1192   1.759   4.415   2.512
  396TIP3   OH2 1193   2.548   3.456   2.016
  396TIP3    H1 1194   2.468   3.472   2.066
  396TIP3    H2 1195   2.523   3.389   1.952
  397TIP3   OH2 1196   0.747   2.980   0.911
  397TIP3    H1 1197   0.729   3.057   0.856
  397TIP3    H2 1198   0.679   2.917   0.887
  398TIP3   OH2 1199   5.005   4.919   0.705
  398TIP3    H1 1200   5.067   4.852   0.678
  398TIP3    H2 1201   5.013   4.921   0.800
  399TIP3   OH2 1202   2.056   4.552   4.636
  399TIP3    H1 1203   1.972   4.589   4.662
  399TIP3    H2 1204   2.083   4.497   4.710
  400TIP3   OH2 1205   5.853   2.661   2.385
  400TIP3    H1 1206   5.889   2.584   2.429
  400TIP3    H2 1207   5.810   2.711   2.455
  401TIP3   OH2 1208   2.383   2.106   5.014
  401TIP3    H1 1209   2.433   2.045   5.069
  401TIP3    H2 1210   2.433   2.188   5.018
  402TIP3   OH2 1211   5.301   4.436   0.686
  402TIP3    H1 1212   5.332   4.526   0.676
  402TIP3    H2 1213   5.208   4.445   0.708
  403TIP3   OH2 1214   5.145   3.315   0.509
  403TIP3    H1 1215   5.173   3.355   0.426
  403TIP3    H2 1216   5.197   3.236   0.517
  404TIP3   OH2 1217   5.203   1.910   1.806
  404TIP3    H1 1218   5.265   1.846   1.841
  404TIP3    H2 1219   5.208   1.899   1.711
  405TIP3   OH2 1220   4.532   3.680   0.116
  405TIP3    H1 1221   4.476   3.738   0.065
  405TIP3    H2 1222   4.530   3.717   0.205
  406TIP3   OH2 1223   5.597   5.725   2.653
  406TIP3    H1 1224   5.577   5.643   2.608
  406TIP3    H2 1225   5.600   5.701   2.746
  407TIP3   OH2 1226   1.737   1.991   1.877
  407TIP3    H1 1227   1.697   2.050   1.941
  407TIP3    H2 1228   1.829   2.017   1.874
  408TIP3   OH2 1229   0.945   1.818   0.646
  408TIP3    H1 1230   0.861   1.842   0.608
  408TIP3    H2 1231   1.008   1.881   0.611
  409TIP3   OH2 1232   0.743   5.928   2.684
  409TIP3    H1 1233   0.691   6.002   2.653
  409TIP3    H2 1234   0.711   5.853   2.634
  410TIP3   OH2 1235   2.421   0.184   4.701
  410TIP3    H1 1236   2.334   0.193   4.662
  410TIP3    H2 1237   2.474   0.250   4.656
  411TIP3   OH2 1238   5.995   2.917   3.630
  411TIP3    H1 1239   5.927   2.975   3.664
  411TIP3    H2 1240   6.029   2.962   3.552
  412TIP3   OH2 1241   5.827   2.674   3.245
  412TIP3    H1 1242   5.739   2.708   3.260
  412TIP3    H2 1243   5.857   2.646   3.331
  413TIP3   OH2 1244   5.057   4.356   2.977
  413TIP3    H1 1245   5.122   4.425   2.965
  413TIP3    H2 1246   5.010   4.351   2.894
  414TIP3   OH2 1247   3.650   4.919   1.425
  414TIP3    H1 1248   3.581   4.896   1.364
  414TIP3    H2 1249   3.635   5.012   1.444
  415TIP3   OH2 1250   4.806   5.389   1.644
  415TIP3    H1 1251   4.730   5.344   1.606
  415TIP3    H2 1252   4.768   5.452   1.705
  416TIP3   OH2 1253   5.462   5.522   2.201
  416TIP3    H1 1254   5.492   5.450   2.257
  416TIP3    H2 1255   5.542   5.555   2.161
  417TIP3   OH2 1256   2.689   4.761   0.572
  417TIP3    H1 1257   2.739   4.687   0.603
  417TIP3    H2 1258   2.718   4.774   0.481
  418TIP3   OH2 1259   4.846   2.766   1.914
  418TIP3    H1 1260   4.792   2.724   1.980
  418TIP3    H2 1261   4.911   2.701   1.890
  419TIP3   OH2 1262   4.669   4.271   4.760
  419TIP3    H1 1263   4.659   4.176   4.759
  419TIP3    H2 1264   4.719   4.289   4.840
  420TIP3   OH2 1265   0.850   0.757   3.665
  420TIP3    H1 1266   0.793   0.769   3.741
  420TIP3    H2 1267   0.933   0.727   3.702
  421TIP3   OH2 1268   2.614   2.370   3.173
  421TIP3    H1 1269   2.662   2.297   3.211
  421TIP3    H2 1270   2.647   2.375   3.083
  422TIP3   OH2 1271   3.862   4.244   4.836
  422TIP3    H1 1272   3.775   4.222   4.803
  422TIP3    H2 1273   3.845   4.296   4.915
  423TIP3   OH2 1274   5.492   5.642   0.038
  423TIP3    H1 1275   5.439   5.704  -0.012
  423TIP3    H2 1276   5.510   5.686   0.121
  424TIP3   OH2 1277   1.968   1.607   3.406
  424TIP3    H1 1278   2.062   1.623   3.411
  424TIP3    H2 1279   1.949   1.554   3.483
  425TIP3   OH2 1280   5.320   0.614   1.883
  425TIP3    H1 1281   5.299   0.707   1.875
  425TIP3    H2 1282   5.244   0.570   1.845
  426TIP3   OH2 1283   6.058   4.535   0.204
  426TIP3    H1 1284   6.071   4.617   0.250
  426TIP3    H2 1285   5.968   4.539   0.171
  427TIP3   OH2 1286   1.412   4.475   4.596
  427TIP3    H1 1287   1.492   4.456   4.548
  427TIP3    H2 1288   1.395   4.395   4.646
  428TIP3   OH2 1289   1.631   0.689   1.560
  428TIP3    H1 1290   1.616   0.659   1.470
  428TIP3    H2 1291   1.577   0.632   1.614
  429TIP3   OH2 1292   1.911   0.219   3.492
  429TIP3    H1 1293   1.824   0.209   3.529
  429TIP3    H2 1294   1.912   0.309   3.457
  430TIP3   OH2 1295   3.817   5.528   1.444
  430TIP3    H1 1296   3.754   5.492   1.382
  430TIP3    H2 1297   3.802   5.622   1.443
  431TIP3   OH2 1298   4.343   1.470   0.507
  431TIP3    H1 1299   4.259   1.447   0.467
  431TIP3    H2 1300   4.399   1.494   0.433
  432TIP3   OH2 1301   2.503   5.392   1.192
  432TIP3    H1 1302   2.594   5.391   1.222
  432TIP3    H2 1303   2.466   5.472   1.230
  433TIP3   OH2 1304   4.514   1.732   2.727
  433TIP3    H1 1305   4.504   1.823   2.700
  433TIP3    H2 1306   4.557   1.689   2.654
  434TIP3   OH2 1307   0.570   0.446   0.767
  434TIP3    H1 1308   0.534   0.519   0.716
  434TIP3    H2 1309   0.650   0.482   0.805
  435TIP3   OH2 1310   3.131   0.458   2.837
  435TIP3    H1 1311   3.171   0.464   2.750
  435TIP3    H2 1312   3.070   0.531   2.841
  436TIP3   OH2 1313   4.889   1.604   1.496
  436TIP3    H1 1314   4.794   1.599   1.498
  436TIP3    H2 1315   4.918   1.513   1.489
  437TIP3   OH2 1316   6.289   2.704   5.161
  437TIP3    H1 1317   6.209   2.687   5.211
  437TIP3    H2 1318   6.258   2.739   5.077
  438TIP3   OH2 1319   0.453   0.935   4.804
  438TIP3    H1 1320   0.358   0.932   4.811
  438TIP3    H2 1321   0.473   1.029   4.800
  439TIP3   OH2 1322   2.481   4.161   1.864
  439TIP3    H1 1323   2.569   4.193   1.845
  439TIP3    H2 1324   2.481   4.144   1.958
  440TIP3   OH2 1325   3.300   4.630   0.196
  440TIP3    H1 1326   3.333   4.551   0.153
  440TIP3    H2 1327   3.212   4.606   0.225
  441TIP3   OH2 1328   1.858   1.515   2.423
  441TIP3    H1 1329   1.786   1.507   2.361
  441TIP3    H2 1330   1.895   1.426   2.428
  442TIP3   OH2 1331   1.758   0.822   0.913
  442TIP3    H1 1332   1.786   0.883   0.845
  442TIP3    H2 1333   1.703   0.875   0.971
  443TIP3   OH2 1334   3.422   5.434   3.372
  443TIP3    H1 1335   3.467   5.354   3.344
  443TIP3    H2 1336   3.438   5.439   3.466
  444TIP3   OH2 1337   3.624   1.259   3.997
  444TIP3    H1 1338   3.639   1.282   4.088
  444TIP3    H2 1339   3.571   1.179   4.000
  445TIP3   OH2 1340   1.829   4.600   0.072
  445TIP3    H1 1341   1.917   4.572   0.044
  445TIP3    H2 1342   1.820   4.688   0.036
  446TIP3   OH2 1343   3.912   1.802   1.333
  446TIP3    H1 1344   3.840   1.775   1.276
  446TIP3    H2 1345   3.875   1.871   1.388
  447TIP3   OH2 1346   2.240   5.144   4.096
  447TIP3    H1 1347   2.261   5.235   4.073
  447TIP3    H2 1348   2.197   5.150   4.181
  448TIP3   OH2 1349   3.315   4.017   4.371
  448TIP3    H1 1350   3.370   3.994   4.445
  448TIP3    H2 1351   3.295   3.934   4.329
  449TIP3   OH2 1352   2.331   5.271   2.844
  449TIP3    H1 1353   2.334   5.317   2.761
  449TIP3    H2 1354   2.262   5.315   2.894
  450TIP3   OH2 1355   4.575   0.496   3.861
  450TIP3    H1 1356   4.482   0.506   3.838
  450TIP3    H2 1357   4.622   0.521   3.782
  451TIP3   OH2 1358   5.215   0.403   1.217
  451TIP3    H1 1359   5.218   0.388   1.311
  451TIP3    H2 1360   5.284   0.468   1.201
  452TIP3   OH2 1361   3.320   0.312   2.992
  452TIP3    H1 1362   3.387   0.286   2.928
  452TIP3    H2 1363   3.255   0.359   2.940
  453TIP3   OH2 1364   1.171   4.192   1.034
  453TIP3    H1 1365   1.156   4.158   0.946
  453TIP3    H2 1366   1.200   4.116   1.084
  454TIP3   OH2 1367   2.496   3.654   2.715
  454TIP3    H1 1368   2.414   3.703   2.715
  454TIP3    H2 1369   2.485   3.588   2.784
  455TIP3   OH2 1370   4.482   2.850   2.488
  455TIP3    H1 1371   4.514   2.903   2.415
  455TIP3    H2 1372   4.392   2.878   2.500
  456TIP3   OH2 1373   3.185   1.157   4.613
  456TIP3    H1 1374   3.213   1.095   4.681
  456TIP3    H2 1375   3.224   1.240   4.638
  457TIP3   OH2 1376   6.206   1.829   2.615
  457TIP3    H1 1377   6.173   1.874   2.692
  457TIP3    H2 1378   6.301   1.837   2.621
  458TIP3   OH2 1379   0.087   3.476   2.836
  458TIP3    H1 1380   0.126   3.558   2.807
  458TIP3    H2 1381   0.158   3.429   2.879
  459TIP3   OH2 1382   2.674   2.845   4.055
  459TIP3    H1 1383   2.722   2.789   4.116
  459TIP3    H2 1384   2.606   2.886   4.108
  460TIP3   OH2 1385   4.062   4.584   3.403
  460TIP3    H1 1386   4.061   4.515   3.469
  460TIP3    H2 1387   4.126   4.555   3.338
  461TIP3   OH2 1388   0.467   2.863   2.170
  461TIP3    H1 1389   0.484   2.802   2.099
  461TIP3    H2 1390   0.513   2.943   2.146
  462TIP3   OH2 1391   0.036   3.340   2.103
  462TIP3    H1 1392  -0.009   3.257   2.115
  462TIP3    H2 1393  -0.005   3.399   2.167
  463TIP3   OH2 1394   2.224   1.662   0.065
  463TIP3    H1 1395   2.170   1.612   0.004
  463TIP3    H2 1396   2.294   1.602   0.089
  464TIP3   OH2 1397   3.196   4.269   2.981
  464TIP3    H1 1398   3.280   4.227   3.000
  464TIP3    H2 1399   3.168   4.306   3.065
  465TIP3   OH2 1400   5.385   0.843   3.070
  465TIP3    H1 1401   5.333   0.879   3.142
  465TIP3    H2 1402   5.329   0.774   3.034
  466TIP3   OH2 1403   5.467   2.650   2.647
  466TIP3    H1 1404   5.389   2.661   2.594
  466TIP3    H2 1405   5.434   2.640   2.737
  467TIP3   OH2 1406   3.974   3.207   3.069
  467TIP3    H1 1407   3.931   3.136   3.117
  467TIP3    H2 1408   4.025   3.163   3.002
  468TIP3   OH2 1409   5.241   2.621   0.098
  468TIP3    H1 1410   5.262   2.578   0.181
  468TIP3    H2 1411   5.179   2.562   0.056
  469TIP3   OH2 1412   4.470   1.296   1.580
  469TIP3    H1 1413   4.417   1.235   1.630
  469TIP3    H2 1414   4.464   1.265   1.490
  470TIP3   OH2 1415   3.769   3.528   1.502
  470TIP3    H1 1416   3.726   3.504   1.585
  470TIP3    H2 1417   3.846   3.470   1.498
  471TIP3   OH2 1418   3.264   4.246   4.072
  471TIP3    H1 1419   3.270   4.333   4.112
  471TIP3    H2 1420   3.208   4.197   4.132
  472TIP3   OH2 1421   4.025   3.883   4.655
  472TIP3    H1 1422   3.946   3.925   4.621
  472TIP3    H2 1423   4.002   3.857   4.744
  473TIP3   OH2 1424   6.277   0.009   1.364
  473TIP3    H1 1425   6.227  -0.042   1.428
  473TIP3    H2 1426   6.338   0.061   1.417
  474TIP3   OH2 1427   1.711   2.219  -0.006
  474TIP3    H1 1428   1.625   2.182   0.014
  474TIP3    H2 1429   1.709   2.306   0.032
  475TIP3   OH2 1430   0.460   5.818   1.781
  475TIP3    H1 1431   0.552   5.835   1.760
  475TIP3    H2 1432   0.420   5.798   1.697
  476TIP3   OH2 1433   4.002   1.823   3.236
  476TIP3    H1 1434   3.982   1.755   3.300
  476TIP3    H2 1435   4.044   1.892   3.288
  477TIP3   OH2 1436   0.572   5.244   1.400
  477TIP3    H1 1437   0.608   5.262   1.313
  477TIP3    H2 1438   0.525   5.161   1.390
  478TIP3   OH2 1439   2.761   5.801   0.658
  478TIP3    H1 1440   2.823   5.825   0.590
  478TIP3    H2 1441   2.811   5.808   0.740
  479TIP3   OH2 1442   2.793   0.298   1.932
  479TIP3    H1 1443   2.774   0.233   1.864
  479TIP3    H2 1444   2.772   0.382   1.893
  480TIP3   OH2 1445   3.385   1.206   1.715
  480TIP3    H1 1446   3.434   1.244   1.642
  480TIP3    H2 1447   3.306   1.260   1.722
  481TIP3   OH2 1448   0.375   0.624   0.404
  481TIP3    H1 1449   0.398   0.617   0.311
  481TIP3    H2 1450   0.304   0.560   0.416
  482TIP3   OH2 1451   1.326   0.156   2.322
  482TIP3    H1 1452   1.292   0.106   2.396
  482TIP3    H2 1453   1.421   0.140   2.324
  483TIP3   OH2 1454   3.318   2.920   4.198
  483TIP3    H1 1455   3.408   2.904   4.228
  483TIP3    H2 1456   3.282   2.833   4.182
  484TIP3   OH2 1457   4.582   1.555   1.808
  484TIP3    H1 1458   4.622   1.621   1.864
  484TIP3    H2 1459   4.500   1.531   1.853
  485TIP3   OH2 1460   2.473   3.109   3.596
  485TIP3    H1 1461   2.495   3.040   3.660
  485TIP3    H2 1462   2.410   3.067   3.537
  486TIP3   OH2 1463   0.553   5.331   1.646
  486TIP3    H1 1464   0.625   5.311   1.705
  486TIP3    H2 1465   0.573   5.283   1.566
  487TIP3   OH2 1466   5.608   2.927   3.680
  487TIP3    H1 1467   5.554   2.951   3.604
  487TIP3    H2 1468   5.545   2.914   3.751
  488TIP3   OH2 1469   3.877  -0.023   1.656
  488TIP3    H1 1470   3.885   0.045   1.590
  488TIP3    H2 1471   3.807   0.008   1.714
  489TIP3   OH2 1472   0.415   2.749   2.607
  489TIP3    H1 1473   0.487   2.809   2.629
  489TIP3    H2 1474   0.377   2.786   2.527
  490TIP3   OH2 1475   3.535   3.634   2.321
  490TIP3    H1 1476   3.457   3.650   2.375
  490TIP3    H2 1477   3.510   3.662   2.233
  491TIP3   OH2 1478   0.272   5.233   4.507
  491TIP3    H1 1479   0.244   5.235   4.416
  491TIP3    H2 1480   0.339   5.164   4.510
  492TIP3   OH2 1481   3.517   0.911   4.479
  492TIP3    H1 1482   3.430   0.951   4.472
  492TIP3    H2 1483   3.504   0.822   4.446
  493TIP3   OH2 1484   2.681   3.014   2.418
  493TIP3    H1 1485   2.742   3.079   2.383
  493TIP3    H2 1486   2.611   3.066   2.457
  494TIP3   OH2 1487   0.836   0.940   4.866
  494TIP3    H1 1488   0.811   0.880   4.797
  494TIP3    H2 1489   0.858   0.883   4.940
  495TIP3   OH2 1490   5.888   2.052   1.615
  495TIP3    H1 1491   5.912   2.068   1.706
  495TIP3    H2 1492   5.874   2.140   1.579
  496TIP3   OH2 1493   1.155   3.594   0.899
  496TIP3    H1 1494   1.087   3.582   0.832
  496TIP3    H2 1495   1.231   3.624   0.850
  497TIP3   OH2 1496   4.517   5.120   2.719
  497TIP3    H1 1497   4.433   5.166   2.727
  497TIP3    H2 1498   4.567   5.147   2.795
  498TIP3   OH2 1499   5.839   4.089   3.558
  498TIP3    H1 1500   5.776   4.109   3.490
  498TIP3    H2 1501   5.921   4.129   3.528
  499TIP3   OH2 1502   2.460   4.456   2.281
  499TIP3    H1 1503   2.532   4.516   2.261
  499TIP3    H2 1504   2.438   4.475   2.372
  500TIP3   OH2 1505   1.691   0.343   2.305
  500TIP3    H1 1506   1.664   0.253   2.324
  500TIP3    H2 1507   1.631   0.397   2.355
  501TIP3   OH2 1508   5.440   3.721   3.397
  501TIP3    H1 1509   5.348   3.747   3.408
  501TIP3    H2 1510   5.441   3.672   3.315
  502TIP3   OH2 1511   3.599   5.791   2.361
  502TIP3    H1 1512   3.650   5.860   2.404
  502TIP3    H2 1513   3.536   5.762   2.427
  503TIP3   OH2 1514   2.626   0.797   2.367
  503TIP3    H1 1515   2.668   0.743   2.300
  503TIP3    H2 1516   2.532   0.782   2.355
  504TIP3   OH2 1517   3.721   2.658   0.588
  504TIP3    H1 1518   3.630   2.675   0.563
  504TIP3    H2 1519   3.734   2.712   0.666
  505TIP3   OH2 1520   3.843   1.152   4.820
  505TIP3    H1 1521   3.784   1.227   4.825
  505TIP3    H2 1522   3.806   1.097   4.750
  506TIP3   OH2 1523   1.669   4.305   3.969
  506TIP3    H1 1524   1.643   4.318   3.878
  506TIP3    H2 1525   1.764   4.317   3.968
  507TIP3   OH2 1526   2.533   5.306   4.208
  507TIP3    H1 1527   2.596   5.375   4.225
  507TIP3    H2 1528   2.506   5.319   4.117
  508TIP3   OH2 1529   0.919   4.637   0.580
  508TIP3    H1 1530   0.900   4.647   0.486
  508TIP3    H2 1531   1.010   4.667   0.589
  509TIP3   OH2 1532   2.030   4.875   0.469
  509TIP3    H1 1533   2.077   4.856   0.551
  509TIP3    H2 1534   2.007   4.968   0.475
  510TIP3   OH2 1535   2.631   5.587   1.716
  510TIP3    H1 1536   2.722   5.560   1.723
  510TIP3    H2 1537   2.632   5.660   1.654
  511TIP3   OH2 1538   4.728   1.804   0.516
  511TIP3    H1 1539   4.750   1.750   0.440
  511TIP3    H2 1540   4.694   1.743   0.581
  512TIP3   OH2 1541   6.039   2.457   0.081
  512TIP3    H1 1542   5.991   2.474   0.000
  512TIP3    H2 1543   5.975   2.474   0.151
  513TIP3   OH2 1544   2.572   1.312   4.867
  513TIP3    H1 1545   2.565   1.407   4.878
  513TIP3    H2 1546   2.660   1.291   4.899
  514TIP3   OH2 1547   1.260   1.921   0.541
  514TIP3    H1 1548   1.175   1.953   0.509
  514TIP3    H2 1549   1.296   1.995   0.590
  515TIP3   OH2 1550   1.579   4.918   0.951
  515TIP3    H1 1551   1.644   4.899   0.883
  515TIP3    H2 1552   1.629   4.958   1.022
  516TIP3   OH2 1553   4.862   5.880   1.805
  516TIP3    H1 1554   4.943   5.926   1.786
  516TIP3    H2 1555   4.796   5.922   1.749
  517TIP3   OH2 1556   0.257   4.251   0.257
  517TIP3    H1 1557   0.343   4.233   0.296
  517TIP3    H2 1558   0.211   4.301   0.325
  518TIP3   OH2 1559   1.650   2.234   0.646
  518TIP3    H1 1560   1.581   2.291   0.681
  518TIP3    H2 1561   1.608   2.149   0.634
  519TIP3   OH2 1562   4.161   5.372   0.494
  519TIP3    H1 1563   4.087   5.377   0.555
  519TIP3    H2 1564   4.147   5.446   0.435
  520TIP3   OH2 1565   2.813   4.245   0.070
  520TIP3    H1 1566   2.769   4.200   0.142
  520TIP3    H2 1567   2.784   4.198  -0.008
  521TIP3   OH2 1568   0.439   1.744   0.375
  521TIP3    H1 1569   0.412   1.686   0.305
  521TIP3    H2 1570   0.504   1.694   0.425
  522TIP3   OH2 1571   1.495   1.423   0.534
  522TIP3    H1 1572   1.456   1.382   0.611
  522TIP3    H2 1573   1.436   1.497   0.515
  523TIP3   OH2 1574   3.240   0.838   2.158
  523TIP3    H1 1575   3.266   0.845   2.066
  523TIP3    H2 1576   3.150   0.806   2.155
  524TIP3   OH2 1577   2.074   5.569   3.741
  524TIP3    H1 1578   2.063   5.540   3.832
  524TIP3    H2 1579   1.985   5.568   3.705
  525TIP3   OH2 1580   1.106   0.193   2.564
  525TIP3    H1 1581   1.154   0.110   2.563
  525TIP3    H2 1582   1.042   0.183   2.634
  526TIP3   OH2 1583   2.355   0.810   4.717
  526TIP3    H1 1584   2.263   0.824   4.696
  526TIP3    H2 1585   2.400   0.886   4.679
  527TIP3   OH2 1586   5.564   5.479   0.809
  527TIP3    H1 1587   5.567   5.545   0.740
  527TIP3    H2 1588   5.656   5.454   0.822
  528TIP3   OH2 1589   1.220   1.483   0.117
  528TIP3    H1 1590   1.226   1.387   0.126
  528TIP3    H2 1591   1.148   1.507   0.175
  529TIP3   OH2 1592   3.893   2.354   4.041
  529TIP3    H1 1593   3.873   2.327   3.951
  529TIP3    H2 1594   3.970   2.303   4.065
  530TIP3   OH2 1595   5.702   2.435   1.940
  530TIP3    H1 1596   5.670   2.489   1.868
  530TIP3    H2 1597   5.734   2.498   2.005
  531TIP3   OH2 1598   3.819   4.623   1.700
  531TIP3    H1 1599   3.900   4.635   1.651
  531TIP3    H2 1600   3.800   4.530   1.692
  532TIP3   OH2 1601   5.464   1.006   4.923
  532TIP3    H1 1602   5.398   0.975   4.860
  532TIP3    H2 1603   5.543   1.020   4.870
  533TIP3   OH2 1604   0.030   2.339   4.368
  533TIP3    H1 1605   0.043   2.344   4.273
  533TIP3    H2 1606   0.117   2.354   4.405
  534TIP3   OH2 1607   5.843   2.342   0.765
  534TIP3    H1 1608   5.886   2.426   0.777
  534TIP3    H2 1609   5.912   2.277   0.783
  535TIP3   OH2 1610   0.428   4.184   1.032
  535TIP3    H1 1611   0.358   4.226   1.083
  535TIP3    H2 1612   0.385   4.154   0.952
  536TIP3   OH2 1613   3.734   5.569   4.077
  536TIP3    H1 1614   3.753   5.558   3.984
  536TIP3    H2 1615   3.820   5.577   4.119
  537TIP3   OH2 1616   6.057   0.428   3.163
  537TIP3    H1 1617   5.984   0.376   3.196
  537TIP3    H2 1618   6.037   0.443   3.071
  538TIP3   OH2 1619   2.633   1.414   2.851
  538TIP3    H1 1620   2.672   1.498   2.827
  538TIP3    H2 1621   2.624   1.367   2.768
  539TIP3   OH2 1622   3.712   0.416   1.038
  539TIP3    H1 1623   3.786   0.357   1.031
  539TIP3    H2 1624   3.748   0.503   1.024
  540TIP3   OH2 1625   4.804   1.960   1.820
  540TIP3    H1 1626   4.765   1.941   1.735
  540TIP3    H2 1627   4.742   1.926   1.884
  541TIP3   OH2 1628   3.925   2.315   0.821
  541TIP3    H1 1629   3.877   2.386   0.864
  541TIP3    H2 1630   3.937   2.249   0.889
  542TIP3   OH2 1631   6.031   4.055   1.217
  542TIP3    H1 1632   6.103   4.025   1.273
  542TIP3    H2 1633   6.075   4.085   1.137
  543TIP3   OH2 1634   5.394   3.522   2.264
  543TIP3    H1 1635   5.352   3.518   2.349
  543TIP3    H2 1636   5.326   3.496   2.202
  544TIP3   OH2 1637   1.508   3.031   0.799
  544TIP3    H1 1638   1.538   2.954   0.751
  544TIP3    H2 1639   1.429   3.001   0.845
  545TIP3   OH2 1640   3.359   3.771   1.638
  545TIP3    H1 1641   3.407   3.702   1.592
  545TIP3    H2 1642   3.333   3.731   1.721
  546TIP3   OH2 1643   1.599   0.497   0.211
  546TIP3    H1 1644   1.546   0.566   0.251
  546TIP3    H2 1645   1.541   0.455   0.148
  547TIP3   OH2 1646   4.662   2.187   4.772
  547TIP3    H1 1647   4.704   2.273   4.779
  547TIP3    H2 1648   4.715   2.141   4.707
  548TIP3   OH2 1649   5.024   3.080   1.342
  548TIP3    H1 1650   4.980   3.092   1.426
  548TIP3    H2 1651   5.050   2.988   1.341
  549TIP3   OH2 1652   2.380   2.794   4.956
  549TIP3    H1 1653   2.290   2.791   4.988
  549TIP3    H2 1654   2.429   2.835   5.027
  550TIP3   OH2 1655   4.215   3.156   0.574
  550TIP3    H1 1656   4.224   3.144   0.480
  550TIP3    H2 1657   4.148   3.225   0.583
  551TIP3   OH2 1658   2.563   0.085   3.916
  551TIP3    H1 1659   2.615   0.079   3.836
  551TIP3    H2 1660   2.550  -0.006   3.942
  552TIP3   OH2 1661   3.474   1.281   3.449
  552TIP3    H1 1662   3.515   1.367   3.446
  552TIP3    H2 1663   3.494   1.248   3.536
  553TIP3   OH2 1664   2.015   3.711   3.918
  553TIP3    H1 1665   1.929   3.716   3.877
  553TIP3    H2 1666   2.003   3.750   4.005
  554TIP3   OH2 1667   1.450   0.459   2.985
  554TIP3    H1 1668   1.446   0.530   3.049
  554TIP3    H2 1669   1.361   0.455   2.949
  555TIP3   OH2 1670   3.730   4.091   2.687
  555TIP3    H1 1671   3.701   4.050   2.769
  555TIP3    H2 1672   3.706   4.027   2.619
  556TIP3   OH2 1673   0.838   3.874   0.956
  556TIP3    H1 1674   0.873   3.959   0.928
  556TIP3    H2 1675   0.743   3.886   0.955
  557TIP3   OH2 1676   5.702   3.717   3.478
  557TIP3    H1 1677   5.619   3.719   3.431
  557TIP3    H2 1678   5.682   3.756   3.563
  558TIP3   OH2 1679   1.817   3.796   4.668
  558TIP3    H1 1680   1.750   3.783   4.601
  558TIP3    H2 1681   1.863   3.875   4.640
  559TIP3   OH2 1682   0.962   5.464   1.949
  559TIP3    H1 1683   1.045   5.498   1.916
  559TIP3    H2 1684   0.964   5.371   1.924
  560TIP3   OH2 1685   0.364   4.673   0.110
  560TIP3    H1 1686   0.324   4.607   0.053
  560TIP3    H2 1687   0.290   4.725   0.141
  561TIP3   OH2 1688   0.505   3.054   0.408
  561TIP3    H1 1689   0.568   2.989   0.376
  561TIP3    H2 1690   0.547   3.139   0.390
  562TIP3   OH2 1691   1.808   5.409   4.587
  562TIP3    H1 1692   1.902   5.422   4.598
  562TIP3    H2 1693   1.799   5.374   4.498
  563TIP3   OH2 1694   3.589   4.689   3.594
  563TIP3    H1 1695   3.544   4.769   3.568
  563TIP3    H2 1696   3.558   4.622   3.533
  564TIP3   OH2 1697   3.001   5.448   3.922
  564TIP3    H1 1698   3.027   5.505   3.849
  564TIP3    H2 1699   2.911   5.421   3.900
  565TIP3   OH2 1700   2.915   3.898   1.470
  565TIP3    H1 1701   3.008   3.877   1.462
  565TIP3    H2 1702   2.871   3.821   1.435
  566TIP3   OH2 1703   1.754   3.305   0.253
  566TIP3    H1 1704   1.845   3.325   0.231
  566TIP3    H2 1705   1.731   3.370   0.319
  567TIP3   OH2 1706   5.173   5.870   1.059
  567TIP3    H1 1707   5.141   5.787   1.094
  567TIP3    H2 1708   5.217   5.912   1.133
  568TIP3   OH2 1709   6.096   2.294   0.485
  568TIP3    H1 1710   6.018   2.239   0.482
  568TIP3    H2 1711   6.147   2.267   0.409
  569TIP3   OH2 1712   4.420   4.345   2.426
  569TIP3    H1 1713   4.345   4.316   2.478
  569TIP3    H2 1714   4.449   4.426   2.468
  570TIP3   OH2 1715   5.888   0.591   2.025
  570TIP3    H1 1716   5.828   0.526   2.062
  570TIP3    H2 1717   5.890   0.662   2.090
  571TIP3   OH2 1718   0.055   2.423   1.599
  571TIP3    H1 1719   0.086   2.497   1.546
  571TIP3    H2 1720   0.011   2.464   1.674
  572TIP3   OH2 1721   5.784   5.529   1.702
  572TIP3    H1 1722   5.760   5.484   1.621
  572TIP3    H2 1723   5.722   5.602   1.708
  573TIP3   OH2 1724   6.136   4.816   1.418
  573TIP3    H1 1725   6.194   4.861   1.356
  573TIP3    H2 1726   6.151   4.860   1.501
  574TIP3   OH2 1727   5.321   3.846   2.798
  574TIP3    H1 1728   5.412   3.828   2.822
  574TIP3    H2 1729   5.271   3.773   2.836
  575TIP3   OH2 1730   4.303   3.915   4.057
  575TIP3    H1 1731   4.323   3.852   4.126
  575TIP3    H2 1732   4.230   3.875   4.009
  576TIP3   OH2 1733   6.213   5.573   0.521
  576TIP3    H1 1734   6.165   5.490   0.513
  576TIP3    H2 1735   6.210   5.611   0.433
  577TIP3   OH2 1736   1.148   0.097   1.471
  577TIP3    H1 1737   1.238   0.108   1.501
  577TIP3    H2 1738   1.094   0.113   1.548
  578TIP3   OH2 1739   0.205   2.888   4.936
  578TIP3    H1 1740   0.205   2.913   4.844
  578TIP3    H2 1741   0.123   2.922   4.970
  579TIP3   OH2 1742   2.095   0.293   0.553
  579TIP3    H1 1743   2.046   0.279   0.634
  579TIP3    H2 1744   2.034   0.340   0.496
  580TIP3   OH2 1745   4.951   2.874   3.205
  580TIP3    H1 1746   5.041   2.849   3.224
  580TIP3    H2 1747   4.959   2.951   3.148
  581TIP3   OH2 1748   0.957   4.179   0.612
  581TIP3    H1 1749   0.931   4.269   0.596
  581TIP3    H2 1750   0.925   4.131   0.536
  582TIP3   OH2 1751   1.939   1.035   0.093
  582TIP3    H1 1752   1.865   1.010   0.038
  582TIP3    H2 1753   1.976   1.112   0.048
  583TIP3   OH2 1754   4.223   2.559   3.628
  583TIP3    H1 1755   4.280   2.614   3.574
  583TIP3    H2 1756   4.279   2.529   3.699
  584TIP3   OH2 1757   1.689   2.578   1.296
  584TIP3    H1 1758   1.684   2.623   1.381
  584TIP3    H2 1759   1.739   2.498   1.315
  585TIP3   OH2 1760   6.334   5.738   2.842
  585TIP3    H1 1761   6.317   5.818   2.892
  585TIP3    H2 1762   6.255   5.726   2.788
  586TIP3   OH2 1763   5.421   5.702   3.627
  586TIP3    H1 1764   5.383   5.789   3.615
  586TIP3    H2 1765   5.395   5.654   3.549
  587TIP3   OH2 1766   1.488   3.551   4.947
  587TIP3    H1 1767   1.486   3.456   4.952
  587TIP3    H2 1768   1.543   3.578   5.021
  588TIP3   OH2 1769   1.979   3.195   0.534
  588TIP3    H1 1770   2.073   3.192   0.548
  588TIP3    H2 1771   1.942   3.137   0.601
  589TIP3   OH2 1772   0.384   1.331   2.919
  589TIP3    H1 1773   0.420   1.253   2.961
  589TIP3    H2 1774   0.447   1.352   2.850
  590TIP3   OH2 1775   0.605   5.577   0.604
  590TIP3    H1 1776   0.604   5.616   0.691
  590TIP3    H2 1777   0.675   5.623   0.558
  591TIP3   OH2 1778   3.258   0.497   3.840
  591TIP3    H1 1779   3.227   0.416   3.799
  591TIP3    H2 1780   3.352   0.498   3.822
  592TIP3   OH2 1781   1.058   4.024   4.409
  592TIP3    H1 1782   1.123   3.966   4.450
  592TIP3    H2 1783   1.052   4.099   4.468
  593TIP3   OH2 1784   3.178   2.814   0.985
  593TIP3    H1 1785   3.216   2.864   1.057
  593TIP3    H2 1786   3.151   2.731   1.026
  594TIP3   OH2 1787   2.441   3.202   3.032
  594TIP3    H1 1788   2.347   3.201   3.013
  594TIP3    H2 1789   2.467   3.110   3.023
  595TIP3   OH2 1790   4.285   5.543   3.756
  595TIP3    H1 1791   4.246   5.626   3.784
  595TIP3    H2 1792   4.369   5.568   3.718
  596TIP3   OH2 1793   5.503   5.909   2.134
  596TIP3    H1 1794   5.409   5.903   2.151
  596TIP3    H2 1795   5.532   5.986   2.183
  597TIP3   OH2 1796   6.274   0.545   4.912
  597TIP3    H1 1797   6.195   0.591   4.882
  597TIP3    H2 1798   6.297   0.588   4.994
  598TIP3   OH2 1799   4.208   4.472   2.647
  598TIP3    H1 1800   4.176   4.546   2.699
  598TIP3    H2 1801   4.270   4.427   2.704
  599TIP3   OH2 1802   5.296   2.247   4.956
  599TIP3    H1 1803   5.235   2.213   5.021
  599TIP3    H2 1804   5.315   2.336   4.985
  600TIP3   OH2 1805   4.691   5.318   1.067
  600TIP3    H1 1806   4.715   5.264   0.992
  600TIP3    H2 1807   4.736   5.402   1.052
  601TIP3   OH2 1808   5.588   1.287   0.875
  601TIP3    H1 1809   5.581   1.381   0.892
  601TIP3    H2 1810   5.536   1.273   0.796
  602TIP3   OH2 1811   0.823   1.612   0.039
  602TIP3    H1 1812   0.734   1.638   0.062
  602TIP3    H2 1813   0.875   1.633   0.117
  603TIP3   OH2 1814   3.232   3.430   4.147
  603TIP3    H1 1815   3.235   3.388   4.061
  603TIP3    H2 1816   3.316   3.475   4.155
  604TIP3   OH2 1817   0.337   4.316   2.835
  604TIP3    H1 1818   0.417   4.365   2.815
  604TIP3    H2 1819   0.360   4.225   2.818
  605TIP3   OH2 1820   6.252   4.248   4.906
  605TIP3    H1 1821   6.293   4.195   4.838
  605TIP3    H2 1822   6.309   4.324   4.915
  606TIP3   OH2 1823   2.573   5.267   2.480
  606TIP3    H1 1824   2.600   5.260   2.389
  606TIP3    H2 1825   2.496   5.211   2.487
  607TIP3   OH2 1826   4.190   1.393   3.415
  607TIP3    H1 1827   4.113   1.336   3.415
  607TIP3    H2 1828   4.260   1.339   3.452
  608TIP3   OH2 1829   5.296   2.566   0.401
  608TIP3    H1 1830   5.284   2.658   0.424
  608TIP3    H2 1831   5.353   2.531   0.470
  609TIP3   OH2 1832   6.253   1.150   4.814
  609TIP3    H1 1833   6.157   1.148   4.815
  609TIP3    H2 1834   6.274   1.209   4.742
  610TIP3   OH2 1835   0.791   5.714   4.138
  610TIP3    H1 1836   0.765   5.806   4.134
  610TIP3    H2 1837   0.858   5.704   4.070
  611TIP3   OH2 1838   0.582   5.953   2.352
  611TIP3    H1 1839   0.534   6.031   2.382
  611TIP3    H2 1840   0.554   5.883   2.411
  612TIP3   OH2 1841   3.100   4.317   1.388
  612TIP3    H1 1842   3.100   4.297   1.294
  612TIP3    H2 1843   3.106   4.412   1.392
  613TIP3   OH2 1844   6.020   1.838   2.386
  613TIP3    H1 1845   6.029   1.792   2.469
  613TIP3    H2 1846   6.104   1.824   2.342
  614TIP3   OH2 1847   0.852   0.745   4.156
  614TIP3    H1 1848   0.793   0.758   4.230
  614TIP3    H2 1849   0.803   0.689   4.096
  615TIP3   OH2 1850   4.277   5.424   1.928
  615TIP3    H1 1851   4.215   5.358   1.959
  615TIP3    H2 1852   4.359   5.403   1.972
  616TIP3   OH2 1853   3.461   5.842   1.717
  616TIP3    H1 1854   3.417   5.919   1.683
  616TIP3    H2 1855   3.492   5.868   1.804
  617TIP3   OH2 1856   4.038   1.181   3.512
  617TIP3    H1 1857   3.951   1.142   3.518
  617TIP3    H2 1858   4.079   1.161   3.596
  618TIP3   OH2 1859   5.929   4.276   3.266
  618TIP3    H1 1860   5.971   4.310   3.187
  618TIP3    H2 1861   6.002   4.255   3.324
  619TIP3   OH2 1862   4.460   4.698   3.494
  619TIP3    H1 1863   4.438   4.612   3.530
  619TIP3    H2 1864   4.380   4.750   3.507
  620TIP3   OH2 1865   5.355   1.555   2.468
  620TIP3    H1 1866   5.443   1.517   2.470
  620TIP3    H2 1867   5.370   1.648   2.453
  621TIP3   OH2 1868   2.126   5.300   0.196
  621TIP3    H1 1869   2.194   5.366   0.208
  621TIP3    H2 1870   2.174   5.219   0.176
  622TIP3   OH2 1871   0.037   5.221   3.461
  622TIP3    H1 1872   0.002   5.261   3.381
  622TIP3    H2 1873   0.120   5.182   3.434
  623TIP3   OH2 1874   0.026   0.217   1.799
  623TIP3    H1 1875  -0.042   0.261   1.851
  623TIP3    H2 1876   0.108   0.259   1.826
  624TIP3   OH2 1877   2.664   2.782   4.689
  624TIP3    H1 1878   2.712   2.827   4.758
  624TIP3    H2 1879   2.618   2.711   4.734
  625TIP3   OH2 1880   3.804   3.755   3.491
  625TIP3    H1 1881   3.804   3.815   3.566
  625TIP3    H2 1882   3.846   3.676   3.524
  626TIP3   OH2 1883   1.698   1.812   2.858
  626TIP3    H1 1884   1.692   1.848   2.946
  626TIP3    H2 1885   1.760   1.869   2.813
  627TIP3   OH2 1886   2.369   4.923   0.253
  627TIP3    H1 1887   2.297   4.963   0.203
  627TIP3    H2 1888   2.386   4.986   0.323
  628TIP3   OH2 1889   0.033   4.388   1.502
  628TIP3    H1 1890   0.003   4.445   1.430
  628TIP3    H2 1891   0.128   4.400   1.504
  629TIP3   OH2 1892   0.138   0.525   4.523
  629TIP3    H1 1893   0.179   0.447   4.487
  629TIP3    H2 1894   0.162   0.595   4.461
  630TIP3   OH2 1895   3.838   0.564   4.743
  630TIP3    H1 1896   3.858   0.568   4.836
  630TIP3    H2 1897   3.743   0.574   4.738
  631TIP3   OH2 1898   0.724   1.836   3.175
  631TIP3    H1 1899   0.721   1.860   3.267
  631TIP3    H2 1900   0.660   1.766   3.166
  632TIP3   OH2 1901   0.186   0.973   2.947
  632TIP3    H1 1902   0.169   0.902   3.010
  632TIP3    H2 1903   0.256   1.025   2.988
  633TIP3   OH2 1904   3.395   4.047   1.563
  633TIP3    H1 1905   3.329   4.108   1.595
  633TIP3    H2 1906   3.360   3.960   1.583
  634TIP3   OH2 1907   0.313   2.125   1.317
  634TIP3    H1 1908   0.372   2.196   1.340
  634TIP3    H2 1909   0.230   2.149   1.358
  635TIP3   OH2 1910   3.573   3.049   0.624
  635TIP3    H1 1911   3.566   3.048   0.529
  635TIP3    H2 1912   3.656   3.004   0.643
  636TIP3   OH2 1913   3.062   4.015   4.978
  636TIP3    H1 1914   3.141   4.018   5.032
  636TIP3    H2 1915   3.062   3.928   4.939
  637TIP3   OH2 1916   0.092   4.608   2.967
  637TIP3    H1 1917   0.036   4.631   3.041
  637TIP3    H2 1918   0.167   4.564   3.005
  638TIP3   OH2 1919   3.334   3.039   0.773
  638TIP3    H1 1920   3.416   3.052   0.725
  638TIP3    H2 1921   3.349   2.960   0.825
  639TIP3   OH2 1922   1.518   5.486   2.736
  639TIP3    H1 1923   1.501   5.473   2.830
  639TIP3    H2 1924   1.588   5.424   2.716
  640TIP3   OH2 1925   0.368   2.299   0.819
  640TIP3    H1 1926   0.409   2.382   0.844
  640TIP3    H2 1927   0.407   2.234   0.877
  641TIP3   OH2 1928   2.343   5.858   3.040
  641TIP3    H1 1929   2.426   5.855   2.992
  641TIP3    H2 1930   2.329   5.768   3.069
  642TIP3   OH2 1931   0.053   5.027   1.274
  642TIP3    H1 1932   0.011   5.079   1.342
  642TIP3    H2 1933   0.046   5.080   1.194
  643TIP3   OH2 1934   2.104   4.033   1.093
  643TIP3    H1 1935   2.060   4.098   1.039
  643TIP3    H2 1936   2.083   4.057   1.183
  644TIP3   OH2 1937   0.884   4.462   0.975
  644TIP3    H1 1938   0.840   4.495   0.897
  644TIP3    H2 1939   0.964   4.421   0.941
  645TIP3   OH2 1940   2.159   4.919   4.873
  645TIP3    H1 1941   2.175   4.855   4.942
  645TIP3    H2 1942   2.065   4.916   4.859
  646TIP3   OH2 1943   0.432   1.493   4.477
  646TIP3    H1 1944   0.518   1.491   4.519
  646TIP3    H2 1945   0.372   1.521   4.547
  647TIP3   OH2 1946   3.506   1.015   3.679
  647TIP3    H1 1947   3.508   0.982   3.769
  647TIP3    H2 1948   3.455   0.950   3.630
  648TIP3   OH2 1949   3.305   0.626   0.469
  648TIP3    H1 1950   3.356   0.576   0.532
  648TIP3    H2 1951   3.236   0.565   0.442
  649TIP3   OH2 1952   2.339   2.065   1.878
  649TIP3    H1 1953   2.368   1.975   1.868
  649TIP3    H2 1954   2.357   2.086   1.969
  650TIP3   OH2 1955   1.060   1.603   0.528
  650TIP3    H1 1956   1.028   1.684   0.569
  650TIP3    H2 1957   1.013   1.533   0.573
  651TIP3   OH2 1958   1.760   5.347   2.670
  651TIP3    H1 1959   1.779   5.352   2.764
  651TIP3    H2 1960   1.846   5.340   2.628
  652TIP3   OH2 1961   5.626   0.752   3.086
  652TIP3    H1 1962   5.694   0.819   3.072
  652TIP3    H2 1963   5.544   0.801   3.082
  653TIP3   OH2 1964   2.637   2.378   4.185
  653TIP3    H1 1965   2.613   2.469   4.166
  653TIP3    H2 1966   2.730   2.374   4.163
  654TIP3   OH2 1967   3.173   5.740   4.640
  654TIP3    H1 1968   3.259   5.697   4.642
  654TIP3    H2 1969   3.112   5.674   4.671
  655TIP3   OH2 1970   2.467   4.733   0.721
  655TIP3    H1 1971   2.535   4.760   0.659
  655TIP3    H2 1972   2.514   4.720   0.804
  656TIP3   OH2 1973   5.473   2.565   1.045
  656TIP3    H1 1974   5.563   2.559   1.012
  656TIP3    H2 1975   5.425   2.608   0.975
  657TIP3   OH2 1976   2.111   2.827   0.819
  657TIP3    H1 1977   2.038   2.823   0.881
  657TIP3    H2 1978   2.183   2.864   0.870
  658TIP3   OH2 1979   0.707   5.442   1.154
  658TIP3    H1 1980   0.640   5.508   1.174
  658TIP3    H2 1981   0.773   5.455   1.222
  659TIP3   OH2 1982   4.280   1.547   1.665
  659TIP3    H1 1983   4.231   1.628   1.657
  659TIP3    H2 1984   4.329   1.540   1.583
  660TIP3   OH2 1985   2.975   2.415   1.866
  660TIP3    H1 1986   2.965   2.368   1.949
  660TIP3    H2 1987   3.005   2.348   1.805
  661TIP3   OH2 1988   2.708   5.816   1.560
  661TIP3    H1 1989   2.723   5.886   1.624
  661TIP3    H2 1990   2.786   5.816   1.505
  662TIP3   OH2 1991   4.042   1.272   2.822
  662TIP3    H1 1992   3.949   1.262   2.844
  662TIP3    H2 1993   4.063   1.195   2.769
  663TIP3   OH2 1994   1.222   4.105   2.019
  663TIP3    H1 1995   1.160   4.117   1.947
  663TIP3    H2 1996   1.180   4.042   2.077
  664TIP3   OH2 1997   2.777   1.593   0.840
  664TIP3    H1 1998   2.759   1.677   0.883
  664TIP3    H2 1999   2.812   1.537   0.910
  665TIP3   OH2 2000   4.518   0.679   0.407
  665TIP3    H1 2001   4.586   0.674   0.474
  665TIP3    H2 2002   4.437   0.657   0.454
  666TIP3   OH2 2003   5.528   2.564   3.308
  666TIP3    H1 2004   5.574   2.520   3.380
  666TIP3    H2 2005   5.532   2.502   3.235
  667TIP3   OH2 2006   1.368   0.069   1.023
  667TIP3    H1 2007   1.449   0.096   0.981
  667TIP3    H2 2008   1.370   0.112   1.109
  668TIP3   OH2 2009   0.791   3.007   3.950
  668TIP3    H1 2010   0.788   2.997   3.855
  668TIP3    H2 2011   0.713   2.962   3.982
  669TIP3   OH2 2012   4.228   5.690   0.703
  669TIP3    H1 2013   4.214   5.727   0.790
  669TIP3    H2 2014   4.294   5.622   0.716
  670TIP3   OH2 2015   1.910   4.801   1.716
  670TIP3    H1 2016   1.981   4.780   1.778
  670TIP3    H2 2017   1.831   4.770   1.759
  671TIP3   OH2 2018   1.764   0.335   5.102
  671TIP3    H1 2019   1.751   0.426   5.075
  671TIP3    H2 2020   1.764   0.337   5.198
  672TIP3   OH2 2021   2.464   3.942   0.503
  672TIP3    H1 2022   2.525   4.012   0.482
  672TIP3    H2 2023   2.510   3.889   0.568
  673TIP3   OH2 2024   4.036   4.228   4.615
  673TIP3    H1 2025   3.957   4.218   4.668
  673TIP3    H2 2026   4.030   4.158   4.550
  674TIP3   OH2 2027   2.557   1.277   1.532
  674TIP3    H1 2028   2.466   1.309   1.535
  674TIP3    H2 2029   2.603   1.343   1.479
  675TIP3   OH2 2030   4.004   2.518   0.165
  675TIP3    H1 2031   4.012   2.602   0.121
  675TIP3    H2 2032   3.969   2.540   0.252
  676TIP3   OH2 2033   3.844   0.976   2.382
  676TIP3    H1 2034   3.785   1.013   2.447
  676TIP3    H2 2035   3.801   0.895   2.354
  677TIP3   OH2 2036   1.283   4.263   4.750
  677TIP3    H1 2037   1.297   4.231   4.839
  677TIP3    H2 2038   1.210   4.325   4.757
  678TIP3   OH2 2039   0.309   4.926   4.018
  678TIP3    H1 2040   0.246   4.930   3.946
  678TIP3    H2 2041   0.379   4.870   3.983
  679TIP3   OH2 2042   3.583   4.977   0.905
  679TIP3    H1 2043   3.534   5.057   0.923
  679TIP3    H2 2044   3.625   4.993   0.820
  680TIP3   OH2 2045   4.875   3.280   2.859
  680TIP3    H1 2046   4.881   3.245   2.770
  680TIP3    H2 2047   4.919   3.214   2.913
  681TIP3   OH2 2048   0.285   1.950   0.864
  681TIP3    H1 2049   0.316   2.024   0.916
  681TIP3    H2 2050   0.317   1.873   0.911
  682TIP3   OH2 2051   4.020   0.312   0.027
  682TIP3    H1 2052   4.028   0.375  -0.044
  682TIP3    H2 2053   4.103   0.320   0.075
  683TIP3   OH2 2054   2.765   0.529   5.118
  683TIP3    H1 2055   2.807   0.508   5.035
  683TIP3    H2 2056   2.800   0.464   5.179
  684TIP3   OH2 2057   0.098   4.005   2.330
  684TIP3    H1 2058   0.116   4.047   2.414
  684TIP3    H2 2059   0.002   4.004   2.323
  685TIP3   OH2 2060   4.854   3.165   4.780
  685TIP3    H1 2061   4.770   3.193   4.816
  685TIP3    H2 2062   4.859   3.206   4.694
  686TIP3   OH2 2063   3.492   3.245   1.079
  686TIP3    H1 2064   3.481   3.265   1.172
  686TIP3    H2 2065   3.447   3.316   1.033
  687TIP3   OH2 2066   5.364   3.561   1.058
  687TIP3    H1 2067   5.417   3.633   1.092
  687TIP3    H2 2068   5.364   3.495   1.127
  688TIP3   OH2 2069   2.619   5.994   0.233
  688TIP3    H1 2070   2.651   6.028   0.150
  688TIP3    H2 2071   2.637   5.900   0.230
  689TIP3   OH2 2072   6.164  -0.005   5.072
  689TIP3    H1 2073   6.223   0.018   5.144
  689TIP3    H2 2074   6.218   0.004   4.994
  690TIP3   OH2 2075   5.060   5.420   0.386
  690TIP3    H1 2076   5.112   5.493   0.353
  690TIP3    H2 2077   5.019   5.454   0.465
  691TIP3   OH2 2078   2.821   0.105   0.046
  691TIP3    H1 2079   2.871   0.032   0.009
  691TIP3    H2 2080   2.731   0.090   0.014
  692TIP3   OH2 2081   0.931   4.598   1.584
  692TIP3    H1 2082   0.990   4.602   1.509
  692TIP3    H2 2083   0.970   4.655   1.649
  693TIP3   OH2 2084   1.348   3.569   1.818
  693TIP3    H1 2085   1.338   3.664   1.806
  693TIP3    H2 2086   1.316   3.553   1.906
  694TIP3   OH2 2087   1.331   3.039   2.827
  694TIP3    H1 2088   1.341   2.959   2.878
  694TIP3    H2 2089   1.254   3.023   2.772
  695TIP3   OH2 2090   2.049   2.459   5.143
  695TIP3    H1 2091   2.117   2.513   5.184
  695TIP3    H2 2092   2.090   2.374   5.129
  696TIP3   OH2 2093   0.227   3.013   0.709
  696TIP3    H1 2094   0.160   2.980   0.650
  696TIP3    H2 2095   0.185   3.084   0.757
  697TIP3   OH2 2096   0.753   4.123   2.806
  697TIP3    H1 2097   0.727   4.193   2.866
  697TIP3    H2 2098   0.766   4.167   2.722
  698TIP3   OH2 2099   2.574   4.908   3.165
  698TIP3    H1 2100   2.656   4.953   3.185
  698TIP3    H2 2101   2.510   4.945   3.226
  699TIP3   OH2 2102   1.930   3.135   2.926
  699TIP3    H1 2103   1.914   3.201   2.993
  699TIP3    H2 2104   1.964   3.059   2.974
  700TIP3   OH2 2105   0.100   2.209   3.410
  700TIP3    H1 2106   0.155   2.222   3.488
  700TIP3    H2 2107   0.163   2.197   3.339
  701TIP3   OH2 2108   0.094   3.722   5.130
  701TIP3    H1 2109   0.114   3.691   5.218
  701TIP3    H2 2110   0.177   3.717   5.082
  702TIP3   OH2 2111   0.719   2.869   2.310
  702TIP3    H1 2112   0.629   2.871   2.279
  702TIP3    H2 2113   0.712   2.865   2.405
  703TIP3   OH2 2114   4.313   2.686   2.804
  703TIP3    H1 2115   4.361   2.669   2.885
  703TIP3    H2 2116   4.282   2.776   2.812
  704TIP3   OH2 2117   4.826   5.509   4.508
  704TIP3    H1 2118   4.865   5.584   4.464
  704TIP3    H2 2119   4.836   5.437   4.445
  705TIP3   OH2 2120   4.194   4.310   3.779
  705TIP3    H1 2121   4.278   4.266   3.772
  705TIP3    H2 2122   4.160   4.284   3.865
  706TIP3   OH2 2123   1.139   0.485   3.276
  706TIP3    H1 2124   1.102   0.403   3.244
  706TIP3    H2 2125   1.067   0.526   3.324
  707TIP3   OH2 2126   4.540   1.091   0.795
  707TIP3    H1 2127   4.478   1.030   0.755
  707TIP3    H2 2128   4.562   1.052   0.879
  708TIP3   OH2 2129   0.844   4.303   1.286
  708TIP3    H1 2130   0.801   4.269   1.208
  708TIP3    H2 2131   0.780   4.289   1.356
  709TIP3   OH2 2132   3.249   3.267   1.346
  709TIP3    H1 2133   3.177   3.323   1.320
  709TIP3    H2 2134   3.212   3.208   1.411
  710TIP3   OH2 2135   5.885   0.076   5.117
  710TIP3    H1 2136   5.963   0.106   5.071
  710TIP3    H2 2137   5.812   0.102   5.060
  711TIP3   OH2 2138   5.121   0.975   2.067
  711TIP3    H1 2139   5.067   1.017   2.000
  711TIP3    H2 2140   5.113   1.032   2.143
  712TIP3   OH2 2141   4.417   5.393   1.142
  712TIP3    H1 2142   4.508   5.363   1.154
  712TIP3    H2 2143   4.383   5.339   1.071
  713TIP3   OH2 2144   5.192   5.394   3.332
  713TIP3    H1 2145   5.233   5.308   3.332
  713TIP3    H2 2146   5.098   5.376   3.329
  714TIP3   OH2 2147   0.401   0.104   2.752
  714TIP3    H1 2148   0.373   0.070   2.667
  714TIP3    H2 2149   0.350   0.053   2.816
  715TIP3   OH2 2150   0.335   3.899   1.503
  715TIP3    H1 2151   0.319   3.983   1.545
  715TIP3    H2 2152   0.429   3.885   1.514
  716TIP3   OH2 2153   1.911   4.291   0.298
  716TIP3    H1 2154   1.845   4.358   0.319
  716TIP3    H2 2155   1.925   4.245   0.380
  717TIP3   OH2 2156   1.738   5.699   4.742
  717TIP3    H1 2157   1.809   5.756   4.714
  717TIP3    H2 2158   1.766   5.611   4.717
  718TIP3   OH2 2159   3.037   3.736   3.136
  718TIP3    H1 2160   2.944   3.717   3.130
  718TIP3    H2 2161   3.041   3.829   3.160
  719TIP3   OH2 2162   0.916   3.394   4.650
  719TIP3    H1 2163   0.944   3.399   4.559
  719TIP3    H2 2164   0.865   3.473   4.664
  720TIP3   OH2 2165   0.850   0.815   3.190
  720TIP3    H1 2166   0.816   0.732   3.157
  720TIP3    H2 2167   0.898   0.852   3.116
  721TIP3   OH2 2168   2.810   1.976   1.633
  721TIP3    H1 2169   2.753   2.002   1.705
  721TIP3    H2 2170   2.873   1.915   1.671
  722TIP3   OH2 2171   4.613   3.373   2.830
  722TIP3    H1 2172   4.535   3.327   2.862
  722TIP3    H2 2173   4.686   3.316   2.853
  723TIP3   OH2 2174   6.245   4.973   3.827
  723TIP3    H1 2175   6.329   4.946   3.865
  723TIP3    H2 2176   6.182   4.959   3.898
  724TIP3   OH2 2177   3.022   1.888   0.408
  724TIP3    H1 2178   3.001   1.800   0.379
  724TIP3    H2 2179   3.012   1.886   0.503
  725TIP3   OH2 2180   3.133   4.328   0.426
  725TIP3    H1 2181   3.068   4.345   0.495
  725TIP3    H2 2182   3.214   4.366   0.460
  726TIP3   OH2 2183   2.890   4.480   4.590
  726TIP3    H1 2184   2.974   4.488   4.635
  726TIP3    H2 2185   2.853   4.397   4.622
  727TIP3   OH2 2186   1.366   3.477   4.154
  727TIP3    H1 2187   1.376   3.383   4.138
  727TIP3    H2 2188   1.274   3.488   4.177
  728TIP3   OH2 2189   2.304   5.709   2.664
  728TIP3    H1 2190   2.324   5.648   2.735
  728TIP3    H2 2191   2.220   5.679   2.630
  729TIP3   OH2 2192   1.405   1.669   0.822
  729TIP3    H1 2193   1.476   1.725   0.854
  729TIP3    H2 2194   1.410   1.677   0.726
  730TIP3   OH2 2195   6.338   5.630   1.804
  730TIP3    H1 2196   6.408   5.673   1.854
  730TIP3    H2 2197   6.261   5.638   1.860
  731TIP3   OH2 2198   1.657   2.269   1.072
  731TIP3    H1 2199   1.708   2.301   1.146
  731TIP3    H2 2200   1.700   2.187   1.048
  732TIP3   OH2 2201   5.489   2.148   2.077
  732TIP3    H1 2202   5.476   2.054   2.090
  732TIP3    H2 2203   5.414   2.175   2.024
  733TIP3   OH2 2204   5.747   5.254   2.113
  733TIP3    H1 2205   5.750   5.293   2.200
  733TIP3    H2 2206   5.732   5.328   2.054
  734TIP3   OH2 2207   1.367   1.154   4.110
  734TIP3    H1 2208   1.458   1.135   4.131
  734TIP3    H2 2209   1.353   1.114   4.024
  735TIP3   OH2 2210   4.195   2.348   4.754
  735TIP3    H1 2211   4.287   2.337   4.729
  735TIP3    H2 2212   4.179   2.442   4.745
  736TIP3   OH2 2213   6.077   0.171   3.293
  736TIP3    H1 2214   6.135   0.186   3.218
  736TIP3    H2 2215   6.102   0.238   3.357
  737TIP3   OH2 2216   0.899   0.653   3.419
  737TIP3    H1 2217   0.881   0.694   3.504
  737TIP3    H2 2218   0.870   0.718   3.355
  738TIP3   OH2 2219   4.471   4.703   0.623
  738TIP3    H1 2220   4.468   4.629   0.562
  738TIP3    H2 2221   4.551   4.688   0.674
  739TIP3   OH2 2222   0.577   2.900   1.104
  739TIP3    H1 2223   0.518   2.961   1.059
  739TIP3    H2 2224   0.659   2.907   1.056
  740TIP3   OH2 2225   2.810   4.873   4.353
  740TIP3    H1 2226   2.811   4.960   4.393
  740TIP3    H2 2227   2.836   4.887   4.263
  741TIP3   OH2 2228   2.524   4.088   2.895
  741TIP3    H1 2229   2.593   4.028   2.867
  741TIP3    H2 2230   2.504   4.062   2.985
  742TIP3   OH2 2231   3.976   1.953   4.862
  742TIP3    H1 2232   4.048   1.955   4.799
  742TIP3    H2 2233   4.017   1.975   4.946
  743TIP3   OH2 2234   6.058   0.978   2.077
  743TIP3    H1 2235   6.028   0.903   2.130
  743TIP3    H2 2236   6.152   0.981   2.092
  744TIP3   OH2 2237   3.844   5.128   1.205
  744TIP3    H1 2238   3.880   5.062   1.264
  744TIP3    H2 2239   3.794   5.078   1.141
  745TIP3   OH2 2240   0.871   0.681   1.446
  745TIP3    H1 2241   0.896   0.594   1.477
  745TIP3    H2 2242   0.776   0.684   1.457
  746TIP3   OH2 2243   6.086   5.113   1.392
  746TIP3    H1 2244   6.062   5.204   1.409
  746TIP3    H2 2245   6.135   5.086   1.470
  747TIP3   OH2 2246   4.383   5.706   3.138
  747TIP3    H1 2247   4.348   5.685   3.225
  747TIP3    H2 2248   4.460   5.761   3.157
  748TIP3   OH2 2249   2.341   1.669   2.401
  748TIP3    H1 2250   2.383   1.621   2.473
  748TIP3    H2 2251   2.265   1.617   2.378
  749TIP3   OH2 2252   0.205   5.504   0.093
  749TIP3    H1 2253   0.229   5.593   0.117
  749TIP3    H2 2254   0.109   5.504   0.095
  750TIP3   OH2 2255   2.710   5.869   3.279
  750TIP3    H1 2256   2.785   5.917   3.314
  750TIP3    H2 2257   2.747   5.791   3.239
  751TIP3   OH2 2258   5.786   4.068   5.165
  751TIP3    H1 2259   5.806   4.145   5.113
  751TIP3    H2 2260   5.785   3.995   5.102
  752TIP3   OH2 2261   5.663   5.264   4.369
  752TIP3    H1 2262   5.710   5.290   4.448
  752TIP3    H2 2263   5.588   5.323   4.364
  753TIP3   OH2 2264   3.364   2.607   1.777
  753TIP3    H1 2265   3.315   2.569   1.704
  753TIP3    H2 2266   3.364   2.539   1.844
  754TIP3   OH2 2267   4.138   5.020   4.939
  754TIP3    H1 2268   4.217   4.988   4.983
  754TIP3    H2 2269   4.076   5.038   5.010
  755TIP3   OH2 2270   0.071   2.011   1.195
  755TIP3    H1 2271   0.036   1.959   1.267
  755TIP3    H2 2272   0.165   2.016   1.213
  756TIP3   OH2 2273   2.287   4.510   3.447
  756TIP3    H1 2274   2.349   4.566   3.401
  756TIP3    H2 2275   2.312   4.516   3.539
  757TIP3   OH2 2276   1.417   4.540   2.519
  757TIP3    H1 2277   1.363   4.481   2.466
  757TIP3    H2 2278   1.507   4.518   2.495
  758TIP3   OH2 2279   1.482   4.472   0.839
  758TIP3    H1 2280   1.436   4.556   0.840
  758TIP3    H2 2281   1.528   4.469   0.923
  759TIP3   OH2 2282   5.274   5.194   0.558
  759TIP3    H1 2283   5.185   5.161   0.541
  759TIP3    H2 2284   5.306   5.140   0.631
  760TIP3   OH2 2285   6.329   0.658   0.304
  760TIP3    H1 2286   6.241   0.623   0.314
  760TIP3    H2 2287   6.368   0.649   0.391
  761TIP3   OH2 2288   5.970   1.935   3.452
  761TIP3    H1 2289   5.945   1.844   3.466
  761TIP3    H2 2290   6.052   1.931   3.403
  762TIP3   OH2 2291   6.114   1.280   5.084
  762TIP3    H1 2292   6.071   1.257   5.166
  762TIP3    H2 2293   6.043   1.307   5.026
  763TIP3   OH2 2294   6.232   5.508   4.053
  763TIP3    H1 2295   6.159   5.496   3.992
  763TIP3    H2 2296   6.199   5.568   4.119
  764TIP3   OH2 2297   5.120   1.097   4.602
  764TIP3    H1 2298   5.177   1.037   4.650
  764TIP3    H2 2299   5.032   1.060   4.612
  765TIP3   OH2 2300   5.470   0.496   3.251
  765TIP3    H1 2301   5.466   0.576   3.303
  765TIP3    H2 2302   5.402   0.507   3.185
  766TIP3   OH2 2303   4.565   1.983   3.291
  766TIP3    H1 2304   4.545   1.923   3.219
  766TIP3    H2 2305   4.618   1.931   3.351
  767TIP3   OH2 2306   3.867   1.700   3.967
  767TIP3    H1 2307   3.958   1.681   3.944
  767TIP3    H2 2308   3.831   1.739   3.888
  768TIP3   OH2 2309   3.653   5.197   4.353
  768TIP3    H1 2310   3.707   5.222   4.278
  768TIP3    H2 2311   3.690   5.114   4.384
  769TIP3   OH2 2312   2.082   3.599   2.374
  769TIP3    H1 2313   2.069   3.535   2.444
  769TIP3    H2 2314   2.055   3.553   2.295
  770TIP3   OH2 2315   2.146   2.312   1.470
  770TIP3    H1 2316   2.155   2.384   1.532
  770TIP3    H2 2317   2.133   2.356   1.385
  771TIP3   OH2 2318   1.029   3.040   4.432
  771TIP3    H1 2319   0.994   3.093   4.504
  771TIP3    H2 2320   1.007   3.090   4.353
  772TIP3   OH2 2321   3.231   1.780   2.943
  772TIP3    H1 2322   3.192   1.723   3.009
  772TIP3    H2 2323   3.325   1.762   2.949
  773TIP3   OH2 2324   2.052   4.107   1.390
  773TIP3    H1 2325   2.106   4.058   1.452
  773TIP3    H2 2326   2.009   4.174   1.443
  774TIP3   OH2 2327   2.939   3.591   4.464
  774TIP3    H1 2328   2.953   3.585   4.369
  774TIP3    H2 2329   3.028   3.592   4.500
  775TIP3   OH2 2330   0.114   2.230   1.024
  775TIP3    H1 2331   0.090   2.162   1.088
  775TIP3    H2 2332   0.171   2.289   1.073
  776TIP3   OH2 2333   1.302   5.813   0.436
  776TIP3    H1 2334   1.362   5.859   0.378
  776TIP3    H2 2335   1.316   5.853   0.522
  777TIP3   OH2 2336   5.940   1.455   2.041
  777TIP3    H1 2337   5.887   1.436   2.119
  777TIP3    H2 2338   5.948   1.551   2.041
  778TIP3   OH2 2339   4.621   3.935   1.651
  778TIP3    H1 2340   4.613   3.974   1.738
  778TIP3    H2 2341   4.531   3.933   1.617
  779TIP3   OH2 2342   1.109   5.882   0.112
  779TIP3    H1 2343   1.094   5.888   0.206
  779TIP3    H2 2344   1.153   5.964   0.089
  780TIP3   OH2 2345   4.797   3.292   0.965
  780TIP3    H1 2346   4.752   3.325   1.042
  780TIP3    H2 2347   4.827   3.204   0.989
  781TIP3   OH2 2348   2.288   3.478   3.244
  781TIP3    H1 2349   2.348   3.551   3.255
  781TIP3    H2 2350   2.316   3.414   3.310
  782TIP3   OH2 2351   2.364   1.706   1.395
  782TIP3    H1 2352   2.355   1.611   1.399
  782TIP3    H2 2353   2.429   1.726   1.463
  783TIP3   OH2 2354   2.858   3.811   3.406
  783TIP3    H1 2355   2.853   3.849   3.319
  783TIP3    H2 2356   2.949   3.823   3.433
  784TIP3   OH2 2357   1.665   3.538   2.681
  784TIP3    H1 2358   1.615   3.601   2.628
  784TIP3    H2 2359   1.668   3.459   2.627
  785TIP3   OH2 2360   0.728   2.184   3.897
  785TIP3    H1 2361   0.776   2.185   3.814
  785TIP3    H2 2362   0.789   2.220   3.961
  786TIP3   OH2 2363   4.816   3.558   4.240
  786TIP3    H1 2364   4.866   3.621   4.189
  786TIP3    H2 2365   4.746   3.529   4.182
  787TIP3   OH2 2366   0.154   0.684   2.122
  787TIP3    H1 2367   0.145   0.707   2.214
  787TIP3    H2 2368   0.173   0.766   2.077
  788TIP3   OH2 2369   3.932   1.369   0.819
  788TIP3    H1 2370   3.982   1.435   0.771
  788TIP3    H2 2371   3.992   1.340   0.888
  789TIP3   OH2 2372   3.436   1.356   2.968
  789TIP3    H1 2373   3.451   1.407   3.048
  789TIP3    H2 2374   3.470   1.269   2.988
  790TIP3   OH2 2375   0.129   2.799   2.930
  790TIP3    H1 2376   0.049   2.834   2.968
  790TIP3    H2 2377   0.108   2.788   2.837
  791TIP3   OH2 2378   1.160   1.878   1.869
  791TIP3    H1 2379   1.204   1.962   1.884
  791TIP3    H2 2380   1.171   1.862   1.775
  792TIP3   OH2 2381   3.282   1.970   0.306
  792TIP3    H1 2382   3.330   1.887   0.295
  792TIP3    H2 2383   3.203   1.946   0.354
  793TIP3   OH2 2384   2.767   3.731   1.019
  793TIP3    H1 2385   2.692   3.782   1.049
  793TIP3    H2 2386   2.729   3.667   0.958
  794TIP3   OH2 2387   3.191   5.709   4.990
  794TIP3    H1 2388   3.191   5.798   4.956
  794TIP3    H2 2389   3.244   5.660   4.928
  795TIP3   OH2 2390   4.922   5.166   4.554
  795TIP3    H1 2391   4.908   5.231   4.623
  795TIP3    H2 2392   4.932   5.083   4.601
  796TIP3   OH2 2393   1.750   5.653   3.987
  796TIP3    H1 2394   1.691   5.599   4.040
  796TIP3    H2 2395   1.693   5.697   3.924
  797TIP3   OH2 2396   5.581   4.070   4.133
  797TIP3    H1 2397   5.665   4.095   4.170
  797TIP3    H2 2398   5.551   3.997   4.187
  798TIP3   OH2 2399   3.454   2.756   0.459
  798TIP3    H1 2400   3.492   2.838   0.428
  798TIP3    H2 2401   3.366   2.754   0.422
  799TIP3   OH2 2402   0.425   2.703   4.627
  799TIP3    H1 2403   0.403   2.794   4.607
  799TIP3    H2 2404   0.517   2.695   4.603
  800TIP3   OH2 2405   4.439   0.326   1.276
  800TIP3    H1 2406   4.522   0.337   1.323
  800TIP3    H2 2407   4.372   0.352   1.339
  801TIP3   OH2 2408   2.115   3.208   2.001
  801TIP3    H1 2409   2.064   3.130   2.021
  801TIP3    H2 2410   2.109   3.261   2.080
  802TIP3   OH2 2411   6.269   3.762   1.086
  802TIP3    H1 2412   6.215   3.760   1.006
  802TIP3    H2 2413   6.330   3.834   1.071
  803TIP3   OH2 2414   0.755   5.231   4.955
  803TIP3    H1 2415   0.699   5.273   4.890
  803TIP3    H2 2416   0.734   5.138   4.949
  804TIP3   OH2 2417   3.366   1.123   1.313
  804TIP3    H1 2418   3.274   1.103   1.328
  804TIP3    H2 2419   3.413   1.066   1.374
  805TIP3   OH2 2420   2.234   0.588   1.475
  805TIP3    H1 2421   2.221   0.681   1.455
  805TIP3    H2 2422   2.184   0.575   1.556
  806TIP3   OH2 2423   6.100   1.354   1.528
  806TIP3    H1 2424   6.068   1.405   1.603
  806TIP3    H2 2425   6.178   1.401   1.499
  807TIP3   OH2 2426   6.184   4.014   0.500
  807TIP3    H1 2427   6.225   3.948   0.444
  807TIP3    H2 2428   6.180   4.093   0.446
  808TIP3   OH2 2429   6.117   3.666   2.425
  808TIP3    H1 2430   6.108   3.604   2.498
  808TIP3    H2 2431   6.035   3.659   2.377
  809TIP3   OH2 2432   3.878   4.779   3.760
  809TIP3    H1 2433   3.939   4.707   3.775
  809TIP3    H2 2434   3.844   4.800   3.847
  810TIP3   OH2 2435   0.132   1.273   3.619
  810TIP3    H1 2436   0.178   1.280   3.535
  810TIP3    H2 2437   0.148   1.357   3.662
  811TIP3   OH2 2438   0.391   0.294   2.165
  811TIP3    H1 2439   0.306   0.250   2.156
  811TIP3    H2 2440   0.402   0.343   2.084
  812TIP3   OH2 2441   5.215   1.107   1.830
  812TIP3    H1 2442   5.271   1.185   1.825
  812TIP3    H2 2443   5.127   1.140   1.812
  813TIP3   OH2 2444   1.119   0.043   3.432
  813TIP3    H1 2445   1.212   0.037   3.411
  813TIP3    H2 2446   1.104   0.137   3.444
  814TIP3   OH2 2447   0.590   4.172   4.533
  814TIP3    H1 2448   0.522   4.124   4.485
  814TIP3    H2 2449   0.649   4.204   4.464
  815TIP3   OH2 2450   0.769   3.320   2.835
  815TIP3    H1 2451   0.842   3.272   2.874
  815TIP3    H2 2452   0.802   3.409   2.823
  816TIP3   OH2 2453   5.838   0.747   4.972
  816TIP3    H1 2454   5.835   0.837   5.005
  816TIP3    H2 2455   5.848   0.694   5.051
  817TIP3   OH2 2456   1.172   5.530   5.065
  817TIP3    H1 2457   1.104   5.482   5.017
  817TIP3    H2 2458   1.125   5.568   5.140
  818TIP3   OH2 2459   4.484   5.383   0.395
  818TIP3    H1 2460   4.461   5.473   0.421
  818TIP3    H2 2461   4.568   5.366   0.439
  819TIP3   OH2 2462   4.521   0.401   2.257
  819TIP3    H1 2463   4.607   0.437   2.279
  819TIP3    H2 2464   4.514   0.322   2.311
  820TIP3   OH2 2465   6.059   3.074   2.732
  820TIP3    H1 2466   6.056   2.999   2.673
  820TIP3    H2 2467   6.142   3.118   2.711
  821TIP3   OH2 2468   1.999   0.894   4.283
  821TIP3    H1 2469   2.053   0.912   4.205
  821TIP3    H2 2470   2.061   0.859   4.347
  822TIP3   OH2 2471   1.770   4.378   2.060
  822TIP3    H1 2472   1.835   4.368   2.129
  822TIP3    H2 2473   1.761   4.290   2.023
  823TIP3   OH2 2474   6.166   2.514   3.498
  823TIP3    H1 2475   6.235   2.571   3.464
  823TIP3    H2 2476   6.213   2.439   3.534
  824TIP3   OH2 2477   6.212   5.666   4.329
  824TIP3    H1 2478   6.306   5.668   4.309
  824TIP3    H2 2479   6.208   5.666   4.425
  825TIP3   OH2 2480   1.706   5.144   0.217
  825TIP3    H1 2481   1.618   5.117   0.188
  825TIP3    H2 2482   1.733   5.209   0.152
  826TIP3   OH2 2483   5.108   2.043   4.747
  826TIP3    H1 2484   5.102   1.950   4.725
  826TIP3    H2 2485   5.057   2.052   4.828
  827TIP3   OH2 2486   2.348   0.724   2.728
  827TIP3    H1 2487   2.399   0.804   2.742
  827TIP3    H2 2488   2.258   0.750   2.746
  828TIP3   OH2 2489   2.900   3.796   4.662
  828TIP3    H1 2490   2.953   3.765   4.735
  828TIP3    H2 2491   2.908   3.727   4.596
  829TIP3   OH2 2492   4.917   4.778   0.255
  829TIP3    H1 2493   4.834   4.751   0.295
  829TIP3    H2 2494   4.893   4.811   0.169
  830TIP3   OH2 2495   3.865   4.571   1.346
  830TIP3    H1 2496   3.851   4.478   1.365
  830TIP3    H2 2497   3.953   4.575   1.309
  831TIP3   OH2 2498   3.192   0.292   0.632
  831TIP3    H1 2499   3.240   0.348   0.693
  831TIP3    H2 2500   3.258   0.261   0.570
  832TIP3   OH2 2501   0.512   2.340   4.607
  832TIP3    H1 2502   0.532   2.393   4.529
  832TIP3    H2 2503   0.554   2.256   4.590
  833TIP3   OH2 2504   3.440   5.192   1.053
  833TIP3    H1 2505   3.468   5.279   1.083
  833TIP3    H2 2506   3.388   5.210   0.975
  834TIP3   OH2 2507   1.858   1.885   0.479
  834TIP3    H1 2508   1.947   1.915   0.500
  834TIP3    H2 2509   1.871   1.804   0.430
  835TIP3   OH2 2510   3.143   1.063   0.799
  835TIP3    H1 2511   3.105   1.031   0.881
  835TIP3    H2 2512   3.189   0.987   0.763
  836TIP3   OH2 2513   0.778   0.640   0.846
  836TIP3    H1 2514   0.786   0.689   0.928
  836TIP3    H2 2515   0.833   0.563   0.858
  837TIP3   OH2 2516   5.042   0.381   0.219
  837TIP3    H1 2517   5.032   0.462   0.269
  837TIP3    H2 2518   4.995   0.315   0.271
  838TIP3   OH2 2519   5.010   5.962   3.638
  838TIP3    H1 2520   5.084   5.902   3.653
  838TIP3    H2 2521   4.958   5.957   3.718
  839TIP3   OH2 2522   2.453   5.801   3.470
  839TIP3    H1 2523   2.485   5.791   3.381
  839TIP3    H2 2524   2.480   5.720   3.514
  840TIP3   OH2 2525   0.669   3.844   3.980
  840TIP3    H1 2526   0.624   3.760   3.993
  840TIP3    H2 2527   0.603   3.901   3.940
  841TIP3   OH2 2528   1.501   0.251   4.398
  841TIP3    H1 2529   1.461   0.241   4.312
  841TIP3    H2 2530   1.582   0.300   4.382
  842TIP3   OH2 2531   3.237   0.542   2.028
  842TIP3    H1 2532   3.270   0.468   1.977
  842TIP3    H2 2533   3.306   0.560   2.092
  843TIP3   OH2 2534   0.936   1.715   1.537
  843TIP3    H1 2535   0.891   1.774   1.476
  843TIP3    H2 2536   0.886   1.634   1.533
  844TIP3   OH2 2537   5.319   2.192   4.660
  844TIP3    H1 2538   5.359   2.182   4.746
  844TIP3    H2 2539   5.243   2.134   4.662
  845TIP3   OH2 2540   6.131   1.086   0.331
  845TIP3    H1 2541   6.223   1.060   0.338
  845TIP3    H2 2542   6.134   1.174   0.294
  846TIP3   OH2 2543   6.199   2.293   5.086
  846TIP3    H1 2544   6.220   2.201   5.100
  846TIP3    H2 2545   6.280   2.331   5.050
  847TIP3   OH2 2546   5.405   2.505   4.023
  847TIP3    H1 2547   5.345   2.445   4.067
  847TIP3    H2 2548   5.444   2.556   4.094
  848TIP3   OH2 2549   0.760   1.082   0.959
  848TIP3    H1 2550   0.820   1.135   1.011
  848TIP3    H2 2551   0.733   1.139   0.888
  849TIP3   OH2 2552   0.781   4.696   3.504
  849TIP3    H1 2553   0.781   4.740   3.589
  849TIP3    H2 2554   0.845   4.626   3.513
  850TIP3   OH2 2555   0.459   4.788   1.265
  850TIP3    H1 2556   0.538   4.740   1.292
  850TIP3    H2 2557   0.395   4.720   1.246
  851TIP3   OH2 2558   1.559   3.420   1.707
  851TIP3    H1 2559   1.579   3.341   1.757
  851TIP3    H2 2560   1.482   3.458   1.750
  852TIP3   OH2 2561   5.393   0.002   4.044
  852TIP3    H1 2562   5.366  -0.033   4.129
  852TIP3    H2 2563   5.346   0.086   4.036
  853TIP3   OH2 2564   0.852   2.483   0.120
  853TIP3    H1 2565   0.831   2.390   0.111
  853TIP3    H2 2566   0.945   2.484   0.143
  854TIP3   OH2 2567   3.145   3.446   1.848
  854TIP3    H1 2568   3.093   3.480   1.775
  854TIP3    H2 2569   3.113   3.356   1.860
  855TIP3   OH2 2570   2.107   4.536   2.621
  855TIP3    H1 2571   2.126   4.616   2.571
  855TIP3    H2 2572   2.151   4.550   2.705
  856TIP3   OH2 2573   3.499   0.985   1.524
  856TIP3    H1 2574   3.474   1.037   1.600
  856TIP3    H2 2575   3.593   0.969   1.537
  857TIP3   OH2 2576   2.981   2.788   3.525
  857TIP3    H1 2577   3.029   2.867   3.551
  857TIP3    H2 2578   3.042   2.740   3.469
  858TIP3   OH2 2579   2.683   5.957   2.161
  858TIP3    H1 2580   2.738   5.975   2.237
  858TIP3    H2 2581   2.732   5.891   2.111
  859TIP3   OH2 2582   3.929   3.989   3.395
  859TIP3    H1 2583   3.955   3.897   3.401
  859TIP3    H2 2584   3.991   4.028   3.333
  860TIP3   OH2 2585   4.366   2.570   4.608
  860TIP3    H1 2586   4.280   2.609   4.623
  860TIP3    H2 2587   4.380   2.576   4.514
  861TIP3   OH2 2588   3.939   0.625   0.724
  861TIP3    H1 2589   3.916   0.665   0.807
  861TIP3    H2 2590   3.954   0.533   0.745
  862TIP3   OH2 2591   5.073   5.070   4.904
  862TIP3    H1 2592   5.148   5.014   4.886
  862TIP3    H2 2593   5.044   5.101   4.818
  863TIP3   OH2 2594   1.312   3.120   0.274
  863TIP3    H1 2595   1.235   3.155   0.230
  863TIP3    H2 2596   1.385   3.139   0.214
  864TIP3   OH2 2597   3.110   2.040   0.854
  864TIP3    H1 2598   3.073   1.959   0.821
  864TIP3    H2 2599   3.198   2.045   0.815
  865TIP3   OH2 2600   5.979   0.377   2.687
  865TIP3    H1 2601   5.998   0.289   2.655
  865TIP3    H2 2602   5.896   0.400   2.645
  866TIP3   OH2 2603   5.651   4.375   3.034
  866TIP3    H1 2604   5.583   4.417   2.982
  866TIP3    H2 2605   5.603   4.325   3.100
  867TIP3   OH2 2606   1.028   1.722   3.293
  867TIP3    H1 2607   1.121   1.743   3.280
  867TIP3    H2 2608   0.995   1.705   3.205
  868TIP3   OH2 2609   3.427   2.805   4.751
  868TIP3    H1 2610   3.419   2.712   4.774
  868TIP3    H2 2611   3.521   2.818   4.738
  869TIP3   OH2 2612   0.647   1.347   1.484
  869TIP3    H1 2613   0.560   1.312   1.463
  869TIP3    H2 2614   0.648   1.434   1.445
  870TIP3   OH2 2615   2.990   4.734   3.687
  870TIP3    H1 2616   3.018   4.821   3.715
  870TIP3    H2 2617   2.902   4.724   3.723
  871TIP3   OH2 2618   5.100   5.188   4.349
  871TIP3    H1 2619   5.035   5.206   4.417
  871TIP3    H2 2620   5.183   5.218   4.386
  872TIP3   OH2 2621   2.663   1.834   0.660
  872TIP3    H1 2622   2.581   1.813   0.706
  872TIP3    H2 2623   2.640   1.906   0.601
  873TIP3   OH2 2624   5.334   2.685   3.448
  873TIP3    H1 2625   5.291   2.659   3.367
  873TIP3    H2 2626   5.426   2.660   3.436
  874TIP3   OH2 2627   3.568   1.329   1.482
  874TIP3    H1 2628   3.652   1.286   1.492
  874TIP3    H2 2629   3.557   1.337   1.387
  875TIP3   OH2 2630   1.182   4.764   0.591
  875TIP3    H1 2631   1.210   4.736   0.504
  875TIP3    H2 2632   1.264   4.775   0.640
  876TIP3   OH2 2633   4.833   2.659   1.586
  876TIP3    H1 2634   4.798   2.708   1.512
  876TIP3    H2 2635   4.760   2.656   1.649
  877TIP3   OH2 2636   6.169   4.596   2.340
  877TIP3    H1 2637   6.193   4.623   2.251
  877TIP3    H2 2638   6.105   4.662   2.368
  878TIP3   OH2 2639   5.149   0.561   0.598
  878TIP3    H1 2640   5.095   0.601   0.530
  878TIP3    H2 2641   5.216   0.513   0.549
  879TIP3   OH2 2642   3.800   1.544   3.082
  879TIP3    H1 2643   3.875   1.563   3.025
  879TIP3    H2 2644   3.838   1.498   3.157
  880TIP3   OH2 2645   4.760   2.045   3.602
  880TIP3    H1 2646   4.839   2.098   3.592
  880TIP3    H2 2647   4.722   2.074   3.685
  881TIP3   OH2 2648   0.639   1.619   1.409
  881TIP3    H1 2649   0.590   1.701   1.413
  881TIP3    H2 2650   0.659   1.608   1.316
  882TIP3   OH2 2651   5.096   5.947   3.089
  882TIP3    H1 2652   5.094   5.880   3.020
  882TIP3    H2 2653   5.012   5.993   3.079
  883TIP3   OH2 2654   3.085   1.384   0.641
  883TIP3    H1 2655   3.092   1.358   0.549
  883TIP3    H2 2656   3.075   1.302   0.689
  884TIP3   OH2 2657   1.920   0.041   0.038
  884TIP3    H1 2658   1.969   0.060   0.118
  884TIP3    H2 2659   1.921   0.123  -0.011
  885TIP3   OH2 2660   4.181   0.786   5.128
  885TIP3    H1 2661   4.109   0.848   5.114
  885TIP3    H2 2662   4.189   0.740   5.044
  886TIP3   OH2 2663   2.096   0.332   0.862
  886TIP3    H1 2664   2.086   0.281   0.943
  886TIP3    H2 2665   2.169   0.291   0.816
  887TIP3   OH2 2666   5.180   1.760   2.226
  887TIP3    H1 2667   5.136   1.814   2.160
  887TIP3    H2 2668   5.140   1.674   2.217
  888TIP3   OH2 2669   2.087   3.605  -0.002
  888TIP3    H1 2670   2.175   3.570   0.011
  888TIP3    H2 2671   2.042   3.588   0.081
  889TIP3   OH2 2672   2.418   0.969   1.714
  889TIP3    H1 2673   2.427   0.916   1.793
  889TIP3    H2 2674   2.328   0.954   1.685
  890TIP3   OH2 2675   6.238   3.869   1.991
  890TIP3    H1 2676   6.249   3.846   2.084
  890TIP3    H2 2677   6.238   3.784   1.946
  891TIP3   OH2 2678   2.937   0.906   3.999
  891TIP3    H1 2679   3.020   0.932   3.959
  891TIP3    H2 2680   2.954   0.906   4.093
  892TIP3   OH2 2681   3.261   0.206   4.913
  892TIP3    H1 2682   3.286   0.137   4.975
  892TIP3    H2 2683   3.234   0.279   4.968
  893TIP3   OH2 2684   1.187   2.043   2.862
  893TIP3    H1 2685   1.192   2.128   2.817
  893TIP3    H2 2686   1.236   2.057   2.943
  894TIP3   OH2 2687   2.046   5.272   1.939
  894TIP3    H1 2688   1.988   5.344   1.915
  894TIP3    H2 2689   2.107   5.265   1.865
  895TIP3   OH2 2690   0.561   4.785   4.611
  895TIP3    H1 2691   0.646   4.751   4.641
  895TIP3    H2 2692   0.539   4.730   4.536
  896TIP3   OH2 2693   1.643   3.718   1.642
  896TIP3    H1 2694   1.679   3.629   1.639
  896TIP3    H2 2695   1.553   3.708   1.610
  897TIP3   OH2 2696   3.199   0.389   2.576
  897TIP3    H1 2697   3.256   0.465   2.571
  897TIP3    H2 2698   3.211   0.345   2.491
  898TIP3   OH2 2699   0.100   5.904   3.737
  898TIP3    H1 2700   0.020   5.903   3.684
  898TIP3    H2 2701   0.145   5.984   3.711
  899TIP3   OH2 2702   1.195   3.241   1.964
  899TIP3    H1 2703   1.108   3.233   2.003
  899TIP3    H2 2704   1.179   3.260   1.872
  900TIP3   OH2 2705   1.351   3.312   0.966
  900TIP3    H1 2706   1.322   3.305   0.875
  900TIP3    H2 2707   1.408   3.389   0.968
  901TIP3   OH2 2708   1.118   2.088   4.734
  901TIP3    H1 2709   1.096   2.171   4.692
  901TIP3    H2 2710   1.182   2.111   4.802
  902TIP3   OH2 2711   0.698   1.222   2.921
  902TIP3    H1 2712   0.636   1.241   2.851
  902TIP3    H2 2713   0.682   1.130   2.943
  903TIP3   OH2 2714   3.733   3.603   3.743
  903TIP3    H1 2715   3.730   3.696   3.721
  903TIP3    H2 2716   3.823   3.577   3.725
  904TIP3   OH2 2717   3.107   3.096   4.167
  904TIP3    H1 2718   3.176   3.041   4.203
  904TIP3    H2 2719   3.149   3.180   4.149
  905TIP3   OH2 2720   5.400   0.919   1.996
  905TIP3    H1 2721   5.311   0.941   2.022
  905TIP3    H2 2722   5.420   0.980   1.925
  906TIP3   OH2 2723   3.375   3.567   1.876
  906TIP3    H1 2724   3.432   3.529   1.810
  906TIP3    H2 2725   3.297   3.511   1.876
  907TIP3   OH2 2726   2.406   1.048   4.601
  907TIP3    H1 2727   2.369   1.058   4.513
  907TIP3    H2 2728   2.499   1.068   4.590
  908TIP3   OH2 2729   3.024   5.491   3.132
  908TIP3    H1 2730   3.079   5.425   3.173
  908TIP3    H2 2731   3.064   5.505   3.046
  909TIP3   OH2 2732   0.899   3.910   0.454
  909TIP3    H1 2733   0.917   3.933   0.363
  909TIP3    H2 2734   0.825   3.848   0.449
  910TIP3   OH2 2735   1.671   3.700   0.068
  910TIP3    H1 2736   1.609   3.733   0.133
  910TIP3    H2 2737   1.734   3.771   0.057
  911TIP3   OH2 2738   4.472   5.793   4.467
  911TIP3    H1 2739   4.529   5.794   4.544
  911TIP3    H2 2740   4.531   5.786   4.393
  912TIP3   OH2 2741   2.824   2.551   1.696
  912TIP3    H1 2742   2.900   2.503   1.728
  912TIP3    H2 2743   2.752   2.523   1.753
  913TIP3   OH2 2744   0.803   4.485   2.363
  913TIP3    H1 2745   0.747   4.425   2.315
  913TIP3    H2 2746   0.763   4.571   2.351
  914TIP3   OH2 2747   3.878   4.543   2.716
  914TIP3    H1 2748   3.886   4.539   2.620
  914TIP3    H2 2749   3.795   4.587   2.731
  915TIP3   OH2 2750   0.902   4.861   1.273
  915TIP3    H1 2751   0.957   4.873   1.196
  915TIP3    H2 2752   0.858   4.778   1.259
  916TIP3   OH2 2753   5.561   5.108   3.330
  916TIP3    H1 2754   5.578   5.070   3.244
  916TIP3    H2 2755   5.602   5.047   3.392
  917TIP3   OH2 2756   2.659   5.102   1.662
  917TIP3    H1 2757   2.657   5.123   1.569
  917TIP3    H2 2758   2.748   5.070   1.678
  918TIP3   OH2 2759   5.132   0.783   0.138
  918TIP3    H1 2760   5.202   0.848   0.134
  918TIP3    H2 2761   5.107   0.780   0.230
  919TIP3   OH2 2762   1.413   0.366   0.723
  919TIP3    H1 2763   1.342   0.424   0.752
  919TIP3    H2 2764   1.409   0.371   0.627
  920TIP3   OH2 2765   1.827   3.648   2.921
  920TIP3    H1 2766   1.906   3.595   2.910
  920TIP3    H2 2767   1.764   3.609   2.860
  921TIP3   OH2 2768   4.750   4.055   1.435
  921TIP3    H1 2769   4.835   4.016   1.413
  921TIP3    H2 2770   4.730   4.020   1.522
  922TIP3   OH2 2771   2.772   2.663   3.146
  922TIP3    H1 2772   2.687   2.632   3.114
  922TIP3    H2 2773   2.751   2.735   3.205
  923TIP3   OH2 2774   5.172   2.885   3.503
  923TIP3    H1 2775   5.222   2.807   3.481
  923TIP3    H2 2776   5.223   2.957   3.465
  924TIP3   OH2 2777   4.055   2.870   1.789
  924TIP3    H1 2778   4.017   2.947   1.747
  924TIP3    H2 2779   4.134   2.903   1.833
  925TIP3   OH2 2780   5.178   2.091   0.980
  925TIP3    H1 2781   5.252   2.152   0.977
  925TIP3    H2 2782   5.119   2.121   0.911
  926TIP3   OH2 2783   0.042   2.866   0.486
  926TIP3    H1 2784   0.035   2.776   0.455
  926TIP3    H2 2785   0.121   2.900   0.444
  927TIP3   OH2 2786   4.378   0.136   1.499
  927TIP3    H1 2787   4.343   0.053   1.530
  927TIP3    H2 2788   4.342   0.146   1.411
  928TIP3   OH2 2789   4.951   4.135   2.059
  928TIP3    H1 2790   4.954   4.143   2.154
  928TIP3    H2 2791   5.023   4.075   2.037
  929TIP3   OH2 2792   0.319   5.525   4.588
  929TIP3    H1 2793   0.338   5.465   4.661
  929TIP3    H2 2794   0.278   5.601   4.630
  930TIP3   OH2 2795   5.609   2.441   3.019
  930TIP3    H1 2796   5.567   2.520   2.985
  930TIP3    H2 2797   5.599   2.376   2.950
  931TIP3   OH2 2798   1.342   1.556   3.069
  931TIP3    H1 2799   1.302   1.642   3.053
  931TIP3    H2 2800   1.383   1.564   3.155
  932TIP3   OH2 2801   1.809   2.647   1.576
  932TIP3    H1 2802   1.838   2.556   1.579
  932TIP3    H2 2803   1.776   2.665   1.664
  933TIP3   OH2 2804   2.878   0.120   2.138
  933TIP3    H1 2805   2.803   0.100   2.193
  933TIP3    H2 2806   2.847   0.188   2.079
  934TIP3   OH2 2807   4.397   0.717   3.217
  934TIP3    H1 2808   4.382   0.737   3.309
  934TIP3    H2 2809   4.467   0.651   3.217
  935TIP3   OH2 2810   1.502   5.721   0.778
  935TIP3    H1 2811   1.579   5.768   0.746
  935TIP3    H2 2812   1.491   5.648   0.717
  936TIP3   OH2 2813   4.638   2.178   1.506
  936TIP3    H1 2814   4.563   2.134   1.464
  936TIP3    H2 2815   4.619   2.174   1.599
  937TIP3   OH2 2816   4.592   4.935   3.358
  937TIP3    H1 2817   4.679   4.897   3.343
  937TIP3    H2 2818   4.539   4.862   3.391
  938TIP3   OH2 2819   2.111   1.832   1.421
  938TIP3    H1 2820   2.098   1.771   1.348
  938TIP3    H2 2821   2.201   1.817   1.449
  939TIP3   OH2 2822   6.039   3.801   4.121
  939TIP3    H1 2823   5.944   3.807   4.111
  939TIP3    H2 2824   6.070   3.892   4.112
  940TIP3   OH2 2825   3.247   1.203   5.013
  940TIP3    H1 2826   3.161   1.160   5.005
  940TIP3    H2 2827   3.303   1.136   5.052
  941TIP3   OH2 2828   4.382   2.718   3.452
  941TIP3    H1 2829   4.440   2.643   3.466
  941TIP3    H2 2830   4.347   2.705   3.364
  942TIP3   OH2 2831   5.829   0.366   3.353
  942TIP3    H1 2832   5.782   0.389   3.273
  942TIP3    H2 2833   5.827   0.446   3.406
  943TIP3   OH2 2834   4.348   3.508   0.901
  943TIP3    H1 2835   4.312   3.498   0.989
  943TIP3    H2 2836   4.272   3.530   0.846
  944TIP3   OH2 2837   3.695   4.983   0.133
  944TIP3    H1 2838   3.653   5.032   0.061
  944TIP3    H2 2839   3.647   4.900   0.136
  945TIP3   OH2 2840   4.176   4.685   4.273
  945TIP3    H1 2841   4.150   4.770   4.309
  945TIP3    H2 2842   4.227   4.644   4.343
  946TIP3   OH2 2843   1.071   1.070   4.741
  946TIP3    H1 2844   1.004   1.020   4.788
  946TIP3    H2 2845   1.056   1.161   4.768
  947TIP3   OH2 2846   6.305   0.531   2.778
  947TIP3    H1 2847   6.299   0.473   2.702
  947TIP3    H2 2848   6.366   0.600   2.750
  948TIP3   OH2 2849   0.824   4.295   3.679
  948TIP3    H1 2850   0.793   4.237   3.748
  948TIP3    H2 2851   0.808   4.383   3.712
  949TIP3   OH2 2852   1.562   2.991   1.392
  949TIP3    H1 2853   1.523   2.930   1.455
  949TIP3    H2 2854   1.572   3.073   1.440
  950TIP3   OH2 2855   5.269   5.352   3.050
  950TIP3    H1 2856   5.200   5.355   2.984
  950TIP3    H2 2857   5.233   5.400   3.124
  951TIP3   OH2 2858   1.259   5.588   3.647
  951TIP3    H1 2859   1.174   5.628   3.630
  951TIP3    H2 2860   1.239   5.499   3.677
  952TIP3   OH2 2861   5.193   0.213   0.063
  952TIP3    H1 2862   5.174   0.290   0.117
  952TIP3    H2 2863   5.286   0.220   0.042
  953TIP3   OH2 2864   3.046   4.194   1.970
  953TIP3    H1 2865   2.961   4.149   1.973
  953TIP3    H2 2866   3.084   4.167   1.886
  954TIP3   OH2 2867   0.256   1.822   1.989
  954TIP3    H1 2868   0.348   1.800   1.980
  954TIP3    H2 2869   0.254   1.889   2.058
  955TIP3   OH2 2870   2.901   2.471   3.586
  955TIP3    H1 2871   2.927   2.385   3.618
  955TIP3    H2 2872   2.915   2.467   3.492
  956TIP3   OH2 2873   2.048   0.460   1.296
  956TIP3    H1 2874   2.118   0.518   1.325
  956TIP3    H2 2875   1.979   0.518   1.267
  957TIP3   OH2 2876   4.810   3.245   3.497
  957TIP3    H1 2877   4.849   3.233   3.584
  957TIP3    H2 2878   4.800   3.340   3.489
  958TIP3   OH2 2879   5.905   5.173   2.915
  958TIP3    H1 2880   5.976   5.159   2.852
  958TIP3    H2 2881   5.947   5.170   3.001
  959TIP3   OH2 2882   0.171   4.394   0.739
  959TIP3    H1 2883   0.134   4.482   0.752
  959TIP3    H2 2884   0.262   4.402   0.767
  960TIP3   OH2 2885   0.568   3.268   0.980
  960TIP3    H1 2886   0.504   3.204   1.011
  960TIP3    H2 2887   0.618   3.221   0.913
  961TIP3   OH2 2888   3.570   5.293   0.167
  961TIP3    H1 2889   3.551   5.307   0.260
  961TIP3    H2 2890   3.488   5.259   0.131
  962TIP3   OH2 2891   0.887   3.446   2.139
  962TIP3    H1 2892   0.921   3.533   2.117
  962TIP3    H2 2893   0.794   3.450   2.114
  963TIP3   OH2 2894   6.020   1.791   4.116
  963TIP3    H1 2895   6.101   1.814   4.070
  963TIP3    H2 2896   5.973   1.875   4.125
  964TIP3   OH2 2897   4.024   4.232   1.283
  964TIP3    H1 2898   3.951   4.292   1.297
  964TIP3    H2 2899   3.991   4.171   1.216
  965TIP3   OH2 2900   5.299   4.967   3.723
  965TIP3    H1 2901   5.305   4.897   3.788
  965TIP3    H2 2902   5.260   5.040   3.771
  966TIP3   OH2 2903   5.827   5.865   4.926
  966TIP3    H1 2904   5.764   5.840   4.993
  966TIP3    H2 2905   5.912   5.862   4.970
  967TIP3   OH2 2906   4.720   3.211   3.137
  967TIP3    H1 2907   4.804   3.233   3.176
  967TIP3    H2 2908   4.664   3.285   3.158
  968TIP3   OH2 2909   4.539   3.006   3.041
  968TIP3    H1 2910   4.593   3.084   3.055
  968TIP3    H2 2911   4.583   2.937   3.091
  969TIP3   OH2 2912   3.007   2.305   3.028
  969TIP3    H1 2913   3.049   2.222   3.050
  969TIP3    H2 2914   2.924   2.280   2.988
  970TIP3   OH2 2915   3.266   0.777   4.208
  970TIP3    H1 2916   3.244   0.690   4.176
  970TIP3    H2 2917   3.343   0.802   4.158
  971TIP3   OH2 2918   3.996   5.211   0.318
  971TIP3    H1 2919   4.053   5.157   0.263
  971TIP3    H2 2920   4.057   5.266   0.368
  972TIP3   OH2 2921   4.711   4.754   1.722
  972TIP3    H1 2922   4.663   4.717   1.648
  972TIP3    H2 2923   4.792   4.788   1.683
  973TIP3   OH2 2924   5.054   2.678   4.270
  973TIP3    H1 2925   5.055   2.627   4.188
  973TIP3    H2 2926   4.989   2.746   4.255
  974TIP3   OH2 2927   2.302   5.382   2.575
  974TIP3    H1 2928   2.311   5.330   2.495
  974TIP3    H2 2929   2.221   5.432   2.561
  975TIP3   OH2 2930   2.550   0.093   2.056
  975TIP3    H1 2931   2.636   0.070   2.021
  975TIP3    H2 2932   2.509   0.008   2.076
  976TIP3   OH2 2933   2.783   4.994   4.954
  976TIP3    H1 2934   2.754   5.058   5.020
  976TIP3    H2 2935   2.706   4.940   4.937
  977TIP3   OH2 2936   2.491   4.056   2.126
  977TIP3    H1 2937   2.526   4.091   2.208
  977TIP3    H2 2938   2.510   3.962   2.131
  978TIP3   OH2 2939   5.580   4.038   4.600
  978TIP3    H1 2940   5.527   4.085   4.535
  978TIP3    H2 2941   5.661   4.088   4.606
  979TIP3   OH2 2942   1.471   3.321   1.270
  979TIP3    H1 2943   1.494   3.408   1.238
  979TIP3    H2 2944   1.554   3.285   1.301
  980TIP3   OH2 2945   5.052   3.252   4.205
  980TIP3    H1 2946   5.125   3.196   4.232
  980TIP3    H2 2947   5.016   3.285   4.287
  981TIP3   OH2 2948   1.524   5.917   0.286
  981TIP3    H1 2949   1.618   5.935   0.286
  981TIP3    H2 2950   1.500   5.914   0.193
  982TIP3   OH2 2951   3.145   4.324   3.419
  982TIP3    H1 2952   3.070   4.370   3.381
  982TIP3    H2 2953   3.220   4.380   3.402
  983TIP3   OH2 2954   1.766   4.534   0.333
  983TIP3    H1 2955   1.857   4.543   0.363
  983TIP3    H2 2956   1.768   4.564   0.242
  984TIP3   OH2 2957   1.121   3.364   4.877
  984TIP3    H1 2958   1.074   3.353   4.794
  984TIP3    H2 2959   1.175   3.442   4.863
  985TIP3   OH2 2960   0.807   3.537   3.941
  985TIP3    H1 2961   0.734   3.552   3.880
  985TIP3    H2 2962   0.874   3.600   3.916
  986TIP3   OH2 2963   0.213   0.750   3.109
  986TIP3    H1 2964   0.150   0.678   3.120
  986TIP3    H2 2965   0.235   0.776   3.198
  987TIP3   OH2 2966   4.215   0.263   0.229
  987TIP3    H1 2967   4.213   0.346   0.277
  987TIP3    H2 2968   4.286   0.213   0.271
  988TIP3   OH2 2969   5.130   3.785   3.487
  988TIP3    H1 2970   5.064   3.742   3.541
  988TIP3    H2 2971   5.102   3.877   3.485
  989TIP3   OH2 2972   0.284   0.909   2.280
  989TIP3    H1 2973   0.290   0.932   2.188
  989TIP3    H2 2974   0.277   0.992   2.326
  990TIP3   OH2 2975   5.590   1.717   4.386
  990TIP3    H1 2976   5.562   1.640   4.337
  990TIP3    H2 2977   5.627   1.682   4.467
  991TIP3   OH2 2978   0.476   5.477   0.016
  991TIP3    H1 2979   0.391   5.478   0.061
  991TIP3    H2 2980   0.455   5.454  -0.074
  992TIP3   OH2 2981   4.494   4.815   2.984
  992TIP3    H1 2982   4.548   4.736   2.988
  992TIP3    H2 2983   4.421   4.797   3.043
  993TIP3   OH2 2984   4.629   5.838   2.900
  993TIP3    H1 2985   4.576   5.899   2.952
  993TIP3    H2 2986   4.565   5.788   2.849
  994TIP3   OH2 2987   4.598   2.897   2.216
  994TIP3    H1 2988   4.648   2.854   2.147
  994TIP3    H2 2989   4.656   2.966   2.248
  995TIP3   OH2 2990   3.838   2.321   3.783
  995TIP3    H1 2991   3.914   2.292   3.732
  995TIP3    H2 2992   3.818   2.408   3.748
  996TIP3   OH2 2993   0.050   4.367   4.432
  996TIP3    H1 2994   0.096   4.359   4.515
  996TIP3    H2 2995   0.114   4.408   4.373
  997TIP3   OH2 2996   2.197   0.021   1.350
  997TIP3    H1 2997   2.125   0.038   1.411
  997TIP3    H2 2998   2.171   0.067   1.270
  998TIP3   OH2 2999   3.555   0.633   2.861
  998TIP3    H1 3000   3.610   0.712   2.858
  998TIP3    H2 3001   3.488   0.653   2.927
  999TIP3   OH2 3002   2.194   5.082   1.123
  999TIP3    H1 3003   2.123   5.143   1.101
  999TIP3    H2 3004   2.220   5.043   1.040
 1000TIP3   OH2 3005   4.111   4.294   0.594
 1000TIP3    H1 3006   4.103   4.223   0.530
 1000TIP3    H2 3007   4.126   4.372   0.541
 1001TIP3   OH2 3008   3.039   1.736   0.989
 1001TIP3    H1 3009   3.082   1.659   1.027
 1001TIP3    H2 3010   3.050   1.726   0.895
 1002TIP3   OH2 3011   5.625   4.209   1.087
 1002TIP3    H1 3012   5.622   4.243   0.998
 1002TIP3    H2 3013   5.705   4.245   1.125
 1003TIP3   OH2 3014   0.264   5.577   0.748
 1003TIP3    H1 3015   0.276   5.564   0.654
 1003TIP3    H2 3016   0.264   5.672   0.760
 1004TIP3   OH2 3017   4.697   4.631   4.584
 1004TIP3    H1 3018   4.638   4.559   4.560
 1004TIP3    H2 3019   4.653   4.710   4.552
 1005TIP3   OH2 3020   1.004   5.743   3.183
 1005TIP3    H1 3021   1.007   5.656   3.223
 1005TIP3    H2 3022   0.974   5.800   3.253
 1006TIP3   OH2 3023   6.298   1.387   4.651
 1006TIP3    H1 3024   6.368   1.439   4.689
 1006TIP3    H2 3025   6.298   1.411   4.558
 1007TIP3   OH2 3026   1.488   0.895   0.822
 1007TIP3    H1 3027   1.408   0.850   0.850
 1007TIP3    H2 3028   1.553   0.825   0.815
 1008TIP3   OH2 3029   5.510   3.935   2.064
 1008TIP3    H1 3030   5.457   4.013   2.049
 1008TIP3    H2 3031   5.447   3.865   2.079
 1009TIP3   OH2 3032   0.021   1.062   1.331
 1009TIP3    H1 3033   0.107   1.097   1.308
 1009TIP3    H2 3034   0.036   0.968   1.341
 1010TIP3   OH2 3035   5.377   3.266   4.054
 1010TIP3    H1 3036   5.323   3.187   4.050
 1010TIP3    H2 3037   5.423   3.267   3.970
 1011TIP3   OH2 3038   6.238   0.197   2.148
 1011TIP3    H1 3039   6.328   0.210   2.179
 1011TIP3    H2 3040   6.229   0.102   2.144
 1012TIP3   OH2 3041   5.573   4.986   3.093
 1012TIP3    H1 3042   5.505   4.926   3.064
 1012TIP3    H2 3043   5.632   4.993   3.018
 1013TIP3   OH2 3044   1.065   5.355   4.245
 1013TIP3    H1 3045   1.129   5.426   4.248
 1013TIP3    H2 3046   0.981   5.399   4.246
 1014TIP3   OH2 3047   3.002   3.100   0.033
 1014TIP3    H1 3048   2.996   3.051   0.115
 1014TIP3    H2 3049   3.086   3.146   0.039
 1015TIP3   OH2 3050   0.075   5.475   4.423
 1015TIP3    H1 3051   0.052   5.390   4.386
 1015TIP3    H2 3052   0.153   5.457   4.476
 1016TIP3   OH2 3053   4.234   0.578   4.530
 1016TIP3    H1 3054   4.313   0.566   4.476
 1016TIP3    H2 3055   4.166   0.600   4.467
 1017TIP3   OH2 3056   3.036   2.570   0.459
 1017TIP3    H1 3057   3.079   2.560   0.374
 1017TIP3    H2 3058   3.087   2.638   0.503
 1018TIP3   OH2 3059   3.115   1.085   1.392
 1018TIP3    H1 3060   3.052   1.020   1.360
 1018TIP3    H2 3061   3.071   1.126   1.466
 1019TIP3   OH2 3062   5.955   5.525   2.853
 1019TIP3    H1 3063   5.970   5.607   2.805
 1019TIP3    H2 3064   5.862   5.507   2.842
 1020TIP3   OH2 3065   1.443   3.925   1.782
 1020TIP3    H1 3066   1.441   4.002   1.726
 1020TIP3    H2 3067   1.407   3.855   1.727
 1021TIP3   OH2 3068   4.452   2.528   4.060
 1021TIP3    H1 3069   4.542   2.556   4.042
 1021TIP3    H2 3070   4.462   2.452   4.117
 1022TIP3   OH2 3071   6.056   1.484   1.212
 1022TIP3    H1 3072   6.004   1.438   1.279
 1022TIP3    H2 3073   6.140   1.438   1.212
 1023TIP3   OH2 3074   0.614   2.198   5.066
 1023TIP3    H1 3075   0.679   2.237   5.125
 1023TIP3    H2 3076   0.621   2.249   4.986
 1024TIP3   OH2 3077   5.977   3.942   2.585
 1024TIP3    H1 3078   5.944   3.872   2.529
 1024TIP3    H2 3079   5.900   3.996   2.604
 1025TIP3   OH2 3080   1.986   2.345   2.130
 1025TIP3    H1 3081   1.914   2.320   2.072
 1025TIP3    H2 3082   2.034   2.263   2.144
 1026TIP3   OH2 3083   2.252   5.242   0.821
 1026TIP3    H1 3084   2.219   5.282   0.901
 1026TIP3    H2 3085   2.252   5.313   0.756
 1027TIP3   OH2 3086   0.255   4.167   5.147
 1027TIP3    H1 3087   0.169   4.156   5.106
 1027TIP3    H2 3088   0.277   4.080   5.181
 1028TIP3   OH2 3089   2.180   3.037   0.006
 1028TIP3    H1 3090   2.255   3.032   0.065
 1028TIP3    H2 3091   2.173   3.130  -0.016
 1029TIP3   OH2 3092   1.773   0.031   5.107
 1029TIP3    H1 3093   1.840   0.079   5.155
 1029TIP3    H2 3094   1.709   0.097   5.082
 1030TIP3   OH2 3095   1.766   4.935   3.960
 1030TIP3    H1 3096   1.859   4.951   3.977
 1030TIP3    H2 3097   1.727   5.022   3.955
 1031TIP3   OH2 3098   4.990   2.439   2.407
 1031TIP3    H1 3099   4.970   2.357   2.452
 1031TIP3    H2 3100   4.910   2.491   2.413
 1032TIP3   OH2 3101   4.905   2.156   4.232
 1032TIP3    H1 3102   4.950   2.107   4.300
 1032TIP3    H2 3103   4.924   2.109   4.151
 1033TIP3   OH2 3104   1.693   5.927   3.067
 1033TIP3    H1 3105   1.676   5.968   3.153
 1033TIP3    H2 3106   1.786   5.943   3.051
 1034TIP3   OH2 3107   5.409   0.176   2.627
 1034TIP3    H1 3108   5.458   0.193   2.546
 1034TIP3    H2 3109   5.358   0.255   2.641
 1035TIP3   OH2 3110   3.084   1.011   1.968
 1035TIP3    H1 3111   3.082   0.916   1.953
 1035TIP3    H2 3112   3.064   1.049   1.883
 1036TIP3   OH2 3113   5.481   2.980   0.844
 1036TIP3    H1 3114   5.409   3.037   0.871
 1036TIP3    H2 3115   5.452   2.892   0.869
 1037TIP3   OH2 3116   2.150   0.738   0.473
 1037TIP3    H1 3117   2.077   0.689   0.435
 1037TIP3    H2 3118   2.225   0.714   0.420
 1038TIP3   OH2 3119   1.148   2.349   4.645
 1038TIP3    H1 3120   1.129   2.386   4.559
 1038TIP3    H2 3121   1.173   2.423   4.699
 1039TIP3   OH2 3122   1.742   3.950   1.783
 1039TIP3    H1 3123   1.761   3.872   1.732
 1039TIP3    H2 3124   1.647   3.963   1.773
 1040TIP3   OH2 3125   2.625   3.191   0.826
 1040TIP3    H1 3126   2.631   3.217   0.918
 1040TIP3    H2 3127   2.699   3.235   0.784
 1041TIP3   OH2 3128   4.902   1.844   2.484
 1041TIP3    H1 3129   4.981   1.790   2.483
 1041TIP3    H2 3130   4.922   1.916   2.424
 1042TIP3   OH2 3131   2.835   4.195   4.400
 1042TIP3    H1 3132   2.793   4.191   4.486
 1042TIP3    H2 3133   2.783   4.257   4.350
 1043TIP3   OH2 3134   1.254   3.626   4.843
 1043TIP3    H1 3135   1.215   3.708   4.873
 1043TIP3    H2 3136   1.348   3.639   4.850
 1044TIP3   OH2 3137   2.651   5.396   4.898
 1044TIP3    H1 3138   2.701   5.473   4.871
 1044TIP3    H2 3139   2.612   5.364   4.817
 1045TIP3   OH2 3140   5.590   3.493   1.517
 1045TIP3    H1 3141   5.663   3.466   1.461
 1045TIP3    H2 3142   5.559   3.411   1.557
 1046TIP3   OH2 3143   2.393   3.979   1.373
 1046TIP3    H1 3144   2.334   3.904   1.375
 1046TIP3    H2 3145   2.396   4.009   1.464
 1047TIP3   OH2 3146   2.045   1.444   1.529
 1047TIP3    H1 3147   1.953   1.419   1.540
 1047TIP3    H2 3148   2.066   1.494   1.609
 1048TIP3   OH2 3149   4.510   4.014   1.979
 1048TIP3    H1 3150   4.492   4.082   2.044
 1048TIP3    H2 3151   4.425   3.974   1.962
 1049TIP3   OH2 3152   2.318   4.958   2.057
 1049TIP3    H1 3153   2.354   4.872   2.037
 1049TIP3    H2 3154   2.356   5.016   1.991
 1050TIP3   OH2 3155   3.171   3.839   2.746
 1050TIP3    H1 3156   3.200   3.750   2.724
 1050TIP3    H2 3157   3.132   3.872   2.664
 1051TIP3   OH2 3158   5.490   1.643   2.792
 1051TIP3    H1 3159   5.529   1.660   2.706
 1051TIP3    H2 3160   5.397   1.661   2.779
 1052TIP3   OH2 3161   0.502   5.618   4.166
 1052TIP3    H1 3162   0.578   5.661   4.126
 1052TIP3    H2 3163   0.453   5.688   4.208
 1053TIP3   OH2 3164   2.283   1.626   2.079
 1053TIP3    H1 3165   2.197   1.601   2.044
 1053TIP3    H2 3166   2.277   1.721   2.090
 1054TIP3   OH2 3167   2.281   2.580   1.929
 1054TIP3    H1 3168   2.221   2.507   1.911
 1054TIP3    H2 3169   2.242   2.626   2.003
 1055TIP3   OH2 3170   4.677   3.485   1.149
 1055TIP3    H1 3171   4.730   3.539   1.208
 1055TIP3    H2 3172   4.616   3.439   1.207
 1056TIP3   OH2 3173   0.394   1.854   5.068
 1056TIP3    H1 3174   0.390   1.769   5.023
 1056TIP3    H2 3175   0.485   1.882   5.058
 1057TIP3   OH2 3176   0.976   4.875   0.750
 1057TIP3    H1 3177   1.039   4.820   0.705
 1057TIP3    H2 3178   0.982   4.849   0.842
 1058TIP3   OH2 3179   3.529   2.575   0.238
 1058TIP3    H1 3180   3.459   2.512   0.254
 1058TIP3    H2 3181   3.505   2.651   0.291
 1059TIP3   OH2 3182   4.179   4.529   5.051
 1059TIP3    H1 3183   4.206   4.610   5.008
 1059TIP3    H2 3184   4.162   4.468   4.979
 1060TIP3   OH2 3185   4.604   5.359   4.940
 1060TIP3    H1 3186   4.685   5.385   4.983
 1060TIP3    H2 3187   4.591   5.425   4.872
 1061TIP3   OH2 3188   5.756   0.469   0.774
 1061TIP3    H1 3189   5.735   0.496   0.684
 1061TIP3    H2 3190   5.685   0.411   0.800
 1062TIP3   OH2 3191   1.678   3.125   3.343
 1062TIP3    H1 3192   1.660   3.212   3.379
 1062TIP3    H2 3193   1.666   3.136   3.248
 1063TIP3   OH2 3194   1.908   2.378   2.897
 1063TIP3    H1 3195   1.824   2.346   2.866
 1063TIP3    H2 3196   1.956   2.299   2.923
 1064TIP3   OH2 3197   1.551   3.191   1.868
 1064TIP3    H1 3198   1.475   3.155   1.914
 1064TIP3    H2 3199   1.599   3.114   1.838
 1065TIP3   OH2 3200   5.224   1.344   4.602
 1065TIP3    H1 3201   5.190   1.255   4.602
 1065TIP3    H2 3202   5.305   1.339   4.654
 1066TIP3   OH2 3203   0.388   0.206   0.572
 1066TIP3    H1 3204   0.450   0.227   0.502
 1066TIP3    H2 3205   0.341   0.129   0.541
 1067TIP3   OH2 3206   0.811   1.225   4.624
 1067TIP3    H1 3207   0.745   1.287   4.654
 1067TIP3    H2 3208   0.881   1.232   4.689
 1068TIP3   OH2 3209   4.296   5.768   3.416
 1068TIP3    H1 3210   4.366   5.766   3.482
 1068TIP3    H2 3211   4.254   5.853   3.429
 1069TIP3   OH2 3212   3.497   1.791   3.118
 1069TIP3    H1 3213   3.571   1.772   3.177
 1069TIP3    H2 3214   3.523   1.754   3.034
 1070TIP3   OH2 3215   3.966   3.671   0.929
 1070TIP3    H1 3216   3.885   3.620   0.921
 1070TIP3    H2 3217   3.954   3.743   0.867
 1071TIP3   OH2 3218   4.467   2.343   0.659
 1071TIP3    H1 3219   4.447   2.294   0.579
 1071TIP3    H2 3220   4.382   2.372   0.691
 1072TIP3   OH2 3221   5.567   1.040   0.648
 1072TIP3    H1 3222   5.532   1.117   0.604
 1072TIP3    H2 3223   5.499   1.015   0.710
 1073TIP3   OH2 3224   1.768   2.533   4.127
 1073TIP3    H1 3225   1.727   2.488   4.201
 1073TIP3    H2 3226   1.696   2.559   4.071
 1074TIP3   OH2 3227   3.418   4.128   0.260
 1074TIP3    H1 3228   3.482   4.156   0.326
 1074TIP3    H2 3229   3.407   4.035   0.276
 1075TIP3   OH2 3230   4.409   4.968   4.243
 1075TIP3    H1 3231   4.458   5.035   4.194
 1075TIP3    H2 3232   4.356   4.925   4.177
 1076TIP3   OH2 3233   2.329   0.746   0.233
 1076TIP3    H1 3234   2.262   0.813   0.244
 1076TIP3    H2 3235   2.317   0.716   0.142
 1077TIP3   OH2 3236   4.979   0.901   3.278
 1077TIP3    H1 3237   4.966   0.974   3.338
 1077TIP3    H2 3238   4.962   0.938   3.191
 1078TIP3   OH2 3239   2.228   0.881   1.314
 1078TIP3    H1 3240   2.213   0.937   1.390
 1078TIP3    H2 3241   2.303   0.827   1.338
 1079TIP3   OH2 3242   4.638   0.643   2.866
 1079TIP3    H1 3243   4.605   0.676   2.782
 1079TIP3    H2 3244   4.623   0.549   2.862
 1080TIP3   OH2 3245   0.957   1.301   5.113
 1080TIP3    H1 3246   1.038   1.269   5.154
 1080TIP3    H2 3247   0.887   1.271   5.171
 1081TIP3   OH2 3248   3.794   4.821   4.015
 1081TIP3    H1 3249   3.700   4.841   4.007
 1081TIP3    H2 3250   3.797   4.732   4.049
 1082TIP3   OH2 3251   1.723   5.757   2.545
 1082TIP3    H1 3252   1.665   5.726   2.614
 1082TIP3    H2 3253   1.790   5.808   2.591
 1083TIP3   OH2 3254   5.967   0.832   4.243
 1083TIP3    H1 3255   6.032   0.882   4.194
 1083TIP3    H2 3256   5.907   0.898   4.278
 1084TIP3   OH2 3257   4.642   0.105   4.949
 1084TIP3    H1 3258   4.711   0.040   4.934
 1084TIP3    H2 3259   4.688   0.187   4.961
 1085TIP3   OH2 3260   2.594   1.425   1.147
 1085TIP3    H1 3261   2.618   1.470   1.228
 1085TIP3    H2 3262   2.678   1.401   1.107
 1086TIP3   OH2 3263   2.269   2.595   3.065
 1086TIP3    H1 3264   2.235   2.602   3.154
 1086TIP3    H2 3265   2.282   2.501   3.052
 1087TIP3   OH2 3266   2.774   2.100   0.894
 1087TIP3    H1 3267   2.791   2.178   0.947
 1087TIP3    H2 3268   2.846   2.097   0.831
 1088TIP3   OH2 3269   0.828   3.943   2.462
 1088TIP3    H1 3270   0.739   3.917   2.487
 1088TIP3    H2 3271   0.832   4.037   2.480
 1089TIP3   OH2 3272   2.786   0.178   1.690
 1089TIP3    H1 3273   2.708   0.202   1.641
 1089TIP3    H2 3274   2.846   0.251   1.676
 1090TIP3   OH2 3275   4.122   2.721   4.884
 1090TIP3    H1 3276   4.051   2.771   4.924
 1090TIP3    H2 3277   4.159   2.781   4.819
 1091TIP3   OH2 3278   0.298   0.964   0.769
 1091TIP3    H1 3279   0.243   1.012   0.707
 1091TIP3    H2 3280   0.356   0.911   0.714
 1092TIP3   OH2 3281   1.863   2.574   0.837
 1092TIP3    H1 3282   1.808   2.567   0.759
 1092TIP3    H2 3283   1.803   2.602   0.906
 1093TIP3   OH2 3284   6.372   3.988   5.046
 1093TIP3    H1 3285   6.278   4.005   5.041
 1093TIP3    H2 3286   6.379   3.895   5.066
 1094TIP3   OH2 3287   0.888   5.343   2.833
 1094TIP3    H1 3288   0.822   5.283   2.797
 1094TIP3    H2 3289   0.852   5.370   2.918
 1095TIP3   OH2 3290   0.857   2.342   4.789
 1095TIP3    H1 3291   0.854   2.329   4.694
 1095TIP3    H2 3292   0.765   2.349   4.815
 1096TIP3   OH2 3293   5.846   4.133   1.611
 1096TIP3    H1 3294   5.817   4.106   1.524
 1096TIP3    H2 3295   5.767   4.169   1.652
 1097TIP3   OH2 3296   3.192   3.854   5.184
 1097TIP3    H1 3297   3.192   3.778   5.126
 1097TIP3    H2 3298   3.284   3.872   5.202
 1098TIP3   OH2 3299   3.810   4.252   5.123
 1098TIP3    H1 3300   3.901   4.250   5.150
 1098TIP3    H2 3301   3.771   4.175   5.166
 1099TIP3   OH2 3302   3.081   1.949   4.273
 1099TIP3    H1 3303   3.000   1.994   4.249
 1099TIP3    H2 3304   3.072   1.931   4.367
 1100TIP3   OH2 3305   6.199   1.011   2.561
 1100TIP3    H1 3306   6.156   0.927   2.579
 1100TIP3    H2 3307   6.224   1.006   2.469
 1101TIP3   OH2 3308   4.011   4.339   0.237
 1101TIP3    H1 3309   4.057   4.343   0.153
 1101TIP3    H2 3310   3.948   4.268   0.226
 1102TIP3   OH2 3311   0.316   4.176   1.607
 1102TIP3    H1 3312   0.341   4.265   1.633
 1102TIP3    H2 3313   0.221   4.175   1.618
 1103TIP3   OH2 3314   1.786   1.520   3.702
 1103TIP3    H1 3315   1.873   1.521   3.660
 1103TIP3    H2 3316   1.801   1.477   3.786
 1104TIP3   OH2 3317   1.603   5.541   1.648
 1104TIP3    H1 3318   1.611   5.465   1.705
 1104TIP3    H2 3319   1.692   5.576   1.642
 1105TIP3   OH2 3320   4.893   1.532   0.835
 1105TIP3    H1 3321   4.941   1.533   0.917
 1105TIP3    H2 3322   4.925   1.609   0.788
 1106TIP3   OH2 3323   3.254   4.567   3.352
 1106TIP3    H1 3324   3.274   4.577   3.258
 1106TIP3    H2 3325   3.194   4.638   3.372
 1107TIP3   OH2 3326   2.624   1.852   1.316
 1107TIP3    H1 3327   2.567   1.900   1.256
 1107TIP3    H2 3328   2.580   1.767   1.329
 1108TIP3   OH2 3329   5.350   4.604   1.794
 1108TIP3    H1 3330   5.279   4.669   1.801
 1108TIP3    H2 3331   5.338   4.565   1.708
 1109TIP3   OH2 3332   4.270   0.268   5.116
 1109TIP3    H1 3333   4.292   0.176   5.099
 1109TIP3    H2 3334   4.192   0.284   5.064
 1110TIP3   OH2 3335   2.169   5.439   1.001
 1110TIP3    H1 3336   2.264   5.437   0.995
 1110TIP3    H2 3337   2.147   5.532   1.006
 1111TIP3   OH2 3338   4.909   5.519   0.952
 1111TIP3    H1 3339   4.959   5.541   1.031
 1111TIP3    H2 3340   4.961   5.555   0.880
 1112TIP3   OH2 3341   2.771   0.283   3.450
 1112TIP3    H1 3342   2.733   0.256   3.534
 1112TIP3    H2 3343   2.725   0.364   3.428
 1113TIP3   OH2 3344   1.260   0.815   2.914
 1113TIP3    H1 3345   1.289   0.789   2.827
 1113TIP3    H2 3346   1.220   0.737   2.951
 1114TIP3   OH2 3347   0.046   4.747   1.145
 1114TIP3    H1 3348   0.138   4.722   1.134
 1114TIP3    H2 3349   0.049   4.841   1.163
 1115TIP3   OH2 3350   3.449   5.711   1.171
 1115TIP3    H1 3351   3.441   5.783   1.233
 1115TIP3    H2 3352   3.369   5.717   1.117
 1116TIP3   OH2 3353   1.177   2.567   3.724
 1116TIP3    H1 3354   1.174   2.494   3.662
 1116TIP3    H2 3355   1.168   2.645   3.670
 1117TIP3   OH2 3356   4.230   5.091   1.761
 1117TIP3    H1 3357   4.320   5.116   1.779
 1117TIP3    H2 3358   4.211   5.024   1.827
 1118TIP3   OH2 3359   1.314   3.531   3.304
 1118TIP3    H1 3360   1.358   3.542   3.220
 1118TIP3    H2 3361   1.305   3.620   3.338
 1119TIP3   OH2 3362   1.925   4.247   1.601
 1119TIP3    H1 3363   1.950   4.329   1.643
 1119TIP3    H2 3364   1.843   4.222   1.644
 1120TIP3   OH2 3365   2.285   0.512   4.499
 1120TIP3    H1 3366   2.290   0.421   4.467
 1120TIP3    H2 3367   2.254   0.504   4.589
 1121TIP3   OH2 3368   4.692   5.749   3.854
 1121TIP3    H1 3369   4.751   5.702   3.912
 1121TIP3    H2 3370   4.682   5.692   3.778
 1122TIP3   OH2 3371   1.882   1.069   3.079
 1122TIP3    H1 3372   1.934   1.111   3.147
 1122TIP3    H2 3373   1.855   1.140   3.021
 1123TIP3   OH2 3374   4.678   2.868  -0.003
 1123TIP3    H1 3375   4.668   2.960   0.022
 1123TIP3    H2 3376   4.592   2.829   0.014
 1124TIP3   OH2 3377   5.577   5.276   3.944
 1124TIP3    H1 3378   5.512   5.276   4.014
 1124TIP3    H2 3379   5.629   5.197   3.959
 1125TIP3   OH2 3380   5.126   5.576   1.779
 1125TIP3    H1 3381   5.130   5.670   1.797
 1125TIP3    H2 3382   5.195   5.538   1.834
 1126TIP3   OH2 3383   4.385   2.238   3.796
 1126TIP3    H1 3384   4.441   2.197   3.730
 1126TIP3    H2 3385   4.318   2.173   3.814
 1127TIP3   OH2 3386   3.927   0.270   2.453
 1127TIP3    H1 3387   3.904   0.204   2.517
 1127TIP3    H2 3388   3.851   0.275   2.395
 1128TIP3   OH2 3389   1.454   4.080   3.967
 1128TIP3    H1 3390   1.365   4.109   3.988
 1128TIP3    H2 3391   1.489   4.149   3.911
 1129TIP3   OH2 3392   5.537   4.708   3.457
 1129TIP3    H1 3393   5.456   4.720   3.408
 1129TIP3    H2 3394   5.581   4.634   3.414
 1130TIP3   OH2 3395   1.536   5.410   4.846
 1130TIP3    H1 3396   1.502   5.413   4.935
 1130TIP3    H2 3397   1.509   5.324   4.813
 1131TIP3   OH2 3398   0.390   1.053   3.106
 1131TIP3    H1 3399   0.461   1.006   3.061
 1131TIP3    H2 3400   0.417   1.055   3.197
 1132TIP3   OH2 3401   1.060   3.366   3.730
 1132TIP3    H1 3402   1.048   3.326   3.644
 1132TIP3    H2 3403   1.100   3.451   3.712
 1133TIP3   OH2 3404   5.548   2.048   3.075
 1133TIP3    H1 3405   5.532   2.047   3.170
 1133TIP3    H2 3406   5.633   2.090   3.065
 1134TIP3   OH2 3407   4.667   4.278   1.070
 1134TIP3    H1 3408   4.678   4.370   1.045
 1134TIP3    H2 3409   4.657   4.280   1.165
 1135TIP3   OH2 3410   4.534   2.063   2.321
 1135TIP3    H1 3411   4.507   2.070   2.412
 1135TIP3    H2 3412   4.481   1.992   2.285
 1136TIP3   OH2 3413   0.098   1.978   2.516
 1136TIP3    H1 3414   0.124   2.052   2.571
 1136TIP3    H2 3415   0.021   2.010   2.468
 1137TIP3   OH2 3416   0.372   3.642   0.603
 1137TIP3    H1 3417   0.360   3.642   0.508
 1137TIP3    H2 3418   0.347   3.553   0.629
 1138TIP3   OH2 3419   0.245   0.398   0.422
 1138TIP3    H1 3420   0.181   0.368   0.357
 1138TIP3    H2 3421   0.244   0.331   0.490
 1139TIP3   OH2 3422   5.435   1.191   5.164
 1139TIP3    H1 3423   5.506   1.252   5.143
 1139TIP3    H2 3424   5.432   1.131   5.090
 1140TIP3   OH2 3425   1.362   4.560   4.918
 1140TIP3    H1 3426   1.446   4.515   4.907
 1140TIP3    H2 3427   1.365   4.633   4.857
 1141TIP3   OH2 3428   1.824   2.789   2.653
 1141TIP3    H1 3429   1.757   2.848   2.687
 1141TIP3    H2 3430   1.841   2.729   2.726
 1142TIP3   OH2 3431   3.050   0.595   2.316
 1142TIP3    H1 3432   3.144   0.600   2.298
 1142TIP3    H2 3433   3.016   0.538   2.247
 1143TIP3   OH2 3434   4.358   1.043   0.219
 1143TIP3    H1 3435   4.401   1.001   0.144
 1143TIP3    H2 3436   4.289   0.983   0.244
 1144TIP3   OH2 3437   5.219   1.520   0.645
 1144TIP3    H1 3438   5.159   1.538   0.573
 1144TIP3    H2 3439   5.254   1.606   0.669
 1145TIP3   OH2 3440   2.490   2.612   1.675
 1145TIP3    H1 3441   2.472   2.675   1.605
 1145TIP3    H2 3442   2.496   2.666   1.754
 1146TIP3   OH2 3443   3.089   0.179   2.759
 1146TIP3    H1 3444   3.014   0.233   2.733
 1146TIP3    H2 3445   3.148   0.239   2.804
 1147TIP3   OH2 3446   1.009   5.295   3.519
 1147TIP3    H1 3447   1.045   5.238   3.451
 1147TIP3    H2 3448   0.997   5.238   3.594
 1148TIP3   OH2 3449   3.609   2.319   4.848
 1148TIP3    H1 3450   3.650   2.248   4.898
 1148TIP3    H2 3451   3.681   2.378   4.828
 1149TIP3   OH2 3452   3.926   2.443   3.267
 1149TIP3    H1 3453   3.921   2.476   3.356
 1149TIP3    H2 3454   3.910   2.520   3.212
 1150TIP3   OH2 3455   0.983   4.559   0.110
 1150TIP3    H1 3456   0.966   4.604   0.194
 1150TIP3    H2 3457   0.946   4.618   0.044
 1151TIP3   OH2 3458   1.248   1.488   0.926
 1151TIP3    H1 3459   1.292   1.559   0.880
 1151TIP3    H2 3460   1.295   1.480   1.009
 1152TIP3   OH2 3461   5.200   0.338   1.511
 1152TIP3    H1 3462   5.286   0.313   1.476
 1152TIP3    H2 3463   5.212   0.428   1.542
 1153TIP3   OH2 3464   0.264   3.873   1.986
 1153TIP3    H1 3465   0.351   3.912   1.981
 1153TIP3    H2 3466   0.204   3.944   1.962
 1154TIP3   OH2 3467   4.008   4.386   1.855
 1154TIP3    H1 3468   3.955   4.362   1.931
 1154TIP3    H2 3469   3.955   4.362   1.780
 1155TIP3   OH2 3470   0.481   2.594   2.388
 1155TIP3    H1 3471   0.452   2.611   2.478
 1155TIP3    H2 3472   0.576   2.610   2.391
 1156TIP3   OH2 3473   3.221   0.681   2.639
 1156TIP3    H1 3474   3.258   0.720   2.718
 1156TIP3    H2 3475   3.141   0.732   2.622
 1157TIP3   OH2 3476   2.906   2.468   4.841
 1157TIP3    H1 3477   2.958   2.392   4.816
 1157TIP3    H2 3478   2.820   2.433   4.862
 1158TIP3   OH2 3479   5.850   3.811   1.873
 1158TIP3    H1 3480   5.795   3.817   1.795
 1158TIP3    H2 3481   5.903   3.890   1.872
 1159TIP3   OH2 3482   3.589   0.252   0.240
 1159TIP3    H1 3483   3.660   0.240   0.304
 1159TIP3    H2 3484   3.634   0.267   0.157
 1160TIP3   OH2 3485   4.338   1.280   1.921
 1160TIP3    H1 3486   4.242   1.275   1.915
 1160TIP3    H2 3487   4.369   1.247   1.836
 1161TIP3   OH2 3488   2.835   0.337   2.743
 1161TIP3    H1 3489   2.820   0.399   2.815
 1161TIP3    H2 3490   2.851   0.392   2.667
 1162TIP3   OH2 3491   3.903   4.318   2.087
 1162TIP3    H1 3492   3.942   4.261   2.153
 1162TIP3    H2 3493   3.880   4.398   2.135
 1163TIP3   OH2 3494   6.124   3.143   4.459
 1163TIP3    H1 3495   6.063   3.080   4.499
 1163TIP3    H2 3496   6.167   3.093   4.390
 1164TIP3   OH2 3497   2.737   0.795   1.879
 1164TIP3    H1 3498   2.710   0.812   1.789
 1164TIP3    H2 3499   2.681   0.850   1.933
 1165TIP3   OH2 3500   2.147   2.213   5.080
 1165TIP3    H1 3501   2.236   2.180   5.075
 1165TIP3    H2 3502   2.092   2.135   5.085
 1166TIP3   OH2 3503   3.041   2.577   3.105
 1166TIP3    H1 3504   2.960   2.629   3.108
 1166TIP3    H2 3505   3.012   2.487   3.118
 1167TIP3   OH2 3506   4.647   3.855   1.018
 1167TIP3    H1 3507   4.683   3.787   0.961
 1167TIP3    H2 3508   4.629   3.928   0.960
 1168TIP3   OH2 3509   5.808   1.839   0.232
 1168TIP3    H1 3510   5.842   1.756   0.265
 1168TIP3    H2 3511   5.869   1.863   0.161
 1169TIP3   OH2 3512   0.592   0.689   1.466
 1169TIP3    H1 3513   0.526   0.713   1.401
 1169TIP3    H2 3514   0.587   0.759   1.532
 1170TIP3   OH2 3515   3.208   4.047   2.134
 1170TIP3    H1 3516   3.169   4.099   2.063
 1170TIP3    H2 3517   3.179   3.958   2.117
 1171TIP3   OH2 3518   2.684   0.687   4.585
 1171TIP3    H1 3519   2.631   0.622   4.538
 1171TIP3    H2 3520   2.718   0.744   4.516
 1172TIP3   OH2 3521   5.511   5.077   1.016
 1172TIP3    H1 3522   5.447   5.039   1.076
 1172TIP3    H2 3523   5.583   5.106   1.073
 1173TIP3   OH2 3524   3.237   4.440   2.351
 1173TIP3    H1 3525   3.297   4.512   2.331
 1173TIP3    H2 3526   3.292   4.372   2.390
 1174TIP3   OH2 3527   1.869   5.667   3.080
 1174TIP3    H1 3528   1.953   5.687   3.038
 1174TIP3    H2 3529   1.892   5.650   3.172
 1175TIP3   OH2 3530   5.593   4.787   0.083
 1175TIP3    H1 3531   5.584   4.748   0.170
 1175TIP3    H2 3532   5.672   4.841   0.090
 1176TIP3   OH2 3533   4.784   3.916   0.166
 1176TIP3    H1 3534   4.707   3.860   0.154
 1176TIP3    H2 3535   4.843   3.888   0.096
 1177TIP3   OH2 3536   5.727   5.378   3.010
 1177TIP3    H1 3537   5.779   5.301   2.989
 1177TIP3    H2 3538   5.714   5.374   3.105
 1178TIP3   OH2 3539   2.077   3.499   3.076
 1178TIP3    H1 3540   2.166   3.494   3.111
 1178TIP3    H2 3541   2.046   3.585   3.102
 1179TIP3   OH2 3542   4.855   2.932   0.636
 1179TIP3    H1 3543   4.821   2.925   0.725
 1179TIP3    H2 3544   4.841   3.024   0.612
 1180TIP3   OH2 3545   1.945   4.231   5.012
 1180TIP3    H1 3546   1.899   4.207   4.932
 1180TIP3    H2 3547   1.881   4.217   5.082
 1181TIP3   OH2 3548   4.582   2.271   2.965
 1181TIP3    H1 3549   4.671   2.240   2.946
 1181TIP3    H2 3550   4.561   2.330   2.893
 1182TIP3   OH2 3551   2.795   2.461   0.751
 1182TIP3    H1 3552   2.882   2.445   0.787
 1182TIP3    H2 3553   2.737   2.457   0.828
 1183TIP3   OH2 3554   0.106   3.130   4.326
 1183TIP3    H1 3555   0.022   3.085   4.320
 1183TIP3    H2 3556   0.117   3.148   4.419
 1184TIP3   OH2 3557   4.758   2.222   2.240
 1184TIP3    H1 3558   4.737   2.294   2.299
 1184TIP3    H2 3559   4.690   2.157   2.255
 1185TIP3   OH2 3560   3.003   4.643   3.179
 1185TIP3    H1 3561   2.934   4.671   3.119
 1185TIP3    H2 3562   2.993   4.701   3.255
 1186TIP3   OH2 3563   2.805   1.201   4.205
 1186TIP3    H1 3564   2.795   1.282   4.255
 1186TIP3    H2 3565   2.879   1.156   4.247
 1187TIP3   OH2 3566   1.385   3.075   1.126
 1187TIP3    H1 3567   1.351   3.132   1.058
 1187TIP3    H2 3568   1.394   3.132   1.203
 1188TIP3   OH2 3569   3.764   3.877   3.731
 1188TIP3    H1 3570   3.775   3.972   3.725
 1188TIP3    H2 3571   3.671   3.865   3.749
 1189TIP3   OH2 3572   2.770   4.672   4.806
 1189TIP3    H1 3573   2.767   4.713   4.892
 1189TIP3    H2 3574   2.863   4.653   4.792
 1190TIP3   OH2 3575   0.440   4.373   2.534
 1190TIP3    H1 3576   0.354   4.412   2.550
 1190TIP3    H2 3577   0.425   4.279   2.541
 1191TIP3   OH2 3578   0.779   4.016   4.686
 1191TIP3    H1 3579   0.719   4.051   4.620
 1191TIP3    H2 3580   0.866   4.042   4.655
 1192TIP3   OH2 3581   3.941   3.343   0.202
 1192TIP3    H1 3582   4.011   3.409   0.210
 1192TIP3    H2 3583   3.864   3.386   0.239
 1193TIP3   OH2 3584   4.838   4.834   3.346
 1193TIP3    H1 3585   4.879   4.909   3.390
 1193TIP3    H2 3586   4.889   4.822   3.267
 1194TIP3   OH2 3587   5.742   2.288   0.490
 1194TIP3    H1 3588   5.760   2.332   0.573
 1194TIP3    H2 3589   5.770   2.198   0.504
 1195TIP3   OH2 3590   0.242   0.320   0.787
 1195TIP3    H1 3591   0.306   0.303   0.718
 1195TIP3    H2 3592   0.250   0.246   0.848
 1196TIP3   OH2 3593   5.811   5.413   3.811
 1196TIP3    H1 3594   5.846   5.349   3.749
 1196TIP3    H2 3595   5.750   5.363   3.865
 1197TIP3   OH2 3596   3.046   2.917   3.940
 1197TIP3    H1 3597   3.051   3.004   3.978
 1197TIP3    H2 3598   3.063   2.858   4.013
 1198TIP3   OH2 3599   5.643   3.667   1.127
 1198TIP3    H1 3600   5.700   3.744   1.117
 1198TIP3    H2 3601   5.691   3.596   1.085
 1199TIP3   OH2 3602   2.726   3.028   1.628
 1199TIP3    H1 3603   2.759   2.946   1.666
 1199TIP3    H2 3604   2.779   3.096   1.668
 1200TIP3   OH2 3605   3.289   0.871   2.816
 1200TIP3    H1 3606   3.209   0.912   2.848
 1200TIP3    H2 3607   3.356   0.897   2.880
 1201TIP3   OH2 3608   2.866   2.792   2.904
 1201TIP3    H1 3609   2.866   2.702   2.938
 1201TIP3    H2 3610   2.832   2.784   2.815
 1202TIP3   OH2 3611   1.657   0.444   1.083
 1202TIP3    H1 3612   1.688   0.375   1.141
 1202TIP3    H2 3613   1.732   0.464   1.027
 1203TIP3   OH2 3614   5.762   2.990   5.163
 1203TIP3    H1 3615   5.725   3.069   5.124
 1203TIP3    H2 3616   5.732   2.919   5.106
 1204TIP3   OH2 3617   0.999  -0.027   2.240
 1204TIP3    H1 3618   1.009   0.065   2.265
 1204TIP3    H2 3619   0.938  -0.025   2.166
 1205TIP3   OH2 3620   2.790   5.968   4.926
 1205TIP3    H1 3621   2.792   5.873   4.943
 1205TIP3    H2 3622   2.845   6.005   4.995
 1206TIP3   OH2 3623   5.592   3.528   2.979
 1206TIP3    H1 3624   5.536   3.500   2.906
 1206TIP3    H2 3625   5.573   3.621   2.988
 1207TIP3   OH2 3626   0.688   2.703   4.617
 1207TIP3    H1 3627   0.713   2.775   4.560
 1207TIP3    H2 3628   0.767   2.685   4.668
 1208TIP3   OH2 3629   4.499   4.358   4.557
 1208TIP3    H1 3630   4.554   4.357   4.479
 1208TIP3    H2 3631   4.561   4.349   4.630
 1209TIP3   OH2 3632   1.721   4.863   2.636
 1209TIP3    H1 3633   1.785   4.929   2.662
 1209TIP3    H2 3634   1.658   4.861   2.708
 1210TIP3   OH2 3635   6.303   1.305   4.386
 1210TIP3    H1 3636   6.380   1.299   4.330
 1210TIP3    H2 3637   6.309   1.227   4.442
 1211TIP3   OH2 3638   5.283   5.885   4.890
 1211TIP3    H1 3639   5.349   5.951   4.912
 1211TIP3    H2 3640   5.331   5.818   4.841
 1212TIP3   OH2 3641   3.422   3.384   0.480
 1212TIP3    H1 3642   3.471   3.415   0.555
 1212TIP3    H2 3643   3.428   3.455   0.416
 1213TIP3   OH2 3644   3.163   3.005   3.618
 1213TIP3    H1 3645   3.123   3.092   3.627
 1213TIP3    H2 3646   3.202   2.988   3.704
 1214TIP3   OH2 3647   0.051   0.060   1.127
 1214TIP3    H1 3648  -0.009   0.116   1.079
 1214TIP3    H2 3649   0.013   0.054   1.215
 1215TIP3   OH2 3650   2.349   2.433   3.945
 1215TIP3    H1 3651   2.420   2.481   3.988
 1215TIP3    H2 3652   2.319   2.491   3.875
 1216TIP3   OH2 3653   0.562   1.827   4.437
 1216TIP3    H1 3654   0.586   1.787   4.353
 1216TIP3    H2 3655   0.472   1.798   4.453
 1217TIP3   OH2 3656   4.542   1.951   4.598
 1217TIP3    H1 3657   4.452   1.973   4.576
 1217TIP3    H2 3658   4.573   1.900   4.523
 1218TIP3   OH2 3659   3.565   1.098   2.203
 1218TIP3    H1 3660   3.504   1.087   2.129
 1218TIP3    H2 3661   3.643   1.137   2.164
 1219TIP3   OH2 3662   1.640   3.659   5.146
 1219TIP3    H1 3663   1.680   3.741   5.118
 1219TIP3    H2 3664   1.621   3.673   5.239
 1220TIP3   OH2 3665   5.727   1.683   4.611
 1220TIP3    H1 3666   5.725   1.778   4.599
 1220TIP3    H2 3667   5.768   1.671   4.697
 1221TIP3   OH2 3668   0.654   1.275   0.798
 1221TIP3    H1 3669   0.632   1.283   0.705
 1221TIP3    H2 3670   0.569   1.260   0.840
 1222TIP3   OH2 3671   2.516   5.722   1.925
 1222TIP3    H1 3672   2.598   5.751   1.965
 1222TIP3    H2 3673   2.541   5.650   1.868
 1223TIP3   OH2 3674   5.053   2.920   1.672
 1223TIP3    H1 3675   5.092   2.878   1.595
 1223TIP3    H2 3676   4.959   2.915   1.657
 1224TIP3   OH2 3677   3.570   5.304   5.047
 1224TIP3    H1 3678   3.537   5.236   5.105
 1224TIP3    H2 3679   3.534   5.282   4.961
 1225TIP3   OH2 3680   0.226   2.436   1.165
 1225TIP3    H1 3681   0.305   2.447   1.218
 1225TIP3    H2 3682   0.154   2.450   1.226
 1226TIP3   OH2 3683   3.605   1.499   2.292
 1226TIP3    H1 3684   3.576   1.588   2.307
 1226TIP3    H2 3685   3.584   1.481   2.201
 1227TIP3   OH2 3686   2.233   2.549   1.596
 1227TIP3    H1 3687   2.328   2.557   1.591
 1227TIP3    H2 3688   2.212   2.576   1.686
 1228TIP3   OH2 3689   5.883   5.400   0.224
 1228TIP3    H1 3690   5.949   5.420   0.158
 1228TIP3    H2 3691   5.932   5.368   0.300
 1229TIP3   OH2 3692   0.896   2.283   3.676
 1229TIP3    H1 3693   0.904   2.261   3.583
 1229TIP3    H2 3694   0.876   2.377   3.676
 1230TIP3   OH2 3695   1.253   2.158   0.844
 1230TIP3    H1 3696   1.299   2.181   0.764
 1230TIP3    H2 3697   1.289   2.073   0.869
 1231TIP3   OH2 3698   3.337   0.843   1.872
 1231TIP3    H1 3699   3.425   0.805   1.879
 1231TIP3    H2 3700   3.302   0.808   1.790
 1232TIP3   OH2 3701   1.887   4.442   1.805
 1232TIP3    H1 3702   1.857   4.422   1.894
 1232TIP3    H2 3703   1.919   4.532   1.809
 1233TIP3   OH2 3704   2.955   4.068   0.642
 1233TIP3    H1 3705   2.945   3.975   0.619
 1233TIP3    H2 3706   3.038   4.093   0.601
 1234TIP3   OH2 3707   4.399   4.453   0.222
 1234TIP3    H1 3708   4.356   4.416   0.299
 1234TIP3    H2 3709   4.444   4.380   0.181
 1235TIP3   OH2 3710   4.466   5.779   1.995
 1235TIP3    H1 3711   4.375   5.803   1.980
 1235TIP3    H2 3712   4.502   5.762   1.908
 1236TIP3   OH2 3713   5.292   1.579   1.602
 1236TIP3    H1 3714   5.337   1.602   1.683
 1236TIP3    H2 3715   5.232   1.652   1.586
 1237TIP3   OH2 3716   0.045   0.962   0.362
 1237TIP3    H1 3717   0.086   0.911   0.292
 1237TIP3    H2 3718   0.118   0.996   0.413
 1238TIP3   OH2 3719   4.997   1.389   3.345
 1238TIP3    H1 3720   4.990   1.357   3.256
 1238TIP3    H2 3721   4.938   1.465   3.349
 1239TIP3   OH2 3722   2.652   1.513   1.412
 1239TIP3    H1 3723   2.635   1.569   1.488
 1239TIP3    H2 3724   2.743   1.531   1.388
 1240TIP3   OH2 3725   4.002   1.228   2.304
 1240TIP3    H1 3726   3.959   1.148   2.334
 1240TIP3    H2 3727   3.973   1.295   2.366
 1241TIP3   OH2 3728   0.812   2.781   2.781
 1241TIP3    H1 3729   0.775   2.806   2.866
 1241TIP3    H2 3730   0.765   2.701   2.757
 1242TIP3   OH2 3731   0.606   0.923   1.569
 1242TIP3    H1 3732   0.680   0.957   1.518
 1242TIP3    H2 3733   0.585   0.993   1.630
 1243TIP3   OH2 3734   3.891   4.860   0.295
 1243TIP3    H1 3735   3.816   4.895   0.247
 1243TIP3    H2 3736   3.958   4.929   0.287
 1244TIP3   OH2 3737   2.293   2.454   1.090
 1244TIP3    H1 3738   2.272   2.423   1.002
 1244TIP3    H2 3739   2.375   2.409   1.112
 1245TIP3   OH2 3740   4.808   5.416   3.707
 1245TIP3    H1 3741   4.812   5.366   3.789
 1245TIP3    H2 3742   4.757   5.361   3.648
 1246TIP3   OH2 3743   6.223   2.006   5.053
 1246TIP3    H1 3744   6.157   2.009   4.985
 1246TIP3    H2 3745   6.300   1.968   5.011
 1247TIP3   OH2 3746   3.155   5.740   0.372
 1247TIP3    H1 3747   3.063   5.764   0.374
 1247TIP3    H2 3748   3.188   5.778   0.290
 1248TIP3   OH2 3749   3.452   4.612   2.237
 1248TIP3    H1 3750   3.509   4.565   2.177
 1248TIP3    H2 3751   3.505   4.623   2.316
 1249TIP3   OH2 3752   1.375   4.263   1.255
 1249TIP3    H1 3753   1.289   4.277   1.215
 1249TIP3    H2 3754   1.419   4.348   1.247
 1250TIP3   OH2 3755   3.347   1.678   0.555
 1250TIP3    H1 3756   3.288   1.706   0.624
 1250TIP3    H2 3757   3.417   1.743   0.554
 1251TIP3   OH2 3758   4.610   0.940   3.474
 1251TIP3    H1 3759   4.532   0.896   3.440
 1251TIP3    H2 3760   4.620   0.904   3.562
 1252TIP3   OH2 3761   3.577   0.214   1.181
 1252TIP3    H1 3762   3.646   0.147   1.185
 1252TIP3    H2 3763   3.621   0.290   1.141
 1253TIP3   OH2 3764   3.415   2.048   1.511
 1253TIP3    H1 3765   3.403   2.068   1.419
 1253TIP3    H2 3766   3.482   2.109   1.541
 1254TIP3   OH2 3767   0.316   2.423   1.810
 1254TIP3    H1 3768   0.262   2.487   1.764
 1254TIP3    H2 3769   0.405   2.440   1.779
 1255TIP3   OH2 3770   5.463   0.406   1.403
 1255TIP3    H1 3771   5.508   0.446   1.328
 1255TIP3    H2 3772   5.532   0.356   1.448
 1256TIP3   OH2 3773   0.318   4.976   2.347
 1256TIP3    H1 3774   0.353   5.017   2.268
 1256TIP3    H2 3775   0.266   5.045   2.388
 1257TIP3   OH2 3776   1.825   4.889   3.643
 1257TIP3    H1 3777   1.793   4.880   3.733
 1257TIP3    H2 3778   1.850   4.800   3.618
 1258TIP3   OH2 3779   1.871   0.518   0.896
 1258TIP3    H1 3780   1.938   0.462   0.858
 1258TIP3    H2 3781   1.901   0.607   0.879
 1259TIP3   OH2 3782   6.109   1.542   2.576
 1259TIP3    H1 3783   6.016   1.561   2.588
 1259TIP3    H2 3784   6.153   1.627   2.585
 1260TIP3   OH2 3785   3.207   5.920   0.148
 1260TIP3    H1 3786   3.132   5.911   0.089
 1260TIP3    H2 3787   3.274   5.861   0.111
 1261TIP3   OH2 3788   4.894   5.500   3.453
 1261TIP3    H1 3789   4.981   5.533   3.477
 1261TIP3    H2 3790   4.866   5.450   3.529
 1262TIP3   OH2 3791   2.992   5.702   1.712
 1262TIP3    H1 3792   3.010   5.777   1.769
 1262TIP3    H2 3793   2.990   5.739   1.624
 1263TIP3   OH2 3794   0.253   0.801   3.364
 1263TIP3    H1 3795   0.321   0.866   3.343
 1263TIP3    H2 3796   0.295   0.743   3.428
 1264TIP3   OH2 3797   0.036   4.624   0.714
 1264TIP3    H1 3798   0.067   4.700   0.663
 1264TIP3    H2 3799  -0.004   4.663   0.792
 1265TIP3   OH2 3800   5.986   2.480   4.058
 1265TIP3    H1 3801   6.002   2.445   3.971
 1265TIP3    H2 3802   6.057   2.543   4.072
 1266TIP3   OH2 3803  -0.012   1.036   2.308
 1266TIP3    H1 3804  -0.001   0.942   2.316
 1266TIP3    H2 3805   0.072   1.072   2.337
 1267TIP3   OH2 3806   1.296   3.288   1.480
 1267TIP3    H1 3807   1.381   3.267   1.516
 1267TIP3    H2 3808   1.315   3.343   1.403
 1268TIP3   OH2 3809   4.460   4.854   1.451
 1268TIP3    H1 3810   4.385   4.914   1.453
 1268TIP3    H2 3811   4.429   4.776   1.497
 1269TIP3   OH2 3812   4.653   4.298   0.368
 1269TIP3    H1 3813   4.602   4.218   0.381
 1269TIP3    H2 3814   4.697   4.284   0.284
 1270TIP3   OH2 3815   3.230   5.760   2.046
 1270TIP3    H1 3816   3.205   5.817   1.973
 1270TIP3    H2 3817   3.147   5.735   2.086
 1271TIP3   OH2 3818   0.384   5.805   4.863
 1271TIP3    H1 3819   0.451   5.737   4.872
 1271TIP3    H2 3820   0.398   5.863   4.939
 1272TIP3   OH2 3821   4.241   2.146   4.299
 1272TIP3    H1 3822   4.284   2.061   4.307
 1272TIP3    H2 3823   4.190   2.154   4.380
 1273TIP3   OH2 3824   1.292   1.422   1.182
 1273TIP3    H1 3825   1.342   1.451   1.258
 1273TIP3    H2 3826   1.331   1.339   1.157
 1274TIP3   OH2 3827   5.881   2.650   2.776
 1274TIP3    H1 3828   5.975   2.655   2.759
 1274TIP3    H2 3829   5.875   2.626   2.869
 1275TIP3   OH2 3830   0.190   5.089   3.260
 1275TIP3    H1 3831   0.264   5.122   3.209
 1275TIP3    H2 3832   0.117   5.089   3.198
 1276TIP3   OH2 3833   1.467   0.056   0.035
 1276TIP3    H1 3834   1.485   0.038  -0.057
 1276TIP3    H2 3835   1.476   0.151   0.044
 1277TIP3   OH2 3836   2.606   1.039   2.906
 1277TIP3    H1 3837   2.562   1.086   2.977
 1277TIP3    H2 3838   2.539   1.027   2.839
 1278TIP3   OH2 3839   4.346   1.619   3.456
 1278TIP3    H1 3840   4.302   1.702   3.473
 1278TIP3    H2 3841   4.278   1.553   3.466
 1279TIP3   OH2 3842   5.124   4.494   0.292
 1279TIP3    H1 3843   5.159   4.409   0.267
 1279TIP3    H2 3844   5.029   4.481   0.294
 1280TIP3   OH2 3845   6.144   3.946   4.766
 1280TIP3    H1 3846   6.148   4.035   4.730
 1280TIP3    H2 3847   6.158   3.958   4.860
 1281TIP3   OH2 3848   6.112   1.235   0.695
 1281TIP3    H1 3849   6.081   1.204   0.780
 1281TIP3    H2 3850   6.207   1.237   0.703
 1282TIP3   OH2 3851   2.303   2.314   3.092
 1282TIP3    H1 3852   2.381   2.328   3.038
 1282TIP3    H2 3853   2.325   2.240   3.149
 1283TIP3   OH2 3854   0.221   0.428   3.222
 1283TIP3    H1 3855   0.293   0.427   3.159
 1283TIP3    H2 3856   0.264   0.439   3.307
 1284TIP3   OH2 3857   5.580   5.201   0.562
 1284TIP3    H1 3858   5.589   5.136   0.632
 1284TIP3    H2 3859   5.503   5.174   0.514
 1285TIP3   OH2 3860   4.493   3.230   0.547
 1285TIP3    H1 3861   4.399   3.216   0.557
 1285TIP3    H2 3862   4.506   3.322   0.572
 1286TIP3   OH2 3863   0.526   4.842   4.325
 1286TIP3    H1 3864   0.514   4.934   4.302
 1286TIP3    H2 3865   0.442   4.800   4.305
 1287TIP3   OH2 3866   4.432   1.113   4.110
 1287TIP3    H1 3867   4.464   1.024   4.119
 1287TIP3    H2 3868   4.337   1.106   4.121
 1288TIP3   OH2 3869   0.666   0.490   3.320
 1288TIP3    H1 3870   0.624   0.425   3.376
 1288TIP3    H2 3871   0.728   0.535   3.377
 1289TIP3   OH2 3872   3.356   4.599   4.879
 1289TIP3    H1 3873   3.327   4.524   4.930
 1289TIP3    H2 3874   3.448   4.581   4.860
 1290TIP3   OH2 3875   5.763   5.424   5.004
 1290TIP3    H1 3876   5.685   5.400   5.053
 1290TIP3    H2 3877   5.836   5.395   5.058
 1291TIP3   OH2 3878   4.493   4.563   4.187
 1291TIP3    H1 3879   4.501   4.506   4.110
 1291TIP3    H2 3880   4.400   4.586   4.190
 1292TIP3   OH2 3881   5.512   3.637   3.799
 1292TIP3    H1 3882   5.556   3.561   3.762
 1292TIP3    H2 3883   5.574   3.709   3.787
 1293TIP3   OH2 3884   3.591   5.173   1.482
 1293TIP3    H1 3885   3.616   5.246   1.426
 1293TIP3    H2 3886   3.498   5.160   1.464
 1294TIP3   OH2 3887   4.014   4.271   2.378
 1294TIP3    H1 3888   4.034   4.278   2.472
 1294TIP3    H2 3889   3.988   4.359   2.353
 1295TIP3   OH2 3890   1.008   4.549   2.572
 1295TIP3    H1 3891   0.989   4.607   2.498
 1295TIP3    H2 3892   0.932   4.491   2.576
 1296TIP3   OH2 3893   0.768   3.039   1.470
 1296TIP3    H1 3894   0.762   2.956   1.423
 1296TIP3    H2 3895   0.701   3.033   1.538
 1297TIP3   OH2 3896   5.778   3.034   2.600
 1297TIP3    H1 3897   5.771   2.939   2.586
 1297TIP3    H2 3898   5.855   3.044   2.655
 1298TIP3   OH2 3899   2.086   5.413   2.889
 1298TIP3    H1 3900   2.003   5.386   2.928
 1298TIP3    H2 3901   2.073   5.506   2.867
 1299TIP3   OH2 3902   6.166   4.219   2.502
 1299TIP3    H1 3903   6.127   4.236   2.587
 1299TIP3    H2 3904   6.166   4.124   2.494
 1300TIP3   OH2 3905   4.606   0.390   1.069
 1300TIP3    H1 3906   4.559   0.369   1.150
 1300TIP3    H2 3907   4.694   0.415   1.099
 1301TIP3   OH2 3908   1.445   0.790   2.698
 1301TIP3    H1 3909   1.483   0.709   2.732
 1301TIP3    H2 3910   1.453   0.782   2.603
 1302TIP3   OH2 3911   5.196   3.460   4.090
 1302TIP3    H1 3912   5.277   3.417   4.064
 1302TIP3    H2 3913   5.134   3.388   4.102
 1303TIP3   OH2 3914   1.963   1.907   4.386
 1303TIP3    H1 3915   1.888   1.945   4.340
 1303TIP3    H2 3916   2.030   1.899   4.318
 1304TIP3   OH2 3917   2.361   1.096   0.959
 1304TIP3    H1 3918   2.338   1.159   0.891
 1304TIP3    H2 3919   2.277   1.056   0.984
 1305TIP3   OH2 3920   3.449   1.976   2.605
 1305TIP3    H1 3921   3.403   1.898   2.635
 1305TIP3    H2 3922   3.385   2.024   2.553
 1306TIP3   OH2 3923   5.786   5.315   4.635
 1306TIP3    H1 3924   5.759   5.230   4.669
 1306TIP3    H2 3925   5.880   5.319   4.654
 1307TIP3   OH2 3926   1.598   5.908   2.348
 1307TIP3    H1 3927   1.515   5.873   2.315
 1307TIP3    H2 3928   1.627   5.843   2.412
 1308TIP3   OH2 3929   1.780   3.768   2.027
 1308TIP3    H1 3930   1.765   3.801   1.939
 1308TIP3    H2 3931   1.869   3.798   2.049
 1309TIP3   OH2 3932   0.252   4.821   1.548
 1309TIP3    H1 3933   0.297   4.888   1.496
 1309TIP3    H2 3934   0.220   4.868   1.625
 1310TIP3   OH2 3935   4.168   1.030   4.125
 1310TIP3    H1 3936   4.092   1.006   4.178
 1310TIP3    H2 3937   4.143   1.005   4.035
 1311TIP3   OH2 3938   1.265   0.429   4.304
 1311TIP3    H1 3939   1.271   0.502   4.241
 1311TIP3    H2 3940   1.220   0.467   4.379
 1312TIP3   OH2 3941   4.365   4.935   5.101
 1312TIP3    H1 3942   4.450   4.981   5.106
 1312TIP3    H2 3943   4.329   4.942   5.189
 1313TIP3   OH2 3944   6.181   3.503   1.201
 1313TIP3    H1 3945   6.223   3.584   1.172
 1313TIP3    H2 3946   6.211   3.491   1.291
 1314TIP3   OH2 3947   0.075   2.084   4.734
 1314TIP3    H1 3948  -0.013   2.121   4.737
 1314TIP3    H2 3949   0.133   2.159   4.737
 1315TIP3   OH2 3950   1.981   3.866   0.843
 1315TIP3    H1 3951   1.943   3.816   0.771
 1315TIP3    H2 3952   2.045   3.923   0.801
 1316TIP3   OH2 3953   0.315   2.229   5.132
 1316TIP3    H1 3954   0.305   2.186   5.217
 1316TIP3    H2 3955   0.406   2.214   5.108
 1317TIP3   OH2 3956   2.485   0.489   4.937
 1317TIP3    H1 3957   2.499   0.476   5.031
 1317TIP3    H2 3958   2.515   0.578   4.920
 1318TIP3   OH2 3959   2.783   5.377   3.766
 1318TIP3    H1 3960   2.783   5.401   3.673
 1318TIP3    H2 3961   2.779   5.282   3.767
 1319TIP3   OH2 3962   6.275   3.720   3.128
 1319TIP3    H1 3963   6.253   3.641   3.177
 1319TIP3    H2 3964   6.365   3.741   3.154
 1320TIP3   OH2 3965   5.119   3.722   0.414
 1320TIP3    H1 3966   5.194   3.678   0.373
 1320TIP3    H2 3967   5.108   3.679   0.499
 1321TIP3   OH2 3968   3.437   4.906   3.528
 1321TIP3    H1 3969   3.456   4.999   3.523
 1321TIP3    H2 3970   3.441   4.875   3.437
 1322TIP3   OH2 3971   3.319   0.175   1.316
 1322TIP3    H1 3972   3.368   0.150   1.394
 1322TIP3    H2 3973   3.382   0.225   1.263
 1323TIP3   OH2 3974   4.066   3.388   0.632
 1323TIP3    H1 3975   3.975   3.359   0.633
 1323TIP3    H2 3976   4.061   3.484   0.624
 1324TIP3   OH2 3977   3.461   5.547   1.623
 1324TIP3    H1 3978   3.448   5.633   1.662
 1324TIP3    H2 3979   3.437   5.485   1.693
 1325TIP3   OH2 3980   0.755   4.046   1.725
 1325TIP3    H1 3981   0.824   3.991   1.762
 1325TIP3    H2 3982   0.720   3.995   1.652
 1326TIP3   OH2 3983   3.321   0.688   4.705
 1326TIP3    H1 3984   3.408   0.649   4.699
 1326TIP3    H2 3985   3.283   0.676   4.618
 1327TIP3   OH2 3986   1.107   1.206   3.422
 1327TIP3    H1 3987   1.074   1.260   3.350
 1327TIP3    H2 3988   1.188   1.168   3.389
 1328TIP3   OH2 3989   0.714   1.309   3.239
 1328TIP3    H1 3990   0.733   1.275   3.151
 1328TIP3    H2 3991   0.767   1.254   3.297
 1329TIP3   OH2 3992   2.456   5.057   1.834
 1329TIP3    H1 3993   2.540   5.075   1.791
 1329TIP3    H2 3994   2.404   5.012   1.768
 1330TIP3   OH2 3995   4.606   1.144   3.258
 1330TIP3    H1 3996   4.550   1.206   3.304
 1330TIP3    H2 3997   4.610   1.067   3.315
 1331TIP3   OH2 3998   5.385   1.891   0.931
 1331TIP3    H1 3999   5.444   1.909   1.003
 1331TIP3    H2 4000   5.305   1.939   0.952
 1332TIP3   OH2 4001   3.447   5.011   2.095
 1332TIP3    H1 4002   3.357   5.033   2.119
 1332TIP3    H2 4003   3.438   4.951   2.021
 1333TIP3   OH2 4004   3.023   0.331   1.333
 1333TIP3    H1 4005   2.979   0.252   1.364
 1333TIP3    H2 4006   3.115   0.306   1.327
 1334TIP3   OH2 4007   3.198   0.534   4.125
 1334TIP3    H1 4008   3.207   0.510   4.033
 1334TIP3    H2 4009   3.265   0.484   4.170
 1335TIP3   OH2 4010   5.363   2.616   2.891
 1335TIP3    H1 4011   5.307   2.538   2.893
 1335TIP3    H2 4012   5.322   2.677   2.952
 1336TIP3   OH2 4013   2.238   5.640   4.537
 1336TIP3    H1 4014   2.318   5.592   4.516
 1336TIP3    H2 4015   2.265   5.732   4.540
 1337TIP3   OH2 4016   2.451   0.795   3.287
 1337TIP3    H1 4017   2.442   0.815   3.380
 1337TIP3    H2 4018   2.520   0.854   3.256
 1338TIP3   OH2 4019   5.641   0.606   3.700
 1338TIP3    H1 4020   5.716   0.601   3.641
 1338TIP3    H2 4021   5.638   0.520   3.741
 1339TIP3   OH2 4022   1.310   1.219   1.730
 1339TIP3    H1 4023   1.360   1.162   1.788
 1339TIP3    H2 4024   1.222   1.180   1.728
 1340TIP3   OH2 4025   2.953   5.260   4.328
 1340TIP3    H1 4026   3.009   5.284   4.402
 1340TIP3    H2 4027   2.968   5.328   4.263
 1341TIP3   OH2 4028   5.176   2.273   1.603
 1341TIP3    H1 4029   5.082   2.258   1.612
 1341TIP3    H2 4030   5.209   2.194   1.561
 1342TIP3   OH2 4031   0.870   0.953   2.492
 1342TIP3    H1 4032   0.831   0.865   2.490
 1342TIP3    H2 4033   0.798   1.012   2.472
 1343TIP3   OH2 4034   4.203   4.652   0.712
 1343TIP3    H1 4035   4.128   4.667   0.656
 1343TIP3    H2 4036   4.273   4.704   0.673
 1344TIP3   OH2 4037   2.185   1.781   2.678
 1344TIP3    H1 4038   2.179   1.688   2.657
 1344TIP3    H2 4039   2.157   1.826   2.598
 1345TIP3   OH2 4040   2.891   1.204   2.475
 1345TIP3    H1 4041   2.986   1.189   2.467
 1345TIP3    H2 4042   2.852   1.145   2.411
 1346TIP3   OH2 4043   6.022   0.448   1.021
 1346TIP3    H1 4044   6.075   0.499   1.082
 1346TIP3    H2 4045   6.059   0.469   0.935
 1347TIP3   OH2 4046   3.014   3.562   4.201
 1347TIP3    H1 4047   3.096   3.519   4.177
 1347TIP3    H2 4048   2.978   3.592   4.117
 1348TIP3   OH2 4049   5.586   4.757   1.470
 1348TIP3    H1 4050   5.675   4.722   1.465
 1348TIP3    H2 4051   5.588   4.819   1.542
 1349TIP3   OH2 4052   3.259   4.792   2.234
 1349TIP3    H1 4053   3.203   4.753   2.167
 1349TIP3    H2 4054   3.342   4.745   2.226
 1350TIP3   OH2 4055   4.273   3.354   1.778
 1350TIP3    H1 4056   4.294   3.293   1.707
 1350TIP3    H2 4057   4.233   3.429   1.734
 1351TIP3   OH2 4058   5.537   4.015   4.962
 1351TIP3    H1 4059   5.513   3.951   4.895
 1351TIP3    H2 4060   5.468   4.006   5.028
 1352TIP3   OH2 4061   4.159   5.036   0.205
 1352TIP3    H1 4062   4.242   4.991   0.222
 1352TIP3    H2 4063   4.143   5.021   0.112
 1353TIP3   OH2 4064   5.261   0.439   3.873
 1353TIP3    H1 4065   5.238   0.367   3.933
 1353TIP3    H2 4066   5.352   0.421   3.849
 1354TIP3   OH2 4067   5.523   1.609   3.085
 1354TIP3    H1 4068   5.428   1.610   3.091
 1354TIP3    H2 4069   5.542   1.610   2.991
 1355TIP3   OH2 4070   0.999   5.157   1.880
 1355TIP3    H1 4071   1.020   5.147   1.787
 1355TIP3    H2 4072   1.085   5.163   1.923
 1356TIP3   OH2 4073   5.457   3.842   1.507
 1356TIP3    H1 4074   5.463   3.764   1.453
 1356TIP3    H2 4075   5.366   3.844   1.538
 1357TIP3   OH2 4076   6.050   2.769   4.675
 1357TIP3    H1 4077   6.130   2.727   4.706
 1357TIP3    H2 4078   5.979   2.717   4.715
 1358TIP3   OH2 4079   2.994   1.862   2.632
 1358TIP3    H1 4080   2.998   1.789   2.694
 1358TIP3    H2 4081   3.081   1.864   2.592
 1359TIP3   OH2 4082   5.058   1.718   0.144
 1359TIP3    H1 4083   5.051   1.797   0.198
 1359TIP3    H2 4084   5.133   1.671   0.182
 1360TIP3   OH2 4085   0.451   2.849   0.613
 1360TIP3    H1 4086   0.375   2.874   0.665
 1360TIP3    H2 4087   0.471   2.927   0.561
 1361TIP3   OH2 4088   6.229   3.522   5.054
 1361TIP3    H1 4089   6.293   3.589   5.078
 1361TIP3    H2 4090   6.246   3.504   4.962
 1362TIP3   OH2 4091   2.602   3.462   4.747
 1362TIP3    H1 4092   2.520   3.421   4.722
 1362TIP3    H2 4093   2.627   3.515   4.672
 1363TIP3   OH2 4094   0.831   5.693   0.848
 1363TIP3    H1 4095   0.739   5.711   0.866
 1363TIP3    H2 4096   0.847   5.607   0.886
 1364TIP3   OH2 4097   3.746   5.536   2.289
 1364TIP3    H1 4098   3.714   5.511   2.203
 1364TIP3    H2 4099   3.694   5.613   2.313
 1365TIP3   OH2 4100   5.972   5.200   0.769
 1365TIP3    H1 4101   6.020   5.117   0.775
 1365TIP3    H2 4102   6.013   5.246   0.695
 1366TIP3   OH2 4103   2.414   2.712   0.202
 1366TIP3    H1 4104   2.471   2.673   0.135
 1366TIP3    H2 4105   2.460   2.695   0.284
 1367TIP3   OH2 4106   0.370   2.498   4.010
 1367TIP3    H1 4107   0.456   2.511   3.969
 1367TIP3    H2 4108   0.316   2.461   3.940
 1368TIP3   OH2 4109   2.665   0.468   3.772
 1368TIP3    H1 4110   2.740   0.478   3.713
 1368TIP3    H2 4111   2.695   0.504   3.856
 1369TIP3   OH2 4112   0.614   4.384   0.753
 1369TIP3    H1 4113   0.654   4.382   0.840
 1369TIP3    H2 4114   0.639   4.301   0.712
 1370TIP3   OH2 4115   2.710   4.004   4.749
 1370TIP3    H1 4116   2.777   4.072   4.741
 1370TIP3    H2 4117   2.760   3.922   4.750
 1371TIP3   OH2 4118   4.170   4.375   4.820
 1371TIP3    H1 4119   4.176   4.465   4.788
 1371TIP3    H2 4120   4.107   4.333   4.762
 1372TIP3   OH2 4121   2.819   4.062   1.919
 1372TIP3    H1 4122   2.788   4.038   1.832
 1372TIP3    H2 4123   2.801   3.985   1.973
 1373TIP3   OH2 4124   5.756   5.341   3.278
 1373TIP3    H1 4125   5.757   5.411   3.343
 1373TIP3    H2 4126   5.703   5.271   3.318
 1374TIP3   OH2 4127   3.146   5.323   0.322
 1374TIP3    H1 4128   3.059   5.288   0.341
 1374TIP3    H2 4129   3.142   5.350   0.230
 1375TIP3   OH2 4130   4.729   5.724   0.860
 1375TIP3    H1 4131   4.656   5.724   0.923
 1375TIP3    H2 4132   4.759   5.633   0.859
 1376TIP3   OH2 4133   5.297   4.024   4.545
 1376TIP3    H1 4134   5.354   3.949   4.566
 1376TIP3    H2 4135   5.337   4.062   4.467
 1377TIP3   OH2 4136   2.703   1.903   3.115
 1377TIP3    H1 4137   2.775   1.930   3.058
 1377TIP3    H2 4138   2.709   1.808   3.120
 1378TIP3   OH2 4139   6.312   2.492   0.729
 1378TIP3    H1 4140   6.384   2.510   0.789
 1378TIP3    H2 4141   6.314   2.564   0.666
 1379TIP3   OH2 4142   3.832   0.644   2.446
 1379TIP3    H1 4143   3.883   0.575   2.489
 1379TIP3    H2 4144   3.827   0.714   2.511
 1380TIP3   OH2 4145   4.827   0.060   1.734
 1380TIP3    H1 4146   4.779   0.056   1.816
 1380TIP3    H2 4147   4.774   0.117   1.678
 1381TIP3   OH2 4148   6.049   3.693   5.170
 1381TIP3    H1 4149   6.109   3.624   5.143
 1381TIP3    H2 4150   5.979   3.648   5.218
 1382TIP3   OH2 4151   4.970   5.142   0.540
 1382TIP3    H1 4152   4.964   5.076   0.610
 1382TIP3    H2 4153   4.986   5.091   0.461
 1383TIP3   OH2 4154   5.522   1.930   2.836
 1383TIP3    H1 4155   5.520   1.978   2.919
 1383TIP3    H2 4156   5.458   1.859   2.848
 1384TIP3   OH2 4157   4.571   3.275   2.238
 1384TIP3    H1 4158   4.491   3.309   2.277
 1384TIP3    H2 4159   4.631   3.265   2.313
 1385TIP3   OH2 4160   3.501   1.546   3.436
 1385TIP3    H1 4161   3.416   1.564   3.477
 1385TIP3    H2 4162   3.565   1.583   3.497
 1386TIP3   OH2 4163   4.549   5.873   1.394
 1386TIP3    H1 4164   4.482   5.932   1.429
 1386TIP3    H2 4165   4.522   5.786   1.424
 1387TIP3   OH2 4166   3.943   1.820   5.122
 1387TIP3    H1 4167   3.978   1.792   5.206
 1387TIP3    H2 4168   4.010   1.795   5.058
 1388TIP3   OH2 4169   1.698   5.173   1.089
 1388TIP3    H1 4170   1.702   5.133   1.176
 1388TIP3    H2 4171   1.789   5.199   1.070
 1389TIP3   OH2 4172   2.367   4.104   1.611
 1389TIP3    H1 4173   2.399   4.102   1.701
 1389TIP3    H2 4174   2.320   4.187   1.604
 1390TIP3   OH2 4175   0.747   3.530   2.408
 1390TIP3    H1 4176   0.693   3.510   2.331
 1390TIP3    H2 4177   0.813   3.591   2.376
 1391TIP3   OH2 4178   4.944   2.468   4.092
 1391TIP3    H1 4179   4.938   2.403   4.161
 1391TIP3    H2 4180   4.931   2.419   4.011
 1392TIP3   OH2 4181   6.166   0.127   4.460
 1392TIP3    H1 4182   6.260   0.143   4.461
 1392TIP3    H2 4183   6.152   0.064   4.531
 1393TIP3   OH2 4184   0.534   1.585   0.151
 1393TIP3    H1 4185   0.447   1.584   0.111
 1393TIP3    H2 4186   0.545   1.496   0.186
 1394TIP3   OH2 4187   5.348   5.077   0.803
 1394TIP3    H1 4188   5.425   5.062   0.859
 1394TIP3    H2 4189   5.303   5.150   0.844
 1395TIP3   OH2 4190   4.547   1.119   2.623
 1395TIP3    H1 4191   4.508   1.159   2.701
 1395TIP3    H2 4192   4.549   1.190   2.558
 1396TIP3   OH2 4193   4.810   4.500   3.972
 1396TIP3    H1 4194   4.758   4.511   4.052
 1396TIP3    H2 4195   4.887   4.555   3.987
 1397TIP3   OH2 4196   3.254   4.076   3.303
 1397TIP3    H1 4197   3.224   4.164   3.328
 1397TIP3    H2 4198   3.181   4.041   3.251
 1398TIP3   OH2 4199   3.925   0.217   1.074
 1398TIP3    H1 4200   4.004   0.204   1.126
 1398TIP3    H2 4201   3.873   0.138   1.089
 1399TIP3   OH2 4202   3.244   5.151   2.285
 1399TIP3    H1 4203   3.152   5.165   2.267
 1399TIP3    H2 4204   3.246   5.088   2.357
 1400TIP3   OH2 4205   5.280   4.136   2.889
 1400TIP3    H1 4206   5.252   4.220   2.853
 1400TIP3    H2 4207   5.258   4.073   2.820
 1401TIP3   OH2 4208   0.521   1.758   1.966
 1401TIP3    H1 4209   0.553   1.672   1.939
 1401TIP3    H2 4210   0.556   1.818   1.900
 1402TIP3   OH2 4211   3.870   3.051   4.342
 1402TIP3    H1 4212   3.888   3.113   4.412
 1402TIP3    H2 4213   3.957   3.024   4.311
 1403TIP3   OH2 4214   5.743   3.724   2.474
 1403TIP3    H1 4215   5.784   3.672   2.406
 1403TIP3    H2 4216   5.727   3.663   2.546
 1404TIP3   OH2 4217   4.963   1.351   0.566
 1404TIP3    H1 4218   4.944   1.399   0.647
 1404TIP3    H2 4219   4.898   1.280   0.564
 1405TIP3   OH2 4220   4.160   2.486   2.261
 1405TIP3    H1 4221   4.198   2.469   2.347
 1405TIP3    H2 4222   4.188   2.574   2.238
 1406TIP3   OH2 4223   6.178   3.899   2.302
 1406TIP3    H1 4224   6.156   3.835   2.370
 1406TIP3    H2 4225   6.095   3.921   2.261
 1407TIP3   OH2 4226   2.424   3.467   2.952
 1407TIP3    H1 4227   2.364   3.471   3.027
 1407TIP3    H2 4228   2.448   3.375   2.945
 1408TIP3   OH2 4229   5.659   3.552   5.009
 1408TIP3    H1 4230   5.729   3.559   5.074
 1408TIP3    H2 4231   5.702   3.566   4.925
 1409TIP3   OH2 4232   2.577   5.731   4.779
 1409TIP3    H1 4233   2.658   5.717   4.828
 1409TIP3    H2 4234   2.574   5.659   4.716
 1410TIP3   OH2 4235   0.735   2.636   0.340
 1410TIP3    H1 4236   0.773   2.610   0.423
 1410TIP3    H2 4237   0.771   2.574   0.276
 1411TIP3   OH2 4238   1.246   3.926   0.431
 1411TIP3    H1 4239   1.169   3.959   0.385
 1411TIP3    H2 4240   1.223   3.838   0.458
 1412TIP3   OH2 4241   2.033   5.364   0.593
 1412TIP3    H1 4242   2.001   5.352   0.503
 1412TIP3    H2 4243   2.125   5.391   0.582
 1413TIP3   OH2 4244   2.343   1.199   4.365
 1413TIP3    H1 4245   2.419   1.145   4.345
 1413TIP3    H2 4246   2.378   1.287   4.380
 1414TIP3   OH2 4247   4.606   5.417   2.703
 1414TIP3    H1 4248   4.554   5.337   2.712
 1414TIP3    H2 4249   4.541   5.487   2.703
 1415TIP3   OH2 4250   2.197   0.376   3.340
 1415TIP3    H1 4251   2.216   0.358   3.248
 1415TIP3    H2 4252   2.114   0.424   3.337
 1416TIP3   OH2 4253   1.965   2.754   3.498
 1416TIP3    H1 4254   1.905   2.685   3.525
 1416TIP3    H2 4255   1.916   2.835   3.510
 1417TIP3   OH2 4256   3.989   5.308   3.661
 1417TIP3    H1 4257   4.072   5.280   3.698
 1417TIP3    H2 4258   3.962   5.382   3.716
 1418TIP3   OH2 4259   1.951   0.666   3.613
 1418TIP3    H1 4260   1.880   0.703   3.666
 1418TIP3    H2 4261   2.030   0.708   3.646
 1419TIP3   OH2 4262   4.151   4.921   2.272
 1419TIP3    H1 4263   4.078   4.983   2.270
 1419TIP3    H2 4264   4.115   4.842   2.311
 1420TIP3   OH2 4265   0.229   5.711   1.953
 1420TIP3    H1 4266   0.300   5.716   1.889
 1420TIP3    H2 4267   0.272   5.724   2.037
 1421TIP3   OH2 4268   5.981   2.279   3.537
 1421TIP3    H1 4269   6.040   2.288   3.462
 1421TIP3    H2 4270   5.896   2.310   3.504
 1422TIP3   OH2 4271   1.041   1.893   2.114
 1422TIP3    H1 4272   1.067   1.884   2.023
 1422TIP3    H2 4273   1.077   1.977   2.141
 1423TIP3   OH2 4274   5.694   0.544   0.511
 1423TIP3    H1 4275   5.771   0.600   0.501
 1423TIP3    H2 4276   5.621   0.605   0.524
 1424TIP3   OH2 4277   2.467   0.695   3.910
 1424TIP3    H1 4278   2.402   0.629   3.935
 1424TIP3    H2 4279   2.551   0.655   3.931
 1425TIP3   OH2 4280   5.544   2.658   1.318
 1425TIP3    H1 4281   5.472   2.595   1.326
 1425TIP3    H2 4282   5.623   2.605   1.325
 1426TIP3   OH2 4283   2.198   1.381   2.377
 1426TIP3    H1 4284   2.268   1.373   2.313
 1426TIP3    H2 4285   2.143   1.303   2.362
 1427TIP3   OH2 4286   3.379   2.205   1.202
 1427TIP3    H1 4287   3.425   2.215   1.119
 1427TIP3    H2 4288   3.301   2.153   1.180
 1428TIP3   OH2 4289   5.575   4.222   2.321
 1428TIP3    H1 4290   5.530   4.249   2.241
 1428TIP3    H2 4291   5.517   4.249   2.392
 1429TIP3   OH2 4292   5.000   0.652   2.473
 1429TIP3    H1 4293   5.084   0.673   2.514
 1429TIP3    H2 4294   4.966   0.737   2.445
 1430TIP3   OH2 4295   2.501   2.294   1.182
 1430TIP3    H1 4296   2.555   2.333   1.251
 1430TIP3    H2 4297   2.516   2.200   1.190
 1431TIP3   OH2 4298   3.732   5.827   2.115
 1431TIP3    H1 4299   3.767   5.914   2.130
 1431TIP3    H2 4300   3.700   5.799   2.201
 1432TIP3   OH2 4301   0.346   2.616   4.268
 1432TIP3    H1 4302   0.331   2.533   4.314
 1432TIP3    H2 4303   0.356   2.592   4.176
 1433TIP3   OH2 4304   0.545   5.030   0.020
 1433TIP3    H1 4305   0.513   5.113  -0.017
 1433TIP3    H2 4306   0.476   4.967   0.001
 1434TIP3   OH2 4307   4.986   5.318   2.223
 1434TIP3    H1 4308   5.075   5.334   2.192
 1434TIP3    H2 4309   4.946   5.405   2.225
 1435TIP3   OH2 4310   3.340   0.801   1.405
 1435TIP3    H1 4311   3.412   0.841   1.453
 1435TIP3    H2 4312   3.361   0.816   1.313
 1436TIP3   OH2 4313   5.085   3.160   3.029
 1436TIP3    H1 4314   5.045   3.192   3.110
 1436TIP3    H2 4315   5.172   3.129   3.057
 1437TIP3   OH2 4316   1.248   1.648   4.242
 1437TIP3    H1 4317   1.201   1.699   4.177
 1437TIP3    H2 4318   1.205   1.668   4.325
 1438TIP3   OH2 4319   1.444   0.748   2.431
 1438TIP3    H1 4320   1.481   0.686   2.367
 1438TIP3    H2 4321   1.451   0.833   2.388
 1439TIP3   OH2 4322   4.067   0.285   3.058
 1439TIP3    H1 4323   3.984   0.312   3.098
 1439TIP3    H2 4324   4.058   0.191   3.044
 1440TIP3   OH2 4325   3.648   5.368   1.293
 1440TIP3    H1 4326   3.612   5.436   1.236
 1440TIP3    H2 4327   3.686   5.304   1.233
 1441TIP3   OH2 4328   3.201   5.660   1.056
 1441TIP3    H1 4329   3.238   5.692   0.973
 1441TIP3    H2 4330   3.183   5.568   1.040
 1442TIP3   OH2 4331   5.603   1.031   0.992
 1442TIP3    H1 4332   5.613   1.120   0.958
 1442TIP3    H2 4333   5.685   0.988   0.970
 1443TIP3   OH2 4334   2.600   5.410   0.551
 1443TIP3    H1 4335   2.583   5.343   0.616
 1443TIP3    H2 4336   2.607   5.362   0.468
 1444TIP3   OH2 4337   2.760   5.524   0.880
 1444TIP3    H1 4338   2.783   5.541   0.972
 1444TIP3    H2 4339   2.771   5.608   0.836
 1445TIP3   OH2 4340   2.984   4.107   0.906
 1445TIP3    H1 4341   2.895   4.103   0.941
 1445TIP3    H2 4342   2.972   4.103   0.811
 1446TIP3   OH2 4343   4.627   1.707   3.442
 1446TIP3    H1 4344   4.535   1.681   3.440
 1446TIP3    H2 4345   4.640   1.743   3.529
 1447TIP3   OH2 4346   1.249   4.006   4.674
 1447TIP3    H1 4347   1.316   4.014   4.607
 1447TIP3    H2 4348   1.238   4.094   4.709
 1448TIP3   OH2 4349   6.122   5.081   3.402
 1448TIP3    H1 4350   6.217   5.071   3.412
 1448TIP3    H2 4351   6.086   5.002   3.441
 1449TIP3   OH2 4352   5.085   1.088   4.066
 1449TIP3    H1 4353   5.141   1.152   4.022
 1449TIP3    H2 4354   5.055   1.133   4.145
 1450TIP3   OH2 4355   1.530   3.192   0.155
 1450TIP3    H1 4356   1.576   3.141   0.088
 1450TIP3    H2 4357   1.597   3.251   0.189
 1451TIP3   OH2 4358   5.315   2.190   1.261
 1451TIP3    H1 4359   5.341   2.208   1.171
 1451TIP3    H2 4360   5.225   2.159   1.255
 1452TIP3   OH2 4361   2.331   0.972   2.457
 1452TIP3    H1 4362   2.262   1.020   2.410
 1452TIP3    H2 4363   2.410   0.988   2.405
 1453TIP3   OH2 4364   1.856   4.581   3.637
 1453TIP3    H1 4365   1.932   4.540   3.597
 1453TIP3    H2 4366   1.811   4.510   3.683
 1454TIP3   OH2 4367   3.194   5.382   1.132
 1454TIP3    H1 4368   3.140   5.326   1.189
 1454TIP3    H2 4369   3.267   5.408   1.187
 1455TIP3   OH2 4370   4.457   2.019   0.661
 1455TIP3    H1 4371   4.380   2.047   0.612
 1455TIP3    H2 4372   4.435   2.038   0.753
 1456TIP3   OH2 4373   1.417   2.918   5.134
 1456TIP3    H1 4374   1.476   2.877   5.197
 1456TIP3    H2 4375   1.447   3.009   5.129
 1457TIP3   OH2 4376   3.367   2.393   1.393
 1457TIP3    H1 4377   3.435   2.380   1.458
 1457TIP3    H2 4378   3.388   2.330   1.323
 1458TIP3   OH2 4379   0.143   5.727   1.373
 1458TIP3    H1 4380   0.189   5.734   1.456
 1458TIP3    H2 4381   0.169   5.806   1.324
 1459TIP3   OH2 4382   4.686   0.167   2.876
 1459TIP3    H1 4383   4.717   0.076   2.882
 1459TIP3    H2 4384   4.649   0.185   2.963
 1460TIP3   OH2 4385   2.493   1.431   3.996
 1460TIP3    H1 4386   2.473   1.501   3.933
 1460TIP3    H2 4387   2.438   1.358   3.968
 1461TIP3   OH2 4388   0.769   4.679   5.070
 1461TIP3    H1 4389   0.777   4.689   5.165
 1461TIP3    H2 4390   0.725   4.595   5.059
 1462TIP3   OH2 4391   0.002   2.899   4.042
 1462TIP3    H1 4392   0.047   2.873   3.962
 1462TIP3    H2 4393   0.005   2.995   4.042
 1463TIP3   OH2 4394   3.352   2.424   4.121
 1463TIP3    H1 4395   3.261   2.441   4.143
 1463TIP3    H2 4396   3.377   2.350   4.177
 1464TIP3   OH2 4397   3.291   0.919   0.127
 1464TIP3    H1 4398   3.349   0.882   0.194
 1464TIP3    H2 4399   3.286   0.851   0.059
 1465TIP3   OH2 4400   5.971   4.743   1.073
 1465TIP3    H1 4401   5.896   4.751   1.132
 1465TIP3    H2 4402   6.013   4.828   1.075
 1466TIP3   OH2 4403   6.363   3.719   2.627
 1466TIP3    H1 4404   6.327   3.702   2.714
 1466TIP3    H2 4405   6.316   3.797   2.597
 1467TIP3   OH2 4406   2.119   1.860   3.184
 1467TIP3    H1 4407   2.045   1.879   3.241
 1467TIP3    H2 4408   2.080   1.844   3.098
 1468TIP3   OH2 4409   0.542   4.569   3.722
 1468TIP3    H1 4410   0.637   4.578   3.727
 1468TIP3    H2 4411   0.528   4.506   3.651
 1469TIP3   OH2 4412   1.799   5.137   4.646
 1469TIP3    H1 4413   1.800   5.231   4.667
 1469TIP3    H2 4414   1.885   5.120   4.607
 1470TIP3   OH2 4415   0.414   4.754   0.668
 1470TIP3    H1 4416   0.365   4.825   0.709
 1470TIP3    H2 4417   0.500   4.792   0.649
 1471TIP3   OH2 4418   0.094   5.379   0.386
 1471TIP3    H1 4419   0.021   5.326   0.418
 1471TIP3    H2 4420   0.057   5.428   0.312
 1472TIP3   OH2 4421   0.577   5.646   1.247
 1472TIP3    H1 4422   0.484   5.641   1.222
 1472TIP3    H2 4423   0.577   5.625   1.340
 1473TIP3   OH2 4424   6.076   0.353   4.684
 1473TIP3    H1 4425   6.099   0.434   4.639
 1473TIP3    H2 4426   6.131   0.286   4.643
 1474TIP3   OH2 4427   1.354   1.681   1.348
 1474TIP3    H1 4428   1.281   1.647   1.296
 1474TIP3    H2 4429   1.415   1.607   1.356
 1475TIP3   OH2 4430   2.462   4.120   4.767
 1475TIP3    H1 4431   2.447   4.121   4.861
 1475TIP3    H2 4432   2.553   4.093   4.757
 1476TIP3   OH2 4433   4.860   1.102   2.593
 1476TIP3    H1 4434   4.765   1.104   2.606
 1476TIP3    H2 4435   4.872   1.051   2.513
 1477TIP3   OH2 4436   1.291   2.580   1.453
 1477TIP3    H1 4437   1.322   2.662   1.416
 1477TIP3    H2 4438   1.316   2.513   1.389
 1478TIP3   OH2 4439   1.758   3.545   0.392
 1478TIP3    H1 4440   1.809   3.587   0.323
 1478TIP3    H2 4441   1.786   3.587   0.472
 1479TIP3   OH2 4442   4.043   1.480   1.917
 1479TIP3    H1 4443   4.066   1.481   2.010
 1479TIP3    H2 4444   4.042   1.571   1.891
 1480TIP3   OH2 4445   4.257   2.487   2.571
 1480TIP3    H1 4446   4.189   2.523   2.627
 1480TIP3    H2 4447   4.237   2.394   2.564
 1481TIP3   OH2 4448   4.981   2.062   2.303
 1481TIP3    H1 4449   5.027   2.027   2.227
 1481TIP3    H2 4450   4.933   2.138   2.269
 1482TIP3   OH2 4451   4.046   2.752   4.147
 1482TIP3    H1 4452   3.988   2.690   4.190
 1482TIP3    H2 4453   4.049   2.723   4.056
 1483TIP3   OH2 4454   2.824   0.478   4.427
 1483TIP3    H1 4455   2.836   0.528   4.346
 1483TIP3    H2 4456   2.912   0.475   4.466
 1484TIP3   OH2 4457   0.951   4.674   1.859
 1484TIP3    H1 4458   0.974   4.696   1.949
 1484TIP3    H2 4459   0.968   4.753   1.808
 1485TIP3   OH2 4460   2.700   0.942   3.279
 1485TIP3    H1 4461   2.743   1.023   3.255
 1485TIP3    H2 4462   2.702   0.941   3.375
 1486TIP3   OH2 4463   2.244   0.602   4.103
 1486TIP3    H1 4464   2.154   0.614   4.135
 1486TIP3    H2 4465   2.285   0.546   4.169
 1487TIP3   OH2 4466   3.619   1.771   3.576
 1487TIP3    H1 4467   3.685   1.775   3.645
 1487TIP3    H2 4468   3.561   1.845   3.593
 1488TIP3   OH2 4469   5.923   4.493   0.985
 1488TIP3    H1 4470   5.931   4.577   1.030
 1488TIP3    H2 4471   5.975   4.503   0.905
 1489TIP3   OH2 4472   3.037   0.071   1.714
 1489TIP3    H1 4473   2.950   0.101   1.689
 1489TIP3    H2 4474   3.089   0.151   1.725
 1490TIP3   OH2 4475   0.437   0.435   3.039
 1490TIP3    H1 4476   0.489   0.358   3.016
 1490TIP3    H2 4477   0.388   0.455   2.959
 1491TIP3   OH2 4478   0.336   4.454   1.704
 1491TIP3    H1 4479   0.396   4.519   1.741
 1491TIP3    H2 4480   0.248   4.489   1.722
 1492TIP3   OH2 4481   2.334   4.557   3.140
 1492TIP3    H1 4482   2.364   4.488   3.081
 1492TIP3    H2 4483   2.402   4.624   3.135
 1493TIP3   OH2 4484   3.155   1.672   1.956
 1493TIP3    H1 4485   3.134   1.755   1.913
 1493TIP3    H2 4486   3.094   1.667   2.029
 1494TIP3   OH2 4487   5.788   3.712   0.435
 1494TIP3    H1 4488   5.761   3.736   0.524
 1494TIP3    H2 4489   5.760   3.621   0.425
 1495TIP3   OH2 4490   4.350   0.857   2.849
 1495TIP3    H1 4491   4.290   0.805   2.902
 1495TIP3    H2 4492   4.387   0.795   2.786
 1496TIP3   OH2 4493   6.289   3.323   0.842
 1496TIP3    H1 4494   6.276   3.314   0.747
 1496TIP3    H2 4495   6.383   3.317   0.854
 1497TIP3   OH2 4496   5.606   5.736   3.363
 1497TIP3    H1 4497   5.640   5.668   3.421
 1497TIP3    H2 4498   5.516   5.749   3.393
 1498TIP3   OH2 4499   2.603   2.529   4.780
 1498TIP3    H1 4500   2.530   2.538   4.842
 1498TIP3    H2 4501   2.564   2.488   4.703
 1499TIP3   OH2 4502   4.771   3.205   0.647
 1499TIP3    H1 4503   4.760   3.261   0.570
 1499TIP3    H2 4504   4.804   3.265   0.715
 1500TIP3   OH2 4505   3.638   4.274   3.886
 1500TIP3    H1 4506   3.573   4.255   3.954
 1500TIP3    H2 4507   3.616   4.363   3.857
 1501TIP3   OH2 4508   4.082   1.751   1.636
 1501TIP3    H1 4509   3.989   1.742   1.655
 1501TIP3    H2 4510   4.088   1.833   1.588
 1502TIP3   OH2 4511   5.734   5.048   4.007
 1502TIP3    H1 4512   5.829   5.062   4.006
 1502TIP3    H2 4513   5.715   5.019   4.096
 1503TIP3   OH2 4514   4.990   0.568   0.017
 1503TIP3    H1 4515   5.034   0.630   0.076
 1503TIP3    H2 4516   5.011   0.482   0.053
 1504TIP3   OH2 4517   2.026   0.125   0.270
 1504TIP3    H1 4518   1.996   0.212   0.300
 1504TIP3    H2 4519   1.999   0.066   0.340
 1505TIP3   OH2 4520   3.383   1.101   1.970
 1505TIP3    H1 4521   3.400   1.143   1.886
 1505TIP3    H2 4522   3.346   1.016   1.947
 1506TIP3   OH2 4523   3.823   5.690   1.875
 1506TIP3    H1 4524   3.802   5.610   1.826
 1506TIP3    H2 4525   3.740   5.716   1.915
 1507TIP3   OH2 4526   4.186   4.469   1.508
 1507TIP3    H1 4527   4.277   4.497   1.510
 1507TIP3    H2 4528   4.154   4.500   1.423
 1508TIP3   OH2 4529   5.549   0.500   2.577
 1508TIP3    H1 4530   5.504   0.482   2.659
 1508TIP3    H2 4531   5.543   0.419   2.527
 1509TIP3   OH2 4532   3.819   3.859   0.740
 1509TIP3    H1 4533   3.895   3.907   0.773
 1509TIP3    H2 4534   3.757   3.927   0.715
 1510TIP3   OH2 4535   5.246   5.963   0.812
 1510TIP3    H1 4536   5.200   5.919   0.883
 1510TIP3    H2 4537   5.185   5.962   0.739
 1511TIP3   OH2 4538   1.828   0.150   4.369
 1511TIP3    H1 4539   1.810   0.214   4.300
 1511TIP3    H2 4540   1.880   0.199   4.434
 1512TIP3   OH2 4541   4.282   4.214   2.628
 1512TIP3    H1 4542   4.188   4.233   2.637
 1512TIP3    H2 4543   4.320   4.239   2.712
 1513TIP3   OH2 4544   5.216   2.527   3.271
 1513TIP3    H1 4545   5.239   2.434   3.282
 1513TIP3    H2 4546   5.124   2.531   3.299
 1514TIP3   OH2 4547   3.681   2.585   1.304
 1514TIP3    H1 4548   3.776   2.591   1.302
 1514TIP3    H2 4549   3.661   2.510   1.359
 1515TIP3   OH2 4550   0.670   4.776   1.604
 1515TIP3    H1 4551   0.700   4.717   1.535
 1515TIP3    H2 4552   0.748   4.828   1.626
 1516TIP3   OH2 4553   3.881   2.687   1.872
 1516TIP3    H1 4554   3.964   2.729   1.854
 1516TIP3    H2 4555   3.825   2.708   1.797
 1517TIP3   OH2 4556   4.846   1.050   3.087
 1517TIP3    H1 4557   4.763   1.048   3.135
 1517TIP3    H2 4558   4.832   0.992   3.012
 1518TIP3   OH2 4559   1.624   0.155   0.366
 1518TIP3    H1 4560   1.656   0.075   0.324
 1518TIP3    H2 4561   1.704   0.202   0.389
 1519TIP3   OH2 4562   5.288   1.661   3.205
 1519TIP3    H1 4563   5.212   1.654   3.148
 1519TIP3    H2 4564   5.252   1.651   3.294
 1520TIP3   OH2 4565   4.051   2.943   4.557
 1520TIP3    H1 4566   3.962   2.911   4.544
 1520TIP3    H2 4567   4.051   2.981   4.645
 1521TIP3   OH2 4568   5.952   0.889   1.257
 1521TIP3    H1 4569   5.865   0.859   1.233
 1521TIP3    H2 4570   5.936   0.956   1.325
 1522TIP3   OH2 4571   1.921   2.741   4.209
 1522TIP3    H1 4572   1.832   2.739   4.172
 1522TIP3    H2 4573   1.931   2.656   4.253
 1523TIP3   OH2 4574   5.841   1.634   2.602
 1523TIP3    H1 4575   5.776   1.625   2.533
 1523TIP3    H2 4576   5.819   1.717   2.645
 1524TIP3   OH2 4577   6.328   1.110   5.114
 1524TIP3    H1 4578   6.263   1.170   5.151
 1524TIP3    H2 4579   6.296   1.093   5.025
 1525TIP3   OH2 4580   4.264   2.896   3.893
 1525TIP3    H1 4581   4.228   2.808   3.905
 1525TIP3    H2 4582   4.188   2.953   3.885
 1526TIP3   OH2 4583   2.113   0.995   1.082
 1526TIP3    H1 4584   2.175   0.969   1.150
 1526TIP3    H2 4585   2.028   0.990   1.124
 1527TIP3   OH2 4586   2.752   0.324   0.496
 1527TIP3    H1 4587   2.844   0.316   0.471
 1527TIP3    H2 4588   2.725   0.409   0.461
 1528TIP3   OH2 4589   1.962   3.561   0.604
 1528TIP3    H1 4590   1.999   3.483   0.564
 1528TIP3    H2 4591   1.951   3.539   0.697
 1529TIP3   OH2 4592   4.956   5.619   3.925
 1529TIP3    H1 4593   5.000   5.553   3.872
 1529TIP3    H2 4594   5.018   5.692   3.929
 1530TIP3   OH2 4595   0.249   4.675   4.550
 1530TIP3    H1 4596   0.282   4.663   4.461
 1530TIP3    H2 4597   0.290   4.757   4.579
 1531TIP3   OH2 4598   4.707   0.609   3.641
 1531TIP3    H1 4599   4.773   0.549   3.677
 1531TIP3    H2 4600   4.728   0.614   3.548
 1532TIP3   OH2 4601   4.977   1.579   4.097
 1532TIP3    H1 4602   4.946   1.662   4.134
 1532TIP3    H2 4603   5.047   1.604   4.036
 1533TIP3   OH2 4604   4.360   4.463   3.558
 1533TIP3    H1 4605   4.286   4.442   3.614
 1533TIP3    H2 4606   4.376   4.383   3.508
 1534TIP3   OH2 4607   1.051   1.121   2.061
 1534TIP3    H1 4608   1.083   1.205   2.029
 1534TIP3    H2 4609   1.048   1.065   1.983
 1535TIP3   OH2 4610   2.906   0.984   0.274
 1535TIP3    H1 4611   2.964   1.039   0.222
 1535TIP3    H2 4612   2.822   1.031   0.274
 1536TIP3   OH2 4613   5.077   0.194   1.729
 1536TIP3    H1 4614   4.998   0.143   1.710
 1536TIP3    H2 4615   5.088   0.250   1.652
 1537TIP3   OH2 4616   0.900   3.448   0.451
 1537TIP3    H1 4617   0.810   3.433   0.423
 1537TIP3    H2 4618   0.920   3.373   0.508
 1538TIP3   OH2 4619   1.224   1.158   1.341
 1538TIP3    H1 4620   1.312   1.169   1.306
 1538TIP3    H2 4621   1.219   1.066   1.366
 1539TIP3   OH2 4622   4.571   2.864   1.111
 1539TIP3    H1 4623   4.481   2.853   1.081
 1539TIP3    H2 4624   4.615   2.909   1.038
 1540TIP3   OH2 4625   5.793   4.381   4.148
 1540TIP3    H1 4626   5.732   4.400   4.219
 1540TIP3    H2 4627   5.775   4.447   4.081
 1541TIP3   OH2 4628   4.914   4.752   2.459
 1541TIP3    H1 4629   4.899   4.664   2.427
 1541TIP3    H2 4630   5.002   4.775   2.427
 1542TIP3   OH2 4631   4.305   3.661   5.150
 1542TIP3    H1 4632   4.244   3.693   5.084
 1542TIP3    H2 4633   4.392   3.685   5.116
 1543TIP3   OH2 4634   4.169   5.628   2.313
 1543TIP3    H1 4635   4.210   5.629   2.226
 1543TIP3    H2 4636   4.153   5.720   2.332
 1544TIP3   OH2 4637   0.714   5.730   2.257
 1544TIP3    H1 4638   0.763   5.806   2.287
 1544TIP3    H2 4639   0.661   5.763   2.184
 1545TIP3   OH2 4640   0.066   3.658   4.655
 1545TIP3    H1 4641   0.049   3.575   4.610
 1545TIP3    H2 4642  -0.011   3.712   4.635
 1546TIP3   OH2 4643   2.193   4.231   0.588
 1546TIP3    H1 4644   2.257   4.208   0.520
 1546TIP3    H2 4645   2.135   4.295   0.546
 1547TIP3   OH2 4646   5.952   5.428   4.446
 1547TIP3    H1 4647   6.023   5.376   4.409
 1547TIP3    H2 4648   5.890   5.364   4.482
 1548TIP3   OH2 4649   3.105   5.008   1.308
 1548TIP3    H1 4650   3.029   5.043   1.355
 1548TIP3    H2 4651   3.081   5.013   1.216
 1549TIP3   OH2 4652   3.778   4.428   0.633
 1549TIP3    H1 4653   3.870   4.453   0.635
 1549TIP3    H2 4654   3.730   4.511   0.626
 1550TIP3   OH2 4655   3.409   5.194   4.194
 1550TIP3    H1 4656   3.440   5.154   4.113
 1550TIP3    H2 4657   3.486   5.196   4.250
 1551TIP3   OH2 4658   4.931   4.900   1.571
 1551TIP3    H1 4659   4.980   4.975   1.604
 1551TIP3    H2 4660   4.861   4.938   1.518
 1552TIP3   OH2 4661   3.139   3.453   0.498
 1552TIP3    H1 4662   3.068   3.424   0.442
 1552TIP3    H2 4663   3.208   3.388   0.486
 1553TIP3   OH2 4664   0.574   0.684   3.119
 1553TIP3    H1 4665   0.588   0.631   3.197
 1553TIP3    H2 4666   0.522   0.629   3.060
 1554TIP3   OH2 4667   5.062   3.291   0.765
 1554TIP3    H1 4668   5.014   3.351   0.821
 1554TIP3    H2 4669   5.066   3.335   0.680
 1555TIP3   OH2 4670   4.030   3.733   0.010
 1555TIP3    H1 4671   4.012   3.709   0.101
 1555TIP3    H2 4672   4.124   3.718   0.000
 1556TIP3   OH2 4673   1.901   1.262   3.279
 1556TIP3    H1 4674   1.809   1.274   3.256
 1556TIP3    H2 4675   1.908   1.294   3.369
 1557TIP3   OH2 4676   5.340   1.294   2.087
 1557TIP3    H1 4677   5.369   1.284   1.997
 1557TIP3    H2 4678   5.393   1.231   2.136
 1558TIP3   OH2 4679   1.790   2.401   0.205
 1558TIP3    H1 4680   1.783   2.306   0.208
 1558TIP3    H2 4681   1.883   2.419   0.222
 1559TIP3   OH2 4682   1.240   4.607   1.137
 1559TIP3    H1 4683   1.326   4.567   1.151
 1559TIP3    H2 4684   1.236   4.677   1.202
 1560TIP3   OH2 4685   4.825   1.897   4.426
 1560TIP3    H1 4686   4.765   1.830   4.393
 1560TIP3    H2 4687   4.850   1.866   4.513
 1561TIP3   OH2 4688   3.525   0.383   3.679
 1561TIP3    H1 4689   3.544   0.462   3.729
 1561TIP3    H2 4690   3.476   0.327   3.739
 1562TIP3   OH2 4691   1.514   4.225   3.729
 1562TIP3    H1 4692   1.484   4.314   3.711
 1562TIP3    H2 4693   1.527   4.186   3.643
 1563TIP3   OH2 4694   3.777   1.164   2.879
 1563TIP3    H1 4695   3.690   1.152   2.918
 1563TIP3    H2 4696   3.837   1.126   2.943
 1564TIP3   OH2 4697   4.960   0.680   4.060
 1564TIP3    H1 4698   4.948   0.707   3.969
 1564TIP3    H2 4699   4.903   0.738   4.110
 1565TIP3   OH2 4700   5.266   3.781   1.983
 1565TIP3    H1 4701   5.336   3.776   1.918
 1565TIP3    H2 4702   5.190   3.744   1.940
 1566TIP3   OH2 4703   0.207   4.016   3.043
 1566TIP3    H1 4704   0.272   4.068   3.091
 1566TIP3    H2 4705   0.195   3.937   3.096
 1567TIP3   OH2 4706   3.963   1.399   2.521
 1567TIP3    H1 4707   4.033   1.448   2.564
 1567TIP3    H2 4708   3.884   1.422   2.570
 1568TIP3   OH2 4709   1.983   3.002   4.736
 1568TIP3    H1 4710   2.022   3.064   4.796
 1568TIP3    H2 4711   2.018   2.917   4.763
 1569TIP3   OH2 4712   4.569   5.260   1.562
 1569TIP3    H1 4713   4.551   5.227   1.650
 1569TIP3    H2 4714   4.485   5.258   1.517
 1570TIP3   OH2 4715   5.784   3.388   1.990
 1570TIP3    H1 4716   5.798   3.455   1.923
 1570TIP3    H2 4717   5.870   3.378   2.032
 1571TIP3   OH2 4718   3.659   0.166   3.273
 1571TIP3    H1 4719   3.749   0.195   3.261
 1571TIP3    H2 4720   3.606   0.246   3.265
 1572TIP3   OH2 4721   1.339   3.898   3.087
 1572TIP3    H1 4722   1.293   3.815   3.099
 1572TIP3    H2 4723   1.399   3.882   3.014
 1573TIP3   OH2 4724   5.208   5.052   1.918
 1573TIP3    H1 4725   5.223   4.960   1.897
 1573TIP3    H2 4726   5.286   5.098   1.888
 1574TIP3   OH2 4727   0.433   0.595   2.267
 1574TIP3    H1 4728   0.488   0.589   2.189
 1574TIP3    H2 4729   0.363   0.656   2.243
 1575TIP3   OH2 4730   3.545   1.107   3.008
 1575TIP3    H1 4731   3.507   1.133   3.092
 1575TIP3    H2 4732   3.533   1.012   3.004
 1576TIP3   OH2 4733   2.355   1.773   1.825
 1576TIP3    H1 4734   2.373   1.701   1.885
 1576TIP3    H2 4735   2.259   1.776   1.819
 1577TIP3   OH2 4736   3.490   3.256   2.320
 1577TIP3    H1 4737   3.428   3.289   2.385
 1577TIP3    H2 4738   3.575   3.258   2.365
 1578TIP3   OH2 4739   3.271   2.996   3.359
 1578TIP3    H1 4740   3.232   2.918   3.319
 1578TIP3    H2 4741   3.231   3.000   3.446
 1579TIP3   OH2 4742   0.597   1.246   0.538
 1579TIP3    H1 4743   0.525   1.294   0.497
 1579TIP3    H2 4744   0.582   1.155   0.511
 1580TIP3   OH2 4745   1.550   5.077   5.016
 1580TIP3    H1 4746   1.641   5.088   5.043
 1580TIP3    H2 4747   1.549   5.101   4.924
 1581TIP3   OH2 4748   1.109   2.776   0.827
 1581TIP3    H1 4749   1.155   2.833   0.765
 1581TIP3    H2 4750   1.102   2.692   0.781
 1582TIP3   OH2 4751   6.147   0.721   0.732
 1582TIP3    H1 4752   6.107   0.782   0.670
 1582TIP3    H2 4753   6.096   0.640   0.723
 1583TIP3   OH2 4754   5.082   0.611   0.998
 1583TIP3    H1 4755   5.011   0.560   0.961
 1583TIP3    H2 4756   5.053   0.632   1.087
 1584TIP3   OH2 4757   4.064   4.574   3.781
 1584TIP3    H1 4758   4.125   4.505   3.755
 1584TIP3    H2 4759   4.084   4.590   3.873
 1585TIP3   OH2 4760   4.439   2.182   2.001
 1585TIP3    H1 4761   4.420   2.092   2.024
 1585TIP3    H2 4762   4.446   2.228   2.085
 1586TIP3   OH2 4763   2.910   1.857   1.198
 1586TIP3    H1 4764   2.883   1.780   1.248
 1586TIP3    H2 4765   2.952   1.821   1.120
 1587TIP3   OH2 4766   6.344   0.773   2.360
 1587TIP3    H1 4767   6.355   0.777   2.455
 1587TIP3    H2 4768   6.273   0.711   2.346
 1588TIP3   OH2 4769   4.768   2.436   3.697
 1588TIP3    H1 4770   4.769   2.508   3.634
 1588TIP3    H2 4771   4.688   2.449   3.748
 1589TIP3   OH2 4772   0.303   3.922   1.216
 1589TIP3    H1 4773   0.268   3.917   1.305
 1589TIP3    H2 4774   0.239   3.976   1.169
 1590TIP3   OH2 4775   2.250   5.919   2.188
 1590TIP3    H1 4776   2.230   5.943   2.098
 1590TIP3    H2 4777   2.175   5.866   2.216
 1591TIP3   OH2 4778   3.792   0.689   1.297
 1591TIP3    H1 4779   3.748   0.644   1.369
 1591TIP3    H2 4780   3.864   0.736   1.338
 1592TIP3   OH2 4781   1.625   3.457   3.288
 1592TIP3    H1 4782   1.608   3.425   3.376
 1592TIP3    H2 4783   1.605   3.550   3.292
 1593TIP3   OH2 4784   2.139   2.663   1.372
 1593TIP3    H1 4785   2.150   2.617   1.455
 1593TIP3    H2 4786   2.070   2.727   1.389
 1594TIP3   OH2 4787   3.189   0.201   0.944
 1594TIP3    H1 4788   3.256   0.149   0.988
 1594TIP3    H2 4789   3.229   0.287   0.932
 1595TIP3   OH2 4790   6.184   2.175   4.472
 1595TIP3    H1 4791   6.235   2.254   4.457
 1595TIP3    H2 4792   6.136   2.162   4.390
 1596TIP3   OH2 4793   0.918   4.971   4.201
 1596TIP3    H1 4794   0.861   4.978   4.278
 1596TIP3    H2 4795   0.949   4.881   4.203
 1597TIP3   OH2 4796   2.686   5.210   5.071
 1597TIP3    H1 4797   2.599   5.182   5.043
 1597TIP3    H2 4798   2.704   5.290   5.021
 1598TIP3   OH2 4799   5.867   0.006   4.019
 1598TIP3    H1 4800   5.791   0.058   4.044
 1598TIP3    H2 4801   5.831  -0.063   3.963
 1599TIP3   OH2 4802   3.855   4.278   4.071
 1599TIP3    H1 4803   3.779   4.277   4.013
 1599TIP3    H2 4804   3.924   4.235   4.021
 1600TIP3   OH2 4805   5.285   2.407   3.635
 1600TIP3    H1 4806   5.303   2.368   3.721
 1600TIP3    H2 4807   5.316   2.497   3.643
 1601TIP3   OH2 4808   6.145   3.252   3.232
 1601TIP3    H1 4809   6.138   3.342   3.264
 1601TIP3    H2 4810   6.136   3.259   3.137
 1602TIP3   OH2 4811   1.920   4.763   2.418
 1602TIP3    H1 4812   1.854   4.773   2.487
 1602TIP3    H2 4813   1.870   4.735   2.342
 1603TIP3   OH2 4814   0.255   0.955   1.063
 1603TIP3    H1 4815   0.283   0.939   0.973
 1603TIP3    H2 4816   0.165   0.923   1.067
 1604TIP3   OH2 4817   5.024   0.298   0.646
 1604TIP3    H1 4818   4.978   0.337   0.573
 1604TIP3    H2 4819   5.071   0.371   0.687
 1605TIP3   OH2 4820   4.613   2.539   2.016
 1605TIP3    H1 4821   4.601   2.503   1.928
 1605TIP3    H2 4822   4.563   2.481   2.073
 1606TIP3   OH2 4823   0.418   5.365   4.275
 1606TIP3    H1 4824   0.427   5.459   4.263
 1606TIP3    H2 4825   0.380   5.355   4.363
 1607TIP3   OH2 4826   0.550   4.836   2.486
 1607TIP3    H1 4827   0.579   4.818   2.397
 1607TIP3    H2 4828   0.469   4.886   2.475
 1608TIP3   OH2 4829   3.580   0.523   2.622
 1608TIP3    H1 4830   3.659   0.471   2.634
 1608TIP3    H2 4831   3.573   0.575   2.702
 1609TIP3   OH2 4832   2.319   3.709   1.223
 1609TIP3    H1 4833   2.350   3.630   1.178
 1609TIP3    H2 4834   2.302   3.680   1.313
 1610TIP3   OH2 4835   5.867   5.746   2.664
 1610TIP3    H1 4836   5.860   5.781   2.753
 1610TIP3    H2 4837   5.779   5.754   2.628
 1611TIP3   OH2 4838   5.468   0.691   0.535
 1611TIP3    H1 4839   5.399   0.725   0.479
 1611TIP3    H2 4840   5.423   0.664   0.615
 1612TIP3   OH2 4841   3.393   3.844   1.242
 1612TIP3    H1 4842   3.393   3.888   1.157
 1612TIP3    H2 4843   3.469   3.879   1.288
 1613TIP3   OH2 4844   6.059   0.750   2.645
 1613TIP3    H1 4845   6.102   0.772   2.727
 1613TIP3    H2 4846   5.999   0.679   2.667
 1614TIP3   OH2 4847   6.129   5.832   3.893
 1614TIP3    H1 4848   6.075   5.758   3.918
 1614TIP3    H2 4849   6.142   5.822   3.798
 1615TIP3   OH2 4850   0.684   0.998   3.532
 1615TIP3    H1 4851   0.756   0.944   3.564
 1615TIP3    H2 4852   0.693   1.081   3.579
 1616TIP3   OH2 4853   3.628   4.696   0.624
 1616TIP3    H1 4854   3.633   4.700   0.529
 1616TIP3    H2 4855   3.706   4.744   0.654
 1617TIP3   OH2 4856   4.721   1.201   0.605
 1617TIP3    H1 4857   4.663   1.233   0.535
 1617TIP3    H2 4858   4.661   1.165   0.671
 1618TIP3   OH2 4859   2.105   1.551   2.579
 1618TIP3    H1 4860   2.017   1.535   2.613
 1618TIP3    H2 4861   2.107   1.505   2.495
 1619TIP3   OH2 4862   5.626   5.614   2.905
 1619TIP3    H1 4863   5.661   5.547   2.965
 1619TIP3    H2 4864   5.579   5.674   2.962
 1620TIP3   OH2 4865   5.263   0.846   4.447
 1620TIP3    H1 4866   5.257   0.758   4.410
 1620TIP3    H2 4867   5.313   0.896   4.383
 1621TIP3   OH2 4868   1.628   1.021   4.130
 1621TIP3    H1 4869   1.671   1.096   4.171
 1621TIP3    H2 4870   1.684   1.000   4.055
 1622TIP3   OH2 4871   4.612   5.179   0.765
 1622TIP3    H1 4872   4.642   5.089   0.775
 1622TIP3    H2 4873   4.519   5.172   0.744
 1623TIP3   OH2 4874   5.282   3.283   3.608
 1623TIP3    H1 4875   5.367   3.294   3.652
 1623TIP3    H2 4876   5.241   3.210   3.654
 1624TIP3   OH2 4877   5.970   5.038   4.635
 1624TIP3    H1 4878   5.967   5.006   4.725
 1624TIP3    H2 4879   6.036   5.108   4.638
 1625TIP3   OH2 4880   0.508   1.572   3.582
 1625TIP3    H1 4881   0.537   1.495   3.532
 1625TIP3    H2 4882   0.478   1.634   3.516
 1626TIP3   OH2 4883   2.407   5.874   0.976
 1626TIP3    H1 4884   2.408   5.796   0.921
 1626TIP3    H2 4885   2.468   5.935   0.935
 1627TIP3   OH2 4886   5.868   2.241   3.846
 1627TIP3    H1 4887   5.883   2.272   3.936
 1627TIP3    H2 4888   5.773   2.228   3.840
 1628TIP3   OH2 4889   0.440   4.252   1.378
 1628TIP3    H1 4890   0.528   4.246   1.414
 1628TIP3    H2 4891   0.385   4.203   1.439
 1629TIP3   OH2 4892   1.925   5.408   3.408
 1629TIP3    H1 4893   1.946   5.501   3.404
 1629TIP3    H2 4894   1.849   5.403   3.466
 1630TIP3   OH2 4895   5.424   1.244   1.558
 1630TIP3    H1 4896   5.367   1.302   1.507
 1630TIP3    H2 4897   5.387   1.157   1.546
 1631TIP3   OH2 4898   0.181   0.154   3.368
 1631TIP3    H1 4899   0.180   0.212   3.444
 1631TIP3    H2 4900   0.112   0.090   3.385
 1632TIP3   OH2 4901   1.246   5.719   4.322
 1632TIP3    H1 4902   1.226   5.695   4.412
 1632TIP3    H2 4903   1.199   5.801   4.307
 1633TIP3   OH2 4904   2.674   5.777   4.203
 1633TIP3    H1 4905   2.663   5.689   4.239
 1633TIP3    H2 4906   2.718   5.763   4.119
 1634TIP3   OH2 4907   5.897   3.154   1.130
 1634TIP3    H1 4908   5.809   3.158   1.092
 1634TIP3    H2 4909   5.955   3.146   1.054
 1635TIP3   OH2 4910   1.431   1.071   1.922
 1635TIP3    H1 4911   1.478   1.052   2.004
 1635TIP3    H2 4912   1.407   0.985   1.888
 1636TIP3   OH2 4913   1.184   5.281   0.405
 1636TIP3    H1 4914   1.236   5.352   0.442
 1636TIP3    H2 4915   1.197   5.208   0.465
 1637TIP3   OH2 4916   3.610   4.698   4.268
 1637TIP3    H1 4917   3.569   4.737   4.191
 1637TIP3    H2 4918   3.605   4.603   4.251
 1638TIP3   OH2 4919   3.521   2.316   1.638
 1638TIP3    H1 4920   3.444   2.295   1.690
 1638TIP3    H2 4921   3.584   2.352   1.701
 1639TIP3   OH2 4922   3.055   1.231   1.620
 1639TIP3    H1 4923   3.025   1.151   1.662
 1639TIP3    H2 4924   3.088   1.285   1.692
 1640TIP3   OH2 4925   2.094   5.909   3.206
 1640TIP3    H1 4926   2.060   5.925   3.294
 1640TIP3    H2 4927   2.183   5.944   3.209
 1641TIP3   OH2 4928   4.320   5.389   4.490
 1641TIP3    H1 4929   4.388   5.328   4.461
 1641TIP3    H2 4930   4.318   5.380   4.585
 1642TIP3   OH2 4931   5.026   4.750   3.162
 1642TIP3    H1 4932   5.118   4.770   3.177
 1642TIP3    H2 4933   5.004   4.799   3.082
 1643TIP3   OH2 4934   2.969   4.729   4.518
 1643TIP3    H1 4935   2.916   4.654   4.546
 1643TIP3    H2 4936   2.914   4.775   4.454
 1644TIP3   OH2 4937   3.640   5.799   3.837
 1644TIP3    H1 4938   3.697   5.725   3.817
 1644TIP3    H2 4939   3.555   5.759   3.857
 1645TIP3   OH2 4940   6.011   3.840   3.579
 1645TIP3    H1 4941   5.988   3.933   3.577
 1645TIP3    H2 4942   5.958   3.801   3.510
 1646TIP3   OH2 4943   5.443   0.372   1.727
 1646TIP3    H1 4944   5.435   0.457   1.771
 1646TIP3    H2 4945   5.408   0.386   1.640
 1647TIP3   OH2 4946   2.213   5.833   0.210
 1647TIP3    H1 4947   2.149   5.805   0.275
 1647TIP3    H2 4948   2.185   5.790   0.129
 1648TIP3   OH2 4949   3.836   4.138   3.771
 1648TIP3    H1 4950   3.879   4.124   3.856
 1648TIP3    H2 4951   3.753   4.181   3.794
 1649TIP3   OH2 4952   3.440   3.753   0.737
 1649TIP3    H1 4953   3.453   3.662   0.713
 1649TIP3    H2 4954   3.524   3.781   0.774
 1650TIP3   OH2 4955   1.498   2.700   4.855
 1650TIP3    H1 4956   1.472   2.761   4.786
 1650TIP3    H2 4957   1.526   2.621   4.808
 1651TIP3   OH2 4958   2.774   3.583   4.021
 1651TIP3    H1 4959   2.735   3.668   4.038
 1651TIP3    H2 4960   2.705   3.532   3.979
 1652TIP3   OH2 4961   3.097   0.489   1.711
 1652TIP3    H1 4962   3.124   0.575   1.680
 1652TIP3    H2 4963   3.022   0.506   1.768
 1653TIP3   OH2 4964   4.581   3.982   3.987
 1653TIP3    H1 4965   4.637   3.964   4.062
 1653TIP3    H2 4966   4.507   3.921   3.996
 1654TIP3   OH2 4967   3.474   3.059   4.504
 1654TIP3    H1 4968   3.404   3.112   4.541
 1654TIP3    H2 4969   3.444   2.968   4.516
 1655TIP3   OH2 4970   4.930   0.400   4.033
 1655TIP3    H1 4971   4.967   0.362   4.112
 1655TIP3    H2 4972   4.946   0.494   4.041
 1656TIP3   OH2 4973   5.201   4.126   4.080
 1656TIP3    H1 4974   5.180   4.188   4.010
 1656TIP3    H2 4975   5.224   4.182   4.155
 1657TIP3   OH2 4976   0.956   1.656   0.277
 1657TIP3    H1 4977   0.990   1.613   0.356
 1657TIP3    H2 4978   0.920   1.739   0.308
 1658TIP3   OH2 4979   5.650   0.939   1.784
 1658TIP3    H1 4980   5.608   1.017   1.820
 1658TIP3    H2 4981   5.674   0.964   1.695
 1659TIP3   OH2 4982   6.038   1.170   2.707
 1659TIP3    H1 4983   5.961   1.116   2.688
 1659TIP3    H2 4984   6.102   1.146   2.640
 1660TIP3   OH2 4985   2.293   3.006   3.446
 1660TIP3    H1 4986   2.218   2.957   3.481
 1660TIP3    H2 4987   2.297   2.980   3.354
 1661TIP3   OH2 4988   5.300   2.519   1.701
 1661TIP3    H1 4989   5.219   2.565   1.723
 1661TIP3    H2 4990   5.271   2.436   1.663
 1662TIP3   OH2 4991   3.658   0.204   4.909
 1662TIP3    H1 4992   3.708   0.208   4.827
 1662TIP3    H2 4993   3.715   0.245   4.974
 1663TIP3   OH2 4994   3.953   0.559   3.389
 1663TIP3    H1 4995   3.886   0.591   3.450
 1663TIP3    H2 4996   4.013   0.633   3.379
 1664TIP3   OH2 4997   0.415   2.859   1.803
 1664TIP3    H1 4998   0.461   2.930   1.758
 1664TIP3    H2 4999   0.479   2.825   1.866
 1665TIP3   OH2 5000   4.383   4.718   4.946
 1665TIP3    H1 5001   4.399   4.794   5.002
 1665TIP3    H2 5002   4.469   4.681   4.929
 1666TIP3   OH2 5003   1.894   5.320   0.343
 1666TIP3    H1 5004   1.952   5.312   0.267
 1666TIP3    H2 5005   1.857   5.232   0.354
 1667TIP3   OH2 5006   4.916   4.702   1.014
 1667TIP3    H1 5007   5.007   4.675   1.005
 1667TIP3    H2 5008   4.916   4.796   0.994
 1668TIP3   OH2 5009   6.036   5.608   1.936
 1668TIP3    H1 5010   5.985   5.576   2.011
 1668TIP3    H2 5011   6.005   5.697   1.922
 1669TIP3   OH2 5012   1.086   5.844   2.626
 1669TIP3    H1 5013   1.105   5.750   2.616
 1669TIP3    H2 5014   1.059   5.873   2.539
 1670TIP3   OH2 5015   6.081   4.863   4.010
 1670TIP3    H1 5016   6.111   4.812   4.085
 1670TIP3    H2 5017   6.069   4.799   3.940
 1671TIP3   OH2 5018   5.582   5.339   0.242
 1671TIP3    H1 5019   5.563   5.400   0.314
 1671TIP3    H2 5020   5.678   5.337   0.237
 1672TIP3   OH2 5021   2.462   0.423   1.412
 1672TIP3    H1 5022   2.443   0.378   1.330
 1672TIP3    H2 5023   2.391   0.487   1.422
 1673TIP3   OH2 5024   1.177   0.585   0.818
 1673TIP3    H1 5025   1.193   0.676   0.846
 1673TIP3    H2 5026   1.120   0.593   0.742
 1674TIP3   OH2 5027   3.319   4.716   4.082
 1674TIP3    H1 5028   3.251   4.686   4.022
 1674TIP3    H2 5029   3.273   4.775   4.142
 1675TIP3   OH2 5030   4.699   4.627   2.213
 1675TIP3    H1 5031   4.724   4.690   2.145
 1675TIP3    H2 5032   4.632   4.572   2.170
 1676TIP3   OH2 5033   1.888   5.956   3.542
 1676TIP3    H1 5034   1.839   5.897   3.485
 1676TIP3    H2 5035   1.829   5.975   3.615
 1677TIP3   OH2 5036   4.475   2.388   2.223
 1677TIP3    H1 5037   4.541   2.352   2.283
 1677TIP3    H2 5038   4.440   2.463   2.270
 1678TIP3   OH2 5039   2.349   1.177   3.003
 1678TIP3    H1 5040   2.303   1.173   2.919
 1678TIP3    H2 5041   2.291   1.227   3.061
 1679TIP3   OH2 5042   1.976   5.665   0.273
 1679TIP3    H1 5043   1.933   5.661   0.358
 1679TIP3    H2 5044   1.937   5.594   0.222
 1680TIP3   OH2 5045   4.374   5.756   4.093
 1680TIP3    H1 5046   4.317   5.766   4.017
 1680TIP3    H2 5047   4.333   5.688   4.146
 1681TIP3   OH2 5048   5.277   0.597   2.398
 1681TIP3    H1 5049   5.246   0.639   2.317
 1681TIP3    H2 5050   5.369   0.578   2.381
 1682TIP3   OH2 5051   2.311   3.146   2.333
 1682TIP3    H1 5052   2.367   3.186   2.400
 1682TIP3    H2 5053   2.372   3.110   2.269
 1683TIP3   OH2 5054   0.188   2.262   0.314
 1683TIP3    H1 5055   0.242   2.341   0.316
 1683TIP3    H2 5056   0.239   2.196   0.360
 1684TIP3   OH2 5057   5.081   2.497   1.349
 1684TIP3    H1 5058   5.076   2.477   1.256
 1684TIP3    H2 5059   5.028   2.429   1.391
 1685TIP3   OH2 5060   0.376   4.504   0.896
 1685TIP3    H1 5061   0.463   4.464   0.896
 1685TIP3    H2 5062   0.391   4.596   0.871
 1686TIP3   OH2 5063   5.014   4.236   0.102
 1686TIP3    H1 5064   5.013   4.260   0.009
 1686TIP3    H2 5065   5.104   4.253   0.130
 1687TIP3   OH2 5066   4.791   0.089   4.225
 1687TIP3    H1 5067   4.696   0.084   4.233
 1687TIP3    H2 5068   4.816   0.013   4.173
 1688TIP3   OH2 5069   2.555   3.727   2.053
 1688TIP3    H1 5070   2.567   3.639   2.018
 1688TIP3    H2 5071   2.480   3.719   2.112
 1689TIP3   OH2 5072   5.212   0.351   4.883
 1689TIP3    H1 5073   5.172   0.307   4.808
 1689TIP3    H2 5074   5.216   0.443   4.857
 1690TIP3   OH2 5075   1.625   4.547   3.040
 1690TIP3    H1 5076   1.571   4.592   3.105
 1690TIP3    H2 5077   1.621   4.603   2.962
 1691TIP3   OH2 5078   0.551   0.226   2.343
 1691TIP3    H1 5079   0.486   0.270   2.289
 1691TIP3    H2 5080   0.625   0.211   2.284
 1692TIP3   OH2 5081   4.096   2.586   4.613
 1692TIP3    H1 5082   4.093   2.532   4.534
 1692TIP3    H2 5083   4.037   2.659   4.595
 1693TIP3   OH2 5084   3.458   4.934   3.243
 1693TIP3    H1 5085   3.514   4.887   3.182
 1693TIP3    H2 5086   3.372   4.934   3.201
 1694TIP3   OH2 5087   3.715   2.152   3.413
 1694TIP3    H1 5088   3.677   2.230   3.373
 1694TIP3    H2 5089   3.746   2.100   3.339
 1695TIP3   OH2 5090   5.862   0.117   1.245
 1695TIP3    H1 5091   5.822   0.177   1.183
 1695TIP3    H2 5092   5.956   0.122   1.226
 1696TIP3   OH2 5093   3.926   2.905   4.974
 1696TIP3    H1 5094   3.948   2.940   5.060
 1696TIP3    H2 5095   3.836   2.873   4.984
 1697TIP3   OH2 5096   5.951   2.116   0.136
 1697TIP3    H1 5097   6.040   2.144   0.118
 1697TIP3    H2 5098   5.940   2.036   0.085
 1698TIP3   OH2 5099   1.023   4.953   3.141
 1698TIP3    H1 5100   1.031   5.011   3.217
 1698TIP3    H2 5101   1.053   5.005   3.067
 1699TIP3   OH2 5102   0.259   0.859   0.495
 1699TIP3    H1 5103   0.288   0.782   0.446
 1699TIP3    H2 5104   0.316   0.930   0.465
 1700TIP3   OH2 5105   3.576   4.019   0.712
 1700TIP3    H1 5106   3.622   4.091   0.755
 1700TIP3    H2 5107   3.506   4.062   0.662
 1701TIP3   OH2 5108   2.638   2.185   0.168
 1701TIP3    H1 5109   2.711   2.132   0.201
 1701TIP3    H2 5110   2.638   2.263   0.223
 1702TIP3   OH2 5111   3.439   3.110   4.047
 1702TIP3    H1 5112   3.380   3.045   4.084
 1702TIP3    H2 5113   3.386   3.159   3.984
 1703TIP3   OH2 5114   3.153   5.448   1.556
 1703TIP3    H1 5115   3.189   5.471   1.470
 1703TIP3    H2 5116   3.127   5.531   1.595
 1704TIP3   OH2 5117   2.659   4.664   2.201
 1704TIP3    H1 5118   2.693   4.699   2.118
 1704TIP3    H2 5119   2.732   4.617   2.239
 1705TIP3   OH2 5120   2.490   0.298   0.948
 1705TIP3    H1 5121   2.574   0.318   0.906
 1705TIP3    H2 5122   2.445   0.239   0.888
 1706TIP3   OH2 5123   0.444   0.236   3.323
 1706TIP3    H1 5124   0.353   0.209   3.318
 1706TIP3    H2 5125   0.442   0.323   3.362
 1707TIP3   OH2 5126   2.063   0.185   1.162
 1707TIP3    H1 5127   1.993   0.153   1.105
 1707TIP3    H2 5128   2.018   0.245   1.222
 1708TIP3   OH2 5129   4.952   3.182   2.594
 1708TIP3    H1 5130   5.005   3.148   2.522
 1708TIP3    H2 5131   4.901   3.253   2.556
 1709TIP3   OH2 5132   4.049   4.834   3.531
 1709TIP3    H1 5133   4.050   4.749   3.487
 1709TIP3    H2 5134   3.996   4.821   3.609
 1710TIP3   OH2 5135   5.040   0.410   2.355
 1710TIP3    H1 5136   5.027   0.496   2.394
 1710TIP3    H2 5137   5.129   0.386   2.379
 1711TIP3   OH2 5138   1.406   5.386   5.081
 1711TIP3    H1 5139   1.335   5.446   5.106
 1711TIP3    H2 5140   1.436   5.349   5.164
 1712TIP3   OH2 5141   1.590   4.815   3.388
 1712TIP3    H1 5142   1.673   4.854   3.361
 1712TIP3    H2 5143   1.551   4.782   3.307
 1713TIP3   OH2 5144   2.329   0.209   2.290
 1713TIP3    H1 5145   2.362   0.164   2.367
 1713TIP3    H2 5146   2.408   0.233   2.241
 1714TIP3   OH2 5147   1.680   5.299   1.784
 1714TIP3    H1 5148   1.765   5.338   1.804
 1714TIP3    H2 5149   1.689   5.206   1.806
 1715TIP3   OH2 5150   3.414   2.771   0.847
 1715TIP3    H1 5151   3.334   2.746   0.893
 1715TIP3    H2 5152   3.483   2.762   0.912
 1716TIP3   OH2 5153   3.106   3.583   0.737
 1716TIP3    H1 5154   3.126   3.544   0.652
 1716TIP3    H2 5155   3.068   3.512   0.788
 1717TIP3   OH2 5156   4.970   4.987   0.978
 1717TIP3    H1 5157   4.982   5.073   0.938
 1717TIP3    H2 5158   4.949   5.006   1.069
 1718TIP3   OH2 5159   1.409   3.910   1.028
 1718TIP3    H1 5160   1.462   3.981   1.064
 1718TIP3    H2 5161   1.336   3.901   1.090
 1719TIP3   OH2 5162   4.705   4.961   3.715
 1719TIP3    H1 5163   4.686   4.884   3.662
 1719TIP3    H2 5164   4.788   4.940   3.758
 1720TIP3   OH2 5165   0.721   3.807   4.840
 1720TIP3    H1 5166   0.691   3.850   4.920
 1720TIP3    H2 5167   0.713   3.874   4.773
 1721TIP3   OH2 5168   1.371   0.105   3.471
 1721TIP3    H1 5169   1.432   0.067   3.534
 1721TIP3    H2 5170   1.426   0.134   3.399
 1722TIP3   OH2 5171   3.153   1.213   3.018
 1722TIP3    H1 5172   3.229   1.255   3.059
 1722TIP3    H2 5173   3.099   1.184   3.092
 1723TIP3   OH2 5174   1.059   2.889   2.069
 1723TIP3    H1 5175   1.132   2.880   2.131
 1723TIP3    H2 5176   1.026   2.977   2.084
 1724TIP3   OH2 5177   1.389   3.709   2.294
 1724TIP3    H1 5178   1.425   3.708   2.205
 1724TIP3    H2 5179   1.451   3.760   2.345
 1725TIP3   OH2 5180   1.717   2.063   5.004
 1725TIP3    H1 5181   1.717   2.146   5.052
 1725TIP3    H2 5182   1.625   2.037   5.001
 1726TIP3   OH2 5183   5.854   1.794   1.843
 1726TIP3    H1 5184   5.870   1.774   1.751
 1726TIP3    H2 5185   5.888   1.883   1.854
 1727TIP3   OH2 5186   4.103   1.790   1.922
 1727TIP3    H1 5187   4.105   1.873   1.970
 1727TIP3    H2 5188   4.047   1.807   1.847
 1728TIP3   OH2 5189   4.706   3.832   3.226
 1728TIP3    H1 5190   4.731   3.913   3.272
 1728TIP3    H2 5191   4.670   3.863   3.143
 1729TIP3   OH2 5192   3.717   4.630   0.359
 1729TIP3    H1 5193   3.769   4.710   0.360
 1729TIP3    H2 5194   3.775   4.562   0.324
 1730TIP3   OH2 5195   2.064   2.439   1.246
 1730TIP3    H1 5196   2.079   2.524   1.288
 1730TIP3    H2 5197   2.138   2.427   1.187
 1731TIP3   OH2 5198   5.366   3.333   1.205
 1731TIP3    H1 5199   5.401   3.298   1.287
 1731TIP3    H2 5200   5.399   3.273   1.138
 1732TIP3   OH2 5201   1.338   0.039   0.384
 1732TIP3    H1 5202   1.299   0.093   0.316
 1732TIP3    H2 5203   1.371   0.101   0.449
 1733TIP3   OH2 5204   6.241   4.361   2.093
 1733TIP3    H1 5205   6.301   4.409   2.035
 1733TIP3    H2 5206   6.173   4.328   2.035
 1734TIP3   OH2 5207   0.851   3.622   0.822
 1734TIP3    H1 5208   0.869   3.705   0.867
 1734TIP3    H2 5209   0.776   3.642   0.766
 1735TIP3   OH2 5210   2.739   1.978   4.114
 1735TIP3    H1 5211   2.727   1.989   4.020
 1735TIP3    H2 5212   2.677   1.909   4.139
 1736TIP3   OH2 5213   2.045   3.854   2.047
 1736TIP3    H1 5214   2.052   3.923   1.981
 1736TIP3    H2 5215   2.081   3.893   2.127
 1737TIP3   OH2 5216   0.107   2.356   4.980
 1737TIP3    H1 5217   0.151   2.312   5.053
 1737TIP3    H2 5218   0.165   2.342   4.905
 1738TIP3   OH2 5219   4.667   1.761   0.955
 1738TIP3    H1 5220   4.576   1.772   0.982
 1738TIP3    H2 5221   4.680   1.666   0.954
 1739TIP3   OH2 5222   5.300   0.081   0.394
 1739TIP3    H1 5223   5.306   0.057   0.302
 1739TIP3    H2 5224   5.271   0.002   0.439
 1740TIP3   OH2 5225   3.671   3.337   0.305
 1740TIP3    H1 5226   3.611   3.266   0.281
 1740TIP3    H2 5227   3.614   3.414   0.313
 1741TIP3   OH2 5228   4.522   1.074   4.494
 1741TIP3    H1 5229   4.570   1.157   4.491
 1741TIP3    H2 5230   4.431   1.099   4.479
 1742TIP3   OH2 5231   1.310   5.002   1.533
 1742TIP3    H1 5232   1.388   5.058   1.537
 1742TIP3    H2 5233   1.243   5.057   1.493
 1743TIP3   OH2 5234   0.021   5.311   2.803
 1743TIP3    H1 5235  -0.071   5.297   2.781
 1743TIP3    H2 5236   0.062   5.226   2.788
 1744TIP3   OH2 5237   5.221   1.547   2.052
 1744TIP3    H1 5238   5.283   1.477   2.073
 1744TIP3    H2 5239   5.274   1.613   2.006
 1745TIP3   OH2 5240   3.089   4.425   4.356
 1745TIP3    H1 5241   3.027   4.464   4.295
 1745TIP3    H2 5242   3.083   4.331   4.339
 1746TIP3   OH2 5243   0.622   0.236   2.622
 1746TIP3    H1 5244   0.552   0.181   2.659
 1746TIP3    H2 5245   0.606   0.235   2.528
 1747TIP3   OH2 5246   1.417   4.634   0.126
 1747TIP3    H1 5247   1.490   4.686   0.091
 1747TIP3    H2 5248   1.457   4.554   0.158
 1748TIP3   OH2 5249   1.377   5.697   1.840
 1748TIP3    H1 5250   1.427   5.718   1.761
 1748TIP3    H2 5251   1.441   5.701   1.911
 1749TIP3   OH2 5252   3.464   5.881   2.003
 1749TIP3    H1 5253   3.547   5.848   2.037
 1749TIP3    H2 5254   3.398   5.820   2.037
 1750TIP3   OH2 5255   1.848   2.899   5.151
 1750TIP3    H1 5256   1.791   2.873   5.223
 1750TIP3    H2 5257   1.859   2.994   5.161
 1751TIP3   OH2 5258   4.056   2.481   4.353
 1751TIP3    H1 5259   4.034   2.390   4.332
 1751TIP3    H2 5260   3.984   2.532   4.316
 1752TIP3   OH2 5261   0.226   4.416   3.381
 1752TIP3    H1 5262   0.286   4.483   3.347
 1752TIP3    H2 5263   0.163   4.465   3.433
 1753TIP3   OH2 5264   1.734   3.079   4.668
 1753TIP3    H1 5265   1.741   3.155   4.611
 1753TIP3    H2 5266   1.823   3.060   4.695
 1754TIP3   OH2 5267   2.191   1.298   3.175
 1754TIP3    H1 5268   2.105   1.283   3.215
 1754TIP3    H2 5269   2.211   1.389   3.194
 1755TIP3   OH2 5270   3.736   1.534   2.585
 1755TIP3    H1 5271   3.660   1.531   2.643
 1755TIP3    H2 5272   3.701   1.509   2.500
 1756TIP3   OH2 5273   0.821   1.910   4.785
 1756TIP3    H1 5274   0.774   1.945   4.861
 1756TIP3    H2 5275   0.911   1.899   4.815
 1757TIP3   OH2 5276   1.507   2.581   4.019
 1757TIP3    H1 5277   1.490   2.524   3.944
 1757TIP3    H2 5278   1.446   2.551   4.087
 1758TIP3   OH2 5279   5.293   2.585   2.118
 1758TIP3    H1 5280   5.233   2.630   2.177
 1758TIP3    H2 5281   5.242   2.513   2.081
 1759TIP3   OH2 5282   4.622   1.530   1.532
 1759TIP3    H1 5283   4.631   1.550   1.625
 1759TIP3    H2 5284   4.575   1.447   1.529
 1760TIP3   OH2 5285   5.491   0.099   3.792
 1760TIP3    H1 5286   5.399   0.075   3.780
 1760TIP3    H2 5287   5.526   0.032   3.851
 1761TIP3   OH2 5288   4.397   2.095   4.841
 1761TIP3    H1 5289   4.487   2.109   4.810
 1761TIP3    H2 5290   4.387   2.158   4.913
 1762TIP3   OH2 5291   1.730   1.492   0.997
 1762TIP3    H1 5292   1.814   1.515   0.959
 1762TIP3    H2 5293   1.716   1.401   0.970
 1763TIP3   OH2 5294   4.618   4.091   4.357
 1763TIP3    H1 5295   4.623   4.186   4.364
 1763TIP3    H2 5296   4.673   4.069   4.282
 1764TIP3   OH2 5297   5.439   4.234   1.284
 1764TIP3    H1 5298   5.504   4.241   1.214
 1764TIP3    H2 5299   5.483   4.181   1.351
 1765TIP3   OH2 5300   4.863   5.299   4.774
 1765TIP3    H1 5301   4.873   5.372   4.836
 1765TIP3    H2 5302   4.772   5.303   4.747
 1766TIP3   OH2 5303   5.534   2.813   4.151
 1766TIP3    H1 5304   5.454   2.771   4.183
 1766TIP3    H2 5305   5.594   2.741   4.132
 1767TIP3   OH2 5306   4.030   4.015   0.819
 1767TIP3    H1 5307   4.035   4.040   0.911
 1767TIP3    H2 5308   4.022   4.097   0.772
 1768TIP3   OH2 5309   4.234   4.176   1.929
 1768TIP3    H1 5310   4.274   4.203   1.847
 1768TIP3    H2 5311   4.182   4.252   1.957
 1769TIP3   OH2 5312   2.399   4.757   3.407
 1769TIP3    H1 5313   2.394   4.851   3.394
 1769TIP3    H2 5314   2.482   4.743   3.452
 1770TIP3   OH2 5315   2.247   1.670   3.344
 1770TIP3    H1 5316   2.311   1.728   3.387
 1770TIP3    H2 5317   2.218   1.719   3.267
 1771TIP3   OH2 5318   3.695   3.170   1.870
 1771TIP3    H1 5319   3.741   3.093   1.902
 1771TIP3    H2 5320   3.671   3.219   1.949
 1772TIP3   OH2 5321   3.045   2.338   0.928
 1772TIP3    H1 5322   3.064   2.250   0.898
 1772TIP3    H2 5323   3.105   2.394   0.880
 1773TIP3   OH2 5324   6.282   4.596   0.052
 1773TIP3    H1 5325   6.196   4.575   0.088
 1773TIP3    H2 5326   6.319   4.512   0.028
 1774TIP3   OH2 5327   0.188   0.087   2.111
 1774TIP3    H1 5328   0.259   0.026   2.131
 1774TIP3    H2 5329   0.198   0.107   2.018
 1775TIP3   OH2 5330   1.918   4.132   4.196
 1775TIP3    H1 5331   1.889   4.209   4.148
 1775TIP3    H2 5332   1.839   4.078   4.205
 1776TIP3   OH2 5333   0.865   0.652   4.767
 1776TIP3    H1 5334   0.936   0.610   4.815
 1776TIP3    H2 5335   0.823   0.581   4.719
 1777TIP3   OH2 5336   2.191   3.208   1.475
 1777TIP3    H1 5337   2.101   3.189   1.449
 1777TIP3    H2 5338   2.226   3.124   1.504
 1778TIP3   OH2 5339   6.305   3.143   4.889
 1778TIP3    H1 5340   6.342   3.145   4.978
 1778TIP3    H2 5341   6.260   3.227   4.880
 1779TIP3   OH2 5342   3.427   0.299   2.738
 1779TIP3    H1 5343   3.372   0.323   2.663
 1779TIP3    H2 5344   3.514   0.331   2.715
 1780TIP3   OH2 5345   4.614   1.217   0.268
 1780TIP3    H1 5346   4.545   1.173   0.218
 1780TIP3    H2 5347   4.679   1.148   0.285
 1781TIP3   OH2 5348   5.607   5.744   1.717
 1781TIP3    H1 5349   5.516   5.715   1.725
 1781TIP3    H2 5350   5.601   5.835   1.690
 1782TIP3   OH2 5351   4.183   5.031   3.082
 1782TIP3    H1 5352   4.194   5.087   3.159
 1782TIP3    H2 5353   4.175   5.092   3.009
 1783TIP3   OH2 5354   2.839   5.306   0.735
 1783TIP3    H1 5355   2.907   5.297   0.802
 1783TIP3    H2 5356   2.786   5.380   0.765
 1784TIP3   OH2 5357   0.616   0.134   0.778
 1784TIP3    H1 5358   0.625   0.111   0.870
 1784TIP3    H2 5359   0.593   0.227   0.777
 1785TIP3   OH2 5360   6.040   2.460   3.760
 1785TIP3    H1 5361   6.045   2.447   3.665
 1785TIP3    H2 5362   5.981   2.391   3.790
 1786TIP3   OH2 5363   2.647   0.761   4.870
 1786TIP3    H1 5364   2.654   0.743   4.776
 1786TIP3    H2 5365   2.604   0.847   4.875
 1787TIP3   OH2 5366   0.053   4.062   1.879
 1787TIP3    H1 5367   0.025   4.051   1.788
 1787TIP3    H2 5368  -0.006   4.004   1.929
 1788TIP3   OH2 5369   2.437   2.793   1.867
 1788TIP3    H1 5370   2.379   2.730   1.910
 1788TIP3    H2 5371   2.380   2.865   1.841
 1789TIP3   OH2 5372   2.564   2.614   4.063
 1789TIP3    H1 5373   2.601   2.694   4.027
 1789TIP3    H2 5374   2.478   2.640   4.098
 1790TIP3   OH2 5375   2.956   0.662   4.750
 1790TIP3    H1 5376   2.890   0.648   4.682
 1790TIP3    H2 5377   2.969   0.757   4.752
 1791TIP3   OH2 5378   2.102   4.890   0.729
 1791TIP3    H1 5379   2.181   4.912   0.778
 1791TIP3    H2 5380   2.042   4.856   0.795
 1792TIP3   OH2 5381   6.289   0.186   0.648
 1792TIP3    H1 5382   6.224   0.124   0.680
 1792TIP3    H2 5383   6.355   0.132   0.605
 1793TIP3   OH2 5384   3.946   4.917   1.406
 1793TIP3    H1 5385   3.968   4.956   1.491
 1793TIP3    H2 5386   3.856   4.887   1.416
 1794TIP3   OH2 5387   2.046   5.113   3.340
 1794TIP3    H1 5388   2.107   5.122   3.268
 1794TIP3    H2 5389   2.062   5.191   3.394
 1795TIP3   OH2 5390   2.084   3.600   0.866
 1795TIP3    H1 5391   2.055   3.690   0.852
 1795TIP3    H2 5392   2.041   3.573   0.947
 1796TIP3   OH2 5393   4.019   1.565   1.328
 1796TIP3    H1 5394   3.998   1.659   1.328
 1796TIP3    H2 5395   4.101   1.559   1.377
 1797TIP3   OH2 5396   6.100   4.156   3.471
 1797TIP3    H1 5397   6.157   4.097   3.520
 1797TIP3    H2 5398   6.135   4.243   3.488
 1798TIP3   OH2 5399   4.094   0.491   0.348
 1798TIP3    H1 5400   4.019   0.552   0.345
 1798TIP3    H2 5401   4.069   0.426   0.413
 1799TIP3   OH2 5402   0.984   0.241   2.285
 1799TIP3    H1 5403   0.933   0.231   2.365
 1799TIP3    H2 5404   1.053   0.303   2.308
 1800TIP3   OH2 5405   2.149   5.053   1.389
 1800TIP3    H1 5406   2.086   5.125   1.391
 1800TIP3    H2 5407   2.214   5.080   1.324
 1801TIP3   OH2 5408   2.063   3.209   0.827
 1801TIP3    H1 5409   2.054   3.285   0.885
 1801TIP3    H2 5410   2.156   3.207   0.805
 1802TIP3   OH2 5411   5.080   0.363   5.175
 1802TIP3    H1 5412   5.021   0.425   5.131
 1802TIP3    H2 5413   5.167   0.398   5.161
 1803TIP3   OH2 5414   6.141   0.491   2.228
 1803TIP3    H1 5415   6.115   0.563   2.286
 1803TIP3    H2 5416   6.221   0.456   2.268
 1804TIP3   OH2 5417   0.489   3.995   0.187
 1804TIP3    H1 5418   0.527   3.958   0.107
 1804TIP3    H2 5419   0.509   4.088   0.182
 1805TIP3   OH2 5420   3.355   5.537   4.868
 1805TIP3    H1 5421   3.425   5.599   4.890
 1805TIP3    H2 5422   3.400   5.465   4.823
 1806TIP3   OH2 5423   3.443   4.273   2.514
 1806TIP3    H1 5424   3.497   4.344   2.550
 1806TIP3    H2 5425   3.500   4.229   2.451
 1807TIP3   OH2 5426   0.099   2.735   2.092
 1807TIP3    H1 5427   0.087   2.810   2.034
 1807TIP3    H2 5428   0.072   2.767   2.178
 1808TIP3   OH2 5429   0.463   4.181   3.931
 1808TIP3    H1 5430   0.376   4.213   3.910
 1808TIP3    H2 5431   0.488   4.228   4.011
 1809TIP3   OH2 5432   2.612   4.658   4.256
 1809TIP3    H1 5433   2.550   4.611   4.311
 1809TIP3    H2 5434   2.640   4.733   4.309
 1810TIP3   OH2 5435   1.148   1.501   3.940
 1810TIP3    H1 5436   1.165   1.453   4.021
 1810TIP3    H2 5437   1.233   1.505   3.897
 1811TIP3   OH2 5438   0.540   1.475   2.423
 1811TIP3    H1 5439   0.514   1.561   2.391
 1811TIP3    H2 5440   0.557   1.424   2.344
 1812TIP3   OH2 5441   6.168   3.309   2.423
 1812TIP3    H1 5442   6.179   3.246   2.352
 1812TIP3    H2 5443   6.074   3.305   2.444
 1813TIP3   OH2 5444   2.391   2.848   3.204
 1813TIP3    H1 5445   2.326   2.870   3.138
 1813TIP3    H2 5446   2.375   2.755   3.223
 1814TIP3   OH2 5447   3.337   3.411   3.449
 1814TIP3    H1 5448   3.414   3.435   3.501
 1814TIP3    H2 5449   3.338   3.471   3.375
 1815TIP3   OH2 5450   6.064   0.735   3.327
 1815TIP3    H1 5451   6.159   0.727   3.322
 1815TIP3    H2 5452   6.049   0.826   3.354
 1816TIP3   OH2 5453   2.644   4.475   0.050
 1816TIP3    H1 5454   2.717   4.414   0.058
 1816TIP3    H2 5455   2.573   4.433   0.099
 1817TIP3   OH2 5456   3.332   2.417   3.650
 1817TIP3    H1 5457   3.349   2.509   3.669
 1817TIP3    H2 5458   3.275   2.418   3.572
 1818TIP3   OH2 5459   5.507   3.938   0.701
 1818TIP3    H1 5460   5.422   3.898   0.680
 1818TIP3    H2 5461   5.495   3.972   0.790
 1819TIP3   OH2 5462   3.231   4.056   0.506
 1819TIP3    H1 5463   3.285   4.074   0.429
 1819TIP3    H2 5464   3.152   4.014   0.471
 1820TIP3   OH2 5465   2.861   2.132   0.622
 1820TIP3    H1 5466   2.777   2.149   0.579
 1820TIP3    H2 5467   2.919   2.201   0.589
 1821TIP3   OH2 5468   3.528   4.487   4.037
 1821TIP3    H1 5469   3.445   4.536   4.031
 1821TIP3    H2 5470   3.517   4.431   4.114
 1822TIP3   OH2 5471   5.188   1.241   5.084
 1822TIP3    H1 5472   5.272   1.265   5.122
 1822TIP3    H2 5473   5.157   1.321   5.040
 1823TIP3   OH2 5474   6.308   3.467   3.551
 1823TIP3    H1 5475   6.287   3.459   3.644
 1823TIP3    H2 5476   6.402   3.482   3.548
 1824TIP3   OH2 5477   4.062   2.229   0.162
 1824TIP3    H1 5478   4.026   2.291   0.225
 1824TIP3    H2 5479   4.129   2.278   0.114
 1825TIP3   OH2 5480   1.896   3.462   4.087
 1825TIP3    H1 5481   1.914   3.553   4.113
 1825TIP3    H2 5482   1.800   3.458   4.081
 1826TIP3   OH2 5483   4.607   5.816   4.236
 1826TIP3    H1 5484   4.692   5.783   4.209
 1826TIP3    H2 5485   4.546   5.782   4.170
 1827TIP3   OH2 5486   0.425   1.770   3.425
 1827TIP3    H1 5487   0.457   1.787   3.337
 1827TIP3    H2 5488   0.433   1.854   3.471
 1828TIP3   OH2 5489   3.247   4.108   1.136
 1828TIP3    H1 5490   3.302   4.056   1.194
 1828TIP3    H2 5491   3.288   4.195   1.134
 1829TIP3   OH2 5492   3.700   5.880   0.609
 1829TIP3    H1 5493   3.635   5.900   0.542
 1829TIP3    H2 5494   3.657   5.903   0.692
 1830TIP3   OH2 5495   4.102   0.916   4.727
 1830TIP3    H1 5496   4.194   0.915   4.700
 1830TIP3    H2 5497   4.058   0.862   4.661
 1831TIP3   OH2 5498   4.759   1.217   1.316
 1831TIP3    H1 5499   4.679   1.185   1.357
 1831TIP3    H2 5500   4.810   1.255   1.387
 1832TIP3   OH2 5501   3.909   1.253   0.585
 1832TIP3    H1 5502   3.906   1.286   0.675
 1832TIP3    H2 5503   3.990   1.288   0.549
 1833TIP3   OH2 5504   2.211   4.139   3.480
 1833TIP3    H1 5505   2.231   4.055   3.440
 1833TIP3    H2 5506   2.269   4.201   3.435
 1834TIP3   OH2 5507   6.111   0.306   1.906
 1834TIP3    H1 5508   6.142   0.303   1.996
 1834TIP3    H2 5509   6.090   0.398   1.890
 1835TIP3   OH2 5510   0.573   5.493   2.181
 1835TIP3    H1 5511   0.578   5.587   2.197
 1835TIP3    H2 5512   0.510   5.484   2.109
 1836TIP3   OH2 5513   1.292   5.146   2.523
 1836TIP3    H1 5514   1.336   5.219   2.567
 1836TIP3    H2 5515   1.199   5.164   2.534
 1837TIP3   OH2 5516   5.513   5.189   4.925
 1837TIP3    H1 5517   5.572   5.183   5.000
 1837TIP3    H2 5518   5.558   5.142   4.855
 1838TIP3   OH2 5519   3.198   4.940   2.466
 1838TIP3    H1 5520   3.246   4.895   2.396
 1838TIP3    H2 5521   3.126   4.881   2.488
 1839TIP3   OH2 5522   4.071   3.791   1.689
 1839TIP3    H1 5523   4.070   3.879   1.651
 1839TIP3    H2 5524   3.979   3.773   1.708
 1840TIP3   OH2 5525   4.883   4.264   4.538
 1840TIP3    H1 5526   4.962   4.226   4.576
 1840TIP3    H2 5527   4.820   4.264   4.610
 1841TIP3   OH2 5528   5.278   1.558   4.236
 1841TIP3    H1 5529   5.258   1.475   4.279
 1841TIP3    H2 5530   5.210   1.618   4.266
 1842TIP3   OH2 5531   1.509   2.770   0.703
 1842TIP3    H1 5532   1.557   2.734   0.778
 1842TIP3    H2 5533   1.498   2.696   0.643
 1843TIP3   OH2 5534   0.271   3.092   4.124
 1843TIP3    H1 5535   0.222   3.126   4.198
 1843TIP3    H2 5536   0.295   3.003   4.150
 1844TIP3   OH2 5537   1.670   5.545   5.028
 1844TIP3    H1 5538   1.645   5.636   5.015
 1844TIP3    H2 5539   1.634   5.500   4.951
 1845TIP3   OH2 5540   1.567   4.564   2.031
 1845TIP3    H1 5541   1.481   4.535   2.061
 1845TIP3    H2 5542   1.607   4.486   1.993
 1846TIP3   OH2 5543   5.057   1.014   4.322
 1846TIP3    H1 5544   5.115   0.944   4.352
 1846TIP3    H2 5545   5.038   1.064   4.402
 1847TIP3   OH2 5546   6.065   2.487   1.856
 1847TIP3    H1 5547   6.116   2.414   1.891
 1847TIP3    H2 5548   5.975   2.469   1.886
 1848TIP3   OH2 5549   0.622   0.501   4.924
 1848TIP3    H1 5550   0.673   0.463   4.853
 1848TIP3    H2 5551   0.677   0.490   5.002
 1849TIP3   OH2 5552   0.223   5.913   2.910
 1849TIP3    H1 5553   0.163   5.919   2.836
 1849TIP3    H2 5554   0.225   6.001   2.947
 1850TIP3   OH2 5555   0.529   3.968   2.975
 1850TIP3    H1 5556   0.488   4.017   3.047
 1850TIP3    H2 5557   0.490   4.006   2.896
 1851TIP3   OH2 5558   4.695   3.627   2.513
 1851TIP3    H1 5559   4.721   3.625   2.421
 1851TIP3    H2 5560   4.676   3.536   2.534
 1852TIP3   OH2 5561   5.932   0.726   3.072
 1852TIP3    H1 5562   5.988   0.716   3.149
 1852TIP3    H2 5563   5.970   0.667   3.006
 1853TIP3   OH2 5564   1.907   5.053   2.812
 1853TIP3    H1 5565   1.948   4.999   2.879
 1853TIP3    H2 5566   1.847   5.110   2.860
 1854TIP3   OH2 5567   2.659   4.410   2.657
 1854TIP3    H1 5568   2.569   4.413   2.624
 1854TIP3    H2 5569   2.707   4.360   2.592
 1855TIP3   OH2 5570   3.319   3.506   1.557
 1855TIP3    H1 5571   3.229   3.490   1.584
 1855TIP3    H2 5572   3.318   3.498   1.462
 1856TIP3   OH2 5573   5.553   2.566   4.788
 1856TIP3    H1 5574   5.648   2.581   4.785
 1856TIP3    H2 5575   5.540   2.488   4.734
 1857TIP3   OH2 5576   5.119   1.046   2.665
 1857TIP3    H1 5577   5.179   1.100   2.615
 1857TIP3    H2 5578   5.032   1.072   2.634
 1858TIP3   OH2 5579   2.061   3.158   3.659
 1858TIP3    H1 5580   1.988   3.137   3.600
 1858TIP3    H2 5581   2.050   3.098   3.733
 1859TIP3   OH2 5582   0.021   1.839   4.590
 1859TIP3    H1 5583   0.016   1.868   4.499
 1859TIP3    H2 5584   0.066   1.910   4.636
 1860TIP3   OH2 5585   4.833   3.884   2.547
 1860TIP3    H1 5586   4.868   3.811   2.497
 1860TIP3    H2 5587   4.862   3.868   2.637
 1861TIP3   OH2 5588   2.983   0.113   3.523
 1861TIP3    H1 5589   2.922   0.156   3.464
 1861TIP3    H2 5590   2.946   0.126   3.610
 1862TIP3   OH2 5591   5.178   5.504   3.815
 1862TIP3    H1 5592   5.239   5.570   3.849
 1862TIP3    H2 5593   5.233   5.444   3.765
 1863TIP3   OH2 5594   1.226   5.535   2.245
 1863TIP3    H1 5595   1.134   5.521   2.269
 1863TIP3    H2 5596   1.232   5.500   2.156
 1864TIP3   OH2 5597   1.314   4.839   4.281
 1864TIP3    H1 5598   1.410   4.832   4.284
 1864TIP3    H2 5599   1.292   4.902   4.349
 1865TIP3   OH2 5600   0.950   2.127   0.743
 1865TIP3    H1 5601   0.869   2.094   0.784
 1865TIP3    H2 5602   1.010   2.139   0.816
 1866TIP3   OH2 5603   3.736   3.465   0.993
 1866TIP3    H1 5604   3.736   3.403   0.920
 1866TIP3    H2 5605   3.696   3.417   1.066
 1867TIP3   OH2 5606   0.495   5.800   4.399
 1867TIP3    H1 5607   0.550   5.733   4.438
 1867TIP3    H2 5608   0.448   5.839   4.472
 1868TIP3   OH2 5609   5.659   3.140   1.001
 1868TIP3    H1 5610   5.636   3.097   0.919
 1868TIP3    H2 5611   5.625   3.081   1.069
 1869TIP3   OH2 5612   3.530   4.873   4.021
 1869TIP3    H1 5613   3.508   4.957   3.981
 1869TIP3    H2 5614   3.449   4.822   4.018
 1870TIP3   OH2 5615   2.963   1.322   0.029
 1870TIP3    H1 5616   2.870   1.300   0.022
 1870TIP3    H2 5617   3.003   1.244   0.067
 1871TIP3   OH2 5618   1.979   4.446   2.947
 1871TIP3    H1 5619   1.919   4.447   2.872
 1871TIP3    H2 5620   2.034   4.369   2.931
 1872TIP3   OH2 5621   0.165   4.125   2.560
 1872TIP3    H1 5622   0.090   4.142   2.617
 1872TIP3    H2 5623   0.196   4.038   2.586
 1873TIP3   OH2 5624   2.725   4.478   3.275
 1873TIP3    H1 5625   2.782   4.514   3.344
 1873TIP3    H2 5626   2.726   4.545   3.207
 1874TIP3   OH2 5627   0.273   3.930   3.961
 1874TIP3    H1 5628   0.195   3.922   4.016
 1874TIP3    H2 5629   0.339   3.969   4.019
 1875TIP3   OH2 5630   1.199   4.491   2.761
 1875TIP3    H1 5631   1.124   4.472   2.704
 1875TIP3    H2 5632   1.229   4.578   2.732
 1876TIP3   OH2 5633   5.320   1.861   1.305
 1876TIP3    H1 5634   5.389   1.848   1.240
 1876TIP3    H2 5635   5.240   1.835   1.260
 1877TIP3   OH2 5636   5.085   2.375   4.786
 1877TIP3    H1 5637   5.064   2.406   4.698
 1877TIP3    H2 5638   5.171   2.333   4.777
 1878TIP3   OH2 5639   3.419   2.947   3.764
 1878TIP3    H1 5640   3.492   2.919   3.709
 1878TIP3    H2 5641   3.443   3.035   3.791
 1879TIP3   OH2 5642   3.382   1.671   4.368
 1879TIP3    H1 5643   3.380   1.741   4.303
 1879TIP3    H2 5644   3.323   1.701   4.437
 1880TIP3   OH2 5645   5.273   1.448   2.818
 1880TIP3    H1 5646   5.284   1.388   2.744
 1880TIP3    H2 5647   5.357   1.495   2.823
 1881TIP3   OH2 5648   0.205   1.545   3.448
 1881TIP3    H1 5649   0.182   1.577   3.535
 1881TIP3    H2 5650   0.286   1.591   3.426
 1882TIP3   OH2 5651   1.454   4.623   3.894
 1882TIP3    H1 5652   1.513   4.635   3.969
 1882TIP3    H2 5653   1.498   4.666   3.821
 1883TIP3   OH2 5654   5.138   5.914   4.504
 1883TIP3    H1 5655   5.212   5.867   4.542
 1883TIP3    H2 5656   5.119   5.984   4.566
 1884TIP3   OH2 5657   5.712   2.363   4.047
 1884TIP3    H1 5658   5.667   2.413   4.116
 1884TIP3    H2 5659   5.800   2.399   4.045
 1885TIP3   OH2 5660   2.687   1.462   1.765
 1885TIP3    H1 5661   2.673   1.387   1.822
 1885TIP3    H2 5662   2.600   1.484   1.732
 1886TIP3   OH2 5663   4.328   1.623   1.928
 1886TIP3    H1 5664   4.304   1.570   1.853
 1886TIP3    H2 5665   4.254   1.681   1.942
 1887TIP3   OH2 5666   5.765   5.847   0.482
 1887TIP3    H1 5667   5.751   5.929   0.436
 1887TIP3    H2 5668   5.852   5.818   0.454
 1888TIP3   OH2 5669   4.882   5.688   0.132
 1888TIP3    H1 5670   4.800   5.699   0.085
 1888TIP3    H2 5671   4.868   5.734   0.215
 1889TIP3   OH2 5672   2.585   1.373   3.112
 1889TIP3    H1 5673   2.617   1.376   3.022
 1889TIP3    H2 5674   2.490   1.383   3.104
 1890TIP3   OH2 5675   2.154   2.640   3.321
 1890TIP3    H1 5676   2.089   2.673   3.384
 1890TIP3    H2 5677   2.209   2.582   3.373
 1891TIP3   OH2 5678   4.359   1.413   0.033
 1891TIP3    H1 5679   4.441   1.373   0.062
 1891TIP3    H2 5680   4.353   1.494   0.083
 1892TIP3   OH2 5681   3.667   2.007   2.805
 1892TIP3    H1 5682   3.692   1.920   2.836
 1892TIP3    H2 5683   3.604   1.990   2.735
 1893TIP3   OH2 5684   5.660   1.110   3.999
 1893TIP3    H1 5685   5.606   1.182   3.966
 1893TIP3    H2 5686   5.605   1.066   4.064
 1894TIP3   OH2 5687   5.017   0.016   3.619
 1894TIP3    H1 5688   5.079   0.079   3.656
 1894TIP3    H2 5689   4.932   0.059   3.624
 1895TIP3   OH2 5690   0.335   5.120   2.992
 1895TIP3    H1 5691   0.342   5.199   2.938
 1895TIP3    H2 5692   0.282   5.059   2.939
 1896TIP3   OH2 5693   5.390   4.388   1.573
 1896TIP3    H1 5694   5.316   4.395   1.513
 1896TIP3    H2 5695   5.467   4.390   1.517
 1897TIP3   OH2 5696   0.726   5.373   0.346
 1897TIP3    H1 5697   0.778   5.362   0.426
 1897TIP3    H2 5698   0.636   5.383   0.377
 1898TIP3   OH2 5699   2.901   1.626   1.335
 1898TIP3    H1 5700   2.925   1.534   1.346
 1898TIP3    H2 5701   2.983   1.674   1.348
 1899TIP3   OH2 5702   0.617   0.923   3.002
 1899TIP3    H1 5703   0.606   0.839   3.046
 1899TIP3    H2 5704   0.655   0.901   2.917
 1900TIP3   OH2 5705   2.366   1.974   2.836
 1900TIP3    H1 5706   2.341   1.924   2.759
 1900TIP3    H2 5707   2.283   1.999   2.877
 1901TIP3   OH2 5708   4.502   5.467   3.450
 1901TIP3    H1 5709   4.491   5.377   3.420
 1901TIP3    H2 5710   4.414   5.504   3.450
 1902TIP3   OH2 5711   3.641   1.125   1.178
 1902TIP3    H1 5712   3.549   1.106   1.193
 1902TIP3    H2 5713   3.644   1.220   1.168
 1903TIP3   OH2 5714   4.013   2.600   1.407
 1903TIP3    H1 5715   3.978   2.512   1.421
 1903TIP3    H2 5716   4.082   2.609   1.473
 1904TIP3   OH2 5717   5.582   3.248   4.506
 1904TIP3    H1 5718   5.588   3.289   4.420
 1904TIP3    H2 5719   5.546   3.161   4.488
 1905TIP3   OH2 5720   0.060   3.995   0.994
 1905TIP3    H1 5721   0.050   4.083   0.960
 1905TIP3    H2 5722   0.080   3.942   0.917
 1906TIP3   OH2 5723   4.889   0.629   5.023
 1906TIP3    H1 5724   4.901   0.679   4.943
 1906TIP3    H2 5725   4.798   0.647   5.049
 1907TIP3   OH2 5726   2.471   0.078   2.513
 1907TIP3    H1 5727   2.499   0.156   2.560
 1907TIP3    H2 5728   2.500   0.005   2.568
 1908TIP3   OH2 5729   3.739   3.514   4.396
 1908TIP3    H1 5730   3.775   3.576   4.459
 1908TIP3    H2 5731   3.788   3.530   4.316
 1909TIP3   OH2 5732   0.018   5.261   1.449
 1909TIP3    H1 5733  -0.051   5.314   1.490
 1909TIP3    H2 5734   0.099   5.300   1.479
 1910TIP3   OH2 5735   2.302   4.119   0.369
 1910TIP3    H1 5736   2.338   4.033   0.389
 1910TIP3    H2 5737   2.241   4.104   0.297
 1911TIP3   OH2 5738   2.153   5.966   4.338
 1911TIP3    H1 5739   2.143   5.905   4.266
 1911TIP3    H2 5740   2.076   6.023   4.333
 1912TIP3   OH2 5741   2.156   1.477   0.675
 1912TIP3    H1 5742   2.205   1.505   0.597
 1912TIP3    H2 5743   2.176   1.543   0.741
 1913TIP3   OH2 5744   2.128   4.624   0.045
 1913TIP3    H1 5745   2.208   4.659   0.084
 1913TIP3    H2 5746   2.147   4.621  -0.049
 1914TIP3   OH2 5747   6.195   3.215   3.780
 1914TIP3    H1 5748   6.146   3.296   3.793
 1914TIP3    H2 5749   6.253   3.210   3.857
 1915TIP3   OH2 5750   3.566   5.206   3.288
 1915TIP3    H1 5751   3.531   5.120   3.268
 1915TIP3    H2 5752   3.587   5.202   3.382
 1916TIP3   OH2 5753   4.337   3.920   1.545
 1916TIP3    H1 5754   4.366   4.003   1.507
 1916TIP3    H2 5755   4.262   3.943   1.599
 1917TIP3   OH2 5756   0.106   4.402   1.922
 1917TIP3    H1 5757   0.119   4.313   1.889
 1917TIP3    H2 5758   0.084   4.453   1.845
 1918TIP3   OH2 5759   4.157   1.039   0.763
 1918TIP3    H1 5760   4.099   1.002   0.696
 1918TIP3    H2 5761   4.226   0.973   0.774
 1919TIP3   OH2 5762   4.792   2.402   1.085
 1919TIP3    H1 5763   4.731   2.334   1.055
 1919TIP3    H2 5764   4.776   2.475   1.025
 1920TIP3   OH2 5765   4.451   4.819   1.816
 1920TIP3    H1 5766   4.541   4.805   1.787
 1920TIP3    H2 5767   4.399   4.755   1.768
 1921TIP3   OH2 5768   2.648   0.932   0.104
 1921TIP3    H1 5769   2.565   0.918   0.058
 1921TIP3    H2 5770   2.627   0.917   0.196
 1922TIP3   OH2 5771   3.721   0.929   0.938
 1922TIP3    H1 5772   3.713   0.969   0.852
 1922TIP3    H2 5773   3.703   1.001   1.000
 1923TIP3   OH2 5774   5.192   5.570   4.929
 1923TIP3    H1 5775   5.259   5.512   4.894
 1923TIP3    H2 5776   5.132   5.585   4.856
 1924TIP3   OH2 5777   3.786   0.984   4.593
 1924TIP3    H1 5778   3.859   0.922   4.594
 1924TIP3    H2 5779   3.715   0.937   4.549
 1925TIP3   OH2 5780   2.367   5.134   0.449
 1925TIP3    H1 5781   2.294   5.187   0.482
 1925TIP3    H2 5782   2.433   5.138   0.519
 1926TIP3   OH2 5783   6.244   5.731   3.226
 1926TIP3    H1 5784   6.263   5.818   3.191
 1926TIP3    H2 5785   6.304   5.673   3.179
 1927TIP3   OH2 5786   0.176   3.616   0.971
 1927TIP3    H1 5787   0.203   3.683   0.909
 1927TIP3    H2 5788   0.099   3.576   0.931
 1928TIP3   OH2 5789   0.725   2.006   2.234
 1928TIP3    H1 5790   0.738   1.913   2.254
 1928TIP3    H2 5791   0.808   2.034   2.195
 1929TIP3   OH2 5792   5.841   0.773   0.214
 1929TIP3    H1 5793   5.860   0.812   0.299
 1929TIP3    H2 5794   5.827   0.848   0.156
 1930TIP3   OH2 5795   0.254   0.101   0.948
 1930TIP3    H1 5796   0.303   0.019   0.956
 1930TIP3    H2 5797   0.199   0.104   1.027
 1931TIP3   OH2 5798   1.045   5.933   1.262
 1931TIP3    H1 5799   1.026   5.916   1.170
 1931TIP3    H2 5800   1.087   6.019   1.263
 1932TIP3   OH2 5801   5.465   3.628   0.537
 1932TIP3    H1 5802   5.418   3.614   0.619
 1932TIP3    H2 5803   5.544   3.575   0.547
 1933TIP3   OH2 5804   3.882   2.796   1.273
 1933TIP3    H1 5805   3.897   2.797   1.179
 1933TIP3    H2 5806   3.937   2.725   1.306
 1934TIP3   OH2 5807   1.060   4.743   5.057
 1934TIP3    H1 5808   0.990   4.680   5.073
 1934TIP3    H2 5809   1.021   4.828   5.080
 1935TIP3   OH2 5810   6.280   1.701   4.897
 1935TIP3    H1 5811   6.240   1.723   4.812
 1935TIP3    H2 5812   6.353   1.763   4.905
 1936TIP3   OH2 5813   3.263   3.927   0.028
 1936TIP3    H1 5814   3.168   3.936   0.038
 1936TIP3    H2 5815   3.293   4.015   0.006
 1937TIP3   OH2 5816   0.111   4.961   0.825
 1937TIP3    H1 5817   0.183   4.910   0.861
 1937TIP3    H2 5818   0.149   5.047   0.808
 1938TIP3   OH2 5819   1.023   4.477   2.168
 1938TIP3    H1 5820   0.982   4.393   2.147
 1938TIP3    H2 5821   0.952   4.530   2.204
 1939TIP3   OH2 5822   0.779   2.569   5.152
 1939TIP3    H1 5823   0.864   2.611   5.137
 1939TIP3    H2 5824   0.723   2.603   5.083
 1940TIP3   OH2 5825   5.577   2.677   4.533
 1940TIP3    H1 5826   5.543   2.670   4.623
 1940TIP3    H2 5827   5.574   2.771   4.514
 1941TIP3   OH2 5828   1.194   5.113   4.342
 1941TIP3    H1 5829   1.182   5.208   4.339
 1941TIP3    H2 5830   1.118   5.077   4.295
 1942TIP3   OH2 5831   4.395   0.988   1.064
 1942TIP3    H1 5832   4.342   0.928   1.012
 1942TIP3    H2 5833   4.335   1.059   1.088
 1943TIP3   OH2 5834   3.842   2.550   2.640
 1943TIP3    H1 5835   3.926   2.528   2.681
 1943TIP3    H2 5836   3.776   2.518   2.702
 1944TIP3   OH2 5837   4.318   5.161   2.251
 1944TIP3    H1 5838   4.379   5.222   2.209
 1944TIP3    H2 5839   4.232   5.190   2.223
 1945TIP3   OH2 5840   5.703   0.434   3.132
 1945TIP3    H1 5841   5.625   0.463   3.181
 1945TIP3    H2 5842   5.708   0.495   3.059
 1946TIP3   OH2 5843   3.600   3.964   1.835
 1946TIP3    H1 5844   3.648   4.044   1.859
 1946TIP3    H2 5845   3.508   3.988   1.846
 1947TIP3   OH2 5846   3.836   0.367   1.594
 1947TIP3    H1 5847   3.931   0.374   1.581
 1947TIP3    H2 5848   3.805   0.316   1.519
 1948TIP3   OH2 5849   6.214   0.876   4.898
 1948TIP3    H1 5850   6.173   0.820   4.832
 1948TIP3    H2 5851   6.247   0.951   4.848
 1949TIP3   OH2 5852   6.370   1.414   4.965
 1949TIP3    H1 5853   6.330   1.499   4.949
 1949TIP3    H2 5854   6.297   1.354   4.977
 1950TIP3   OH2 5855   5.807   4.696   2.855
 1950TIP3    H1 5856   5.755   4.776   2.849
 1950TIP3    H2 5857   5.896   4.724   2.837
 1951TIP3   OH2 5858   4.992   0.064   2.816
 1951TIP3    H1 5859   4.939   0.013   2.755
 1951TIP3    H2 5860   4.958   0.040   2.903
 1952TIP3   OH2 5861   1.735   1.195   2.874
 1952TIP3    H1 5862   1.715   1.258   2.806
 1952TIP3    H2 5863   1.671   1.125   2.862
 1953TIP3   OH2 5864   3.295   1.336   1.489
 1953TIP3    H1 5865   3.346   1.279   1.431
 1953TIP3    H2 5866   3.218   1.283   1.513
 1954TIP3   OH2 5867   2.566   3.755   1.576
 1954TIP3    H1 5868   2.481   3.712   1.564
 1954TIP3    H2 5869   2.549   3.823   1.642
 1955TIP3   OH2 5870   2.290   4.746   1.040
 1955TIP3    H1 5871   2.256   4.681   0.979
 1955TIP3    H2 5872   2.318   4.819   0.985
 1956TIP3   OH2 5873   5.522   5.564   0.403
 1956TIP3    H1 5874   5.525   5.565   0.498
 1956TIP3    H2 5875   5.560   5.648   0.377
 1957TIP3   OH2 5876  -0.019   0.850   3.424
 1957TIP3    H1 5877   0.071   0.823   3.404
 1957TIP3    H2 5878  -0.040   0.915   3.356
 1958TIP3   OH2 5879   1.797   4.063   0.078
 1958TIP3    H1 5880   1.830   3.988   0.028
 1958TIP3    H2 5881   1.847   4.062   0.159
 1959TIP3   OH2 5882   3.102   1.553  -0.012
 1959TIP3    H1 5883   3.031   1.490   0.000
 1959TIP3    H2 5884   3.181   1.508   0.018
 1960TIP3   OH2 5885   6.226   2.721   1.843
 1960TIP3    H1 5886   6.183   2.775   1.777
 1960TIP3    H2 5887   6.156   2.664   1.876
 1961TIP3   OH2 5888   2.097   3.197   4.955
 1961TIP3    H1 5889   2.189   3.178   4.974
 1961TIP3    H2 5890   2.098   3.285   4.918
 1962TIP3   OH2 5891   3.869   5.565   3.111
 1962TIP3    H1 5892   3.866   5.595   3.202
 1962TIP3    H2 5893   3.836   5.475   3.114
 1963TIP3   OH2 5894   0.936   2.237   1.643
 1963TIP3    H1 5895   0.963   2.146   1.631
 1963TIP3    H2 5896   0.961   2.258   1.733
 1964TIP3   OH2 5897   2.435   5.854   1.496
 1964TIP3    H1 5898   2.526   5.845   1.523
 1964TIP3    H2 5899   2.437   5.919   1.425
 1965TIP3   OH2 5900   2.709   1.652   0.111
 1965TIP3    H1 5901   2.760   1.701   0.047
 1965TIP3    H2 5902   2.775   1.614   0.170
 1966TIP3   OH2 5903   3.715   2.725   1.665
 1966TIP3    H1 5904   3.710   2.648   1.609
 1966TIP3    H2 5905   3.733   2.797   1.604
 1967TIP3   OH2 5906   1.152   3.050   1.533
 1967TIP3    H1 5907   1.183   3.141   1.530
 1967TIP3    H2 5908   1.077   3.049   1.473
 1968TIP3   OH2 5909   4.192   2.883   1.203
 1968TIP3    H1 5910   4.224   2.902   1.115
 1968TIP3    H2 5911   4.222   2.794   1.221
 1969TIP3   OH2 5912   5.255   1.546   0.238
 1969TIP3    H1 5913   5.248   1.609   0.310
 1969TIP3    H2 5914   5.328   1.489   0.262
 1970TIP3   OH2 5915   0.529   0.427   1.564
 1970TIP3    H1 5916   0.469   0.469   1.626
 1970TIP3    H2 5917   0.604   0.485   1.559
 1971TIP3   OH2 5918   5.457   1.294   2.633
 1971TIP3    H1 5919   5.518   1.238   2.680
 1971TIP3    H2 5920   5.512   1.354   2.584
 1972TIP3   OH2 5921   5.426   1.882   3.561
 1972TIP3    H1 5922   5.509   1.847   3.593
 1972TIP3    H2 5923   5.425   1.973   3.592
 1973TIP3   OH2 5924   0.698   2.285   1.944
 1973TIP3    H1 5925   0.701   2.303   1.850
 1973TIP3    H2 5926   0.784   2.310   1.976
 1974TIP3   OH2 5927   3.766   3.940   4.560
 1974TIP3    H1 5928   3.724   4.020   4.591
 1974TIP3    H2 5929   3.742   3.935   4.468
 1975TIP3   OH2 5930   0.907   0.859   1.199
 1975TIP3    H1 5931   0.897   0.821   1.286
 1975TIP3    H2 5932   0.944   0.789   1.145
 1976TIP3   OH2 5933   1.642   2.111   2.199
 1976TIP3    H1 5934   1.649   2.015   2.202
 1976TIP3    H2 5935   1.549   2.128   2.190
 1977TIP3   OH2 5936   0.054   3.189   3.397
 1977TIP3    H1 5937  -0.018   3.213   3.339
 1977TIP3    H2 5938   0.015   3.126   3.458
 1978TIP3   OH2 5939   0.126   3.124   2.308
 1978TIP3    H1 5940   0.112   3.092   2.218
 1978TIP3    H2 5941   0.188   3.196   2.298
 1979TIP3   OH2 5942   2.900   2.455   4.251
 1979TIP3    H1 5943   2.870   2.546   4.249
 1979TIP3    H2 5944   2.850   2.415   4.323
 1980TIP3   OH2 5945   1.045   5.522   3.349
 1980TIP3    H1 5946   1.084   5.449   3.397
 1980TIP3    H2 5947   1.017   5.584   3.418
 1981TIP3   OH2 5948   3.671   3.046   0.959
 1981TIP3    H1 5949   3.718   3.024   1.040
 1981TIP3    H2 5950   3.584   3.074   0.988
 1982TIP3   OH2 5951   2.307   5.607   2.069
 1982TIP3    H1 5952   2.269   5.566   1.991
 1982TIP3    H2 5953   2.372   5.669   2.034
 1983TIP3   OH2 5954   4.743   4.071   3.342
 1983TIP3    H1 5955   4.746   4.152   3.292
 1983TIP3    H2 5956   4.785   4.092   3.426
 1984TIP3   OH2 5957   1.954   0.732   4.037
 1984TIP3    H1 5958   1.980   0.773   4.120
 1984TIP3    H2 5959   1.894   0.796   3.998
 1985TIP3   OH2 5960   1.243   2.965   0.646
 1985TIP3    H1 5961   1.312   2.948   0.583
 1985TIP3    H2 5962   1.229   3.060   0.643
 1986TIP3   OH2 5963   2.952   0.361   0.815
 1986TIP3    H1 5964   3.042   0.328   0.805
 1986TIP3    H2 5965   2.954   0.448   0.777
 1987TIP3   OH2 5966   4.984   5.253   1.293
 1987TIP3    H1 5967   5.077   5.235   1.280
 1987TIP3    H2 5968   4.982   5.320   1.362
 1988TIP3   OH2 5969   3.748   0.549   3.029
 1988TIP3    H1 5970   3.688   0.550   2.954
 1988TIP3    H2 5971   3.816   0.612   3.006
 1989TIP3   OH2 5972   3.134   2.316   4.280
 1989TIP3    H1 5973   3.067   2.374   4.243
 1989TIP3    H2 5974   3.086   2.238   4.305
 1990TIP3   OH2 5975   0.474   5.843   3.035
 1990TIP3    H1 5976   0.506   5.900   3.104
 1990TIP3    H2 5977   0.383   5.869   3.021
 1991TIP3   OH2 5978   1.101   3.814   2.482
 1991TIP3    H1 5979   1.024   3.867   2.504
 1991TIP3    H2 5980   1.170   3.848   2.539
 1992TIP3   OH2 5981   5.656   4.911   3.788
 1992TIP3    H1 5982   5.652   4.932   3.881
 1992TIP3    H2 5983   5.595   4.838   3.777
 1993TIP3   OH2 5984   3.567   3.119   3.049
 1993TIP3    H1 5985   3.632   3.133   3.118
 1993TIP3    H2 5986   3.498   3.182   3.068
 1994TIP3   OH2 5987   1.825   5.478   0.720
 1994TIP3    H1 5988   1.908   5.434   0.705
 1994TIP3    H2 5989   1.765   5.408   0.745
 1995TIP3   OH2 5990   4.320   5.516   4.205
 1995TIP3    H1 5991   4.412   5.491   4.204
 1995TIP3    H2 5992   4.291   5.500   4.295
 1996TIP3   OH2 5993   1.282   5.753   1.322
 1996TIP3    H1 5994   1.365   5.716   1.354
 1996TIP3    H2 5995   1.235   5.779   1.401
 1997TIP3   OH2 5996   2.302   4.239   2.207
 1997TIP3    H1 5997   2.351   4.165   2.172
 1997TIP3    H2 5998   2.368   4.305   2.225
 1998TIP3   OH2 5999   1.683   2.687   4.501
 1998TIP3    H1 6000   1.650   2.627   4.433
 1998TIP3    H2 6001   1.647   2.652   4.583
 1999TIP3   OH2 6002   4.373   3.123   4.041
 1999TIP3    H1 6003   4.347   3.064   3.971
 1999TIP3    H2 6004   4.320   3.096   4.117
 2000TIP3   OH2 6005   3.490   1.723   2.837
 2000TIP3    H1 6006   3.585   1.729   2.841
 2000TIP3    H2 6007   3.472   1.647   2.781
 2001TIP3   OH2 6008   2.119   0.945   4.696
 2001TIP3    H1 6009   2.128   1.029   4.741
 2001TIP3    H2 6010   2.097   0.969   4.606
 2002TIP3   OH2 6011   5.692   4.531   3.963
 2002TIP3    H1 6012   5.606   4.491   3.972
 2002TIP3    H2 6013   5.691   4.573   3.877
 2003TIP3   OH2 6014   3.858   2.356   0.001
 2003TIP3    H1 6015   3.795   2.299   0.045
 2003TIP3    H2 6016   3.898   2.408   0.071
 2004TIP3   OH2 6017   2.224   3.821   2.748
 2004TIP3    H1 6018   2.240   3.818   2.843
 2004TIP3    H2 6019   2.133   3.794   2.738
 2005TIP3   OH2 6020   3.364   5.361   2.441
 2005TIP3    H1 6021   3.457   5.341   2.454
 2005TIP3    H2 6022   3.334   5.297   2.378
 2006TIP3   OH2 6023   1.329   3.353  -0.003
 2006TIP3    H1 6024   1.271   3.278  -0.018
 2006TIP3    H2 6025   1.411   3.314   0.028
 2007TIP3   OH2 6026   0.761   2.517   0.602
 2007TIP3    H1 6027   0.816   2.485   0.674
 2007TIP3    H2 6028   0.697   2.447   0.588
 2008TIP3   OH2 6029   0.419   5.117   5.175
 2008TIP3    H1 6030   0.419   5.089   5.084
 2008TIP3    H2 6031   0.479   5.192   5.178
 2009TIP3   OH2 6032   2.199   2.098   0.859
 2009TIP3    H1 6033   2.283   2.142   0.852
 2009TIP3    H2 6034   2.181   2.096   0.953
 2010TIP3   OH2 6035   4.166   0.855   3.591
 2010TIP3    H1 6036   4.210   0.774   3.566
 2010TIP3    H2 6037   4.208   0.923   3.538
 2011TIP3   OH2 6038   2.296   0.133   1.902
 2011TIP3    H1 6039   2.378   0.120   1.948
 2011TIP3    H2 6040   2.321   0.146   1.810
 2012TIP3   OH2 6041   2.739   2.322   2.927
 2012TIP3    H1 6042   2.784   2.340   2.844
 2012TIP3    H2 6043   2.659   2.277   2.902
 2013TIP3   OH2 6044   2.013   5.547   2.273
 2013TIP3    H1 6045   1.994   5.462   2.234
 2013TIP3    H2 6046   2.106   5.543   2.297
 2014TIP3   OH2 6047   5.110   4.185   1.489
 2014TIP3    H1 6048   5.196   4.169   1.528
 2014TIP3    H2 6049   5.116   4.145   1.402
 2015TIP3   OH2 6050   2.788   2.965   0.861
 2015TIP3    H1 6051   2.755   2.924   0.942
 2015TIP3    H2 6052   2.721   3.027   0.836
 2016TIP3   OH2 6053   1.757   4.892   1.199
 2016TIP3    H1 6054   1.806   4.876   1.119
 2016TIP3    H2 6055   1.814   4.863   1.269
 2017TIP3   OH2 6056   2.727   4.775   1.934
 2017TIP3    H1 6057   2.672   4.749   1.860
 2017TIP3    H2 6058   2.791   4.705   1.942
 2018TIP3   OH2 6059   0.402   3.546   4.922
 2018TIP3    H1 6060   0.452   3.618   4.961
 2018TIP3    H2 6061   0.426   3.469   4.973
 2019TIP3   OH2 6062   2.252   4.768   2.493
 2019TIP3    H1 6063   2.195   4.836   2.458
 2019TIP3    H2 6064   2.341   4.794   2.466
 2020TIP3   OH2 6065   5.102   0.465   4.581
 2020TIP3    H1 6066   5.020   0.482   4.627
 2020TIP3    H2 6067   5.112   0.370   4.584
 2021TIP3   OH2 6068   5.845   3.549   1.769
 2021TIP3    H1 6069   5.817   3.552   1.678
 2021TIP3    H2 6070   5.817   3.632   1.807
 2022TIP3   OH2 6071   4.728   1.155   3.602
 2022TIP3    H1 6072   4.675   1.092   3.554
 2022TIP3    H2 6073   4.816   1.147   3.564
 2023TIP3   OH2 6074   4.659   1.566   0.687
 2023TIP3    H1 6075   4.739   1.551   0.737
 2023TIP3    H2 6076   4.593   1.513   0.732
 2024TIP3   OH2 6077   3.664   5.447   2.052
 2024TIP3    H1 6078   3.675   5.402   1.968
 2024TIP3    H2 6079   3.579   5.418   2.084
 2025TIP3   OH2 6080   2.247   0.090   0.074
 2025TIP3    H1 6081   2.205   0.132   0.149
 2025TIP3    H2 6082   2.338   0.118   0.079
 2026TIP3   OH2 6083   1.614   2.977   0.491
 2026TIP3    H1 6084   1.605   3.036   0.565
 2026TIP3    H2 6085   1.696   2.930   0.507
 2027TIP3   OH2 6086   6.250   0.844   2.814
 2027TIP3    H1 6087   6.329   0.836   2.761
 2027TIP3    H2 6088   6.207   0.922   2.781
 2028TIP3   OH2 6089   2.211   0.420   4.993
 2028TIP3    H1 6090   2.301   0.435   4.964
 2028TIP3    H2 6091   2.190   0.495   5.049
 2029TIP3   OH2 6092   0.498   3.638   4.097
 2029TIP3    H1 6093   0.476   3.546   4.105
 2029TIP3    H2 6094   0.439   3.682   4.158
 2030TIP3   OH2 6095   2.784   2.702   4.276
 2030TIP3    H1 6096   2.707   2.721   4.329
 2030TIP3    H2 6097   2.858   2.726   4.333
 2031TIP3   OH2 6098   2.979   4.963   2.930
 2031TIP3    H1 6099   2.941   4.876   2.918
 2031TIP3    H2 6100   2.922   5.022   2.881
 2032TIP3   OH2 6101   4.701   2.229   3.288
 2032TIP3    H1 6102   4.624   2.172   3.292
 2032TIP3    H2 6103   4.672   2.307   3.243
 2033TIP3   OH2 6104   2.944   0.600   4.199
 2033TIP3    H1 6105   3.031   0.575   4.168
 2033TIP3    H2 6106   2.957   0.684   4.242
 2034TIP3   OH2 6107   5.352   4.770   0.841
 2034TIP3    H1 6108   5.412   4.750   0.769
 2034TIP3    H2 6109   5.350   4.866   0.844
 2035TIP3   OH2 6110   1.660   1.309   3.538
 2035TIP3    H1 6111   1.700   1.385   3.580
 2035TIP3    H2 6112   1.651   1.335   3.446
 2036TIP3   OH2 6113   4.859   0.567   0.860
 2036TIP3    H1 6114   4.864   0.641   0.800
 2036TIP3    H2 6115   4.854   0.607   0.947
 2037TIP3   OH2 6116   4.371   2.973   1.816
 2037TIP3    H1 6117   4.387   2.951   1.724
 2037TIP3    H2 6118   4.424   3.052   1.831
 2038TIP3   OH2 6119   4.637   1.845   1.617
 2038TIP3    H1 6120   4.609   1.817   1.530
 2038TIP3    H2 6121   4.597   1.780   1.676
 2039TIP3   OH2 6122   3.615   2.809   3.593
 2039TIP3    H1 6123   3.611   2.720   3.558
 2039TIP3    H2 6124   3.624   2.864   3.515
 2040TIP3   OH2 6125   0.900   2.678   4.757
 2040TIP3    H1 6126   0.989   2.696   4.787
 2040TIP3    H2 6127   0.893   2.582   4.759
 2041TIP3   OH2 6128   5.887   1.292   3.022
 2041TIP3    H1 6129   5.840   1.348   3.084
 2041TIP3    H2 6130   5.890   1.344   2.941
 2042TIP3   OH2 6131   2.113   1.918   4.149
 2042TIP3    H1 6132   2.156   1.999   4.175
 2042TIP3    H2 6133   2.181   1.868   4.105
 2043TIP3   OH2 6134   1.759   0.706   3.361
 2043TIP3    H1 6135   1.716   0.784   3.327
 2043TIP3    H2 6136   1.836   0.740   3.407
 2044TIP3   OH2 6137   5.808   2.020   2.484
 2044TIP3    H1 6138   5.900   1.991   2.489
 2044TIP3    H2 6139   5.767   1.983   2.563
 2045TIP3   OH2 6140   2.475   5.648   2.442
 2045TIP3    H1 6141   2.477   5.743   2.435
 2045TIP3    H2 6142   2.458   5.631   2.535
 2046TIP3   OH2 6143   4.666   4.684   4.874
 2046TIP3    H1 6144   4.669   4.671   4.779
 2046TIP3    H2 6145   4.722   4.760   4.890
 2047TIP3   OH2 6146   4.448   2.941   1.553
 2047TIP3    H1 6147   4.515   2.975   1.494
 2047TIP3    H2 6148   4.442   2.848   1.530
 2048TIP3   OH2 6149   5.885   3.978   0.786
 2048TIP3    H1 6150   5.973   3.945   0.771
 2048TIP3    H2 6151   5.898   4.068   0.818
 2049TIP3   OH2 6152   3.735   1.457   0.559
 2049TIP3    H1 6153   3.802   1.513   0.520
 2049TIP3    H2 6154   3.772   1.369   0.557
 2050TIP3   OH2 6155   2.916   1.691   2.852
 2050TIP3    H1 6156   2.985   1.627   2.866
 2050TIP3    H2 6157   2.876   1.703   2.938
 2051TIP3   OH2 6158   2.886   0.674   1.152
 2051TIP3    H1 6159   2.905   0.608   1.085
 2051TIP3    H2 6160   2.813   0.637   1.202
 2052TIP3   OH2 6161   4.178   1.248   0.130
 2052TIP3    H1 6162   4.240   1.316   0.104
 2052TIP3    H2 6163   4.233   1.174   0.158
 2053TIP3   OH2 6164   3.713   3.494   4.874
 2053TIP3    H1 6165   3.654   3.552   4.922
 2053TIP3    H2 6166   3.695   3.512   4.782
 2054TIP3   OH2 6167   2.343   3.525   0.088
 2054TIP3    H1 6168   2.327   3.612   0.123
 2054TIP3    H2 6169   2.438   3.512   0.099
 2055TIP3   OH2 6170   3.355   0.332   4.224
 2055TIP3    H1 6171   3.443   0.351   4.192
 2055TIP3    H2 6172   3.366   0.317   4.318
 2056TIP3   OH2 6173   5.095   2.556   2.703
 2056TIP3    H1 6174   5.134   2.489   2.758
 2056TIP3    H2 6175   5.039   2.607   2.762
 2057TIP3   OH2 6176   0.487   2.611   0.113
 2057TIP3    H1 6177   0.442   2.685   0.073
 2057TIP3    H2 6178   0.580   2.629   0.100
 2058TIP3   OH2 6179   5.685   1.740   1.097
 2058TIP3    H1 6180   5.655   1.702   1.180
 2058TIP3    H2 6181   5.652   1.830   1.099
 2059TIP3   OH2 6182   0.760   5.115   3.192
 2059TIP3    H1 6183   0.801   5.201   3.203
 2059TIP3    H2 6184   0.723   5.116   3.104
 2060TIP3   OH2 6185   3.686   1.464   0.890
 2060TIP3    H1 6186   3.765   1.413   0.876
 2060TIP3    H2 6187   3.626   1.436   0.820
 2061TIP3   OH2 6188   3.333   4.489   4.220
 2061TIP3    H1 6189   3.332   4.577   4.182
 2061TIP3    H2 6190   3.272   4.493   4.293
 2062TIP3   OH2 6191   4.018   1.094   4.353
 2062TIP3    H1 6192   3.960   1.082   4.427
 2062TIP3    H2 6193   4.004   1.185   4.326
 2063TIP3   OH2 6194   1.424   1.860   4.723
 2063TIP3    H1 6195   1.495   1.885   4.663
 2063TIP3    H2 6196   1.451   1.774   4.757
 2064TIP3   OH2 6197   5.058   2.069   1.214
 2064TIP3    H1 6198   4.997   1.997   1.232
 2064TIP3    H2 6199   5.099   2.045   1.131
 2065TIP3   OH2 6200   3.638   2.868   4.233
 2065TIP3    H1 6201   3.672   2.850   4.146
 2065TIP3    H2 6202   3.679   2.951   4.259
 2066TIP3   OH2 6203   5.915   1.743   3.829
 2066TIP3    H1 6204   5.903   1.822   3.882
 2066TIP3    H2 6205   5.929   1.673   3.892
 2067TIP3   OH2 6206   4.679   5.234   3.560
 2067TIP3    H1 6207   4.670   5.147   3.600
 2067TIP3    H2 6208   4.609   5.238   3.495
 2068TIP3   OH2 6209   5.007   0.123   4.406
 2068TIP3    H1 6210   4.952   0.114   4.328
 2068TIP3    H2 6211   4.949   0.098   4.478
 2069TIP3   OH2 6212   4.388   3.364   4.413
 2069TIP3    H1 6213   4.294   3.342   4.408
 2069TIP3    H2 6214   4.390   3.458   4.425
 2070TIP3   OH2 6215   3.741   1.672   5.006
 2070TIP3    H1 6216   3.798   1.742   5.040
 2070TIP3    H2 6217   3.667   1.718   4.967
 2071TIP3   OH2 6218   5.919   3.968   3.825
 2071TIP3    H1 6219   6.011   3.986   3.804
 2071TIP3    H2 6220   5.873   4.047   3.798
 2072TIP3   OH2 6221   0.830   3.866   1.401
 2072TIP3    H1 6222   0.915   3.907   1.419
 2072TIP3    H2 6223   0.818   3.877   1.306
 2073TIP3   OH2 6224   3.290   3.706   2.401
 2073TIP3    H1 6225   3.247   3.659   2.472
 2073TIP3    H2 6226   3.301   3.795   2.434
 2074TIP3   OH2 6227   1.489   1.165   0.892
 2074TIP3    H1 6228   1.503   1.073   0.869
 2074TIP3    H2 6229   1.576   1.205   0.887
 2075TIP3   OH2 6230   2.821   4.736   1.477
 2075TIP3    H1 6231   2.786   4.756   1.390
 2075TIP3    H2 6232   2.743   4.727   1.532
 2076TIP3   OH2 6233   0.477   4.100   4.979
 2076TIP3    H1 6234   0.569   4.124   4.979
 2076TIP3    H2 6235   0.440   4.142   5.057
 2077TIP3   OH2 6236   5.566   2.417   1.600
 2077TIP3    H1 6237   5.476   2.416   1.570
 2077TIP3    H2 6238   5.568   2.356   1.674
 2078TIP3   OH2 6239   3.731   3.987   2.942
 2078TIP3    H1 6240   3.661   3.925   2.960
 2078TIP3    H2 6241   3.737   4.041   3.020
 2079TIP3   OH2 6242   4.437   2.623   1.523
 2079TIP3    H1 6243   4.348   2.635   1.554
 2079TIP3    H2 6244   4.428   2.569   1.444
 2080TIP3   OH2 6245   3.721   4.104   1.583
 2080TIP3    H1 6246   3.765   4.021   1.603
 2080TIP3    H2 6247   3.628   4.084   1.593
 2081TIP3   OH2 6248   5.192   3.973   2.604
 2081TIP3    H1 6249   5.222   3.914   2.673
 2081TIP3    H2 6250   5.213   3.928   2.523
 2082TIP3   OH2 6251   4.552   4.028   2.785
 2082TIP3    H1 6252   4.457   4.021   2.775
 2082TIP3    H2 6253   4.585   4.027   2.695
 2083TIP3   OH2 6254   5.019   4.773   1.326
 2083TIP3    H1 6255   4.990   4.803   1.411
 2083TIP3    H2 6256   4.988   4.840   1.264
 2084TIP3   OH2 6257   0.903   1.265   0.623
 2084TIP3    H1 6258   0.866   1.286   0.709
 2084TIP3    H2 6259   0.832   1.283   0.562
 2085TIP3   OH2 6260   6.145   1.565   0.531
 2085TIP3    H1 6261   6.199   1.490   0.507
 2085TIP3    H2 6262   6.148   1.623   0.455
 2086TIP3   OH2 6263   4.261   3.012   3.193
 2086TIP3    H1 6264   4.339   3.035   3.143
 2086TIP3    H2 6265   4.244   3.088   3.248
 2087TIP3   OH2 6266   0.534   3.332   0.595
 2087TIP3    H1 6267   0.463   3.332   0.530
 2087TIP3    H2 6268   0.521   3.413   0.644
 2088TIP3   OH2 6269   4.288   0.799   0.896
 2088TIP3    H1 6270   4.346   0.723   0.905
 2088TIP3    H2 6271   4.202   0.767   0.923
 2089TIP3   OH2 6272   4.993   3.791   2.089
 2089TIP3    H1 6273   4.902   3.820   2.075
 2089TIP3    H2 6274   5.021   3.758   2.003
 2090TIP3   OH2 6275   3.853   4.766   4.363
 2090TIP3    H1 6276   3.934   4.779   4.313
 2090TIP3    H2 6277   3.788   4.742   4.297
 2091TIP3   OH2 6278   3.905   5.147   2.328
 2091TIP3    H1 6279   3.871   5.067   2.368
 2091TIP3    H2 6280   3.937   5.199   2.403
 2092TIP3   OH2 6281   5.907   3.578   4.866
 2092TIP3    H1 6282   5.978   3.604   4.807
 2092TIP3    H2 6283   5.923   3.485   4.883
 2093TIP3   OH2 6284   1.813   1.042   1.914
 2093TIP3    H1 6285   1.784   0.992   1.838
 2093TIP3    H2 6286   1.733   1.067   1.959
 2094TIP3   OH2 6287   1.961   5.660   3.385
 2094TIP3    H1 6288   2.033   5.692   3.439
 2094TIP3    H2 6289   1.882   5.692   3.427
 2095TIP3   OH2 6290   4.748   3.106   4.363
 2095TIP3    H1 6291   4.703   3.190   4.354
 2095TIP3    H2 6292   4.836   3.130   4.394
 2096TIP3   OH2 6293   1.948   3.022   4.200
 2096TIP3    H1 6294   1.857   2.994   4.199
 2096TIP3    H2 6295   1.997   2.944   4.224
 2097TIP3   OH2 6296   2.760   5.720   2.493
 2097TIP3    H1 6297   2.721   5.790   2.546
 2097TIP3    H2 6298   2.685   5.667   2.465
 2098TIP3   OH2 6299   2.518   2.574   2.141
 2098TIP3    H1 6300   2.596   2.520   2.132
 2098TIP3    H2 6301   2.552   2.659   2.169
 2099TIP3   OH2 6302   3.852   0.647   1.029
 2099TIP3    H1 6303   3.919   0.712   1.009
 2099TIP3    H2 6304   3.815   0.676   1.113
 2100TIP3   OH2 6305   2.755   1.005   3.824
 2100TIP3    H1 6306   2.750   1.083   3.878
 2100TIP3    H2 6307   2.817   0.948   3.869
 2101TIP3   OH2 6308   1.891   2.338   3.223
 2101TIP3    H1 6309   1.805   2.314   3.257
 2101TIP3    H2 6310   1.872   2.394   3.148
 2102TIP3   OH2 6311   0.283   3.878   2.664
 2102TIP3    H1 6312   0.357   3.820   2.643
 2102TIP3    H2 6313   0.206   3.821   2.659
 2103TIP3   OH2 6314   3.544   3.523   3.133
 2103TIP3    H1 6315   3.478   3.455   3.118
 2103TIP3    H2 6316   3.563   3.557   3.045
 2104TIP3   OH2 6317   3.479   5.083   0.573
 2104TIP3    H1 6318   3.568   5.117   0.561
 2104TIP3    H2 6319   3.473   5.009   0.512
 2105TIP3   OH2 6320   1.508   5.812   4.159
 2105TIP3    H1 6321   1.458   5.792   4.080
 2105TIP3    H2 6322   1.443   5.821   4.228
 2106TIP3   OH2 6323   6.105   0.668   1.269
 2106TIP3    H1 6324   6.041   0.734   1.297
 2106TIP3    H2 6325   6.122   0.689   1.177
 2107TIP3   OH2 6326   0.896   4.579   2.926
 2107TIP3    H1 6327   0.979   4.627   2.925
 2107TIP3    H2 6328   0.831   4.642   2.956
 2108TIP3   OH2 6329   6.097   2.606   1.058
 2108TIP3    H1 6330   6.144   2.672   1.109
 2108TIP3    H2 6331   6.150   2.527   1.067
 2109TIP3   OH2 6332   1.010   2.955   1.016
 2109TIP3    H1 6333   0.931   2.965   0.964
 2109TIP3    H2 6334   1.057   2.882   0.974
 2110TIP3   OH2 6335   1.761   0.924   3.902
 2110TIP3    H1 6336   1.772   1.004   3.851
 2110TIP3    H2 6337   1.741   0.856   3.838
 2111TIP3   OH2 6338   4.754   0.077   3.637
 2111TIP3    H1 6339   4.694   0.085   3.712
 2111TIP3    H2 6340   4.696   0.074   3.561
 2112TIP3   OH2 6341   4.282   2.981   2.811
 2112TIP3    H1 6342   4.326   3.052   2.858
 2112TIP3    H2 6343   4.296   3.001   2.719
 2113TIP3   OH2 6344   2.610   3.242   4.411
 2113TIP3    H1 6345   2.689   3.271   4.366
 2113TIP3    H2 6346   2.642   3.182   4.479
 2114TIP3   OH2 6347   5.720   0.770   1.344
 2114TIP3    H1 6348   5.748   0.678   1.333
 2114TIP3    H2 6349   5.755   0.795   1.429
 2115TIP3   OH2 6350   3.254   0.073   3.531
 2115TIP3    H1 6351   3.282   0.043   3.445
 2115TIP3    H2 6352   3.163   0.102   3.518
 2116TIP3   OH2 6353   4.058   2.482   2.782
 2116TIP3    H1 6354   4.051   2.406   2.840
 2116TIP3    H2 6355   4.112   2.544   2.831
 2117TIP3   OH2 6356   0.470   2.341   1.380
 2117TIP3    H1 6357   0.512   2.320   1.464
 2117TIP3    H2 6358   0.536   2.392   1.333
 2118TIP3   OH2 6359   4.672   0.418   1.419
 2118TIP3    H1 6360   4.759   0.403   1.381
 2118TIP3    H2 6361   4.658   0.513   1.413
 2119TIP3   OH2 6362   2.199   2.072   3.812
 2119TIP3    H1 6363   2.278   2.076   3.866
 2119TIP3    H2 6364   2.223   2.116   3.731
 2120TIP3   OH2 6365   5.491   1.804   2.506
 2120TIP3    H1 6366   5.585   1.798   2.485
 2120TIP3    H2 6367   5.462   1.883   2.461
 2121TIP3   OH2 6368   3.387   0.187   0.414
 2121TIP3    H1 6369   3.441   0.165   0.490
 2121TIP3    H2 6370   3.447   0.229   0.353
 2122TIP3   OH2 6371   2.409   4.477   0.253
 2122TIP3    H1 6372   2.434   4.558   0.208
 2122TIP3    H2 6373   2.321   4.457   0.221
 2123TIP3   OH2 6374   0.659   0.519   4.444
 2123TIP3    H1 6375   0.753   0.505   4.437
 2123TIP3    H2 6376   0.642   0.599   4.395
 2124TIP3   OH2 6377   0.269   5.471   5.132
 2124TIP3    H1 6378   0.253   5.557   5.170
 2124TIP3    H2 6379   0.194   5.457   5.074
 2125TIP3   OH2 6380   3.259   4.668   0.522
 2125TIP3    H1 6381   3.180   4.721   0.516
 2125TIP3    H2 6382   3.289   4.681   0.612
 2126TIP3   OH2 6383   5.882   3.434   0.034
 2126TIP3    H1 6384   5.960   3.378   0.033
 2126TIP3    H2 6385   5.813   3.379   0.072
 2127TIP3   OH2 6386   4.959   2.822   1.303
 2127TIP3    H1 6387   4.883   2.766   1.316
 2127TIP3    H2 6388   4.980   2.813   1.210
 2128TIP3   OH2 6389   5.096   1.019   2.964
 2128TIP3    H1 6390   5.100   1.027   2.869
 2128TIP3    H2 6391   5.002   1.025   2.985
 2129TIP3   OH2 6392   1.127   1.975   0.142
 2129TIP3    H1 6393   1.213   1.971   0.100
 2129TIP3    H2 6394   1.080   1.898   0.108
 2130TIP3   OH2 6395   0.669   5.224   4.605
 2130TIP3    H1 6396   0.726   5.150   4.626
 2130TIP3    H2 6397   0.710   5.266   4.530
 2131TIP3   OH2 6398   0.903   3.093   2.137
 2131TIP3    H1 6399   0.854   3.102   2.219
 2131TIP3    H2 6400   0.837   3.073   2.071
 2132TIP3   OH2 6401   4.696   4.356   4.376
 2132TIP3    H1 6402   4.769   4.317   4.424
 2132TIP3    H2 6403   4.735   4.421   4.318
 2133TIP3   OH2 6404   5.654   1.216   2.827
 2133TIP3    H1 6405   5.631   1.211   2.919
 2133TIP3    H2 6406   5.712   1.291   2.820
 2134TIP3   OH2 6407   3.406   0.524   1.335
 2134TIP3    H1 6408   3.366   0.609   1.350
 2134TIP3    H2 6409   3.386   0.505   1.243
 2135TIP3   OH2 6410   1.366   0.663   3.910
 2135TIP3    H1 6411   1.417   0.716   3.971
 2135TIP3    H2 6412   1.298   0.723   3.878
 2136TIP3   OH2 6413   6.316   5.245   0.625
 2136TIP3    H1 6414   6.322   5.323   0.679
 2136TIP3    H2 6415   6.237   5.259   0.572
 2137TIP3   OH2 6416   1.430   2.407   1.074
 2137TIP3    H1 6417   1.516   2.364   1.071
 2137TIP3    H2 6418   1.414   2.434   0.983
 2138TIP3   OH2 6419   4.166   5.829   2.976
 2138TIP3    H1 6420   4.146   5.741   2.943
 2138TIP3    H2 6421   4.207   5.814   3.061
 2139TIP3   OH2 6422   0.819   5.701   0.485
 2139TIP3    H1 6423   0.912   5.724   0.489
 2139TIP3    H2 6424   0.799   5.699   0.391
 2140TIP3   OH2 6425   0.735   4.946   0.205
 2140TIP3    H1 6426   0.690   5.001   0.142
 2140TIP3    H2 6427   0.822   4.985   0.214
 2141TIP3   OH2 6428   5.851   2.097   1.285
 2141TIP3    H1 6429   5.873   2.191   1.285
 2141TIP3    H2 6430   5.803   2.084   1.367
 2142TIP3   OH2 6431   3.650   1.402   1.194
 2142TIP3    H1 6432   3.670   1.484   1.239
 2142TIP3    H2 6433   3.671   1.420   1.102
 2143TIP3   OH2 6434   1.267   0.903   1.410
 2143TIP3    H1 6435   1.288   0.874   1.321
 2143TIP3    H2 6436   1.310   0.838   1.466
 2144TIP3   OH2 6437   4.829   1.600   0.363
 2144TIP3    H1 6438   4.861   1.594   0.273
 2144TIP3    H2 6439   4.864   1.522   0.406
 2145TIP3   OH2 6440   2.571   3.516   1.308
 2145TIP3    H1 6441   2.519   3.507   1.228
 2145TIP3    H2 6442   2.521   3.470   1.375
 2146TIP3   OH2 6443   6.346   0.719   1.794
 2146TIP3    H1 6444   6.386   0.678   1.718
 2146TIP3    H2 6445   6.293   0.650   1.834
 2147TIP3   OH2 6446   6.116   4.459   0.775
 2147TIP3    H1 6447   6.186   4.515   0.809
 2147TIP3    H2 6448   6.158   4.374   0.760
 2148TIP3   OH2 6449   5.843   2.565   5.047
 2148TIP3    H1 6450   5.756   2.602   5.063
 2148TIP3    H2 6451   5.848   2.558   4.951
 2149TIP3   OH2 6452   0.723   0.742   2.375
 2149TIP3    H1 6453   0.638   0.786   2.377
 2149TIP3    H2 6454   0.701   0.649   2.370
 2150TIP3   OH2 6455   5.792   2.590   1.029
 2150TIP3    H1 6456   5.885   2.603   1.011
 2150TIP3    H2 6457   5.747   2.619   0.949
 2151TIP3   OH2 6458   1.878   4.880   3.332
 2151TIP3    H1 6459   1.932   4.813   3.373
 2151TIP3    H2 6460   1.933   4.958   3.332
 2152TIP3   OH2 6461   4.449   4.464   3.914
 2152TIP3    H1 6462   4.423   4.373   3.901
 2152TIP3    H2 6463   4.369   4.507   3.944
 2153TIP3   OH2 6464   2.529   4.900   4.880
 2153TIP3    H1 6465   2.472   4.881   4.806
 2153TIP3    H2 6466   2.500   4.986   4.912
 2154TIP3   OH2 6467   0.373   3.047   0.992
 2154TIP3    H1 6468   0.349   3.013   0.906
 2154TIP3    H2 6469   0.295   3.037   1.045
 2155TIP3   OH2 6470   3.447   0.822   3.065
 2155TIP3    H1 6471   3.382   0.826   3.136
 2155TIP3    H2 6472   3.531   0.813   3.110
 2156TIP3   OH2 6473   5.653   0.047   2.742
 2156TIP3    H1 6474   5.732   0.026   2.791
 2156TIP3    H2 6475   5.675   0.027   2.651
 2157TIP3   OH2 6476   5.685   4.870   0.456
 2157TIP3    H1 6477   5.748   4.942   0.460
 2157TIP3    H2 6478   5.599   4.912   0.461
 2158TIP3   OH2 6479   0.744   0.720   2.839
 2158TIP3    H1 6480   0.758   0.635   2.882
 2158TIP3    H2 6481   0.827   0.766   2.853
 2159TIP3   OH2 6482   0.105   2.541   3.382
 2159TIP3    H1 6483   0.173   2.580   3.327
 2159TIP3    H2 6484   0.110   2.447   3.363
 2160TIP3   OH2 6485   1.101   2.501   0.189
 2160TIP3    H1 6486   1.141   2.417   0.167
 2160TIP3    H2 6487   1.147   2.530   0.267
 2161TIP3   OH2 6488   1.710   0.930   5.045
 2161TIP3    H1 6489   1.787   0.889   5.083
 2161TIP3    H2 6490   1.742   0.970   4.964
 2162TIP3   OH2 6491   5.446   2.868   1.459
 2162TIP3    H1 6492   5.366   2.824   1.487
 2162TIP3    H2 6493   5.493   2.804   1.407
 2163TIP3   OH2 6494   3.190   0.961   3.841
 2163TIP3    H1 6495   3.271   0.952   3.893
 2163TIP3    H2 6496   3.183   1.055   3.824
 2164TIP3   OH2 6497   2.943   4.529   1.591
 2164TIP3    H1 6498   3.019   4.559   1.641
 2164TIP3    H2 6499   2.896   4.610   1.568
 2165TIP3   OH2 6500   0.555   3.943   2.500
 2165TIP3    H1 6501   0.522   4.001   2.430
 2165TIP3    H2 6502   0.546   3.855   2.465
 2166TIP3   OH2 6503   0.514   4.314   4.748
 2166TIP3    H1 6504   0.484   4.265   4.671
 2166TIP3    H2 6505   0.516   4.250   4.818
 2167TIP3   OH2 6506   5.213   3.644   2.951
 2167TIP3    H1 6507   5.233   3.666   3.042
 2167TIP3    H2 6508   5.119   3.624   2.952
 2168TIP3   OH2 6509   1.178   3.869   4.937
 2168TIP3    H1 6510   1.176   3.918   4.855
 2168TIP3    H2 6511   1.159   3.935   5.004
 2169TIP3   OH2 6512   3.373   2.535   0.595
 2169TIP3    H1 6513   3.401   2.621   0.563
 2169TIP3    H2 6514   3.360   2.483   0.516
 2170TIP3   OH2 6515   3.993   4.251   2.673
 2170TIP3    H1 6516   4.001   4.332   2.723
 2170TIP3    H2 6517   3.901   4.226   2.683
 2171TIP3   OH2 6518   0.143   0.712   0.923
 2171TIP3    H1 6519   0.134   0.627   0.881
 2171TIP3    H2 6520   0.236   0.734   0.914
 2172TIP3   OH2 6521   0.005   3.038   2.048
 2172TIP3    H1 6522   0.073   3.008   1.988
 2172TIP3    H2 6523  -0.071   3.056   1.991
 2173TIP3   OH2 6524   2.175   0.858   1.629
 2173TIP3    H1 6525   2.118   0.934   1.619
 2173TIP3    H2 6526   2.115   0.786   1.650
 2174TIP3   OH2 6527   0.759   4.410   4.581
 2174TIP3    H1 6528   0.722   4.338   4.632
 2174TIP3    H2 6529   0.779   4.477   4.646
 2175TIP3   OH2 6530   5.972   5.867   1.100
 2175TIP3    H1 6531   5.880   5.849   1.077
 2175TIP3    H2 6532   6.005   5.783   1.132
 2176TIP3   OH2 6533   0.243   3.808   4.419
 2176TIP3    H1 6534   0.255   3.714   4.402
 2176TIP3    H2 6535   0.331   3.839   4.443
 2177TIP3   OH2 6536   0.010   4.130   4.671
 2177TIP3    H1 6537   0.101   4.161   4.678
 2177TIP3    H2 6538   0.014   4.055   4.613
 2178TIP3   OH2 6539   3.723   0.850   2.771
 2178TIP3    H1 6540   3.736   0.927   2.716
 2178TIP3    H2 6541   3.807   0.834   2.813
 2179TIP3   OH2 6542   5.151   4.631   4.785
 2179TIP3    H1 6543   5.088   4.569   4.748
 2179TIP3    H2 6544   5.186   4.586   4.862
 2180TIP3   OH2 6545   5.264   2.821   2.494
 2180TIP3    H1 6546   5.291   2.903   2.536
 2180TIP3    H2 6547   5.328   2.809   2.424
 2181TIP3   OH2 6548   0.021   3.499   1.843
 2181TIP3    H1 6549   0.047   3.434   1.909
 2181TIP3    H2 6550  -0.063   3.532   1.873
 2182TIP3   OH2 6551   5.497   0.857   2.624
 2182TIP3    H1 6552   5.524   0.784   2.679
 2182TIP3    H2 6553   5.474   0.927   2.685
 2183TIP3   OH2 6554   1.402   1.282   3.100
 2183TIP3    H1 6555   1.321   1.231   3.106
 2183TIP3    H2 6556   1.372   1.372   3.086
 2184TIP3   OH2 6557   3.445   3.771   4.927
 2184TIP3    H1 6558   3.350   3.765   4.921
 2184TIP3    H2 6559   3.476   3.748   4.839
 2185TIP3   OH2 6560   0.219   2.213   2.653
 2185TIP3    H1 6561   0.267   2.254   2.581
 2185TIP3    H2 6562   0.278   2.217   2.727
 2186TIP3   OH2 6563   4.961   0.134   1.070
 2186TIP3    H1 6564   4.936   0.129   1.162
 2186TIP3    H2 6565   4.926   0.218   1.040
 2187TIP3   OH2 6566   0.838   5.656   2.820
 2187TIP3    H1 6567   0.786   5.589   2.776
 2187TIP3    H2 6568   0.776   5.699   2.880
 2188TIP3   OH2 6569   0.061   5.190   3.738
 2188TIP3    H1 6570  -0.019   5.144   3.760
 2188TIP3    H2 6571   0.059   5.198   3.642
 2189TIP3   OH2 6572   2.791   1.893   4.864
 2189TIP3    H1 6573   2.836   1.954   4.922
 2189TIP3    H2 6574   2.804   1.807   4.903
 2190TIP3   OH2 6575   1.727   1.576   0.635
 2190TIP3    H1 6576   1.691   1.497   0.594
 2190TIP3    H2 6577   1.762   1.627   0.562
 2191TIP3   OH2 6578   1.264   2.395   1.664
 2191TIP3    H1 6579   1.230   2.314   1.626
 2191TIP3    H2 6580   1.262   2.458   1.592
 2192TIP3   OH2 6581   1.014   0.336   0.548
 2192TIP3    H1 6582   1.067   0.294   0.615
 2192TIP3    H2 6583   0.929   0.292   0.554
 2193TIP3   OH2 6584   3.913   1.681   4.246
 2193TIP3    H1 6585   3.873   1.703   4.162
 2193TIP3    H2 6586   3.998   1.643   4.223
 2194TIP3   OH2 6587   5.904   4.277   2.644
 2194TIP3    H1 6588   5.853   4.358   2.643
 2194TIP3    H2 6589   5.916   4.257   2.737
 2195TIP3   OH2 6590   1.155   4.211   0.372
 2195TIP3    H1 6591   1.101   4.219   0.294
 2195TIP3    H2 6592   1.149   4.296   0.415
 2196TIP3   OH2 6593   2.963   3.806   1.803
 2196TIP3    H1 6594   2.931   3.778   1.889
 2196TIP3    H2 6595   2.900   3.767   1.741
 2197TIP3   OH2 6596   1.335   0.955   2.265
 2197TIP3    H1 6597   1.353   1.037   2.219
 2197TIP3    H2 6598   1.259   0.974   2.320
 2198TIP3   OH2 6599   6.280   2.567   3.856
 2198TIP3    H1 6600   6.233   2.650   3.861
 2198TIP3    H2 6601   6.211   2.502   3.839
 2199TIP3   OH2 6602   4.105   4.319   3.043
 2199TIP3    H1 6603   4.019   4.307   3.002
 2199TIP3    H2 6604   4.106   4.410   3.070
 2200TIP3   OH2 6605   6.092   4.229   4.603
 2200TIP3    H1 6606   6.075   4.238   4.510
 2200TIP3    H2 6607   6.179   4.189   4.608
 2201TIP3   OH2 6608   0.285   3.354   2.199
 2201TIP3    H1 6609   0.302   3.444   2.228
 2201TIP3    H2 6610   0.211   3.362   2.139
 2202TIP3   OH2 6611   0.669   3.608   0.126
 2202TIP3    H1 6612   0.744   3.648   0.170
 2202TIP3    H2 6613   0.693   3.608   0.033
 2203TIP3   OH2 6614   5.835   4.354   1.205
 2203TIP3    H1 6615   5.858   4.420   1.140
 2203TIP3    H2 6616   5.899   4.284   1.193
 2204TIP3   OH2 6617   6.108   3.665   1.856
 2204TIP3    H1 6618   6.025   3.698   1.889
 2204TIP3    H2 6619   6.099   3.667   1.761
 2205TIP3   OH2 6620   1.837   3.171   1.110
 2205TIP3    H1 6621   1.770   3.192   1.045
 2205TIP3    H2 6622   1.830   3.076   1.123
 2206TIP3   OH2 6623   0.940   0.445   4.222
 2206TIP3    H1 6624   1.024   0.480   4.191
 2206TIP3    H2 6625   0.932   0.477   4.312
 2207TIP3   OH2 6626   5.988   5.357   1.430
 2207TIP3    H1 6627   6.027   5.393   1.511
 2207TIP3    H2 6628   6.010   5.422   1.363
 2208TIP3   OH2 6629   3.810   5.948   4.366
 2208TIP3    H1 6630   3.858   5.905   4.294
 2208TIP3    H2 6631   3.878   5.995   4.414
 2209TIP3   OH2 6632   2.274   3.304   3.470
 2209TIP3    H1 6633   2.194   3.304   3.416
 2209TIP3    H2 6634   2.308   3.215   3.461
 2210TIP3   OH2 6635   4.829   0.342   4.939
 2210TIP3    H1 6636   4.911   0.307   4.906
 2210TIP3    H2 6637   4.812   0.419   4.884
 2211TIP3   OH2 6638   5.340   4.193   2.553
 2211TIP3    H1 6639   5.273   4.260   2.560
 2211TIP3    H2 6640   5.293   4.111   2.568
 2212TIP3   OH2 6641   1.435   4.047   3.281
 2212TIP3    H1 6642   1.369   4.108   3.313
 2212TIP3    H2 6643   1.397   4.011   3.201
 2213TIP3   OH2 6644   1.041   4.785   4.463
 2213TIP3    H1 6645   0.952   4.821   4.459
 2213TIP3    H2 6646   1.060   4.759   4.373
 2214TIP3   OH2 6647   5.458   3.630   1.329
 2214TIP3    H1 6648   5.528   3.623   1.264
 2214TIP3    H2 6649   5.492   3.583   1.406
 2215TIP3   OH2 6650   5.753   4.812   0.763
 2215TIP3    H1 6651   5.712   4.898   0.767
 2215TIP3    H2 6652   5.846   4.829   0.749
 2216TIP3   OH2 6653   3.431   5.325   2.101
 2216TIP3    H1 6654   3.444   5.260   2.032
 2216TIP3    H2 6655   3.389   5.276   2.172
 2217TIP3   OH2 6656   6.033   0.445   0.761
 2217TIP3    H1 6657   6.075   0.391   0.694
 2217TIP3    H2 6658   5.941   0.447   0.736
 2218TIP3   OH2 6659   5.416   0.577   1.178
 2218TIP3    H1 6660   5.436   0.666   1.149
 2218TIP3    H2 6661   5.486   0.523   1.140
 2219TIP3   OH2 6662   1.737   5.602   2.266
 2219TIP3    H1 6663   1.832   5.595   2.275
 2219TIP3    H2 6664   1.710   5.651   2.344
 2220TIP3   OH2 6665   5.050   0.322   2.878
 2220TIP3    H1 6666   5.057   0.318   2.973
 2220TIP3    H2 6667   5.011   0.238   2.853
 2221TIP3   OH2 6668   5.575   4.484   5.163
 2221TIP3    H1 6669   5.574   4.396   5.201
 2221TIP3    H2 6670   5.531   4.474   5.078
 2222TIP3   OH2 6671   0.643   2.927   3.293
 2222TIP3    H1 6672   0.728   2.926   3.336
 2222TIP3    H2 6673   0.579   2.915   3.363
 2223TIP3   OH2 6674   5.751   2.290   0.142
 2223TIP3    H1 6675   5.791   2.366   0.186
 2223TIP3    H2 6676   5.821   2.224   0.141
 2224TIP3   OH2 6677   1.766   2.666   4.969
 2224TIP3    H1 6678   1.682   2.687   4.927
 2224TIP3    H2 6679   1.764   2.715   5.051
 2225TIP3   OH2 6680   4.423   1.356   0.777
 2225TIP3    H1 6681   4.403   1.392   0.691
 2225TIP3    H2 6682   4.453   1.267   0.759
 2226TIP3   OH2 6683   0.188   0.875   1.597
 2226TIP3    H1 6684   0.132   0.859   1.522
 2226TIP3    H2 6685   0.151   0.821   1.667
 2227TIP3   OH2 6686   3.202   4.714   4.336
 2227TIP3    H1 6687   3.203   4.804   4.303
 2227TIP3    H2 6688   3.131   4.713   4.400
 2228TIP3   OH2 6689   4.687   4.103   2.570
 2228TIP3    H1 6690   4.745   4.041   2.526
 2228TIP3    H2 6691   4.599   4.081   2.540
 2229TIP3   OH2 6692   4.256   0.843   4.349
 2229TIP3    H1 6693   4.214   0.890   4.277
 2229TIP3    H2 6694   4.349   0.843   4.325
 2230TIP3   OH2 6695   0.576   3.430   1.735
 2230TIP3    H1 6696   0.574   3.511   1.786
 2230TIP3    H2 6697   0.613   3.365   1.794
 2231TIP3   OH2 6698   1.112   2.815   3.892
 2231TIP3    H1 6699   1.081   2.736   3.848
 2231TIP3    H2 6700   1.081   2.887   3.837
 2232TIP3   OH2 6701   4.667   5.330   1.951
 2232TIP3    H1 6702   4.730   5.397   1.921
 2232TIP3    H2 6703   4.722   5.262   1.990
 2233TIP3   OH2 6704   2.852   3.348   4.893
 2233TIP3    H1 6705   2.782   3.404   4.860
 2233TIP3    H2 6706   2.908   3.406   4.944
 2234TIP3   OH2 6707   4.649   2.234   5.045
 2234TIP3    H1 6708   4.557   2.250   5.063
 2234TIP3    H2 6709   4.649   2.186   4.962
 2235TIP3   OH2 6710   5.133   4.754   1.715
 2235TIP3    H1 6711   5.051   4.801   1.704
 2235TIP3    H2 6712   5.185   4.777   1.638
 2236TIP3   OH2 6713   3.932   0.562   4.997
 2236TIP3    H1 6714   3.892   0.647   5.016
 2236TIP3    H2 6715   3.886   0.500   5.054
 2237TIP3   OH2 6716   1.755   4.337   3.547
 2237TIP3    H1 6717   1.698   4.260   3.557
 2237TIP3    H2 6718   1.824   4.308   3.487
 2238TIP3   OH2 6719   3.127   1.457   1.189
 2238TIP3    H1 6720   3.201   1.404   1.159
 2238TIP3    H2 6721   3.167   1.531   1.234
 2239TIP3   OH2 6722   0.552   1.312   3.441
 2239TIP3    H1 6723   0.593   1.331   3.357
 2239TIP3    H2 6724   0.591   1.229   3.469
 2240TIP3   OH2 6725   6.087   3.346   1.710
 2240TIP3    H1 6726   6.102   3.326   1.617
 2240TIP3    H2 6727   6.028   3.422   1.709
 2241TIP3   OH2 6728   5.621   3.308   4.252
 2241TIP3    H1 6729   5.634   3.394   4.210
 2241TIP3    H2 6730   5.542   3.273   4.209
 2242TIP3   OH2 6731   5.832   3.567   2.700
 2242TIP3    H1 6732   5.875   3.575   2.785
 2242TIP3    H2 6733   5.903   3.543   2.640
 2243TIP3   OH2 6734   1.963   5.149   0.779
 2243TIP3    H1 6735   2.025   5.076   0.767
 2243TIP3    H2 6736   2.014   5.227   0.755
 2244TIP3   OH2 6737   0.169   1.089   4.146
 2244TIP3    H1 6738   0.163   1.107   4.052
 2244TIP3    H2 6739   0.225   1.159   4.180
 2245TIP3   OH2 6740   3.523   2.081   3.076
 2245TIP3    H1 6741   3.457   2.012   3.069
 2245TIP3    H2 6742   3.572   2.075   2.994
 2246TIP3   OH2 6743   6.068   5.463   3.098
 2246TIP3    H1 6744   6.013   5.485   3.023
 2246TIP3    H2 6745   6.050   5.371   3.115
 2247TIP3   OH2 6746   0.872   1.981   4.513
 2247TIP3    H1 6747   0.910   1.895   4.495
 2247TIP3    H2 6748   0.832   1.972   4.599
 2248TIP3   OH2 6749   0.526   4.620   2.628
 2248TIP3    H1 6750   0.486   4.560   2.565
 2248TIP3    H2 6751   0.548   4.697   2.576
 2249TIP3   OH2 6752   2.611   1.726   1.595
 2249TIP3    H1 6753   2.584   1.718   1.687
 2249TIP3    H2 6754   2.658   1.809   1.591
 2250TIP3   OH2 6755   1.028   2.920   1.310
 2250TIP3    H1 6756   1.057   2.925   1.219
 2250TIP3    H2 6757   1.109   2.915   1.361
 2251TIP3   OH2 6758   4.700   3.915   4.930
 2251TIP3    H1 6759   4.681   3.942   4.840
 2251TIP3    H2 6760   4.783   3.957   4.951
 2252TIP3   OH2 6761   3.797   2.644   3.135
 2252TIP3    H1 6762   3.777   2.580   3.067
 2252TIP3    H2 6763   3.805   2.727   3.089
 2253TIP3   OH2 6764   0.857   1.544   2.009
 2253TIP3    H1 6765   0.796   1.583   1.946
 2253TIP3    H2 6766   0.918   1.493   1.956
 2254TIP3   OH2 6767   1.649   3.124   3.072
 2254TIP3    H1 6768   1.586   3.153   3.007
 2254TIP3    H2 6769   1.719   3.189   3.068
 2255TIP3   OH2 6770  -0.006   5.184   1.054
 2255TIP3    H1 6771  -0.040   5.272   1.035
 2255TIP3    H2 6772   0.064   5.171   0.990
 2256TIP3   OH2 6773   1.562   4.719   0.486
 2256TIP3    H1 6774   1.637   4.718   0.427
 2256TIP3    H2 6775   1.486   4.709   0.429
 2257TIP3   OH2 6776   1.880   3.146   1.612
 2257TIP3    H1 6777   1.876   3.188   1.526
 2257TIP3    H2 6778   1.947   3.195   1.659
 2258TIP3   OH2 6779   0.987   4.711   4.168
 2258TIP3    H1 6780   1.069   4.739   4.129
 2258TIP3    H2 6781   1.004   4.622   4.200
 2259TIP3   OH2 6782   4.268   0.293   2.251
 2259TIP3    H1 6783   4.351   0.334   2.225
 2259TIP3    H2 6784   4.234   0.349   2.320
 2260TIP3   OH2 6785   0.436   2.655   1.566
 2260TIP3    H1 6786   0.503   2.588   1.583
 2260TIP3    H2 6787   0.414   2.689   1.653
 2261TIP3   OH2 6788   2.292   5.401   0.572
 2261TIP3    H1 6789   2.273   5.484   0.529
 2261TIP3    H2 6790   2.387   5.393   0.567
 2262TIP3   OH2 6791   3.531   3.718   4.673
 2262TIP3    H1 6792   3.625   3.699   4.669
 2262TIP3    H2 6793   3.503   3.719   4.582
 2263TIP3   OH2 6794   2.222   1.232   1.661
 2263TIP3    H1 6795   2.190   1.317   1.694
 2263TIP3    H2 6796   2.293   1.209   1.720
 2264TIP3   OH2 6797   1.009   0.985   0.812
 2264TIP3    H1 6798   0.937   0.943   0.859
 2264TIP3    H2 6799   0.993   1.079   0.822
 2265TIP3   OH2 6800   1.611   0.176   1.732
 2265TIP3    H1 6801   1.702   0.162   1.756
 2265TIP3    H2 6802   1.592   0.265   1.760
 2266TIP3   OH2 6803   5.284   4.728   2.757
 2266TIP3    H1 6804   5.300   4.670   2.682
 2266TIP3    H2 6805   5.207   4.691   2.799
 2267TIP3   OH2 6806   3.395   0.234   3.880
 2267TIP3    H1 6807   3.447   0.241   3.960
 2267TIP3    H2 6808   3.305   0.226   3.909
 2268TIP3   OH2 6809   2.714   0.032   4.917
 2268TIP3    H1 6810   2.650   0.102   4.905
 2268TIP3    H2 6811   2.793   0.063   4.871
 2269TIP3   OH2 6812   0.564   1.661   0.734
 2269TIP3    H1 6813   0.589   1.727   0.670
 2269TIP3    H2 6814   0.533   1.711   0.810
 2270TIP3   OH2 6815   1.504   1.442   1.351
 2270TIP3    H1 6816   1.586   1.484   1.377
 2270TIP3    H2 6817   1.502   1.361   1.401
 2271TIP3   OH2 6818   5.742   4.332   4.468
 2271TIP3    H1 6819   5.792   4.258   4.503
 2271TIP3    H2 6820   5.791   4.410   4.494
 2272TIP3   OH2 6821   2.730   1.798   2.468
 2272TIP3    H1 6822   2.700   1.776   2.556
 2272TIP3    H2 6823   2.818   1.832   2.480
 2273TIP3   OH2 6824   0.112   3.759   2.200
 2273TIP3    H1 6825   0.164   3.774   2.121
 2273TIP3    H2 6826   0.106   3.845   2.242
 2274TIP3   OH2 6827   1.728   5.638   4.413
 2274TIP3    H1 6828   1.732   5.591   4.496
 2274TIP3    H2 6829   1.811   5.683   4.406
 2275TIP3   OH2 6830   1.996   4.056   2.665
 2275TIP3    H1 6831   1.910   4.073   2.625
 2275TIP3    H2 6832   1.992   3.963   2.690
 2276TIP3   OH2 6833   1.113   3.626   0.449
 2276TIP3    H1 6834   1.187   3.576   0.413
 2276TIP3    H2 6835   1.041   3.563   0.452
 2277TIP3   OH2 6836   3.021   4.793   2.083
 2277TIP3    H1 6837   2.972   4.714   2.064
 2277TIP3    H2 6838   2.958   4.849   2.130
 2278TIP3   OH2 6839   4.389   3.155   4.773
 2278TIP3    H1 6840   4.296   3.174   4.787
 2278TIP3    H2 6841   4.429   3.165   4.860
 2279TIP3   OH2 6842   5.798   4.640   5.122
 2279TIP3    H1 6843   5.745   4.563   5.139
 2279TIP3    H2 6844   5.830   4.667   5.208
 2280TIP3   OH2 6845   5.570   2.929   2.068
 2280TIP3    H1 6846   5.525   3.002   2.111
 2280TIP3    H2 6847   5.642   2.971   2.020
 2281TIP3   OH2 6848   1.096   0.193   3.860
 2281TIP3    H1 6849   1.008   0.187   3.898
 2281TIP3    H2 6850   1.134   0.272   3.900
 2282TIP3   OH2 6851   2.431   3.382   1.528
 2282TIP3    H1 6852   2.391   3.297   1.516
 2282TIP3    H2 6853   2.357   3.442   1.541
 2283TIP3   OH2 6854   3.035   2.492   5.087
 2283TIP3    H1 6855   2.980   2.510   5.011
 2283TIP3    H2 6856   2.978   2.444   5.147
 2284TIP3   OH2 6857   4.379   3.727   0.674
 2284TIP3    H1 6858   4.302   3.781   0.659
 2284TIP3    H2 6859   4.404   3.744   0.765
 2285TIP3   OH2 6860   4.030   0.567   2.649
 2285TIP3    H1 6861   4.049   0.541   2.739
 2285TIP3    H2 6862   4.049   0.661   2.646
 2286TIP3   OH2 6863   4.299   0.975   3.351
 2286TIP3    H1 6864   4.225   0.916   3.359
 2286TIP3    H2 6865   4.322   0.972   3.258
 2287TIP3   OH2 6866   1.427   0.187   2.618
 2287TIP3    H1 6867   1.362   0.132   2.660
 2287TIP3    H2 6868   1.486   0.213   2.689
 2288TIP3   OH2 6869   2.928   1.824   1.838
 2288TIP3    H1 6870   2.859   1.768   1.875
 2288TIP3    H2 6871   2.977   1.765   1.780
 2289TIP3   OH2 6872   3.467   0.369   5.055
 2289TIP3    H1 6873   3.500   0.304   4.994
 2289TIP3    H2 6874   3.496   0.338   5.141
 2290TIP3   OH2 6875   6.066   2.044   4.035
 2290TIP3    H1 6876   6.133   2.063   3.970
 2290TIP3    H2 6877   5.985   2.033   3.985
 2291TIP3   OH2 6878   0.109   4.794   0.172
 2291TIP3    H1 6879   0.045   4.733   0.135
 2291TIP3    H2 6880   0.084   4.802   0.264
 2292TIP3   OH2 6881   0.478   5.176   1.031
 2292TIP3    H1 6882   0.413   5.115   1.066
 2292TIP3    H2 6883   0.429   5.257   1.015
 2293TIP3   OH2 6884   2.669   5.069   3.465
 2293TIP3    H1 6885   2.587   5.021   3.477
 2293TIP3    H2 6886   2.683   5.070   3.371
 2294TIP3   OH2 6887   6.167   2.317   1.025
 2294TIP3    H1 6888   6.260   2.299   1.037
 2294TIP3    H2 6889   6.137   2.249   0.964
 2295TIP3   OH2 6890   5.605   1.687   4.948
 2295TIP3    H1 6891   5.553   1.714   5.023
 2295TIP3    H2 6892   5.598   1.592   4.945
 2296TIP3   OH2 6893   2.664   1.269   2.617
 2296TIP3    H1 6894   2.632   1.179   2.619
 2296TIP3    H2 6895   2.741   1.266   2.561
 2297TIP3   OH2 6896   5.981   4.771   2.187
 2297TIP3    H1 6897   5.972   4.866   2.181
 2297TIP3    H2 6898   5.920   4.746   2.257
 2298TIP3   OH2 6899   4.518   4.502   1.255
 2298TIP3    H1 6900   4.590   4.447   1.287
 2298TIP3    H2 6901   4.441   4.446   1.264
 2299TIP3   OH2 6902   4.666   0.709   0.632
 2299TIP3    H1 6903   4.629   0.676   0.714
 2299TIP3    H2 6904   4.756   0.733   0.655
 2300TIP3   OH2 6905   2.365   3.557   0.811
 2300TIP3    H1 6906   2.274   3.558   0.838
 2300TIP3    H2 6907   2.362   3.552   0.715
 2301TIP3   OH2 6908   5.102   4.586   3.918
 2301TIP3    H1 6909   5.154   4.664   3.939
 2301TIP3    H2 6910   5.053   4.611   3.839
 2302TIP3   OH2 6911   4.147   2.230   4.046
 2302TIP3    H1 6912   4.162   2.197   4.135
 2302TIP3    H2 6913   4.175   2.159   3.989
 2303TIP3   OH2 6914   0.952   3.611   3.375
 2303TIP3    H1 6915   0.950   3.551   3.301
 2303TIP3    H2 6916   1.031   3.664   3.361
 2304TIP3   OH2 6917   3.288   4.771   1.583
 2304TIP3    H1 6918   3.382   4.788   1.581
 2304TIP3    H2 6919   3.247   4.857   1.574
 2305TIP3   OH2 6920   3.991   1.259   5.063
 2305TIP3    H1 6921   3.975   1.195   4.993
 2305TIP3    H2 6922   3.964   1.343   5.026
 2306TIP3   OH2 6923   0.370   1.358   4.046
 2306TIP3    H1 6924   0.374   1.433   4.105
 2306TIP3    H2 6925   0.436   1.377   3.978
 2307TIP3   OH2 6926   6.283   0.905   3.698
 2307TIP3    H1 6927   6.215   0.837   3.698
 2307TIP3    H2 6928   6.311   0.911   3.606
 2308TIP3   OH2 6929   3.255   2.206   0.168
 2308TIP3    H1 6930   3.260   2.134   0.231
 2308TIP3    H2 6931   3.245   2.163   0.083
 2309TIP3   OH2 6932   3.419   3.915   0.987
 2309TIP3    H1 6933   3.454   3.830   0.960
 2309TIP3    H2 6934   3.489   3.977   0.964
 2310TIP3   OH2 6935   2.346   1.171   3.388
 2310TIP3    H1 6936   2.343   1.259   3.426
 2310TIP3    H2 6937   2.292   1.178   3.309
 2311TIP3   OH2 6938   1.611   2.906   4.305
 2311TIP3    H1 6939   1.647   2.877   4.389
 2311TIP3    H2 6940   1.517   2.888   4.312
 2312TIP3   OH2 6941   2.603   3.804   5.075
 2312TIP3    H1 6942   2.565   3.808   4.987
 2312TIP3    H2 6943   2.690   3.766   5.062
 2313TIP3   OH2 6944   5.572   3.251   1.809
 2313TIP3    H1 6945   5.603   3.287   1.892
 2313TIP3    H2 6946   5.651   3.239   1.757
 2314TIP3   OH2 6947   4.798   1.071   0.357
 2314TIP3    H1 6948   4.808   1.117   0.441
 2314TIP3    H2 6949   4.887   1.049   0.331
 2315TIP3   OH2 6950   4.340   5.307   2.835
 2315TIP3    H1 6951   4.259   5.279   2.793
 2315TIP3    H2 6952   4.314   5.331   2.924
 2316TIP3   OH2 6953   5.807   2.125   2.981
 2316TIP3    H1 6954   5.838   2.166   2.900
 2316TIP3    H2 6955   5.870   2.056   2.999
 2317TIP3   OH2 6956   0.777   5.133   2.674
 2317TIP3    H1 6957   0.689   5.159   2.647
 2317TIP3    H2 6958   0.780   5.039   2.659
 2318TIP3   OH2 6959   3.651   1.733   1.145
 2318TIP3    H1 6960   3.557   1.737   1.160
 2318TIP3    H2 6961   3.659   1.723   1.050
 2319TIP3   OH2 6962   2.582   1.618   0.457
 2319TIP3    H1 6963   2.649   1.636   0.522
 2319TIP3    H2 6964   2.624   1.635   0.373
 2320TIP3   OH2 6965   0.187   2.955   3.846
 2320TIP3    H1 6966   0.278   2.930   3.828
 2320TIP3    H2 6967   0.180   3.045   3.817
 2321TIP3   OH2 6968   0.711   4.997   3.921
 2321TIP3    H1 6969   0.723   5.090   3.937
 2321TIP3    H2 6970   0.622   4.978   3.950
 2322TIP3   OH2 6971   0.641   1.529   3.116
 2322TIP3    H1 6972   0.579   1.488   3.057
 2322TIP3    H2 6973   0.727   1.512   3.078
 2323TIP3   OH2 6974   1.471   1.106   3.586
 2323TIP3    H1 6975   1.530   1.181   3.589
 2323TIP3    H2 6976   1.426   1.113   3.501
 2324TIP3   OH2 6977   5.482   4.454   2.830
 2324TIP3    H1 6978   5.527   4.385   2.783
 2324TIP3    H2 6979   5.403   4.471   2.779
 2325TIP3   OH2 6980   5.102   2.703   4.952
 2325TIP3    H1 6981   5.036   2.765   4.921
 2325TIP3    H2 6982   5.053   2.633   4.994
 2326TIP3   OH2 6983   0.327   2.364   2.452
 2326TIP3    H1 6984   0.407   2.403   2.419
 2326TIP3    H2 6985   0.257   2.403   2.400
 2327TIP3   OH2 6986   5.885   5.125   1.900
 2327TIP3    H1 6987   5.831   5.177   1.959
 2327TIP3    H2 6988   5.959   5.182   1.879
 2328TIP3   OH2 6989   2.534   0.312   2.671
 2328TIP3    H1 6990   2.503   0.402   2.678
 2328TIP3    H2 6991   2.557   0.286   2.760
 2329TIP3   OH2 6992   1.570   0.933   1.134
 2329TIP3    H1 6993   1.509   0.861   1.120
 2329TIP3    H2 6994   1.515   1.011   1.140
 2330TIP3   OH2 6995   3.901   1.748   2.612
 2330TIP3    H1 6996   3.835   1.679   2.619
 2330TIP3    H2 6997   3.950   1.727   2.533
 2331TIP3   OH2 6998   0.693   4.619   1.165
 2331TIP3    H1 6999   0.743   4.547   1.127
 2331TIP3    H2 7000   0.638   4.577   1.231
 2332TIP3   OH2 7001   0.403   3.208   4.377
 2332TIP3    H1 7002   0.400   3.227   4.471
 2332TIP3    H2 7003   0.347   3.132   4.367
 2333TIP3   OH2 7004   3.786   0.379   2.722
 2333TIP3    H1 7005   3.861   0.429   2.690
 2333TIP3    H2 7006   3.824   0.300   2.760
 2334TIP3   OH2 7007   1.556   0.316   3.897
 2334TIP3    H1 7008   1.487   0.269   3.851
 2334TIP3    H2 7009   1.609   0.357   3.828
 2335TIP3   OH2 7010   2.087   4.977   2.394
 2335TIP3    H1 7011   2.082   5.006   2.485
 2335TIP3    H2 7012   2.011   4.920   2.383
 2336TIP3   OH2 7013   5.652   4.541   0.781
 2336TIP3    H1 7014   5.596   4.563   0.707
 2336TIP3    H2 7015   5.696   4.623   0.804
 2337TIP3   OH2 7016   3.369   5.252   0.774
 2337TIP3    H1 7017   3.294   5.277   0.720
 2337TIP3    H2 7018   3.412   5.182   0.725
 2338TIP3   OH2 7019   0.044   3.219   3.999
 2338TIP3    H1 7020   0.120   3.190   4.049
 2338TIP3    H2 7021   0.015   3.298   4.044
 2339TIP3   OH2 7022   0.829   4.219   2.509
 2339TIP3    H1 7023   0.815   4.299   2.560
 2339TIP3    H2 7024   0.760   4.220   2.443
 2340TIP3   OH2 7025   0.809   5.933   2.976
 2340TIP3    H1 7026   0.853   5.882   3.045
 2340TIP3    H2 7027   0.761   6.001   3.024
 2341TIP3   OH2 7028   4.640   3.201   3.758
 2341TIP3    H1 7029   4.718   3.156   3.790
 2341TIP3    H2 7030   4.605   3.143   3.690
 2342TIP3   OH2 7031   0.339   3.583   4.639
 2342TIP3    H1 7032   0.356   3.621   4.726
 2342TIP3    H2 7033   0.250   3.611   4.618
 2343TIP3   OH2 7034   3.467   4.852   5.201
 2343TIP3    H1 7035   3.525   4.777   5.203
 2343TIP3    H2 7036   3.479   4.889   5.113
 2344TIP3   OH2 7037   3.038   2.307   0.515
 2344TIP3    H1 7038   3.129   2.296   0.487
 2344TIP3    H2 7039   3.030   2.400   0.535
 2345TIP3   OH2 7040   5.793   3.228   1.626
 2345TIP3    H1 7041   5.766   3.141   1.595
 2345TIP3    H2 7042   5.863   3.254   1.567
 2346TIP3   OH2 7043   3.075   5.562   3.673
 2346TIP3    H1 7044   3.052   5.576   3.581
 2346TIP3    H2 7045   3.083   5.651   3.709
 2347TIP3   OH2 7046   3.223   4.391   2.075
 2347TIP3    H1 7047   3.230   4.399   2.170
 2347TIP3    H2 7048   3.145   4.338   2.061
 2348TIP3   OH2 7049   6.098   4.074   4.049
 2348TIP3    H1 7050   6.165   4.138   4.073
 2348TIP3    H2 7051   6.051   4.114   3.976
 2349TIP3   OH2 7052   5.419   1.420   3.318
 2349TIP3    H1 7053   5.330   1.431   3.351
 2349TIP3    H2 7054   5.446   1.508   3.291
 2350TIP3   OH2 7055   3.967   0.635   3.845
 2350TIP3    H1 7056   3.901   0.642   3.776
 2350TIP3    H2 7057   3.970   0.722   3.885
 2351TIP3   OH2 7058   3.822   1.581   2.138
 2351TIP3    H1 7059   3.913   1.569   2.165
 2351TIP3    H2 7060   3.775   1.511   2.182
 2352TIP3   OH2 7061   1.759   2.006   3.799
 2352TIP3    H1 7062   1.701   2.014   3.875
 2352TIP3    H2 7063   1.768   2.095   3.766
 2353TIP3   OH2 7064   2.387   5.545   3.747
 2353TIP3    H1 7065   2.294   5.542   3.771
 2353TIP3    H2 7066   2.426   5.471   3.793
 2354TIP3   OH2 7067   4.014   0.385   0.851
 2354TIP3    H1 7068   3.997   0.310   0.794
 2354TIP3    H2 7069   3.985   0.356   0.938
 2355TIP3   OH2 7070   0.185   2.590   5.161
 2355TIP3    H1 7071   0.110   2.649   5.153
 2355TIP3    H2 7072   0.165   2.518   5.102
 2356TIP3   OH2 7073   2.897   0.906   0.007
 2356TIP3    H1 7074   2.943   0.938   0.085
 2356TIP3    H2 7075   2.806   0.898   0.035
 2357TIP3   OH2 7076   1.091   3.066   3.743
 2357TIP3    H1 7077   1.072   3.016   3.664
 2357TIP3    H2 7078   1.017   3.127   3.751
 2358TIP3   OH2 7079   5.409   1.054   2.241
 2358TIP3    H1 7080   5.484   1.014   2.285
 2358TIP3    H2 7081   5.408   1.014   2.155
 2359TIP3   OH2 7082   1.027   4.059   1.810
 2359TIP3    H1 7083   0.964   4.098   1.870
 2359TIP3    H2 7084   1.049   4.129   1.749
 2360TIP3   OH2 7085   3.110   1.127   0.163
 2360TIP3    H1 7086   3.177   1.062   0.183
 2360TIP3    H2 7087   3.148   1.210   0.190
 2361TIP3   OH2 7088   5.744   1.236   0.294
 2361TIP3    H1 7089   5.797   1.268   0.367
 2361TIP3    H2 7090   5.800   1.172   0.250
 2362TIP3   OH2 7091   3.615   4.812   3.045
 2362TIP3    H1 7092   3.605   4.717   3.049
 2362TIP3    H2 7093   3.567   4.838   2.966
 2363TIP3   OH2 7094   0.992   1.315   0.248
 2363TIP3    H1 7095   1.033   1.286   0.329
 2363TIP3    H2 7096   0.907   1.350   0.274
 2364TIP3   OH2 7097   2.665   3.568   4.504
 2364TIP3    H1 7098   2.647   3.505   4.434
 2364TIP3    H2 7099   2.760   3.579   4.503
 2365TIP3   OH2 7100   1.383   2.977   3.245
 2365TIP3    H1 7101   1.352   3.067   3.238
 2365TIP3    H2 7102   1.478   2.985   3.255
 2366TIP3   OH2 7103   3.353   5.850   2.578
 2366TIP3    H1 7104   3.333   5.928   2.526
 2366TIP3    H2 7105   3.339   5.777   2.518
 2367TIP3   OH2 7106   1.913   3.197   5.170
 2367TIP3    H1 7107   1.907   3.291   5.186
 2367TIP3    H2 7108   1.966   3.189   5.091
 2368TIP3   OH2 7109   0.879   5.841   3.408
 2368TIP3    H1 7110   0.794   5.803   3.430
 2368TIP3    H2 7111   0.876   5.929   3.445
 2369TIP3   OH2 7112   3.525   5.939   3.297
 2369TIP3    H1 7113   3.619   5.931   3.315
 2369TIP3    H2 7114   3.508   5.873   3.230
 2370TIP3   OH2 7115   0.251   2.842   0.134
 2370TIP3    H1 7116   0.321   2.882   0.082
 2370TIP3    H2 7117   0.251   2.893   0.216
 2371TIP3   OH2 7118   4.613   4.940   0.445
 2371TIP3    H1 7119   4.664   4.859   0.444
 2371TIP3    H2 7120   4.621   4.973   0.535
 2372TIP3   OH2 7121   5.215   2.284   2.307
 2372TIP3    H1 7122   5.140   2.331   2.343
 2372TIP3    H2 7123   5.203   2.290   2.212
 2373TIP3   OH2 7124   6.195   5.965   4.194
 2373TIP3    H1 7125   6.129   5.896   4.205
 2373TIP3    H2 7126   6.160   6.039   4.244
 2374TIP3   OH2 7127   2.347   2.967   2.673
 2374TIP3    H1 7128   2.434   2.931   2.692
 2374TIP3    H2 7129   2.328   2.938   2.583
 2375TIP3   OH2 7130   0.243   5.498   1.246
 2375TIP3    H1 7131   0.238   5.467   1.336
 2375TIP3    H2 7132   0.191   5.579   1.246
 2376TIP3   OH2 7133   1.506   4.925   2.845
 2376TIP3    H1 7134   1.442   4.865   2.807
 2376TIP3    H2 7135   1.486   5.010   2.805
 2377TIP3   OH2 7136   1.864   0.337   1.482
 2377TIP3    H1 7137   1.844   0.368   1.570
 2377TIP3    H2 7138   1.946   0.380   1.459
 2378TIP3   OH2 7139   2.111   2.792   5.095
 2378TIP3    H1 7140   2.134   2.745   5.175
 2378TIP3    H2 7141   2.019   2.814   5.105
 2379TIP3   OH2 7142   0.675   5.415   2.608
 2379TIP3    H1 7143   0.628   5.339   2.572
 2379TIP3    H2 7144   0.767   5.389   2.605
 2380TIP3   OH2 7145   4.327   4.538   4.449
 2380TIP3    H1 7146   4.368   4.452   4.452
 2380TIP3    H2 7147   4.318   4.564   4.540
 2381TIP3   OH2 7148   3.819   1.867   3.770
 2381TIP3    H1 7149   3.878   1.919   3.715
 2381TIP3    H2 7150   3.754   1.931   3.802
 2382TIP3   OH2 7151   5.265   4.211   0.217
 2382TIP3    H1 7152   5.281   4.117   0.223
 2382TIP3    H2 7153   5.347   4.248   0.183
 2383TIP3   OH2 7154   1.019   5.139   2.509
 2383TIP3    H1 7155   0.984   5.212   2.458
 2383TIP3    H2 7156   0.963   5.134   2.586
 2384TIP3   OH2 7157   0.653   1.445   4.771
 2384TIP3    H1 7158   0.725   1.491   4.728
 2384TIP3    H2 7159   0.634   1.498   4.849
 2385TIP3   OH2 7160   6.129   3.159   2.174
 2385TIP3    H1 7161   6.199   3.098   2.151
 2385TIP3    H2 7162   6.058   3.103   2.205
 2386TIP3   OH2 7163   1.998   1.974   5.116
 2386TIP3    H1 7164   1.909   1.992   5.085
 2386TIP3    H2 7165   2.019   1.889   5.079
 2387TIP3   OH2 7166   1.406   2.858   0.353
 2387TIP3    H1 7167   1.479   2.894   0.403
 2387TIP3    H2 7168   1.357   2.934   0.323
 2388TIP3   OH2 7169   0.595   0.210   4.922
 2388TIP3    H1 7170   0.603   0.305   4.928
 2388TIP3    H2 7171   0.524   0.188   4.983
 2389TIP3   OH2 7172   1.539   3.535   0.938
 2389TIP3    H1 7173   1.516   3.609   0.882
 2389TIP3    H2 7174   1.626   3.507   0.908
 2390TIP3   OH2 7175   1.785   0.134   3.785
 2390TIP3    H1 7176   1.723   0.160   3.853
 2390TIP3    H2 7177   1.824   0.053   3.817
 2391TIP3   OH2 7178   3.688   0.611   0.556
 2391TIP3    H1 7179   3.662   0.540   0.498
 2391TIP3    H2 7180   3.765   0.650   0.513
 2392TIP3   OH2 7181   0.180   2.434   3.816
 2392TIP3    H1 7182   0.096   2.480   3.808
 2392TIP3    H2 7183   0.227   2.457   3.736
 2393TIP3   OH2 7184   3.010   2.271   2.092
 2393TIP3    H1 7185   2.981   2.181   2.076
 2393TIP3    H2 7186   3.080   2.262   2.156
 2394TIP3   OH2 7187   3.093   3.184   1.886
 2394TIP3    H1 7188   3.031   3.161   1.955
 2394TIP3    H2 7189   3.154   3.110   1.883
 2395TIP3   OH2 7190   3.447   5.901   0.472
 2395TIP3    H1 7191   3.477   5.962   0.405
 2395TIP3    H2 7192   3.373   5.856   0.432
 2396TIP3   OH2 7193   5.012   3.160   4.502
 2396TIP3    H1 7194   5.070   3.235   4.518
 2396TIP3    H2 7195   5.071   3.084   4.498
 2397TIP3   OH2 7196   0.510   4.467   2.253
 2397TIP3    H1 7197   0.426   4.459   2.207
 2397TIP3    H2 7198   0.504   4.405   2.325
 2398TIP3   OH2 7199   5.855   0.584   3.500
 2398TIP3    H1 7200   5.950   0.593   3.507
 2398TIP3    H2 7201   5.828   0.657   3.445
 2399TIP3   OH2 7202   3.054   4.863   4.737
 2399TIP3    H1 7203   3.059   4.795   4.805
 2399TIP3    H2 7204   3.033   4.815   4.657
 2400TIP3   OH2 7205   0.298   1.469   2.536
 2400TIP3    H1 7206   0.389   1.465   2.506
 2400TIP3    H2 7207   0.258   1.537   2.482
 2401TIP3   OH2 7208   0.983   4.448   3.979
 2401TIP3    H1 7209   1.077   4.462   3.981
 2401TIP3    H2 7210   0.964   4.395   4.056
 2402TIP3   OH2 7211   5.630   2.884   1.163
 2402TIP3    H1 7212   5.542   2.921   1.155
 2402TIP3    H2 7213   5.616   2.797   1.201
 2403TIP3   OH2 7214   1.014   3.056   4.147
 2403TIP3    H1 7215   0.923   3.028   4.139
 2403TIP3    H2 7216   1.021   3.132   4.089
 2404TIP3   OH2 7217   2.646   3.983   1.238
 2404TIP3    H1 7218   2.689   3.917   1.291
 2404TIP3    H2 7219   2.564   3.941   1.209
 2405TIP3   OH2 7220   6.116   2.456   4.843
 2405TIP3    H1 7221   6.140   2.369   4.811
 2405TIP3    H2 7222   6.115   2.448   4.938
 2406TIP3   OH2 7223   2.652   5.089   2.756
 2406TIP3    H1 7224   2.631   5.087   2.663
 2406TIP3    H2 7225   2.739   5.129   2.760
 2407TIP3   OH2 7226   6.276   5.677   4.958
 2407TIP3    H1 7227   6.265   5.746   4.893
 2407TIP3    H2 7228   6.190   5.670   5.000
 2408TIP3   OH2 7229   1.813   2.311   1.292
 2408TIP3    H1 7230   1.844   2.230   1.331
 2408TIP3    H2 7231   1.893   2.362   1.276
 2409TIP3   OH2 7232   2.105   5.691   2.932
 2409TIP3    H1 7233   2.153   5.617   2.969
 2409TIP3    H2 7234   2.163   5.766   2.946
 2410TIP3   OH2 7235   4.909   0.486   2.729
 2410TIP3    H1 7236   4.982   0.451   2.780
 2410TIP3    H2 7237   4.950   0.526   2.652
 2411TIP3   OH2 7238   0.866   5.373   3.205
 2411TIP3    H1 7239   0.946   5.416   3.233
 2411TIP3    H2 7240   0.796   5.419   3.252
 2412TIP3   OH2 7241   3.445   1.586   4.775
 2412TIP3    H1 7242   3.457   1.652   4.843
 2412TIP3    H2 7243   3.534   1.560   4.751
 2413TIP3   OH2 7244   3.882   4.329   3.295
 2413TIP3    H1 7245   3.966   4.285   3.307
 2413TIP3    H2 7246   3.857   4.356   3.383
 2414TIP3   OH2 7247   3.563   4.346   5.016
 2414TIP3    H1 7248   3.614   4.266   5.023
 2414TIP3    H2 7249   3.595   4.401   5.087
 2415TIP3   OH2 7250   0.978   5.180   4.019
 2415TIP3    H1 7251   1.046   5.234   4.061
 2415TIP3    H2 7252   0.969   5.105   4.078
 2416TIP3   OH2 7253   4.828   1.799   3.119
 2416TIP3    H1 7254   4.825   1.719   3.171
 2416TIP3    H2 7255   4.858   1.866   3.180
 2417TIP3   OH2 7256   0.461   3.678   2.977
 2417TIP3    H1 7257   0.489   3.768   2.960
 2417TIP3    H2 7258   0.458   3.637   2.890
 2418TIP3   OH2 7259   4.092   1.147   3.239
 2418TIP3    H1 7260   4.094   1.140   3.335
 2418TIP3    H2 7261   4.184   1.138   3.213
 2419TIP3   OH2 7262   2.737   0.308   4.831
 2419TIP3    H1 7263   2.716   0.277   4.743
 2419TIP3    H2 7264   2.652   0.321   4.873
 2420TIP3   OH2 7265   4.939   2.459   3.334
 2420TIP3    H1 7266   4.966   2.439   3.424
 2420TIP3    H2 7267   4.844   2.449   3.335
 2421TIP3   OH2 7268   5.182   2.124   0.184
 2421TIP3    H1 7269   5.135   2.196   0.141
 2421TIP3    H2 7270   5.230   2.167   0.255
 2422TIP3   OH2 7271   1.270   1.805   3.525
 2422TIP3    H1 7272   1.320   1.868   3.473
 2422TIP3    H2 7273   1.325   1.726   3.526
 2423TIP3   OH2 7274   4.819   2.294   0.405
 2423TIP3    H1 7275   4.778   2.226   0.458
 2423TIP3    H2 7276   4.778   2.375   0.435
 2424TIP3   OH2 7277   5.704   3.967   2.624
 2424TIP3    H1 7278   5.704   3.895   2.562
 2424TIP3    H2 7279   5.709   3.925   2.710
 2425TIP3   OH2 7280   4.734   0.792   0.310
 2425TIP3    H1 7281   4.756   0.880   0.341
 2425TIP3    H2 7282   4.642   0.780   0.333
 2426TIP3   OH2 7283   1.127   3.746   4.262
 2426TIP3    H1 7284   1.039   3.717   4.239
 2426TIP3    H2 7285   1.171   3.759   4.178
 2427TIP3   OH2 7286   0.107   4.368   2.381
 2427TIP3    H1 7287   0.085   4.287   2.428
 2427TIP3    H2 7288   0.152   4.422   2.447
 2428TIP3   OH2 7289   2.309   4.296   4.579
 2428TIP3    H1 7290   2.363   4.290   4.658
 2428TIP3    H2 7291   2.235   4.351   4.605
 2429TIP3   OH2 7292   1.440   0.903   3.140
 2429TIP3    H1 7293   1.414   0.813   3.162
 2429TIP3    H2 7294   1.402   0.919   3.054
 2430TIP3   OH2 7295   0.502   0.092   1.360
 2430TIP3    H1 7296   0.430   0.032   1.343
 2430TIP3    H2 7297   0.461   0.177   1.376
 2431TIP3   OH2 7298   4.694   2.419   2.433
 2431TIP3    H1 7299   4.709   2.368   2.513
 2431TIP3    H2 7300   4.643   2.494   2.460
 2432TIP3   OH2 7301   4.647   4.381   1.997
 2432TIP3    H1 7302   4.701   4.331   2.059
 2432TIP3    H2 7303   4.656   4.334   1.914
 2433TIP3   OH2 7304   3.217   3.142   4.670
 2433TIP3    H1 7305   3.187   3.118   4.758
 2433TIP3    H2 7306   3.210   3.060   4.620
 2434TIP3   OH2 7307   1.498   2.003   1.068
 2434TIP3    H1 7308   1.546   1.931   1.110
 2434TIP3    H2 7309   1.562   2.045   1.011
 2435TIP3   OH2 7310   3.918   0.341   1.871
 2435TIP3    H1 7311   3.862   0.340   1.794
 2435TIP3    H2 7312   3.864   0.380   1.940
 2436TIP3   OH2 7313   1.996   4.042   1.818
 2436TIP3    H1 7314   1.911   4.017   1.783
 2436TIP3    H2 7315   2.039   4.087   1.746
 2437TIP3   OH2 7316   3.719   1.893   4.774
 2437TIP3    H1 7317   3.757   1.919   4.690
 2437TIP3    H2 7318   3.791   1.897   4.836
 2438TIP3   OH2 7319   0.834   3.733   3.593
 2438TIP3    H1 7320   0.849   3.670   3.523
 2438TIP3    H2 7321   0.892   3.807   3.572
 2439TIP3   OH2 7322   3.378   5.739   0.841
 2439TIP3    H1 7323   3.360   5.688   0.763
 2439TIP3    H2 7324   3.383   5.830   0.810
 2440TIP3   OH2 7325   3.150   4.626   1.785
 2440TIP3    H1 7326   3.202   4.655   1.710
 2440TIP3    H2 7327   3.215   4.600   1.850
 2441TIP3   OH2 7328   2.622   2.646   0.039
 2441TIP3    H1 7329   2.666   2.566   0.067
 2441TIP3    H2 7330   2.677   2.717   0.073
 2442TIP3   OH2 7331   2.387   5.044   3.346
 2442TIP3    H1 7332   2.348   5.058   3.260
 2442TIP3    H2 7333   2.337   5.101   3.405
 2443TIP3   OH2 7334   0.025   5.334   5.070
 2443TIP3    H1 7335  -0.060   5.365   5.040
 2443TIP3    H2 7336   0.041   5.254   5.019
 2444TIP3   OH2 7337   1.419   3.219   4.080
 2444TIP3    H1 7338   1.482   3.183   4.142
 2444TIP3    H2 7339   1.375   3.143   4.042
 2445TIP3   OH2 7340   3.156   0.216   2.310
 2445TIP3    H1 7341   3.092   0.146   2.305
 2445TIP3    H2 7342   3.236   0.174   2.341
 2446TIP3   OH2 7343   1.972   3.773   1.113
 2446TIP3    H1 7344   2.050   3.769   1.167
 2446TIP3    H2 7345   1.984   3.850   1.058
 2447TIP3   OH2 7346   2.974   2.207   3.960
 2447TIP3    H1 7347   2.989   2.189   4.053
 2447TIP3    H2 7348   3.054   2.251   3.931
 2448TIP3   OH2 7349   2.909   1.198   0.538
 2448TIP3    H1 7350   2.868   1.181   0.623
 2448TIP3    H2 7351   2.844   1.172   0.474
 2449TIP3   OH2 7352   2.318   5.721   4.959
 2449TIP3    H1 7353   2.344   5.634   4.987
 2449TIP3    H2 7354   2.381   5.745   4.891
 2450TIP3   OH2 7355   5.216   1.001   0.649
 2450TIP3    H1 7356   5.290   0.973   0.703
 2450TIP3    H2 7357   5.242   1.087   0.616
 2451TIP3   OH2 7358   3.984   3.378   4.851
 2451TIP3    H1 7359   3.908   3.436   4.852
 2451TIP3    H2 7360   4.057   3.433   4.825
 2452TIP3   OH2 7361   1.946   2.044   0.740
 2452TIP3    H1 7362   2.020   2.085   0.785
 2452TIP3    H2 7363   1.969   1.951   0.735
 2453TIP3   OH2 7364   2.094   0.572   0.213
 2453TIP3    H1 7365   2.129   0.614   0.134
 2453TIP3    H2 7366   2.019   0.521   0.182
 2454TIP3   OH2 7367   2.358   0.523   2.534
 2454TIP3    H1 7368   2.365   0.569   2.617
 2454TIP3    H2 7369   2.417   0.569   2.475
 2455TIP3   OH2 7370   0.543   2.222   2.195
 2455TIP3    H1 7371   0.591   2.257   2.120
 2455TIP3    H2 7372   0.583   2.136   2.211
 2456TIP3   OH2 7373   2.900   5.024   4.122
 2456TIP3    H1 7374   2.960   5.074   4.177
 2456TIP3    H2 7375   2.957   4.979   4.060
 2457TIP3   OH2 7376   0.715   2.879   3.027
 2457TIP3    H1 7377   0.635   2.918   2.992
 2457TIP3    H2 7378   0.704   2.885   3.122
 2458TIP3   OH2 7379   0.053   0.881   4.279
 2458TIP3    H1 7380   0.079   0.968   4.250
 2458TIP3    H2 7381   0.035   0.890   4.372
 2459TIP3   OH2 7382   2.111   2.983   2.311
 2459TIP3    H1 7383   2.094   2.933   2.391
 2459TIP3    H2 7384   2.166   3.055   2.340
 2460TIP3   OH2 7385   4.804   0.695   1.121
 2460TIP3    H1 7386   4.716   0.727   1.100
 2460TIP3    H2 7387   4.831   0.746   1.197
 2461TIP3   OH2 7388   3.442   0.378   2.415
 2461TIP3    H1 7389   3.471   0.449   2.473
 2461TIP3    H2 7390   3.457   0.411   2.327
 2462TIP3   OH2 7391   4.256   3.354   2.737
 2462TIP3    H1 7392   4.313   3.420   2.697
 2462TIP3    H2 7393   4.170   3.395   2.739
 2463TIP3   OH2 7394   2.039   3.315   1.760
 2463TIP3    H1 7395   2.049   3.262   1.838
 2463TIP3    H2 7396   2.122   3.361   1.750
 2464TIP3   OH2 7397   4.812   0.903   2.396
 2464TIP3    H1 7398   4.892   0.904   2.345
 2464TIP3    H2 7399   4.743   0.926   2.334
 2465TIP3   OH2 7400   3.396   3.252   4.978
 2465TIP3    H1 7401   3.313   3.281   5.017
 2465TIP3    H2 7402   3.379   3.161   4.952
 2466TIP3   OH2 7403   3.104   2.319   4.707
 2466TIP3    H1 7404   3.052   2.243   4.680
 2466TIP3    H2 7405   3.178   2.282   4.755
 2467TIP3   OH2 7406   1.423   0.228   1.269
 2467TIP3    H1 7407   1.490   0.175   1.313
 2467TIP3    H2 7408   1.416   0.308   1.321
 2468TIP3   OH2 7409   5.488   3.335   0.450
 2468TIP3    H1 7410   5.521   3.303   0.534
 2468TIP3    H2 7411   5.463   3.255   0.403
 2469TIP3   OH2 7412   6.318   2.806   2.367
 2469TIP3    H1 7413   6.237   2.792   2.318
 2469TIP3    H2 7414   6.302   2.886   2.417
 2470TIP3   OH2 7415   4.411   2.043   0.117
 2470TIP3    H1 7416   4.499   2.079   0.108
 2470TIP3    H2 7417   4.418   1.955   0.080
 2471TIP3   OH2 7418   3.617   0.835   2.311
 2471TIP3    H1 7419   3.584   0.925   2.308
 2471TIP3    H2 7420   3.546   0.786   2.352
 2472TIP3   OH2 7421   2.953   1.114   1.037
 2472TIP3    H1 7422   2.916   1.078   1.117
 2472TIP3    H2 7423   3.042   1.078   1.034
 2473TIP3   OH2 7424   6.180   5.916   4.570
 2473TIP3    H1 7425   6.259   5.883   4.526
 2473TIP3    H2 7426   6.116   5.925   4.499
 2474TIP3   OH2 7427   6.108   0.351   3.493
 2474TIP3    H1 7428   6.129   0.434   3.535
 2474TIP3    H2 7429   6.030   0.369   3.442
 2475TIP3   OH2 7430   2.328   5.980   3.953
 2475TIP3    H1 7431   2.397   5.926   3.913
 2475TIP3    H2 7432   2.254   5.921   3.962
 2476TIP3   OH2 7433   4.252   4.516   1.015
 2476TIP3    H1 7434   4.326   4.572   0.992
 2476TIP3    H2 7435   4.286   4.427   1.013
 2477TIP3   OH2 7436   3.121   3.824   3.463
 2477TIP3    H1 7437   3.200   3.780   3.495
 2477TIP3    H2 7438   3.138   3.917   3.477
 2478TIP3   OH2 7439   6.302   1.127   3.194
 2478TIP3    H1 7440   6.280   1.099   3.106
 2478TIP3    H2 7441   6.373   1.191   3.183
 2479TIP3   OH2 7442   3.101   2.679   4.443
 2479TIP3    H1 7443   3.144   2.597   4.466
 2479TIP3    H2 7444   3.028   2.686   4.505
 2480TIP3   OH2 7445   1.331   4.846   2.042
 2480TIP3    H1 7446   1.404   4.784   2.046
 2480TIP3    H2 7447   1.348   4.900   1.965
 2481TIP3   OH2 7448   3.668   0.517   1.933
 2481TIP3    H1 7449   3.595   0.456   1.924
 2481TIP3    H2 7450   3.686   0.518   2.027
 2482TIP3   OH2 7451   5.631   4.156   3.375
 2482TIP3    H1 7452   5.588   4.201   3.303
 2482TIP3    H2 7453   5.569   4.164   3.448
 2483TIP3   OH2 7454   5.195   0.881   3.715
 2483TIP3    H1 7455   5.287   0.891   3.692
 2483TIP3    H2 7456   5.177   0.788   3.699
 2484TIP3   OH2 7457   4.040   5.899   4.625
 2484TIP3    H1 7458   3.969   5.862   4.677
 2484TIP3    H2 7459   4.087   5.822   4.591
 2485TIP3   OH2 7460   2.491   3.260   2.489
 2485TIP3    H1 7461   2.519   3.335   2.436
 2485TIP3    H2 7462   2.543   3.267   2.570
 2486TIP3   OH2 7463   0.649   1.295   2.043
 2486TIP3    H1 7464   0.666   1.361   1.976
 2486TIP3    H2 7465   0.564   1.319   2.079
 2487TIP3   OH2 7466   3.305   2.677   1.379
 2487TIP3    H1 7467   3.215   2.669   1.410
 2487TIP3    H2 7468   3.337   2.587   1.378
 2488TIP3   OH2 7469   5.141   0.605   3.654
 2488TIP3    H1 7470   5.188   0.621   3.572
 2488TIP3    H2 7471   5.193   0.537   3.698
 2489TIP3   OH2 7472   4.777   0.936   5.092
 2489TIP3    H1 7473   4.775   1.005   5.025
 2489TIP3    H2 7474   4.689   0.899   5.091
 2490TIP3   OH2 7475   0.103   1.353   0.968
 2490TIP3    H1 7476   0.046   1.362   1.045
 2490TIP3    H2 7477   0.129   1.262   0.967
 2491TIP3   OH2 7478   5.599   2.180   1.755
 2491TIP3    H1 7479   5.601   2.087   1.731
 2491TIP3    H2 7480   5.668   2.189   1.820
 2492TIP3   OH2 7481   0.734   2.522   2.740
 2492TIP3    H1 7482   0.740   2.429   2.762
 2492TIP3    H2 7483   0.644   2.546   2.761
 2493TIP3   OH2 7484   5.646   2.642   2.189
 2493TIP3    H1 7485   5.723   2.648   2.245
 2493TIP3    H2 7486   5.625   2.549   2.187
 2494TIP3   OH2 7487   2.813   3.659   1.636
 2494TIP3    H1 7488   2.807   3.725   1.566
 2494TIP3    H2 7489   2.728   3.616   1.635
 2495TIP3   OH2 7490   2.181   0.598   0.840
 2495TIP3    H1 7491   2.156   0.507   0.857
 2495TIP3    H2 7492   2.272   0.604   0.868
 2496TIP3   OH2 7493   0.832   3.230   1.264
 2496TIP3    H1 7494   0.908   3.277   1.298
 2496TIP3    H2 7495   0.814   3.163   1.329
 2497TIP3   OH2 7496   3.396   5.709   3.943
 2497TIP3    H1 7497   3.398   5.630   3.997
 2497TIP3    H2 7498   3.369   5.779   4.003
 2498TIP3   OH2 7499   4.915   3.569   0.278
 2498TIP3    H1 7500   4.954   3.508   0.216
 2498TIP3    H2 7501   4.986   3.629   0.301
 2499TIP3   OH2 7502   1.997   1.220   2.594
 2499TIP3    H1 7503   1.911   1.178   2.598
 2499TIP3    H2 7504   2.035   1.191   2.511
 2500TIP3   OH2 7505   2.180   4.241   2.532
 2500TIP3    H1 7506   2.158   4.256   2.440
 2500TIP3    H2 7507   2.110   4.186   2.566
 2501TIP3   OH2 7508   0.014   5.488   0.722
 2501TIP3    H1 7509  -0.024   5.557   0.668
 2501TIP3    H2 7510   0.107   5.509   0.726
 2502TIP3   OH2 7511   0.098   4.815   2.134
 2502TIP3    H1 7512   0.041   4.804   2.058
 2502TIP3    H2 7513   0.187   4.811   2.098
 2503TIP3   OH2 7514   5.428   4.021   3.538
 2503TIP3    H1 7515   5.492   3.953   3.517
 2503TIP3    H2 7516   5.354   4.004   3.480
 2504TIP3   OH2 7517   0.931   2.733   3.640
 2504TIP3    H1 7518   0.953   2.810   3.587
 2504TIP3    H2 7519   0.882   2.677   3.581
 2505TIP3   OH2 7520   3.645   3.861   2.515
 2505TIP3    H1 7521   3.683   3.856   2.427
 2505TIP3    H2 7522   3.638   3.769   2.543
 2506TIP3   OH2 7523   5.757   4.531   3.375
 2506TIP3    H1 7524   5.782   4.439   3.380
 2506TIP3    H2 7525   5.777   4.556   3.285
 2507TIP3   OH2 7526   3.155   5.957   3.148
 2507TIP3    H1 7527   3.228   6.004   3.189
 2507TIP3    H2 7528   3.105   5.920   3.221
 2508TIP3   OH2 7529   3.760   0.576   2.179
 2508TIP3    H1 7530   3.849   0.566   2.145
 2508TIP3    H2 7531   3.772   0.607   2.269
 2509TIP3   OH2 7532   0.469   3.963   3.425
 2509TIP3    H1 7533   0.470   3.959   3.520
 2509TIP3    H2 7534   0.560   3.977   3.400
 2510TIP3   OH2 7535   6.165   4.034   0.763
 2510TIP3    H1 7536   6.260   4.037   0.767
 2510TIP3    H2 7537   6.144   4.047   0.670
 2511TIP3   OH2 7538   3.774   2.453   2.953
 2511TIP3    H1 7539   3.713   2.393   2.909
 2511TIP3    H2 7540   3.847   2.397   2.980
 2512TIP3   OH2 7541   2.033   4.595   0.446
 2512TIP3    H1 7542   2.034   4.690   0.437
 2512TIP3    H2 7543   2.119   4.573   0.483
 2513TIP3   OH2 7544   4.316   5.087   1.468
 2513TIP3    H1 7545   4.294   5.100   1.560
 2513TIP3    H2 7546   4.299   5.172   1.427
 2514TIP3   OH2 7547   4.879   2.280   3.915
 2514TIP3    H1 7548   4.846   2.337   3.846
 2514TIP3    H2 7549   4.933   2.215   3.869
 2515TIP3   OH2 7550   5.021   3.862   4.328
 2515TIP3    H1 7551   5.075   3.816   4.392
 2515TIP3    H2 7552   5.008   3.798   4.258
 2516TIP3   OH2 7553   2.498   3.003   5.184
 2516TIP3    H1 7554   2.493   3.048   5.099
 2516TIP3    H2 7555   2.562   3.054   5.234
 2517TIP3   OH2 7556   0.860   0.258   4.013
 2517TIP3    H1 7557   0.853   0.178   4.066
 2517TIP3    H2 7558   0.888   0.325   4.076
 2518TIP3   OH2 7559   0.052   3.126   4.616
 2518TIP3    H1 7560   0.033   3.117   4.709
 2518TIP3    H2 7561  -0.011   3.190   4.585
 2519TIP3   OH2 7562   5.442   0.883   4.002
 2519TIP3    H1 7563   5.403   0.796   4.008
 2519TIP3    H2 7564   5.518   0.871   3.946
 2520TIP3   OH2 7565   0.446   3.308   5.076
 2520TIP3    H1 7566   0.517   3.259   5.035
 2520TIP3    H2 7567   0.368   3.281   5.027
 2521TIP3   OH2 7568   1.408   2.289   4.600
 2521TIP3    H1 7569   1.313   2.305   4.607
 2521TIP3    H2 7570   1.419   2.244   4.517
 2522TIP3   OH2 7571   0.961   0.285   3.187
 2522TIP3    H1 7572   0.932   0.257   3.274
 2522TIP3    H2 7573   0.952   0.207   3.133
 2523TIP3   OH2 7574   3.746   5.117   0.388
 2523TIP3    H1 7575   3.701   5.097   0.305
 2523TIP3    H2 7576   3.817   5.177   0.363
 2524TIP3   OH2 7577   5.491   4.228   3.694
 2524TIP3    H1 7578   5.556   4.235   3.764
 2524TIP3    H2 7579   5.478   4.133   3.684
 2525TIP3   OH2 7580   2.723   4.733   2.584
 2525TIP3    H1 7581   2.748   4.642   2.565
 2525TIP3    H2 7582   2.660   4.755   2.515
 2526TIP3   OH2 7583   5.041   4.272   0.464
 2526TIP3    H1 7584   5.021   4.200   0.405
 2526TIP3    H2 7585   5.132   4.256   0.491
 2527TIP3   OH2 7586   2.659   2.716   3.458
 2527TIP3    H1 7587   2.595   2.651   3.428
 2527TIP3    H2 7588   2.647   2.790   3.399
 2528TIP3   OH2 7589   0.067   5.069   0.235
 2528TIP3    H1 7590   0.076   4.980   0.200
 2528TIP3    H2 7591   0.157   5.102   0.240
 2529TIP3   OH2 7592   3.339   2.059   0.737
 2529TIP3    H1 7593   3.364   2.081   0.647
 2529TIP3    H2 7594   3.405   2.102   0.791
 2530TIP3   OH2 7595   1.644   5.982   1.144
 2530TIP3    H1 7596   1.653   5.946   1.232
 2530TIP3    H2 7597   1.572   5.932   1.105
 2531TIP3   OH2 7598   0.477   0.184   3.971
 2531TIP3    H1 7599   0.441   0.258   4.021
 2531TIP3    H2 7600   0.408   0.118   3.975
 2532TIP3   OH2 7601   3.080   4.884   0.491
 2532TIP3    H1 7602   2.989   4.869   0.466
 2532TIP3    H2 7603   3.081   4.969   0.533
 2533TIP3   OH2 7604   3.830   1.840   0.591
 2533TIP3    H1 7605   3.877   1.813   0.670
 2533TIP3    H2 7606   3.864   1.783   0.522
 2534TIP3   OH2 7607   1.428   0.417   2.438
 2534TIP3    H1 7608   1.338   0.449   2.436
 2534TIP3    H2 7609   1.426   0.343   2.498
 2535TIP3   OH2 7610   5.647   2.099   0.937
 2535TIP3    H1 7611   5.636   2.049   0.856
 2535TIP3    H2 7612   5.739   2.085   0.960
 2536TIP3   OH2 7613   0.623   5.674   4.825
 2536TIP3    H1 7614   0.717   5.658   4.819
 2536TIP3    H2 7615   0.601   5.654   4.915
 2537TIP3   OH2 7616   4.076   2.881   2.986
 2537TIP3    H1 7617   4.113   2.917   3.067
 2537TIP3    H2 7618   4.129   2.918   2.916
 2538TIP3   OH2 7619   2.191   3.593   2.008
 2538TIP3    H1 7620   2.139   3.513   1.999
 2538TIP3    H2 7621   2.127   3.663   2.000
 2539TIP3   OH2 7622   2.737   5.794   3.749
 2539TIP3    H1 7623   2.747   5.722   3.687
 2539TIP3    H2 7624   2.771   5.870   3.703
 2540TIP3   OH2 7625   2.256   2.928   1.507
 2540TIP3    H1 7626   2.207   2.901   1.585
 2540TIP3    H2 7627   2.309   2.852   1.484
 2541TIP3   OH2 7628   2.872   3.639   0.557
 2541TIP3    H1 7629   2.950   3.587   0.574
 2541TIP3    H2 7630   2.865   3.697   0.633
 2542TIP3   OH2 7631   3.478   2.302   3.872
 2542TIP3    H1 7632   3.448   2.326   3.784
 2542TIP3    H2 7633   3.492   2.385   3.917
 2543TIP3   OH2 7634   5.050   2.147   3.531
 2543TIP3    H1 7635   5.021   2.237   3.544
 2543TIP3    H2 7636   5.072   2.142   3.438
 2544TIP3   OH2 7637   3.298   4.920   3.780
 2544TIP3    H1 7638   3.366   4.873   3.730
 2544TIP3    H2 7639   3.301   5.009   3.745
 2545TIP3   OH2 7640   0.518   4.825   0.333
 2545TIP3    H1 7641   0.572   4.881   0.278
 2545TIP3    H2 7642   0.524   4.864   0.420
 2546TIP3   OH2 7643   6.270   4.634   4.467
 2546TIP3    H1 7644   6.332   4.691   4.513
 2546TIP3    H2 7645   6.257   4.559   4.525
 2547TIP3   OH2 7646   2.486   2.076   0.576
 2547TIP3    H1 7647   2.391   2.068   0.564
 2547TIP3    H2 7648   2.518   2.109   0.492
 2548TIP3   OH2 7649   1.032   3.333   1.385
 2548TIP3    H1 7650   1.125   3.316   1.373
 2548TIP3    H2 7651   1.027   3.428   1.400
 2549TIP3   OH2 7652   4.254   0.147  -0.026
 2549TIP3    H1 7653   4.319   0.159   0.044
 2549TIP3    H2 7654   4.170   0.159   0.018
 2550TIP3   OH2 7655   4.440   0.639   4.798
 2550TIP3    H1 7656   4.426   0.730   4.770
 2550TIP3    H2 7657   4.361   0.615   4.846
 2551TIP3   OH2 7658   4.136   5.406   0.858
 2551TIP3    H1 7659   4.098   5.491   0.834
 2551TIP3    H2 7660   4.153   5.414   0.952
 2552TIP3   OH2 7661   0.693   3.179   0.742
 2552TIP3    H1 7662   0.765   3.167   0.680
 2552TIP3    H2 7663   0.627   3.227   0.692
 2553TIP3   OH2 7664   6.293   2.174   2.984
 2553TIP3    H1 7665   6.369   2.178   3.042
 2553TIP3    H2 7666   6.228   2.232   3.025
 2554TIP3   OH2 7667   1.505   5.591   3.792
 2554TIP3    H1 7668   1.487   5.685   3.800
 2554TIP3    H2 7669   1.447   5.562   3.722
 2555TIP3   OH2 7670   1.385   0.911   4.960
 2555TIP3    H1 7671   1.336   0.993   4.970
 2555TIP3    H2 7672   1.319   0.846   4.937
 2556TIP3   OH2 7673   0.157   2.959   1.847
 2556TIP3    H1 7674   0.251   2.942   1.839
 2556TIP3    H2 7675   0.125   2.964   1.757
 2557TIP3   OH2 7676   1.850   1.760   1.931
 2557TIP3    H1 7677   1.803   1.680   1.905
 2557TIP3    H2 7678   1.785   1.830   1.921
 2558TIP3   OH2 7679   3.028   2.606   2.523
 2558TIP3    H1 7680   3.058   2.656   2.599
 2558TIP3    H2 7681   3.062   2.654   2.448
 2559TIP3   OH2 7682   5.088   1.218   2.181
 2559TIP3    H1 7683   5.098   1.248   2.272
 2559TIP3    H2 7684   5.169   1.244   2.138
 2560TIP3   OH2 7685   2.789   5.431   1.187
 2560TIP3    H1 7686   2.843   5.405   1.263
 2560TIP3    H2 7687   2.756   5.349   1.151
 2561TIP3   OH2 7688   2.198   2.608   4.448
 2561TIP3    H1 7689   2.248   2.530   4.474
 2561TIP3    H2 7690   2.128   2.614   4.512
 2562TIP3   OH2 7691  -0.026   0.377   4.251
 2562TIP3    H1 7692   0.054   0.364   4.302
 2562TIP3    H2 7693  -0.019   0.466   4.216
 2563TIP3   OH2 7694   2.933   0.492   3.655
 2563TIP3    H1 7695   2.903   0.526   3.571
 2563TIP3    H2 7696   2.988   0.562   3.691
 2564TIP3   OH2 7697   4.607   1.499   4.983
 2564TIP3    H1 7698   4.513   1.508   4.971
 2564TIP3    H2 7699   4.618   1.411   5.020
 2565TIP3   OH2 7700   3.802   4.547   4.528
 2565TIP3    H1 7701   3.793   4.473   4.468
 2565TIP3    H2 7702   3.851   4.613   4.478
 2566TIP3   OH2 7703   5.302   3.427   4.394
 2566TIP3    H1 7704   5.344   3.482   4.329
 2566TIP3    H2 7705   5.217   3.468   4.410
 2567TIP3   OH2 7706   5.698   0.411   2.085
 2567TIP3    H1 7707   5.634   0.350   2.048
 2567TIP3    H2 7708   5.703   0.387   2.178
 2568TIP3   OH2 7709   1.383   5.854   3.100
 2568TIP3    H1 7710   1.417   5.767   3.119
 2568TIP3    H2 7711   1.456   5.899   3.056
 2569TIP3   OH2 7712   4.532   4.765   4.403
 2569TIP3    H1 7713   4.489   4.680   4.396
 2569TIP3    H2 7714   4.470   4.828   4.367
 2570TIP3   OH2 7715   1.155   5.589   1.585
 2570TIP3    H1 7716   1.193   5.622   1.667
 2570TIP3    H2 7717   1.095   5.658   1.557
 2571TIP3   OH2 7718   2.446   1.097   0.338
 2571TIP3    H1 7719   2.489   1.059   0.415
 2571TIP3    H2 7720   2.377   1.034   0.316
 2572TIP3   OH2 7721   4.494   2.176   3.536
 2572TIP3    H1 7722   4.422   2.157   3.477
 2572TIP3    H2 7723   4.567   2.123   3.504
 2573TIP3   OH2 7724   0.776   1.027   1.964
 2573TIP3    H1 7725   0.854   1.047   2.015
 2573TIP3    H2 7726   0.709   1.086   1.997
 2574TIP3   OH2 7727   3.201   2.763   0.557
 2574TIP3    H1 7728   3.146   2.821   0.610
 2574TIP3    H2 7729   3.288   2.769   0.597
 2575TIP3   OH2 7730   2.129   2.420   2.369
 2575TIP3    H1 7731   2.065   2.413   2.298
 2575TIP3    H2 7732   2.165   2.332   2.377
 2576TIP3   OH2 7733   4.326   3.067   2.289
 2576TIP3    H1 7734   4.309   3.137   2.226
 2576TIP3    H2 7735   4.340   2.989   2.235
 2577TIP3   OH2 7736   1.055   0.298   3.569
 2577TIP3    H1 7737   1.120   0.298   3.640
 2577TIP3    H2 7738   0.972   0.318   3.613
 2578TIP3   OH2 7739   0.436   2.909   3.750
 2578TIP3    H1 7740   0.494   2.869   3.815
 2578TIP3    H2 7741   0.477   2.993   3.729
 2579TIP3   OH2 7742   5.312   1.000   1.454
 2579TIP3    H1 7743   5.313   1.050   1.372
 2579TIP3    H2 7744   5.300   0.909   1.427
 2580TIP3   OH2 7745   0.669   5.910   0.619
 2580TIP3    H1 7746   0.727   5.986   0.626
 2580TIP3    H2 7747   0.722   5.845   0.572
 2581TIP3   OH2 7748   4.631   1.480   0.984
 2581TIP3    H1 7749   4.565   1.412   0.971
 2581TIP3    H2 7750   4.713   1.440   0.957
 2582TIP3   OH2 7751   1.552   3.777   2.595
 2582TIP3    H1 7752   1.501   3.858   2.603
 2582TIP3    H2 7753   1.613   3.794   2.524
 2583TIP3   OH2 7754   2.461   3.198   4.168
 2583TIP3    H1 7755   2.498   3.231   4.250
 2583TIP3    H2 7756   2.367   3.214   4.176
 2584TIP3   OH2 7757   0.330   5.655   1.597
 2584TIP3    H1 7758   0.266   5.597   1.639
 2584TIP3    H2 7759   0.398   5.595   1.565
 2585TIP3   OH2 7760   2.522   2.719   0.459
 2585TIP3    H1 7761   2.498   2.811   0.455
 2585TIP3    H2 7762   2.612   2.718   0.493
 2586TIP3   OH2 7763   5.008   4.022   0.313
 2586TIP3    H1 7764   5.033   4.088   0.249
 2586TIP3    H2 7765   4.927   3.985   0.280
 2587TIP3   OH2 7766   0.988   5.807   5.061
 2587TIP3    H1 7767   0.893   5.812   5.076
 2587TIP3    H2 7768   1.026   5.862   5.129
 2588TIP3   OH2 7769   5.316   1.420   0.875
 2588TIP3    H1 7770   5.394   1.473   0.891
 2588TIP3    H2 7771   5.301   1.426   0.781
 2589TIP3   OH2 7772   1.889   3.993   0.334
 2589TIP3    H1 7773   1.800   3.989   0.370
 2589TIP3    H2 7774   1.940   4.039   0.400
 2590TIP3   OH2 7775   1.732   0.671   4.688
 2590TIP3    H1 7776   1.678   0.594   4.707
 2590TIP3    H2 7777   1.749   0.666   4.594
 2591TIP3   OH2 7778   1.697   1.259   4.919
 2591TIP3    H1 7779   1.696   1.316   4.843
 2591TIP3    H2 7780   1.646   1.182   4.892
 2592TIP3   OH2 7781   4.937   0.923   3.897
 2592TIP3    H1 7782   5.015   0.923   3.842
 2592TIP3    H2 7783   4.965   0.964   3.979
 2593TIP3   OH2 7784   5.832   2.549   1.299
 2593TIP3    H1 7785   5.811   2.563   1.207
 2593TIP3    H2 7786   5.880   2.467   1.300
 2594TIP3   OH2 7787   2.024   2.986   3.261
 2594TIP3    H1 7788   2.014   3.077   3.289
 2594TIP3    H2 7789   1.974   2.936   3.326
 2595TIP3   OH2 7790   1.341   0.804   2.037
 2595TIP3    H1 7791   1.313   0.845   2.118
 2595TIP3    H2 7792   1.436   0.792   2.047
 2596TIP3   OH2 7793   4.105   4.914   4.402
 2596TIP3    H1 7794   4.090   4.913   4.497
 2596TIP3    H2 7795   4.101   5.007   4.379
 2597TIP3   OH2 7796   4.436   1.897   1.918
 2597TIP3    H1 7797   4.512   1.883   1.974
 2597TIP3    H2 7798   4.372   1.832   1.948
 2598TIP3   OH2 7799   1.338   1.441   5.018
 2598TIP3    H1 7800   1.272   1.505   4.992
 2598TIP3    H2 7801   1.410   1.494   5.053
 2599TIP3   OH2 7802   5.296   5.850   3.235
 2599TIP3    H1 7803   5.222   5.888   3.187
 2599TIP3    H2 7804   5.306   5.906   3.312
 2600TIP3   OH2 7805   3.474   5.709   3.145
 2600TIP3    H1 7806   3.550   5.650   3.148
 2600TIP3    H2 7807   3.441   5.701   3.055
 2601TIP3   OH2 7808   2.233   3.587   3.734
 2601TIP3    H1 7809   2.166   3.618   3.795
 2601TIP3    H2 7810   2.302   3.654   3.739
 2602TIP3   OH2 7811   5.996   5.769   4.207
 2602TIP3    H1 7812   6.055   5.716   4.260
 2602TIP3    H2 7813   5.930   5.707   4.175
 2603TIP3   OH2 7814   4.979   1.351   4.277
 2603TIP3    H1 7815   4.963   1.404   4.199
 2603TIP3    H2 7816   4.932   1.396   4.347
 2604TIP3   OH2 7817   6.210   2.941   4.282
 2604TIP3    H1 7818   6.280   2.910   4.225
 2604TIP3    H2 7819   6.170   2.861   4.317
 2605TIP3   OH2 7820   1.622   4.379   4.864
 2605TIP3    H1 7821   1.584   4.311   4.919
 2605TIP3    H2 7822   1.686   4.333   4.810
 2606TIP3   OH2 7823   3.697   1.547   4.708
 2606TIP3    H1 7824   3.694   1.595   4.625
 2606TIP3    H2 7825   3.770   1.486   4.697
 2607TIP3   OH2 7826   5.077   3.218   4.936
 2607TIP3    H1 7827   5.066   3.141   4.991
 2607TIP3    H2 7828   4.990   3.232   4.898
 2608TIP3   OH2 7829   1.436   4.697   3.193
 2608TIP3    H1 7830   1.379   4.730   3.124
 2608TIP3    H2 7831   1.384   4.631   3.238
 2609TIP3   OH2 7832   2.719   3.740   1.346
 2609TIP3    H1 7833   2.663   3.751   1.423
 2609TIP3    H2 7834   2.683   3.663   1.301
 2610TIP3   OH2 7835   6.215   4.614   3.183
 2610TIP3    H1 7836   6.266   4.534   3.197
 2610TIP3    H2 7837   6.170   4.627   3.267
 2611TIP3   OH2 7838   2.799   5.491   0.219
 2611TIP3    H1 7839   2.740   5.417   0.202
 2611TIP3    H2 7840   2.850   5.500   0.139
 2612TIP3   OH2 7841   5.126   3.658   0.953
 2612TIP3    H1 7842   5.058   3.632   1.015
 2612TIP3    H2 7843   5.207   3.623   0.989
 2613TIP3   OH2 7844   3.363   4.398   0.760
 2613TIP3    H1 7845   3.434   4.380   0.822
 2613TIP3    H2 7846   3.374   4.491   0.737
 2614TIP3   OH2 7847   4.490   2.762   4.848
 2614TIP3    H1 7848   4.472   2.743   4.941
 2614TIP3    H2 7849   4.404   2.779   4.811
 2615TIP3   OH2 7850   5.705   5.088   0.799
 2615TIP3    H1 7851   5.658   5.140   0.863
 2615TIP3    H2 7852   5.797   5.114   0.809
 2616TIP3   OH2 7853   5.214   4.082   1.231
 2616TIP3    H1 7854   5.218   3.990   1.209
 2616TIP3    H2 7855   5.306   4.109   1.241
 2617TIP3   OH2 7856   1.103   2.510   0.724
 2617TIP3    H1 7857   1.075   2.437   0.669
 2617TIP3    H2 7858   1.051   2.502   0.804
 2618TIP3   OH2 7859   3.953   5.352   2.853
 2618TIP3    H1 7860   3.975   5.264   2.881
 2618TIP3    H2 7861   3.901   5.389   2.925
 2619TIP3   OH2 7862   5.562   4.344   0.459
 2619TIP3    H1 7863   5.633   4.378   0.514
 2619TIP3    H2 7864   5.484   4.350   0.515
 2620TIP3   OH2 7865   0.813   2.906   0.517
 2620TIP3    H1 7866   0.882   2.840   0.517
 2620TIP3    H2 7867   0.747   2.872   0.456
 2621TIP3   OH2 7868   5.548   1.541   3.745
 2621TIP3    H1 7869   5.607   1.614   3.726
 2621TIP3    H2 7870   5.476   1.580   3.794
 2622TIP3   OH2 7871   2.262   2.935   0.597
 2622TIP3    H1 7872   2.191   2.908   0.655
 2622TIP3    H2 7873   2.222   2.941   0.510
 2623TIP3   OH2 7874   4.607   3.303   0.313
 2623TIP3    H1 7875   4.573   3.281   0.400
 2623TIP3    H2 7876   4.561   3.383   0.289
 2624TIP3   OH2 7877   3.009   3.945   0.378
 2624TIP3    H1 7878   2.938   3.966   0.318
 2624TIP3    H2 7879   3.024   3.851   0.367
 2625TIP3   OH2 7880   5.052   0.568   1.932
 2625TIP3    H1 7881   5.030   0.597   1.843
 2625TIP3    H2 7882   4.970   0.534   1.967
 2626TIP3   OH2 7883   2.543   1.163   3.586
 2626TIP3    H1 7884   2.591   1.081   3.592
 2626TIP3    H2 7885   2.478   1.148   3.517
 2627TIP3   OH2 7886   0.249   4.449   2.147
 2627TIP3    H1 7887   0.202   4.405   2.217
 2627TIP3    H2 7888   0.192   4.441   2.070
 2628TIP3   OH2 7889   6.147   5.033   0.331
 2628TIP3    H1 7890   6.238   5.059   0.322
 2628TIP3    H2 7891   6.103   5.111   0.365
 2629TIP3   OH2 7892   1.240   3.616   1.409
 2629TIP3    H1 7893   1.260   3.542   1.351
 2629TIP3    H2 7894   1.146   3.610   1.424
 2630TIP3   OH2 7895   1.045   3.815   0.670
 2630TIP3    H1 7896   0.985   3.843   0.600
 2630TIP3    H2 7897   1.076   3.729   0.641
 2631TIP3   OH2 7898   5.168   4.328   3.481
 2631TIP3    H1 7899   5.101   4.388   3.513
 2631TIP3    H2 7900   5.198   4.367   3.399
 2632TIP3   OH2 7901   3.957   1.102   0.084
 2632TIP3    H1 7902   3.899   1.138   0.151
 2632TIP3    H2 7903   4.039   1.151   0.093
 2633TIP3   OH2 7904   4.246   1.301   2.602
 2633TIP3    H1 7905   4.180   1.351   2.650
 2633TIP3    H2 7906   4.283   1.241   2.667
 2634TIP3   OH2 7907   4.813   4.072   2.918
 2634TIP3    H1 7908   4.730   4.055   2.872
 2634TIP3    H2 7909   4.870   4.000   2.890
 2635TIP3   OH2 7910   0.994   4.282   1.586
 2635TIP3    H1 7911   0.992   4.334   1.666
 2635TIP3    H2 7912   1.011   4.345   1.516
 2636TIP3   OH2 7913   4.108   1.549   0.697
 2636TIP3    H1 7914   4.090   1.597   0.779
 2636TIP3    H2 7915   4.200   1.566   0.680
 2637TIP3   OH2 7916   3.879   2.191   4.615
 2637TIP3    H1 7917   3.907   2.110   4.656
 2637TIP3    H2 7918   3.923   2.192   4.530
 2638TIP3   OH2 7919   0.173   3.156   3.020
 2638TIP3    H1 7920   0.105   3.223   3.029
 2638TIP3    H2 7921   0.131   3.076   3.049
 2639TIP3   OH2 7922   3.018   4.515   2.530
 2639TIP3    H1 7923   3.036   4.480   2.617
 2639TIP3    H2 7924   3.086   4.477   2.474
 2640TIP3   OH2 7925   6.122   5.101   2.750
 2640TIP3    H1 7926   6.110   5.103   2.655
 2640TIP3    H2 7927   6.114   5.009   2.774
 2641TIP3   OH2 7928   1.337   0.612   0.185
 2641TIP3    H1 7929   1.352   0.606   0.090
 2641TIP3    H2 7930   1.404   0.673   0.216
 2642TIP3   OH2 7931   0.686   1.895   0.606
 2642TIP3    H1 7932   0.672   1.913   0.513
 2642TIP3    H2 7933   0.643   1.967   0.651
 2643TIP3   OH2 7934   2.813   2.846   3.802
 2643TIP3    H1 7935   2.896   2.893   3.807
 2643TIP3    H2 7936   2.779   2.848   3.891
 2644TIP3   OH2 7937   3.430   4.837   0.416
 2644TIP3    H1 7938   3.432   4.832   0.321
 2644TIP3    H2 7939   3.360   4.777   0.442
 2645TIP3   OH2 7940   5.105   0.883   2.350
 2645TIP3    H1 7941   5.185   0.933   2.367
 2645TIP3    H2 7942   5.124   0.834   2.270
 2646TIP3   OH2 7943   6.046   0.537   2.901
 2646TIP3    H1 7944   6.134   0.542   2.866
 2646TIP3    H2 7945   6.001   0.474   2.844
 2647TIP3   OH2 7946   3.908   0.788   2.987
 2647TIP3    H1 7947   3.992   0.755   3.019
 2647TIP3    H2 7948   3.893   0.868   3.037
 2648TIP3   OH2 7949   2.486   3.061   0.418
 2648TIP3    H1 7950   2.573   3.060   0.459
 2648TIP3    H2 7951   2.432   3.112   0.477
 2649TIP3   OH2 7952   0.692   3.900   5.136
 2649TIP3    H1 7953   0.627   3.830   5.139
 2649TIP3    H2 7954   0.769   3.862   5.180
 2650TIP3   OH2 7955   1.307   6.002   2.404
 2650TIP3    H1 7956   1.316   5.921   2.355
 2650TIP3    H2 7957   1.309   5.976   2.496
 2651TIP3   OH2 7958   5.722   0.247   1.438
 2651TIP3    H1 7959   5.745   0.188   1.366
 2651TIP3    H2 7960   5.806   0.273   1.476
 2652TIP3   OH2 7961   5.558   2.248   2.832
 2652TIP3    H1 7962   5.533   2.248   2.740
 2652TIP3    H2 7963   5.599   2.162   2.846
 2653TIP3   OH2 7964   1.089   0.995   4.320
 2653TIP3    H1 7965   1.016   1.057   4.319
 2653TIP3    H2 7966   1.153   1.035   4.379
 2654TIP3   OH2 7967   4.521   0.020   1.240
 2654TIP3    H1 7968   4.472   0.101   1.224
 2654TIP3    H2 7969   4.505  -0.033   1.163
 2655TIP3   OH2 7970   4.562   4.002   3.607
 2655TIP3    H1 7971   4.577   3.988   3.514
 2655TIP3    H2 7972   4.571   4.097   3.619
 2656TIP3   OH2 7973   4.870   1.962   3.336
 2656TIP3    H1 7974   4.869   1.951   3.431
 2656TIP3    H2 7975   4.829   2.048   3.322
 2657TIP3   OH2 7976   3.280   2.524   1.002
 2657TIP3    H1 7977   3.373   2.516   1.023
 2657TIP3    H2 7978   3.236   2.468   1.066
 2658TIP3   OH2 7979   1.565   2.513   4.673
 2658TIP3    H1 7980   1.617   2.450   4.722
 2658TIP3    H2 7981   1.478   2.474   4.667
 2659TIP3   OH2 7982   3.872   2.756   2.861
 2659TIP3    H1 7983   3.943   2.788   2.917
 2659TIP3    H2 7984   3.902   2.670   2.832
 2660TIP3   OH2 7985   0.913   1.667   3.053
 2660TIP3    H1 7986   0.852   1.737   3.078
 2660TIP3    H2 7987   0.931   1.683   2.960
 2661TIP3   OH2 7988   1.894   4.168   0.559
 2661TIP3    H1 7989   1.814   4.126   0.528
 2661TIP3    H2 7990   1.874   4.195   0.648
 2662TIP3   OH2 7991   4.912   5.583   2.220
 2662TIP3    H1 7992   5.005   5.596   2.239
 2662TIP3    H2 7993   4.888   5.659   2.167
 2663TIP3   OH2 7994   5.830   4.638   3.622
 2663TIP3    H1 7995   5.787   4.574   3.565
 2663TIP3    H2 7996   5.812   4.722   3.581
 2664TIP3   OH2 7997   4.404   3.958   4.908
 2664TIP3    H1 7998   4.499   3.957   4.902
 2664TIP3    H2 7999   4.375   3.978   4.819
 2665TIP3   OH2 8000   0.798   0.447   2.572
 2665TIP3    H1 8001   0.762   0.464   2.486
 2665TIP3    H2 8002   0.734   0.390   2.614
 2666TIP3   OH2 8003   4.053   2.814   0.049
 2666TIP3    H1 8004   3.985   2.779  -0.008
 2666TIP3    H2 8005   4.038   2.909   0.051
 2667TIP3   OH2 8006   6.289   0.830   3.963
 2667TIP3    H1 8007   6.264   0.860   3.876
 2667TIP3    H2 8008   6.384   0.840   3.966
 2668TIP3   OH2 8009   1.625   3.235   0.936
 2668TIP3    H1 8010   1.604   3.176   0.864
 2668TIP3    H2 8011   1.542   3.280   0.954
 2669TIP3   OH2 8012   3.881   5.533   4.427
 2669TIP3    H1 8013   3.909   5.537   4.336
 2669TIP3    H2 8014   3.912   5.448   4.459
 2670TIP3   OH2 8015   5.122   1.678   2.538
 2670TIP3    H1 8016   5.136   1.630   2.620
 2670TIP3    H2 8017   5.201   1.661   2.487
 2671TIP3   OH2 8018   0.597   2.393   4.866
 2671TIP3    H1 8019   0.570   2.373   4.776
 2671TIP3    H2 8020   0.593   2.488   4.872
 2672TIP3   OH2 8021   3.585   1.779   0.267
 2672TIP3    H1 8022   3.496   1.755   0.292
 2672TIP3    H2 8023   3.628   1.696   0.246
 2673TIP3   OH2 8024   3.405   0.457   0.196
 2673TIP3    H1 8025   3.466   0.530   0.207
 2673TIP3    H2 8026   3.459   0.379   0.207
 2674TIP3   OH2 8027   0.358   4.506   5.071
 2674TIP3    H1 8028   0.370   4.575   5.136
 2674TIP3    H2 8029   0.396   4.428   5.112
 2675TIP3   OH2 8030   4.702   1.477   4.030
 2675TIP3    H1 8031   4.753   1.400   4.004
 2675TIP3    H2 8032   4.764   1.550   4.024
 2676TIP3   OH2 8033   2.436   2.208   4.130
 2676TIP3    H1 8034   2.517   2.251   4.156
 2676TIP3    H2 8035   2.403   2.260   4.057
 2677TIP3   OH2 8036   0.312   4.989   1.168
 2677TIP3    H1 8037   0.378   4.948   1.223
 2677TIP3    H2 8038   0.238   5.004   1.227
 2678TIP3   OH2 8039   6.344   0.572   3.173
 2678TIP3    H1 8040   6.258   0.530   3.160
 2678TIP3    H2 8041   6.403   0.499   3.190
 2679TIP3   OH2 8042   1.524   5.378   3.010
 2679TIP3    H1 8043   1.502   5.469   3.034
 2679TIP3    H2 8044   1.525   5.331   3.093
 2680TIP3   OH2 8045   0.131   4.382   4.904
 2680TIP3    H1 8046   0.185   4.407   4.979
 2680TIP3    H2 8047   0.189   4.392   4.828
 2681TIP3   OH2 8048   0.226   3.306   4.915
 2681TIP3    H1 8049   0.139   3.347   4.913
 2681TIP3    H2 8050   0.250   3.295   4.823
 2682TIP3   OH2 8051   6.189   1.236   2.949
 2682TIP3    H1 8052   6.274   1.272   2.925
 2682TIP3    H2 8053   6.137   1.241   2.869
 2683TIP3   OH2 8054   2.461   3.531   3.978
 2683TIP3    H1 8055   2.483   3.622   3.999
 2683TIP3    H2 8056   2.370   3.522   4.007
 2684TIP3   OH2 8057   3.687   4.201   3.120
 2684TIP3    H1 8058   3.694   4.175   3.212
 2684TIP3    H2 8059   3.746   4.275   3.112
 2685TIP3   OH2 8060   2.473   4.032   0.828
 2685TIP3    H1 8061   2.472   3.939   0.808
 2685TIP3    H2 8062   2.562   4.049   0.861
 2686TIP3   OH2 8063   6.052   0.570   1.794
 2686TIP3    H1 8064   5.957   0.561   1.785
 2686TIP3    H2 8065   6.064   0.612   1.879
 2687TIP3   OH2 8066   5.316   4.745   3.239
 2687TIP3    H1 8067   5.362   4.789   3.167
 2687TIP3    H2 8068   5.294   4.815   3.300
 2688TIP3   OH2 8069   4.270   0.925   1.350
 2688TIP3    H1 8070   4.201   0.969   1.300
 2688TIP3    H2 8071   4.259   0.832   1.329
 2689TIP3   OH2 8072   0.099   4.064   0.061
 2689TIP3    H1 8073   0.158   4.120   0.110
 2689TIP3    H2 8074   0.141   3.978   0.061
 2690TIP3   OH2 8075   3.520   4.028   4.922
 2690TIP3    H1 8076   3.497   3.935   4.930
 2690TIP3    H2 8077   3.589   4.041   4.987
 2691TIP3   OH2 8078   3.175   2.531   0.758
 2691TIP3    H1 8079   3.215   2.537   0.845
 2691TIP3    H2 8080   3.248   2.520   0.698
 2692TIP3   OH2 8081   2.693   5.985   1.290
 2692TIP3    H1 8082   2.701   5.896   1.254
 2692TIP3    H2 8083   2.599   6.003   1.286
 2693TIP3   OH2 8084   5.395   5.196   1.793
 2693TIP3    H1 8085   5.479   5.189   1.748
 2693TIP3    H2 8086   5.331   5.204   1.722
 2694TIP3   OH2 8087   4.572   3.689   5.050
 2694TIP3    H1 8088   4.620   3.769   5.025
 2694TIP3    H2 8089   4.639   3.622   5.055
 2695TIP3   OH2 8090   3.976   2.652   3.451
 2695TIP3    H1 8091   4.035   2.640   3.524
 2695TIP3    H2 8092   4.017   2.720   3.397
 2696TIP3   OH2 8093   2.706   1.152   0.311
 2696TIP3    H1 8094   2.610   1.156   0.312
 2696TIP3    H2 8095   2.732   1.213   0.242
 2697TIP3   OH2 8096   3.469   1.188   0.666
 2697TIP3    H1 8097   3.433   1.145   0.589
 2697TIP3    H2 8098   3.434   1.277   0.662
 2698TIP3   OH2 8099   4.352   3.995   4.416
 2698TIP3    H1 8100   4.432   4.026   4.375
 2698TIP3    H2 8101   4.355   4.029   4.505
 2699TIP3   OH2 8102   1.042   5.089   3.722
 2699TIP3    H1 8103   1.111   5.023   3.731
 2699TIP3    H2 8104   1.032   5.125   3.811
 2700TIP3   OH2 8105   3.008   2.890   1.483
 2700TIP3    H1 8106   2.963   2.887   1.399
 2700TIP3    H2 8107   3.042   2.801   1.495
 2701TIP3   OH2 8108   1.120   3.304   3.988
 2701TIP3    H1 8109   1.212   3.280   3.999
 2701TIP3    H2 8110   1.106   3.304   3.893
 2702TIP3   OH2 8111   1.023   3.200   0.909
 2702TIP3    H1 8112   1.111   3.205   0.873
 2702TIP3    H2 8113   1.021   3.117   0.957
 2703TIP3   OH2 8114   4.898   0.172   2.468
 2703TIP3    H1 8115   4.992   0.190   2.458
 2703TIP3    H2 8116   4.855   0.242   2.420
 2704TIP3   OH2 8117   3.269   0.462   0.850
 2704TIP3    H1 8118   3.308   0.497   0.930
 2704TIP3    H2 8119   3.210   0.531   0.819
 2705TIP3   OH2 8120   2.216   3.824   4.987
 2705TIP3    H1 8121   2.149   3.769   5.027
 2705TIP3    H2 8122   2.290   3.765   4.973
 2706TIP3   OH2 8123   2.861   3.015   0.278
 2706TIP3    H1 8124   2.774   3.052   0.295
 2706TIP3    H2 8125   2.918   3.058   0.342
 2707TIP3   OH2 8126   1.052   4.841   2.049
 2707TIP3    H1 8127   1.004   4.908   2.097
 2707TIP3    H2 8128   1.144   4.869   2.054
 2708TIP3   OH2 8129   4.199   3.581   1.541
 2708TIP3    H1 8130   4.147   3.641   1.595
 2708TIP3    H2 8131   4.261   3.638   1.496
 2709TIP3   OH2 8132   3.715   1.281   4.252
 2709TIP3    H1 8133   3.683   1.307   4.339
 2709TIP3    H2 8134   3.702   1.187   4.249
 2710TIP3   OH2 8135   4.269   2.944   3.542
 2710TIP3    H1 8136   4.227   2.930   3.627
 2710TIP3    H2 8137   4.325   2.868   3.530
 2711TIP3   OH2 8138   4.323   0.161   2.896
 2711TIP3    H1 8139   4.308   0.164   2.801
 2711TIP3    H2 8140   4.341   0.068   2.914
 2712TIP3   OH2 8141   3.012   3.458   2.427
 2712TIP3    H1 8142   2.950   3.512   2.476
 2712TIP3    H2 8143   3.023   3.503   2.344
 2713TIP3   OH2 8144   2.672   2.797   1.053
 2713TIP3    H1 8145   2.626   2.748   0.985
 2713TIP3    H2 8146   2.647   2.754   1.135
 2714TIP3   OH2 8147   1.137   3.932   3.315
 2714TIP3    H1 8148   1.093   4.016   3.321
 2714TIP3    H2 8149   1.179   3.932   3.229
 2715TIP3   OH2 8150   4.816   1.086   2.062
 2715TIP3    H1 8151   4.877   1.131   2.120
 2715TIP3    H2 8152   4.784   1.155   2.003
 2716TIP3   OH2 8153   3.035   0.907   3.020
 2716TIP3    H1 8154   3.044   0.848   3.095
 2716TIP3    H2 8155   3.023   0.994   3.060
 2717TIP3   OH2 8156   2.019   5.239   3.813
 2717TIP3    H1 8157   1.970   5.195   3.883
 2717TIP3    H2 8158   2.073   5.304   3.859
 2718TIP3   OH2 8159   0.135   3.702   1.532
 2718TIP3    H1 8160   0.157   3.670   1.620
 2718TIP3    H2 8161   0.203   3.767   1.513
 2719TIP3   OH2 8162   1.889   2.037   1.305
 2719TIP3    H1 8163   1.981   2.012   1.313
 2719TIP3    H2 8164   1.846   1.961   1.265
 2720TIP3   OH2 8165   4.147   1.025   2.721
 2720TIP3    H1 8166   4.222   0.977   2.758
 2720TIP3    H2 8167   4.100   0.959   2.670
 2721TIP3   OH2 8168   4.338   2.195   0.481
 2721TIP3    H1 8169   4.277   2.141   0.430
 2721TIP3    H2 8170   4.302   2.283   0.476
 2722TIP3   OH2 8171   5.481   0.822   3.679
 2722TIP3    H1 8172   5.521   0.908   3.693
 2722TIP3    H2 8173   5.552   0.760   3.698
 2723TIP3   OH2 8174   3.694   2.539   4.409
 2723TIP3    H1 8175   3.613   2.543   4.459
 2723TIP3    H2 8176   3.682   2.466   4.348
 2724TIP3   OH2 8177   3.820   2.036   4.152
 2724TIP3    H1 8178   3.767   1.959   4.175
 2724TIP3    H2 8179   3.819   2.038   4.056
 2725TIP3   OH2 8180   6.345   4.557   4.221
 2725TIP3    H1 8181   6.252   4.551   4.199
 2725TIP3    H2 8182   6.347   4.582   4.313
 2726TIP3   OH2 8183   3.659   2.331   4.231
 2726TIP3    H1 8184   3.722   2.294   4.169
 2726TIP3    H2 8185   3.589   2.266   4.235
 2727TIP3   OH2 8186   0.699   4.218   1.075
 2727TIP3    H1 8187   0.604   4.208   1.079
 2727TIP3    H2 8188   0.720   4.212   0.982
 2728TIP3   OH2 8189   4.522   5.121   1.802
 2728TIP3    H1 8190   4.534   5.027   1.794
 2728TIP3    H2 8191   4.549   5.141   1.892
 2729TIP3   OH2 8192   0.366   0.123   1.815
 2729TIP3    H1 8193   0.422   0.096   1.743
 2729TIP3    H2 8194   0.405   0.205   1.846
 2730TIP3   OH2 8195   4.571   2.719   4.381
 2730TIP3    H1 8196   4.491   2.678   4.348
 2730TIP3    H2 8197   4.540   2.794   4.432
 2731TIP3   OH2 8198   0.647   2.920   2.571
 2731TIP3    H1 8199   0.668   3.013   2.581
 2731TIP3    H2 8200   0.704   2.876   2.634
 2732TIP3   OH2 8201   3.121   1.721   4.045
 2732TIP3    H1 8202   3.076   1.739   4.128
 2732TIP3    H2 8203   3.101   1.797   3.990
 2733TIP3   OH2 8204   4.709   1.984   0.236
 2733TIP3    H1 8205   4.697   2.046   0.164
 2733TIP3    H2 8206   4.700   2.037   0.315
 2734TIP3   OH2 8207   0.064   0.533   3.769
 2734TIP3    H1 8208  -0.001   0.573   3.711
 2734TIP3    H2 8209   0.014   0.471   3.822
 2735TIP3   OH2 8210   6.087   1.938   1.393
 2735TIP3    H1 8211   6.029   1.987   1.335
 2735TIP3    H2 8212   6.091   1.990   1.473
 2736TIP3   OH2 8213   4.723   3.492   4.009
 2736TIP3    H1 8214   4.693   3.449   3.929
 2736TIP3    H2 8215   4.819   3.487   4.004
 2737TIP3   OH2 8216   2.450   0.999   3.865
 2737TIP3    H1 8217   2.469   0.905   3.870
 2737TIP3    H2 8218   2.533   1.039   3.841
 2738TIP3   OH2 8219   5.104   3.015   1.947
 2738TIP3    H1 8220   5.176   3.066   1.912
 2738TIP3    H2 8221   5.085   2.951   1.878
 2739TIP3   OH2 8222   3.066   4.405   0.734
 2739TIP3    H1 8223   3.030   4.372   0.816
 2739TIP3    H2 8224   3.161   4.402   0.746
 2740TIP3   OH2 8225   3.171   5.916   1.796
 2740TIP3    H1 8226   3.240   5.874   1.744
 2740TIP3    H2 8227   3.162   6.004   1.759
 2741TIP3   OH2 8228   1.749   1.760   4.260
 2741TIP3    H1 8229   1.748   1.856   4.260
 2741TIP3    H2 8230   1.816   1.737   4.196
 2742TIP3   OH2 8231   5.259   1.318   4.063
 2742TIP3    H1 8232   5.232   1.406   4.040
 2742TIP3    H2 8233   5.281   1.322   4.156
 2743TIP3   OH2 8234   5.969   5.778   2.995
 2743TIP3    H1 8235   5.888   5.727   2.998
 2743TIP3    H2 8236   6.034   5.721   3.037
 2744TIP3   OH2 8237   3.025   3.477   0.130
 2744TIP3    H1 8238   2.975   3.521   0.061
 2744TIP3    H2 8239   3.099   3.437   0.084
 2745TIP3   OH2 8240   5.112   1.993   0.652
 2745TIP3    H1 8241   5.058   2.055   0.701
 2745TIP3    H2 8242   5.127   2.035   0.567
 2746TIP3   OH2 8243   5.882   2.963   0.591
 2746TIP3    H1 8244   5.792   2.987   0.569
 2746TIP3    H2 8245   5.892   2.873   0.559
 2747TIP3   OH2 8246   5.044   3.020   0.279
 2747TIP3    H1 8247   4.986   3.009   0.204
 2747TIP3    H2 8248   5.002   3.088   0.332
 2748TIP3   OH2 8249   3.718   5.944   2.925
 2748TIP3    H1 8250   3.769   5.883   2.978
 2748TIP3    H2 8251   3.682   6.006   2.988
 2749TIP3   OH2 8252   3.015   5.616   3.399
 2749TIP3    H1 8253   3.080   5.682   3.374
 2749TIP3    H2 8254   2.992   5.572   3.317
 2750TIP3   OH2 8255   4.210   4.641   0.146
 2750TIP3    H1 8256   4.264   4.569   0.178
 2750TIP3    H2 8257   4.267   4.718   0.151
 2751TIP3   OH2 8258   1.252   5.273   0.956
 2751TIP3    H1 8259   1.170   5.256   0.909
 2751TIP3    H2 8260   1.320   5.239   0.898
 2752TIP3   OH2 8261   0.188   5.214   0.788
 2752TIP3    H1 8262   0.110   5.264   0.763
 2752TIP3    H2 8263   0.257   5.248   0.731
 2753TIP3   OH2 8264   1.137   3.873   2.767
 2753TIP3    H1 8265   1.211   3.854   2.825
 2753TIP3    H2 8266   1.060   3.850   2.820
 2754TIP3   OH2 8267   0.005   3.435   4.834
 2754TIP3    H1 8268  -0.026   3.386   4.758
 2754TIP3    H2 8269   0.032   3.520   4.799
 2755TIP3   OH2 8270   0.932   0.129   0.352
 2755TIP3    H1 8271   0.844   0.117   0.315
 2755TIP3    H2 8272   0.943   0.224   0.359
 2756TIP3   OH2 8273   5.639   4.850   4.988
 2756TIP3    H1 8274   5.703   4.795   5.034
 2756TIP3    H2 8275   5.623   4.923   5.047
 2757TIP3   OH2 8276   2.495   0.891   1.468
 2757TIP3    H1 8277   2.458   0.933   1.546
 2757TIP3    H2 8278   2.525   0.964   1.414
 2758TIP3   OH2 8279   4.227   1.677   4.324
 2758TIP3    H1 8280   4.282   1.716   4.256
 2758TIP3    H2 8281   4.284   1.616   4.370
 2759TIP3   OH2 8282   5.997   2.575   0.781
 2759TIP3    H1 8283   6.050   2.526   0.719
 2759TIP3    H2 8284   6.053   2.585   0.858
 2760TIP3   OH2 8285   0.501   5.916   4.152
 2760TIP3    H1 8286   0.525   5.889   4.240
 2760TIP3    H2 8287   0.418   5.962   4.163
 2761TIP3   OH2 8288   5.176   4.064   3.740
 2761TIP3    H1 8289   5.199   4.051   3.648
 2761TIP3    H2 8290   5.161   4.159   3.747
 2762TIP3   OH2 8291   4.837   2.625   2.172
 2762TIP3    H1 8292   4.788   2.647   2.251
 2762TIP3    H2 8293   4.780   2.563   2.126
 2763TIP3   OH2 8294   0.911   5.663   4.836
 2763TIP3    H1 8295   0.940   5.576   4.863
 2763TIP3    H2 8296   0.938   5.721   4.908
 2764TIP3   OH2 8297   2.401   1.413   2.215
 2764TIP3    H1 8298   2.368   1.493   2.174
 2764TIP3    H2 8299   2.442   1.365   2.143
 2765TIP3   OH2 8300   5.531   1.548   0.360
 2765TIP3    H1 8301   5.563   1.627   0.404
 2765TIP3    H2 8302   5.578   1.547   0.276
 2766TIP3   OH2 8303   2.122   4.648   2.235
 2766TIP3    H1 8304   2.040   4.667   2.280
 2766TIP3    H2 8305   2.183   4.715   2.265
 2767TIP3   OH2 8306   0.841   5.817   1.377
 2767TIP3    H1 8307   0.771   5.814   1.312
 2767TIP3    H2 8308   0.913   5.862   1.333
 2768TIP3   OH2 8309   2.368   3.151   0.783
 2768TIP3    H1 8310   2.463   3.160   0.786
 2768TIP3    H2 8311   2.352   3.058   0.772
 2769TIP3   OH2 8312   6.156   0.615   3.606
 2769TIP3    H1 8313   6.102   0.684   3.645
 2769TIP3    H2 8314   6.192   0.654   3.527
 2770TIP3   OH2 8315   1.590   3.711   3.358
 2770TIP3    H1 8316   1.633   3.751   3.282
 2770TIP3    H2 8317   1.503   3.750   3.359
 2771TIP3   OH2 8318   4.917   2.188   1.967
 2771TIP3    H1 8319   4.887   2.122   1.904
 2771TIP3    H2 8320   4.839   2.241   1.985
 2772TIP3   OH2 8321   5.674   3.252   0.122
 2772TIP3    H1 8322   5.714   3.166   0.131
 2772TIP3    H2 8323   5.586   3.242   0.159
 2773TIP3   OH2 8324   5.314   0.255   4.464
 2773TIP3    H1 8325   5.399   0.228   4.498
 2773TIP3    H2 8326   5.331   0.282   4.374
 2774TIP3   OH2 8327   3.998   5.174   0.763
 2774TIP3    H1 8328   4.045   5.244   0.808
 2774TIP3    H2 8329   3.963   5.216   0.684
 2775TIP3   OH2 8330   0.489   2.620   0.460
 2775TIP3    H1 8331   0.578   2.622   0.424
 2775TIP3    H2 8332   0.472   2.709   0.489
 2776TIP3   OH2 8333   4.200   1.775   0.403
 2776TIP3    H1 8334   4.207   1.868   0.382
 2776TIP3    H2 8335   4.219   1.730   0.320
 2777TIP3   OH2 8336   6.105   2.559   0.460
 2777TIP3    H1 8337   6.198   2.582   0.455
 2777TIP3    H2 8338   6.105   2.464   0.469
 2778TIP3   OH2 8339   0.493   3.384   4.195
 2778TIP3    H1 8340   0.587   3.375   4.182
 2778TIP3    H2 8341   0.470   3.312   4.253
 2779TIP3   OH2 8342   0.774   5.027   0.877
 2779TIP3    H1 8343   0.822   4.974   0.814
 2779TIP3    H2 8344   0.711   4.967   0.915
 2780TIP3   OH2 8345   4.382   3.716   1.375
 2780TIP3    H1 8346   4.445   3.763   1.319
 2780TIP3    H2 8347   4.368   3.774   1.449
 2781TIP3   OH2 8348   4.577   2.978   0.516
 2781TIP3    H1 8349   4.537   3.065   0.520
 2781TIP3    H2 8350   4.669   2.993   0.539
 2782TIP3   OH2 8351   2.116   3.759   3.525
 2782TIP3    H1 8352   2.049   3.819   3.556
 2782TIP3    H2 8353   2.154   3.722   3.604
 2783TIP3   OH2 8354   0.288   4.096   0.809
 2783TIP3    H1 8355   0.301   4.001   0.804
 2783TIP3    H2 8356   0.219   4.113   0.745
 2784TIP3   OH2 8357   3.275   3.848   0.291
 2784TIP3    H1 8358   3.200   3.794   0.317
 2784TIP3    H2 8359   3.274   3.846   0.196
 2785TIP3   OH2 8360   4.746   0.270   5.187
 2785TIP3    H1 8361   4.809   0.304   5.123
 2785TIP3    H2 8362   4.663   0.312   5.163
 2786TIP3   OH2 8363   1.749   5.597   0.965
 2786TIP3    H1 8364   1.656   5.577   0.972
 2786TIP3    H2 8365   1.779   5.548   0.889
 2787TIP3   OH2 8366  -0.012   2.013   0.497
 2787TIP3    H1 8367   0.023   2.082   0.554
 2787TIP3    H2 8368  -0.010   1.935   0.551
 2788TIP3   OH2 8369   0.162   4.853   3.807
 2788TIP3    H1 8370   0.119   4.774   3.839
 2788TIP3    H2 8371   0.204   4.827   3.726
 2789TIP3   OH2 8372   6.251   2.686   1.494
 2789TIP3    H1 8373   6.310   2.749   1.536
 2789TIP3    H2 8374   6.244   2.716   1.403
 2790TIP3   OH2 8375   1.359   0.854   1.759
 2790TIP3    H1 8376   1.316   0.805   1.688
 2790TIP3    H2 8377   1.332   0.808   1.839
 2791TIP3   OH2 8378   5.672   3.856   1.682
 2791TIP3    H1 8379   5.601   3.825   1.626
 2791TIP3    H2 8380   5.668   3.952   1.673
 2792TIP3   OH2 8381   4.105   1.430   3.782
 2792TIP3    H1 8382   4.172   1.412   3.716
 2792TIP3    H2 8383   4.120   1.365   3.850
 2793TIP3   OH2 8384   3.609   3.432   1.281
 2793TIP3    H1 8385   3.667   3.476   1.343
 2793TIP3    H2 8386   3.617   3.339   1.303
 2794TIP3   OH2 8387   4.331   3.234   5.018
 2794TIP3    H1 8388   4.239   3.250   5.037
 2794TIP3    H2 8389   4.359   3.170   5.083
 2795TIP3   OH2 8390   5.595   3.422   2.654
 2795TIP3    H1 8391   5.661   3.469   2.704
 2795TIP3    H2 8392   5.512   3.455   2.687
 2796TIP3   OH2 8393   2.937   5.040   1.720
 2796TIP3    H1 8394   3.008   4.978   1.737
 2796TIP3    H2 8395   2.906   5.065   1.807
 2797TIP3   OH2 8396   4.222   0.845   2.219
 2797TIP3    H1 8397   4.280   0.782   2.262
 2797TIP3    H2 8398   4.256   0.930   2.245
 2798TIP3   OH2 8399   0.788  -0.014   4.921
 2798TIP3    H1 8400   0.766   0.072   4.957
 2798TIP3    H2 8401   0.883  -0.016   4.918
 2799TIP3   OH2 8402   4.684   3.671   4.573
 2799TIP3    H1 8403   4.607   3.658   4.517
 2799TIP3    H2 8404   4.737   3.737   4.527
 2800TIP3   OH2 8405   2.590   3.070   4.773
 2800TIP3    H1 8406   2.635   3.085   4.690
 2800TIP3    H2 8407   2.654   3.025   4.828
 2801TIP3   OH2 8408   5.346   2.302   3.377
 2801TIP3    H1 8409   5.353   2.385   3.424
 2801TIP3    H2 8410   5.355   2.235   3.445
 2802TIP3   OH2 8411   2.006   1.466   4.647
 2802TIP3    H1 8412   1.972   1.553   4.625
 2802TIP3    H2 8413   2.050   1.437   4.568
 2803TIP3   OH2 8414   2.916   1.507   1.619
 2803TIP3    H1 8415   2.846   1.472   1.673
 2803TIP3    H2 8416   2.916   1.454   1.540
 2804TIP3   OH2 8417   0.057   2.845   4.503
 2804TIP3    H1 8418   0.032   2.804   4.586
 2804TIP3    H2 8419   0.078   2.936   4.526
 2805TIP3   OH2 8420   5.455   4.047   0.416
 2805TIP3    H1 8421   5.387   3.988   0.384
 2805TIP3    H2 8422   5.455   4.035   0.511
 2806TIP3   OH2 8423   5.303   5.440   0.640
 2806TIP3    H1 8424   5.362   5.389   0.695
 2806TIP3    H2 8425   5.278   5.381   0.570
 2807TIP3   OH2 8426   0.869   5.306   2.388
 2807TIP3    H1 8427   0.904   5.349   2.310
 2807TIP3    H2 8428   0.780   5.280   2.364
 2808TIP3   OH2 8429   1.161   3.357   5.151
 2808TIP3    H1 8430   1.158   3.326   5.061
 2808TIP3    H2 8431   1.113   3.440   5.149
 2809TIP3   OH2 8432   0.521   3.089   3.042
 2809TIP3    H1 8433   0.546   3.181   3.031
 2809TIP3    H2 8434   0.544   3.068   3.132
 2810TIP3   OH2 8435   5.781   1.872   2.728
 2810TIP3    H1 8436   5.857   1.920   2.759
 2810TIP3    H2 8437   5.709   1.900   2.785
 2811TIP3   OH2 8438   2.017   5.773   4.687
 2811TIP3    H1 8439   2.026   5.854   4.636
 2811TIP3    H2 8440   2.097   5.724   4.669
 2812TIP3   OH2 8441   4.255   1.095   2.355
 2812TIP3    H1 8442   4.203   1.151   2.299
 2812TIP3    H2 8443   4.260   1.141   2.439
 2813TIP3   OH2 8444   0.663   1.789   4.166
 2813TIP3    H1 8445   0.679   1.737   4.088
 2813TIP3    H2 8446   0.615   1.866   4.135
 2814TIP3   OH2 8447   0.001   3.874   0.280
 2814TIP3    H1 8448   0.027   3.951   0.229
 2814TIP3    H2 8449  -0.014   3.806   0.215
 2815TIP3   OH2 8450   5.039   1.015   0.845
 2815TIP3    H1 8451   5.088   1.073   0.905
 2815TIP3    H2 8452   5.095   1.008   0.768
 2816TIP3   OH2 8453   5.008   4.217   2.716
 2816TIP3    H1 8454   4.961   4.173   2.787
 2816TIP3    H2 8455   4.996   4.159   2.641
 2817TIP3   OH2 8456   4.408   3.591   2.693
 2817TIP3    H1 8457   4.331   3.628   2.735
 2817TIP3    H2 8458   4.480   3.612   2.753
 2818TIP3   OH2 8459   2.709   0.637   2.180
 2818TIP3    H1 8460   2.785   0.589   2.147
 2818TIP3    H2 8461   2.636   0.608   2.125
 2819TIP3   OH2 8462   3.990   1.430   0.050
 2819TIP3    H1 8463   4.051   1.499   0.023
 2819TIP3    H2 8464   4.037   1.348   0.032
 2820TIP3   OH2 8465   1.294   4.532   0.429
 2820TIP3    H1 8466   1.279   4.487   0.512
 2820TIP3    H2 8467   1.357   4.477   0.382
 2821TIP3   OH2 8468   2.412   4.429   1.382
 2821TIP3    H1 8469   2.498   4.390   1.394
 2821TIP3    H2 8470   2.368   4.372   1.319
 2822TIP3   OH2 8471   0.269   4.153   2.029
 2822TIP3    H1 8472   0.276   4.248   2.014
 2822TIP3    H2 8473   0.187   4.128   1.987
 2823TIP3   OH2 8474   5.215   4.494   4.384
 2823TIP3    H1 8475   5.281   4.523   4.447
 2823TIP3    H2 8476   5.179   4.414   4.422
 2824TIP3   OH2 8477   3.696   5.370   2.655
 2824TIP3    H1 8478   3.689   5.297   2.717
 2824TIP3    H2 8479   3.768   5.346   2.597
 2825TIP3   OH2 8480   4.484   4.384   5.202
 2825TIP3    H1 8481   4.428   4.341   5.138
 2825TIP3    H2 8482   4.569   4.392   5.159
 2826TIP3   OH2 8483   1.686   0.908   4.364
 2826TIP3    H1 8484   1.607   0.942   4.322
 2826TIP3    H2 8485   1.758   0.948   4.315
 2827TIP3   OH2 8486   5.925   2.638   3.490
 2827TIP3    H1 8487   6.017   2.613   3.486
 2827TIP3    H2 8488   5.921   2.709   3.555
 2828TIP3   OH2 8489   3.836   2.176   2.972
 2828TIP3    H1 8490   3.785   2.135   2.902
 2828TIP3    H2 8491   3.818   2.124   3.049
 2829TIP3   OH2 8492   1.233   0.854   0.909
 2829TIP3    H1 8493   1.242   0.818   0.997
 2829TIP3    H2 8494   1.154   0.908   0.914
 2830TIP3   OH2 8495   5.087   4.356   2.466
 2830TIP3    H1 8496   5.006   4.403   2.447
 2830TIP3    H2 8497   5.116   4.324   2.381
 2831TIP3   OH2 8498   3.993   2.186   3.271
 2831TIP3    H1 8499   3.962   2.276   3.277
 2831TIP3    H2 8500   3.914   2.133   3.261
 2832TIP3   OH2 8501   2.270   1.430   2.793
 2832TIP3    H1 8502   2.270   1.474   2.878
 2832TIP3    H2 8503   2.208   1.480   2.740
 2833TIP3   OH2 8504   5.239   0.021   4.941
 2833TIP3    H1 8505   5.207   0.001   4.853
 2833TIP3    H2 8506   5.178   0.088   4.974
 2834TIP3   OH2 8507   0.556   5.341   4.819
 2834TIP3    H1 8508   0.593   5.307   4.738
 2834TIP3    H2 8509   0.461   5.328   4.809
 2835TIP3   OH2 8510   5.380   3.502   2.796
 2835TIP3    H1 8511   5.316   3.445   2.751
 2835TIP3    H2 8512   5.327   3.559   2.851
 2836TIP3   OH2 8513   4.597   4.347   2.673
 2836TIP3    H1 8514   4.540   4.322   2.747
 2836TIP3    H2 8515   4.617   4.265   2.629
 2837TIP3   OH2 8516   2.102   2.690   3.888
 2837TIP3    H1 8517   2.092   2.642   3.970
 2837TIP3    H2 8518   2.183   2.655   3.850
 2838TIP3   OH2 8519   5.439   4.276   3.200
 2838TIP3    H1 8520   5.383   4.337   3.248
 2838TIP3    H2 8521   5.378   4.225   3.146
 2839TIP3   OH2 8522   4.533   0.624   0.861
 2839TIP3    H1 8523   4.576   0.539   0.859
 2839TIP3    H2 8524   4.547   0.656   0.951
 2840TIP3   OH2 8525   4.125   1.697   3.873
 2840TIP3    H1 8526   4.147   1.736   3.788
 2840TIP3    H2 8527   4.170   1.612   3.873
 2841TIP3   OH2 8528   0.994   1.307   4.834
 2841TIP3    H1 8529   1.046   1.383   4.860
 2841TIP3    H2 8530   0.969   1.266   4.917
 2842TIP3   OH2 8531   2.871   0.009   4.109
 2842TIP3    H1 8532   2.776   0.013   4.102
 2842TIP3    H2 8533   2.891   0.050   4.193
 2843TIP3   OH2 8534   4.359   5.087   3.650
 2843TIP3    H1 8535   4.414   5.134   3.712
 2843TIP3    H2 8536   4.331   5.153   3.587
 2844TIP3   OH2 8537   5.443   4.412   4.211
 2844TIP3    H1 8538   5.435   4.423   4.116
 2844TIP3    H2 8539   5.358   4.438   4.246
 2845TIP3   OH2 8540   2.332   5.927   1.825
 2845TIP3    H1 8541   2.385   5.852   1.852
 2845TIP3    H2 8542   2.269   5.890   1.762
 2846TIP3   OH2 8543   3.917   1.631   3.399
 2846TIP3    H1 8544   3.939   1.546   3.360
 2846TIP3    H2 8545   3.861   1.608   3.473
 2847TIP3   OH2 8546   1.445   1.836   2.748
 2847TIP3    H1 8547   1.532   1.839   2.787
 2847TIP3    H2 8548   1.414   1.926   2.752
 2848TIP3   OH2 8549   3.893   1.045   3.093
 2848TIP3    H1 8550   3.850   1.008   3.170
 2848TIP3    H2 8551   3.972   1.086   3.127
 2849TIP3   OH2 8552   0.364   2.305   2.905
 2849TIP3    H1 8553   0.355   2.399   2.890
 2849TIP3    H2 8554   0.459   2.291   2.911
 2850TIP3   OH2 8555   2.013   1.971   2.480
 2850TIP3    H1 8556   1.963   2.051   2.496
 2850TIP3    H2 8557   1.968   1.929   2.406
 2851TIP3   OH2 8558   3.450   3.701   0.074
 2851TIP3    H1 8559   3.386   3.750   0.024
 2851TIP3    H2 8560   3.518   3.765   0.096
 2852TIP3   OH2 8561   0.543   1.365   2.690
 2852TIP3    H1 8562   0.611   1.418   2.650
 2852TIP3    H2 8563   0.470   1.369   2.628
 2853TIP3   OH2 8564   6.302   5.110   3.069
 2853TIP3    H1 8565   6.255   5.035   3.104
 2853TIP3    H2 8566   6.298   5.099   2.974
 2854TIP3   OH2 8567   2.540   5.946   4.616
 2854TIP3    H1 8568   2.565   5.889   4.688
 2854TIP3    H2 8569   2.450   5.919   4.594
 2855TIP3   OH2 8570   5.340   3.042   3.061
 2855TIP3    H1 8571   5.325   2.948   3.076
 2855TIP3    H2 8572   5.433   3.047   3.037
 2856TIP3   OH2 8573   4.529   5.108   3.843
 2856TIP3    H1 8574   4.601   5.162   3.875
 2856TIP3    H2 8575   4.571   5.045   3.784
 2857TIP3   OH2 8576   1.445   1.474   3.895
 2857TIP3    H1 8577   1.493   1.423   3.959
 2857TIP3    H2 8578   1.445   1.420   3.815
 2858TIP3   OH2 8579   4.015   4.011   2.867
 2858TIP3    H1 8580   3.926   4.039   2.887
 2858TIP3    H2 8581   4.034   4.050   2.782
 2859TIP3   OH2 8582   1.223   4.457   3.799
 2859TIP3    H1 8583   1.215   4.406   3.880
 2859TIP3    H2 8584   1.313   4.489   3.800
 2860TIP3   OH2 8585   0.840   2.292   5.200
 2860TIP3    H1 8586   0.828   2.387   5.192
 2860TIP3    H2 8587   0.914   2.273   5.142
 2861TIP3   OH2 8588   0.927   1.376   4.226
 2861TIP3    H1 8589   1.010   1.371   4.273
 2861TIP3    H2 8590   0.943   1.329   4.144
 2862TIP3   OH2 8591   3.337   2.235   4.834
 2862TIP3    H1 8592   3.330   2.257   4.927
 2862TIP3    H2 8593   3.429   2.252   4.812
 2863TIP3   OH2 8594   4.408   4.703   2.337
 2863TIP3    H1 8595   4.466   4.686   2.411
 2863TIP3    H2 8596   4.321   4.677   2.369
 2864TIP3   OH2 8597   3.561   4.193   4.426
 2864TIP3    H1 8598   3.472   4.194   4.390
 2864TIP3    H2 8599   3.550   4.223   4.516
 2865TIP3   OH2 8600   4.320   4.324   2.863
 2865TIP3    H1 8601   4.397   4.306   2.917
 2865TIP3    H2 8602   4.246   4.300   2.918
 2866TIP3   OH2 8603   5.552   5.085   0.165
 2866TIP3    H1 8604   5.641   5.050   0.163
 2866TIP3    H2 8605   5.564   5.180   0.177
 2867TIP3   OH2 8606   2.931   0.105   0.979
 2867TIP3    H1 8607   3.002   0.168   0.969
 2867TIP3    H2 8608   2.975   0.022   0.997
 2868TIP3   OH2 8609   5.103   1.772   1.518
 2868TIP3    H1 8610   5.155   1.763   1.439
 2868TIP3    H2 8611   5.038   1.702   1.512
 2869TIP3   OH2 8612   4.536   4.584   2.563
 2869TIP3    H1 8613   4.547   4.503   2.613
 2869TIP3    H2 8614   4.582   4.651   2.614
 2870TIP3   OH2 8615   0.345   0.552   1.739
 2870TIP3    H1 8616   0.264   0.569   1.689
 2870TIP3    H2 8617   0.375   0.638   1.765
 2871TIP3   OH2 8618   3.832   2.282   0.339
 2871TIP3    H1 8619   3.871   2.195   0.353
 2871TIP3    H2 8620   3.850   2.329   0.420
 2872TIP3   OH2 8621   5.245   3.207   3.298
 2872TIP3    H1 8622   5.283   3.145   3.237
 2872TIP3    H2 8623   5.318   3.235   3.353
 2873TIP3   OH2 8624   0.842   5.010   4.709
 2873TIP3    H1 8625   0.813   4.976   4.794
 2873TIP3    H2 8626   0.926   5.052   4.728
 2874TIP3   OH2 8627   4.970   0.959   1.558
 2874TIP3    H1 8628   4.957   0.891   1.625
 2874TIP3    H2 8629   5.065   0.972   1.556
 2875TIP3   OH2 8630   2.583   1.056   4.303
 2875TIP3    H1 8631   2.615   0.967   4.320
 2875TIP3    H2 8632   2.656   1.100   4.260
 2876TIP3   OH2 8633   4.583   1.774   1.296
 2876TIP3    H1 8634   4.569   1.682   1.274
 2876TIP3    H2 8635   4.574   1.821   1.213
 2877TIP3   OH2 8636   0.563   5.906   0.271
 2877TIP3    H1 8637   0.614   5.979   0.236
 2877TIP3    H2 8638   0.509   5.945   0.339
 2878TIP3   OH2 8639   0.013   1.449   1.493
 2878TIP3    H1 8640   0.093   1.500   1.484
 2878TIP3    H2 8641   0.043   1.362   1.520
 2879TIP3   OH2 8642   1.533   4.393   0.336
 2879TIP3    H1 8643   1.547   4.336   0.412
 2879TIP3    H2 8644   1.611   4.447   0.332
 2880TIP3   OH2 8645   2.103   4.072   3.963
 2880TIP3    H1 8646   2.040   4.105   3.900
 2880TIP3    H2 8647   2.097   4.132   4.038
 2881TIP3   OH2 8648   0.992   1.900   3.821
 2881TIP3    H1 8649   0.959   1.839   3.887
 2881TIP3    H2 8650   0.974   1.857   3.737
 2882TIP3   OH2 8651   2.823   4.253   2.486
 2882TIP3    H1 8652   2.838   4.199   2.564
 2882TIP3    H2 8653   2.907   4.251   2.440
 2883TIP3   OH2 8654   4.452   3.581   1.986
 2883TIP3    H1 8655   4.418   3.608   2.072
 2883TIP3    H2 8656   4.405   3.634   1.923
 2884TIP3   OH2 8657   2.483   3.672   3.242
 2884TIP3    H1 8658   2.571   3.665   3.205
 2884TIP3    H2 8659   2.497   3.702   3.332
 2885TIP3   OH2 8660   1.238   5.334   3.764
 2885TIP3    H1 8661   1.188   5.291   3.695
 2885TIP3    H2 8662   1.297   5.266   3.796
 2886TIP3   OH2 8663   5.840   2.241   3.294
 2886TIP3    H1 8664   5.804   2.220   3.208
 2886TIP3    H2 8665   5.880   2.159   3.323
 2887TIP3   OH2 8666   1.775   3.439   0.784
 2887TIP3    H1 8667   1.757   3.376   0.854
 2887TIP3    H2 8668   1.735   3.400   0.706
 2888TIP3   OH2 8669   3.722   0.374   0.035
 2888TIP3    H1 8670   3.816   0.357   0.045
 2888TIP3    H2 8671   3.709   0.458   0.080
 2889TIP3   OH2 8672   5.319   2.819   4.767
 2889TIP3    H1 8673   5.352   2.735   4.733
 2889TIP3    H2 8674   5.278   2.796   4.851
 2890TIP3   OH2 8675   3.559   3.688   1.045
 2890TIP3    H1 8676   3.634   3.631   1.033
 2890TIP3    H2 8677   3.576   3.733   1.128
 2891TIP3   OH2 8678   5.138   1.772   4.713
 2891TIP3    H1 8679   5.233   1.780   4.721
 2891TIP3    H2 8680   5.121   1.677   4.714
 2892TIP3   OH2 8681   5.155   3.339   2.784
 2892TIP3    H1 8682   5.063   3.314   2.775
 2892TIP3    H2 8683   5.172   3.336   2.878
 2893TIP3   OH2 8684   3.619   3.882   1.387
 2893TIP3    H1 8685   3.639   3.883   1.480
 2893TIP3    H2 8686   3.697   3.845   1.346
 2894TIP3   OH2 8687   2.651   0.206   2.898
 2894TIP3    H1 8688   2.732   0.235   2.856
 2894TIP3    H2 8689   2.664   0.227   2.991
 2895TIP3   OH2 8690   5.558   0.657   1.722
 2895TIP3    H1 8691   5.477   0.659   1.774
 2895TIP3    H2 8692   5.608   0.732   1.754
 2896TIP3   OH2 8693   3.522   2.104   2.362
 2896TIP3    H1 8694   3.598   2.081   2.308
 2896TIP3    H2 8695   3.549   2.081   2.451
 2897TIP3   OH2 8696   3.843   5.859   4.830
 2897TIP3    H1 8697   3.817   5.949   4.850
 2897TIP3    H2 8698   3.802   5.807   4.899
 2898TIP3   OH2 8699   2.361   5.620   1.262
 2898TIP3    H1 8700   2.274   5.646   1.235
 2898TIP3    H2 8701   2.398   5.698   1.303
 2899TIP3   OH2 8702   2.835   0.077   4.623
 2899TIP3    H1 8703   2.818  -0.017   4.626
 2899TIP3    H2 8704   2.895   0.093   4.696
 2900TIP3   OH2 8705   1.208   5.517   3.962
 2900TIP3    H1 8706   1.216   5.460   3.886
 2900TIP3    H2 8707   1.280   5.580   3.952
 2901TIP3   OH2 8708   1.685   2.847   2.332
 2901TIP3    H1 8709   1.650   2.884   2.413
 2901TIP3    H2 8710   1.757   2.790   2.361
 2902TIP3   OH2 8711   6.325   3.034   2.516
 2902TIP3    H1 8712   6.298   3.084   2.592
 2902TIP3    H2 8713   6.374   3.096   2.461
 2903TIP3   OH2 8714   6.211   5.922   2.977
 2903TIP3    H1 8715   6.125   5.882   2.991
 2903TIP3    H2 8716   6.195   6.016   2.981
 2904TIP3   OH2 8717   4.321   2.860   0.936
 2904TIP3    H1 8718   4.316   2.787   0.875
 2904TIP3    H2 8719   4.278   2.932   0.892
 2905TIP3   OH2 8720   1.690   3.613   2.216
 2905TIP3    H1 8721   1.727   3.663   2.144
 2905TIP3    H2 8722   1.719   3.523   2.201
 2906TIP3   OH2 8723   0.370   2.282   4.189
 2906TIP3    H1 8724   0.356   2.374   4.168
 2906TIP3    H2 8725   0.450   2.259   4.141
 2907TIP3   OH2 8726   4.911   2.006   1.548
 2907TIP3    H1 8727   4.861   2.032   1.626
 2907TIP3    H2 8728   4.933   1.914   1.563
 2908TIP3   OH2 8729   1.280   2.822   1.219
 2908TIP3    H1 8730   1.318   2.910   1.217
 2908TIP3    H2 8731   1.349   2.766   1.182
 2909TIP3   OH2 8732   4.196   2.411   0.732
 2909TIP3    H1 8733   4.172   2.385   0.643
 2909TIP3    H2 8734   4.113   2.407   0.780
 2910TIP3   OH2 8735   6.328   4.367   3.247
 2910TIP3    H1 8736   6.410   4.379   3.296
 2910TIP3    H2 8737   6.275   4.310   3.302
 2911TIP3   OH2 8738   4.198   2.325   1.051
 2911TIP3    H1 8739   4.273   2.316   1.110
 2911TIP3    H2 8740   4.236   2.357   0.968
 2912TIP3   OH2 8741   1.918   3.946   3.617
 2912TIP3    H1 8742   1.866   3.892   3.676
 2912TIP3    H2 8743   1.939   4.025   3.668
 2913TIP3   OH2 8744   0.394   2.025   0.383
 2913TIP3    H1 8745   0.356   2.044   0.468
 2913TIP3    H2 8746   0.412   1.931   0.385
 2914TIP3   OH2 8747   4.895   4.933   4.685
 2914TIP3    H1 8748   4.923   4.903   4.772
 2914TIP3    H2 8749   4.808   4.894   4.674
 2915TIP3   OH2 8750   3.140   0.291   3.705
 2915TIP3    H1 8751   3.064   0.348   3.715
 2915TIP3    H2 8752   3.104   0.202   3.713
 2916TIP3   OH2 8753   5.875   0.169   3.561
 2916TIP3    H1 8754   5.857   0.244   3.505
 2916TIP3    H2 8755   5.905   0.208   3.644
 2917TIP3   OH2 8756   2.851   3.376   1.424
 2917TIP3    H1 8757   2.850   3.428   1.343
 2917TIP3    H2 8758   2.792   3.303   1.405
 2918TIP3   OH2 8759   4.916   5.253   0.847
 2918TIP3    H1 8760   4.876   5.242   0.760
 2918TIP3    H2 8761   4.892   5.342   0.873
 2919TIP3   OH2 8762   4.590   3.358   1.557
 2919TIP3    H1 8763   4.549   3.304   1.625
 2919TIP3    H2 8764   4.652   3.299   1.515
 2920TIP3   OH2 8765   2.883   2.060   0.265
 2920TIP3    H1 8766   2.925   1.995   0.322
 2920TIP3    H2 8767   2.929   2.142   0.283
 2921TIP3   OH2 8768   1.929   4.649   0.780
 2921TIP3    H1 8769   1.878   4.580   0.737
 2921TIP3    H2 8770   2.019   4.635   0.749
 2922TIP3   OH2 8771   0.987   3.418   2.657
 2922TIP3    H1 8772   0.918   3.484   2.661
 2922TIP3    H2 8773   1.026   3.430   2.570
 2923TIP3   OH2 8774   6.220   5.008   1.601
 2923TIP3    H1 8775   6.270   5.089   1.610
 2923TIP3    H2 8776   6.190   4.989   1.690
 2924TIP3   OH2 8777   5.790   3.415   3.142
 2924TIP3    H1 8778   5.746   3.454   3.067
 2924TIP3    H2 8779   5.793   3.484   3.208
 2925TIP3   OH2 8780   3.253   4.282   3.773
 2925TIP3    H1 8781   3.185   4.349   3.762
 2925TIP3    H2 8782   3.265   4.275   3.867
 2926TIP3   OH2 8783   3.116   4.919   1.874
 2926TIP3    H1 8784   3.058   4.875   1.936
 2926TIP3    H2 8785   3.182   4.853   1.853
 2927TIP3   OH2 8786   0.560   0.309   1.807
 2927TIP3    H1 8787   0.650   0.309   1.841
 2927TIP3    H2 8788   0.571   0.317   1.712
 2928TIP3   OH2 8789   1.707   5.159   2.389
 2928TIP3    H1 8790   1.670   5.226   2.332
 2928TIP3    H2 8791   1.692   5.191   2.478
 2929TIP3   OH2 8792   1.821   3.029   0.199
 2929TIP3    H1 8793   1.812   3.123   0.184
 2929TIP3    H2 8794   1.755   3.009   0.266
 2930TIP3   OH2 8795   2.998   5.805   0.818
 2930TIP3    H1 8796   2.946   5.855   0.881
 2930TIP3    H2 8797   3.043   5.871   0.765
 2931TIP3   OH2 8798   1.637   4.633   1.053
 2931TIP3    H1 8799   1.636   4.728   1.052
 2931TIP3    H2 8800   1.723   4.610   1.088
 2932TIP3   OH2 8801   3.606   5.363   0.678
 2932TIP3    H1 8802   3.514   5.352   0.702
 2932TIP3    H2 8803   3.635   5.439   0.728
 2933TIP3   OH2 8804   1.798   2.005   4.718
 2933TIP3    H1 8805   1.892   2.014   4.727
 2933TIP3    H2 8806   1.766   1.992   4.808
 2934TIP3   OH2 8807   1.518   2.483   2.000
 2934TIP3    H1 8808   1.434   2.456   1.963
 2934TIP3    H2 8809   1.499   2.568   2.041
 2935TIP3   OH2 8810   5.476   3.972   0.979
 2935TIP3    H1 8811   5.511   3.938   1.061
 2935TIP3    H2 8812   5.514   4.060   0.971
 2936TIP3   OH2 8813   6.040   5.581   1.222
 2936TIP3    H1 8814   6.091   5.547   1.148
 2936TIP3    H2 8815   6.098   5.644   1.265
 2937TIP3   OH2 8816   2.739   0.675   0.866
 2937TIP3    H1 8817   2.790   0.746   0.825
 2937TIP3    H2 8818   2.737   0.606   0.800
 2938TIP3   OH2 8819   2.374   4.614   2.778
 2938TIP3    H1 8820   2.454   4.572   2.809
 2938TIP3    H2 8821   2.391   4.708   2.786
 2939TIP3   OH2 8822   3.152   1.598   3.164
 2939TIP3    H1 8823   3.227   1.539   3.171
 2939TIP3    H2 8824   3.113   1.579   3.079
 2940TIP3   OH2 8825   0.545   1.872   1.431
 2940TIP3    H1 8826   0.492   1.926   1.489
 2940TIP3    H2 8827   0.625   1.923   1.417
 2941TIP3   OH2 8828   3.087   0.920   2.534
 2941TIP3    H1 8829   3.079   0.970   2.453
 2941TIP3    H2 8830   3.114   0.984   2.599
 2942TIP3   OH2 8831   0.597   5.402   2.963
 2942TIP3    H1 8832   0.625   5.475   3.017
 2942TIP3    H2 8833   0.543   5.441   2.894
 2943TIP3   OH2 8834   1.773   2.300   3.796
 2943TIP3    H1 8835   1.810   2.310   3.708
 2943TIP3    H2 8836   1.845   2.265   3.849
 2944TIP3   OH2 8837   2.538   5.228   0.951
 2944TIP3    H1 8838   2.492   5.283   1.014
 2944TIP3    H2 8839   2.614   5.194   1.000
 2945TIP3   OH2 8840   3.077   5.800   3.827
 2945TIP3    H1 8841   3.165   5.798   3.865
 2945TIP3    H2 8842   3.036   5.878   3.862
 2946TIP3   OH2 8843   5.043   3.689   0.689
 2946TIP3    H1 8844   5.063   3.731   0.773
 2946TIP3    H2 8845   4.988   3.614   0.712
 2947TIP3   OH2 8846   4.276   4.941   3.440
 2947TIP3    H1 8847   4.184   4.920   3.456
 2947TIP3    H2 8848   4.312   4.960   3.526
 2948TIP3   OH2 8849   1.685   4.293   1.716
 2948TIP3    H1 8850   1.595   4.308   1.745
 2948TIP3    H2 8851   1.736   4.363   1.756
 2949TIP3   OH2 8852   3.362   2.007   4.676
 2949TIP3    H1 8853   3.445   2.020   4.629
 2949TIP3    H2 8854   3.350   2.087   4.726
 2950TIP3   OH2 8855   6.073   0.707   2.378
 2950TIP3    H1 8856   5.992   0.739   2.338
 2950TIP3    H2 8857   6.061   0.723   2.472
 2951TIP3   OH2 8858   1.003   2.685   0.511
 2951TIP3    H1 8859   1.097   2.692   0.492
 2951TIP3    H2 8860   0.992   2.599   0.550
 2952TIP3   OH2 8861   5.109   1.025   1.190
 2952TIP3    H1 8862   5.078   1.115   1.181
 2952TIP3    H2 8863   5.188   1.022   1.137
 2953TIP3   OH2 8864   2.379   4.051   5.031
 2953TIP3    H1 8865   2.299   4.098   5.054
 2953TIP3    H2 8866   2.350   3.961   5.012
 2954TIP3   OH2 8867   3.045   3.282   2.614
 2954TIP3    H1 8868   3.040   3.344   2.542
 2954TIP3    H2 8869   2.953   3.269   2.641
 2955TIP3   OH2 8870   4.118   3.835   3.886
 2955TIP3    H1 8871   4.098   3.749   3.849
 2955TIP3    H2 8872   4.178   3.875   3.823
 2956TIP3   OH2 8873   0.088   2.377   4.085
 2956TIP3    H1 8874   0.088   2.445   4.017
 2956TIP3    H2 8875   0.085   2.294   4.037
 2957TIP3   OH2 8876   2.087   1.798   0.741
 2957TIP3    H1 8877   2.172   1.830   0.771
 2957TIP3    H2 8878   2.095   1.794   0.646
 2958TIP3   OH2 8879   2.834   1.277   4.953
 2958TIP3    H1 8880   2.872   1.190   4.945
 2958TIP3    H2 8881   2.910   1.335   4.961
 2959TIP3   OH2 8882   3.655   0.096   1.851
 2959TIP3    H1 8883   3.707   0.113   1.929
 2959TIP3    H2 8884   3.583   0.159   1.856
 2960TIP3   OH2 8885   3.413   5.552   4.169
 2960TIP3    H1 8886   3.424   5.459   4.185
 2960TIP3    H2 8887   3.500   5.590   4.184
 2961TIP3   OH2 8888   1.468   2.645   1.172
 2961TIP3    H1 8889   1.443   2.556   1.149
 2961TIP3    H2 8890   1.552   2.636   1.216
 2962TIP3   OH2 8891   3.431   4.666   4.499
 2962TIP3    H1 8892   3.505   4.645   4.442
 2962TIP3    H2 8893   3.355   4.667   4.440
 2963TIP3   OH2 8894   5.262   3.885   0.605
 2963TIP3    H1 8895   5.198   3.837   0.552
 2963TIP3    H2 8896   5.208   3.939   0.663
 2964TIP3   OH2 8897   2.377   2.475   5.054
 2964TIP3    H1 8898   2.365   2.544   5.118
 2964TIP3    H2 8899   2.326   2.401   5.088
 2965TIP3   OH2 8900   4.473   5.865   1.742
 2965TIP3    H1 8901   4.498   5.950   1.778
 2965TIP3    H2 8902   4.377   5.864   1.746
 2966TIP3   OH2 8903   3.448   5.298   3.060
 2966TIP3    H1 8904   3.516   5.363   3.043
 2966TIP3    H2 8905   3.489   5.237   3.122
 2967TIP3   OH2 8906   3.345   0.685   2.362
 2967TIP3    H1 8907   3.274   0.700   2.426
 2967TIP3    H2 8908   3.326   0.745   2.291
 2968TIP3   OH2 8909   2.669   4.743   3.464
 2968TIP3    H1 8910   2.754   4.770   3.430
 2968TIP3    H2 8911   2.662   4.785   3.549
 2969TIP3   OH2 8912   0.642   2.236   1.583
 2969TIP3    H1 8913   0.632   2.148   1.619
 2969TIP3    H2 8914   0.735   2.244   1.562
 2970TIP3   OH2 8915   2.870   1.439   2.255
 2970TIP3    H1 8916   2.774   1.443   2.257
 2970TIP3    H2 8917   2.892   1.365   2.311
 2971TIP3   OH2 8918   4.259   5.554   2.594
 2971TIP3    H1 8919   4.264   5.463   2.564
 2971TIP3    H2 8920   4.229   5.603   2.518
 2972TIP3   OH2 8921   1.739   2.623   3.604
 2972TIP3    H1 8922   1.643   2.614   3.600
 2972TIP3    H2 8923   1.756   2.653   3.693
 2973TIP3   OH2 8924   3.288   5.203   4.531
 2973TIP3    H1 8925   3.356   5.155   4.484
 2973TIP3    H2 8926   3.282   5.287   4.485
 2974TIP3   OH2 8927   4.157   0.864   0.235
 2974TIP3    H1 8928   4.171   0.773   0.210
 2974TIP3    H2 8929   4.076   0.890   0.191
 2975TIP3   OH2 8930   4.223   0.538   0.993
 2975TIP3    H1 8931   4.271   0.460   1.019
 2975TIP3    H2 8932   4.141   0.504   0.957
 2976TIP3   OH2 8933   4.708   5.748   1.194
 2976TIP3    H1 8934   4.716   5.658   1.225
 2976TIP3    H2 8935   4.660   5.793   1.264
 2977TIP3   OH2 8936   1.397   2.779   1.830
 2977TIP3    H1 8937   1.320   2.738   1.869
 2977TIP3    H2 8938   1.399   2.867   1.869
 2978TIP3   OH2 8939   5.405   0.365   4.233
 2978TIP3    H1 8940   5.473   0.421   4.196
 2978TIP3    H2 8941   5.323   0.402   4.199
 2979TIP3   OH2 8942   4.026   3.104   4.786
 2979TIP3    H1 8943   3.999   3.196   4.794
 2979TIP3    H2 8944   4.025   3.071   4.876
 2980TIP3   OH2 8945   1.878   3.862   1.487
 2980TIP3    H1 8946   1.940   3.905   1.428
 2980TIP3    H2 8947   1.803   3.840   1.430
 2981TIP3   OH2 8948   4.444   0.099   0.229
 2981TIP3    H1 8949   4.534   0.071   0.250
 2981TIP3    H2 8950   4.395   0.017   0.225
 2982TIP3   OH2 8951   5.244   1.762   2.817
 2982TIP3    H1 8952   5.175   1.828   2.806
 2982TIP3    H2 8953   5.214   1.709   2.891
 2983TIP3   OH2 8954   4.972   2.331   3.087
 2983TIP3    H1 8955   4.990   2.290   3.171
 2983TIP3    H2 8956   4.911   2.402   3.108
 2984TIP3   OH2 8957   4.422   1.836   1.059
 2984TIP3    H1 8958   4.376   1.920   1.058
 2984TIP3    H2 8959   4.394   1.791   0.979
 2985TIP3   OH2 8960   0.854   5.410   1.587
 2985TIP3    H1 8961   0.901   5.327   1.595
 2985TIP3    H2 8962   0.885   5.447   1.505
 2986TIP3   OH2 8963   3.225   3.236   3.263
 2986TIP3    H1 8964   3.256   3.282   3.341
 2986TIP3    H2 8965   3.227   3.143   3.288
 2987TIP3   OH2 8966   0.340   3.031   4.670
 2987TIP3    H1 8967   0.426   3.061   4.699
 2987TIP3    H2 8968   0.290   3.111   4.654
 2988TIP3   OH2 8969   3.731   2.661   4.953
 2988TIP3    H1 8970   3.790   2.594   4.918
 2988TIP3    H2 8971   3.670   2.612   5.009
 2989TIP3   OH2 8972   2.306   2.879   4.004
 2989TIP3    H1 8973   2.229   2.916   3.960
 2989TIP3    H2 8974   2.270   2.825   4.074
 2990TIP3   OH2 8975   2.551   2.934   3.794
 2990TIP3    H1 8976   2.638   2.903   3.770
 2990TIP3    H2 8977   2.559   2.957   3.887
 2991TIP3   OH2 8978   1.060   4.162   2.344
 2991TIP3    H1 8979   1.025   4.162   2.254
 2991TIP3    H2 8980   0.984   4.183   2.399
 2992TIP3   OH2 8981   0.781   3.299   1.882
 2992TIP3    H1 8982   0.862   3.338   1.914
 2992TIP3    H2 8983   0.808   3.245   1.807
 2993TIP3   OH2 8984   2.594   1.724   4.095
 2993TIP3    H1 8985   2.586   1.700   4.003
 2993TIP3    H2 8986   2.668   1.673   4.127
 2994TIP3   OH2 8987   3.036   1.386   2.672
 2994TIP3    H1 8988   3.060   1.296   2.695
 2994TIP3    H2 8989   2.954   1.377   2.623
 2995TIP3   OH2 8990   1.900   0.522   2.391
 2995TIP3    H1 8991   1.826   0.463   2.388
 2995TIP3    H2 8992   1.974   0.467   2.416
 2996TIP3   OH2 8993   1.240   4.753   4.025
 2996TIP3    H1 8994   1.284   4.791   4.102
 2996TIP3    H2 8995   1.309   4.702   3.982
 2997TIP3   OH2 8996   1.434   5.605   4.619
 2997TIP3    H1 8997   1.476   5.573   4.698
 2997TIP3    H2 8998   1.345   5.628   4.646
 2998TIP3   OH2 8999   4.601   3.865   1.288
 2998TIP3    H1 9000   4.638   3.950   1.313
 2998TIP3    H2 9001   4.592   3.870   1.193
 2999TIP3   OH2 9002   0.273   1.302   4.307
 2999TIP3    H1 9003   0.304   1.349   4.384
 2999TIP3    H2 9004   0.337   1.320   4.239
 3000TIP3   OH2 9005   1.064   3.620   5.142
 3000TIP3    H1 9006   1.022   3.632   5.057
 3000TIP3    H2 9007   1.022   3.683   5.200
 3001TIP3   OH2 9008   5.974   1.700   1.039
 3001TIP3    H1 9009   5.879   1.710   1.036
 3001TIP3    H2 9010   5.989   1.639   1.111
 3002TIP3   OH2 9011   6.198   0.683   0.997
 3002TIP3    H1 9012   6.290   0.684   0.971
 3002TIP3    H2 9013   6.150   0.699   0.916
 3003TIP3   OH2 9014   2.050   4.423   3.252
 3003TIP3    H1 9015   2.125   4.377   3.215
 3003TIP3    H2 9016   2.083   4.510   3.272
 3004TIP3   OH2 9017   5.318   4.993   4.274
 3004TIP3    H1 9018   5.388   4.933   4.248
 3004TIP3    H2 9019   5.258   4.940   4.325
 3005TIP3   OH2 9020   3.445   2.765   2.128
 3005TIP3    H1 9021   3.442   2.747   2.222
 3005TIP3    H2 9022   3.438   2.860   2.121
 3006TIP3   OH2 9023   2.428   0.848   1.969
 3006TIP3    H1 9024   2.353   0.879   2.020
 3006TIP3    H2 9025   2.442   0.758   2.000
 3007TIP3   OH2 9026   3.336   3.008   1.133
 3007TIP3    H1 9027   3.243   3.023   1.150
 3007TIP3    H2 9028   3.371   3.094   1.110
 3008TIP3   OH2 9029   2.864   5.098   0.239
 3008TIP3    H1 9030   2.919   5.153   0.183
 3008TIP3    H2 9031   2.794   5.156   0.268
 3009TIP3   OH2 9032   5.226   4.469   3.252
 3009TIP3    H1 9033   5.241   4.562   3.234
 3009TIP3    H2 9034   5.145   4.448   3.205
 3010TIP3   OH2 9035   5.345   2.534   4.997
 3010TIP3    H1 9036   5.378   2.606   5.051
 3010TIP3    H2 9037   5.268   2.570   4.953
 3011TIP3   OH2 9038   6.065   2.755   2.253
 3011TIP3    H1 9039   5.983   2.724   2.290
 3011TIP3    H2 9040   6.041   2.833   2.204
 3012TIP3   OH2 9041   3.244   4.995   3.093
 3012TIP3    H1 9042   3.173   4.950   3.047
 3012TIP3    H2 9043   3.242   5.084   3.059
 3013TIP3   OH2 9044   2.481   2.239   2.862
 3013TIP3    H1 9045   2.436   2.166   2.820
 3013TIP3    H2 9046   2.479   2.310   2.798
 3014TIP3   OH2 9047   5.954   3.541   4.304
 3014TIP3    H1 9048   5.863   3.533   4.276
 3014TIP3    H2 9049   5.996   3.595   4.237
 3015TIP3   OH2 9050   2.218   2.984   1.829
 3015TIP3    H1 9051   2.226   2.991   1.924
 3015TIP3    H2 9052   2.147   2.921   1.814
 3016TIP3   OH2 9053   0.874   4.709   0.324
 3016TIP3    H1 9054   0.913   4.795   0.335
 3016TIP3    H2 9055   0.787   4.727   0.289
 3017TIP3   OH2 9056   2.100   0.787   2.809
 3017TIP3    H1 9057   2.031   0.819   2.750
 3017TIP3    H2 9058   2.073   0.817   2.896
 3018TIP3   OH2 9059   0.031   1.980   4.365
 3018TIP3    H1 9060  -0.024   2.047   4.405
 3018TIP3    H2 9061   0.082   2.027   4.299
 3019TIP3   OH2 9062   2.161   0.010   2.735
 3019TIP3    H1 9063   2.103  -0.061   2.707
 3019TIP3    H2 9064   2.105   0.088   2.736
 3020TIP3   OH2 9065   3.984   0.857   0.909
 3020TIP3    H1 9066   3.899   0.901   0.910
 3020TIP3    H2 9067   4.017   0.870   0.820
 3021TIP3   OH2 9068   1.074   2.254   1.889
 3021TIP3    H1 9069   1.061   2.329   1.946
 3021TIP3    H2 9070   1.130   2.195   1.939
 3022TIP3   OH2 9071   4.944  -0.002   4.664
 3022TIP3    H1 9072   4.943  -0.020   4.758
 3022TIP3    H2 9073   4.859   0.037   4.646
 3023TIP3   OH2 9074   5.176   2.937   1.049
 3023TIP3    H1 9075   5.201   2.946   0.957
 3023TIP3    H2 9076   5.181   2.843   1.066
 3024TIP3   OH2 9077   2.610   4.256   1.331
 3024TIP3    H1 9078   2.696   4.262   1.372
 3024TIP3    H2 9079   2.609   4.169   1.290
 3025TIP3   OH2 9080   5.722   3.422   3.905
 3025TIP3    H1 9081   5.765   3.355   3.958
 3025TIP3    H2 9082   5.677   3.477   3.969
 3026TIP3   OH2 9083   2.920   4.560   1.967
 3026TIP3    H1 9084   2.905   4.468   1.988
 3026TIP3    H2 9085   3.006   4.563   1.927
 3027TIP3   OH2 9086   3.900   3.827   2.052
 3027TIP3    H1 9087   3.943   3.885   1.989
 3027TIP3    H2 9088   3.819   3.873   2.076
 3028TIP3   OH2 9089   2.911   0.407   2.483
 3028TIP3    H1 9090   2.992   0.362   2.459
 3028TIP3    H2 9091   2.932   0.500   2.472
 3029TIP3   OH2 9092   4.314   1.775   4.071
 3029TIP3    H1 9093   4.379   1.707   4.057
 3029TIP3    H2 9094   4.233   1.739   4.035
 3030TIP3   OH2 9095   0.576   4.100   0.661
 3030TIP3    H1 9096   0.545   4.020   0.618
 3030TIP3    H2 9097   0.511   4.118   0.729
 3031TIP3   OH2 9098   5.035   3.930   3.968
 3031TIP3    H1 9099   5.055   3.931   3.875
 3031TIP3    H2 9100   5.110   3.973   4.009
 3032TIP3   OH2 9101   5.793   0.621   2.602
 3032TIP3    H1 9102   5.726   0.556   2.578
 3032TIP3    H2 9103   5.746   0.686   2.654
 3033TIP3   OH2 9104   4.009   2.024   1.605
 3033TIP3    H1 9105   3.918   2.027   1.574
 3033TIP3    H2 9106   4.006   2.064   1.692
 3034TIP3   OH2 9107   0.244   0.794   4.074
 3034TIP3    H1 9108   0.330   0.810   4.114
 3034TIP3    H2 9109   0.183   0.843   4.130
 3035TIP3   OH2 9110   3.509   2.604   3.936
 3035TIP3    H1 9111   3.498   2.546   4.010
 3035TIP3    H2 9112   3.570   2.671   3.966
 3036TIP3   OH2 9113   0.312   0.641   3.864
 3036TIP3    H1 9114   0.308   0.712   3.929
 3036TIP3    H2 9115   0.222   0.609   3.857
 3037TIP3   OH2 9116   3.458   2.100   0.502
 3037TIP3    H1 9117   3.404   2.055   0.436
 3037TIP3    H2 9118   3.500   2.171   0.454
 3038TIP3   OH2 9119   5.513   2.006   0.698
 3038TIP3    H1 9120   5.473   2.001   0.611
 3038TIP3    H2 9121   5.464   1.943   0.750
 3039TIP3   OH2 9122   5.706   5.351   1.447
 3039TIP3    H1 9123   5.788   5.352   1.397
 3039TIP3    H2 9124   5.642   5.392   1.390
 3040TIP3   OH2 9125   2.401   0.251   1.201
 3040TIP3    H1 9126   2.422   0.276   1.111
 3040TIP3    H2 9127   2.307   0.236   1.201
 3041TIP3   OH2 9128   1.156   3.893   2.181
 3041TIP3    H1 9129   1.154   3.859   2.270
 3041TIP3    H2 9130   1.114   3.825   2.128
 3042TIP3   OH2 9131   0.258   3.643   0.314
 3042TIP3    H1 9132   0.320   3.581   0.275
 3042TIP3    H2 9133   0.189   3.651   0.248
 3043TIP3   OH2 9134   2.148   0.545   2.015
 3043TIP3    H1 9135   2.122   0.453   2.012
 3043TIP3    H2 9136   2.130   0.572   2.105
 3044TIP3   OH2 9137   4.729   2.868   2.620
 3044TIP3    H1 9138   4.704   2.936   2.683
 3044TIP3    H2 9139   4.651   2.857   2.565
 3045TIP3   OH2 9140   5.823   3.972   1.382
 3045TIP3    H1 9141   5.831   3.878   1.367
 3045TIP3    H2 9142   5.887   4.011   1.322
 3046TIP3   OH2 9143   2.394   5.664   4.104
 3046TIP3    H1 9144   2.426   5.666   4.014
 3046TIP3    H2 9145   2.449   5.728   4.150
 3047TIP3   OH2 9146   2.724   3.214   3.119
 3047TIP3    H1 9147   2.666   3.248   3.187
 3047TIP3    H2 9148   2.669   3.157   3.066
 3048TIP3   OH2 9149   0.995   2.837   1.676
 3048TIP3    H1 9150   1.026   2.927   1.688
 3048TIP3    H2 9151   0.900   2.844   1.678
 3049TIP3   OH2 9152   3.632   1.988   1.246
 3049TIP3    H1 9153   3.634   2.036   1.163
 3049TIP3    H2 9154   3.595   1.903   1.223
 3050TIP3   OH2 9155   4.864   1.007   4.575
 3050TIP3    H1 9156   4.788   0.953   4.596
 3050TIP3    H2 9157   4.830   1.077   4.520
 3051TIP3   OH2 9158   6.193   5.780   0.220
 3051TIP3    H1 9159   6.151   5.804   0.137
 3051TIP3    H2 9160   6.225   5.863   0.255
 3052TIP3   OH2 9161   0.272   2.285   2.135
 3052TIP3    H1 9162   0.359   2.277   2.175
 3052TIP3    H2 9163   0.272   2.372   2.097
 3053TIP3   OH2 9164   5.376   5.231   4.140
 3053TIP3    H1 9165   5.369   5.168   4.212
 3053TIP3    H2 9166   5.313   5.200   4.075
 3054TIP3   OH2 9167   1.141   2.465   3.989
 3054TIP3    H1 9168   1.175   2.511   3.912
 3054TIP3    H2 9169   1.083   2.398   3.953
 3055TIP3   OH2 9170   4.748   5.238   3.979
 3055TIP3    H1 9171   4.829   5.207   4.020
 3055TIP3    H2 9172   4.725   5.317   4.028
 3056TIP3   OH2 9173   4.971   5.658   2.641
 3056TIP3    H1 9174   5.024   5.653   2.561
 3056TIP3    H2 9175   4.918   5.579   2.641
 3057TIP3   OH2 9176   4.621   5.932   4.711
 3057TIP3    H1 9177   4.591   5.998   4.774
 3057TIP3    H2 9178   4.652   5.860   4.765
 3058TIP3   OH2 9179   5.869   5.332   4.140
 3058TIP3    H1 9180   5.903   5.248   4.107
 3058TIP3    H2 9181   5.823   5.309   4.220
 3059TIP3   OH2 9182   5.414   0.124   5.141
 3059TIP3    H1 9183   5.486   0.063   5.123
 3059TIP3    H2 9184   5.347   0.101   5.077
 3060TIP3   OH2 9185   5.080   4.718   0.528
 3060TIP3    H1 9186   5.162   4.679   0.497
 3060TIP3    H2 9187   5.025   4.722   0.450
 3061TIP3   OH2 9188   1.652   5.437   1.257
 3061TIP3    H1 9189   1.604   5.418   1.177
 3061TIP3    H2 9190   1.695   5.355   1.280
 3062TIP3   OH2 9191   3.846   3.343   1.723
 3062TIP3    H1 9192   3.854   3.431   1.760
 3062TIP3    H2 9193   3.777   3.302   1.774
 3063TIP3   OH2 9194   1.097   2.222   3.854
 3063TIP3    H1 9195   1.037   2.241   3.782
 3063TIP3    H2 9196   1.082   2.129   3.873
 3064TIP3   OH2 9197   1.474   4.394   4.150
 3064TIP3    H1 9198   1.499   4.412   4.240
 3064TIP3    H2 9199   1.557   4.372   4.106
 3065TIP3   OH2 9200   4.943   5.082   3.411
 3065TIP3    H1 9201   4.994   5.091   3.331
 3065TIP3    H2 9202   4.867   5.139   3.399
 3066TIP3   OH2 9203   0.574   3.642   1.052
 3066TIP3    H1 9204   0.561   3.737   1.055
 3066TIP3    H2 9205   0.638   3.624   1.120
 3067TIP3   OH2 9206   2.615   3.648   0.417
 3067TIP3    H1 9207   2.700   3.657   0.460
 3067TIP3    H2 9208   2.607   3.728   0.364
 3068TIP3   OH2 9209   5.927   1.972   4.497
 3068TIP3    H1 9210   5.956   2.034   4.430
 3068TIP3    H2 9211   5.904   2.026   4.572
 3069TIP3   OH2 9212   5.709   0.247   0.532
 3069TIP3    H1 9213   5.744   0.332   0.504
 3069TIP3    H2 9214   5.684   0.203   0.450
 3070TIP3   OH2 9215   1.361   2.146   4.836
 3070TIP3    H1 9216   1.359   2.185   4.748
 3070TIP3    H2 9217   1.358   2.052   4.820
 3071TIP3   OH2 9218   2.811   2.325   1.058
 3071TIP3    H1 9219   2.900   2.347   1.030
 3071TIP3    H2 9220   2.821   2.293   1.147
 3072TIP3   OH2 9221   5.348   2.257   4.127
 3072TIP3    H1 9222   5.312   2.227   4.211
 3072TIP3    H2 9223   5.443   2.257   4.141
 3073TIP3   OH2 9224   2.854   3.479   1.164
 3073TIP3    H1 9225   2.787   3.547   1.153
 3073TIP3    H2 9226   2.936   3.528   1.174
 3074TIP3   OH2 9227   1.683   4.333   2.839
 3074TIP3    H1 9228   1.732   4.362   2.763
 3074TIP3    H2 9229   1.685   4.407   2.899
 3075TIP3   OH2 9230   3.477   4.980   4.955
 3075TIP3    H1 9231   3.407   5.039   4.982
 3075TIP3    H2 9232   3.444   4.937   4.876
 3076TIP3   OH2 9233   2.143   0.250   4.183
 3076TIP3    H1 9234   2.130   0.328   4.129
 3076TIP3    H2 9235   2.102   0.179   4.132
 3077TIP3   OH2 9236   1.815   4.149   0.832
 3077TIP3    H1 9237   1.845   4.094   0.905
 3077TIP3    H2 9238   1.851   4.235   0.851
 3078TIP3   OH2 9239   0.230   3.788   3.585
 3078TIP3    H1 9240   0.277   3.864   3.617
 3078TIP3    H2 9241   0.141   3.820   3.569
 3079TIP3   OH2 9242   1.833   2.392   2.553
 3079TIP3    H1 9243   1.886   2.338   2.494
 3079TIP3    H2 9244   1.783   2.329   2.605
 3080TIP3   OH2 9245   0.503   4.778   3.924
 3080TIP3    H1 9246   0.479   4.705   3.867
 3080TIP3    H2 9247   0.594   4.761   3.948
 3081TIP3   OH2 9248   5.683   0.559   0.218
 3081TIP3    H1 9249   5.717   0.649   0.209
 3081TIP3    H2 9250   5.681   0.544   0.312
 3082TIP3   OH2 9251   3.363   1.385   4.191
 3082TIP3    H1 9252   3.386   1.299   4.157
 3082TIP3    H2 9253   3.306   1.367   4.266
 3083TIP3   OH2 9254   2.279   1.472   3.715
 3083TIP3    H1 9255   2.352   1.411   3.725
 3083TIP3    H2 9256   2.233   1.468   3.799
 3084TIP3   OH2 9257   0.563   2.706   1.973
 3084TIP3    H1 9258   0.652   2.683   1.998
 3084TIP3    H2 9259   0.513   2.626   1.989
 3085TIP3   OH2 9260   0.286   4.526   1.444
 3085TIP3    H1 9261   0.285   4.620   1.429
 3085TIP3    H2 9262   0.310   4.516   1.536
 3086TIP3   OH2 9263   4.628   4.640   0.195
 3086TIP3    H1 9264   4.649   4.686   0.277
 3086TIP3    H2 9265   4.565   4.573   0.221
 3087TIP3   OH2 9266   5.285   5.091   5.092
 3087TIP3    H1 9267   5.325   5.118   5.009
 3087TIP3    H2 9268   5.203   5.140   5.096
 3088TIP3   OH2 9269   4.361   1.088   1.707
 3088TIP3    H1 9270   4.437   1.035   1.683
 3088TIP3    H2 9271   4.286   1.030   1.689
 3089TIP3   OH2 9272   3.705   1.739   0.879
 3089TIP3    H1 9273   3.707   1.644   0.871
 3089TIP3    H2 9274   3.623   1.765   0.837
 3090TIP3   OH2 9275   3.487   0.529   2.170
 3090TIP3    H1 9276   3.455   0.568   2.251
 3090TIP3    H2 9277   3.581   0.548   2.168
 3091TIP3   OH2 9278   4.051   3.036   3.809
 3091TIP3    H1 9279   3.975   3.021   3.754
 3091TIP3    H2 9280   4.026   3.110   3.865
 3092TIP3   OH2 9281   3.490   5.458   3.653
 3092TIP3    H1 9282   3.575   5.461   3.697
 3092TIP3    H2 9283   3.467   5.550   3.638
 3093TIP3   OH2 9284   3.036   4.105   2.350
 3093TIP3    H1 9285   3.100   4.147   2.407
 3093TIP3    H2 9286   3.088   4.062   2.282
 3094TIP3   OH2 9287   3.334   1.217   3.245
 3094TIP3    H1 9288   3.267   1.172   3.297
 3094TIP3    H2 9289   3.400   1.244   3.308
 3095TIP3   OH2 9290   2.296   1.214   0.722
 3095TIP3    H1 9291   2.386   1.241   0.708
 3095TIP3    H2 9292   2.245   1.294   0.712
 3096TIP3   OH2 9293   4.279   4.531   2.149
 3096TIP3    H1 9294   4.372   4.546   2.165
 3096TIP3    H2 9295   4.238   4.538   2.235
 3097TIP3   OH2 9296   3.708   0.829   1.595
 3097TIP3    H1 9297   3.801   0.835   1.575
 3097TIP3    H2 9298   3.683   0.740   1.570
 3098TIP3   OH2 9299   0.990   1.768   3.558
 3098TIP3    H1 9300   1.084   1.776   3.544
 3098TIP3    H2 9301   0.952   1.779   3.471
 3099TIP3   OH2 9302   0.375   5.421   2.415
 3099TIP3    H1 9303   0.324   5.463   2.346
 3099TIP3    H2 9304   0.461   5.406   2.375
 3100TIP3   OH2 9305   6.135   5.811   0.673
 3100TIP3    H1 9306   6.107   5.784   0.761
 3100TIP3    H2 9307   6.162   5.730   0.631
 3101TIP3   OH2 9308   5.882   1.719   0.734
 3101TIP3    H1 9309   5.946   1.751   0.671
 3101TIP3    H2 9310   5.927   1.725   0.819
 3102TIP3   OH2 9311   3.350   5.413   1.377
 3102TIP3    H1 9312   3.418   5.432   1.442
 3102TIP3    H2 9313   3.354   5.318   1.365
 3103TIP3   OH2 9314   2.673   0.794   3.009
 3103TIP3    H1 9315   2.657   0.880   2.969
 3103TIP3    H2 9316   2.693   0.814   3.101
 3104TIP3   OH2 9317   4.788   4.297   3.094
 3104TIP3    H1 9318   4.838   4.371   3.129
 3104TIP3    H2 9319   4.855   4.239   3.057
 3105TIP3   OH2 9320   3.569   1.846   1.652
 3105TIP3    H1 9321   3.575   1.761   1.697
 3105TIP3    H2 9322   3.477   1.852   1.627
 3106TIP3   OH2 9323   1.928   1.738   4.067
 3106TIP3    H1 9324   1.941   1.785   3.984
 3106TIP3    H2 9325   1.995   1.775   4.125
 3107TIP3   OH2 9326   1.088   1.501   2.856
 3107TIP3    H1 9327   1.163   1.441   2.854
 3107TIP3    H2 9328   1.121   1.578   2.901
 3108TIP3   OH2 9329   0.817   0.376   1.911
 3108TIP3    H1 9330   0.822   0.471   1.898
 3108TIP3    H2 9331   0.905   0.345   1.892
 3109TIP3   OH2 9332   6.039   2.906   1.650
 3109TIP3    H1 9333   6.081   2.945   1.574
 3109TIP3    H2 9334   5.996   2.827   1.616
 3110TIP3   OH2 9335   0.908   1.450   1.500
 3110TIP3    H1 9336   0.989   1.400   1.502
 3110TIP3    H2 9337   0.848   1.395   1.449
 3111TIP3   OH2 9338   3.297   5.341   1.795
 3111TIP3    H1 9339   3.245   5.361   1.717
 3111TIP3    H2 9340   3.235   5.350   1.868
 3112TIP3   OH2 9341   2.203   2.994   1.082
 3112TIP3    H1 9342   2.231   2.903   1.088
 3112TIP3    H2 9343   2.107   2.989   1.083
 3113TIP3   OH2 9344   1.915   1.763   2.295
 3113TIP3    H1 9345   1.903   1.711   2.375
 3113TIP3    H2 9346   1.828   1.794   2.273
 3114TIP3   OH2 9347   6.299   3.646   0.777
 3114TIP3    H1 9348   6.218   3.655   0.827
 3114TIP3    H2 9349   6.273   3.605   0.695
 3115TIP3   OH2 9350   6.124   5.900   2.091
 3115TIP3    H1 9351   6.218   5.908   2.079
 3115TIP3    H2 9352   6.094   5.991   2.103
 3116TIP3   OH2 9353   0.271   0.591   1.332
 3116TIP3    H1 9354   0.364   0.598   1.313
 3116TIP3    H2 9355   0.240   0.521   1.275
 3117TIP3   OH2 9356   4.520   2.977   4.467
 3117TIP3    H1 9357   4.499   3.024   4.548
 3117TIP3    H2 9358   4.594   3.026   4.430
 3118TIP3   OH2 9359   0.569   2.542   4.412
 3118TIP3    H1 9360   0.495   2.592   4.378
 3118TIP3    H2 9361   0.606   2.597   4.481
 3119TIP3   OH2 9362   5.597   5.298   2.393
 3119TIP3    H1 9363   5.606   5.379   2.443
 3119TIP3    H2 9364   5.504   5.275   2.401
 3120TIP3   OH2 9365   4.037   0.984   4.995
 3120TIP3    H1 9366   4.031   0.971   4.901
 3120TIP3    H2 9367   4.109   1.044   5.007
 3121TIP3   OH2 9368   4.294   4.880   2.777
 3121TIP3    H1 9369   4.235   4.804   2.773
 3121TIP3    H2 9370   4.349   4.863   2.854
 3122TIP3   OH2 9371   5.667   5.838   5.140
 3122TIP3    H1 9372   5.596   5.892   5.175
 3122TIP3    H2 9373   5.630   5.750   5.135
 3123TIP3   OH2 9374   2.936   4.014   4.063
 3123TIP3    H1 9375   3.017   3.967   4.083
 3123TIP3    H2 9376   2.930   4.081   4.131
 3124TIP3   OH2 9377   3.839   2.205   1.269
 3124TIP3    H1 9378   3.920   2.202   1.219
 3124TIP3    H2 9379   3.770   2.192   1.203
 3125TIP3   OH2 9380   0.072   2.793   3.660
 3125TIP3    H1 9381   0.010   2.735   3.704
 3125TIP3    H2 9382   0.127   2.827   3.730
 3126TIP3   OH2 9383   4.053   3.354   2.252
 3126TIP3    H1 9384   4.013   3.439   2.232
 3126TIP3    H2 9385   4.025   3.297   2.181
 3127TIP3   OH2 9386   2.686   5.548   2.222
 3127TIP3    H1 9387   2.611   5.544   2.281
 3127TIP3    H2 9388   2.651   5.520   2.137
 3128TIP3   OH2 9389   3.813   4.850   4.747
 3128TIP3    H1 9390   3.795   4.899   4.827
 3128TIP3    H2 9391   3.779   4.762   4.764
 3129TIP3   OH2 9392   3.887   2.424   0.575
 3129TIP3    H1 9393   3.901   2.386   0.662
 3129TIP3    H2 9394   3.813   2.483   0.586
 3130TIP3   OH2 9395   4.643   4.017   0.573
 3130TIP3    H1 9396   4.733   3.990   0.555
 3130TIP3    H2 9397   4.641   4.034   0.667
 3131TIP3   OH2 9398   2.235   2.891   2.090
 3131TIP3    H1 9399   2.235   2.803   2.129
 3131TIP3    H2 9400   2.189   2.945   2.154
 3132TIP3   OH2 9401   5.384   3.157   1.453
 3132TIP3    H1 9402   5.312   3.192   1.506
 3132TIP3    H2 9403   5.405   3.073   1.494
 3133TIP3   OH2 9404   1.835   5.143   3.592
 3133TIP3    H1 9405   1.874   5.174   3.674
 3133TIP3    H2 9406   1.847   5.048   3.594
 3134TIP3   OH2 9407   6.137   4.506   4.739
 3134TIP3    H1 9408   6.045   4.501   4.714
 3134TIP3    H2 9409   6.166   4.415   4.744
 3135TIP3   OH2 9410   0.675   0.047   0.281
 3135TIP3    H1 9411   0.653  -0.028   0.337
 3135TIP3    H2 9412   0.606   0.111   0.299
 3136TIP3   OH2 9413   2.491   3.994   3.166
 3136TIP3    H1 9414   2.445   3.967   3.245
 3136TIP3    H2 9415   2.566   4.044   3.198
 3137TIP3   OH2 9416   4.356   3.240   2.955
 3137TIP3    H1 9417   4.345   3.303   3.026
 3137TIP3    H2 9418   4.322   3.284   2.878
 3138TIP3   OH2 9419   4.055   2.774   0.577
 3138TIP3    H1 9420   4.049   2.852   0.522
 3138TIP3    H2 9421   4.037   2.702   0.517
 3139TIP3   OH2 9422   4.565   4.872   4.643
 3139TIP3    H1 9423   4.482   4.833   4.615
 3139TIP3    H2 9424   4.540   4.955   4.684
 3140TIP3   OH2 9425   3.925   0.231   5.089
 3140TIP3    H1 9426   3.949   0.143   5.118
 3140TIP3    H2 9427   3.982   0.248   5.014
 3141TIP3   OH2 9428   3.007   0.109   3.819
 3141TIP3    H1 9429   2.978   0.021   3.845
 3141TIP3    H2 9430   3.018   0.156   3.902
 3142TIP3   OH2 9431   4.155   2.669   1.647
 3142TIP3    H1 9432   4.126   2.757   1.672
 3142TIP3    H2 9433   4.118   2.612   1.714
 3143TIP3   OH2 9434   1.265   2.619   0.400
 3143TIP3    H1 9435   1.299   2.697   0.357
 3143TIP3    H2 9436   1.321   2.607   0.476
 3144TIP3   OH2 9437   2.661   1.222   0.036
 3144TIP3    H1 9438   2.675   1.237  -0.058
 3144TIP3    H2 9439   2.636   1.130   0.042
 3145TIP3   OH2 9440   5.930   0.949   4.743
 3145TIP3    H1 9441   5.937   0.964   4.837
 3145TIP3    H2 9442   5.841   0.918   4.730
 3146TIP3   OH2 9443   0.676   2.105   3.249
 3146TIP3    H1 9444   0.673   2.067   3.161
 3146TIP3    H2 9445   0.644   2.035   3.306
 3147TIP3   OH2 9446   1.027   5.012   5.101
 3147TIP3    H1 9447   1.079   5.073   5.048
 3147TIP3    H2 9448   1.024   5.053   5.188
 3148TIP3   OH2 9449   2.276   3.249   2.678
 3148TIP3    H1 9450   2.313   3.161   2.687
 3148TIP3    H2 9451   2.346   3.301   2.639
 3149TIP3   OH2 9452   3.076   0.867   1.087
 3149TIP3    H1 9453   3.008   0.804   1.111
 3149TIP3    H2 9454   3.147   0.849   1.149
 3150TIP3   OH2 9455   0.686   0.293   1.225
 3150TIP3    H1 9456   0.619   0.347   1.184
 3150TIP3    H2 9457   0.699   0.220   1.163
 3151TIP3   OH2 9458   0.944   4.055   2.981
 3151TIP3    H1 9459   0.870   4.071   2.923
 3151TIP3    H2 9460   1.021   4.060   2.925
 3152TIP3   OH2 9461   1.494   2.247   1.714
 3152TIP3    H1 9462   1.422   2.308   1.699
 3152TIP3    H2 9463   1.513   2.210   1.628
 3153TIP3   OH2 9464   0.197   4.269   3.909
 3153TIP3    H1 9465   0.117   4.257   3.961
 3153TIP3    H2 9466   0.167   4.272   3.818
 3154TIP3   OH2 9467   5.109   4.196   4.648
 3154TIP3    H1 9468   5.187   4.145   4.626
 3154TIP3    H2 9469   5.130   4.237   4.732
 3155TIP3   OH2 9470   5.485   3.484   4.698
 3155TIP3    H1 9471   5.467   3.425   4.625
 3155TIP3    H2 9472   5.573   3.460   4.727
 3156TIP3   OH2 9473   5.811   0.902   0.673
 3156TIP3    H1 9474   5.729   0.951   0.681
 3156TIP3    H2 9475   5.842   0.892   0.763
 3157TIP3   OH2 9476   6.294   2.688   4.721
 3157TIP3    H1 9477   6.334   2.612   4.763
 3157TIP3    H2 9478   6.299   2.758   4.786
 3158TIP3   OH2 9479   0.668   0.573   4.043
 3158TIP3    H1 9480   0.633   0.522   3.969
 3158TIP3    H2 9481   0.637   0.527   4.121
 3159TIP3   OH2 9482   3.258   5.147   5.014
 3159TIP3    H1 9483   3.181   5.104   5.051
 3159TIP3    H2 9484   3.223   5.200   4.942
 3160TIP3   OH2 9485   0.562   2.068   4.576
 3160TIP3    H1 9486   0.499   2.028   4.636
 3160TIP3    H2 9487   0.591   1.996   4.521
 3161TIP3   OH2 9488   4.288   4.716   4.671
 3161TIP3    H1 9489   4.207   4.766   4.673
 3161TIP3    H2 9490   4.326   4.727   4.758
 3162TIP3   OH2 9491   3.394   0.248   4.681
 3162TIP3    H1 9492   3.368   0.253   4.773
 3162TIP3    H2 9493   3.317   0.213   4.636
 3163TIP3   OH2 9494   2.437   2.133   1.634
 3163TIP3    H1 9495   2.444   2.096   1.721
 3163TIP3    H2 9496   2.520   2.114   1.592
 3164TIP3   OH2 9497   0.258   4.732   2.768
 3164TIP3    H1 9498   0.229   4.706   2.856
 3164TIP3    H2 9499   0.182   4.775   2.729
 3165TIP3   OH2 9500   4.396   0.351   1.728
 3165TIP3    H1 9501   4.386   0.284   1.661
 3165TIP3    H2 9502   4.307   0.370   1.757
 3166TIP3   OH2 9503   5.153   2.346   2.031
 3166TIP3    H1 9504   5.208   2.295   1.970
 3166TIP3    H2 9505   5.064   2.314   2.015
 3167TIP3   OH2 9506   2.600   3.332   3.340
 3167TIP3    H1 9507   2.636   3.421   3.338
 3167TIP3    H2 9508   2.594   3.311   3.433
 3168TIP3   OH2 9509   0.203   1.649   4.694
 3168TIP3    H1 9510   0.116   1.688   4.683
 3168TIP3    H2 9511   0.264   1.718   4.666
 3169TIP3   OH2 9512   0.732   1.877   0.326
 3169TIP3    H1 9513   0.777   1.962   0.330
 3169TIP3    H2 9514   0.654   1.894   0.273
 3170TIP3   OH2 9515   2.825   3.713   2.363
 3170TIP3    H1 9516   2.846   3.694   2.454
 3170TIP3    H2 9517   2.730   3.723   2.361
 3171TIP3   OH2 9518   1.232   2.837   2.584
 3171TIP3    H1 9519   1.165   2.870   2.525
 3171TIP3    H2 9520   1.186   2.774   2.640
 3172TIP3   OH2 9521   3.390   4.450   0.450
 3172TIP3    H1 9522   3.414   4.468   0.359
 3172TIP3    H2 9523   3.342   4.528   0.479
 3173TIP3   OH2 9524   4.784   5.906   0.587
 3173TIP3    H1 9525   4.788   5.979   0.650
 3173TIP3    H2 9526   4.737   5.837   0.634
 3174TIP3   OH2 9527   5.079   4.702   4.273
 3174TIP3    H1 9528   5.108   4.775   4.328
 3174TIP3    H2 9529   5.148   4.637   4.282
 3175TIP3   OH2 9530   3.391   2.560   4.832
 3175TIP3    H1 9531   3.468   2.508   4.807
 3175TIP3    H2 9532   3.328   2.495   4.864
 3176TIP3   OH2 9533   3.804   0.133   4.656
 3176TIP3    H1 9534   3.886   0.085   4.646
 3176TIP3    H2 9535   3.736   0.069   4.637
 3177TIP3   OH2 9536   4.293   5.351   1.371
 3177TIP3    H1 9537   4.345   5.375   1.294
 3177TIP3    H2 9538   4.249   5.432   1.396
 3178TIP3   OH2 9539   5.855   1.221   1.188
 3178TIP3    H1 9540   5.778   1.198   1.239
 3178TIP3    H2 9541   5.837   1.308   1.154
 3179TIP3   OH2 9542   3.103   2.386   1.232
 3179TIP3    H1 9543   3.034   2.323   1.254
 3179TIP3    H2 9544   3.181   2.354   1.278
 3180TIP3   OH2 9545   5.911   2.891   1.209
 3180TIP3    H1 9546   5.908   2.986   1.208
 3180TIP3    H2 9547   5.825   2.863   1.177
 3181TIP3   OH2 9548   2.046   5.161   4.528
 3181TIP3    H1 9549   2.077   5.247   4.558
 3181TIP3    H2 9550   2.112   5.132   4.466
 3182TIP3   OH2 9551   5.696   3.155   2.202
 3182TIP3    H1 9552   5.612   3.182   2.167
 3182TIP3    H2 9553   5.733   3.234   2.240
 3183TIP3   OH2 9554   2.147   0.252   3.070
 3183TIP3    H1 9555   2.241   0.235   3.064
 3183TIP3    H2 9556   2.132   0.325   3.010
 3184TIP3   OH2 9557   2.360   5.457   0.207
 3184TIP3    H1 9558   2.355   5.507   0.126
 3184TIP3    H2 9559   2.335   5.519   0.276
 3185TIP3   OH2 9560   1.994   2.098   1.921
 3185TIP3    H1 9561   2.065   2.148   1.881
 3185TIP3    H2 9562   2.027   2.076   2.008
 3186TIP3   OH2 9563   6.084   2.827   0.312
 3186TIP3    H1 9564   6.137   2.754   0.344
 3186TIP3    H2 9565   6.023   2.788   0.250
 3187TIP3   OH2 9566   0.789   0.701   5.159
 3187TIP3    H1 9567   0.706   0.726   5.119
 3187TIP3    H2 9568   0.827   0.783   5.191
 3188TIP3   OH2 9569   1.349   1.919   3.774
 3188TIP3    H1 9570   1.438   1.884   3.782
 3188TIP3    H2 9571   1.305   1.860   3.714
 3189TIP3   OH2 9572   5.514   0.126   1.617
 3189TIP3    H1 9573   5.589   0.148   1.562
 3189TIP3    H2 9574   5.508   0.197   1.680
 3190TIP3   OH2 9575   0.557   1.789   2.731
 3190TIP3    H1 9576   0.474   1.741   2.741
 3190TIP3    H2 9577   0.531   1.876   2.703
 3191TIP3   OH2 9578   5.407   1.779   4.765
 3191TIP3    H1 9579   5.464   1.749   4.837
 3191TIP3    H2 9580   5.457   1.849   4.723
 3192TIP3   OH2 9581   5.932   2.413   2.494
 3192TIP3    H1 9582   5.938   2.416   2.590
 3192TIP3    H2 9583   6.022   2.396   2.465
 3193TIP3   OH2 9584   3.224   2.447   4.506
 3193TIP3    H1 9585   3.177   2.414   4.582
 3193TIP3    H2 9586   3.190   2.396   4.433
 3194TIP3   OH2 9587   0.558   0.292   3.725
 3194TIP3    H1 9588   0.542   0.257   3.813
 3194TIP3    H2 9589   0.525   0.225   3.666
 3195TIP3   OH2 9590   1.531   3.387   3.855
 3195TIP3    H1 9591   1.476   3.326   3.903
 3195TIP3    H2 9592   1.474   3.461   3.835
 3196TIP3   OH2 9593   1.046   2.297   0.561
 3196TIP3    H1 9594   0.990   2.297   0.483
 3196TIP3    H2 9595   1.000   2.242   0.624
 3197TIP3   OH2 9596   0.758   4.148   3.897
 3197TIP3    H1 9597   0.830   4.087   3.917
 3197TIP3    H2 9598   0.679   4.097   3.910
 3198TIP3   OH2 9599   1.431   1.776   5.053
 3198TIP3    H1 9600   1.490   1.760   4.979
 3198TIP3    H2 9601   1.474   1.735   5.128
 3199TIP3   OH2 9602   1.592   4.113   1.218
 3199TIP3    H1 9603   1.666   4.161   1.255
 3199TIP3    H2 9604   1.519   4.174   1.222
 3200TIP3   OH2 9605   5.893   2.975   4.161
 3200TIP3    H1 9606   5.888   2.987   4.256
 3200TIP3    H2 9607   5.979   2.936   4.146
 3201TIP3   OH2 9608   5.078   5.594   1.169
 3201TIP3    H1 9609   5.058   5.606   1.262
 3201TIP3    H2 9610   5.151   5.532   1.167
 3202TIP3   OH2 9611   2.139   2.406   0.506
 3202TIP3    H1 9612   2.081   2.340   0.545
 3202TIP3    H2 9613   2.106   2.489   0.540
 3203TIP3   OH2 9614   1.375   1.536   2.550
 3203TIP3    H1 9615   1.402   1.508   2.637
 3203TIP3    H2 9616   1.315   1.467   2.520
 3204TIP3   OH2 9617   5.052   3.589   4.732
 3204TIP3    H1 9618   4.964   3.551   4.736
 3204TIP3    H2 9619   5.091   3.568   4.817
 3205TIP3   OH2 9620   2.455   4.128   2.604
 3205TIP3    H1 9621   2.378   4.184   2.597
 3205TIP3    H2 9622   2.459   4.104   2.696
 3206TIP3   OH2 9623   4.847   4.533   1.310
 3206TIP3    H1 9624   4.903   4.609   1.325
 3206TIP3    H2 9625   4.895   4.480   1.246
 3207TIP3   OH2 9626   5.966   3.229   1.393
 3207TIP3    H1 9627   5.922   3.205   1.312
 3207TIP3    H2 9628   6.035   3.163   1.403
 3208TIP3   OH2 9629   3.797   2.913   1.511
 3208TIP3    H1 9630   3.839   2.866   1.440
 3208TIP3    H2 9631   3.811   3.005   1.491
 3209TIP3   OH2 9632   3.684   1.403   4.955
 3209TIP3    H1 9633   3.688   1.456   5.034
 3209TIP3    H2 9634   3.687   1.466   4.883
 3210TIP3   OH2 9635   0.722   0.393   4.675
 3210TIP3    H1 9636   0.676   0.310   4.669
 3210TIP3    H2 9637   0.686   0.447   4.605
 3211TIP3   OH2 9638   5.857   4.262   0.809
 3211TIP3    H1 9639   5.864   4.348   0.851
 3211TIP3    H2 9640   5.906   4.271   0.728
 3212TIP3   OH2 9641   5.541   5.650   4.074
 3212TIP3    H1 9642   5.473   5.680   4.013
 3212TIP3    H2 9643   5.554   5.725   4.133
 3213TIP3   OH2 9644   1.205   4.132   2.864
 3213TIP3    H1 9645   1.217   4.053   2.812
 3213TIP3    H2 9646   1.264   4.196   2.823
 3214TIP3   OH2 9647   6.005   4.680   3.809
 3214TIP3    H1 9648   6.075   4.640   3.759
 3214TIP3    H2 9649   5.926   4.668   3.756
 3215TIP3   OH2 9650   0.453   1.783   3.749
 3215TIP3    H1 9651   0.452   1.710   3.687
 3215TIP3    H2 9652   0.387   1.760   3.814
 3216TIP3   OH2 9653   1.555   1.050   4.799
 3216TIP3    H1 9654   1.639   1.007   4.789
 3216TIP3    H2 9655   1.497   0.984   4.837
 3217TIP3   OH2 9656   2.515   4.341   5.174
 3217TIP3    H1 9657   2.562   4.350   5.091
 3217TIP3    H2 9658   2.465   4.260   5.164
 3218TIP3   OH2 9659   4.020   5.508   4.158
 3218TIP3    H1 9660   4.056   5.477   4.075
 3218TIP3    H2 9661   4.093   5.500   4.220
 3219TIP3   OH2 9662   5.934   3.910   0.164
 3219TIP3    H1 9663   5.845   3.923   0.196
 3219TIP3    H2 9664   5.973   3.998   0.165
 3220TIP3   OH2 9665   0.972   2.994   2.735
 3220TIP3    H1 9666   1.015   2.981   2.651
 3220TIP3    H2 9667   0.919   2.915   2.748
 3221TIP3   OH2 9668   3.782   5.053   3.095
 3221TIP3    H1 9669   3.830   5.047   3.178
 3221TIP3    H2 9670   3.734   4.971   3.090
 3222TIP3   OH2 9671   0.448   0.722   4.611
 3222TIP3    H1 9672   0.541   0.697   4.608
 3222TIP3    H2 9673   0.446   0.800   4.667
 3223TIP3   OH2 9674   0.099   2.803   3.229
 3223TIP3    H1 9675   0.180   2.771   3.189
 3223TIP3    H2 9676   0.127   2.845   3.310
 3224TIP3   OH2 9677   1.474   5.315   1.954
 3224TIP3    H1 9678   1.532   5.318   1.878
 3224TIP3    H2 9679   1.530   5.337   2.028
 3225TIP3   OH2 9680   3.098   3.534   2.939
 3225TIP3    H1 9681   3.143   3.604   2.987
 3225TIP3    H2 9682   3.076   3.470   3.007
 3226TIP3   OH2 9683   4.140   1.992   2.342
 3226TIP3    H1 9684   4.057   1.949   2.362
 3226TIP3    H2 9685   4.115   2.073   2.298
 3227TIP3   OH2 9686   1.145   5.299   2.859
 3227TIP3    H1 9687   1.183   5.388   2.860
 3227TIP3    H2 9688   1.051   5.313   2.869
 3228TIP3   OH2 9689   3.244   5.918   2.310
 3228TIP3    H1 9690   3.278   5.915   2.220
 3228TIP3    H2 9691   3.215   5.829   2.328
 3229TIP3   OH2 9692   1.248   4.384   1.560
 3229TIP3    H1 9693   1.207   4.408   1.477
 3229TIP3    H2 9694   1.192   4.315   1.595
 3230TIP3   OH2 9695   2.807   2.822   0.104
 3230TIP3    H1 9696   2.818   2.893   0.167
 3230TIP3    H2 9697   2.863   2.848   0.030
 3231TIP3   OH2 9698   0.075   2.430   1.970
 3231TIP3    H1 9699   0.073   2.510   1.917
 3231TIP3    H2 9700   0.131   2.370   1.921
 3232TIP3   OH2 9701   3.703   1.776   3.320
 3232TIP3    H1 9702   3.686   1.781   3.414
 3232TIP3    H2 9703   3.782   1.723   3.313
 3233TIP3   OH2 9704   0.755   3.898   2.120
 3233TIP3    H1 9705   0.793   3.984   2.133
 3233TIP3    H2 9706   0.788   3.870   2.034
 3234TIP3   OH2 9707   6.169   3.080   1.841
 3234TIP3    H1 9708   6.123   3.027   1.776
 3234TIP3    H2 9709   6.143   3.170   1.822
 3235TIP3   OH2 9710  -0.010   0.353   3.972
 3235TIP3    H1 9711   0.086   0.354   3.967
 3235TIP3    H2 9712  -0.030   0.276   4.026
 3236TIP3   OH2 9713   3.154   3.260   3.923
 3236TIP3    H1 9714   3.158   3.241   3.829
 3236TIP3    H2 9715   3.062   3.250   3.946
 3237TIP3   OH2 9716   4.738   4.141   1.889
 3237TIP3    H1 9717   4.679   4.079   1.932
 3237TIP3    H2 9718   4.811   4.152   1.951
 3238TIP3   OH2 9719   4.610   0.849   3.729
 3238TIP3    H1 9720   4.595   0.864   3.822
 3238TIP3    H2 9721   4.665   0.770   3.726
 3239TIP3   OH2 9722   0.652   1.123   4.100
 3239TIP3    H1 9723   0.599   1.181   4.045
 3239TIP3    H2 9724   0.736   1.169   4.109
 3240TIP3   OH2 9725   2.577   2.412   0.903
 3240TIP3    H1 9726   2.515   2.339   0.902
 3240TIP3    H2 9727   2.631   2.396   0.981
 3241TIP3   OH2 9728   3.965   2.356   5.197
 3241TIP3    H1 9729   4.033   2.380   5.134
 3241TIP3    H2 9730   3.969   2.261   5.201
 3242TIP3   OH2 9731   5.088   0.167   2.152
 3242TIP3    H1 9732   5.133   0.082   2.153
 3242TIP3    H2 9733   5.093   0.198   2.242
 3243TIP3   OH2 9734   5.309   2.432   4.537
 3243TIP3    H1 9735   5.215   2.450   4.540
 3243TIP3    H2 9736   5.321   2.355   4.592
 3244TIP3   OH2 9737   2.322   3.706   2.239
 3244TIP3    H1 9738   2.286   3.684   2.325
 3244TIP3    H2 9739   2.274   3.650   2.178
 3245TIP3   OH2 9740   0.664   1.406   4.201
 3245TIP3    H1 9741   0.758   1.391   4.210
 3245TIP3    H2 9742   0.637   1.433   4.289
 3246TIP3   OH2 9743   4.351   1.873   2.201
 3246TIP3    H1 9744   4.271   1.882   2.253
 3246TIP3    H2 9745   4.372   1.780   2.205
 3247TIP3   OH2 9746   5.861   1.470   5.116
 3247TIP3    H1 9747   5.903   1.522   5.184
 3247TIP3    H2 9748   5.894   1.506   5.034
 3248TIP3   OH2 9749   2.904   0.698   2.528
 3248TIP3    H1 9750   2.931   0.789   2.537
 3248TIP3    H2 9751   2.917   0.678   2.435
 3249TIP3   OH2 9752   2.079   1.844   2.098
 3249TIP3    H1 9753   2.039   1.793   2.169
 3249TIP3    H2 9754   2.028   1.822   2.020
 3250TIP3   OH2 9755   3.448   3.489   0.243
 3250TIP3    H1 9756   3.459   3.565   0.186
 3250TIP3    H2 9757   3.388   3.432   0.195
 3251TIP3   OH2 9758   5.220   5.336   2.084
 3251TIP3    H1 9759   5.272   5.395   2.030
 3251TIP3    H2 9760   5.214   5.256   2.031
 3252TIP3   OH2 9761   5.534   0.008   0.768
 3252TIP3    H1 9762   5.580   0.005   0.684
 3252TIP3    H2 9763   5.452   0.053   0.749
 3253TIP3   OH2 9764   1.948   4.873   1.426
 3253TIP3    H1 9765   1.909   4.866   1.512
 3253TIP3    H2 9766   2.021   4.934   1.438
 3254TIP3   OH2 9767   4.293   3.193   1.571
 3254TIP3    H1 9768   4.350   3.117   1.559
 3254TIP3    H2 9769   4.250   3.204   1.486
 3255TIP3   OH2 9770   5.148   2.999   0.767
 3255TIP3    H1 9771   5.107   3.085   0.779
 3255TIP3    H2 9772   5.184   3.002   0.678
 3256TIP3   OH2 9773   1.248   4.374   2.367
 3256TIP3    H1 9774   1.183   4.442   2.387
 3256TIP3    H2 9775   1.196   4.300   2.337
 3257TIP3   OH2 9776   5.044   4.670   2.841
 3257TIP3    H1 9777   4.994   4.591   2.821
 3257TIP3    H2 9778   4.978   4.740   2.842
 3258TIP3   OH2 9779   1.147   1.587   1.847
 3258TIP3    H1 9780   1.097   1.642   1.906
 3258TIP3    H2 9781   1.186   1.648   1.784
 3259TIP3   OH2 9782   2.142   3.232   4.065
 3259TIP3    H1 9783   2.139   3.167   3.995
 3259TIP3    H2 9784   2.078   3.201   4.129
 3260TIP3   OH2 9785   4.699   4.493   5.066
 3260TIP3    H1 9786   4.692   4.552   4.991
 3260TIP3    H2 9787   4.692   4.550   5.142
 3261TIP3   OH2 9788   4.596   3.818   2.968
 3261TIP3    H1 9789   4.580   3.885   2.901
 3261TIP3    H2 9790   4.640   3.747   2.921
 3262TIP3   OH2 9791   0.204   3.873   4.858
 3262TIP3    H1 9792   0.161   3.920   4.930
 3262TIP3    H2 9793   0.132   3.849   4.800
 3263TIP3   OH2 9794   2.558   5.738   2.853
 3263TIP3    H1 9795   2.548   5.660   2.907
 3263TIP3    H2 9796   2.556   5.705   2.763
 3264TIP3   OH2 9797   5.001   1.907   4.125
 3264TIP3    H1 9798   5.032   1.869   4.207
 3264TIP3    H2 9799   5.081   1.933   4.079
 3265TIP3   OH2 9800   5.039   2.512   4.522
 3265TIP3    H1 9801   4.972   2.557   4.574
 3265TIP3    H2 9802   5.029   2.547   4.434
 3266TIP3   OH2 9803   6.106   4.682   3.469
 3266TIP3    H1 9804   6.171   4.736   3.514
 3266TIP3    H2 9805   6.030   4.738   3.460
 3267TIP3   OH2 9806   2.222   5.596   0.403
 3267TIP3    H1 9807   2.239   5.674   0.456
 3267TIP3    H2 9808   2.139   5.614   0.359
 3268TIP3   OH2 9809   4.201   2.488   3.918
 3268TIP3    H1 9810   4.144   2.412   3.926
 3268TIP3    H2 9811   4.264   2.478   3.990
 3269TIP3   OH2 9812   1.969   0.516   3.379
 3269TIP3    H1 9813   1.916   0.568   3.318
 3269TIP3    H2 9814   1.978   0.573   3.456
 3270TIP3   OH2 9815   2.442   2.004   1.181
 3270TIP3    H1 9816   2.372   2.040   1.235
 3270TIP3    H2 9817   2.410   1.918   1.154
 3271TIP3   OH2 9818   0.036   2.743   0.914
 3271TIP3    H1 9819   0.060   2.789   0.995
 3271TIP3    H2 9820   0.106   2.678   0.903
 3272TIP3   OH2 9821   2.153   4.046   3.111
 3272TIP3    H1 9822   2.225   3.990   3.081
 3272TIP3    H2 9823   2.187   4.087   3.191
 3273TIP3   OH2 9824   1.335   3.797   1.577
 3273TIP3    H1 9825   1.311   3.864   1.512
 3273TIP3    H2 9826   1.307   3.715   1.537
 3274TIP3   OH2 9827   6.121   5.318   1.886
 3274TIP3    H1 9828   6.124   5.413   1.896
 3274TIP3    H2 9829   6.202   5.295   1.841
 3275TIP3   OH2 9830   0.605   5.816   3.515
 3275TIP3    H1 9831   0.569   5.895   3.474
 3275TIP3    H2 9832   0.536   5.751   3.505
 3276TIP3   OH2 9833   4.731   2.450   4.838
 3276TIP3    H1 9834   4.791   2.419   4.905
 3276TIP3    H2 9835   4.738   2.545   4.841
 3277TIP3   OH2 9836   3.895   0.971   0.417
 3277TIP3    H1 9837   3.827   0.969   0.349
 3277TIP3    H2 9838   3.914   1.064   0.430
 3278TIP3   OH2 9839   4.771   2.608   4.533
 3278TIP3    H1 9840   4.757   2.513   4.534
 3278TIP3    H2 9841   4.708   2.641   4.469
 3279TIP3   OH2 9842   3.443   2.712   2.421
 3279TIP3    H1 9843   3.463   2.647   2.489
 3279TIP3    H2 9844   3.433   2.794   2.469
 3280TIP3   OH2 9845   0.025   0.318   5.113
 3280TIP3    H1 9846   0.090   0.388   5.109
 3280TIP3    H2 9847  -0.048   0.351   5.060
 3281TIP3   OH2 9848   5.128   1.025   4.902
 3281TIP3    H1 9849   5.119   0.965   4.976
 3281TIP3    H2 9850   5.202   1.081   4.926
 3282TIP3   OH2 9851   3.841   4.712   3.320
 3282TIP3    H1 9852   3.815   4.779   3.384
 3282TIP3    H2 9853   3.919   4.671   3.358
 3283TIP3   OH2 9854   2.828   5.701   3.979
 3283TIP3    H1 9855   2.795   5.772   3.924
 3283TIP3    H2 9856   2.897   5.660   3.927
 3284TIP3   OH2 9857   0.754   4.853   3.068
 3284TIP3    H1 9858   0.843   4.884   3.087
 3284TIP3    H2 9859   0.698   4.925   3.097
 3285TIP3   OH2 9860   4.830   1.854   2.761
 3285TIP3    H1 9861   4.841   1.858   2.666
 3285TIP3    H2 9862   4.901   1.907   2.795
 3286TIP3   OH2 9863   5.824   5.653   1.391
 3286TIP3    H1 9864   5.741   5.689   1.361
 3286TIP3    H2 9865   5.862   5.612   1.313
 3287TIP3   OH2 9866   2.457   1.233   2.010
 3287TIP3    H1 9867   2.404   1.156   2.031
 3287TIP3    H2 9868   2.537   1.197   1.972
 3288TIP3   OH2 9869   0.827   0.093   3.374
 3288TIP3    H1 9870   0.841   0.070   3.466
 3288TIP3    H2 9871   0.790   0.014   3.335
 3289TIP3   OH2 9872   4.101   2.257   2.969
 3289TIP3    H1 9873   4.015   2.221   2.989
 3289TIP3    H2 9874   4.160   2.181   2.970
 3290TIP3   OH2 9875   3.970   5.952   0.637
 3290TIP3    H1 9876   3.879   5.957   0.610
 3290TIP3    H2 9877   3.971   5.889   0.709
 3291TIP3   OH2 9878   1.025   4.774   4.759
 3291TIP3    H1 9879   1.063   4.770   4.671
 3291TIP3    H2 9880   1.028   4.867   4.782
 3292TIP3   OH2 9881   1.783   3.759   3.773
 3292TIP3    H1 9882   1.745   3.687   3.723
 3292TIP3    H2 9883   1.712   3.787   3.832
 3293TIP3   OH2 9884   0.399   1.021   3.698
 3293TIP3    H1 9885   0.476   1.072   3.672
 3293TIP3    H2 9886   0.435   0.943   3.740
 3294TIP3   OH2 9887   0.013   2.981   0.032
 3294TIP3    H1 9888  -0.021   3.055   0.081
 3294TIP3    H2 9889   0.076   2.940   0.092
 3295TIP3   OH2 9890   2.729   5.441   4.351
 3295TIP3    H1 9891   2.741   5.515   4.410
 3295TIP3    H2 9892   2.809   5.438   4.299
 3296TIP3   OH2 9893   3.163   4.765   5.161
 3296TIP3    H1 9894   3.232   4.728   5.106
 3296TIP3    H2 9895   3.085   4.716   5.138
 3297TIP3   OH2 9896   1.416   3.299   0.483
 3297TIP3    H1 9897   1.403   3.388   0.451
 3297TIP3    H2 9898   1.370   3.244   0.420
 3298TIP3   OH2 9899   0.714   5.361   0.089
 3298TIP3    H1 9900   0.630   5.400   0.065
 3298TIP3    H2 9901   0.712   5.359   0.185
 3299TIP3   OH2 9902   5.288   5.309   4.512
 3299TIP3    H1 9903   5.355   5.310   4.580
 3299TIP3    H2 9904   5.314   5.379   4.451
 3300TIP3   OH2 9905   1.829   0.918   4.753
 3300TIP3    H1 9906   1.807   0.843   4.699
 3300TIP3    H2 9907   1.875   0.978   4.694
 3301TIP3   OH2 9908   4.139   4.099   3.549
 3301TIP3    H1 9909   4.124   4.176   3.604
 3301TIP3    H2 9910   4.053   4.075   3.516
 3302TIP3   OH2 9911   3.292   2.735   0.218
 3302TIP3    H1 9912   3.199   2.716   0.203
 3302TIP3    H2 9913   3.308   2.815   0.168
 3303TIP3   OH2 9914   5.591   2.144   3.936
 3303TIP3    H1 9915   5.632   2.225   3.967
 3303TIP3    H2 9916   5.506   2.172   3.903
 3304TIP3   OH2 9917   1.313   2.222   0.559
 3304TIP3    H1 9918   1.342   2.243   0.470
 3304TIP3    H2 9919   1.219   2.238   0.557
 3305TIP3   OH2 9920   5.570   4.384   4.678
 3305TIP3    H1 9921   5.614   4.360   4.596
 3305TIP3    H2 9922   5.605   4.323   4.743
 3306TIP3   OH2 9923   0.719   5.746   5.162
 3306TIP3    H1 9924   0.710   5.655   5.132
 3306TIP3    H2 9925   0.642   5.790   5.128
 3307TIP3   OH2 9926   6.067   4.807   2.789
 3307TIP3    H1 9927   6.111   4.746   2.729
 3307TIP3    H2 9928   6.099   4.781   2.876
 3308TIP3   OH2 9929   3.553   4.748   0.179
 3308TIP3    H1 9930   3.598   4.726   0.260
 3308TIP3    H2 9931   3.487   4.680   0.167
 3309TIP3   OH2 9932   0.607   2.612   1.166
 3309TIP3    H1 9933   0.703   2.619   1.163
 3309TIP3    H2 9934   0.575   2.700   1.147
 3310TIP3   OH2 9935   6.154   3.308   4.675
 3310TIP3    H1 9936   6.105   3.269   4.603
 3310TIP3    H2 9937   6.087   3.342   4.734
 3311TIP3   OH2 9938   3.317   2.982   4.935
 3311TIP3    H1 9939   3.259   2.931   4.992
 3311TIP3    H2 9940   3.336   2.924   4.861
 3312TIP3   OH2 9941   5.549   2.389   2.199
 3312TIP3    H1 9942   5.526   2.313   2.146
 3312TIP3    H2 9943   5.584   2.352   2.280
 3313TIP3   OH2 9944   3.331   2.675   3.728
 3313TIP3    H1 9945   3.368   2.762   3.714
 3313TIP3    H2 9946   3.371   2.645   3.810
 3314TIP3   OH2 9947   2.587   1.525   5.141
 3314TIP3    H1 9948   2.519   1.555   5.081
 3314TIP3    H2 9949   2.567   1.570   5.224
 3315TIP3   OH2 9950   4.491   2.287   4.184
 3315TIP3    H1 9951   4.544   2.277   4.262
 3315TIP3    H2 9952   4.418   2.227   4.197
 3316TIP3   OH2 9953   1.863   1.324   5.118
 3316TIP3    H1 9954   1.796   1.290   5.059
 3316TIP3    H2 9955   1.906   1.394   5.068
 3317TIP3   OH2 9956   1.035   5.201   1.616
 3317TIP3    H1 9957   1.127   5.227   1.606
 3317TIP3    H2 9958   1.009   5.171   1.529
 3318TIP3   OH2 9959   2.726   1.874   3.648
 3318TIP3    H1 9960   2.793   1.873   3.717
 3318TIP3    H2 9961   2.734   1.961   3.608
 3319TIP3   OH2 9962   1.764   4.611   2.250
 3319TIP3    H1 9963   1.736   4.544   2.313
 3319TIP3    H2 9964   1.726   4.582   2.167
 3320TIP3   OH2 9965   0.577   4.381   3.301
 3320TIP3    H1 9966   0.610   4.323   3.233
 3320TIP3    H2 9967   0.616   4.466   3.281
 3321TIP3   OH2 9968   4.912   3.901   1.649
 3321TIP3    H1 9969   4.896   3.815   1.609
 3321TIP3    H2 9970   4.833   3.917   1.701
 3322TIP3   OH2 9971   2.665   5.132   4.006
 3322TIP3    H1 9972   2.731   5.090   4.061
 3322TIP3    H2 9973   2.674   5.088   3.921
 3323TIP3   OH2 9974   2.008   3.240   3.329
 3323TIP3    H1 9975   1.998   3.305   3.399
 3323TIP3    H2 9976   1.959   3.278   3.255
 3324TIP3   OH2 9977   2.265   5.484   4.244
 3324TIP3    H1 9978   2.345   5.436   4.265
 3324TIP3    H2 9979   2.295   5.557   4.189
 3325TIP3   OH2 9980   3.037   3.532   3.497
 3325TIP3    H1 9981   2.946   3.552   3.477
 3325TIP3    H2 9982   3.086   3.609   3.467
 3326TIP3   OH2 9983   0.602   5.231   0.781
 3326TIP3    H1 9984   0.684   5.183   0.796
 3326TIP3    H2 9985   0.548   5.212   0.857
 3327TIP3   OH2 9986   1.404   4.139   0.248
 3327TIP3    H1 9987   1.432   4.224   0.282
 3327TIP3    H2 9988   1.314   4.129   0.279
 3328TIP3   OH2 9989   6.350   4.134   1.614
 3328TIP3    H1 9990   6.331   4.225   1.592
 3328TIP3    H2 9991   6.279   4.084   1.574
 3329TIP3   OH2 9992   2.594   3.789   3.498
 3329TIP3    H1 9993   2.624   3.731   3.568
 3329TIP3    H2 9994   2.674   3.832   3.466
 3330TIP3   OH2 9995   3.774   2.939   1.993
 3330TIP3    H1 9996   3.682   2.920   2.009
 3330TIP3    H2 9997   3.806   2.864   1.943
 3331TIP3   OH2 9998   1.117   2.434   3.474
 3331TIP3    H1 9999   1.107   2.506   3.411
 3331TIP3    H210000   1.028   2.400   3.485
 3332TIP3   OH210001   5.429   3.763   4.806
 3332TIP3    H110002   5.419   3.667   4.808
 3332TIP3    H210003   5.443   3.783   4.714
 3333TIP3   OH210004   1.118   3.365   2.897
 3333TIP3    H110005   1.072   3.381   2.815
 3333TIP3    H210006   1.210   3.380   2.876
 3334TIP3   OH210007   1.126   3.346   1.714
 3334TIP3    H110008   1.183   3.355   1.637
 3334TIP3    H210009   1.094   3.435   1.731
 3335TIP3   OH210010   4.978   1.274   1.802
 3335TIP3    H110011   4.982   1.341   1.870
 3335TIP3    H210012   4.891   1.285   1.763
 3336TIP3   OH210013   2.093   0.089   3.940
 3336TIP3    H110014   2.118   0.047   3.857
 3336TIP3    H210015   2.048   0.020   3.989
 3337TIP3   OH210016   4.027   1.848   4.508
 3337TIP3    H110017   4.081   1.776   4.476
 3337TIP3    H210018   4.087   1.923   4.509
 3338TIP3   OH210019   2.571   3.694   2.423
 3338TIP3    H110020   2.548   3.688   2.515
 3338TIP3    H210021   2.503   3.749   2.384
 3339TIP3   OH210022   0.222   1.135   2.419
 3339TIP3    H110023   0.242   1.229   2.426
 3339TIP3    H210024   0.239   1.101   2.507
 3340TIP3   OH210025   3.950   2.650   5.201
 3340TIP3    H110026   3.878   2.691   5.153
 3340TIP3    H210027   3.960   2.565   5.160
 3341TIP3   OH210028   0.992   4.749   1.012
 3341TIP3    H110029   0.912   4.700   1.031
 3341TIP3    H210030   1.063   4.687   1.031
 3342TIP3   OH210031   5.503   4.674   3.735
 3342TIP3    H110032   5.431   4.612   3.730
 3342TIP3    H210033   5.521   4.698   3.644
 3343TIP3   OH210034   3.184   2.012   1.135
 3343TIP3    H110035   3.163   2.025   1.043
 3343TIP3    H210036   3.102   2.030   1.182
 3344TIP3   OH210037   4.339   2.386   2.846
 3344TIP3    H110038   4.316   2.458   2.787
 3344TIP3    H210039   4.255   2.344   2.866
 3345TIP3   OH210040   0.454   5.831   2.641
 3345TIP3    H110041   0.516   5.761   2.619
 3345TIP3    H210042   0.443   5.825   2.736
 3346TIP3   OH210043   5.257   5.609   0.349
 3346TIP3    H110044   5.337   5.597   0.400
 3346TIP3    H210045   5.227   5.697   0.373
 3347TIP3   OH210046   0.821   0.152   2.809
 3347TIP3    H110047   0.782   0.201   2.737
 3347TIP3    H210048   0.747   0.104   2.847
 3348TIP3   OH210049   4.262   5.262   2.510
 3348TIP3    H110050   4.177   5.224   2.489
 3348TIP3    H210051   4.315   5.245   2.433
 3349TIP3   OH210052   3.816   5.642   0.544
 3349TIP3    H110053   3.769   5.718   0.578
 3349TIP3    H210054   3.807   5.648   0.449
 3350TIP3   OH210055   4.172   5.699   1.970
 3350TIP3    H110056   4.185   5.604   1.976
 3350TIP3    H210057   4.136   5.712   1.883
 3351TIP3   OH210058   0.552   0.748   5.047
 3351TIP3    H110059   0.515   0.783   4.965
 3351TIP3    H210060   0.551   0.653   5.035
 3352TIP3   OH210061   3.469   3.347   4.726
 3352TIP3    H110062   3.476   3.369   4.818
 3352TIP3    H210063   3.551   3.302   4.705
 3353TIP3   OH210064   0.200   3.768   3.156
 3353TIP3    H110065   0.248   3.724   3.086
 3353TIP3    H210066   0.255   3.755   3.234
 3354TIP3   OH210067   1.028   2.413   2.562
 3354TIP3    H110068   1.084   2.378   2.631
 3354TIP3    H210069   0.978   2.338   2.531
 3355TIP3   OH210070   1.710   4.043   2.621
 3355TIP3    H110071   1.711   3.970   2.559
 3355TIP3    H210072   1.632   4.093   2.597
 3356TIP3   OH210073   2.718   5.927   3.005
 3356TIP3    H110074   2.717   5.914   3.100
 3356TIP3    H210075   2.691   5.842   2.970
 3357TIP3   OH210076   4.088   4.923   4.682
 3357TIP3    H110077   4.120   4.954   4.767
 3357TIP3    H210078   3.999   4.891   4.700
 3358TIP3   OH210079   2.133   5.424   3.991
 3358TIP3    H110080   2.206   5.459   4.041
 3358TIP3    H210081   2.062   5.415   4.054
 3359TIP3   OH210082   4.006   5.848   2.436
 3359TIP3    H110083   3.978   5.870   2.347
 3359TIP3    H210084   3.934   5.796   2.471
 3360TIP3   OH210085   1.344   2.193   3.745
 3360TIP3    H110086   1.260   2.214   3.785
 3360TIP3    H210087   1.344   2.098   3.735
 3361TIP3   OH210088   0.081   1.108   3.865
 3361TIP3    H110089   0.118   1.159   3.793
 3361TIP3    H210090   0.036   1.035   3.822
 3362TIP3   OH210091   5.148   1.363   2.430
 3362TIP3    H110092   5.186   1.275   2.434
 3362TIP3    H210093   5.224   1.421   2.424
 3363TIP3   OH210094   2.153   2.847   3.073
 3363TIP3    H110095   2.130   2.754   3.071
 3363TIP3    H210096   2.093   2.886   3.137
 3364TIP3   OH210097   0.828   2.513   1.797
 3364TIP3    H110098   0.878   2.551   1.869
 3364TIP3    H210099   0.892   2.502   1.726
 3365TIP3   OH210100   4.804   3.584   3.181
 3365TIP3    H110101   4.764   3.671   3.193
 3365TIP3    H210102   4.750   3.526   3.234
 3366TIP3   OH210103   6.190   3.526   3.307
 3366TIP3    H110104   6.232   3.553   3.389
 3366TIP3    H210105   6.097   3.547   3.320
 3367TIP3   OH210106   4.108   1.019   1.152
 3367TIP3    H110107   4.056   1.097   1.174
 3367TIP3    H210108   4.056   0.974   1.085
 3368TIP3   OH210109   4.255   5.930   4.321
 3368TIP3    H110110   4.175   5.876   4.319
 3368TIP3    H210111   4.310   5.889   4.387
 3369TIP3   OH210112   5.521   1.315   4.599
 3369TIP3    H110113   5.597   1.279   4.645
 3369TIP3    H210114   5.556   1.388   4.548
 3370TIP3   OH210115   0.588   2.079   2.755
 3370TIP3    H110116   0.636   2.143   2.806
 3370TIP3    H210117   0.588   2.114   2.666
 3371TIP3   OH210118   6.160   2.189   4.752
 3371TIP3    H110119   6.111   2.114   4.787
 3371TIP3    H210120   6.132   2.196   4.661
 3372TIP3   OH210121   5.621   3.256   0.718
 3372TIP3    H110122   5.653   3.346   0.715
 3372TIP3    H210123   5.553   3.257   0.785
 3373TIP3   OH210124   5.569   1.114   4.402
 3373TIP3    H110125   5.499   1.064   4.360
 3373TIP3    H210126   5.523   1.171   4.465
 3374TIP3   OH210127   1.640   1.513   4.246
 3374TIP3    H110128   1.692   1.592   4.238
 3374TIP3    H210129   1.567   1.538   4.304
 3375TIP3   OH210130   5.433   3.181   2.115
 3375TIP3    H110131   5.384   3.206   2.037
 3375TIP3    H210132   5.379   3.212   2.188
 3376TIP3   OH210133   1.079   2.020   3.259
 3376TIP3    H110134   1.165   2.032   3.220
 3376TIP3    H210135   1.074   1.926   3.280
 3377TIP3   OH210136   5.012   4.333   1.178
 3377TIP3    H110137   5.038   4.249   1.216
 3377TIP3    H210138   5.047   4.331   1.089
 3378TIP3   OH210139   1.460   3.907   3.670
 3378TIP3    H110140   1.499   3.906   3.757
 3378TIP3    H210141   1.505   3.979   3.624
 3379TIP3   OH210142   5.446   0.802   5.137
 3379TIP3    H110143   5.446   0.844   5.223
 3379TIP3    H210144   5.450   0.874   5.074
 3380TIP3   OH210145   2.857   4.854   0.352
 3380TIP3    H110146   2.815   4.801   0.284
 3380TIP3    H210147   2.854   4.944   0.318
 3381TIP3   OH210148   4.676   4.310   1.335
 3381TIP3    H110149   4.688   4.245   1.403
 3381TIP3    H210150   4.750   4.370   1.345
 3382TIP3   OH210151   1.889   0.355   0.365
 3382TIP3    H110152   1.829   0.405   0.310
 3382TIP3    H210153   1.864   0.378   0.454
 3383TIP3   OH210154   3.698   4.034   0.433
 3383TIP3    H110155   3.662   3.957   0.478
 3383TIP3    H210156   3.653   4.109   0.473
 3384TIP3   OH210157   2.472   0.076   1.515
 3384TIP3    H110158   2.459   0.154   1.569
 3384TIP3    H210159   2.392   0.070   1.463
 3385TIP3   OH210160   5.320   3.886   0.251
 3385TIP3    H110161   5.297   3.839   0.171
 3385TIP3    H210162   5.258   3.854   0.317
 3386TIP3   OH210163   4.136   1.839   1.058
 3386TIP3    H110164   4.087   1.757   1.058
 3386TIP3    H210165   4.195   1.832   1.134
 3387TIP3   OH210166   1.146   0.558   1.167
 3387TIP3    H110167   1.061   0.526   1.197
 3387TIP3    H210168   1.185   0.484   1.120
 3388TIP3   OH210169   0.261   2.470   0.589
 3388TIP3    H110170   0.344   2.505   0.557
 3388TIP3    H210171   0.285   2.424   0.670
 3389TIP3   OH210172   5.675   1.596   0.117
 3389TIP3    H110173   5.682   1.500   0.111
 3389TIP3    H210174   5.752   1.622   0.168
 3390TIP3   OH210175   3.157   0.705   4.449
 3390TIP3    H110176   3.097   0.778   4.433
 3390TIP3    H210177   3.218   0.709   4.375
 3391TIP3   OH210178   4.309   4.532   1.857
 3391TIP3    H110179   4.214   4.521   1.865
 3391TIP3    H210180   4.343   4.504   1.942
 3392TIP3   OH210181   2.958   1.373   3.756
 3392TIP3    H110182   2.954   1.371   3.851
 3392TIP3    H210183   2.967   1.466   3.734
 3393TIP3   OH210184   6.188   2.852   1.205
 3393TIP3    H110185   6.093   2.840   1.204
 3393TIP3    H210186   6.207   2.894   1.121
 3394TIP3   OH210187   3.769   1.953   1.518
 3394TIP3    H110188   3.690   1.933   1.568
 3394TIP3    H210189   3.737   1.980   1.432
 3395TIP3   OH210190   0.646   5.746   1.976
 3395TIP3    H110191   0.568   5.758   1.922
 3395TIP3    H210192   0.700   5.684   1.926
 3396TIP3   OH210193   4.649   1.453   3.573
 3396TIP3    H110194   4.689   1.502   3.501
 3396TIP3    H210195   4.647   1.362   3.541
 3397TIP3   OH210196   2.051   5.004   2.030
 3397TIP3    H110197   2.142   4.975   2.040
 3397TIP3    H210198   2.057   5.082   1.974
 3398TIP3   OH210199   3.050   1.529   4.742
 3398TIP3    H110200   3.000   1.495   4.816
 3398TIP3    H210201   3.136   1.550   4.779
 3399TIP3   OH210202   5.419   3.038   1.159
 3399TIP3    H110203   5.409   3.057   1.252
 3399TIP3    H210204   5.329   3.032   1.126
 3400TIP3   OH210205   0.956   3.272   3.487
 3400TIP3    H110206   0.917   3.185   3.482
 3400TIP3    H210207   0.986   3.290   3.398
 3401TIP3   OH210208   4.815   0.867   4.234
 3401TIP3    H110209   4.798   0.829   4.320
 3401TIP3    H210210   4.878   0.937   4.251
 3402TIP3   OH210211   4.414   4.881   2.063
 3402TIP3    H110212   4.386   4.857   1.974
 3402TIP3    H210213   4.498   4.837   2.074
 3403TIP3   OH210214   3.497   3.044   2.129
 3403TIP3    H110215   3.461   3.113   2.185
 3403TIP3    H210216   3.568   3.006   2.180
 3404TIP3   OH210217   1.587   5.913   1.420
 3404TIP3    H110218   1.607   5.820   1.411
 3404TIP3    H210219   1.500   5.915   1.461
 3405TIP3   OH210220   4.343   1.056   3.106
 3405TIP3    H110221   4.434   1.037   3.081
 3405TIP3    H210222   4.322   1.136   3.058
 3406TIP3   OH210223   2.473   3.129   1.707
 3406TIP3    H110224   2.548   3.101   1.654
 3406TIP3    H210225   2.403   3.068   1.683
 3407TIP3   OH210226   2.585   4.666   1.725
 3407TIP3    H110227   2.489   4.670   1.718
 3407TIP3    H210228   2.601   4.609   1.800
 3408TIP3   OH210229   1.939   3.498   1.943
 3408TIP3    H110230   1.870   3.555   1.909
 3408TIP3    H210231   1.952   3.432   1.874
 3409TIP3   OH210232   1.855   3.336   4.579
 3409TIP3    H110233   1.890   3.322   4.491
 3409TIP3    H210234   1.893   3.420   4.607
 3410TIP3   OH210235   4.496   1.505   1.278
 3410TIP3    H110236   4.547   1.488   1.199
 3410TIP3    H210237   4.546   1.464   1.348
 3411TIP3   OH210238   1.015   0.591   3.814
 3411TIP3    H110239   1.067   0.608   3.893
 3411TIP3    H210240   1.009   0.496   3.810
 3412TIP3   OH210241   0.120   2.142   1.578
 3412TIP3    H110242   0.138   2.122   1.670
 3412TIP3    H210243   0.109   2.237   1.576
 3413TIP3   OH210244   4.553   0.791   2.046
 3413TIP3    H110245   4.549   0.818   2.137
 3413TIP3    H210246   4.468   0.749   2.030
 3414TIP3   OH210247   3.755   2.667   0.141
 3414TIP3    H110248   3.804   2.658   0.223
 3414TIP3    H210249   3.671   2.625   0.158
 3415TIP3   OH210250   5.828   1.793   1.505
 3415TIP3    H110251   5.922   1.787   1.484
 3415TIP3    H210252   5.823   1.865   1.568
 3416TIP3   OH210253   0.257   0.924   1.999
 3416TIP3    H110254   0.280   1.017   1.997
 3416TIP3    H210255   0.307   0.885   1.926
 3417TIP3   OH210256   4.032   0.336   0.563
 3417TIP3    H110257   4.110   0.362   0.611
 3417TIP3    H210258   4.003   0.256   0.606
 3418TIP3   OH210259   2.978   3.257   3.072
 3418TIP3    H110260   2.890   3.233   3.100
 3418TIP3    H210261   3.032   3.250   3.151
 3419TIP3   OH210262   3.316   5.148   1.412
 3419TIP3    H110263   3.305   5.112   1.500
 3419TIP3    H210264   3.240   5.116   1.363
 3420TIP3   OH210265   0.742   3.421   1.510
 3420TIP3    H110266   0.693   3.411   1.592
 3420TIP3    H210267   0.766   3.332   1.485
 3421TIP3   OH210268   5.607   4.617   4.401
 3421TIP3    H110269   5.615   4.522   4.396
 3421TIP3    H210270   5.526   4.631   4.451
 3422TIP3   OH210271   2.903   2.147   4.253
 3422TIP3    H110272   2.844   2.185   4.318
 3422TIP3    H210273   2.846   2.101   4.192
 3423TIP3   OH210274   1.827   0.500   0.087
 3423TIP3    H110275   1.822   0.560   0.013
 3423TIP3    H210276   1.741   0.505   0.128
 3424TIP3   OH210277   2.016   3.397   2.177
 3424TIP3    H110278   1.985   3.420   2.090
 3424TIP3    H210279   1.937   3.378   2.227
 3425TIP3   OH210280   0.706   3.621   3.239
 3425TIP3    H110281   0.730   3.710   3.211
 3425TIP3    H210282   0.765   3.602   3.312
 3426TIP3   OH210283   3.718   0.149   3.924
 3426TIP3    H110284   3.757   0.236   3.916
 3426TIP3    H210285   3.624   0.164   3.921
 3427TIP3   OH210286   5.013   5.641   3.169
 3427TIP3    H110287   4.981   5.551   3.169
 3427TIP3    H210288   5.036   5.658   3.078
 3428TIP3   OH210289   2.290   5.871   0.536
 3428TIP3    H110290   2.313   5.807   0.604
 3428TIP3    H210291   2.359   5.937   0.541
 3429TIP3   OH210292   5.052   4.310   3.872
 3429TIP3    H110293   4.995   4.269   3.938
 3429TIP3    H210294   5.050   4.403   3.893
 3430TIP3   OH210295   3.181   3.797   4.267
 3430TIP3    H110296   3.190   3.797   4.172
 3430TIP3    H210297   3.119   3.727   4.286
 3431TIP3   OH210298   1.347   5.379   4.463
 3431TIP3    H110299   1.351   5.383   4.367
 3431TIP3    H210300   1.367   5.468   4.491
 3432TIP3   OH210301   6.050   0.982   3.467
 3432TIP3    H110302   5.992   1.056   3.452
 3432TIP3    H210303   6.135   1.021   3.487
 3433TIP3   OH210304   2.869   4.724   2.849
 3433TIP3    H110305   2.829   4.726   2.762
 3433TIP3    H210306   2.926   4.648   2.847
 3434TIP3   OH210307   4.695   1.283   1.739
 3434TIP3    H110308   4.610   1.321   1.718
 3434TIP3    H210309   4.682   1.189   1.731
 3435TIP3   OH210310   6.280   3.240   2.693
 3435TIP3    H110311   6.223   3.300   2.644
 3435TIP3    H210312   6.336   3.298   2.745
 3436TIP3   OH210313   6.325   0.506   2.000
 3436TIP3    H110314   6.375   0.581   2.033
 3436TIP3    H210315   6.248   0.503   2.056
 3437TIP3   OH210316   3.994   3.386   1.146
 3437TIP3    H110317   3.936   3.413   1.075
 3437TIP3    H210318   3.986   3.291   1.150
 3438TIP3   OH210319   1.414   0.114   4.113
 3438TIP3    H110320   1.413   0.144   4.023
 3438TIP3    H210321   1.501   0.075   4.125
 3439TIP3   OH210322   3.495   3.812   0.463
 3439TIP3    H110323   3.424   3.820   0.399
 3439TIP3    H210324   3.451   3.818   0.548
 3440TIP3   OH210325   4.190   2.086   4.658
 3440TIP3    H110326   4.262   2.053   4.712
 3440TIP3    H210327   4.185   2.180   4.680
 3441TIP3   OH210328   4.997   2.193   2.534
 3441TIP3    H110329   5.004   2.122   2.469
 3441TIP3    H210330   5.087   2.211   2.559
 3442TIP3   OH210331   3.760   5.921   0.191
 3442TIP3    H110332   3.700   5.969   0.247
 3442TIP3    H210333   3.754   5.831   0.220
 3443TIP3   OH210334   6.051   1.717   1.661
 3443TIP3    H110335   6.124   1.771   1.692
 3443TIP3    H210336   6.056   1.637   1.713
 3444TIP3   OH210337   2.510   5.148   4.432
 3444TIP3    H110338   2.509   5.195   4.349
 3444TIP3    H210339   2.601   5.154   4.461
 3445TIP3   OH210340   5.925   3.928   4.405
 3445TIP3    H110341   5.911   3.994   4.473
 3445TIP3    H210342   5.889   3.967   4.325
 3446TIP3   OH210343   2.877   3.799   0.781
 3446TIP3    H110344   2.925   3.882   0.776
 3446TIP3    H210345   2.877   3.776   0.874
 3447TIP3   OH210346   1.545   1.349   1.892
 3447TIP3    H110347   1.451   1.336   1.905
 3447TIP3    H210348   1.585   1.271   1.928
 3448TIP3   OH210349   1.944   0.396   3.770
 3448TIP3    H110350   1.903   0.312   3.751
 3448TIP3    H210351   1.916   0.453   3.699
 3449TIP3   OH210352   6.211   3.061   0.286
 3449TIP3    H110353   6.209   3.085   0.379
 3449TIP3    H210354   6.177   2.972   0.283
 3450TIP3   OH210355   0.934   4.339   5.132
 3450TIP3    H110356   0.989   4.271   5.093
 3450TIP3    H210357   0.860   4.348   5.072
 3451TIP3   OH210358   0.083   0.557   1.606
 3451TIP3    H110359  -0.007   0.525   1.610
 3451TIP3    H210360   0.118   0.520   1.525
 3452TIP3   OH210361   1.168   1.148   3.050
 3452TIP3    H110362   1.074   1.136   3.040
 3452TIP3    H210363   1.201   1.061   3.072
 3453TIP3   OH210364   5.965   5.684   0.366
 3453TIP3    H110365   6.019   5.741   0.311
 3453TIP3    H210366   5.906   5.641   0.304
 3454TIP3   OH210367   0.144   5.068   2.746
 3454TIP3    H110368   0.084   5.017   2.690
 3454TIP3    H210369   0.228   5.024   2.735
 3455TIP3   OH210370   2.941   0.326   4.190
 3455TIP3    H110371   2.935   0.422   4.192
 3455TIP3    H210372   2.852   0.297   4.169
 3456TIP3   OH210373   2.472   0.181   4.955
 3456TIP3    H110374   2.447   0.190   4.863
 3456TIP3    H210375   2.405   0.125   4.993
 3457TIP3   OH210376   4.509   5.907   2.515
 3457TIP3    H110377   4.414   5.896   2.511
 3457TIP3    H210378   4.542   5.820   2.537
 3458TIP3   OH210379   5.870   4.319   5.083
 3458TIP3    H110380   5.923   4.375   5.140
 3458TIP3    H210381   5.932   4.282   5.020
 3459TIP3   OH210382   4.419   4.208   3.890
 3459TIP3    H110383   4.377   4.187   3.973
 3459TIP3    H210384   4.488   4.141   3.880
 3460TIP3   OH210385   2.332   4.715   4.941
 3460TIP3    H110386   2.380   4.790   4.977
 3460TIP3    H210387   2.400   4.653   4.916
 3461TIP3   OH210388   0.640   0.552   3.766
 3461TIP3    H110389   0.733   0.538   3.785
 3461TIP3    H210390   0.606   0.465   3.746
 3462TIP3   OH210391   4.631   4.813   2.703
 3462TIP3    H110392   4.715   4.820   2.747
 3462TIP3    H210393   4.566   4.836   2.770
 3463TIP3   OH210394   6.099   5.369   4.933
 3463TIP3    H110395   6.072   5.367   5.025
 3463TIP3    H210396   6.037   5.429   4.891
 3464TIP3   OH210397   5.932   1.351   0.496
 3464TIP3    H110398   5.965   1.367   0.407
 3464TIP3    H210399   5.996   1.291   0.534
 3465TIP3   OH210400   2.395   2.300   0.394
 3465TIP3    H110401   2.307   2.338   0.395
 3465TIP3    H210402   2.444   2.352   0.458
 3466TIP3   OH210403   5.930   5.749   2.225
 3466TIP3    H110404   5.985   5.795   2.161
 3466TIP3    H210405   5.971   5.768   2.309
 3467TIP3   OH210406   4.065   5.848   0.365
 3467TIP3    H110407   4.074   5.938   0.334
 3467TIP3    H210408   4.004   5.855   0.439
 3468TIP3   OH210409   5.256   0.703   3.963
 3468TIP3    H110410   5.194   0.760   3.918
 3468TIP3    H210411   5.240   0.616   3.925
 3469TIP3   OH210412   5.758   5.648   4.405
 3469TIP3    H110413   5.834   5.598   4.374
 3469TIP3    H210414   5.767   5.648   4.500
 3470TIP3   OH210415   2.350   4.307   3.000
 3470TIP3    H110416   2.264   4.312   2.959
 3470TIP3    H210417   2.395   4.236   2.953
 3471TIP3   OH210418   4.710   3.622   2.793
 3471TIP3    H110419   4.720   3.609   2.699
 3471TIP3    H210420   4.669   3.541   2.824
 3472TIP3   OH210421   4.250   3.525   3.475
 3472TIP3    H110422   4.264   3.441   3.431
 3472TIP3    H210423   4.337   3.564   3.481
 3473TIP3   OH210424   5.446   4.005   3.845
 3473TIP3    H110425   5.477   4.080   3.895
 3473TIP3    H210426   5.356   4.026   3.822
 3474TIP3   OH210427   2.835   0.106   5.173
 3474TIP3    H110428   2.745   0.112   5.207
 3474TIP3    H210429   2.825   0.073   5.084
 3475TIP3   OH210430   3.524   5.470   1.071
 3475TIP3    H110431   3.506   5.564   1.068
 3475TIP3    H210432   3.577   5.453   0.993
 3476TIP3   OH210433   4.244   1.386   3.154
 3476TIP3    H110434   4.168   1.386   3.096
 3476TIP3    H210435   4.211   1.354   3.238
 3477TIP3   OH210436   3.782   5.451   4.985
 3477TIP3    H110437   3.855   5.389   4.989
 3477TIP3    H210438   3.709   5.405   5.025
 3478TIP3   OH210439   1.338   5.009   3.107
 3478TIP3    H110440   1.377   5.074   3.048
 3478TIP3    H210441   1.412   4.975   3.157
 3479TIP3   OH210442   2.488   1.626   4.883
 3479TIP3    H110443   2.409   1.645   4.831
 3479TIP3    H210444   2.556   1.681   4.845
 3480TIP3   OH210445   5.902   5.544   0.594
 3480TIP3    H110446   5.926   5.613   0.531
 3480TIP3    H210447   5.927   5.463   0.550
 3481TIP3   OH210448   2.897   5.068   1.450
 3481TIP3    H110449   2.850   4.991   1.418
 3481TIP3    H210450   2.893   5.060   1.545
 3482TIP3   OH210451   1.010   5.232   0.840
 3482TIP3    H110452   0.948   5.305   0.850
 3482TIP3    H210453   0.964   5.156   0.876
 3483TIP3   OH210454   4.878   4.462   2.772
 3483TIP3    H110455   4.791   4.473   2.733
 3483TIP3    H210456   4.914   4.385   2.728
 3484TIP3   OH210457   5.289   1.160   3.391
 3484TIP3    H110458   5.280   1.172   3.486
 3484TIP3    H210459   5.366   1.211   3.368
 3485TIP3   OH210460   5.579   1.072   3.714
 3485TIP3    H110461   5.672   1.094   3.719
 3485TIP3    H210462   5.539   1.119   3.788
 3486TIP3   OH210463   1.865   5.075   5.052
 3486TIP3    H110464   1.889   5.022   4.976
 3486TIP3    H210465   1.881   5.165   5.025
 3487TIP3   OH210466   1.115   5.588   2.828
 3487TIP3    H110467   1.168   5.668   2.833
 3487TIP3    H210468   1.025   5.619   2.824
 3488TIP3   OH210469   1.690   0.962   3.251
 3488TIP3    H110470   1.735   1.007   3.179
 3488TIP3    H210471   1.605   0.939   3.214
 3489TIP3   OH210472   1.450   2.612   3.580
 3489TIP3    H110473   1.374   2.670   3.576
 3489TIP3    H210474   1.427   2.547   3.646
 3490TIP3   OH210475   0.800   3.380   4.970
 3490TIP3    H110476   0.760   3.444   5.029
 3490TIP3    H210477   0.878   3.424   4.936
 3491TIP3   OH210478   5.977   3.889   3.216
 3491TIP3    H110479   5.907   3.953   3.204
 3491TIP3    H210480   6.055   3.932   3.183
 3492TIP3   OH210481   0.943   5.521   2.217
 3492TIP3    H110482   0.966   5.506   2.125
 3492TIP3    H210483   0.852   5.551   2.214
 3493TIP3   OH210484   3.599   5.451   4.452
 3493TIP3    H110485   3.667   5.508   4.417
 3493TIP3    H210486   3.627   5.363   4.430
 3494TIP3   OH210487   3.805   2.389   1.462
 3494TIP3    H110488   3.805   2.324   1.392
 3494TIP3    H210489   3.796   2.337   1.542
 3495TIP3   OH210490   3.417   5.497   2.714
 3495TIP3    H110491   3.460   5.413   2.727
 3495TIP3    H210492   3.345   5.478   2.654
 3496TIP3   OH210493   5.060   5.871   0.640
 3496TIP3    H110494   4.964   5.871   0.633
 3496TIP3    H210495   5.091   5.869   0.549
 3497TIP3   OH210496   5.521   1.986   1.138
 3497TIP3    H110497   5.528   2.012   1.230
 3497TIP3    H210498   5.550   2.062   1.089
 3498TIP3   OH210499   1.385   0.599   3.200
 3498TIP3    H110500   1.381   0.648   3.282
 3498TIP3    H210501   1.306   0.545   3.200
 3499TIP3   OH210502   2.832   3.427   2.026
 3499TIP3    H110503   2.739   3.447   2.018
 3499TIP3    H210504   2.836   3.333   2.044
 3500TIP3   OH210505   4.291   3.506   0.436
 3500TIP3    H110506   4.363   3.492   0.497
 3500TIP3    H210507   4.220   3.540   0.491
 3501TIP3   OH210508   4.992   3.909   3.129
 3501TIP3    H110509   4.914   3.896   3.184
 3501TIP3    H210510   5.041   3.828   3.136
 3502TIP3   OH210511   6.306   4.806   3.600
 3502TIP3    H110512   6.292   4.864   3.674
 3502TIP3    H210513   6.386   4.840   3.558
 3503TIP3   OH210514   3.338   5.960   1.143
 3503TIP3    H110515   3.266   6.019   1.166
 3503TIP3    H210516   3.310   5.918   1.062
 3504TIP3   OH210517   1.641   5.319   0.822
 3504TIP3    H110518   1.546   5.311   0.811
 3504TIP3    H210519   1.661   5.264   0.898
 3505TIP3   OH210520   1.654   1.723   4.551
 3505TIP3    H110521   1.730   1.707   4.495
 3505TIP3    H210522   1.580   1.690   4.500
 3506TIP3   OH210523   1.450   5.566   3.437
 3506TIP3    H110524   1.375   5.564   3.496
 3506TIP3    H210525   1.412   5.552   3.350
 3507TIP3   OH210526   0.037   4.264   0.957
 3507TIP3    H110527   0.091   4.303   0.889
 3507TIP3    H210528   0.089   4.270   1.037
 3508TIP3   OH210529   2.336   3.626   4.294
 3508TIP3    H110530   2.346   3.558   4.360
 3508TIP3    H210531   2.303   3.581   4.216
 3509TIP3   OH210532   3.953   3.531   3.543
 3509TIP3    H110533   3.982   3.440   3.558
 3509TIP3    H210534   3.977   3.549   3.452
 3510TIP3   OH210535   0.222   2.019   2.175
 3510TIP3    H110536   0.248   2.103   2.137
 3510TIP3    H210537   0.138   2.037   2.217
 3511TIP3   OH210538   5.460   1.518   5.140
 3511TIP3    H110539   5.510   1.571   5.202
 3511TIP3    H210540   5.374   1.509   5.180
 3512TIP3   OH210541   0.222   5.634   3.797
 3512TIP3    H110542   0.207   5.729   3.800
 3512TIP3    H210543   0.154   5.600   3.739
 3513TIP3   OH210544   1.989   5.261   2.201
 3513TIP3    H110545   2.016   5.259   2.109
 3513TIP3    H210546   2.006   5.172   2.232
 3514TIP3   OH210547   2.528   1.454   4.309
 3514TIP3    H110548   2.552   1.467   4.218
 3514TIP3    H210549   2.609   1.465   4.358
 3515TIP3   OH210550   4.256   1.685   3.142
 3515TIP3    H110551   4.250   1.590   3.149
 3515TIP3    H210552   4.184   1.718   3.195
 3516TIP3   OH210553   3.767   4.370   4.333
 3516TIP3    H110554   3.824   4.331   4.265
 3516TIP3    H210555   3.690   4.313   4.335
 3517TIP3   OH210556   2.742   3.858   3.140
 3517TIP3    H110557   2.710   3.946   3.122
 3517TIP3    H210558   2.695   3.802   3.079
 3518TIP3   OH210559   0.926   5.217  -0.004
 3518TIP3    H110560   1.005   5.249   0.039
 3518TIP3    H210561   0.853   5.255   0.046
 3519TIP3   OH210562   0.523   5.159   2.538
 3519TIP3    H110563   0.500   5.107   2.461
 3519TIP3    H210564   0.439   5.178   2.580
 3520TIP3   OH210565   2.391   4.492   4.151
 3520TIP3    H110566   2.344   4.410   4.168
 3520TIP3    H210567   2.391   4.537   4.235
 3521TIP3   OH210568   3.717   0.952   0.232
 3521TIP3    H110569   3.697   0.997   0.150
 3521TIP3    H210570   3.686   0.862   0.218
 3522TIP3   OH210571   1.575   5.185   3.525
 3522TIP3    H110572   1.559   5.254   3.589
 3522TIP3    H210573   1.668   5.162   3.537
 3523TIP3   OH210574   1.656   0.416   3.438
 3523TIP3    H110575   1.708   0.492   3.411
 3523TIP3    H210576   1.586   0.453   3.492
 3524TIP3   OH210577   1.975   3.573   4.598
 3524TIP3    H110578   1.919   3.631   4.649
 3524TIP3    H210579   2.033   3.631   4.549
 3525TIP3   OH210580   1.320   4.083   1.506
 3525TIP3    H110581   1.409   4.050   1.520
 3525TIP3    H210582   1.326   4.135   1.426
 3526TIP3   OH210583   5.470   5.934   2.537
 3526TIP3    H110584   5.417   5.930   2.617
 3526TIP3    H210585   5.544   5.876   2.555
 3527TIP3   OH210586   0.246   4.952   1.814
 3527TIP3    H110587   0.271   4.898   1.889
 3527TIP3    H210588   0.322   5.007   1.797
 3528TIP3   OH210589   5.324   0.354   2.211
 3528TIP3    H110590   5.288   0.330   2.125
 3528TIP3    H210591   5.365   0.439   2.196
 3529TIP3   OH210592   5.153   3.829   4.859
 3529TIP3    H110593   5.112   3.760   4.807
 3529TIP3    H210594   5.247   3.816   4.848
 3530TIP3   OH210595   0.317   4.593   0.431
 3530TIP3    H110596   0.324   4.658   0.502
 3530TIP3    H210597   0.365   4.631   0.358
 3531TIP3   OH210598   0.495   0.313   4.412
 3531TIP3    H110599   0.506   0.261   4.492
 3531TIP3    H210600   0.559   0.383   4.421
 3532TIP3   OH210601   2.933   2.090   5.006
 3532TIP3    H110602   2.898   2.147   4.938
 3532TIP3    H210603   3.027   2.102   5.001
 3533TIP3   OH210604   2.126   2.107   2.167
 3533TIP3    H110605   2.148   2.116   2.259
 3533TIP3    H210606   2.141   2.015   2.146
 3534TIP3   OH210607   5.479   5.436   4.273
 3534TIP3    H110608   5.461   5.376   4.200
 3534TIP3    H210609   5.535   5.504   4.235
 3535TIP3   OH210610   4.048   1.059   1.615
 3535TIP3    H110611   3.975   1.035   1.673
 3535TIP3    H210612   4.089   1.134   1.658
 3536TIP3   OH210613   5.076   4.378   1.894
 3536TIP3    H110614   5.037   4.458   1.929
 3536TIP3    H210615   5.037   4.307   1.945
 3537TIP3   OH210616   2.647   4.042   4.092
 3537TIP3    H110617   2.633   4.134   4.066
 3537TIP3    H210618   2.735   4.022   4.060
 3538TIP3   OH210619   1.723   0.426   4.330
 3538TIP3    H110620   1.713   0.448   4.237
 3538TIP3    H210621   1.748   0.508   4.372
 3539TIP3   OH210622   1.918   2.411   1.722
 3539TIP3    H110623   1.859   2.398   1.796
 3539TIP3    H210624   1.988   2.346   1.736
 3540TIP3   OH210625   0.662   4.215   2.301
 3540TIP3    H110626   0.734   4.200   2.239
 3540TIP3    H210627   0.585   4.178   2.258
 3541TIP3   OH210628   0.734   1.347   0.045
 3541TIP3    H110629   0.794   1.417   0.019
 3541TIP3    H210630   0.740   1.345   0.141
 3542TIP3   OH210631   2.260   2.158   3.570
 3542TIP3    H110632   2.210   2.181   3.491
 3542TIP3    H210633   2.314   2.083   3.543
 3543TIP3   OH210634   1.769   0.083   2.657
 3543TIP3    H110635   1.710   0.130   2.717
 3543TIP3    H210636   1.845   0.141   2.648
 3544TIP3   OH210637   4.354   2.894   2.100
 3544TIP3    H110638   4.448   2.884   2.113
 3544TIP3    H210639   4.345   2.923   2.009
 3545TIP3   OH210640   3.208   1.196   2.153
 3545TIP3    H110641   3.134   1.162   2.102
 3545TIP3    H210642   3.285   1.160   2.108
 3546TIP3   OH210643   4.852   1.162   4.924
 3546TIP3    H110644   4.834   1.204   4.839
 3546TIP3    H210645   4.944   1.136   4.918
 3547TIP3   OH210646   2.325   3.676   4.656
 3547TIP3    H110647   2.369   3.609   4.604
 3547TIP3    H210648   2.303   3.745   4.593
 3548TIP3   OH210649   0.579   3.927   1.145
 3548TIP3    H110650   0.487   3.917   1.170
 3548TIP3    H210651   0.598   4.019   1.159
 3549TIP3   OH210652   5.882   0.967   3.924
 3549TIP3    H110653   5.970   0.977   3.961
 3549TIP3    H210654   5.829   1.031   3.973
 3550TIP3   OH210655   6.203   5.018   0.724
 3550TIP3    H110656   6.238   5.107   0.716
 3550TIP3    H210657   6.277   4.966   0.755
 3551TIP3   OH210658   4.818   2.842   4.316
 3551TIP3    H110659   4.818   2.936   4.333
 3551TIP3    H210660   4.733   2.812   4.346
 3552TIP3   OH210661   1.521   5.634   1.395
 3552TIP3    H110662   1.543   5.558   1.341
 3552TIP3    H210663   1.551   5.610   1.483
 3553TIP3   OH210664   2.529   0.703   3.592
 3553TIP3    H110665   2.544   0.634   3.657
 3553TIP3    H210666   2.440   0.688   3.562
 3554TIP3   OH210667   5.873   3.817   1.037
 3554TIP3    H110668   5.905   3.864   1.114
 3554TIP3    H210669   5.817   3.880   0.992
 3555TIP3   OH210670   1.679   3.825   1.300
 3555TIP3    H110671   1.611   3.887   1.324
 3555TIP3    H210672   1.633   3.757   1.251
 3556TIP3   OH210673   5.783   2.010   3.643
 3556TIP3    H110674   5.815   2.065   3.714
 3556TIP3    H210675   5.853   2.011   3.578
 3557TIP3   OH210676   2.737   2.229   4.822
 3557TIP3    H110677   2.678   2.178   4.766
 3557TIP3    H210678   2.679   2.280   4.878
 3558TIP3   OH210679   2.658   1.137   4.594
 3558TIP3    H110680   2.731   1.077   4.579
 3558TIP3    H210681   2.650   1.143   4.689
 3559TIP3   OH210682   5.411   5.391   3.761
 3559TIP3    H110683   5.460   5.380   3.679
 3559TIP3    H210684   5.464   5.347   3.827
 3560TIP3   OH210685   1.096   2.328   1.022
 3560TIP3    H110686   1.166   2.379   1.062
 3560TIP3    H210687   1.138   2.280   0.951
 3561TIP3   OH210688   3.327   3.702   3.567
 3561TIP3    H110689   3.374   3.661   3.494
 3561TIP3    H210690   3.320   3.632   3.633
 3562TIP3   OH210691   5.891   1.410   2.763
 3562TIP3    H110692   5.879   1.484   2.704
 3562TIP3    H210693   5.951   1.352   2.717
 3563TIP3   OH210694   0.676   2.022   1.899
 3563TIP3    H110695   0.671   2.111   1.934
 3563TIP3    H210696   0.759   2.021   1.850
 3564TIP3   OH210697   3.355   1.071   0.454
 3564TIP3    H110698   3.267   1.040   0.475
 3564TIP3    H210699   3.398   0.996   0.413
 3565TIP3   OH210700   6.341   4.650   3.905
 3565TIP3    H110701   6.350   4.640   4.000
 3565TIP3    H210702   6.290   4.574   3.878
 3566TIP3   OH210703   4.851   3.636   1.555
 3566TIP3    H110704   4.769   3.613   1.599
 3566TIP3    H210705   4.882   3.554   1.518
 3567TIP3   OH210706   0.114   4.780   4.890
 3567TIP3    H110707   0.020   4.786   4.876
 3567TIP3    H210708   0.149   4.749   4.806
 3568TIP3   OH210709   5.265   4.878   4.786
 3568TIP3    H110710   5.357   4.852   4.774
 3568TIP3    H210711   5.218   4.795   4.795
 3569TIP3   OH210712   4.329   3.465   0.150
 3569TIP3    H110713   4.375   3.542   0.118
 3569TIP3    H210714   4.301   3.488   0.239
 3570TIP3   OH210715   3.926   0.147   0.721
 3570TIP3    H110716   3.890   0.074   0.671
 3570TIP3    H210717   3.962   0.107   0.801
 3571TIP3   OH210718   3.819   3.660   4.629
 3571TIP3    H110719   3.909   3.666   4.659
 3571TIP3    H210720   3.801   3.745   4.588
 3572TIP3   OH210721   5.284   4.016   5.068
 3572TIP3    H110722   5.218   3.947   5.066
 3572TIP3    H210723   5.316   4.016   5.158
 3573TIP3   OH210724   4.569   2.125   1.758
 3573TIP3    H110725   4.550   2.032   1.744
 3573TIP3    H210726   4.521   2.147   1.838
 3574TIP3   OH210727   0.725   3.709   4.495
 3574TIP3    H110728   0.698   3.649   4.565
 3574TIP3    H210729   0.724   3.655   4.416
 3575TIP3   OH210730   2.732   0.263   1.133
 3575TIP3    H110731   2.649   0.221   1.109
 3575TIP3    H210732   2.797   0.223   1.074
 3576TIP3   OH210733   3.719   1.090   2.596
 3576TIP3    H110734   3.629   1.117   2.613
 3576TIP3    H210735   3.771   1.137   2.661
 3577TIP3   OH210736   0.010   5.907   2.434
 3577TIP3    H110737   0.090   5.880   2.479
 3577TIP3    H210738   0.040   5.970   2.368
 3578TIP3   OH210739   6.250   2.888   3.051
 3578TIP3    H110740   6.165   2.902   3.093
 3578TIP3    H210741   6.311   2.877   3.124
 3579TIP3   OH210742   0.549   4.195   1.839
 3579TIP3    H110743   0.619   4.146   1.796
 3579TIP3    H210744   0.485   4.211   1.770
 3580TIP3   OH210745   5.448   2.813   0.503
 3580TIP3    H110746   5.488   2.777   0.424
 3580TIP3    H210747   5.513   2.875   0.537
 3581TIP3   OH210748   1.017   5.042   2.222
 3581TIP3    H110749   0.944   5.079   2.271
 3581TIP3    H210750   1.085   5.027   2.288
 3582TIP3   OH210751   5.448   5.028   0.401
 3582TIP3    H110752   5.456   5.065   0.313
 3582TIP3    H210753   5.355   5.038   0.423
 3583TIP3   OH210754   3.767   2.395   2.124
 3583TIP3    H110755   3.789   2.487   2.134
 3583TIP3    H210756   3.680   2.395   2.086
 3584TIP3   OH210757   3.140   3.783   4.000
 3584TIP3    H110758   3.087   3.710   3.967
 3584TIP3    H210759   3.144   3.844   3.927
 3585TIP3   OH210760   0.085   1.738   2.234
 3585TIP3    H110761   0.094   1.828   2.203
 3585TIP3    H210762   0.013   1.702   2.181
 3586TIP3   OH210763   0.500   4.963   1.466
 3586TIP3    H110764   0.505   4.915   1.384
 3586TIP3    H210765   0.571   4.926   1.519
 3587TIP3   OH210766   2.928   4.168   3.826
 3587TIP3    H110767   2.929   4.111   3.903
 3587TIP3    H210768   2.906   4.109   3.754
 3588TIP3   OH210769   4.502   1.006   2.227
 3588TIP3    H110770   4.486   1.048   2.142
 3588TIP3    H210771   4.430   1.036   2.282
 3589TIP3   OH210772   3.488   0.633   3.775
 3589TIP3    H110773   3.416   0.668   3.723
 3589TIP3    H210774   3.506   0.701   3.841
 3590TIP3   OH210775   3.874   0.573   4.313
 3590TIP3    H110776   3.957   0.578   4.265
 3590TIP3    H210777   3.830   0.497   4.276
 3591TIP3   OH210778   6.064   0.268   0.492
 3591TIP3    H110779   6.147   0.226   0.514
 3591TIP3    H210780   6.000   0.231   0.553
 3592TIP3   OH210781   4.751   4.298   0.101
 3592TIP3    H110782   4.747   4.368   0.036
 3592TIP3    H210783   4.838   4.260   0.089
 3593TIP3   OH210784   4.347   2.835   5.127
 3593TIP3    H110785   4.267   2.839   5.075
 3593TIP3    H210786   4.356   2.923   5.163
 3594TIP3   OH210787   4.314   0.361   0.680
 3594TIP3    H110788   4.381   0.338   0.745
 3594TIP3    H210789   4.308   0.456   0.685
 3595TIP3   OH210790   0.166   4.987   0.507
 3595TIP3    H110791   0.103   5.049   0.544
 3595TIP3    H210792   0.233   5.042   0.467
 3596TIP3   OH210793   2.203   3.159   0.300
 3596TIP3    H110794   2.247   3.196   0.377
 3596TIP3    H210795   2.275   3.134   0.241
 3597TIP3   OH210796   6.294   0.035   3.435
 3597TIP3    H110797   6.244   0.085   3.370
 3597TIP3    H210798   6.263   0.068   3.519
 3598TIP3   OH210799   3.539   0.781   0.715
 3598TIP3    H110800   3.583   0.728   0.649
 3598TIP3    H210801   3.568   0.870   0.699
 3599TIP3   OH210802   5.411   0.223   3.199
 3599TIP3    H110803   5.472   0.269   3.257
 3599TIP3    H210804   5.328   0.270   3.210
 3600TIP3   OH210805   5.670   1.341   1.366
 3600TIP3    H110806   5.580   1.368   1.345
 3600TIP3    H210807   5.703   1.408   1.425
 3601TIP3   OH210808   2.372   3.890   3.397
 3601TIP3    H110809   2.297   3.839   3.425
 3601TIP3    H210810   2.442   3.867   3.457
 3602TIP3   OH210811   6.024   1.957   4.859
 3602TIP3    H110812   5.972   1.961   4.779
 3602TIP3    H210813   5.972   1.902   4.919
 3603TIP3   OH210814   5.605   5.798   0.236
 3603TIP3    H110815   5.638   5.841   0.158
 3603TIP3    H210816   5.588   5.869   0.298
 3604TIP3   OH210817   0.248   2.008   3.853
 3604TIP3    H110818   0.279   1.922   3.882
 3604TIP3    H210819   0.321   2.043   3.801
 3605TIP3   OH210820   2.089   5.407   4.624
 3605TIP3    H110821   2.149   5.465   4.576
 3605TIP3    H210822   2.113   5.420   4.716
 3606TIP3   OH210823   4.785   5.161   2.128
 3606TIP3    H110824   4.839   5.113   2.064
 3606TIP3    H210825   4.846   5.223   2.168
 3607TIP3   OH210826   3.389   3.955   2.502
 3607TIP3    H110827   3.484   3.955   2.491
 3607TIP3    H210828   3.376   3.973   2.595
 3608TIP3   OH210829   3.939   3.967   4.912
 3608TIP3    H110830   3.910   4.052   4.881
 3608TIP3    H210831   3.891   3.952   4.993
 3609TIP3   OH210832   3.719   5.140   2.818
 3609TIP3    H110833   3.754   5.109   2.902
 3609TIP3    H210834   3.624   5.137   2.829
 3610TIP3   OH210835   2.709   2.080   2.465
 3610TIP3    H110836   2.680   2.146   2.403
 3610TIP3    H210837   2.686   1.996   2.425
 3611TIP3   OH210838   1.499   0.322   1.522
 3611TIP3    H110839   1.491   0.394   1.584
 3611TIP3    H210840   1.585   0.284   1.541
 3612TIP3   OH210841   0.412   2.001   1.624
 3612TIP3    H110842   0.382   2.092   1.622
 3612TIP3    H210843   0.336   1.951   1.653
 3613TIP3   OH210844   6.087   0.474   0.049
 3613TIP3    H110845   6.093   0.519   0.133
 3613TIP3    H210846   6.007   0.510   0.009
 3614TIP3   OH210847   2.661   2.877   2.677
 3614TIP3    H110848   2.687   2.883   2.585
 3614TIP3    H210849   2.595   2.807   2.678
 3615TIP3   OH210850   5.891   3.050   2.960
 3615TIP3    H110851   5.948   2.984   2.999
 3615TIP3    H210852   5.945   3.091   2.892
 3616TIP3   OH210853   2.964   5.922   4.094
 3616TIP3    H110854   2.941   5.834   4.065
 3616TIP3    H210855   2.996   5.910   4.184
 3617TIP3   OH210856   5.867   5.139   1.159
 3617TIP3    H110857   5.918   5.068   1.120
 3617TIP3    H210858   5.910   5.156   1.243
 3618TIP3   OH210859   1.265   3.457   4.572
 3618TIP3    H110860   1.306   3.457   4.658
 3618TIP3    H210861   1.317   3.396   4.520
 3619TIP3   OH210862   2.092   0.719   2.255
 3619TIP3    H110863   2.018   0.673   2.295
 3619TIP3    H210864   2.081   0.810   2.281
 3620TIP3   OH210865   4.117   0.308   1.671
 3620TIP3    H110866   4.087   0.310   1.762
 3620TIP3    H210867   4.087   0.224   1.638
 3621TIP3   OH210868   3.966   3.427   2.755
 3621TIP3    H110869   3.952   3.332   2.758
 3621TIP3    H210870   3.978   3.453   2.846
 3622TIP3   OH210871   2.115   0.951   3.396
 3622TIP3    H110872   2.166   0.980   3.320
 3622TIP3    H210873   2.172   0.966   3.471
 3623TIP3   OH210874   2.087   4.644   1.873
 3623TIP3    H110875   2.164   4.629   1.928
 3623TIP3    H210876   2.021   4.680   1.932
 3624TIP3   OH210877   2.035   5.940   0.606
 3624TIP3    H110878   2.045   5.997   0.682
 3624TIP3    H210879   2.122   5.903   0.591
 3625TIP3   OH210880   2.399   4.418   2.566
 3625TIP3    H110881   2.315   4.374   2.553
 3625TIP3    H210882   2.376   4.502   2.606
 3626TIP3   OH210883   3.832   3.025   3.230
 3626TIP3    H110884   3.769   3.007   3.300
 3626TIP3    H210885   3.914   2.989   3.261
 3627TIP3   OH210886   3.382   0.846   1.132
 3627TIP3    H110887   3.375   0.931   1.088
 3627TIP3    H210888   3.441   0.795   1.076
 3628TIP3   OH210889   0.658   1.743   1.700
 3628TIP3    H110890   0.738   1.784   1.733
 3628TIP3    H210891   0.623   1.806   1.637
 3629TIP3   OH210892   5.852   0.787   1.575
 3629TIP3    H110893   5.897   0.755   1.653
 3629TIP3    H210894   5.866   0.882   1.578
 3630TIP3   OH210895   4.448   5.631   0.996
 3630TIP3    H110896   4.358   5.666   0.997
 3630TIP3    H210897   4.445   5.557   1.057
 3631TIP3   OH210898   5.051   2.737   0.834
 3631TIP3    H110899   5.062   2.828   0.805
 3631TIP3    H210900   5.004   2.743   0.916
 3632TIP3   OH210901   4.561   3.167   1.872
 3632TIP3    H110902   4.628   3.099   1.869
 3632TIP3    H210903   4.602   3.239   1.918
 3633TIP3   OH210904   5.810   5.897   1.962
 3633TIP3    H110905   5.755   5.843   1.905
 3633TIP3    H210906   5.811   5.983   1.920
 3634TIP3   OH210907   4.823   0.284   0.828
 3634TIP3    H110908   4.831   0.379   0.839
 3634TIP3    H210909   4.879   0.263   0.753
 3635TIP3   OH210910   4.381   2.378   3.164
 3635TIP3    H110911   4.402   2.373   3.071
 3635TIP3    H210912   4.415   2.463   3.192
 3636TIP3   OH210913   4.890   3.894   0.569
 3636TIP3    H110914   4.945   3.912   0.493
 3636TIP3    H210915   4.951   3.860   0.635
 3637TIP3   OH210916   4.843   4.034   4.187
 3637TIP3    H110917   4.913   3.974   4.213
 3637TIP3    H210918   4.889   4.115   4.163
 3638TIP3   OH210919   0.555   5.669   0.869
 3638TIP3    H110920   0.515   5.583   0.874
 3638TIP3    H210921   0.495   5.727   0.917
 3639TIP3   OH210922   0.226   5.197   2.453
 3639TIP3    H110923   0.137   5.233   2.460
 3639TIP3    H210924   0.281   5.273   2.439
 3640TIP3   OH210925   3.900   2.671   0.382
 3640TIP3    H110926   3.823   2.662   0.439
 3640TIP3    H210927   3.921   2.764   0.385
 3641TIP3   OH210928   3.767   4.288   1.368
 3641TIP3    H110929   3.743   4.218   1.428
 3641TIP3    H210930   3.712   4.274   1.291
 3642TIP3   OH210931   4.889   2.721   2.812
 3642TIP3    H110932   4.849   2.764   2.737
 3642TIP3    H210933   4.845   2.760   2.888
 3643TIP3   OH210934   0.555   0.859   4.063
 3643TIP3    H110935   0.631   0.804   4.083
 3643TIP3    H210936   0.579   0.946   4.096
 3644TIP3   OH210937   4.513   3.436   3.310
 3644TIP3    H110938   4.469   3.362   3.351
 3644TIP3    H210939   4.564   3.476   3.380
 3645TIP3   OH210940   4.115   5.656   4.912
 3645TIP3    H110941   4.174   5.727   4.887
 3645TIP3    H210942   4.056   5.646   4.838
 3646TIP3   OH210943   0.838   2.485   1.389
 3646TIP3    H110944   0.909   2.515   1.445
 3646TIP3    H210945   0.864   2.398   1.361
 3647TIP3   OH210946   2.936   5.115   4.757
 3647TIP3    H110947   2.864   5.094   4.818
 3647TIP3    H210948   2.972   5.030   4.732
 3648TIP3   OH210949   1.624   4.753   1.388
 3648TIP3    H110950   1.636   4.793   1.302
 3648TIP3    H210951   1.652   4.821   1.450
 3649TIP3   OH210952   4.723   1.385   2.023
 3649TIP3    H110953   4.686   1.373   1.935
 3649TIP3    H210954   4.811   1.419   2.007
 3650TIP3   OH210955   1.769   4.849   0.316
 3650TIP3    H110956   1.751   4.941   0.296
 3650TIP3    H210957   1.854   4.850   0.359
 3651TIP3   OH210958   2.313   4.611   2.036
 3651TIP3    H110959   2.391   4.594   2.090
 3651TIP3    H210960   2.240   4.605   2.098
 3652TIP3   OH210961   4.106   5.562   1.389
 3652TIP3    H110962   4.015   5.534   1.404
 3652TIP3    H210963   4.108   5.653   1.419
 3653TIP3   OH210964   2.343   3.891   4.224
 3653TIP3    H110965   2.316   3.808   4.263
 3653TIP3    H210966   2.356   3.949   4.298
 3654TIP3   OH210967   1.439   5.174   3.901
 3654TIP3    H110968   1.450   5.181   3.996
 3654TIP3    H210969   1.400   5.087   3.888
 3655TIP3   OH210970   0.928   3.143   3.003
 3655TIP3    H110971   0.933   3.073   2.938
 3655TIP3    H210972   1.010   3.191   2.993
 3656TIP3   OH210973   2.684   5.733   0.236
 3656TIP3    H110974   2.727   5.647   0.236
 3656TIP3    H210975   2.631   5.733   0.315
 3657TIP3   OH210976   1.379   1.290   4.778
 3657TIP3    H110977   1.410   1.200   4.786
 3657TIP3    H210978   1.387   1.327   4.866
 3658TIP3   OH210979   5.233   0.141   1.150
 3658TIP3    H110980   5.245   0.234   1.169
 3658TIP3    H210981   5.145   0.136   1.112
 3659TIP3   OH210982   1.575   2.103   4.027
 3659TIP3    H110983   1.548   2.036   4.090
 3659TIP3    H210984   1.493   2.141   3.995
 3660TIP3   OH210985   2.073   1.337   4.390
 3660TIP3    H110986   2.114   1.250   4.398
 3660TIP3    H210987   2.134   1.386   4.334
 3661TIP3   OH210988   3.254   4.672   3.113
 3661TIP3    H110989   3.163   4.659   3.141
 3661TIP3    H210990   3.248   4.691   3.019
 3662TIP3   OH210991   2.741   2.099   3.872
 3662TIP3    H110992   2.823   2.146   3.890
 3662TIP3    H210993   2.708   2.139   3.792
 3663TIP3   OH210994   4.745   5.733   0.371
 3663TIP3    H110995   4.727   5.658   0.427
 3663TIP3    H210996   4.741   5.809   0.429
 3664TIP3   OH210997   3.974   0.821   1.502
 3664TIP3    H110998   4.020   0.773   1.571
 3664TIP3    H210999   3.993   0.913   1.520
 3665TIP3   OH211000   4.478   4.068   0.357
 3665TIP3    H111001   4.496   4.041   0.447
 3665TIP3    H211002   4.502   3.993   0.304
 3666TIP3   OH211003   4.821   3.416   4.602
 3666TIP3    H111004   4.806   3.510   4.593
 3666TIP3    H211005   4.735   3.376   4.587
 3667TIP3   OH211006   0.878   2.703   1.100
 3667TIP3    H111007   0.960   2.672   1.139
 3667TIP3    H211008   0.888   2.799   1.097
 3668TIP3   OH211009   6.253   5.942   4.844
 3668TIP3    H111010   6.232   5.922   4.753
 3668TIP3    H211011   6.228   6.034   4.855
 3669TIP3   OH211012   4.158   3.934   2.057
 3669TIP3    H111013   4.193   4.012   2.014
 3669TIP3    H211014   4.167   3.952   2.151
 3670TIP3   OH211015   5.286   5.139   3.256
 3670TIP3    H111016   5.289   5.186   3.173
 3670TIP3    H211017   5.378   5.118   3.275
 3671TIP3   OH211018   5.740   3.778   0.682
 3671TIP3    H111019   5.801   3.836   0.728
 3671TIP3    H211020   5.662   3.833   0.667
 3672TIP3   OH211021   1.830   1.562   0.051
 3672TIP3    H111022   1.917   1.546   0.014
 3672TIP3    H211023   1.775   1.494   0.012
 3673TIP3   OH211024   0.674   5.650   3.083
 3673TIP3    H111025   0.607   5.712   3.055
 3673TIP3    H211026   0.641   5.614   3.165
 3674TIP3   OH211027   4.481   2.578   2.434
 3674TIP3    H111028   4.405   2.564   2.491
 3674TIP3    H211029   4.498   2.672   2.441
 3675TIP3   OH211030   3.712   2.760   0.996
 3675TIP3    H111031   3.637   2.762   1.055
 3675TIP3    H211032   3.701   2.838   0.941
 3676TIP3   OH211033   4.349   5.562   0.132
 3676TIP3    H111034   4.426   5.611   0.159
 3676TIP3    H211035   4.375   5.470   0.138
 3677TIP3   OH211036   3.481   5.662   5.123
 3677TIP3    H111037   3.502   5.600   5.192
 3677TIP3    H211038   3.394   5.636   5.092
 3678TIP3   OH211039   2.595   0.341   2.138
 3678TIP3    H111040   2.582   0.253   2.102
 3678TIP3    H211041   2.647   0.328   2.217
 3679TIP3   OH211042   4.389   5.653   2.880
 3679TIP3    H111043   4.312   5.604   2.852
 3679TIP3    H211044   4.371   5.675   2.972
 3680TIP3   OH211045   5.277   0.310   0.886
 3680TIP3    H111046   5.254   0.398   0.859
 3680TIP3    H211047   5.282   0.314   0.982
 3681TIP3   OH211048   5.077   2.838   0.473
 3681TIP3    H111049   5.023   2.862   0.548
 3681TIP3    H211050   5.052   2.900   0.405
 3682TIP3   OH211051   6.004   5.657   5.062
 3682TIP3    H111052   5.950   5.657   5.141
 3682TIP3    H211053   5.941   5.652   4.990
 3683TIP3   OH211054   5.834   0.337   0.209
 3683TIP3    H111055   5.776   0.401   0.169
 3683TIP3    H211056   5.919   0.382   0.215
 3684TIP3   OH211057   5.677   3.942   0.252
 3684TIP3    H111058   5.709   3.878   0.316
 3684TIP3    H211059   5.582   3.945   0.267
 3685TIP3   OH211060   1.907   4.422   3.948
 3685TIP3    H111061   1.992   4.451   3.915
 3685TIP3    H211062   1.859   4.502   3.967
 3686TIP3   OH211063   1.607   0.631   0.546
 3686TIP3    H111064   1.629   0.717   0.511
 3686TIP3    H211065   1.516   0.617   0.519
 3687TIP3   OH211066   5.355   0.673   3.482
 3687TIP3    H111067   5.324   0.744   3.426
 3687TIP3    H211068   5.408   0.717   3.549
 3688TIP3   OH211069   0.958   3.710   0.201
 3688TIP3    H111070   1.000   3.655   0.135
 3688TIP3    H211071   1.016   3.705   0.277
 3689TIP3   OH211072   4.264   0.547   3.817
 3689TIP3    H111073   4.172   0.574   3.812
 3689TIP3    H211074   4.262   0.453   3.801
 3690TIP3   OH211075   4.550   5.629   0.562
 3690TIP3    H111076   4.480   5.694   0.553
 3690TIP3    H211077   4.514   5.561   0.618
 3691TIP3   OH211078   0.393   1.598   2.987
 3691TIP3    H111079   0.360   1.631   2.903
 3691TIP3    H211080   0.380   1.504   2.982
 3692TIP3   OH211081   2.169   1.173   2.799
 3692TIP3    H111082   2.209   1.259   2.784
 3692TIP3    H211083   2.105   1.163   2.728
 3693TIP3   OH211084   2.757   3.222   1.113
 3693TIP3    H111085   2.737   3.179   1.195
 3693TIP3    H211086   2.769   3.314   1.136
 3694TIP3   OH211087   5.230   2.026   1.507
 3694TIP3    H111088   5.284   1.974   1.448
 3694TIP3    H211089   5.140   2.001   1.485
 3695TIP3   OH211090   0.863   0.149   0.003
 3695TIP3    H111091   0.802   0.103  -0.054
 3695TIP3    H211092   0.860   0.101   0.086
 3696TIP3   OH211093   2.666   0.112   3.181
 3696TIP3    H111094   2.663   0.078   3.270
 3696TIP3    H211095   2.686   0.205   3.192
 3697TIP3   OH211096   5.284   2.173   1.870
 3697TIP3    H111097   5.235   2.094   1.847
 3697TIP3    H211098   5.354   2.177   1.806
 3698TIP3   OH211099   4.692   0.310   2.642
 3698TIP3    H111100   4.680   0.253   2.718
 3698TIP3    H211101   4.777   0.353   2.657
 3699TIP3   OH211102   5.070   0.839   5.092
 3699TIP3    H111103   5.114   0.838   5.177
 3699TIP3    H211104   5.035   0.751   5.082
 3700TIP3   OH211105   4.967   0.825   0.590
 3700TIP3    H111106   4.913   0.882   0.644
 3700TIP3    H211107   5.019   0.885   0.536
 3701TIP3   OH211108   0.431   1.813   3.126
 3701TIP3    H111109   0.421   1.735   3.071
 3701TIP3    H211110   0.410   1.886   3.067
 3702TIP3   OH211111   4.044   3.284   5.085
 3702TIP3    H111112   4.011   3.336   5.158
 3702TIP3    H211113   4.016   3.331   5.007
 3703TIP3   OH211114   4.054   2.330   3.590
 3703TIP3    H111115   4.053   2.321   3.495
 3703TIP3    H211116   4.106   2.409   3.605
 3704TIP3   OH211117   4.022   0.540   2.134
 3704TIP3    H111118   4.082   0.474   2.099
 3704TIP3    H211119   4.067   0.577   2.209
 3705TIP3   OH211120   0.748   0.754   1.941
 3705TIP3    H111121   0.735   0.848   1.955
 3705TIP3    H211122   0.835   0.748   1.901
 3706TIP3   OH211123   4.534   3.507   0.557
 3706TIP3    H111124   4.600   3.559   0.512
 3706TIP3    H211125   4.505   3.563   0.629
 3707TIP3   OH211126   2.675   1.695   2.727
 3707TIP3    H111127   2.756   1.690   2.777
 3707TIP3    H211128   2.649   1.787   2.734
 3708TIP3   OH211129   4.539   4.260   3.004
 3708TIP3    H111130   4.627   4.284   3.031
 3708TIP3    H211131   4.549   4.173   2.965
 3709TIP3   OH211132   5.333   4.875   0.071
 3709TIP3    H111133   5.355   4.959   0.111
 3709TIP3    H211134   5.417   4.834   0.053
 3710TIP3   OH211135   5.932   4.888   4.912
 3710TIP3    H111136   5.844   4.901   4.878
 3710TIP3    H211137   5.923   4.900   5.007
 3711TIP3   OH211138   5.728   1.028   3.084
 3711TIP3    H111139   5.673   1.103   3.108
 3711TIP3    H211140   5.816   1.064   3.080
 3712TIP3   OH211141   0.614   2.293   3.001
 3712TIP3    H111142   0.703   2.259   3.011
 3712TIP3    H211143   0.579   2.296   3.090
 3713TIP3   OH211144   1.280   0.248   0.139
 3713TIP3    H111145   1.194   0.287   0.122
 3713TIP3    H211146   1.340   0.298   0.083
 3714TIP3   OH211147   3.903   5.327   1.041
 3714TIP3    H111148   3.989   5.358   1.068
 3714TIP3    H211149   3.883   5.254   1.099
 3715TIP3   OH211150   5.484   4.808   4.147
 3715TIP3    H111151   5.513   4.722   4.176
 3715TIP3    H211152   5.543   4.870   4.189
 3716TIP3   OH211153   2.601   1.101   1.290
 3716TIP3    H111154   2.530   1.150   1.250
 3716TIP3    H211155   2.617   1.145   1.374
 3717TIP3   OH211156   0.529   4.530   2.878
 3717TIP3    H111157   0.525   4.564   2.789
 3717TIP3    H211158   0.443   4.550   2.915
 3718TIP3   OH211159   1.372   5.907   1.583
 3718TIP3    H111160   1.277   5.911   1.577
 3718TIP3    H211161   1.392   5.930   1.673
 3719TIP3   OH211162   1.862   2.647   2.424
 3719TIP3    H111163   1.867   2.552   2.416
 3719TIP3    H211164   1.838   2.663   2.515
 3720TIP3   OH211165   1.911   4.752   2.047
 3720TIP3    H111166   1.841   4.716   2.101
 3720TIP3    H211167   1.921   4.842   2.079
 3721TIP3   OH211168   2.619   5.444   3.982
 3721TIP3    H111169   2.697   5.499   3.971
 3721TIP3    H211170   2.646   5.358   3.952
 3722TIP3   OH211171   2.589   4.768   3.996
 3722TIP3    H111172   2.627   4.732   4.076
 3722TIP3    H211173   2.546   4.849   4.025
 3723TIP3   OH211174   6.006   1.180   0.950
 3723TIP3    H111175   6.086   1.131   0.967
 3723TIP3    H211176   5.960   1.180   1.034
 3724TIP3   OH211177   5.295   1.125   2.484
 3724TIP3    H111178   5.329   1.128   2.395
 3724TIP3    H211179   5.352   1.184   2.534
 3725TIP3   OH211180   1.527   0.780   0.267
 3725TIP3    H111181   1.619   0.805   0.256
 3725TIP3    H211182   1.486   0.856   0.308
 3726TIP3   OH211183   0.291   2.891   2.382
 3726TIP3    H111184   0.338   2.869   2.301
 3726TIP3    H211185   0.204   2.917   2.352
 3727TIP3   OH211186   1.830   2.159   4.455
 3727TIP3    H111187   1.832   2.106   4.535
 3727TIP3    H211188   1.896   2.226   4.468
 3728TIP3   OH211189   1.446   4.462   3.560
 3728TIP3    H111190   1.452   4.555   3.580
 3728TIP3    H211191   1.437   4.459   3.465
 3729TIP3   OH211192   1.631   4.100   4.500
 3729TIP3    H111193   1.616   4.021   4.448
 3729TIP3    H211194   1.622   4.070   4.591
 3730TIP3   OH211195   0.590   0.208   3.097
 3730TIP3    H111196   0.560   0.162   3.175
 3730TIP3    H211197   0.650   0.275   3.130
 3731TIP3   OH211198   3.913   4.568   0.148
 3731TIP3    H111199   3.931   4.476   0.170
 3731TIP3    H211200   3.994   4.614   0.171
 3732TIP3   OH211201   4.247   4.512   3.198
 3732TIP3    H111202   4.333   4.474   3.218
 3732TIP3    H211203   4.265   4.604   3.177
 3733TIP3   OH211204   0.145   3.296   1.643
 3733TIP3    H111205   0.089   3.361   1.686
 3733TIP3    H211206   0.090   3.218   1.637
 3734TIP3   OH211207   3.737   0.880   2.058
 3734TIP3    H111208   3.679   0.840   1.993
 3734TIP3    H211209   3.700   0.855   2.142
 3735TIP3   OH211210   0.256   4.429   4.639
 3735TIP3    H111211   0.335   4.438   4.691
 3735TIP3    H211212   0.230   4.520   4.619
 3736TIP3   OH211213   0.843   3.174   4.799
 3736TIP3    H111214   0.825   3.238   4.868
 3736TIP3    H211215   0.886   3.225   4.730
 3737TIP3   OH211216   3.101   0.984   0.506
 3737TIP3    H111217   3.051   0.929   0.446
 3737TIP3    H211218   3.051   1.065   0.511
 3738TIP3   OH211219   3.657   3.868   2.169
 3738TIP3    H111220   3.589   3.811   2.134
 3738TIP3    H211221   3.615   3.954   2.177
 3739TIP3   OH211222   2.091   1.730   1.756
 3739TIP3    H111223   2.067   1.775   1.675
 3739TIP3    H211224   2.019   1.748   1.816
 3740TIP3   OH211225   5.917   5.549   4.792
 3740TIP3    H111226   5.863   5.602   4.734
 3740TIP3    H211227   5.854   5.506   4.851
 3741TIP3   OH211228   3.227   5.103   2.687
 3741TIP3    H111229   3.228   5.054   2.605
 3741TIP3    H211230   3.134   5.116   2.706
 3742TIP3   OH211231   1.106   0.606   3.014
 3742TIP3    H111232   1.067   0.578   2.932
 3742TIP3    H211233   1.036   0.597   3.079
 3743TIP3   OH211234   5.907   5.989   4.042
 3743TIP3    H111235   5.965   5.932   3.992
 3743TIP3    H211236   5.928   5.970   4.134
 3744TIP3   OH211237   4.037   0.119   4.268
 3744TIP3    H111238   3.947   0.095   4.246
 3744TIP3    H211239   4.064   0.177   4.197
 3745TIP3   OH211240   2.569   2.468   4.485
 3745TIP3    H111241   2.607   2.419   4.412
 3745TIP3    H211242   2.574   2.559   4.457
 3746TIP3   OH211243   1.951   3.790   2.695
 3746TIP3    H111244   1.905   3.778   2.778
 3746TIP3    H211245   1.903   3.735   2.633
 3747TIP3   OH211246   1.792   1.357   4.438
 3747TIP3    H111247   1.884   1.379   4.419
 3747TIP3    H211248   1.742   1.402   4.370
 3748TIP3   OH211249   1.154   3.627   3.626
 3748TIP3    H111250   1.084   3.649   3.687
 3748TIP3    H211251   1.166   3.705   3.572
 3749TIP3   OH211252   5.786   3.439   1.043
 3749TIP3    H111253   5.749   3.376   0.981
 3749TIP3    H211254   5.869   3.466   1.003
 3750TIP3   OH211255   5.938   6.008   3.163
 3750TIP3    H111256   5.912   5.957   3.086
 3750TIP3    H211257   5.926   5.948   3.237
 3751TIP3   OH211258   4.253   2.318   1.568
 3751TIP3    H111259   4.292   2.265   1.637
 3751TIP3    H211260   4.195   2.379   1.614
 3752TIP3   OH211261   0.634   0.791   0.172
 3752TIP3    H111262   0.726   0.818   0.169
 3752TIP3    H211263   0.585   0.873   0.166
 3753TIP3   OH211264   2.588   2.961   3.016
 3753TIP3    H111265   2.534   2.882   3.015
 3753TIP3    H211266   2.658   2.944   2.953
 3754TIP3   OH211267   0.969   1.572   0.989
 3754TIP3    H111268   1.062   1.552   0.995
 3754TIP3    H211269   0.965   1.663   0.961
 3755TIP3   OH211270   2.296   0.222   0.736
 3755TIP3    H111271   2.237   0.249   0.665
 3755TIP3    H211272   2.347   0.150   0.698
 3756TIP3   OH211273   0.056   4.923   4.324
 3756TIP3    H111274   0.059   5.013   4.358
 3756TIP3    H211275   0.143   4.888   4.343
 3757TIP3   OH211276   2.838   4.551   0.697
 3757TIP3    H111277   2.925   4.542   0.735
 3757TIP3    H211278   2.779   4.514   0.763
 3758TIP3   OH211279   4.582   0.995   2.954
 3758TIP3    H111280   4.638   0.948   2.892
 3758TIP3    H211281   4.493   0.973   2.928
 3759TIP3   OH211282   4.867   3.225   4.007
 3759TIP3    H111283   4.923   3.238   4.084
 3759TIP3    H211284   4.789   3.182   4.041
 3760TIP3   OH211285   4.798   0.413   2.988
 3760TIP3    H111286   4.824   0.460   2.910
 3760TIP3    H211287   4.778   0.324   2.957
 3761TIP3   OH211288   3.408   1.101   2.449
 3761TIP3    H111289   3.463   1.094   2.371
 3761TIP3    H211290   3.425   1.020   2.497
 3762TIP3   OH211291   5.028   5.755   4.267
 3762TIP3    H111292   5.085   5.678   4.260
 3762TIP3    H211293   5.071   5.810   4.333
 3763TIP3   OH211294   0.394   0.705   2.899
 3763TIP3    H111295   0.331   0.707   2.971
 3763TIP3    H211296   0.448   0.783   2.912
 3764TIP3   OH211297   0.425   1.289   2.187
 3764TIP3    H111298   0.355   1.224   2.187
 3764TIP3    H211299   0.380   1.373   2.189
 3765TIP3   OH211300   3.592   4.615   4.720
 3765TIP3    H111301   3.665   4.586   4.666
 3765TIP3    H211302   3.524   4.641   4.657
 3766TIP3   OH211303   2.603   3.400   1.735
 3766TIP3    H111304   2.661   3.330   1.704
 3766TIP3    H211305   2.532   3.403   1.671
 3767TIP3   OH211306   1.907   1.659   0.872
 3767TIP3    H111307   1.830   1.654   0.815
 3767TIP3    H211308   1.970   1.711   0.821
 3768TIP3   OH211309   0.566   3.311   4.778
 3768TIP3    H111310   0.619   3.390   4.780
 3768TIP3    H211311   0.622   3.244   4.817
 3769TIP3   OH211312   4.458   4.564   1.611
 3769TIP3    H111313   4.449   4.525   1.697
 3769TIP3    H211314   4.537   4.525   1.574
 3770TIP3   OH211315   5.822   4.622   1.432
 3770TIP3    H111316   5.843   4.705   1.388
 3770TIP3    H211317   5.907   4.587   1.458
 3771TIP3   OH211318   0.858   0.604   1.084
 3771TIP3    H111319   0.884   0.592   1.175
 3771TIP3    H211320   0.877   0.520   1.042
 3772TIP3   OH211321   2.197   4.720   4.434
 3772TIP3    H111322   2.147   4.673   4.501
 3772TIP3    H211323   2.286   4.685   4.442
 3773TIP3   OH211324   5.250   2.099   2.646
 3773TIP3    H111325   5.304   2.020   2.640
 3773TIP3    H211326   5.307   2.170   2.617
 3774TIP3   OH211327   0.729   5.642   0.105
 3774TIP3    H111328   0.818   5.679   0.104
 3774TIP3    H211329   0.742   5.548   0.089
 3775TIP3   OH211330   3.603   3.472   3.931
 3775TIP3    H111331   3.662   3.499   3.861
 3775TIP3    H211332   3.545   3.407   3.890
 3776TIP3   OH211333   6.018   1.216   4.379
 3776TIP3    H111334   5.975   1.297   4.350
 3776TIP3    H211335   6.112   1.234   4.371
 3777TIP3   OH211336   4.093   4.070   1.622
 3777TIP3    H111337   4.124   4.136   1.683
 3777TIP3    H211338   4.043   4.119   1.557
 3778TIP3   OH211339   0.973   1.680   3.985
 3778TIP3    H111340   1.039   1.613   3.968
 3778TIP3    H211341   0.893   1.647   3.945
 3779TIP3   OH211342   1.511   0.760   4.129
 3779TIP3    H111343   1.574   0.688   4.139
 3779TIP3    H211344   1.564   0.839   4.131
 3780TIP3   OH211345   4.116   5.397   1.154
 3780TIP3    H111346   4.117   5.464   1.222
 3780TIP3    H211347   4.146   5.318   1.198
 3781TIP3   OH211348   0.496   0.085   3.553
 3781TIP3    H111349   0.579   0.067   3.510
 3781TIP3    H211350   0.455   0.153   3.499
 3782TIP3   OH211351   5.947   5.337   2.383
 3782TIP3    H111352   5.877   5.304   2.441
 3782TIP3    H211353   5.979   5.415   2.428
 3783TIP3   OH211354   5.329   1.049   0.163
 3783TIP3    H111355   5.403   1.043   0.224
 3783TIP3    H211356   5.364   1.095   0.087
 3784TIP3   OH211357   1.435   0.248   4.677
 3784TIP3    H111358   1.468   0.318   4.734
 3784TIP3    H211359   1.475   0.266   4.592
 3785TIP3   OH211360   1.816   4.234   1.330
 3785TIP3    H111361   1.890   4.181   1.301
 3785TIP3    H211362   1.851   4.289   1.400
 3786TIP3   OH211363   1.017   0.725   2.298
 3786TIP3    H111364   1.029   0.764   2.212
 3786TIP3    H211365   0.926   0.745   2.321
 3787TIP3   OH211366   3.987   5.901   1.126
 3787TIP3    H111367   4.018   5.894   1.217
 3787TIP3    H211368   3.949   5.989   1.120
 3788TIP3   OH211369   6.228   2.921   0.695
 3788TIP3    H111370   6.221   2.846   0.755
 3788TIP3    H211371   6.293   2.894   0.631
 3789TIP3   OH211372   5.839   0.917   0.937
 3789TIP3    H111373   5.818   0.837   0.985
 3789TIP3    H211374   5.888   0.970   1.000
 3790TIP3   OH211375   1.324   4.757   2.721
 3790TIP3    H111376   1.321   4.724   2.631
 3790TIP3    H211377   1.232   4.773   2.743
 3791TIP3   OH211378   3.446   0.315   1.883
 3791TIP3    H111379   3.396   0.322   1.802
 3791TIP3    H211380   3.398   0.252   1.936
 3792TIP3   OH211381   2.225   2.389   0.840
 3792TIP3    H111382   2.217   2.409   0.747
 3792TIP3    H211383   2.154   2.326   0.856
 3793TIP3   OH211384   4.310   4.805   3.195
 3793TIP3    H111385   4.267   4.873   3.143
 3793TIP3    H211386   4.304   4.836   3.285
 3794TIP3   OH211387   5.308   4.688   0.362
 3794TIP3    H111388   5.237   4.628   0.338
 3794TIP3    H211389   5.271   4.775   0.350
 3795TIP3   OH211390   4.541   5.944   3.962
 3795TIP3    H111391   4.470   5.905   4.012
 3795TIP3    H211392   4.573   5.873   3.907
 3796TIP3   OH211393   5.624   1.441   2.448
 3796TIP3    H111394   5.670   1.508   2.398
 3796TIP3    H211395   5.625   1.364   2.392
 3797TIP3   OH211396   4.974   2.458   5.008
 3797TIP3    H111397   5.006   2.421   4.926
 3797TIP3    H211398   4.971   2.384   5.068
 3798TIP3   OH211399   5.411   1.941   4.046
 3798TIP3    H111400   5.340   1.973   4.102
 3798TIP3    H211401   5.464   2.018   4.026
 3799TIP3   OH211402   5.558   4.613   0.287
 3799TIP3    H111403   5.476   4.630   0.334
 3799TIP3    H211404   5.613   4.568   0.351
 3800TIP3   OH211405   1.664   1.909   3.407
 3800TIP3    H111406   1.570   1.921   3.419
 3800TIP3    H211407   1.696   1.878   3.492
 3801TIP3   OH211408   1.829   3.017   3.571
 3801TIP3    H111409   1.770   2.977   3.636
 3801TIP3    H211410   1.771   3.059   3.508
 3802TIP3   OH211411   2.955   1.471   4.061
 3802TIP3    H111412   3.014   1.406   4.099
 3802TIP3    H211413   3.014   1.539   4.027
 3803TIP3   OH211414   2.662   1.095   1.728
 3803TIP3    H111415   2.656   1.158   1.656
 3803TIP3    H211416   2.581   1.044   1.722
 3804TIP3   OH211417   3.243   5.384   0.069
 3804TIP3    H111418   3.254   5.378  -0.026
 3804TIP3    H211419   3.254   5.294   0.100
 3805TIP3   OH211420   0.338   4.292   0.012
 3805TIP3    H111421   0.424   4.328   0.036
 3805TIP3    H211422   0.298   4.268   0.095
 3806TIP3   OH211423   0.303   3.531   1.209
 3806TIP3    H111424   0.313   3.611   1.260
 3806TIP3    H211425   0.297   3.560   1.118
 3807TIP3   OH211426   4.794   4.051   3.822
 3807TIP3    H111427   4.859   4.082   3.885
 3807TIP3    H211428   4.724   4.014   3.877
 3808TIP3   OH211429   2.799   3.842   2.070
 3808TIP3    H111430   2.714   3.799   2.061
 3808TIP3    H211431   2.828   3.820   2.159
 3809TIP3   OH211432   2.179   3.974   2.263
 3809TIP3    H111433   2.225   3.911   2.318
 3809TIP3    H211434   2.227   4.056   2.275
 3810TIP3   OH211435   2.549   4.549   4.900
 3810TIP3    H111436   2.581   4.610   4.834
 3810TIP3    H211437   2.601   4.470   4.887
 3811TIP3   OH211438   2.791   2.438   2.186
 3811TIP3    H111439   2.848   2.384   2.131
 3811TIP3    H211440   2.801   2.527   2.151
 3812TIP3   OH211441   6.230   1.971   1.891
 3812TIP3    H111442   6.310   1.919   1.894
 3812TIP3    H211443   6.209   1.979   1.797
 3813TIP3   OH211444   1.084   0.480   0.129
 3813TIP3    H111445   1.169   0.512   0.159
 3813TIP3    H211446   1.022   0.512   0.194
 3814TIP3   OH211447   3.029   4.532   0.250
 3814TIP3    H111448   3.071   4.449   0.272
 3814TIP3    H211449   2.962   4.544   0.318
 3815TIP3   OH211450   1.708   1.848   0.743
 3815TIP3    H111451   1.639   1.820   0.682
 3815TIP3    H211452   1.763   1.908   0.692
 3816TIP3   OH211453   0.094   3.912   4.188
 3816TIP3    H111454   0.042   3.970   4.244
 3816TIP3    H211455   0.164   3.881   4.245
 3817TIP3   OH211456   2.080   2.617   0.659
 3817TIP3    H111457   2.016   2.597   0.728
 3817TIP3    H211458   2.090   2.712   0.662
 3818TIP3   OH211459   4.405   4.270   0.971
 3818TIP3    H111460   4.416   4.301   0.882
 3818TIP3    H211461   4.494   4.255   1.003
 3819TIP3   OH211462   3.948   5.955   1.852
 3819TIP3    H111463   3.876   6.018   1.854
 3819TIP3    H211464   3.905   5.870   1.855
 3820TIP3   OH211465   1.145   5.340   0.133
 3820TIP3    H111466   1.103   5.418   0.170
 3820TIP3    H211467   1.179   5.293   0.209
 3821TIP3   OH211468   4.092   3.661   0.537
 3821TIP3    H111469   3.997   3.660   0.544
 3821TIP3    H211470   4.117   3.753   0.550
 3822TIP3   OH211471   2.367   4.272   0.792
 3822TIP3    H111472   2.409   4.188   0.810
 3822TIP3    H211473   2.311   4.256   0.716
 3823TIP3   OH211474   1.946   5.657   4.963
 3823TIP3    H111475   1.942   5.725   4.896
 3823TIP3    H211476   1.860   5.614   4.958
 3824TIP3   OH211477   3.673   4.206   1.975
 3824TIP3    H111478   3.630   4.275   2.024
 3824TIP3    H211479   3.765   4.211   2.001
 3825TIP3   OH211480   5.151   4.779   2.305
 3825TIP3    H111481   5.186   4.723   2.236
 3825TIP3    H211482   5.133   4.862   2.261
 3826TIP3   OH211483   0.317   2.329   4.795
 3826TIP3    H111484   0.295   2.420   4.813
 3826TIP3    H211485   0.402   2.333   4.750
 3827TIP3   OH211486   0.860   1.142   4.370
 3827TIP3    H111487   0.865   1.178   4.459
 3827TIP3    H211488   0.888   1.214   4.314
 3828TIP3   OH211489   5.210   3.942   0.972
 3828TIP3    H111490   5.195   3.849   0.991
 3828TIP3    H211491   5.305   3.952   0.972
 3829TIP3   OH211492   2.245   5.120   3.142
 3829TIP3    H111493   2.227   5.122   3.048
 3829TIP3    H211494   2.264   5.210   3.165
 3830TIP3   OH211495   1.329   3.783   3.451
 3830TIP3    H111496   1.381   3.836   3.512
 3830TIP3    H211497   1.296   3.845   3.387
 3831TIP3   OH211498   5.351   2.469   1.388
 3831TIP3    H111499   5.341   2.377   1.362
 3831TIP3    H211500   5.264   2.495   1.418
 3832TIP3   OH211501   2.339   0.099   0.401
 3832TIP3    H111502   2.429   0.092   0.435
 3832TIP3    H211503   2.328   0.191   0.379
 3833TIP3   OH211504   5.268   0.842   0.403
 3833TIP3    H111505   5.245   0.912   0.464
 3833TIP3    H211506   5.350   0.871   0.363
 3834TIP3   OH211507   0.870   5.809   4.617
 3834TIP3    H111508   0.860   5.760   4.698
 3834TIP3    H211509   0.866   5.743   4.548
 3835TIP3   OH211510   4.958   3.569   2.958
 3835TIP3    H111511   4.909   3.499   2.914
 3835TIP3    H211512   4.909   3.586   3.038
 3836TIP3   OH211513   4.602   2.734   1.754
 3836TIP3    H111514   4.555   2.690   1.683
 3836TIP3    H211515   4.588   2.677   1.830
 3837TIP3   OH211516   3.315   2.438   0.330
 3837TIP3    H111517   3.269   2.519   0.308
 3837TIP3    H211518   3.284   2.374   0.265
 3838TIP3   OH211519   5.715   4.092   0.571
 3838TIP3    H111520   5.791   4.065   0.623
 3838TIP3    H211521   5.644   4.099   0.634
 3839TIP3   OH211522   5.397   3.195   0.173
 3839TIP3    H111523   5.337   3.250   0.123
 3839TIP3    H211524   5.344   3.121   0.201
 3840TIP3   OH211525   2.343   2.616   0.649
 3840TIP3    H111526   2.377   2.678   0.585
 3840TIP3    H211527   2.260   2.587   0.612
 3841TIP3   OH211528   0.902   2.519   4.377
 3841TIP3    H111529   0.822   2.505   4.428
 3841TIP3    H211530   0.920   2.613   4.386
 3842TIP3   OH211531   4.490   3.752   0.366
 3842TIP3    H111532   4.570   3.753   0.418
 3842TIP3    H211533   4.419   3.753   0.430
 3843TIP3   OH211534   3.363   4.022   2.814
 3843TIP3    H111535   3.304   3.948   2.797
 3843TIP3    H211536   3.393   4.009   2.904
 3844TIP3   OH211537   1.015   1.396   2.637
 3844TIP3    H111538   0.944   1.448   2.599
 3844TIP3    H211539   1.028   1.433   2.724
 3845TIP3   OH211540   0.062   4.562   3.602
 3845TIP3    H111541   0.004   4.637   3.604
 3845TIP3    H211542   0.021   4.498   3.660
 3846TIP3   OH211543   5.177   4.642   1.015
 3846TIP3    H111544   5.231   4.615   1.089
 3846TIP3    H211545   5.234   4.698   0.962
 3847TIP3   OH211546   6.072   0.506   0.348
 3847TIP3    H111547   6.038   0.585   0.390
 3847TIP3    H211548   6.077   0.441   0.418
 3848TIP3   OH211549   5.224   5.198   3.895
 3848TIP3    H111550   5.242   5.285   3.860
 3848TIP3    H211551   5.132   5.201   3.921
 3849TIP3   OH211552   3.196   0.745   1.630
 3849TIP3    H111553   3.109   0.771   1.598
 3849TIP3    H211554   3.254   0.756   1.554
 3850TIP3   OH211555   4.574   3.712   4.085
 3850TIP3    H111556   4.483   3.691   4.106
 3850TIP3    H211557   4.614   3.628   4.063
 3851TIP3   OH211558   3.626   2.135   4.564
 3851TIP3    H111559   3.699   2.172   4.614
 3851TIP3    H211560   3.667   2.071   4.506
 3852TIP3   OH211561   5.486   0.424   2.839
 3852TIP3    H111562   5.422   0.434   2.910
 3852TIP3    H211563   5.503   0.330   2.836
 3853TIP3   OH211564   0.210   1.820   1.721
 3853TIP3    H111565   0.120   1.795   1.740
 3853TIP3    H211566   0.257   1.805   1.803
 3854TIP3   OH211567   4.611   0.535   4.173
 3854TIP3    H111568   4.679   0.492   4.226
 3854TIP3    H211569   4.601   0.479   4.097
 3855TIP3   OH211570   3.176   3.832   0.779
 3855TIP3    H111571   3.268   3.825   0.753
 3855TIP3    H211572   3.148   3.741   0.792
 3856TIP3   OH211573   0.654   0.522   0.417
 3856TIP3    H111574   0.673   0.441   0.465
 3856TIP3    H211575   0.573   0.555   0.457
 3857TIP3   OH211576   1.259   2.499   1.920
 3857TIP3    H111577   1.261   2.445   1.841
 3857TIP3    H211578   1.205   2.574   1.896
 3858TIP3   OH211579   1.153   0.872   3.793
 3858TIP3    H111580   1.076   0.887   3.848
 3858TIP3    H211581   1.134   0.920   3.713
 3859TIP3   OH211582   4.385   1.213   3.505
 3859TIP3    H111583   4.388   1.192   3.598
 3859TIP3    H211584   4.354   1.133   3.463
 3860TIP3   OH211585   0.350   5.210   3.765
 3860TIP3    H111586   0.255   5.198   3.767
 3860TIP3    H211587   0.374   5.225   3.856
 3861TIP3   OH211588   1.620   5.347   3.746
 3861TIP3    H111589   1.575   5.426   3.778
 3861TIP3    H211590   1.587   5.277   3.803
 3862TIP3   OH211591   3.076   4.153   4.268
 3862TIP3    H111592   3.129   4.097   4.324
 3862TIP3    H211593   2.996   4.168   4.318
 3863TIP3   OH211594   4.233   1.943   2.968
 3863TIP3    H111595   4.179   1.928   2.890
 3863TIP3    H211596   4.206   1.876   3.030
 3864TIP3   OH211597   1.036   1.401   3.250
 3864TIP3    H111598   0.978   1.349   3.195
 3864TIP3    H211599   1.036   1.488   3.210
 3865TIP3   OH211600   0.501   2.887   1.382
 3865TIP3    H111601   0.544   2.859   1.301
 3865TIP3    H211602   0.515   2.814   1.442
 3866TIP3   OH211603   4.802   5.739   2.039
 3866TIP3    H111604   4.729   5.791   2.073
 3866TIP3    H211605   4.806   5.761   1.946
 3867TIP3   OH211606   2.521   2.684   0.853
 3867TIP3    H111607   2.558   2.596   0.865
 3867TIP3    H211608   2.446   2.669   0.794
 3868TIP3   OH211609   3.141   3.153   2.254
 3868TIP3    H111610   3.203   3.194   2.194
 3868TIP3    H211611   3.072   3.118   2.197
 3869TIP3   OH211612   6.086   5.894   2.433
 3869TIP3    H111613   6.065   5.938   2.515
 3869TIP3    H211614   6.181   5.905   2.424
 3870TIP3   OH211615   3.737   4.955   3.560
 3870TIP3    H111616   3.655   4.968   3.608
 3870TIP3    H211617   3.785   4.891   3.612
 3871TIP3   OH211618   3.039   2.594   0.151
 3871TIP3    H111619   3.049   2.643   0.070
 3871TIP3    H211620   2.959   2.543   0.138
 3872TIP3   OH211621   0.818   2.736   2.092
 3872TIP3    H111622   0.895   2.789   2.074
 3872TIP3    H211623   0.798   2.752   2.184
 3873TIP3   OH211624   0.234   1.155   4.641
 3873TIP3    H111625   0.301   1.143   4.575
 3873TIP3    H211626   0.168   1.088   4.621
 3874TIP3   OH211627   3.209   5.333   3.250
 3874TIP3    H111628   3.254   5.279   3.184
 3874TIP3    H211629   3.277   5.392   3.283
 3875TIP3   OH211630   4.166   3.351   3.827
 3875TIP3    H111631   4.257   3.365   3.854
 3875TIP3    H211632   4.113   3.391   3.896
 3876TIP3   OH211633   1.680   3.976   0.518
 3876TIP3    H111634   1.595   4.011   0.545
 3876TIP3    H211635   1.697   3.906   0.580
 3877TIP3   OH211636   3.459   5.725   2.854
 3877TIP3    H111637   3.553   5.730   2.839
 3877TIP3    H211638   3.430   5.650   2.802
 3878TIP3   OH211639   4.646   0.092   1.939
 3878TIP3    H111640   4.651   0.055   2.027
 3878TIP3    H211641   4.563   0.059   1.904
 3879TIP3   OH211642   4.826   0.619   4.426
 3879TIP3    H111643   4.779   0.554   4.373
 3879TIP3    H211644   4.906   0.574   4.453
 3880TIP3   OH211645   6.049   4.140   0.143
 3880TIP3    H111646   6.063   4.180   0.057
 3880TIP3    H211647   6.137   4.128   0.178
 3881TIP3   OH211648  -0.023   2.656   4.339
 3881TIP3    H111649   0.019   2.587   4.391
 3881TIP3    H211650   0.005   2.738   4.379
 3882TIP3   OH211651   5.617   2.999   0.610
 3882TIP3    H111652   5.640   3.091   0.622
 3882TIP3    H211653   5.596   2.967   0.698
 3883TIP3   OH211654   6.284   1.900   1.639
 3883TIP3    H111655   6.280   1.837   1.568
 3883TIP3    H211656   6.359   1.956   1.617
 3884TIP3   OH211657   5.746   1.532   1.532
 3884TIP3    H111658   5.753   1.626   1.518
 3884TIP3    H211659   5.712   1.523   1.621
 3885TIP3   OH211660   3.854   4.121   0.213
 3885TIP3    H111661   3.929   4.062   0.212
 3885TIP3    H211662   3.810   4.104   0.296
 3886TIP3   OH211663   1.609   5.017   4.322
 3886TIP3    H111664   1.670   4.954   4.361
 3886TIP3    H211665   1.551   5.042   4.394
 3887TIP3   OH211666   3.966   1.638   0.486
 3887TIP3    H111667   4.022   1.612   0.558
 3887TIP3    H211668   4.023   1.687   0.427
 3888TIP3   OH211669   5.861   3.047   0.137
 3888TIP3    H111670   5.827   2.965   0.173
 3888TIP3    H211671   5.937   3.020   0.084
 3889TIP3   OH211672   3.735   3.772   4.009
 3889TIP3    H111673   3.640   3.772   3.998
 3889TIP3    H211674   3.768   3.813   3.929
 3890TIP3   OH211675   5.311   3.170   2.444
 3890TIP3    H111676   5.300   3.136   2.533
 3890TIP3    H211677   5.394   3.134   2.415
 3891TIP3   OH211678   3.267   2.876   4.556
 3891TIP3    H111679   3.221   2.807   4.509
 3891TIP3    H211680   3.298   2.835   4.637
 3892TIP3   OH211681   3.712   2.123   1.022
 3892TIP3    H111682   3.807   2.126   1.010
 3892TIP3    H211683   3.677   2.146   0.937
 3893TIP3   OH211684   2.916   5.943   0.466
 3893TIP3    H111685   2.879   6.031   0.458
 3893TIP3    H211686   2.897   5.901   0.382
 3894TIP3   OH211687   3.810   4.944   5.020
 3894TIP3    H111688   3.879   4.917   5.081
 3894TIP3    H211689   3.806   5.039   5.029
 3895TIP3   OH211690   5.296   3.250   4.756
 3895TIP3    H111691   5.333   3.336   4.776
 3895TIP3    H211692   5.216   3.246   4.809
 3896TIP3   OH211693   0.433   2.149   1.038
 3896TIP3    H111694   0.381   2.115   1.112
 3896TIP3    H211695   0.506   2.194   1.079
 3897TIP3   OH211696   5.773   0.999   2.698
 3897TIP3    H111697   5.727   0.922   2.731
 3897TIP3    H211698   5.724   1.074   2.734
 3898TIP3   OH211699   4.538   5.292   3.078
 3898TIP3    H111700   4.584   5.375   3.067
 3898TIP3    H211701   4.445   5.315   3.079
 3899TIP3   OH211702   0.131   5.928   4.199
 3899TIP3    H111703   0.130   5.833   4.187
 3899TIP3    H211704   0.039   5.951   4.210
 3900TIP3   OH211705   1.573   1.529   5.102
 3900TIP3    H111706   1.626   1.605   5.126
 3900TIP3    H211707   1.634   1.456   5.102
 3901TIP3   OH211708   0.379   3.852   0.756
 3901TIP3    H111709   0.473   3.836   0.768
 3901TIP3    H211710   0.349   3.779   0.701
 3902TIP3   OH211711   6.265   2.289   0.232
 3902TIP3    H111712   6.354   2.284   0.267
 3902TIP3    H211713   6.268   2.360   0.167
 3903TIP3   OH211714   3.913   3.066   2.520
 3903TIP3    H111715   3.921   3.038   2.429
 3903TIP3    H211716   3.854   3.002   2.560
 3904TIP3   OH211717   4.030   4.648   1.949
 3904TIP3    H111718   4.012   4.574   1.892
 3904TIP3    H211719   4.123   4.641   1.969
 3905TIP3   OH211720   1.671   2.349   4.877
 3905TIP3    H111721   1.722   2.282   4.832
 3905TIP3    H211722   1.675   2.324   4.970
 3906TIP3   OH211723   6.007   2.758   4.376
 3906TIP3    H111724   5.943   2.825   4.399
 3906TIP3    H211725   6.067   2.756   4.452
 3907TIP3   OH211726   3.935   2.073   3.589
 3907TIP3    H111727   4.010   2.133   3.595
 3907TIP3    H211728   3.867   2.125   3.545
 3908TIP3   OH211729   0.167   5.725   5.109
 3908TIP3    H111730   0.090   5.687   5.066
 3908TIP3    H211731   0.160   5.819   5.094
 3909TIP3   OH211732   2.595   5.680   0.495
 3909TIP3    H111733   2.658   5.717   0.558
 3909TIP3    H211734   2.597   5.586   0.512
 3910TIP3   OH211735   0.538   3.227   2.263
 3910TIP3    H111736   0.485   3.193   2.334
 3910TIP3    H211737   0.502   3.314   2.244
 3911TIP3   OH211738   0.613   2.455   3.867
 3911TIP3    H111739   0.618   2.360   3.879
 3911TIP3    H211740   0.702   2.482   3.844
 3912TIP3   OH211741   3.374   5.590   4.535
 3912TIP3    H111742   3.387   5.671   4.484
 3912TIP3    H211743   3.437   5.529   4.498
 3913TIP3   OH211744   0.749   4.140   5.005
 3913TIP3    H111745   0.802   4.112   4.931
 3913TIP3    H211746   0.742   4.062   5.061
 3914TIP3   OH211747   4.126   4.173   3.270
 3914TIP3    H111748   4.208   4.127   3.290
 3914TIP3    H211749   4.139   4.207   3.181
 3915TIP3   OH211750   2.506   2.138   0.851
 3915TIP3    H111751   2.496   2.127   0.756
 3915TIP3    H211752   2.600   2.142   0.865
 3916TIP3   OH211753   3.826   2.511   0.985
 3916TIP3    H111754   3.918   2.530   1.007
 3916TIP3    H211755   3.789   2.595   0.961
 3917TIP3   OH211756   2.998   0.595   1.404
 3917TIP3    H111757   2.990   0.623   1.312
 3917TIP3    H211758   3.023   0.503   1.399
 3918TIP3   OH211759   2.029   0.725   4.830
 3918TIP3    H111760   2.068   0.806   4.795
 3918TIP3    H211761   1.935   0.737   4.816
 3919TIP3   OH211762   2.613   3.445   2.323
 3919TIP3    H111763   2.565   3.454   2.241
 3919TIP3    H211764   2.605   3.530   2.365
 3920TIP3   OH211765   5.007   3.442   4.395
 3920TIP3    H111766   4.956   3.486   4.327
 3920TIP3    H211767   4.945   3.426   4.465
 3921TIP3   OH211768   2.442   4.967   1.272
 3921TIP3    H111769   2.443   4.887   1.323
 3921TIP3    H211770   2.354   4.972   1.236
 3922TIP3   OH211771   2.746   1.840   4.416
 3922TIP3    H111772   2.705   1.761   4.379
 3922TIP3    H211773   2.789   1.881   4.342
 3923TIP3   OH211774   4.721   2.355   4.352
 3923TIP3    H111775   4.747   2.270   4.386
 3923TIP3    H211776   4.773   2.366   4.272
 3924TIP3   OH211777   5.734   1.908   4.281
 3924TIP3    H111778   5.790   1.930   4.355
 3924TIP3    H211779   5.683   1.833   4.310
 3925TIP3   OH211780   6.184   1.386   2.364
 3925TIP3    H111781   6.184   1.299   2.404
 3925TIP3    H211782   6.164   1.445   2.436
 3926TIP3   OH211783   2.318   4.590   1.681
 3926TIP3    H111784   2.289   4.507   1.643
 3926TIP3    H211785   2.249   4.613   1.743
 3927TIP3   OH211786   5.989   2.127   4.278
 3927TIP3    H111787   5.981   2.223   4.276
 3927TIP3    H211788   6.029   2.104   4.194
 3928TIP3   OH211789   4.098   3.894   4.378
 3928TIP3    H111790   4.088   3.878   4.472
 3928TIP3    H211791   4.190   3.919   4.368
 3929TIP3   OH211792   1.425   1.880   1.525
 3929TIP3    H111793   1.486   1.842   1.588
 3929TIP3    H211794   1.436   1.827   1.446
 3930TIP3   OH211795   4.679   0.695   1.446
 3930TIP3    H111796   4.638   0.729   1.526
 3930TIP3    H211797   4.721   0.771   1.407
 3931TIP3   OH211798   0.768   3.561   1.229
 3931TIP3    H111799   0.850   3.584   1.186
 3931TIP3    H211800   0.794   3.524   1.313
 3932TIP3   OH211801   3.139   2.343   3.445
 3932TIP3    H111802   3.085   2.410   3.403
 3932TIP3    H211803   3.184   2.300   3.373
 3933TIP3   OH211804   2.613   3.377   0.461
 3933TIP3    H111805   2.668   3.363   0.539
 3933TIP3    H211806   2.613   3.471   0.448
 3934TIP3   OH211807   3.975   1.423   4.675
 3934TIP3    H111808   4.019   1.403   4.592
 3934TIP3    H211809   3.989   1.345   4.729
 3935TIP3   OH211810   2.860   3.214   3.620
 3935TIP3    H111811   2.950   3.244   3.606
 3935TIP3    H211812   2.838   3.168   3.540
 3936TIP3   OH211813   2.280   4.589   0.557
 3936TIP3    H111814   2.340   4.552   0.494
 3936TIP3    H211815   2.332   4.653   0.606
 3937TIP3   OH211816   1.094   4.391   1.324
 3937TIP3    H111817   1.007   4.367   1.290
 3937TIP3    H211818   1.121   4.464   1.269
 3938TIP3   OH211819   5.134   3.509   3.506
 3938TIP3    H111820   5.179   3.425   3.516
 3938TIP3    H211821   5.171   3.564   3.575
 3939TIP3   OH211822   2.936   0.462   2.109
 3939TIP3    H111823   3.028   0.454   2.082
 3939TIP3    H211824   2.894   0.384   2.074
 3940TIP3   OH211825   3.674   5.226   3.758
 3940TIP3    H111826   3.715   5.312   3.746
 3940TIP3    H211827   3.743   5.173   3.800
 3941TIP3   OH211828   4.433   3.457   4.907
 3941TIP3    H111829   4.398   3.405   4.979
 3941TIP3    H211830   4.441   3.545   4.944
 3942TIP3   OH211831  -0.022   0.272   3.186
 3942TIP3    H111832   0.000   0.296   3.096
 3942TIP3    H211833   0.061   0.244   3.225
 3943TIP3   OH211834   3.019   5.316   2.234
 3943TIP3    H111835   2.947   5.269   2.277
 3943TIP3    H211836   3.020   5.402   2.276
 3944TIP3   OH211837   3.003   4.013   3.165
 3944TIP3    H111838   2.987   4.104   3.189
 3944TIP3    H211839   2.985   4.011   3.071
 3945TIP3   OH211840   2.997   4.469   2.804
 3945TIP3    H111841   2.920   4.420   2.834
 3945TIP3    H211842   3.072   4.418   2.836
 3946TIP3   OH211843   4.216   1.372   4.044
 3946TIP3    H111844   4.235   1.305   4.111
 3946TIP3    H211845   4.288   1.435   4.053
 3947TIP3   OH211846   3.598   0.663   4.360
 3947TIP3    H111847   3.600   0.585   4.416
 3947TIP3    H211848   3.688   0.694   4.357
 3948TIP3   OH211849   3.348   1.904   3.544
 3948TIP3    H111850   3.347   1.864   3.457
 3948TIP3    H211851   3.383   1.992   3.529
 3949TIP3   OH211852   6.208   3.919   1.407
 3949TIP3    H111853   6.161   3.909   1.489
 3949TIP3    H211854   6.225   3.829   1.378
 3950TIP3   OH211855   3.973   5.647   3.583
 3950TIP3    H111856   3.974   5.739   3.610
 3950TIP3    H211857   3.908   5.606   3.639
 3951TIP3   OH211858   1.318   4.057   2.356
 3951TIP3    H111859   1.229   4.093   2.358
 3951TIP3    H211860   1.321   4.007   2.274
 3952TIP3   OH211861   2.542   2.410   0.609
 3952TIP3    H111862   2.482   2.478   0.639
 3952TIP3    H211863   2.607   2.404   0.679
 3953TIP3   OH211864   2.575   5.184   1.389
 3953TIP3    H111865   2.512   5.256   1.385
 3953TIP3    H211866   2.529   5.109   1.352
 3954TIP3   OH211867   3.831   4.772   2.112
 3954TIP3    H111868   3.883   4.725   2.047
 3954TIP3    H211869   3.817   4.708   2.182
 3955TIP3   OH211870   0.166   4.936   3.485
 3955TIP3    H111871   0.252   4.895   3.498
 3955TIP3    H211872   0.175   4.984   3.402
 3956TIP3   OH211873   2.959   0.122   0.668
 3956TIP3    H111874   2.937   0.170   0.748
 3956TIP3    H211875   3.040   0.163   0.637
 3957TIP3   OH211876   5.181   0.156   2.439
 3957TIP3    H111877   5.270   0.155   2.403
 3957TIP3    H211878   5.192   0.187   2.529
 3958TIP3   OH211879   0.251   3.679   1.786
 3958TIP3    H111880   0.224   3.759   1.830
 3958TIP3    H211881   0.191   3.612   1.821
 3959TIP3   OH211882   4.603   5.735   0.125
 3959TIP3    H111883   4.648   5.741   0.209
 3959TIP3    H211884   4.597   5.825   0.094
 3960TIP3   OH211885   5.253   4.842   1.475
 3960TIP3    H111886   5.212   4.804   1.397
 3960TIP3    H211887   5.340   4.802   1.479
 3961TIP3   OH211888   2.779   5.617   3.535
 3961TIP3    H111889   2.861   5.652   3.500
 3961TIP3    H211890   2.781   5.524   3.511
 3962TIP3   OH211891   2.245   2.168   2.394
 3962TIP3    H111892   2.208   2.150   2.480
 3962TIP3    H211893   2.331   2.126   2.395
 3963TIP3   OH211894   5.451   1.002   2.850
 3963TIP3    H111895   5.423   1.089   2.878
 3963TIP3    H211896   5.445   0.949   2.929
 3964TIP3   OH211897   0.644   2.327   4.282
 3964TIP3    H111898   0.624   2.410   4.325
 3964TIP3    H211899   0.695   2.278   4.346
 3965TIP3   OH211900   5.014   1.837   3.741
 3965TIP3    H111901   4.936   1.782   3.738
 3965TIP3    H211902   5.053   1.828   3.654
 3966TIP3   OH211903   6.240   4.392   2.793
 3966TIP3    H111904   6.308   4.386   2.861
 3966TIP3    H211905   6.158   4.379   2.840
 3967TIP3   OH211906   0.023   3.424   4.508
 3967TIP3    H111907   0.066   3.463   4.432
 3967TIP3    H211908  -0.064   3.399   4.476
 3968TIP3   OH211909   2.013   1.169   0.668
 3968TIP3    H111910   2.000   1.225   0.744
 3968TIP3    H211911   2.100   1.131   0.680
 3969TIP3   OH211912   2.353   3.289   1.896
 3969TIP3    H111913   2.404   3.233   1.838
 3969TIP3    H211914   2.273   3.240   1.913
 3970TIP3   OH211915   3.275   0.363   3.468
 3970TIP3    H111916   3.319   0.281   3.491
 3970TIP3    H211917   3.209   0.374   3.537
 3971TIP3   OH211918   3.379   1.625   1.849
 3971TIP3    H111919   3.294   1.638   1.891
 3971TIP3    H211920   3.424   1.562   1.906
 3972TIP3   OH211921   5.569   3.946   1.256
 3972TIP3    H111922   5.492   3.919   1.307
 3972TIP3    H211923   5.634   3.970   1.322
 3973TIP3   OH211924   4.150   3.280   3.277
 3973TIP3    H111925   4.198   3.337   3.216
 3973TIP3    H211926   4.069   3.259   3.230
 3974TIP3   OH211927   5.860   1.772   4.968
 3974TIP3    H111928   5.772   1.741   4.947
 3974TIP3    H211929   5.859   1.783   5.064
 3975TIP3   OH211930   1.770   3.321   2.284
 3975TIP3    H111931   1.704   3.256   2.260
 3975TIP3    H211932   1.775   3.316   2.380
 3976TIP3   OH211933   1.323   1.582   0.418
 3976TIP3    H111934   1.292   1.589   0.327
 3976TIP3    H211935   1.243   1.572   0.469
 3977TIP3   OH211936   2.820   5.303   3.047
 3977TIP3    H111937   2.849   5.257   2.968
 3977TIP3    H211938   2.892   5.362   3.068
 3978TIP3   OH211939   1.162   0.730   2.600
 3978TIP3    H111940   1.104   0.761   2.530
 3978TIP3    H211941   1.249   0.760   2.574
 3979TIP3   OH211942   3.012   5.967   3.381
 3979TIP3    H111943   3.102   5.975   3.412
 3979TIP3    H211944   2.958   5.982   3.458
 3980TIP3   OH211945   2.994   3.596   3.871
 3980TIP3    H111946   2.908   3.576   3.906
 3980TIP3    H211947   2.985   3.586   3.777
 3981TIP3   OH211948   3.020   0.072   4.813
 3981TIP3    H111949   3.083   0.121   4.866
 3981TIP3    H211950   3.075   0.026   4.749
 3982TIP3   OH211951   2.762   1.637   3.070
 3982TIP3    H111952   2.679   1.595   3.048
 3982TIP3    H211953   2.792   1.592   3.149
 3983TIP3   OH211954   5.283   0.235   1.914
 3983TIP3    H111955   5.199   0.234   1.868
 3983TIP3    H211956   5.342   0.282   1.856
 3984TIP3   OH211957   2.258  -0.003   4.999
 3984TIP3    H111958   2.200  -0.008   4.923
 3984TIP3    H211959   2.209   0.049   5.063
 3985TIP3   OH211960   4.924   3.377   1.464
 3985TIP3    H111961   4.975   3.337   1.394
 3985TIP3    H211962   4.870   3.306   1.498
 3986TIP3   OH211963   4.912   4.496   3.259
 3986TIP3    H111964   4.925   4.526   3.349
 3986TIP3    H211965   4.943   4.569   3.205
 3987TIP3   OH211966   3.062   0.610   0.713
 3987TIP3    H111967   3.067   0.703   0.736
 3987TIP3    H211968   3.030   0.609   0.623
 3988TIP3   OH211969   4.600   4.845   0.914
 3988TIP3    H111970   4.505   4.859   0.910
 3988TIP3    H211971   4.621   4.851   1.008
 3989TIP3   OH211972   5.184   2.410   2.928
 3989TIP3    H111973   5.118   2.418   2.997
 3989TIP3    H211974   5.210   2.318   2.928
 3990TIP3   OH211975   5.633   0.657   2.818
 3990TIP3    H111976   5.591   0.571   2.822
 3990TIP3    H211977   5.680   0.663   2.901
 3991TIP3   OH211978   6.134   1.560   0.887
 3991TIP3    H111979   6.069   1.581   0.954
 3991TIP3    H211980   6.216   1.554   0.936
 3992TIP3   OH211981   0.205   0.886   0.147
 3992TIP3    H111982   0.279   0.834   0.116
 3992TIP3    H211983   0.206   0.965   0.093
 3993TIP3   OH211984   1.242   5.368   1.461
 3993TIP3    H111985   1.219   5.446   1.511
 3993TIP3    H211986   1.220   5.391   1.370
 3994TIP3   OH211987   4.881   2.367   1.612
 3994TIP3    H111988   4.880   2.314   1.533
 3994TIP3    H211989   4.837   2.448   1.586
 3995TIP3   OH211990   1.212   1.129   4.521
 3995TIP3    H111991   1.305   1.137   4.545
 3995TIP3    H211992   1.170   1.093   4.598
 3996TIP3   OH211993   0.806   3.943   4.384
 3996TIP3    H111994   0.797   3.872   4.447
 3996TIP3    H211995   0.900   3.963   4.384
 3997TIP3   OH211996   5.847   4.546   3.094
 3997TIP3    H111997   5.781   4.482   3.070
 3997TIP3    H211998   5.845   4.610   3.022
 3998TIP3   OH211999   5.911   1.987   1.025
 3998TIP3    H112000   5.899   2.033   1.108
 3998TIP3    H212001   5.934   1.897   1.050
 3999TIP3   OH212002   6.162   0.423   1.584
 3999TIP3    H112003   6.128   0.336   1.604
 3999TIP3    H212004   6.122   0.480   1.650
 4000TIP3   OH212005   0.428   3.628   2.696
 4000TIP3    H112006   0.474   3.632   2.612
 4000TIP3    H212007   0.379   3.545   2.692
 4001TIP3   OH212008   3.063   4.088   3.564
 4001TIP3    H112009   3.116   4.161   3.597
 4001TIP3    H212010   2.992   4.130   3.516
 4002TIP3   OH212011   3.913   5.291   1.895
 4002TIP3    H112012   3.909   5.387   1.902
 4002TIP3    H212013   3.892   5.273   1.803
 4003TIP3   OH212014   0.456   5.039   4.636
 4003TIP3    H112015   0.537   5.087   4.619
 4003TIP3    H212016   0.478   4.947   4.617
 4004TIP3   OH212017   4.784   2.831   5.128
 4004TIP3    H112018   4.764   2.844   5.035
 4004TIP3    H212019   4.876   2.805   5.129
 4005TIP3   OH212020   5.245   4.446   1.330
 4005TIP3    H112021   5.300   4.373   1.301
 4005TIP3    H212022   5.161   4.430   1.287
 4006TIP3   OH212023   2.086   0.095   3.296
 4006TIP3    H112024   2.108   0.144   3.216
 4006TIP3    H212025   2.012   0.142   3.334
 4007TIP3   OH212026   0.360   3.081   2.801
 4007TIP3    H112027   0.286   3.107   2.855
 4007TIP3    H212028   0.419   3.035   2.862
 4008TIP3   OH212029   3.900   4.702   0.711
 4008TIP3    H112030   3.889   4.697   0.806
 4008TIP3    H212031   3.931   4.792   0.696
 4009TIP3   OH212032   2.131   4.811   3.013
 4009TIP3    H112033   2.169   4.887   2.969
 4009TIP3    H212034   2.198   4.743   3.005
 4010TIP3   OH212035   5.812   3.053   3.827
 4010TIP3    H112036   5.843   3.029   3.914
 4010TIP3    H212037   5.751   2.983   3.803
 4011TIP3   OH212038   1.920   2.260   0.590
 4011TIP3    H112039   1.825   2.270   0.601
 4011TIP3    H212040   1.942   2.184   0.644
 4012TIP3   OH212041   0.500   1.018   0.096
 4012TIP3    H112042   0.484   0.965   0.018
 4012TIP3    H212043   0.542   1.097   0.063
 4013TIP3   OH212044   0.044   1.489   4.097
 4013TIP3    H112045   0.055   1.575   4.139
 4013TIP3    H212046   0.124   1.441   4.119
 4014TIP3   OH212047   0.428   5.361   0.622
 4014TIP3    H112048   0.478   5.311   0.686
 4014TIP3    H212049   0.481   5.439   0.605
 4015TIP3   OH212050   4.097   4.924   0.702
 4015TIP3    H112051   4.182   4.931   0.658
 4015TIP3    H212052   4.061   5.013   0.699
 4016TIP3   OH212053   5.213   4.422   2.732
 4016TIP3    H112054   5.140   4.362   2.721
 4016TIP3    H212055   5.218   4.470   2.650
 4017TIP3   OH212056   6.160   1.886   2.143
 4017TIP3    H112057   6.204   1.875   2.059
 4017TIP3    H212058   6.082   1.937   2.123
 4018TIP3   OH212059   5.049   5.781   2.885
 4018TIP3    H112060   4.977   5.845   2.880
 4018TIP3    H212061   5.049   5.740   2.799
 4019TIP3   OH212062   0.476   4.557   4.389
 4019TIP3    H112063   0.516   4.596   4.311
 4019TIP3    H212064   0.411   4.495   4.355
 4020TIP3   OH212065   4.082   3.524   1.929
 4020TIP3    H112066   4.112   3.434   1.913
 4020TIP3    H212067   4.160   3.570   1.961
 4021TIP3   OH212068   1.183   4.042   4.123
 4021TIP3    H112069   1.184   3.978   4.194
 4021TIP3    H212070   1.118   4.009   4.061
 4022TIP3   OH212071   4.598   0.844   2.667
 4022TIP3    H112072   4.535   0.793   2.616
 4022TIP3    H212073   4.558   0.931   2.673
 4023TIP3   OH212074   0.262   0.391   4.023
 4023TIP3    H112075   0.266   0.468   3.967
 4023TIP3    H212076   0.327   0.407   4.092
 4024TIP3   OH212077   1.033   1.344   1.252
 4024TIP3    H112078   1.071   1.432   1.246
 4024TIP3    H212079   1.093   1.295   1.309
 4025TIP3   OH212080   2.791   5.645   4.554
 4025TIP3    H112081   2.809   5.739   4.559
 4025TIP3    H212082   2.865   5.604   4.598
 4026TIP3   OH212083   3.109   0.738   3.698
 4026TIP3    H112084   3.151   0.665   3.743
 4026TIP3    H212085   3.115   0.810   3.760
 4027TIP3   OH212086   2.678   0.285   2.410
 4027TIP3    H112087   2.636   0.272   2.495
 4027TIP3    H212088   2.765   0.320   2.432
 4028TIP3   OH212089   3.551   0.724   0.976
 4028TIP3    H112090   3.637   0.744   1.013
 4028TIP3    H212091   3.555   0.753   0.885
 4029TIP3   OH212092   1.256   2.985   4.064
 4029TIP3    H112093   1.213   2.954   3.985
 4029TIP3    H212094   1.193   2.968   4.134
 4030TIP3   OH212095   2.816   2.923   4.870
 4030TIP3    H112096   2.817   2.897   4.962
 4030TIP3    H212097   2.890   2.983   4.861
 4031TIP3   OH212098   4.512   5.600   1.432
 4031TIP3    H112099   4.499   5.554   1.515
 4031TIP3    H212100   4.601   5.576   1.406
 4032TIP3   OH212101   0.470   3.844   3.775
 4032TIP3    H112102   0.403   3.851   3.843
 4032TIP3    H212103   0.484   3.750   3.765
 4033TIP3   OH212104   2.270   1.906   0.174
 4033TIP3    H112105   2.361   1.903   0.205
 4033TIP3    H212106   2.250   1.816   0.147
 4034TIP3   OH212107   4.454   5.377   2.139
 4034TIP3    H112108   4.548   5.362   2.133
 4034TIP3    H212109   4.445   5.472   2.145
 4035TIP3   OH212110   6.019   5.614   3.395
 4035TIP3    H112111   6.088   5.622   3.330
 4035TIP3    H212112   5.954   5.679   3.370
 4036TIP3   OH212113   0.432   1.340   1.763
 4036TIP3    H112114   0.351   1.326   1.813
 4036TIP3    H212115   0.405   1.389   1.686
 4037TIP3   OH212116   6.291   4.294   4.106
 4037TIP3    H112117   6.340   4.343   4.172
 4037TIP3    H212118   6.269   4.359   4.039
 4038TIP3   OH212119   1.042   0.512   4.927
 4038TIP3    H112120   1.099   0.569   4.978
 4038TIP3    H212121   1.066   0.423   4.954
 4039TIP3   OH212122   5.251   2.132   4.353
 4039TIP3    H112123   5.221   2.158   4.440
 4039TIP3    H212124   5.287   2.045   4.365
 4040TIP3   OH212125   4.642   3.268   4.910
 4040TIP3    H112126   4.560   3.307   4.879
 4040TIP3    H212127   4.687   3.340   4.954
 4041TIP3   OH212128   5.278   1.137   0.971
 4041TIP3    H112129   5.283   1.229   0.944
 4041TIP3    H212130   5.335   1.091   0.910
 4042TIP3   OH212131   3.476   0.071   4.398
 4042TIP3    H112132   3.415   0.096   4.468
 4042TIP3    H212133   3.547   0.026   4.444
 4043TIP3   OH212134   1.397   3.638   3.804
 4043TIP3    H112135   1.456   3.704   3.842
 4043TIP3    H212136   1.368   3.677   3.721
 4044TIP3   OH212137   0.103   2.949   1.567
 4044TIP3    H112138   0.040   3.005   1.522
 4044TIP3    H212139   0.187   2.970   1.527
 4045TIP3   OH212140   5.404   2.489   0.653
 4045TIP3    H112141   5.331   2.476   0.713
 4045TIP3    H212142   5.475   2.434   0.689
 4046TIP3   OH212143   2.189   3.975   4.673
 4046TIP3    H112144   2.183   3.956   4.766
 4046TIP3    H212145   2.279   4.006   4.661
 4047TIP3   OH212146   6.021   5.632   0.851
 4047TIP3    H112147   5.996   5.555   0.800
 4047TIP3    H212148   5.944   5.688   0.849
 4048TIP3   OH212149   2.989   2.915   3.124
 4048TIP3    H112150   2.999   2.974   3.049
 4048TIP3    H212151   2.922   2.852   3.097
 4049TIP3   OH212152   2.337   1.227   4.968
 4049TIP3    H112153   2.258   1.227   4.915
 4049TIP3    H212154   2.406   1.253   4.908
 4050TIP3   OH212155   5.963   3.445   0.604
 4050TIP3    H112156   6.044   3.483   0.569
 4050TIP3    H212157   5.926   3.394   0.532
 4051TIP3   OH212158   3.167   2.760   2.340
 4051TIP3    H112159   3.258   2.758   2.370
 4051TIP3    H212160   3.172   2.794   2.251
 4052TIP3   OH212161   2.133   5.869   2.461
 4052TIP3    H112162   2.221   5.886   2.427
 4052TIP3    H212163   2.074   5.906   2.396
 4053TIP3   OH212164   4.042   0.851   0.613
 4053TIP3    H112165   3.993   0.895   0.543
 4053TIP3    H212166   3.986   0.778   0.639
 4054TIP3   OH212167   2.339   5.109   2.369
 4054TIP3    H112168   2.342   5.117   2.274
 4054TIP3    H212169   2.253   5.073   2.388
 4055TIP3   OH212170   0.309   3.310   4.635
 4055TIP3    H112171   0.389   3.359   4.656
 4055TIP3    H212172   0.244   3.378   4.618
 4056TIP3   OH212173   1.975   5.238   1.031
 4056TIP3    H112174   1.939   5.226   0.943
 4056TIP3    H212175   2.033   5.315   1.023
 4057TIP3   OH212176   4.351   1.571   4.843
 4057TIP3    H112177   4.294   1.589   4.768
 4057TIP3    H212178   4.291   1.547   4.913
 4058TIP3   OH212179   0.547   1.447   3.819
 4058TIP3    H112180   0.552   1.354   3.794
 4058TIP3    H212181   0.541   1.494   3.735
 4059TIP3   OH212182   1.573   3.213   1.535
 4059TIP3    H112183   1.620   3.165   1.603
 4059TIP3    H212184   1.570   3.303   1.566
 4060TIP3   OH212185   0.944   5.372   0.527
 4060TIP3    H112186   0.993   5.420   0.594
 4060TIP3    H212187   1.011   5.336   0.469
 4061TIP3   OH212188   1.774   3.277   3.760
 4061TIP3    H112189   1.692   3.313   3.795
 4061TIP3    H212190   1.778   3.189   3.796
 4062TIP3   OH212191   1.419   2.043   3.412
 4062TIP3    H112192   1.421   2.082   3.325
 4062TIP3    H212193   1.403   2.117   3.471
 4063TIP3   OH212194   0.195   2.568   1.421
 4063TIP3    H112195   0.283   2.550   1.454
 4063TIP3    H212196   0.189   2.664   1.421
 4064TIP3   OH212197   0.265   5.391   3.556
 4064TIP3    H112198   0.194   5.333   3.528
 4064TIP3    H212199   0.297   5.351   3.637
 4065TIP3   OH212200   2.944   4.892   0.793
 4065TIP3    H112201   2.852   4.915   0.780
 4065TIP3    H212202   2.992   4.953   0.738
 4066TIP3   OH212203   0.970   0.903   2.875
 4066TIP3    H112204   0.960   0.966   2.804
 4066TIP3    H212205   1.060   0.872   2.867
 4067TIP3   OH212206   5.786   0.273   1.015
 4067TIP3    H112207   5.862   0.325   0.990
 4067TIP3    H212208   5.712   0.315   0.972
 4068TIP3   OH212209   0.123   0.314   3.588
 4068TIP3    H112210   0.092   0.395   3.629
 4068TIP3    H212211   0.140   0.255   3.661
 4069TIP3   OH212212   0.302   5.936   0.741
 4069TIP3    H112213   0.352   5.931   0.823
 4069TIP3    H212214   0.369   5.953   0.674
 4070TIP3   OH212215   2.198   2.886   4.310
 4070TIP3    H112216   2.168   2.959   4.363
 4070TIP3    H212217   2.178   2.808   4.362
 4071TIP3   OH212218   2.560   3.783   0.152
 4071TIP3    H112219   2.473   3.783   0.194
 4071TIP3    H212220   2.553   3.848   0.083
 4072TIP3   OH212221   2.612   1.667   3.803
 4072TIP3    H112222   2.659   1.721   3.739
 4072TIP3    H212223   2.594   1.585   3.757
 4073TIP3   OH212224   4.812   3.683   1.290
 4073TIP3    H112225   4.820   3.693   1.385
 4073TIP3    H212226   4.738   3.738   1.266
 4074TIP3   OH212227  -0.004   3.951   2.873
 4074TIP3    H112228   0.078   3.987   2.907
 4074TIP3    H212229  -0.072   3.989   2.929
 4075TIP3   OH212230   2.059   3.734   3.248
 4075TIP3    H112231   2.063   3.726   3.343
 4075TIP3    H212232   1.988   3.795   3.231
 4076TIP3   OH212233   2.483   3.832   1.022
 4076TIP3    H112234   2.408   3.886   0.997
 4076TIP3    H212235   2.447   3.768   1.084
 4077TIP3   OH212236   4.153   1.194   4.764
 4077TIP3    H112237   4.220   1.212   4.699
 4077TIP3    H212238   4.115   1.111   4.737
 4078TIP3   OH212239   4.580   4.782   1.198
 4078TIP3    H112240   4.575   4.687   1.195
 4078TIP3    H212241   4.541   4.806   1.282
 4079TIP3   OH212242   5.305   5.899   0.466
 4079TIP3    H112243   5.271   5.981   0.432
 4079TIP3    H212244   5.393   5.920   0.497
 4080TIP3   OH212245   6.304   5.344   3.214
 4080TIP3    H112246   6.270   5.420   3.167
 4080TIP3    H212247   6.291   5.271   3.154
 4081TIP3   OH212248   1.521   3.450   2.396
 4081TIP3    H112249   1.592   3.401   2.438
 4081TIP3    H212250   1.565   3.513   2.339
 4082TIP3   OH212251   2.103   2.169   1.122
 4082TIP3    H112252   2.064   2.256   1.130
 4082TIP3    H212253   2.154   2.158   1.202
 4083TIP3   OH212254   5.791   1.977   4.014
 4083TIP3    H112255   5.728   2.043   3.984
 4083TIP3    H212256   5.754   1.943   4.095
 4084TIP3   OH212257   0.216   0.056   2.965
 4084TIP3    H112258   0.241   0.029   3.053
 4084TIP3    H212259   0.207   0.151   2.970
 4085TIP3   OH212260   3.819   5.471   1.711
 4085TIP3    H112261   3.843   5.499   1.622
 4085TIP3    H212262   3.780   5.385   1.699
 4086TIP3   OH212263   0.406   0.591   0.125
 4086TIP3    H112264   0.454   0.525   0.074
 4086TIP3    H212265   0.464   0.667   0.126
 4087TIP3   OH212266   0.256   1.616   4.969
 4087TIP3    H112267   0.308   1.538   4.987
 4087TIP3    H212268   0.234   1.609   4.877
 4088TIP3   OH212269   0.271   0.160   4.844
 4088TIP3    H112270   0.187   0.180   4.886
 4088TIP3    H212271   0.280   0.226   4.776
 4089TIP3   OH212272   0.293   3.404   2.591
 4089TIP3    H112273   0.201   3.417   2.565
 4089TIP3    H212274   0.314   3.316   2.560
 4090TIP3   OH212275   5.840   5.860   0.777
 4090TIP3    H112276   5.895   5.937   0.766
 4090TIP3    H212277   5.815   5.834   0.689
 4091TIP3   OH212278   4.167   1.942   0.664
 4091TIP3    H112279   4.204   1.863   0.704
 4091TIP3    H212280   4.083   1.953   0.709
 4092TIP3   OH212281   2.161   0.979   4.070
 4092TIP3    H112282   2.140   0.929   3.991
 4092TIP3    H212283   2.249   0.951   4.093
 4093TIP3   OH212284   5.564   1.556   0.939
 4093TIP3    H112285   5.587   1.629   0.997
 4093TIP3    H212286   5.566   1.594   0.852
 4094TIP3   OH212287   5.785   4.588   4.830
 4094TIP3    H112288   5.823   4.611   4.915
 4094TIP3    H212289   5.719   4.521   4.850
 4095TIP3   OH212290   6.199   2.687   0.097
 4095TIP3    H112291   6.216   2.694   0.003
 4095TIP3    H212292   6.152   2.604   0.107
 4096TIP3   OH212293   2.777   5.126   4.487
 4096TIP3    H112294   2.836   5.169   4.425
 4096TIP3    H212295   2.828   5.122   4.569
 4097TIP3   OH212296   6.009   2.332   1.244
 4097TIP3    H112297   6.079   2.300   1.301
 4097TIP3    H212298   6.045   2.323   1.156
 4098TIP3   OH212299   3.006   1.049   4.903
 4098TIP3    H112300   2.933   1.015   4.852
 4098TIP3    H212301   3.084   1.021   4.854
 4099TIP3   OH212302   6.029   3.406   2.120
 4099TIP3    H112303   6.077   3.324   2.128
 4099TIP3    H212304   6.093   3.474   2.140
 4100TIP3   OH212305   0.855   1.134   1.236
 4100TIP3    H112306   0.918   1.073   1.196
 4100TIP3    H212307   0.908   1.210   1.258
 4101TIP3   OH212308   3.591   3.349   5.147
 4101TIP3    H112309   3.671   3.385   5.110
 4101TIP3    H212310   3.538   3.322   5.072
 4102TIP3   OH212311   2.786   4.458   1.194
 4102TIP3    H112312   2.736   4.400   1.251
 4102TIP3    H212313   2.874   4.420   1.194
 4103TIP3   OH212314   1.929   5.442   4.175
 4103TIP3    H112315   1.867   5.500   4.130
 4103TIP3    H212316   1.928   5.471   4.266
 4104TIP3   OH212317   1.199   0.175   4.267
 4104TIP3    H112318   1.234   0.264   4.270
 4104TIP3    H212319   1.264   0.125   4.218
 4105TIP3   OH212320   5.959   1.118   1.410
 4105TIP3    H112321   6.013   1.177   1.464
 4105TIP3    H212322   5.960   1.158   1.323
 4106TIP3   OH212323   4.948   0.439   1.398
 4106TIP3    H112324   5.028   0.399   1.433
 4106TIP3    H212325   4.953   0.530   1.425
 4107TIP3   OH212326   3.923   5.485   0.119
 4107TIP3    H112327   3.987   5.461   0.052
 4107TIP3    H212328   3.976   5.508   0.195
 4108TIP3   OH212329   3.642   2.944   2.331
 4108TIP3    H112330   3.704   2.886   2.374
 4108TIP3    H212331   3.614   3.004   2.400
 4109TIP3   OH212332   2.641   3.522   0.821
 4109TIP3    H112333   2.680   3.468   0.753
 4109TIP3    H212334   2.547   3.510   0.811
 4110TIP3   OH212335   4.856   0.882   2.838
 4110TIP3    H112336   4.865   0.940   2.763
 4110TIP3    H212337   4.819   0.802   2.803
 4111TIP3   OH212338   4.326   0.202   2.621
 4111TIP3    H112339   4.258   0.264   2.593
 4111TIP3    H212340   4.374   0.182   2.541
 4112TIP3   OH212341   4.177   4.316   4.348
 4112TIP3    H112342   4.186   4.297   4.441
 4112TIP3    H212343   4.203   4.408   4.340
 4113TIP3   OH212344   1.352   4.739   4.550
 4113TIP3    H112345   1.391   4.652   4.549
 4113TIP3    H212346   1.265   4.727   4.513
 4114TIP3   OH212347   4.203   4.816   1.307
 4114TIP3    H112348   4.125   4.857   1.347
 4114TIP3    H212349   4.225   4.873   1.234
 4115TIP3   OH212350   4.362   0.568   0.157
 4115TIP3    H112351   4.430   0.521   0.109
 4115TIP3    H212352   4.383   0.553   0.249
 4116TIP3   OH212353   3.330   1.282   1.091
 4116TIP3    H112354   3.362   1.234   1.168
 4116TIP3    H212355   3.337   1.219   1.019
 4117TIP3   OH212356   4.760   1.757   4.113
 4117TIP3    H112357   4.707   1.741   4.191
 4117TIP3    H212358   4.832   1.812   4.143
 4118TIP3   OH212359   5.811   2.911   4.747
 4118TIP3    H112360   5.825   3.001   4.774
 4118TIP3    H212361   5.871   2.898   4.674
 4119TIP3   OH212362   1.388   4.853   5.067
 4119TIP3    H112363   1.450   4.924   5.084
 4119TIP3    H212364   1.364   4.863   4.975
 4120TIP3   OH212365   1.887   0.776   1.623
 4120TIP3    H112366   1.915   0.798   1.534
 4120TIP3    H212367   1.802   0.733   1.611
 4121TIP3   OH212368   4.267   1.896   2.581
 4121TIP3    H112369   4.245   1.972   2.635
 4121TIP3    H212370   4.252   1.926   2.491
 4122TIP3   OH212371   5.297   3.036   2.706
 4122TIP3    H112372   5.381   3.046   2.750
 4122TIP3    H212373   5.232   3.066   2.769
 4123TIP3   OH212374   5.861   4.109   4.194
 4123TIP3    H112375   5.952   4.098   4.168
 4123TIP3    H212376   5.842   4.201   4.178
 4124TIP3   OH212377   1.167   4.469   5.173
 4124TIP3    H112378   1.074   4.455   5.190
 4124TIP3    H212379   1.194   4.394   5.121
 4125TIP3   OH212380   3.760   1.780   2.888
 4125TIP3    H112381   3.810   1.757   2.967
 4125TIP3    H212382   3.821   1.768   2.816
 4126TIP3   OH212383   5.825   2.242   4.969
 4126TIP3    H112384   5.732   2.255   4.992
 4126TIP3    H212385   5.872   2.266   5.049
 4127TIP3   OH212386   4.095   5.626   1.716
 4127TIP3    H112387   4.017   5.572   1.730
 4127TIP3    H212388   4.164   5.563   1.698
 4128TIP3   OH212389   1.783   4.638   4.664
 4128TIP3    H112390   1.708   4.582   4.646
 4128TIP3    H212391   1.782   4.648   4.759
 4129TIP3   OH212392   6.075   3.705   0.889
 4129TIP3    H112393   6.033   3.627   0.853
 4129TIP3    H212394   6.005   3.751   0.935
 4130TIP3   OH212395   1.147   5.348   1.202
 4130TIP3    H112396   1.147   5.442   1.182
 4130TIP3    H212397   1.186   5.307   1.125
 4131TIP3   OH212398   2.370   4.134   3.714
 4131TIP3    H112399   2.377   4.220   3.755
 4131TIP3    H212400   2.306   4.145   3.644
 4132TIP3   OH212401   5.102   1.473   5.001
 4132TIP3    H112402   5.084   1.494   4.909
 4132TIP3    H212403   5.069   1.549   5.050
 4133TIP3   OH212404   0.141   5.669   4.793
 4133TIP3    H112405   0.091   5.639   4.869
 4133TIP3    H212406   0.207   5.728   4.829
 4134TIP3   OH212407   5.679   2.343   2.434
 4134TIP3    H112408   5.762   2.391   2.437
 4134TIP3    H212409   5.704   2.251   2.429
 4135TIP3   OH212410   0.939   3.666   2.896
 4135TIP3    H112411   0.885   3.716   2.957
 4135TIP3    H212412   0.881   3.649   2.821
 4136TIP3   OH212413   3.222   0.454   3.212
 4136TIP3    H112414   3.282   0.407   3.154
 4136TIP3    H212415   3.230   0.410   3.296
 4137TIP3   OH212416   3.862   5.112   3.359
 4137TIP3    H112417   3.848   5.205   3.372
 4137TIP3    H212418   3.804   5.069   3.422
 4138TIP3   OH212419   1.688   2.992   1.737
 4138TIP3    H112420   1.703   2.905   1.700
 4138TIP3    H212421   1.764   3.043   1.710
 4139TIP3   OH212422   4.465   2.462   4.812
 4139TIP3    H112423   4.450   2.533   4.751
 4139TIP3    H212424   4.552   2.429   4.790
 4140TIP3   OH212425   3.481   0.841   2.590
 4140TIP3    H112426   3.395   0.801   2.600
 4140TIP3    H212427   3.542   0.767   2.593
 4141TIP3   OH212428   0.269   5.530   3.173
 4141TIP3    H112429   0.196   5.473   3.147
 4141TIP3    H212430   0.331   5.472   3.216
 4142TIP3   OH212431   3.563   3.502   0.671
 4142TIP3    H112432   3.562   3.429   0.733
 4142TIP3    H212433   3.651   3.539   0.679
 4143TIP3   OH212434   0.402   5.925   4.615
 4143TIP3    H112435   0.407   5.863   4.687
 4143TIP3    H212436   0.366   6.005   4.655
 4144TIP3   OH212437   4.634   3.074   2.773
 4144TIP3    H112438   4.600   3.072   2.862
 4144TIP3    H212439   4.556   3.087   2.718
 4145TIP3   OH212440   5.610   5.802   1.291
 4145TIP3    H112441   5.517   5.786   1.302
 4145TIP3    H212442   5.615   5.879   1.234
 4146TIP3   OH212443   1.434   5.146   0.131
 4146TIP3    H112444   1.397   5.232   0.114
 4146TIP3    H212445   1.385   5.086   0.076
 4147TIP3   OH212446   3.861   4.364   2.928
 4147TIP3    H112447   3.854   4.454   2.896
 4147TIP3    H212448   3.777   4.324   2.904
 4148TIP3   OH212449   2.164   3.073   4.522
 4148TIP3    H112450   2.082   3.047   4.563
 4148TIP3    H212451   2.231   3.057   4.588
 4149TIP3   OH212452   0.635   3.391   3.042
 4149TIP3    H112453   0.667   3.328   3.107
 4149TIP3    H212454   0.678   3.364   2.960
 4150TIP3   OH212455   1.324   0.064   4.920
 4150TIP3    H112456   1.360   0.110   4.845
 4150TIP3    H212457   1.388  -0.005   4.938
 4151TIP3   OH212458   5.198   5.296   0.912
 4151TIP3    H112459   5.112   5.285   0.872
 4151TIP3    H212460   5.200   5.388   0.940
 4152TIP3   OH212461   0.909   0.594   0.307
 4152TIP3    H112462   0.823   0.572   0.342
 4152TIP3    H212463   0.918   0.688   0.320
 4153TIP3   OH212464   4.674   2.987   3.498
 4153TIP3    H112465   4.714   3.069   3.470
 4153TIP3    H212466   4.724   2.961   3.576
 4154TIP3   OH212467   3.509   3.157   1.367
 4154TIP3    H112468   3.537   3.152   1.458
 4154TIP3    H212469   3.415   3.174   1.372
 4155TIP3   OH212470   3.502   1.475   2.709
 4155TIP3    H112471   3.453   1.423   2.646
 4155TIP3    H212472   3.502   1.421   2.789
 4156TIP3   OH212473   3.823   1.000   3.576
 4156TIP3    H112474   3.857   0.925   3.624
 4156TIP3    H212475   3.757   1.039   3.633
 4157TIP3   OH212476   2.589   0.097   0.518
 4157TIP3    H112477   2.638   0.179   0.504
 4157TIP3    H212478   2.656   0.034   0.543
 4158TIP3   OH212479   1.527   3.626   1.188
 4158TIP3    H112480   1.433   3.643   1.198
 4158TIP3    H212481   1.538   3.597   1.098
 4159TIP3   OH212482   2.069   2.943   0.394
 4159TIP3    H112483   2.069   3.038   0.381
 4159TIP3    H212484   2.081   2.906   0.307
 4160TIP3   OH212485   1.032   3.353   3.198
 4160TIP3    H112486   1.051   3.383   3.109
 4160TIP3    H212487   0.945   3.315   3.193
 4161TIP3   OH212488   0.768   4.740   3.990
 4161TIP3    H112489   0.790   4.833   3.992
 4161TIP3    H212490   0.834   4.699   4.046
 4162TIP3   OH212491   3.707   3.158   4.655
 4162TIP3    H112492   3.631   3.116   4.615
 4162TIP3    H212493   3.735   3.098   4.724
 4163TIP3   OH212494   5.298   2.270   0.433
 4163TIP3    H112495   5.213   2.297   0.467
 4163TIP3    H212496   5.340   2.353   0.408
 4164TIP3   OH212497   3.177   4.165   2.570
 4164TIP3    H112498   3.216   4.078   2.565
 4164TIP3    H212499   3.249   4.223   2.596
 4165TIP3   OH212500   4.923   2.222   1.377
 4165TIP3    H112501   4.886   2.147   1.422
 4165TIP3    H212502   4.963   2.186   1.298
 4166TIP3   OH212503   4.713   5.261   4.353
 4166TIP3    H112504   4.621   5.240   4.370
 4166TIP3    H212505   4.762   5.192   4.399
 4167TIP3   OH212506   2.543   3.882   1.815
 4167TIP3    H112507   2.545   3.821   1.889
 4167TIP3    H212508   2.527   3.968   1.856
 4168TIP3   OH212509   2.395   2.850   2.424
 4168TIP3    H112510   2.410   2.897   2.342
 4168TIP3    H212511   2.301   2.834   2.425
 4169TIP3   OH212512   0.101   2.794   2.646
 4169TIP3    H112513   0.035   2.752   2.591
 4169TIP3    H212514   0.100   2.886   2.619
 4170TIP3   OH212515   5.638   3.230   5.054
 4170TIP3    H112516   5.711   3.285   5.084
 4170TIP3    H212517   5.639   3.238   4.959
 4171TIP3   OH212518   1.292   1.889   0.927
 4171TIP3    H112519   1.349   1.825   0.884
 4171TIP3    H212520   1.343   1.920   1.002
 4172TIP3   OH212521   6.046   1.565   4.910
 4172TIP3    H112522   6.133   1.599   4.889
 4172TIP3    H212523   5.993   1.643   4.926
 4173TIP3   OH212524   3.292   3.185   2.536
 4173TIP3    H112525   3.215   3.205   2.589
 4173TIP3    H212526   3.261   3.190   2.446
 4174TIP3   OH212527   0.620   0.008   2.911
 4174TIP3    H112528   0.558  -0.064   2.919
 4174TIP3    H212529   0.583   0.078   2.965
 4175TIP3   OH212530   3.553   2.437   0.779
 4175TIP3    H112531   3.543   2.457   0.872
 4175TIP3    H212532   3.470   2.465   0.740
 4176TIP3   OH212533   0.202   4.767   5.153
 4176TIP3    H112534   0.297   4.773   5.165
 4176TIP3    H212535   0.189   4.789   5.061
 4177TIP3   OH212536   1.629   2.670   0.947
 4177TIP3    H112537   1.640   2.763   0.968
 4177TIP3    H212538   1.567   2.637   1.012
 4178TIP3   OH212539   1.493   5.201   1.523
 4178TIP3    H112540   1.425   5.264   1.498
 4178TIP3    H212541   1.575   5.246   1.503
 4179TIP3   OH212542   4.155   4.913   1.971
 4179TIP3    H112543   4.117   4.825   1.969
 4179TIP3    H212544   4.206   4.915   2.051
 4180TIP3   OH212545   0.874   1.713   4.324
 4180TIP3    H112546   0.852   1.624   4.351
 4180TIP3    H212547   0.799   1.741   4.270
 4181TIP3   OH212548   5.459   5.431   2.591
 4181TIP3    H112549   5.484   5.430   2.683
 4181TIP3    H212550   5.370   5.396   2.589
 4182TIP3   OH212551   1.229   5.171   5.017
 4182TIP3    H112552   1.291   5.131   5.078
 4182TIP3    H212553   1.273   5.251   4.988
 4183TIP3   OH212554   3.218   2.448   2.904
 4183TIP3    H112555   3.172   2.410   2.979
 4183TIP3    H212556   3.153   2.450   2.834
 4184TIP3   OH212557   3.816   3.600   0.612
 4184TIP3    H112558   3.780   3.597   0.524
 4184TIP3    H212559   3.816   3.693   0.635
 4185TIP3   OH212560   2.845   2.588   4.600
 4185TIP3    H112561   2.869   2.555   4.687
 4185TIP3    H212562   2.771   2.646   4.617
 4186TIP3   OH212563   2.605   1.704   2.238
 4186TIP3    H112564   2.654   1.727   2.317
 4186TIP3    H212565   2.520   1.675   2.270
 4187TIP3   OH212566   5.595   2.852   3.203
 4187TIP3    H112567   5.652   2.930   3.201
 4187TIP3    H212568   5.611   2.809   3.120
 4188TIP3   OH212569   5.424   3.478   3.189
 4188TIP3    H112570   5.450   3.401   3.240
 4188TIP3    H212571   5.470   3.469   3.106
 4189TIP3   OH212572   4.073   3.871   1.185
 4189TIP3    H112573   4.111   3.938   1.129
 4189TIP3    H212574   4.132   3.796   1.176
 4190TIP3   OH212575   5.765   4.565   1.734
 4190TIP3    H112576   5.830   4.502   1.705
 4190TIP3    H212577   5.776   4.640   1.676
 4191TIP3   OH212578   1.484   0.636   0.994
 4191TIP3    H112579   1.513   0.636   0.903
 4191TIP3    H212580   1.544   0.576   1.038
 4192TIP3   OH212581   2.065   4.819   4.233
 4192TIP3    H112582   2.122   4.779   4.299
 4192TIP3    H212583   2.023   4.892   4.278
 4193TIP3   OH212584   5.320   4.956   1.180
 4193TIP3    H112585   5.325   4.861   1.174
 4193TIP3    H212586   5.315   4.974   1.274
 4194TIP3   OH212587   3.733   5.634   0.275
 4194TIP3    H112588   3.770   5.581   0.205
 4194TIP3    H212589   3.651   5.589   0.299
 4195TIP3   OH212590   0.317   2.567   2.809
 4195TIP3    H112591   0.229   2.603   2.813
 4195TIP3    H212592   0.360   2.614   2.738
 4196TIP3   OH212593   0.734   3.389   3.637
 4196TIP3    H112594   0.784   3.435   3.704
 4196TIP3    H212595   0.796   3.377   3.565
 4197TIP3   OH212596   5.428   2.029   0.397
 4197TIP3    H112597   5.365   2.095   0.425
 4197TIP3    H212598   5.482   2.073   0.332
 4198TIP3   OH212599   5.997   3.475   3.567
 4198TIP3    H112600   6.086   3.441   3.555
 4198TIP3    H212601   6.007   3.543   3.634
 4199TIP3   OH212602   0.583   2.491   1.703
 4199TIP3    H112603   0.668   2.508   1.743
 4199TIP3    H212604   0.600   2.420   1.641
 4200TIP3   OH212605   4.137   2.147   1.385
 4200TIP3    H112606   4.196   2.215   1.416
 4200TIP3    H212607   4.096   2.112   1.464
 4201TIP3   OH212608   1.154   1.718   5.113
 4201TIP3    H112609   1.204   1.799   5.105
 4201TIP3    H212610   1.151   1.701   5.207
 4202TIP3   OH212611   4.936   2.503   0.760
 4202TIP3    H112612   4.917   2.510   0.666
 4202TIP3    H212613   4.993   2.577   0.778
 4203TIP3   OH212614   4.227   2.439   0.409
 4203TIP3    H112615   4.280   2.402   0.338
 4203TIP3    H212616   4.183   2.514   0.369
 4204TIP3   OH212617   2.834   4.718   1.100
 4204TIP3    H112618   2.905   4.699   1.038
 4204TIP3    H212619   2.810   4.632   1.136
 4205TIP3   OH212620   3.487   4.143   1.304
 4205TIP3    H112621   3.524   4.078   1.364
 4205TIP3    H212622   3.432   4.198   1.359
 4206TIP3   OH212623   5.745   3.791   2.120
 4206TIP3    H112624   5.654   3.815   2.107
 4206TIP3    H212625   5.781   3.786   2.032
 4207TIP3   OH212626   1.983   1.332   0.405
 4207TIP3    H112627   2.077   1.345   0.396
 4207TIP3    H212628   1.969   1.320   0.499
 4208TIP3   OH212629   0.172   4.745   2.401
 4208TIP3    H112630   0.129   4.752   2.316
 4208TIP3    H212631   0.248   4.804   2.394
 4209TIP3   OH212632   3.561   5.525   0.450
 4209TIP3    H112633   3.609   5.493   0.526
 4209TIP3    H212634   3.512   5.448   0.419
 4210TIP3   OH212635   1.047   0.797   4.541
 4210TIP3    H112636   0.960   0.821   4.570
 4210TIP3    H212637   1.063   0.851   4.463
 4211TIP3   OH212638   3.758   1.339   3.465
 4211TIP3    H112639   3.704   1.271   3.506
 4211TIP3    H212640   3.780   1.399   3.536
 4212TIP3   OH212641   3.628   2.181   0.788
 4212TIP3    H112642   3.640   2.149   0.699
 4212TIP3    H212643   3.600   2.272   0.777
 4213TIP3   OH212644   0.373   3.135   2.493
 4213TIP3    H112645   0.353   3.048   2.458
 4213TIP3    H212646   0.357   3.127   2.587
 4214TIP3   OH212647   2.558   1.181   2.345
 4214TIP3    H112648   2.518   1.249   2.291
 4214TIP3    H212649   2.529   1.200   2.434
 4215TIP3   OH212650   0.766   1.618   3.380
 4215TIP3    H112651   0.857   1.640   3.357
 4215TIP3    H212652   0.745   1.543   3.325
 4216TIP3   OH212653   3.749   5.139   2.108
 4216TIP3    H112654   3.782   5.175   2.026
 4216TIP3    H212655   3.818   5.158   2.172
 4217TIP3   OH212656   4.578   0.221   3.838
 4217TIP3    H112657   4.496   0.173   3.850
 4217TIP3    H212658   4.563   0.306   3.878
 4218TIP3   OH212659   5.075   4.929   4.420
 4218TIP3    H112660   5.013   4.918   4.492
 4218TIP3    H212661   5.077   5.023   4.404
 4219TIP3   OH212662   2.195   5.218   1.704
 4219TIP3    H112663   2.248   5.285   1.660
 4219TIP3    H212664   2.258   5.167   1.756
 4220TIP3   OH212665   1.689   0.515   4.078
 4220TIP3    H112666   1.764   0.525   4.020
 4220TIP3    H212667   1.631   0.454   4.031
 4221TIP3   OH212668   1.567   2.519   3.080
 4221TIP3    H112669   1.519   2.554   3.156
 4221TIP3    H212670   1.654   2.557   3.088
 4222TIP3   OH212671   3.412   4.383   0.133
 4222TIP3    H112672   3.388   4.300   0.174
 4222TIP3    H212673   3.462   4.358   0.056
 4223TIP3   OH212674   4.670   5.118   0.246
 4223TIP3    H112675   4.660   5.078   0.332
 4223TIP3    H212676   4.758   5.156   0.247
 4224TIP3   OH212677   1.755   1.079   2.591
 4224TIP3    H112678   1.805   0.998   2.606
 4224TIP3    H212679   1.663   1.052   2.598
 4225TIP3   OH212680   2.361   4.052   1.119
 4225TIP3    H112681   2.272   4.021   1.108
 4225TIP3    H212682   2.385   4.028   1.208
 4226TIP3   OH212683   3.961   4.805   3.050
 4226TIP3    H112684   4.013   4.856   3.112
 4226TIP3    H212685   3.908   4.747   3.105
 4227TIP3   OH212686   2.120   1.214   4.807
 4227TIP3    H112687   2.029   1.244   4.818
 4227TIP3    H212688   2.159   1.278   4.747
 4228TIP3   OH212689   4.837   3.579   2.232
 4228TIP3    H112690   4.801   3.630   2.160
 4228TIP3    H212691   4.909   3.632   2.265
 4229TIP3   OH212692   3.601   3.200   4.287
 4229TIP3    H112693   3.531   3.173   4.228
 4229TIP3    H212694   3.577   3.161   4.372
 4230TIP3   OH212695   5.868   0.534   1.397
 4230TIP3    H112696   5.876   0.566   1.486
 4230TIP3    H212697   5.952   0.557   1.356
 4231TIP3   OH212698   1.698   2.200   2.724
 4231TIP3    H112699   1.648   2.147   2.661
 4231TIP3    H212700   1.662   2.176   2.809
 4232TIP3   OH212701   4.617   4.941   0.025
 4232TIP3    H112702   4.617   4.992   0.107
 4232TIP3    H212703   4.708   4.914   0.014
 4233TIP3   OH212704   6.167   4.775   4.260
 4233TIP3    H112705   6.247   4.826   4.272
 4233TIP3    H212706   6.170   4.709   4.330
 4234TIP3   OH212707   6.318   5.283   2.431
 4234TIP3    H112708   6.244   5.338   2.405
 4234TIP3    H212709   6.280   5.197   2.446
 4235TIP3   OH212710   3.343   3.004   0.052
 4235TIP3    H112711   3.361   3.074  -0.011
 4235TIP3    H212712   3.333   3.050   0.136
 4236TIP3   OH212713   0.612   4.819   0.996
 4236TIP3    H112714   0.614   4.787   1.086
 4236TIP3    H212715   0.661   4.754   0.947
 4237TIP3   OH212716   1.159   1.224   0.051
 4237TIP3    H112717   1.084   1.228   0.110
 4237TIP3    H212718   1.200   1.139   0.070
 4238TIP3   OH212719   0.178   1.028   2.686
 4238TIP3    H112720   0.144   1.009   2.774
 4238TIP3    H212721   0.155   1.119   2.670
 4239TIP3   OH212722   6.048   4.298   1.914
 4239TIP3    H112723   5.981   4.344   1.965
 4239TIP3    H212724   6.025   4.317   1.823
 4240TIP3   OH212725   3.024   1.866   4.562
 4240TIP3    H112726   2.952   1.804   4.548
 4240TIP3    H212727   3.097   1.813   4.592
 4241TIP3   OH212728   0.662   0.485   2.338
 4241TIP3    H112729   0.566   0.490   2.331
 4241TIP3    H212730   0.686   0.419   2.273
 4242TIP3   OH212731   5.582   2.987   0.227
 4242TIP3    H112732   5.643   2.915   0.243
 4242TIP3    H212733   5.496   2.945   0.222
 4243TIP3   OH212734   4.863   4.138   3.563
 4243TIP3    H112735   4.853   4.087   3.643
 4243TIP3    H212736   4.951   4.176   3.569
 4244TIP3   OH212737   4.684   2.465   0.558
 4244TIP3    H112738   4.651   2.554   0.572
 4244TIP3    H212739   4.623   2.409   0.606
 4245TIP3   OH212740   5.902   3.630   3.297
 4245TIP3    H112741   5.918   3.702   3.236
 4245TIP3    H212742   5.861   3.672   3.373
 4246TIP3   OH212743   0.315   1.817   1.242
 4246TIP3    H112744   0.397   1.847   1.282
 4246TIP3    H212745   0.293   1.738   1.291
 4247TIP3   OH212746   3.950   4.725   0.982
 4247TIP3    H112747   4.004   4.799   0.955
 4247TIP3    H212748   4.011   4.667   1.028
 4248TIP3   OH212749   5.263   5.647   4.586
 4248TIP3    H112750   5.348   5.671   4.622
 4248TIP3    H212751   5.277   5.641   4.492
 4249TIP3   OH212752   1.013   2.756   0.094
 4249TIP3    H112753   1.023   2.746  -0.001
 4249TIP3    H212754   1.065   2.685   0.131
 4250TIP3   OH212755   1.357   4.798   1.334
 4250TIP3    H112756   1.436   4.746   1.349
 4250TIP3    H212757   1.362   4.869   1.398
 4251TIP3   OH212758   6.371   1.199   1.574
 4251TIP3    H112759   6.290   1.215   1.623
 4251TIP3    H212760   6.345   1.145   1.500
 4252TIP3   OH212761   0.852   4.074   0.188
 4252TIP3    H112762   0.774   4.078   0.132
 4252TIP3    H212763   0.874   4.166   0.205
 4253TIP3   OH212764   6.089   1.478   1.823
 4253TIP3    H112765   6.175   1.448   1.851
 4253TIP3    H212766   6.032   1.461   1.899
 4254TIP3   OH212767   1.841   3.343   3.134
 4254TIP3    H112768   1.917   3.385   3.094
 4254TIP3    H212769   1.792   3.415   3.173
 4255TIP3   OH212770   1.550   1.165   4.542
 4255TIP3    H112771   1.581   1.168   4.632
 4255TIP3    H212772   1.622   1.128   4.492
 4256TIP3   OH212773   1.904   5.166   4.050
 4256TIP3    H112774   1.911   5.252   4.091
 4256TIP3    H212775   1.868   5.110   4.120
 4257TIP3   OH212776   0.988   2.891   2.469
 4257TIP3    H112777   0.954   2.834   2.400
 4257TIP3    H212778   0.969   2.979   2.438
 4258TIP3   OH212779   2.840   2.465   3.943
 4258TIP3    H112780   2.883   2.380   3.951
 4258TIP3    H212781   2.913   2.527   3.934
 4259TIP3   OH212782   1.942   3.728   0.276
 4259TIP3    H112783   1.901   3.814   0.285
 4259TIP3    H212784   2.015   3.729   0.339
 4260TIP3   OH212785   3.497   5.174   3.557
 4260TIP3    H112786   3.453   5.254   3.586
 4260TIP3    H212787   3.577   5.169   3.610
 4261TIP3   OH212788   3.022   5.706   2.212
 4261TIP3    H112789   2.980   5.639   2.266
 4261TIP3    H212790   2.969   5.785   2.228
 4262TIP3   OH212791   3.963   5.464   2.440
 4262TIP3    H112792   3.884   5.491   2.393
 4262TIP3    H212793   4.034   5.509   2.393
 4263TIP3   OH212794   1.921   4.170   3.774
 4263TIP3    H112795   1.972   4.241   3.737
 4263TIP3    H212796   1.834   4.208   3.790
 4264TIP3   OH212797   2.353   4.977   0.860
 4264TIP3    H112798   2.373   5.059   0.815
 4264TIP3    H212799   2.429   4.922   0.843
 4265TIP3   OH212800   1.995   5.846   2.712
 4265TIP3    H112801   2.065   5.874   2.653
 4265TIP3    H212802   2.020   5.757   2.739
 4266TIP3   OH212803   2.572   1.031   4.849
 4266TIP3    H112804   2.553   1.117   4.886
 4266TIP3    H212805   2.528   1.031   4.764
 4267TIP3   OH212806   0.810   2.251   4.500
 4267TIP3    H112807   0.807   2.156   4.506
 4267TIP3    H212808   0.883   2.270   4.442
 4268TIP3   OH212809   0.145   1.298   2.676
 4268TIP3    H112810   0.204   1.360   2.633
 4268TIP3    H212811   0.101   1.350   2.744
 4269TIP3   OH212812   6.169   4.058   3.050
 4269TIP3    H112813   6.223   4.080   3.126
 4269TIP3    H212814   6.105   4.128   3.044
 4270TIP3   OH212815   2.368   3.420   4.920
 4270TIP3    H112816   2.424   3.482   4.873
 4270TIP3    H212817   2.280   3.436   4.886
 4271TIP3   OH212818   3.748   2.104   2.173
 4271TIP3    H112819   3.755   2.198   2.152
 4271TIP3    H212820   3.701   2.067   2.098
 4272TIP3   OH212821   3.959   0.364   3.945
 4272TIP3    H112822   4.006   0.305   3.887
 4272TIP3    H212823   3.953   0.447   3.897
 4273TIP3   OH212824   1.223   3.771   4.007
 4273TIP3    H112825   1.293   3.715   3.974
 4273TIP3    H212826   1.145   3.744   3.959
 4274TIP3   OH212827   3.856   5.081   3.905
 4274TIP3    H112828   3.945   5.086   3.870
 4274TIP3    H212829   3.847   4.991   3.935
 4275TIP3   OH212830   3.054   1.734   1.604
 4275TIP3    H112831   2.993   1.660   1.600
 4275TIP3    H212832   3.138   1.697   1.577
 4276TIP3   OH212833   3.630   3.872   0.165
 4276TIP3    H112834   3.671   3.923   0.235
 4276TIP3    H212835   3.613   3.936   0.096
 4277TIP3   OH212836   6.276   3.511   1.482
 4277TIP3    H112837   6.218   3.548   1.549
 4277TIP3    H212838   6.356   3.563   1.487
 4278TIP3   OH212839   3.791   2.996   3.707
 4278TIP3    H112840   3.740   2.922   3.673
 4278TIP3    H212841   3.738   3.032   3.778
 4279TIP3   OH212842   5.678   5.682   2.108
 4279TIP3    H112843   5.625   5.753   2.073
 4279TIP3    H212844   5.759   5.723   2.137
 4280TIP3   OH212845   1.441   1.156   2.579
 4280TIP3    H112846   1.354   1.173   2.543
 4280TIP3    H212847   1.426   1.142   2.672
 4281TIP3   OH212848   5.669   5.081   4.696
 4281TIP3    H112849   5.733   5.021   4.657
 4281TIP3    H212850   5.584   5.042   4.676
 4282TIP3   OH212851   0.072   5.502   2.982
 4282TIP3    H112852   0.034   5.581   2.945
 4282TIP3    H212853   0.034   5.431   2.931
 4283TIP3   OH212854   3.089   5.298   1.970
 4283TIP3    H112855   3.032   5.224   1.948
 4283TIP3    H212856   3.069   5.317   2.062
 4284TIP3   OH212857   1.897   5.931   2.276
 4284TIP3    H112858   1.802   5.927   2.285
 4284TIP3    H212859   1.913   6.013   2.230
 4285TIP3   OH212860   5.517   2.075   1.394
 4285TIP3    H112861   5.444   2.125   1.357
 4285TIP3    H212862   5.516   2.096   1.487
 4286TIP3   OH212863   5.813   0.150   3.136
 4286TIP3    H112864   5.748   0.219   3.149
 4286TIP3    H212865   5.877   0.165   3.206
 4287TIP3   OH212866   5.414   3.976   3.126
 4287TIP3    H112867   5.421   4.035   3.051
 4287TIP3    H212868   5.322   3.980   3.151
 4288TIP3   OH212869   0.339   1.467   1.152
 4288TIP3    H112870   0.417   1.414   1.171
 4288TIP3    H212871   0.269   1.403   1.138
 4289TIP3   OH212872   2.299   2.734   1.079
 4289TIP3    H112873   2.267   2.646   1.100
 4289TIP3    H212874   2.343   2.725   0.995
 4290TIP3   OH212875   5.079   2.962   2.219
 4290TIP3    H112876   5.137   3.036   2.239
 4290TIP3    H212877   5.071   2.963   2.124
 4291TIP3   OH212878   2.541   3.786   4.072
 4291TIP3    H112879   2.588   3.869   4.075
 4291TIP3    H212880   2.460   3.802   4.119
 4292TIP3   OH212881   3.023   2.948   2.469
 4292TIP3    H112882   3.063   3.032   2.447
 4292TIP3    H212883   3.068   2.884   2.414
 4293TIP3   OH212884   5.129   4.138   3.176
 4293TIP3    H112885   5.104   4.213   3.121
 4293TIP3    H212886   5.073   4.067   3.145
 4294TIP3   OH212887   3.268   2.209   3.273
 4294TIP3    H112888   3.356   2.218   3.236
 4294TIP3    H212889   3.253   2.115   3.276
 4295TIP3   OH212890   5.536   0.570   4.977
 4295TIP3    H112891   5.529   0.660   5.010
 4295TIP3    H212892   5.577   0.522   5.049
 4296TIP3   OH212893   0.822   1.117   1.509
 4296TIP3    H112894   0.856   1.118   1.419
 4296TIP3    H212895   0.761   1.191   1.512
 4297TIP3   OH212896   1.817   1.346   1.609
 4297TIP3    H112897   1.743   1.369   1.553
 4297TIP3    H212898   1.808   1.251   1.623
 4298TIP3   OH212899   3.393   4.667   0.758
 4298TIP3    H112900   3.404   4.750   0.805
 4298TIP3    H212901   3.469   4.663   0.699
 4299TIP3   OH212902   5.242   4.285   2.241
 4299TIP3    H112903   5.305   4.336   2.190
 4299TIP3    H212904   5.238   4.200   2.196
 4300TIP3   OH212905   3.156   2.040   2.935
 4300TIP3    H112906   3.063   2.036   2.913
 4300TIP3    H212907   3.183   1.948   2.940
 4301TIP3   OH212908   0.189   1.666   1.476
 4301TIP3    H112909   0.116   1.721   1.447
 4301TIP3    H212910   0.231   1.716   1.546
 4302TIP3   OH212911   1.369   2.395   4.207
 4302TIP3    H112912   1.311   2.370   4.135
 4302TIP3    H212913   1.391   2.312   4.250
 4303TIP3   OH212914   1.074   0.318   4.493
 4303TIP3    H112915   1.102   0.266   4.417
 4303TIP3    H212916   1.035   0.254   4.553
 4304TIP3   OH212917   0.650   2.756   0.776
 4304TIP3    H112918   0.590   2.766   0.703
 4304TIP3    H212919   0.737   2.771   0.739
 4305TIP3   OH212920   1.873   4.241   2.430
 4305TIP3    H112921   1.823   4.170   2.390
 4305TIP3    H212922   1.929   4.274   2.360
 4306TIP3   OH212923   5.703   3.159   3.220
 4306TIP3    H112924   5.741   3.242   3.191
 4306TIP3    H212925   5.663   3.122   3.141
 4307TIP3   OH212926   5.241   0.609   5.113
 4307TIP3    H112927   5.205   0.620   5.025
 4307TIP3    H212928   5.323   0.658   5.112
 4308TIP3   OH212929   6.039   2.849   2.563
 4308TIP3    H112930   6.116   2.795   2.579
 4308TIP3    H212931   5.981   2.793   2.511
 4309TIP3   OH212932   2.447   1.946   2.368
 4309TIP3    H112933   2.384   1.875   2.359
 4309TIP3    H212934   2.528   1.903   2.395
 4310TIP3   OH212935   5.589   5.700   0.645
 4310TIP3    H112936   5.659   5.739   0.592
 4310TIP3    H212937   5.566   5.768   0.708
 4311TIP3   OH212938   2.741   4.713   0.166
 4311TIP3    H112939   2.768   4.629   0.129
 4311TIP3    H212940   2.653   4.728   0.131
 4312TIP3   OH212941   5.746   4.800   1.221
 4312TIP3    H112942   5.681   4.806   1.290
 4312TIP3    H212943   5.696   4.784   1.141
 4313TIP3   OH212944   1.885   3.010   0.799
 4313TIP3    H112945   1.930   3.089   0.829
 4313TIP3    H212946   1.894   2.948   0.870
 4314TIP3   OH212947   3.689   5.847   1.302
 4314TIP3    H112948   3.693   5.940   1.281
 4314TIP3    H212949   3.619   5.813   1.247
 4315TIP3   OH212950   5.353   3.052   4.593
 4315TIP3    H112951   5.360   2.977   4.653
 4315TIP3    H212952   5.317   3.122   4.646
 4316TIP3   OH212953   4.940   4.886   4.065
 4316TIP3    H112954   4.847   4.867   4.055
 4316TIP3    H212955   4.962   4.852   4.152
 4317TIP3   OH212956   6.008   1.515   4.064
 4317TIP3    H112957   6.014   1.482   4.154
 4317TIP3    H212958   6.036   1.606   4.071
 4318TIP3   OH212959   4.848   0.501   4.702
 4318TIP3    H112960   4.769   0.455   4.675
 4318TIP3    H212961   4.818   0.590   4.722
 4319TIP3   OH212962   3.493   2.428   4.576
 4319TIP3    H112963   3.515   2.337   4.560
 4319TIP3    H212964   3.399   2.435   4.557
 4320TIP3   OH212965   3.392   4.945   4.479
 4320TIP3    H112966   3.462   4.890   4.444
 4320TIP3    H212967   3.384   4.919   4.570
 4321TIP3   OH212968   4.067   0.827   3.313
 4321TIP3    H112969   4.106   0.796   3.232
 4321TIP3    H212970   3.983   0.865   3.287
 4322TIP3   OH212971   2.655   0.583   2.587
 4322TIP3    H112972   2.719   0.637   2.540
 4322TIP3    H212973   2.602   0.544   2.518
 4323TIP3   OH212974   4.793   3.135   1.516
 4323TIP3    H112975   4.796   3.119   1.610
 4323TIP3    H212976   4.718   3.085   1.484
 4324TIP3   OH212977   3.940   5.522   2.076
 4324TIP3    H112978   3.883   5.507   2.151
 4324TIP3    H212979   3.896   5.591   2.026
 4325TIP3   OH212980   6.156   0.813   0.468
 4325TIP3    H112981   6.129   0.904   0.452
 4325TIP3    H212982   6.230   0.799   0.408
 4326TIP3   OH212983   1.983   4.324   0.958
 4326TIP3    H112984   2.071   4.358   0.971
 4326TIP3    H212985   1.933   4.359   1.032
 4327TIP3   OH212986   5.388   1.648   3.970
 4327TIP3    H112987   5.294   1.636   3.952
 4327TIP3    H212988   5.397   1.741   3.987
 4328TIP3   OH212989   1.654   3.429   4.163
 4328TIP3    H112990   1.650   3.341   4.201
 4328TIP3    H212991   1.573   3.438   4.114
 4329TIP3   OH212992   2.244   3.259   4.343
 4329TIP3    H112993   2.176   3.320   4.316
 4329TIP3    H212994   2.198   3.189   4.390
 4330TIP3   OH212995   1.459   5.806   1.047
 4330TIP3    H112996   1.485   5.776   0.960
 4330TIP3    H212997   1.407   5.734   1.082
 4331TIP3   OH212998   2.421   4.560   4.424
 4331TIP3    H112999   2.400   4.468   4.443
 4331TIP3    H213000   2.477   4.587   4.497
 4332TIP3   OH213001   0.249   5.609   0.483
 4332TIP3    H113002   0.203   5.677   0.435
 4332TIP3    H213003   0.196   5.530   0.469
 4333TIP3   OH213004   1.105   0.630   4.112
 4333TIP3    H113005   1.169   0.701   4.121
 4333TIP3    H213006   1.028   0.660   4.160
 4334TIP3   OH213007   5.615   4.212   1.725
 4334TIP3    H113008   5.533   4.260   1.710
 4334TIP3    H213009   5.608   4.181   1.815
 4335TIP3   OH213010   4.096   4.970   1.043
 4335TIP3    H113011   4.075   5.027   0.969
 4335TIP3    H213012   4.131   5.029   1.110
 4336TIP3   OH213013   4.938   1.323   1.501
 4336TIP3    H113014   5.022   1.341   1.458
 4336TIP3    H213015   4.956   1.250   1.560
 4337TIP3   OH213016   3.614   0.762   1.855
 4337TIP3    H113017   3.644   0.775   1.765
 4337TIP3    H213018   3.628   0.669   1.871
 4338TIP3   OH213019   4.260   1.608   2.581
 4338TIP3    H113020   4.301   1.575   2.501
 4338TIP3    H213021   4.275   1.702   2.578
 4339TIP3   OH213022   2.865   3.255   1.686
 4339TIP3    H113023   2.863   3.292   1.599
 4339TIP3    H213024   2.957   3.233   1.702
 4340TIP3   OH213025   0.519   0.708   0.667
 4340TIP3    H113026   0.453   0.686   0.601
 4340TIP3    H213027   0.589   0.750   0.617
 4341TIP3   OH213028   5.033   5.153   4.081
 4341TIP3    H113029   5.015   5.059   4.085
 4341TIP3    H213030   5.074   5.173   4.165
 4342TIP3   OH213031   5.718   5.339   1.062
 4342TIP3    H113032   5.784   5.290   1.111
 4342TIP3    H213033   5.761   5.360   0.979
 4343TIP3   OH213034   0.427   5.448   1.905
 4343TIP3    H113035   0.477   5.405   1.836
 4343TIP3    H213036   0.336   5.446   1.875
 4344TIP3   OH213037   1.020   1.813   0.903
 4344TIP3    H113038   0.997   1.844   0.815
 4344TIP3    H213039   1.112   1.838   0.913
 4345TIP3   OH213040   4.888   3.309   2.319
 4345TIP3    H113041   4.845   3.394   2.323
 4345TIP3    H213042   4.938   3.312   2.237
 4346TIP3   OH213043   2.633   3.330   3.981
 4346TIP3    H113044   2.576   3.406   3.973
 4346TIP3    H213045   2.580   3.265   4.027
 4347TIP3   OH213046   1.816   0.080   0.933
 4347TIP3    H113047   1.737   0.134   0.939
 4347TIP3    H213048   1.798   0.006   0.991
 4348TIP3   OH213049   1.085   4.454   4.793
 4348TIP3    H113050   1.011   4.514   4.799
 4348TIP3    H213051   1.156   4.498   4.840
 4349TIP3   OH213052   3.260   4.117   0.774
 4349TIP3    H113053   3.291   4.206   0.758
 4349TIP3    H213054   3.262   4.076   0.687
 4350TIP3   OH213055   1.307   3.146   4.745
 4350TIP3    H113056   1.372   3.104   4.802
 4350TIP3    H213057   1.223   3.118   4.782
 4351TIP3   OH213058   5.811   3.814   5.048
 4351TIP3    H113059   5.837   3.738   4.995
 4351TIP3    H213060   5.818   3.784   5.138
 4352TIP3   OH213061   3.452   2.428   0.024
 4352TIP3    H113062   3.363   2.399   0.005
 4352TIP3    H213063   3.451   2.522   0.006
 4353TIP3   OH213064   1.346   5.616   2.559
 4353TIP3    H113065   1.406   5.562   2.610
 4353TIP3    H213066   1.259   5.594   2.593
 4354TIP3   OH213067   3.958   5.622   4.686
 4354TIP3    H113068   3.873   5.622   4.730
 4354TIP3    H213069   3.937   5.624   4.592
 4355TIP3   OH213070   3.550   4.816   1.932
 4355TIP3    H113071   3.514   4.730   1.957
 4355TIP3    H213072   3.543   4.818   1.837
 4356TIP3   OH213073   2.678   1.601   3.409
 4356TIP3    H113074   2.773   1.610   3.412
 4356TIP3    H213075   2.656   1.558   3.491
 4357TIP3   OH213076   2.578   5.507   2.669
 4357TIP3    H113077   2.584   5.419   2.631
 4357TIP3    H213078   2.667   5.527   2.698
 4358TIP3   OH213079   0.462   0.883   2.496
 4358TIP3    H113080   0.413   0.873   2.414
 4358TIP3    H213081   0.453   0.798   2.540
 4359TIP3   OH213082   4.783   0.653   3.367
 4359TIP3    H113083   4.860   0.708   3.358
 4359TIP3    H213084   4.754   0.637   3.278
 4360TIP3   OH213085   1.978   2.197   3.936
 4360TIP3    H113086   1.961   2.126   3.998
 4360TIP3    H213087   2.035   2.158   3.870
 4361TIP3   OH213088   0.414   5.145   2.091
 4361TIP3    H113089   0.319   5.149   2.083
 4361TIP3    H213090   0.441   5.074   2.033
 4362TIP3   OH213091   2.702   1.741   1.975
 4362TIP3    H113092   2.671   1.743   2.066
 4362TIP3    H213093   2.692   1.650   1.948
 4363TIP3   OH213094   5.798   5.598   4.089
 4363TIP3    H113095   5.704   5.607   4.106
 4363TIP3    H213096   5.815   5.504   4.099
 4364TIP3   OH213097   3.425   5.300   0.412
 4364TIP3    H113098   3.437   5.227   0.473
 4364TIP3    H213099   3.345   5.278   0.364
 4365TIP3   OH213100   1.949   0.027   1.456
 4365TIP3    H113101   1.947  -0.030   1.532
 4365TIP3    H213102   1.862   0.067   1.454
 4366TIP3   OH213103   5.676   1.211   2.295
 4366TIP3    H113104   5.708   1.136   2.345
 4366TIP3    H213105   5.736   1.217   2.220
 4367TIP3   OH213106   2.025   2.770   1.821
 4367TIP3    H113107   1.970   2.692   1.834
 4367TIP3    H213108   2.015   2.819   1.903
 4368TIP3   OH213109   2.954   2.107   4.665
 4368TIP3    H113110   2.871   2.087   4.707
 4368TIP3    H213111   2.979   2.026   4.620
 4369TIP3   OH213112   2.261   3.879   3.777
 4369TIP3    H113113   2.308   3.962   3.780
 4369TIP3    H213114   2.186   3.891   3.835
 4370TIP3   OH213115   5.217   5.357   1.589
 4370TIP3    H113116   5.295   5.393   1.547
 4370TIP3    H213117   5.181   5.430   1.639
 4371TIP3   OH213118   0.481   5.567   3.892
 4371TIP3    H113119   0.466   5.571   3.986
 4371TIP3    H213120   0.398   5.595   3.853
 4372TIP3   OH213121   4.684   1.307   4.476
 4372TIP3    H113122   4.707   1.400   4.477
 4372TIP3    H213123   4.661   1.289   4.384
 4373TIP3   OH213124   0.550   2.331   3.302
 4373TIP3    H113125   0.605   2.253   3.289
 4373TIP3    H213126   0.533   2.332   3.396
 4374TIP3   OH213127   5.340   2.536   2.419
 4374TIP3    H113128   5.401   2.599   2.380
 4374TIP3    H213129   5.314   2.479   2.345
 4375TIP3   OH213130   6.033   2.890   5.119
 4375TIP3    H113131   5.973   2.959   5.150
 4375TIP3    H213132   5.998   2.809   5.156
 4376TIP3   OH213133   4.009   3.540   2.996
 4376TIP3    H113134   3.951   3.615   3.005
 4376TIP3    H213135   3.980   3.479   3.063
 4377TIP3   OH213136   5.670   0.125   0.272
 4377TIP3    H113137   5.596   0.185   0.272
 4377TIP3    H213138   5.739   0.171   0.225
 4378TIP3   OH213139   3.074   3.485   2.154
 4378TIP3    H113140   2.992   3.458   2.113
 4378TIP3    H213141   3.142   3.438   2.106
 4379TIP3   OH213142   5.135   1.726   1.155
 4379TIP3    H113143   5.079   1.770   1.090
 4379TIP3    H213144   5.132   1.633   1.130
 4380TIP3   OH213145   2.355   3.280   0.537
 4380TIP3    H113146   2.427   3.334   0.505
 4380TIP3    H213147   2.362   3.283   0.632
 4381TIP3   OH213148   0.346   2.555   2.116
 4381TIP3    H113149   0.391   2.610   2.180
 4381TIP3    H213150   0.258   2.592   2.111
 4382TIP3   OH213151   2.339   3.605   0.538
 4382TIP3    H113152   2.419   3.655   0.518
 4382TIP3    H213153   2.268   3.665   0.517
 4383TIP3   OH213154   1.206   5.508   1.888
 4383TIP3    H113155   1.265   5.577   1.857
 4383TIP3    H213156   1.262   5.431   1.898
 4384TIP3   OH213157   2.029   0.595   4.304
 4384TIP3    H113158   1.998   0.506   4.293
 4384TIP3    H213159   2.115   0.586   4.346
 4385TIP3   OH213160   4.726   2.975   1.758
 4385TIP3    H113161   4.788   2.920   1.805
 4385TIP3    H213162   4.657   2.914   1.731
 4386TIP3   OH213163   5.444   1.950   4.443
 4386TIP3    H113164   5.478   1.864   4.420
 4386TIP3    H213165   5.497   1.978   4.518
 4387TIP3   OH213166   5.858   3.209   4.632
 4387TIP3    H113167   5.874   3.301   4.610
 4387TIP3    H213168   5.769   3.208   4.667
 4388TIP3   OH213169   2.623   5.254   2.203
 4388TIP3    H113170   2.648   5.311   2.131
 4388TIP3    H213171   2.589   5.175   2.161
 4389TIP3   OH213172   3.016   1.500   4.459
 4389TIP3    H113173   3.097   1.451   4.445
 4389TIP3    H213174   3.017   1.523   4.552
 4390TIP3   OH213175   2.117   5.899   4.963
 4390TIP3    H113176   2.164   5.816   4.959
 4390TIP3    H213177   2.108   5.918   5.056
 4391TIP3   OH213178   5.531   2.405   0.297
 4391TIP3    H113179   5.574   2.352   0.229
 4391TIP3    H213180   5.577   2.381   0.378
 4392TIP3   OH213181   6.136   1.702   4.657
 4392TIP3    H113182   6.083   1.685   4.578
 4392TIP3    H213183   6.201   1.765   4.628
 4393TIP3   OH213184   1.032   2.584   1.545
 4393TIP3    H113185   1.009   2.664   1.591
 4393TIP3    H213186   1.120   2.599   1.512
 4394TIP3   OH213187   3.373   1.767   1.153
 4394TIP3    H113188   3.354   1.701   1.087
 4394TIP3    H213189   3.325   1.845   1.124
 4395TIP3   OH213190   4.990   3.242   2.084
 4395TIP3    H113191   5.015   3.173   2.023
 4395TIP3    H213192   4.907   3.276   2.050
 4396TIP3   OH213193   0.085   3.893   0.739
 4396TIP3    H113194   0.047   3.807   0.754
 4396TIP3    H213195   0.164   3.875   0.688
 4397TIP3   OH213196   1.406   5.170   0.762
 4397TIP3    H113197   1.492   5.135   0.740
 4397TIP3    H213198   1.347   5.133   0.696
 4398TIP3   OH213199   1.543   5.128   4.752
 4398TIP3    H113200   1.625   5.143   4.705
 4398TIP3    H213201   1.480   5.105   4.684
 4399TIP3   OH213202   5.283   3.138   4.345
 4399TIP3    H113203   5.299   3.110   4.436
 4399TIP3    H213204   5.288   3.233   4.348
 4400TIP3   OH213205   2.809   3.347  -0.013
 4400TIP3    H113206   2.743   3.338   0.056
 4400TIP3    H213207   2.877   3.283   0.010
 4401TIP3   OH213208   4.530   0.183   2.441
 4401TIP3    H113209   4.586   0.223   2.508
 4401TIP3    H213210   4.574   0.101   2.419
 4402TIP3   OH213211   3.155   1.619   0.370
 4402TIP3    H113212   3.211   1.636   0.294
 4402TIP3    H213213   3.211   1.639   0.445
 4403TIP3   OH213214   5.661   1.391   4.350
 4403TIP3    H113215   5.624   1.438   4.275
 4403TIP3    H213216   5.646   1.299   4.330
 4404TIP3   OH213217   5.333   4.221   1.860
 4404TIP3    H113218   5.308   4.312   1.842
 4404TIP3    H213219   5.251   4.172   1.853
 4405TIP3   OH213220   1.574   3.109   2.277
 4405TIP3    H113221   1.610   3.020   2.281
 4405TIP3    H213222   1.519   3.116   2.355
 4406TIP3   OH213223   6.140   3.750   4.456
 4406TIP3    H113224   6.148   3.667   4.409
 4406TIP3    H213225   6.067   3.794   4.413
 4407TIP3   OH213226   4.311   3.232   0.015
 4407TIP3    H113227   4.338   3.306   0.069
 4407TIP3    H213228   4.327   3.261  -0.075
 4408TIP3   OH213229   1.460   2.167   4.326
 4408TIP3    H113230   1.510   2.126   4.397
 4408TIP3    H213231   1.429   2.094   4.273
 4409TIP3   OH213232   4.920   4.016   2.325
 4409TIP3    H113233   4.834   3.975   2.311
 4409TIP3    H213234   4.950   3.979   2.408
 4410TIP3   OH213235   0.124   5.327   4.079
 4410TIP3    H113236   0.112   5.394   4.011
 4410TIP3    H213237   0.187   5.265   4.041
 4411TIP3   OH213238   1.038   1.075   3.657
 4411TIP3    H113239   1.034   1.151   3.715
 4411TIP3    H213240   1.064   1.111   3.572
 4412TIP3   OH213241   4.249   3.735   1.902
 4412TIP3    H113242   4.226   3.809   1.958
 4412TIP3    H213243   4.199   3.748   1.822
 4413TIP3   OH213244   1.336   0.586   0.522
 4413TIP3    H113245   1.242   0.600   0.528
 4413TIP3    H213246   1.345   0.505   0.472
 4414TIP3   OH213247   3.429   5.835   4.400
 4414TIP3    H113248   3.486   5.860   4.473
 4414TIP3    H213249   3.489   5.819   4.327
 4415TIP3   OH213250   2.579   0.694   1.674
 4415TIP3    H113251   2.506   0.649   1.717
 4415TIP3    H213252   2.543   0.723   1.590
 4416TIP3   OH213253   1.907   0.823   2.572
 4416TIP3    H113254   1.901   0.729   2.553
 4416TIP3    H213255   1.951   0.860   2.496
 4417TIP3   OH213256   4.875   5.510   4.952
 4417TIP3    H113257   4.886   5.571   5.025
 4417TIP3    H213258   4.921   5.551   4.879
 4418TIP3   OH213259   2.281   3.828   3.049
 4418TIP3    H113260   2.241   3.785   3.124
 4418TIP3    H213261   2.369   3.851   3.079
 4419TIP3   OH213262   3.371   3.328   3.053
 4419TIP3    H113263   3.330   3.302   3.135
 4419TIP3    H213264   3.326   3.277   2.986
 4420TIP3   OH213265   1.058   0.808   2.027
 4420TIP3    H113266   1.024   0.744   1.964
 4420TIP3    H213267   1.153   0.796   2.024
 4421TIP3   OH213268   0.625   4.130   4.219
 4421TIP3    H113269   0.696   4.082   4.263
 4421TIP3    H213270   0.646   4.222   4.233
 4422TIP3   OH213271   3.026   2.632   3.825
 4422TIP3    H113272   3.116   2.636   3.793
 4422TIP3    H213273   3.004   2.722   3.848
 4423TIP3   OH213274   4.157   3.597   1.108
 4423TIP3    H113275   4.101   3.627   1.037
 4423TIP3    H213276   4.100   3.539   1.160
 4424TIP3   OH213277   2.861   1.378   1.088
 4424TIP3    H113278   2.936   1.410   1.139
 4424TIP3    H213279   2.879   1.285   1.075
 4425TIP3   OH213280   5.336   3.223   0.828
 4425TIP3    H113281   5.264   3.217   0.765
 4425TIP3    H213282   5.308   3.290   0.890
 4426TIP3   OH213283   3.177   5.683   1.345
 4426TIP3    H113284   3.191   5.701   1.252
 4426TIP3    H213285   3.258   5.639   1.372
 4427TIP3   OH213286   4.164   1.880   1.329
 4427TIP3    H113287   4.165   1.976   1.323
 4427TIP3    H213288   4.072   1.857   1.342
 4428TIP3   OH213289   4.245   0.644   0.544
 4428TIP3    H113290   4.199   0.715   0.591
 4428TIP3    H213291   4.180   0.611   0.482
 4429TIP3   OH213292   4.317   4.387   0.732
 4429TIP3    H113293   4.294   4.480   0.728
 4429TIP3    H213294   4.254   4.344   0.675
 4430TIP3   OH213295   5.180   0.770   2.635
 4430TIP3    H113296   5.169   0.862   2.658
 4430TIP3    H213297   5.262   0.767   2.585
 4431TIP3   OH213298   3.934   3.009   0.424
 4431TIP3    H113299   3.891   3.013   0.338
 4431TIP3    H213300   3.905   3.088   0.469
 4432TIP3   OH213301   1.224   1.839   4.031
 4432TIP3    H113302   1.129   1.832   4.023
 4432TIP3    H213303   1.252   1.883   3.950
 4433TIP3   OH213304   3.009   1.919   3.854
 4433TIP3    H113305   3.079   1.952   3.798
 4433TIP3    H213306   2.968   1.997   3.891
 4434TIP3   OH213307   4.638   2.574   0.306
 4434TIP3    H113308   4.668   2.535   0.388
 4434TIP3    H213309   4.560   2.624   0.330
 4435TIP3   OH213310   0.345   1.043   1.400
 4435TIP3    H113311   0.431   1.005   1.382
 4435TIP3    H213312   0.307   0.985   1.466
 4436TIP3   OH213313   0.803   0.809   0.619
 4436TIP3    H113314   0.889   0.807   0.578
 4436TIP3    H213315   0.805   0.737   0.682
 4437TIP3   OH213316   2.293   4.908   1.637
 4437TIP3    H113317   2.275   4.916   1.543
 4437TIP3    H213318   2.256   4.823   1.661
 4438TIP3   OH213319   4.459   3.220   1.181
 4438TIP3    H113320   4.481   3.305   1.219
 4438TIP3    H213321   4.375   3.197   1.220
 4439TIP3   OH213322   4.718   5.982   1.614
 4439TIP3    H113323   4.722   6.003   1.521
 4439TIP3    H213324   4.702   5.887   1.616
 4440TIP3   OH213325   0.107   1.799   0.387
 4440TIP3    H113326   0.068   1.879   0.422
 4440TIP3    H213327   0.201   1.814   0.390
 4441TIP3   OH213328   0.908   4.913   1.713
 4441TIP3    H113329   0.909   4.986   1.774
 4441TIP3    H213330   0.891   4.953   1.628
 4442TIP3   OH213331   2.673   0.794   4.336
 4442TIP3    H113332   2.625   0.714   4.315
 4442TIP3    H213333   2.754   0.788   4.285
 4443TIP3   OH213334   5.535   4.919   1.706
 4443TIP3    H113335   5.517   5.013   1.697
 4443TIP3    H213336   5.618   4.915   1.753
 4444TIP3   OH213337   0.243   2.606   4.811
 4444TIP3    H113338   0.310   2.644   4.753
 4444TIP3    H213339   0.235   2.670   4.882
 4445TIP3   OH213340   4.521   2.795   3.765
 4445TIP3    H113341   4.495   2.703   3.774
 4445TIP3    H213342   4.451   2.845   3.807
 4446TIP3   OH213343   4.471   3.447   1.325
 4446TIP3    H113344   4.506   3.436   1.413
 4446TIP3    H213345   4.409   3.519   1.333
 4447TIP3   OH213346   5.909   2.074   0.427
 4447TIP3    H113347   5.951   2.019   0.494
 4447TIP3    H213348   5.915   2.022   0.347
 4448TIP3   OH213349   6.165   4.068   3.749
 4448TIP3    H113350   6.169   4.162   3.766
 4448TIP3    H213351   6.249   4.034   3.779
 4449TIP3   OH213352   6.268   1.135   3.478
 4449TIP3    H113353   6.338   1.175   3.530
 4449TIP3    H213354   6.307   1.121   3.392
 4450TIP3   OH213355   2.311   2.591   4.204
 4450TIP3    H113356   2.262   2.617   4.282
 4450TIP3    H213357   2.252   2.531   4.158
 4451TIP3   OH213358   2.214   2.183   0.218
 4451TIP3    H113359   2.228   2.103   0.167
 4451TIP3    H213360   2.298   2.199   0.260
 4452TIP3   OH213361   2.552   5.474   3.107
 4452TIP3    H113362   2.566   5.392   3.060
 4452TIP3    H213363   2.640   5.507   3.126
 4453TIP3   OH213364   5.819   5.938   3.616
 4453TIP3    H113365   5.798   5.862   3.671
 4453TIP3    H213366   5.871   5.995   3.674
 4454TIP3   OH213367   1.272   5.138   1.961
 4454TIP3    H113368   1.264   5.128   2.056
 4454TIP3    H213369   1.346   5.197   1.949
 4455TIP3   OH213370   0.276   3.849   0.100
 4455TIP3    H113371   0.326   3.781   0.055
 4455TIP3    H213372   0.340   3.894   0.154
 4456TIP3   OH213373   0.343   0.509   4.775
 4456TIP3    H113374   0.375   0.569   4.708
 4456TIP3    H213375   0.419   0.495   4.833
 4457TIP3   OH213376   5.954   2.074   2.195
 4457TIP3    H113377   5.881   2.122   2.156
 4457TIP3    H213378   5.923   2.050   2.282
 4458TIP3   OH213379   4.313   4.932   0.553
 4458TIP3    H113380   4.393   4.889   0.584
 4458TIP3    H213381   4.333   5.025   0.557
 4459TIP3   OH213382   5.365   4.673   1.247
 4459TIP3    H113383   5.324   4.602   1.296
 4459TIP3    H213384   5.455   4.677   1.280
 4460TIP3   OH213385   1.018   1.250   0.961
 4460TIP3    H113386   1.038   1.322   0.902
 4460TIP3    H213387   1.029   1.286   1.049
 4461TIP3   OH213388   3.092   3.548   1.270
 4461TIP3    H113389   3.182   3.530   1.242
 4461TIP3    H213390   3.097   3.635   1.311
 4462TIP3   OH213391   3.369   1.111   4.165
 4462TIP3    H113392   3.375   1.085   4.257
 4462TIP3    H213393   3.388   1.032   4.116
 4463TIP3   OH213394   3.236   4.983   4.260
 4463TIP3    H113395   3.274   5.002   4.345
 4463TIP3    H213396   3.268   5.054   4.203
 4464TIP3   OH213397   2.484   5.925   2.345
 4464TIP3    H113398   2.559   5.943   2.289
 4464TIP3    H213399   2.408   5.934   2.288
 4465TIP3   OH213400   0.995   3.699   1.121
 4465TIP3    H113401   1.046   3.661   1.050
 4465TIP3    H213402   0.959   3.779   1.083
 4466TIP3   OH213403   5.975   4.365   1.669
 4466TIP3    H113404   6.034   4.387   1.596
 4466TIP3    H213405   5.926   4.289   1.638
 4467TIP3   OH213406   4.311   5.738   0.428
 4467TIP3    H113407   4.248   5.761   0.359
 4467TIP3    H213408   4.264   5.757   0.509
 4468TIP3   OH213409   1.923   5.053   4.325
 4468TIP3    H113410   1.832   5.028   4.342
 4468TIP3    H213411   1.954   5.088   4.408
 4469TIP3   OH213412   1.224   3.465   1.177
 4469TIP3    H113413   1.256   3.387   1.132
 4469TIP3    H213414   1.169   3.509   1.112
 4470TIP3   OH213415   3.793   5.228   4.126
 4470TIP3    H113416   3.786   5.311   4.078
 4470TIP3    H213417   3.810   5.162   4.059
 4471TIP3   OH213418   1.094   5.518   2.557
 4471TIP3    H113419   1.034   5.451   2.589
 4471TIP3    H213420   1.122   5.487   2.471
 4472TIP3   OH213421   4.510   4.213   0.086
 4472TIP3    H113422   4.601   4.227   0.112
 4472TIP3    H213423   4.515   4.183  -0.005
 4473TIP3   OH213424   2.183   0.755   3.837
 4473TIP3    H113425   2.138   0.670   3.839
 4473TIP3    H213426   2.264   0.741   3.885
 4474TIP3   OH213427   3.308   1.551   3.977
 4474TIP3    H113428   3.318   1.493   4.052
 4474TIP3    H213429   3.235   1.608   4.000
 4475TIP3   OH213430   1.587   4.113   3.499
 4475TIP3    H113431   1.664   4.119   3.442
 4475TIP3    H213432   1.520   4.073   3.445
 4476TIP3   OH213433   4.196   3.719   3.190
 4476TIP3    H113434   4.165   3.767   3.268
 4476TIP3    H213435   4.127   3.731   3.125
 4477TIP3   OH213436   4.946   4.288   4.146
 4477TIP3    H113437   5.010   4.278   4.216
 4477TIP3    H213438   4.905   4.373   4.164
 4478TIP3   OH213439   0.648   4.625   0.139
 4478TIP3    H113440   0.650   4.555   0.074
 4478TIP3    H213441   0.557   4.656   0.138
 4479TIP3   OH213442   3.253   0.947   4.794
 4479TIP3    H113443   3.277   0.856   4.780
 4479TIP3    H213444   3.315   0.979   4.859
 4480TIP3   OH213445   5.111   4.091   1.752
 4480TIP3    H113446   5.093   4.151   1.679
 4480TIP3    H213447   5.025   4.061   1.781
 4481TIP3   OH213448   2.786   5.856   0.971
 4481TIP3    H113449   2.803   5.940   1.014
 4481TIP3    H213450   2.787   5.792   1.042
 4482TIP3   OH213451   2.299   0.981   0.581
 4482TIP3    H113452   2.231   0.942   0.635
 4482TIP3    H213453   2.314   1.068   0.619
 4483TIP3   OH213454   0.621   4.927   0.568
 4483TIP3    H113455   0.701   4.935   0.515
 4483TIP3    H213456   0.637   4.984   0.644
 4484TIP3   OH213457   0.883   2.145   2.513
 4484TIP3    H113458   0.912   2.153   2.421
 4484TIP3    H213459   0.953   2.094   2.555
 4485TIP3   OH213460   4.873   5.397   2.630
 4485TIP3    H113461   4.780   5.399   2.653
 4485TIP3    H213462   4.881   5.327   2.566
 4486TIP3   OH213463   4.883   2.809   1.032
 4486TIP3    H113464   4.820   2.741   1.008
 4486TIP3    H213465   4.832   2.890   1.031
 4487TIP3   OH213466   0.103   0.244   0.201
 4487TIP3    H113467   0.105   0.279   0.111
 4487TIP3    H213468   0.030   0.182   0.200
 4488TIP3   OH213469   1.280   3.220   3.219
 4488TIP3    H113470   1.314   3.302   3.256
 4488TIP3    H213471   1.185   3.230   3.223
 4489TIP3   OH213472   0.270   2.177   3.154
 4489TIP3    H113473   0.292   2.269   3.144
 4489TIP3    H213474   0.313   2.133   3.081
 4490TIP3   OH213475   6.049   3.698   1.564
 4490TIP3    H113476   6.074   3.785   1.596
 4490TIP3    H213477   5.965   3.712   1.520
 4491TIP3   OH213478   4.591   2.270   0.900
 4491TIP3    H113479   4.614   2.177   0.897
 4491TIP3    H213480   4.543   2.285   0.820
 4492TIP3   OH213481   4.545   0.946   4.908
 4492TIP3    H113482   4.533   0.908   4.821
 4492TIP3    H213483   4.503   1.031   4.903
 4493TIP3   OH213484   2.768   2.539   2.453
 4493TIP3    H113485   2.780   2.487   2.374
 4493TIP3    H213486   2.856   2.561   2.482
 4494TIP3   OH213487   4.891   5.178   2.466
 4494TIP3    H113488   4.821   5.117   2.486
 4494TIP3    H213489   4.864   5.221   2.385
 4495TIP3   OH213490   1.831   2.709   3.834
 4495TIP3    H113491   1.806   2.755   3.914
 4495TIP3    H213492   1.918   2.673   3.853
 4496TIP3   OH213493   0.255   5.751   2.479
 4496TIP3    H113494   0.325   5.776   2.539
 4496TIP3    H213495   0.261   5.656   2.472
 4497TIP3   OH213496   1.190   3.818   1.894
 4497TIP3    H113497   1.155   3.905   1.872
 4497TIP3    H213498   1.260   3.837   1.956
 4498TIP3   OH213499   3.806   2.257   1.735
 4498TIP3    H113500   3.754   2.189   1.777
 4498TIP3    H213501   3.770   2.339   1.769
 4499TIP3   OH213502   0.450   4.779   4.993
 4499TIP3    H113503   0.448   4.871   4.968
 4499TIP3    H213504   0.380   4.738   4.942
 4500TIP3   OH213505   1.435   4.746   1.671
 4500TIP3    H113506   1.413   4.825   1.621
 4500TIP3    H213507   1.351   4.707   1.694
 4501TIP3   OH213508   0.090   4.449   0.459
 4501TIP3    H113509   0.174   4.490   0.440
 4501TIP3    H213510   0.092   4.432   0.553
 4502TIP3   OH213511   4.348   2.360   0.166
 4502TIP3    H113512   4.348   2.405   0.082
 4502TIP3    H213513   4.377   2.271   0.145
 4503TIP3   OH213514   5.574   1.489   4.126
 4503TIP3    H113515   5.514   1.563   4.113
 4503TIP3    H213516   5.552   1.427   4.056
 4504TIP3   OH213517   1.209   4.068   3.730
 4504TIP3    H113518   1.293   4.024   3.742
 4504TIP3    H213519   1.231   4.159   3.713
 4505TIP3   OH213520   2.174   5.635   1.832
 4505TIP3    H113521   2.196   5.696   1.761
 4505TIP3    H213522   2.123   5.688   1.894
 4506TIP3   OH213523   0.905   5.626   4.405
 4506TIP3    H113524   0.923   5.695   4.341
 4506TIP3    H213525   0.817   5.597   4.385
 4507TIP3   OH213526   1.692   5.093   0.572
 4507TIP3    H113527   1.745   5.133   0.641
 4507TIP3    H213528   1.683   5.001   0.599
 4508TIP3   OH213529   6.067   4.434   1.417
 4508TIP3    H113530   6.002   4.426   1.348
 4508TIP3    H213531   6.150   4.445   1.370
 4509TIP3   OH213532   2.913   5.509   2.370
 4509TIP3    H113533   2.911   5.592   2.418
 4509TIP3    H213534   2.833   5.508   2.319
 4510TIP3   OH213535   1.694   0.608   5.076
 4510TIP3    H113536   1.637   0.685   5.074
 4510TIP3    H213537   1.780   0.643   5.098
 4511TIP3   OH213538   5.279   0.143   3.642
 4511TIP3    H113539   5.328   0.092   3.577
 4511TIP3    H213540   5.312   0.232   3.634
 4512TIP3   OH213541   2.788   2.109   3.523
 4512TIP3    H113542   2.874   2.143   3.549
 4512TIP3    H213543   2.727   2.181   3.542
 4513TIP3   OH213544   0.896   3.148   0.568
 4513TIP3    H113545   0.853   3.064   0.553
 4513TIP3    H213546   0.977   3.125   0.614
 4514TIP3   OH213547   2.579   2.257   3.632
 4514TIP3    H113548   2.504   2.197   3.629
 4514TIP3    H213549   2.540   2.344   3.635
 4515TIP3   OH213550   4.116   4.569   1.249
 4515TIP3    H113551   4.152   4.657   1.262
 4515TIP3    H213552   4.151   4.542   1.164
 4516TIP3   OH213553   1.868   2.048   3.066
 4516TIP3    H113554   1.874   2.046   3.162
 4516TIP3    H213555   1.809   2.121   3.047
 4517TIP3   OH213556   2.113   0.534   1.718
 4517TIP3    H113557   2.023   0.508   1.700
 4517TIP3    H213558   2.112   0.562   1.810
 4518TIP3   OH213559   0.279   2.875   4.335
 4518TIP3    H113560   0.281   2.791   4.288
 4518TIP3    H213561   0.202   2.869   4.391
 4519TIP3   OH213562   0.045   2.585   0.448
 4519TIP3    H113563   0.115   2.556   0.506
 4519TIP3    H213564   0.076   2.563   0.360
 4520TIP3   OH213565   4.406   1.455   4.359
 4520TIP3    H113566   4.466   1.389   4.324
 4520TIP3    H213567   4.463   1.527   4.386
 4521TIP3   OH213568   0.712   0.271   0.532
 4521TIP3    H113569   0.700   0.181   0.562
 4521TIP3    H213570   0.676   0.325   0.602
 4522TIP3   OH213571   2.170   4.391   4.813
 4522TIP3    H113572   2.193   4.428   4.898
 4522TIP3    H213573   2.092   4.338   4.830
 4523TIP3   OH213574   2.769   4.452   4.318
 4523TIP3    H113575   2.748   4.455   4.411
 4523TIP3    H213576   2.742   4.538   4.285
 4524TIP3   OH213577   2.624   1.439   3.658
 4524TIP3    H113578   2.594   1.351   3.635
 4524TIP3    H213579   2.715   1.427   3.684
 4525TIP3   OH213580   5.505   4.522   2.532
 4525TIP3    H113581   5.417   4.556   2.520
 4525TIP3    H213582   5.549   4.540   2.449
 4526TIP3   OH213583   5.956   3.660   3.799
 4526TIP3    H113584   5.880   3.688   3.849
 4526TIP3    H213585   5.984   3.739   3.752
 4527TIP3   OH213586   3.721   3.670   0.352
 4527TIP3    H113587   3.654   3.711   0.408
 4527TIP3    H213588   3.691   3.687   0.263
 4528TIP3   OH213589   5.352   5.765   1.447
 4528TIP3    H113590   5.256   5.762   1.446
 4528TIP3    H213591   5.374   5.798   1.534
 4529TIP3   OH213592   1.750   4.515   0.627
 4529TIP3    H113593   1.738   4.515   0.532
 4529TIP3    H213594   1.689   4.450   0.659
 4530TIP3   OH213595   2.194   5.783   1.612
 4530TIP3    H113596   2.265   5.816   1.557
 4530TIP3    H213597   2.115   5.799   1.561
 4531TIP3   OH213598   5.150   0.722   2.919
 4531TIP3    H113599   5.154   0.721   2.824
 4531TIP3    H213600   5.093   0.796   2.940
 4532TIP3   OH213601   1.760   0.435   0.627
 4532TIP3    H113602   1.731   0.452   0.717
 4532TIP3    H213603   1.700   0.488   0.573
 4533TIP3   OH213604   4.218   1.154   3.725
 4533TIP3    H113605   4.300   1.165   3.773
 4533TIP3    H213606   4.184   1.070   3.755
 4534TIP3   OH213607   3.998   5.013   1.647
 4534TIP3    H113608   3.962   4.975   1.727
 4534TIP3    H213609   4.074   5.063   1.677
 4535TIP3   OH213610   0.962   4.255   4.181
 4535TIP3    H113611   1.034   4.202   4.214
 4535TIP3    H213612   0.909   4.274   4.259
 4536TIP3   OH213613   0.975   2.786   4.357
 4536TIP3    H113614   1.055   2.759   4.312
 4536TIP3    H213615   0.987   2.880   4.372
 4537TIP3   OH213616   3.633   0.672   3.260
 4537TIP3    H113617   3.570   0.620   3.309
 4537TIP3    H213618   3.654   0.619   3.183
 4538TIP3   OH213619   1.323   0.539   5.027
 4538TIP3    H113620   1.361   0.588   5.100
 4538TIP3    H213621   1.272   0.469   5.069
 4539TIP3   OH213622   3.375   5.698   3.651
 4539TIP3    H113623   3.369   5.699   3.747
 4539TIP3    H213624   3.346   5.785   3.625
 4540TIP3   OH213625   5.910   4.256   2.955
 4540TIP3    H113626   5.978   4.310   2.996
 4540TIP3    H213627   5.828   4.299   2.980
 4541TIP3   OH213628   0.126   5.119   4.947
 4541TIP3    H113629   0.085   5.054   5.004
 4541TIP3    H213630   0.106   5.089   4.859
 4542TIP3   OH213631   0.040   5.583   3.580
 4542TIP3    H113632   0.026   5.661   3.526
 4542TIP3    H213633   0.099   5.528   3.528
 4543TIP3   OH213634   5.479   4.422   0.122
 4543TIP3    H113635   5.477   4.484   0.195
 4543TIP3    H213636   5.463   4.475   0.044
 4544TIP3   OH213637   3.442   4.917   1.179
 4544TIP3    H113638   3.435   5.011   1.164
 4544TIP3    H213639   3.501   4.886   1.110
 4545TIP3   OH213640   3.628   2.257   0.152
 4545TIP3    H113641   3.570   2.328   0.127
 4545TIP3    H213642   3.688   2.296   0.216
 4546TIP3   OH213643   0.463   0.836   1.255
 4546TIP3    H113644   0.539   0.846   1.198
 4546TIP3    H213645   0.388   0.849   1.198
 4547TIP3   OH213646   1.385   0.755   3.425
 4547TIP3    H113647   1.434   0.800   3.494
 4547TIP3    H213648   1.296   0.747   3.460
 4548TIP3   OH213649   2.332   1.245   3.898
 4548TIP3    H113650   2.239   1.254   3.876
 4548TIP3    H213651   2.347   1.151   3.900
 4549TIP3   OH213652   5.516   0.277   2.419
 4549TIP3    H113653   5.598   0.273   2.370
 4549TIP3    H213654   5.448   0.284   2.352
 4550TIP3   OH213655   2.128   1.475   1.832
 4550TIP3    H113656   2.117   1.563   1.796
 4550TIP3    H213657   2.065   1.470   1.904
 4551TIP3   OH213658   4.990   2.563   0.483
 4551TIP3    H113659   5.049   2.637   0.468
 4551TIP3    H213660   4.943   2.552   0.401
 4552TIP3   OH213661   5.287   5.023   2.735
 4552TIP3    H113662   5.258   4.935   2.758
 4552TIP3    H213663   5.237   5.045   2.656
 4553TIP3   OH213664   1.860   0.991   3.487
 4553TIP3    H113665   1.948   0.976   3.452
 4553TIP3    H213666   1.811   1.028   3.414
 4554TIP3   OH213667   2.306   5.579   3.070
 4554TIP3    H113668   2.271   5.521   3.138
 4554TIP3    H213669   2.400   5.558   3.068
 4555TIP3   OH213670   0.748   1.383   0.342
 4555TIP3    H113671   0.725   1.469   0.377
 4555TIP3    H213672   0.691   1.322   0.389
 4556TIP3   OH213673   2.404   0.880   4.158
 4556TIP3    H113674   2.440   0.826   4.088
 4556TIP3    H213675   2.477   0.935   4.188
 4557TIP3   OH213676   5.499   5.333   2.853
 4557TIP3    H113677   5.424   5.331   2.912
 4557TIP3    H213678   5.571   5.366   2.907
 4558TIP3   OH213679   6.051   0.489   5.149
 4558TIP3    H113680   5.972   0.533   5.179
 4558TIP3    H213681   6.122   0.547   5.176
 4559TIP3   OH213682   0.541   2.004   0.153
 4559TIP3    H113683   0.494   2.028   0.073
 4559TIP3    H213684   0.473   1.993   0.219
 4560TIP3   OH213685   1.489   5.885   2.077
 4560TIP3    H113686   1.563   5.936   2.111
 4560TIP3    H213687   1.424   5.952   2.054
 4561TIP3   OH213688   0.599   5.527   3.308
 4561TIP3    H113689   0.675   5.494   3.356
 4561TIP3    H213690   0.533   5.544   3.376
 4562TIP3   OH213691   2.798   4.099   2.758
 4562TIP3    H113692   2.760   4.013   2.741
 4562TIP3    H213693   2.887   4.080   2.789
 4563TIP3   OH213694   1.855   2.158   2.386
 4563TIP3    H113695   1.785   2.110   2.430
 4563TIP3    H213696   1.823   2.170   2.296
 4564TIP3   OH213697   2.064   1.146   5.161
 4564TIP3    H113698   1.987   1.204   5.164
 4564TIP3    H213699   2.112   1.173   5.083
 4565TIP3   OH213700   5.835   4.154   2.412
 4565TIP3    H113701   5.856   4.180   2.502
 4565TIP3    H213702   5.746   4.186   2.398
 4566TIP3   OH213703   5.044   0.112   5.139
 4566TIP3    H113704   5.071   0.078   5.224
 4566TIP3    H213705   5.054   0.207   5.147
 4567TIP3   OH213706   2.321   3.879   2.478
 4567TIP3    H113707   2.370   3.954   2.511
 4567TIP3    H213708   2.260   3.857   2.549
 4568TIP3   OH213709   2.951   1.368   1.385
 4568TIP3    H113710   3.029   1.370   1.330
 4568TIP3    H213711   2.962   1.290   1.439
 4569TIP3   OH213712   1.508   3.900   2.869
 4569TIP3    H113713   1.575   3.969   2.863
 4569TIP3    H213714   1.503   3.864   2.780
 4570TIP3   OH213715   4.619   4.378   0.632
 4570TIP3    H113716   4.529   4.354   0.654
 4570TIP3    H213717   4.628   4.353   0.540
 4571TIP3   OH213718   6.311   1.814   0.694
 4571TIP3    H113719   6.344   1.724   0.696
 4571TIP3    H213720   6.288   1.833   0.785
 4572TIP3   OH213721   0.884   1.839   5.120
 4572TIP3    H113722   0.877   1.849   5.215
 4572TIP3    H213723   0.912   1.748   5.108
 4573TIP3   OH213724   3.219   2.052   4.995
 4573TIP3    H113725   3.304   2.039   5.038
 4573TIP3    H213726   3.240   2.101   4.916
 4574TIP3   OH213727   2.472   2.992   1.211
 4574TIP3    H113728   2.378   3.003   1.198
 4574TIP3    H213729   2.484   2.897   1.221
 4575TIP3   OH213730   0.398   5.295   4.019
 4575TIP3    H113731   0.482   5.314   3.976
 4575TIP3    H213732   0.412   5.321   4.110
 4576TIP3   OH213733   4.269   5.112   1.191
 4576TIP3    H113734   4.291   5.103   1.284
 4576TIP3    H213735   4.353   5.102   1.146
 4577TIP3   OH213736   4.462   3.181   0.923
 4577TIP3    H113737   4.487   3.176   1.015
 4577TIP3    H213738   4.452   3.274   0.906
 4578TIP3   OH213739   1.904   3.279   1.364
 4578TIP3    H113740   1.889   3.370   1.336
 4578TIP3    H213741   1.880   3.227   1.288
 4579TIP3   OH213742   5.613   2.726   2.956
 4579TIP3    H113743   5.523   2.717   2.926
 4579TIP3    H213744   5.662   2.752   2.878
 4580TIP3   OH213745   0.861   4.852   3.739
 4580TIP3    H113746   0.934   4.900   3.699
 4580TIP3    H213747   0.806   4.921   3.778
 4581TIP3   OH213748   2.211   0.965   3.655
 4581TIP3    H113749   2.208   0.910   3.733
 4581TIP3    H213750   2.275   1.033   3.676
 4582TIP3   OH213751   4.904   0.879   1.315
 4582TIP3    H113752   4.926   0.929   1.394
 4582TIP3    H213753   4.967   0.909   1.249
 4583TIP3   OH213754   4.211   1.996   3.900
 4583TIP3    H113755   4.136   1.957   3.853
 4583TIP3    H213756   4.261   1.921   3.932
 4584TIP3   OH213757   1.428   4.975   0.392
 4584TIP3    H113758   1.438   5.040   0.462
 4584TIP3    H213759   1.443   5.024   0.311
 4585TIP3   OH213760   1.004   4.763   2.364
 4585TIP3    H113761   1.083   4.794   2.409
 4585TIP3    H213762   1.031   4.753   2.272
 4586TIP3   OH213763   2.519   4.858   2.864
 4586TIP3    H113764   2.557   4.868   2.951
 4586TIP3    H213765   2.571   4.917   2.809
 4587TIP3   OH213766   5.337   5.270   2.346
 4587TIP3    H113767   5.292   5.198   2.390
 4587TIP3    H213768   5.284   5.288   2.269
 4588TIP3   OH213769   5.865   0.468   4.406
 4588TIP3    H113770   5.803   0.397   4.392
 4588TIP3    H213771   5.928   0.461   4.334
 4589TIP3   OH213772   4.058   3.141   1.695
 4589TIP3    H113773   4.143   3.182   1.677
 4589TIP3    H213774   3.995   3.213   1.691
 4590TIP3   OH213775   4.609   0.234   3.146
 4590TIP3    H113776   4.658   0.302   3.192
 4590TIP3    H213777   4.602   0.162   3.209
 4591TIP3   OH213778   1.498   2.513   0.534
 4591TIP3    H113779   1.593   2.516   0.536
 4591TIP3    H213780   1.477   2.442   0.473
 4592TIP3   OH213781   5.857   3.487   4.562
 4592TIP3    H113782   5.820   3.575   4.567
 4592TIP3    H213783   5.873   3.473   4.469
 4593TIP3   OH213784   4.305   3.948   2.858
 4593TIP3    H113785   4.272   3.861   2.838
 4593TIP3    H213786   4.232   3.993   2.901
 4594TIP3   OH213787   2.419   3.032   0.141
 4594TIP3    H113788   2.441   2.976   0.215
 4594TIP3    H213789   2.471   3.111   0.155
 4595TIP3   OH213790   5.253   4.814   3.953
 4595TIP3    H113791   5.303   4.827   4.034
 4595TIP3    H213792   5.166   4.846   3.974
 4596TIP3   OH213793   0.379   1.492   0.706
 4596TIP3    H113794   0.382   1.429   0.779
 4596TIP3    H213795   0.467   1.528   0.702
 4597TIP3   OH213796   1.505   4.241   2.485
 4597TIP3    H113797   1.440   4.276   2.546
 4597TIP3    H213798   1.457   4.176   2.434
 4598TIP3   OH213799   3.394   1.820   2.066
 4598TIP3    H113800   3.404   1.744   2.008
 4598TIP3    H213801   3.354   1.784   2.145
 4599TIP3   OH213802   2.856   0.621   3.402
 4599TIP3    H113803   2.882   0.608   3.311
 4599TIP3    H213804   2.767   0.655   3.397
 4600TIP3   OH213805   0.513   2.541   0.870
 4600TIP3    H113806   0.575   2.583   0.929
 4600TIP3    H213807   0.551   2.553   0.783
 4601TIP3   OH213808   0.851   1.952   1.395
 4601TIP3    H113809   0.935   1.997   1.408
 4601TIP3    H213810   0.858   1.915   1.307
 4602TIP3   OH213811   5.346   2.647   4.291
 4602TIP3    H113812   5.254   2.669   4.280
 4602TIP3    H213813   5.350   2.606   4.378
 4603TIP3   OH213814   5.900   0.819   2.217
 4603TIP3    H113815   5.880   0.882   2.286
 4603TIP3    H213816   5.816   0.805   2.173
 4604TIP3   OH213817   2.007   5.760   2.086
 4604TIP3    H113818   2.013   5.672   2.122
 4604TIP3    H213819   1.978   5.815   2.159
 4605TIP3   OH213820   3.313  -0.006   3.776
 4605TIP3    H113821   3.288  -0.003   3.684
 4605TIP3    H213822   3.332   0.086   3.799
 4606TIP3   OH213823   5.182   3.834   1.573
 4606TIP3    H113824   5.141   3.850   1.488
 4606TIP3    H213825   5.126   3.880   1.635
 4607TIP3   OH213826   4.090   0.350   4.642
 4607TIP3    H113827   4.002   0.387   4.641
 4607TIP3    H213828   4.142   0.410   4.590
 4608TIP3   OH213829   4.372   5.196   0.590
 4608TIP3    H113830   4.284   5.232   0.594
 4608TIP3    H213831   4.404   5.220   0.503
 4609TIP3   OH213832   3.952   1.864   0.825
 4609TIP3    H113833   3.995   1.865   0.910
 4609TIP3    H213834   3.866   1.825   0.841
 4610TIP3   OH213835   4.685   5.067   3.027
 4610TIP3    H113836   4.618   5.002   3.004
 4610TIP3    H213837   4.635   5.147   3.043
 4611TIP3   OH213838   5.024   3.366   0.121
 4611TIP3    H113839   5.109   3.349   0.079
 4611TIP3    H213840   4.981   3.281   0.125
 4612TIP3   OH213841   4.874   4.223   0.707
 4612TIP3    H113842   4.900   4.314   0.718
 4612TIP3    H213843   4.879   4.208   0.612
 4613TIP3   OH213844   5.828   2.386   4.557
 4613TIP3    H113845   5.746   2.390   4.507
 4613TIP3    H213846   5.896   2.395   4.490
 4614TIP3   OH213847   1.375   0.052   1.670
 4614TIP3    H113848   1.450   0.098   1.709
 4614TIP3    H213849   1.299   0.100   1.704
 4615TIP3   OH213850   2.021   2.337   4.507
 4615TIP3    H113851   2.007   2.430   4.525
 4615TIP3    H213852   2.116   2.327   4.498
 4616TIP3   OH213853   1.232   1.734   4.536
 4616TIP3    H113854   1.235   1.800   4.605
 4616TIP3    H213855   1.253   1.652   4.580
 4617TIP3   OH213856   4.510   4.190   2.208
 4617TIP3    H113857   4.469   4.261   2.158
 4617TIP3    H213858   4.479   4.202   2.297
 4618TIP3   OH213859   4.908   0.087   0.031
 4618TIP3    H113860   4.873   0.081  -0.058
 4618TIP3    H213861   4.969   0.161   0.028
 4619TIP3   OH213862   0.815   4.398   0.532
 4619TIP3    H113863   0.833   4.472   0.591
 4619TIP3    H213864   0.749   4.432   0.471
 4620TIP3   OH213865   4.207   2.049   5.078
 4620TIP3    H113866   4.217   2.114   5.148
 4620TIP3    H213867   4.266   2.079   5.009
 4621TIP3   OH213868   3.705   5.610   2.797
 4621TIP3    H113869   3.731   5.606   2.889
 4621TIP3    H213870   3.692   5.518   2.772
 4622TIP3   OH213871   3.711   1.051   0.698
 4622TIP3    H113872   3.629   1.099   0.685
 4622TIP3    H213873   3.768   1.080   0.627
 4623TIP3   OH213874   3.678   2.593   3.420
 4623TIP3    H113875   3.617   2.623   3.353
 4623TIP3    H213876   3.765   2.607   3.382
 4624TIP3   OH213877   1.395   5.195   2.888
 4624TIP3    H113878   1.435   5.269   2.933
 4624TIP3    H213879   1.303   5.219   2.879
 4625TIP3   OH213880   2.251   3.483   1.739
 4625TIP3    H113881   2.288   3.405   1.781
 4625TIP3    H213882   2.273   3.554   1.799
 4626TIP3   OH213883   4.539   5.082   1.118
 4626TIP3    H113884   4.577   4.998   1.144
 4626TIP3    H213885   4.608   5.146   1.137
 4627TIP3   OH213886   2.625   1.968   2.712
 4627TIP3    H113887   2.631   2.028   2.638
 4627TIP3    H213888   2.565   2.010   2.773
 4628TIP3   OH213889   4.137   2.749   2.215
 4628TIP3    H113890   4.192   2.805   2.160
 4628TIP3    H213891   4.079   2.810   2.260
 4629TIP3   OH213892   1.831   2.624   3.157
 4629TIP3    H113893   1.800   2.711   3.183
 4629TIP3    H213894   1.890   2.597   3.226
 4630TIP3   OH213895   1.368   3.517   0.681
 4630TIP3    H113896   1.409   3.594   0.720
 4630TIP3    H213897   1.410   3.509   0.595
 4631TIP3   OH213898   3.214   1.936   1.684
 4631TIP3    H113899   3.277   1.955   1.615
 4631TIP3    H213900   3.174   1.853   1.658
 4632TIP3   OH213901   1.973   2.122   3.614
 4632TIP3    H113902   2.027   2.200   3.626
 4632TIP3    H213903   1.883   2.154   3.616
 4633TIP3   OH213904   3.661   3.297   2.772
 4633TIP3    H113905   3.674   3.277   2.864
 4633TIP3    H213906   3.718   3.237   2.725
 4634TIP3   OH213907   1.609   1.765   0.992
 4634TIP3    H113908   1.609   1.671   0.978
 4634TIP3    H213909   1.650   1.802   0.914
 4635TIP3   OH213910   0.699   5.796   1.640
 4635TIP3    H113911   0.752   5.816   1.563
 4635TIP3    H213912   0.738   5.717   1.677
 4636TIP3   OH213913   1.180   1.362   1.513
 4636TIP3    H113914   1.228   1.360   1.596
 4636TIP3    H213915   1.214   1.288   1.463
 4637TIP3   OH213916   1.675   4.986   1.594
 4637TIP3    H113917   1.615   5.061   1.596
 4637TIP3    H213918   1.714   4.984   1.682
 4638TIP3   OH213919   3.553   1.756   2.397
 4638TIP3    H113920   3.472   1.786   2.439
 4638TIP3    H213921   3.613   1.829   2.407
 4639TIP3   OH213922   1.984   2.591   4.609
 4639TIP3    H113923   2.000   2.546   4.692
 4639TIP3    H213924   1.889   2.604   4.607
 4640TIP3   OH213925   0.551   1.096   1.799
 4640TIP3    H113926   0.639   1.114   1.830
 4640TIP3    H213927   0.515   1.181   1.777
 4641TIP3   OH213928   3.545   1.486   3.175
 4641TIP3    H113929   3.551   1.501   3.270
 4641TIP3    H213930   3.631   1.509   3.141
 4642TIP3   OH213931   4.589   0.944   0.098
 4642TIP3    H113932   4.655   0.943   0.167
 4642TIP3    H213933   4.630   0.899   0.024
 4643TIP3   OH213934   0.069   5.118   4.667
 4643TIP3    H113935   0.122   5.168   4.606
 4643TIP3    H213936  -0.021   5.143   4.647
 4644TIP3   OH213937   2.147   3.489   1.437
 4644TIP3    H113938   2.053   3.511   1.437
 4644TIP3    H213939   2.150   3.400   1.470
 4645TIP3   OH213940   3.937   2.217   4.337
 4645TIP3    H113941   3.907   2.146   4.280
 4645TIP3    H213942   3.861   2.274   4.346
 4646TIP3   OH213943   1.054   0.820   1.593
 4646TIP3    H113944   1.135   0.812   1.542
 4646TIP3    H213945   0.985   0.797   1.531
 4647TIP3   OH213946   4.939   4.697   3.746
 4647TIP3    H113947   4.847   4.690   3.721
 4647TIP3    H213948   4.963   4.788   3.726
 4648TIP3   OH213949   3.585   2.967   0.359
 4648TIP3    H113950   3.540   3.027   0.300
 4648TIP3    H213951   3.670   2.953   0.317
 4649TIP3   OH213952   6.214   1.250   4.003
 4649TIP3    H113953   6.261   1.308   4.064
 4649TIP3    H213954   6.284   1.207   3.954
 4650TIP3   OH213955   1.823   1.124   3.721
 4650TIP3    H113956   1.842   1.059   3.654
 4650TIP3    H213957   1.771   1.191   3.676
 4651TIP3   OH213958   0.982   5.036   2.873
 4651TIP3    H113959   0.909   5.098   2.881
 4651TIP3    H213960   1.046   5.082   2.820
 4652TIP3   OH213961   6.239   3.987   2.625
 4652TIP3    H113962   6.260   3.992   2.718
 4652TIP3    H213963   6.147   3.963   2.622
 4653TIP3   OH213964   2.005   0.816   3.067
 4653TIP3    H113965   1.950   0.892   3.046
 4653TIP3    H213966   2.087   0.854   3.098
 4654TIP3   OH213967   1.608   1.793   1.695
 4654TIP3    H113968   1.667   1.850   1.744
 4654TIP3    H213969   1.646   1.706   1.703
 4655TIP3   OH213970   4.531   1.732   3.103
 4655TIP3    H113971   4.436   1.739   3.110
 4655TIP3    H213972   4.550   1.639   3.119
 4656TIP3   OH213973   0.587   0.819   3.808
 4656TIP3    H113974   0.556   0.839   3.897
 4656TIP3    H213975   0.583   0.724   3.802
 4657TIP3   OH213976   2.874   0.471   0.197
 4657TIP3    H113977   2.877   0.512   0.110
 4657TIP3    H213978   2.858   0.544   0.257
 4658TIP3   OH213979   1.571   1.415   0.267
 4658TIP3    H113980   1.569   1.415   0.363
 4658TIP3    H213981   1.626   1.339   0.245
 4659TIP3   OH213982   1.871   1.482   3.972
 4659TIP3    H113983   1.913   1.567   3.989
 4659TIP3    H213984   1.941   1.418   3.986
 4660TIP3   OH213985   4.061   2.876   3.342
 4660TIP3    H113986   4.112   2.866   3.262
 4660TIP3    H213987   4.122   2.914   3.405
 4661TIP3   OH213988   2.391   3.474   1.087
 4661TIP3    H113989   2.392   3.497   0.994
 4661TIP3    H213990   2.330   3.401   1.093
 4662TIP3   OH213991   5.810   4.888   1.792
 4662TIP3    H113992   5.877   4.822   1.813
 4662TIP3    H213993   5.851   4.971   1.815
 4663TIP3   OH213994   3.790   5.282  -0.017
 4663TIP3    H113995   3.709   5.255   0.025
 4663TIP3    H213996   3.830   5.343   0.044
 4664TIP3   OH213997   6.172   4.801   4.794
 4664TIP3    H113998   6.146   4.716   4.758
 4664TIP3    H213999   6.094   4.833   4.839
 4665TIP3   OH214000   2.963   2.937   4.367
 4665TIP3    H114001   2.977   2.988   4.287
 4665TIP3    H214002   3.043   2.884   4.376
 4666TIP3   OH214003   6.127   0.198   1.155
 4666TIP3    H114004   6.139   0.246   1.237
 4666TIP3    H214005   6.095   0.264   1.094
 4667TIP3   OH214006   0.556   5.563   1.501
 4667TIP3    H114007   0.597   5.569   1.588
 4667TIP3    H214008   0.570   5.472   1.475
 4668TIP3   OH214009   1.477   1.195   1.173
 4668TIP3    H114010   1.476   1.207   1.078
 4668TIP3    H214011   1.531   1.268   1.206
 4669TIP3   OH214012   0.111   1.920   4.943
 4669TIP3    H114013   0.204   1.902   4.954
 4669TIP3    H214014   0.108   1.981   4.869
 4670TIP3   OH214015   5.566   1.225   3.150
 4670TIP3    H114016   5.556   1.300   3.208
 4670TIP3    H214017   5.481   1.214   3.108
 4671TIP3   OH214018   0.585   5.954   0.878
 4671TIP3    H114019   0.600   5.942   0.784
 4671TIP3    H214020   0.666   5.992   0.911
 4672TIP3   OH214021   5.278   0.524   3.041
 4672TIP3    H114022   5.193   0.486   3.061
 4672TIP3    H214023   5.259   0.595   2.980
 4673TIP3   OH214024   2.027   3.651   5.065
 4673TIP3    H114025   2.069   3.586   5.121
 4673TIP3    H214026   1.933   3.642   5.084
 4674TIP3   OH214027   1.914   0.549   2.986
 4674TIP3    H114028   1.941   0.637   3.012
 4674TIP3    H214029   1.832   0.534   3.034
 4675TIP3   OH214030   3.812   0.254   0.393
 4675TIP3    H114031   3.850   0.166   0.392
 4675TIP3    H214032   3.875   0.307   0.443
 4676TIP3   OH214033   2.955   1.684   2.137
 4676TIP3    H114034   2.929   1.602   2.179
 4676TIP3    H214035   2.929   1.752   2.199
 4677TIP3   OH214036   5.607   0.437   4.579
 4677TIP3    H114037   5.525   0.461   4.536
 4677TIP3    H214038   5.580   0.379   4.651
 4678TIP3   OH214039   0.239   3.347   0.858
 4678TIP3    H114040   0.245   3.371   0.950
 4678TIP3    H214041   0.293   3.412   0.812
 4679TIP3   OH214042   1.613   0.919   1.677
 4679TIP3    H114043   1.529   0.932   1.720
 4679TIP3    H214044   1.613   0.827   1.650
 4680TIP3   OH214045   6.204   5.541   4.650
 4680TIP3    H114046   6.115   5.572   4.668
 4680TIP3    H214047   6.253   5.620   4.626
 4681TIP3   OH214048   5.882   2.713   0.552
 4681TIP3    H114049   5.961   2.668   0.524
 4681TIP3    H214050   5.859   2.671   0.635
 4682TIP3   OH214051   3.339   1.692   0.192
 4682TIP3    H114052   3.312   1.759   0.129
 4682TIP3    H214053   3.377   1.623   0.138
 4683TIP3   OH214054   5.566   2.058   3.362
 4683TIP3    H114055   5.548   2.103   3.444
 4683TIP3    H214056   5.549   1.966   3.382
 4684TIP3   OH214057   4.680   1.014   1.646
 4684TIP3    H114058   4.668   0.929   1.687
 4684TIP3    H214059   4.770   1.014   1.614
 4685TIP3   OH214060   5.674   0.459   1.223
 4685TIP3    H114061   5.678   0.369   1.193
 4685TIP3    H214062   5.738   0.464   1.293
 4686TIP3   OH214063   4.042   5.330   4.512
 4686TIP3    H114064   4.021   5.285   4.594
 4686TIP3    H214065   4.134   5.354   4.520
 4687TIP3   OH214066   6.064   5.085   0.059
 4687TIP3    H114067   6.099   5.058   0.144
 4687TIP3    H214068   6.070   5.007   0.005
 4688TIP3   OH214069   5.566   4.700   1.014
 4688TIP3    H114070   5.586   4.624   0.959
 4688TIP3    H214071   5.486   4.737   0.976
 4689TIP3   OH214072   1.319   0.966   0.348
 4689TIP3    H114073   1.305   1.059   0.368
 4689TIP3    H214074   1.296   0.921   0.430
 4690TIP3   OH214075   5.816   5.414   0.820
 4690TIP3    H114076   5.815   5.463   0.738
 4690TIP3    H214077   5.884   5.347   0.807
 4691TIP3   OH214078   2.304   3.687   1.496
 4691TIP3    H114079   2.253   3.748   1.549
 4691TIP3    H214080   2.241   3.620   1.469
 4692TIP3   OH214081   5.579   1.764   1.362
 4692TIP3    H114082   5.669   1.791   1.377
 4692TIP3    H214083   5.527   1.839   1.391
 4693TIP3   OH214084   5.595   0.739   4.465
 4693TIP3    H114085   5.632   0.720   4.379
 4693TIP3    H214086   5.519   0.681   4.471
 4694TIP3   OH214087   1.193   2.409   2.151
 4694TIP3    H114088   1.227   2.429   2.064
 4694TIP3    H214089   1.172   2.315   2.147
 4695TIP3   OH214090   5.440   3.846   2.411
 4695TIP3    H114091   5.512   3.807   2.362
 4695TIP3    H214092   5.459   3.939   2.413
 4696TIP3   OH214093   4.149   2.467   5.019
 4696TIP3    H114094   4.135   2.417   4.938
 4696TIP3    H214095   4.151   2.558   4.991
 4697TIP3   OH214096   0.129   0.411   1.167
 4697TIP3    H114097   0.107   0.430   1.075
 4697TIP3    H214098   0.050   0.368   1.201
 4698TIP3   OH214099   4.504   2.080   2.639
 4698TIP3    H114100   4.576   2.142   2.630
 4698TIP3    H214101   4.505   2.056   2.731
 4699TIP3   OH214102   2.102   5.921   1.104
 4699TIP3    H114103   2.086   5.974   1.182
 4699TIP3    H214104   2.188   5.950   1.074
 4700TIP3   OH214105   2.727   5.159   1.149
 4700TIP3    H114106   2.792   5.089   1.153
 4700TIP3    H214107   2.693   5.164   1.238
 4701TIP3   OH214108   4.276   2.007   1.680
 4701TIP3    H114109   4.316   1.962   1.754
 4701TIP3    H214110   4.187   2.026   1.708
 4702TIP3   OH214111   0.204   2.220   3.648
 4702TIP3    H114112   0.168   2.213   3.737
 4702TIP3    H214113   0.299   2.216   3.659
 4703TIP3   OH214114   5.340   4.450   3.665
 4703TIP3    H114115   5.397   4.374   3.665
 4703TIP3    H214116   5.268   4.427   3.606
 4704TIP3   OH214117   4.870   1.271   5.202
 4704TIP3    H114118   4.956   1.311   5.186
 4704TIP3    H214119   4.848   1.227   5.120
 4705TIP3   OH214120   0.765   2.033   2.984
 4705TIP3    H114121   0.750   1.957   3.039
 4705TIP3    H214122   0.727   2.011   2.900
 4706TIP3   OH214123   1.760   2.598   0.522
 4706TIP3    H114124   1.785   2.680   0.563
 4706TIP3    H214125   1.836   2.574   0.468
 4707TIP3   OH214126   0.193   3.237   3.643
 4707TIP3    H114127   0.226   3.174   3.579
 4707TIP3    H214128   0.099   3.241   3.626
 4708TIP3   OH214129   5.487   0.844   1.169
 4708TIP3    H114130   5.504   0.918   1.111
 4708TIP3    H214131   5.556   0.849   1.235
 4709TIP3   OH214132   1.955   2.853   1.049
 4709TIP3    H114133   1.884   2.873   1.110
 4709TIP3    H214134   1.996   2.774   1.086
 4710TIP3   OH214135   5.374   0.560   4.477
 4710TIP3    H114136   5.303   0.522   4.529
 4710TIP3    H214137   5.342   0.554   4.386
 4711TIP3   OH214138   4.292   3.932   3.689
 4711TIP3    H114139   4.374   3.949   3.642
 4711TIP3    H214140   4.237   4.008   3.670
 4712TIP3   OH214141   0.038   3.431   4.196
 4712TIP3    H114142  -0.046   3.401   4.231
 4712TIP3    H214143   0.020   3.519   4.163
 4713TIP3   OH214144   4.077   3.987   0.167
 4713TIP3    H114145   4.118   3.901   0.157
 4713TIP3    H214146   4.120   4.042   0.102
 4714TIP3   OH214147   2.216   5.048   0.050
 4714TIP3    H114148   2.122   5.043   0.030
 4714TIP3    H214149   2.259   5.019  -0.030
 4715TIP3   OH214150   2.245   2.120   4.285
 4715TIP3    H114151   2.190   2.194   4.311
 4715TIP3    H214152   2.315   2.159   4.234
 4716TIP3   OH214153   0.024   0.455   0.848
 4716TIP3    H114154  -0.045   0.421   0.792
 4716TIP3    H214155   0.105   0.419   0.812
 4717TIP3   OH214156   5.561   3.562   2.048
 4717TIP3    H114157   5.599   3.474   2.051
 4717TIP3    H214158   5.483   3.557   2.103
 4718TIP3   OH214159   6.035   1.718   4.399
 4718TIP3    H114160   6.051   1.738   4.306
 4718TIP3    H214161   6.004   1.800   4.437
 4719TIP3   OH214162   1.170   0.276   2.957
 4719TIP3    H114163   1.124   0.195   2.937
 4719TIP3    H214164   1.115   0.345   2.920
 4720TIP3   OH214165   1.012   4.677   3.229
 4720TIP3    H114166   1.021   4.754   3.173
 4720TIP3    H214167   1.056   4.701   3.310
 4721TIP3   OH214168   6.036   0.283   2.411
 4721TIP3    H114169   6.002   0.367   2.380
 4721TIP3    H214170   6.122   0.275   2.370
 4722TIP3   OH214171   3.050   4.357   1.119
 4722TIP3    H114172   3.043   4.267   1.090
 4722TIP3    H214173   3.126   4.392   1.072
 4723TIP3   OH214174   4.539   5.955   3.203
 4723TIP3    H114175   4.614   5.914   3.246
 4723TIP3    H214176   4.490   5.996   3.275
 4724TIP3   OH214177   1.723   2.341   1.886
 4724TIP3    H114178   1.680   2.265   1.847
 4724TIP3    H214179   1.654   2.385   1.936
 4725TIP3   OH214180   5.026   2.442   3.593
 4725TIP3    H114181   5.118   2.441   3.621
 4725TIP3    H214182   4.982   2.497   3.658
 4726TIP3   OH214183   5.987   3.471   2.953
 4726TIP3    H114184   5.955   3.442   3.038
 4726TIP3    H214185   5.994   3.566   2.961
 4727TIP3   OH214186   2.733   4.680   3.099
 4727TIP3    H114187   2.679   4.740   3.150
 4727TIP3    H214188   2.720   4.707   3.008
 4728TIP3   OH214189   1.312   2.091   1.880
 4728TIP3    H114190   1.370   2.148   1.830
 4728TIP3    H214191   1.347   2.092   1.969
 4729TIP3   OH214192   4.485   3.826   3.377
 4729TIP3    H114193   4.554   3.820   3.310
 4729TIP3    H214194   4.415   3.875   3.334
 4730TIP3   OH214195   4.069   2.217   2.197
 4730TIP3    H114196   3.975   2.219   2.180
 4730TIP3    H214197   4.091   2.307   2.223
 4731TIP3   OH214198   0.093   0.536   0.063
 4731TIP3    H114199   0.188   0.533   0.056
 4731TIP3    H214200   0.076   0.570   0.151
 4732TIP3   OH214201   5.606   2.367   4.408
 4732TIP3    H114202   5.587   2.278   4.377
 4732TIP3    H214203   5.520   2.405   4.425
 4733TIP3   OH214204   2.810   4.090   1.650
 4733TIP3    H114205   2.811   4.172   1.600
 4733TIP3    H214206   2.831   4.022   1.585
 4734TIP3   OH214207   1.203   3.131   2.354
 4734TIP3    H114208   1.118   3.173   2.365
 4734TIP3    H214209   1.244   3.176   2.281
 4735TIP3   OH214210   1.849   0.627   1.179
 4735TIP3    H114211   1.823   0.696   1.118
 4735TIP3    H214212   1.783   0.559   1.167
 4736TIP3   OH214213   4.175   5.391   3.961
 4736TIP3    H114214   4.203   5.446   3.887
 4736TIP3    H214215   4.239   5.409   4.030
 4737TIP3   OH214216   5.024   3.734   2.376
 4737TIP3    H114217   5.105   3.722   2.425
 4737TIP3    H214218   5.053   3.758   2.288
 4738TIP3   OH214219   1.909   2.308   0.883
 4738TIP3    H114220   1.898   2.403   0.874
 4738TIP3    H214221   1.860   2.272   0.809
 4739TIP3   OH214222   3.353   5.661   0.140
 4739TIP3    H114223   3.434   5.632   0.097
 4739TIP3    H214224   3.336   5.595   0.207
 4740TIP3   OH214225   3.466   4.350   4.640
 4740TIP3    H114226   3.372   4.334   4.642
 4740TIP3    H214227   3.481   4.412   4.711
 4741TIP3   OH214228   5.073   5.135   2.870
 4741TIP3    H114229   5.037   5.203   2.813
 4741TIP3    H214230   5.164   5.126   2.841
 4742TIP3   OH214231   0.392   1.011   5.163
 4742TIP3    H114232   0.351   1.095   5.184
 4742TIP3    H214233   0.343   0.979   5.087
 4743TIP3   OH214234   4.202   5.690   4.499
 4743TIP3    H114235   4.297   5.705   4.504
 4743TIP3    H214236   4.189   5.606   4.543
 4744TIP3   OH214237   5.817   0.428   4.804
 4744TIP3    H114238   5.798   0.390   4.890
 4744TIP3    H214239   5.875   0.364   4.763
 4745TIP3   OH214240   0.281   2.580   3.600
 4745TIP3    H114241   0.303   2.673   3.595
 4745TIP3    H214242   0.215   2.568   3.532
 4746TIP3   OH214243   6.217   1.917   3.305
 4746TIP3    H114244   6.190   1.830   3.278
 4746TIP3    H214245   6.312   1.917   3.293
 4747TIP3   OH214246   6.146   3.339   4.271
 4747TIP3    H114247   6.076   3.403   4.259
 4747TIP3    H214248   6.117   3.286   4.345
 4748TIP3   OH214249   6.320   1.696   1.113
 4748TIP3    H114250   6.267   1.753   1.058
 4748TIP3    H214251   6.410   1.716   1.088
 4749TIP3   OH214252   5.727   3.443   0.365
 4749TIP3    H114253   5.733   3.353   0.335
 4749TIP3    H214254   5.641   3.448   0.408
 4750TIP3   OH214255   3.211   2.742   5.003
 4750TIP3    H114256   3.267   2.713   4.931
 4750TIP3    H214257   3.165   2.662   5.031
 4751TIP3   OH214258   4.226   3.129   1.323
 4751TIP3    H114259   4.251   3.051   1.273
 4751TIP3    H214260   4.130   3.130   1.319
 4752TIP3   OH214261   3.578   1.562   4.183
 4752TIP3    H114262   3.490   1.528   4.197
 4752TIP3    H214263   3.631   1.484   4.167
 4753TIP3   OH214264   1.336   3.707   5.143
 4753TIP3    H114265   1.386   3.637   5.102
 4753TIP3    H214266   1.245   3.688   5.121
 4754TIP3   OH214267   3.325   5.144   0.119
 4754TIP3    H114268   3.368   5.104   0.043
 4754TIP3    H214269   3.256   5.082   0.143
 4755TIP3   OH214270   1.393   2.244   0.310
 4755TIP3    H114271   1.453   2.175   0.282
 4755TIP3    H214272   1.329   2.250   0.239
 4756TIP3   OH214273   4.870   3.218   0.369
 4756TIP3    H114274   4.793   3.253   0.322
 4756TIP3    H214275   4.913   3.296   0.405
 4757TIP3   OH214276   3.838   3.818   4.307
 4757TIP3    H114277   3.851   3.760   4.232
 4757TIP3    H214278   3.926   3.851   4.327
 4758TIP3   OH214279   2.652   1.998   4.650
 4758TIP3    H114280   2.660   1.951   4.567
 4758TIP3    H214281   2.695   1.941   4.714
 4759TIP3   OH214282   4.280   1.916   3.437
 4759TIP3    H114283   4.345   1.918   3.508
 4759TIP3    H214284   4.312   1.981   3.375
 4760TIP3   OH214285   6.205   1.507   3.847
 4760TIP3    H114286   6.168   1.442   3.907
 4760TIP3    H214287   6.186   1.591   3.888
 4761TIP3   OH214288   4.298   0.644   1.261
 4761TIP3    H114289   4.241   0.601   1.197
 4761TIP3    H214290   4.284   0.595   1.342
 4762TIP3   OH214291   2.353   0.740   2.328
 4762TIP3    H114292   2.325   0.798   2.400
 4762TIP3    H214293   2.279   0.740   2.268
 4763TIP3   OH214294   1.274   5.572   3.190
 4763TIP3    H114295   1.258   5.477   3.196
 4763TIP3    H214296   1.186   5.610   3.189
 4764TIP3   OH214297   5.156   4.289   4.914
 4764TIP3    H114298   5.189   4.353   4.976
 4764TIP3    H214299   5.208   4.210   4.930
 4765TIP3   OH214300   6.042   5.061   2.239
 4765TIP3    H114301   6.085   5.027   2.318
 4765TIP3    H214302   5.972   5.117   2.273
 4766TIP3   OH214303   2.240   2.083   1.356
 4766TIP3    H114304   2.223   2.155   1.417
 4766TIP3    H214305   2.205   2.005   1.399
 4767TIP3   OH214306   3.454   2.951   2.866
 4767TIP3    H114307   3.492   3.003   2.937
 4767TIP3    H214308   3.423   2.871   2.909
 4768TIP3   OH214309   4.126   4.023   2.312
 4768TIP3    H114310   4.072   3.955   2.350
 4768TIP3    H214311   4.090   4.105   2.347
 4769TIP3   OH214312   2.400   0.550   1.802
 4769TIP3    H114313   2.407   0.541   1.897
 4769TIP3    H214314   2.306   0.555   1.786
 4770TIP3   OH214315   5.787   0.651   1.044
 4770TIP3    H114316   5.868   0.602   1.030
 4770TIP3    H214317   5.732   0.593   1.097
 4771TIP3   OH214318   5.300   0.620   0.803
 4771TIP3    H114319   5.236   0.628   0.874
 4771TIP3    H214320   5.246   0.617   0.723
 4772TIP3   OH214321   2.154   0.445   2.873
 4772TIP3    H114322   2.070   0.490   2.884
 4772TIP3    H214323   2.217   0.516   2.859
 4773TIP3   OH214324   4.299   3.661   4.205
 4773TIP3    H114325   4.215   3.668   4.250
 4773TIP3    H214326   4.292   3.580   4.154
 4774TIP3   OH214327   1.538   1.224   1.543
 4774TIP3    H114328   1.459   1.208   1.593
 4774TIP3    H214329   1.605   1.171   1.586
 4775TIP3   OH214330   2.499   0.542   4.332
 4775TIP3    H114331   2.426   0.561   4.391
 4775TIP3    H214332   2.470   0.467   4.280
 4776TIP3   OH214333   2.712   0.492   1.269
 4776TIP3    H114334   2.751   0.408   1.244
 4776TIP3    H214335   2.617   0.476   1.267
 4777TIP3   OH214336   4.982   2.073   5.006
 4777TIP3    H114337   4.893   2.051   5.035
 4777TIP3    H214338   5.023   2.114   5.082
 4778TIP3   OH214339   0.678   2.282   1.054
 4778TIP3    H114340   0.733   2.297   1.130
 4778TIP3    H214341   0.654   2.369   1.023
 4779TIP3   OH214342   3.744   2.988   2.757
 4779TIP3    H114343   3.650   2.980   2.741
 4779TIP3    H214344   3.763   2.923   2.824
 4780TIP3   OH214345   2.227   2.507   2.614
 4780TIP3    H114346   2.162   2.495   2.545
 4780TIP3    H214347   2.188   2.572   2.673
 4781TIP3   OH214348   6.067   3.987   1.664
 4781TIP3    H114349   5.991   4.034   1.630
 4781TIP3    H214350   6.061   3.996   1.759
 4782TIP3   OH214351   1.892   5.484   1.875
 4782TIP3    H114352   1.906   5.549   1.806
 4782TIP3    H214353   1.812   5.512   1.918
 4783TIP3   OH214354   2.986   5.306   1.354
 4783TIP3    H114355   2.990   5.224   1.403
 4783TIP3    H214356   3.012   5.373   1.416
 4784TIP3   OH214357   4.013   5.148   4.301
 4784TIP3    H114358   3.951   5.171   4.232
 4784TIP3    H214359   4.000   5.215   4.368
 4785TIP3   OH214360   0.997   1.330   3.778
 4785TIP3    H114361   1.061   1.389   3.819
 4785TIP3    H214362   0.941   1.389   3.726
 4786TIP3   OH214363   2.060   4.350   2.273
 4786TIP3    H114364   2.064   4.445   2.277
 4786TIP3    H214365   2.142   4.323   2.233
 4787TIP3   OH214366   3.963   3.104   0.773
 4787TIP3    H114367   4.022   3.131   0.843
 4787TIP3    H214368   4.020   3.087   0.698
 4788TIP3   OH214369   2.827   1.509   0.586
 4788TIP3    H114370   2.889   1.438   0.600
 4788TIP3    H214371   2.795   1.531   0.673
 4789TIP3   OH214372   5.844   2.477   0.315
 4789TIP3    H114373   5.819   2.417   0.384
 4789TIP3    H214374   5.889   2.548   0.360
 4790TIP3   OH214375   5.105   5.664   3.551
 4790TIP3    H114376   5.119   5.616   3.632
 4790TIP3    H214377   5.192   5.674   3.514
 4791TIP3   OH214378   5.892   3.265   2.430
 4791TIP3    H114379   5.828   3.335   2.418
 4791TIP3    H214380   5.844   3.198   2.480
 4792TIP3   OH214381   3.106   4.633   3.933
 4792TIP3    H114382   3.105   4.573   3.858
 4792TIP3    H214383   3.043   4.595   3.994
 4793TIP3   OH214384   5.668   4.937   3.527
 4793TIP3    H114385   5.620   4.856   3.509
 4793TIP3    H214386   5.652   4.955   3.620
 4794TIP3   OH214387   4.281   2.156   3.293
 4794TIP3    H114388   4.198   2.162   3.246
 4794TIP3    H214389   4.338   2.218   3.248
 4795TIP3   OH214390   6.116   4.979   1.112
 4795TIP3    H114391   6.112   4.994   1.207
 4795TIP3    H214392   6.177   5.046   1.080
 4796TIP3   OH214393   0.746   1.485   4.462
 4796TIP3    H114394   0.752   1.570   4.505
 4796TIP3    H214395   0.832   1.446   4.473
 4797TIP3   OH214396   1.231   1.774   2.572
 4797TIP3    H114397   1.297   1.798   2.637
 4797TIP3    H214398   1.241   1.679   2.561
 4798TIP3   OH214399   5.898   3.733   2.974
 4798TIP3    H114400   5.952   3.799   3.017
 4798TIP3    H214401   5.828   3.782   2.931
 4799TIP3   OH214402   0.219   1.516   0.490
 4799TIP3    H114403   0.198   1.610   0.486
 4799TIP3    H214404   0.281   1.509   0.563
 4800TIP3   OH214405   5.416   4.487   3.956
 4800TIP3    H114406   5.372   4.570   3.944
 4800TIP3    H214407   5.392   4.435   3.878
 4801TIP3   OH214408   4.138   3.778   3.449
 4801TIP3    H114409   4.163   3.841   3.517
 4801TIP3    H214410   4.182   3.696   3.474
 4802TIP3   OH214411   6.184   0.156   0.269
 4802TIP3    H114412   6.142   0.184   0.187
 4802TIP3    H214413   6.150   0.217   0.335
 4803TIP3   OH214414   5.207   0.679   4.233
 4803TIP3    H114415   5.113   0.664   4.235
 4803TIP3    H214416   5.227   0.694   4.140
 4804TIP3   OH214417   0.402   5.615   3.492
 4804TIP3    H114418   0.326   5.672   3.477
 4804TIP3    H214419   0.368   5.542   3.543
 4805TIP3   OH214420   6.213   5.009   2.484
 4805TIP3    H114421   6.126   4.970   2.495
 4805TIP3    H214422   6.270   4.958   2.541
 4806TIP3   OH214423   0.727   5.593   3.697
 4806TIP3    H114424   0.652   5.567   3.752
 4806TIP3    H214425   0.696   5.670   3.650
 4807TIP3   OH214426   5.431   3.455   5.119
 4807TIP3    H114427   5.477   3.444   5.202
 4807TIP3    H214428   5.498   3.483   5.057
 4808TIP3   OH214429   1.985   3.401   1.044
 4808TIP3    H114430   1.936   3.322   1.068
 4808TIP3    H214431   2.066   3.395   1.094
 4809TIP3   OH214432   3.730   0.698   3.642
 4809TIP3    H114433   3.646   0.652   3.639
 4809TIP3    H214434   3.723   0.756   3.717
 4810TIP3   OH214435   3.562   3.328   2.058
 4810TIP3    H114436   3.615   3.408   2.053
 4810TIP3    H214437   3.547   3.316   2.152
 4811TIP3   OH214438   4.693   5.474   2.352
 4811TIP3    H114439   4.779   5.502   2.319
 4811TIP3    H214440   4.634   5.545   2.328
 4812TIP3   OH214441   4.370   2.412   1.321
 4812TIP3    H114442   4.334   2.367   1.397
 4812TIP3    H214443   4.460   2.379   1.314
 4813TIP3   OH214444   2.382   4.728   0.088
 4813TIP3    H114445   2.410   4.780   0.013
 4813TIP3    H214446   2.367   4.793   0.158
 4814TIP3   OH214447   6.200   4.852   1.840
 4814TIP3    H114448   6.128   4.793   1.863
 4814TIP3    H214449   6.207   4.911   1.915
 4815TIP3   OH214450   4.532   3.454   3.809
 4815TIP3    H114451   4.538   3.508   3.730
 4815TIP3    H214452   4.564   3.368   3.782
 4816TIP3   OH214453   4.588   0.419   4.642
 4816TIP3    H114454   4.524   0.350   4.621
 4816TIP3    H214455   4.535   0.495   4.664
 4817TIP3   OH214456   0.359   0.448   3.482
 4817TIP3    H114457   0.399   0.528   3.516
 4817TIP3    H214458   0.287   0.430   3.542
 4818TIP3   OH214459   4.806   0.840   1.952
 4818TIP3    H114460   4.794   0.919   2.005
 4818TIP3    H214461   4.719   0.803   1.943
 4819TIP3   OH214462   3.890   2.052  -0.011
 4819TIP3    H114463   3.863   2.000   0.065
 4819TIP3    H214464   3.942   2.123   0.026
 4820TIP3   OH214465   1.787   5.980   0.460
 4820TIP3    H114466   1.883   5.971   0.459
 4820TIP3    H214467   1.756   5.906   0.512
 4821TIP3   OH214468   2.923   5.863   0.201
 4821TIP3    H114469   2.852   5.799   0.199
 4821TIP3    H214470   2.892   5.936   0.147
 4822TIP3   OH214471   1.283   1.162   5.100
 4822TIP3    H114472   1.371   1.128   5.120
 4822TIP3    H214473   1.299   1.243   5.053
 4823TIP3   OH214474   3.827   0.175   1.406
 4823TIP3    H114475   3.783   0.092   1.387
 4823TIP3    H214476   3.919   0.159   1.382
 4824TIP3   OH214477   5.699   2.772   2.611
 4824TIP3    H114478   5.744   2.742   2.690
 4824TIP3    H214479   5.624   2.714   2.601
 4825TIP3   OH214480   3.839   3.261   0.525
 4825TIP3    H114481   3.778   3.255   0.598
 4825TIP3    H214482   3.785   3.285   0.450
 4826TIP3   OH214483   2.771   1.379   4.420
 4826TIP3    H114484   2.861   1.385   4.453
 4826TIP3    H214485   2.736   1.301   4.463
 4827TIP3   OH214486   2.560   1.271   0.651
 4827TIP3    H114487   2.644   1.244   0.690
 4827TIP3    H214488   2.582   1.349   0.600
 4828TIP3   OH214489   3.910   1.773   2.308
 4828TIP3    H114490   3.865   1.707   2.255
 4828TIP3    H214491   3.843   1.839   2.326
 4829TIP3   OH214492   1.891   2.003   2.767
 4829TIP3    H114493   1.841   2.085   2.762
 4829TIP3    H214494   1.982   2.031   2.768
 4830TIP3   OH214495   4.814   0.373   3.762
 4830TIP3    H114496   4.755   0.298   3.766
 4830TIP3    H214497   4.863   0.369   3.845
 4831TIP3   OH214498   3.840   4.923   1.870
 4831TIP3    H114499   3.917   4.892   1.918
 4831TIP3    H214500   3.790   4.843   1.853
 4832TIP3   OH214501   1.225   2.763   3.538
 4832TIP3    H114502   1.175   2.725   3.466
 4832TIP3    H214503   1.194   2.854   3.544
 4833TIP3   OH214504   5.914   0.707   0.507
 4833TIP3    H114505   5.866   0.768   0.563
 4833TIP3    H214506   6.005   0.736   0.512
 4834TIP3   OH214507   0.749   3.228   3.220
 4834TIP3    H114508   0.749   3.189   3.308
 4834TIP3    H214509   0.805   3.170   3.169
 4835TIP3   OH214510   6.015   5.584   2.511
 4835TIP3    H114511   6.093   5.638   2.511
 4835TIP3    H214512   5.951   5.633   2.563
 4836TIP3   OH214513   6.127   4.374   3.066
 4836TIP3    H114514   6.136   4.466   3.088
 4836TIP3    H214515   6.202   4.332   3.108
 4837TIP3   OH214516   4.785   2.640   3.510
 4837TIP3    H114517   4.734   2.718   3.534
 4837TIP3    H214518   4.830   2.666   3.429
 4838TIP3   OH214519   3.357   0.036   5.126
 4838TIP3    H114520   3.369  -0.043   5.179
 4838TIP3    H214521   3.349   0.106   5.191
 4839TIP3   OH214522   1.408   5.473   0.130
 4839TIP3    H114523   1.486   5.515   0.166
 4839TIP3    H214524   1.335   5.515   0.175
 4840TIP3   OH214525   4.939   3.740   3.667
 4840TIP3    H114526   4.979   3.703   3.745
 4840TIP3    H214527   4.860   3.784   3.699
 4841TIP3   OH214528   5.591   0.172   3.461
 4841TIP3    H114529   5.634   0.116   3.397
 4841TIP3    H214530   5.661   0.203   3.518
 4842TIP3   OH214531   2.713   4.262   5.000
 4842TIP3    H114532   2.744   4.295   5.084
 4842TIP3    H214533   2.722   4.167   5.007
 4843TIP3   OH214534   3.184   4.484   4.638
 4843TIP3    H114535   3.155   4.493   4.547
 4843TIP3    H214536   3.223   4.569   4.659
 4844TIP3   OH214537   5.431   2.312   2.571
 4844TIP3    H114538   5.517   2.321   2.529
 4844TIP3    H214539   5.376   2.375   2.526
 4845TIP3   OH214540   2.406   2.446   2.353
 4845TIP3    H114541   2.427   2.491   2.271
 4845TIP3    H214542   2.313   2.463   2.367
 4846TIP3   OH214543   4.818   4.483   2.418
 4846TIP3    H114544   4.748   4.438   2.466
 4846TIP3    H214545   4.773   4.527   2.346
 4847TIP3   OH214546   0.112   0.201   2.374
 4847TIP3    H114547   0.079   0.131   2.429
 4847TIP3    H214548   0.173   0.159   2.314
 4848TIP3   OH214549   5.426   3.616   4.216
 4848TIP3    H114550   5.346   3.574   4.185
 4848TIP3    H214551   5.441   3.689   4.155
 4849TIP3   OH214552   2.013   3.330   0.177
 4849TIP3    H114553   2.038   3.302   0.089
 4849TIP3    H214554   2.066   3.277   0.236
 4850TIP3   OH214555   3.295   1.403   4.463
 4850TIP3    H114556   3.319   1.495   4.452
 4850TIP3    H214557   3.361   1.368   4.524
 4851TIP3   OH214558   4.286   3.252   2.035
 4851TIP3    H114559   4.368   3.272   2.081
 4851TIP3    H214560   4.302   3.279   1.945
 4852TIP3   OH214561   4.168   3.896   0.597
 4852TIP3    H114562   4.180   3.979   0.550
 4852TIP3    H214563   4.125   3.921   0.679
 4853TIP3   OH214564   3.939   1.376   3.272
 4853TIP3    H114565   3.963   1.294   3.228
 4853TIP3    H214566   3.866   1.353   3.328
 4854TIP3   OH214567   3.142   5.224   3.004
 4854TIP3    H114568   3.181   5.310   2.985
 4854TIP3    H214569   3.077   5.212   2.934
 4855TIP3   OH214570   1.641  -0.003   4.500
 4855TIP3    H114571   1.566   0.056   4.494
 4855TIP3    H214572   1.717   0.052   4.486
 4856TIP3   OH214573   1.858   2.861   0.571
 4856TIP3    H114574   1.863   2.926   0.641
 4856TIP3    H214575   1.919   2.894   0.504
 4857TIP3   OH214576   5.751   1.190   4.728
 4857TIP3    H114577   5.846   1.199   4.723
 4857TIP3    H214578   5.735   1.097   4.709
 4858TIP3   OH214579   5.788   0.510   1.739
 4858TIP3    H114580   5.745   0.521   1.824
 4858TIP3    H214581   5.722   0.537   1.676
 4859TIP3   OH214582   4.855   5.957   3.876
 4859TIP3    H114583   4.777   5.909   3.848
 4859TIP3    H214584   4.822   6.028   3.931
 4860TIP3   OH214585   0.449   3.031   3.469
 4860TIP3    H114586   0.392   3.061   3.398
 4860TIP3    H214587   0.508   3.105   3.485
 4861TIP3   OH214588   6.286   3.691   4.180
 4861TIP3    H114589   6.193   3.715   4.169
 4861TIP3    H214590   6.333   3.772   4.160
 4862TIP3   OH214591   0.944   2.218   3.107
 4862TIP3    H114592   0.889   2.166   3.048
 4862TIP3    H214593   1.000   2.154   3.150
 4863TIP3   OH214594   6.205   2.268   1.933
 4863TIP3    H114595   6.220   2.182   1.893
 4863TIP3    H214596   6.291   2.296   1.962
 4864TIP3   OH214597   3.865   2.569   4.173
 4864TIP3    H114598   3.865   2.499   4.108
 4864TIP3    H214599   3.777   2.566   4.211
 4865TIP3   OH214600   4.664   3.045   4.060
 4865TIP3    H114601   4.658   2.974   4.125
 4865TIP3    H214602   4.573   3.064   4.038
 4866TIP3   OH214603   0.189   0.193   3.823
 4866TIP3    H114604   0.214   0.107   3.857
 4866TIP3    H214605   0.215   0.254   3.892
 4867TIP3   OH214606   2.111   4.600   5.067
 4867TIP3    H114607   2.086   4.654   5.142
 4867TIP3    H214608   2.179   4.652   5.022
 4868TIP3   OH214609   5.855   4.934   1.475
 4868TIP3    H114610   5.796   4.983   1.417
 4868TIP3    H214611   5.943   4.952   1.442
 4869TIP3   OH214612   3.797   5.361   3.451
 4869TIP3    H114613   3.869   5.351   3.514
 4869TIP3    H214614   3.784   5.455   3.445
 4870TIP3   OH214615   0.261   2.841   3.471
 4870TIP3    H114616   0.201   2.837   3.545
 4870TIP3    H214617   0.333   2.896   3.501
 4871TIP3   OH214618   0.591   2.329   0.472
 4871TIP3    H114619   0.544   2.351   0.392
 4871TIP3    H214620   0.527   2.279   0.523
 4872TIP3   OH214621   5.331   5.860   1.762
 4872TIP3    H114622   5.331   5.954   1.780
 4872TIP3    H214623   5.275   5.822   1.830
 4873TIP3   OH214624   5.241   1.318   4.336
 4873TIP3    H114625   5.145   1.319   4.326
 4873TIP3    H214626   5.254   1.316   4.431
 4874TIP3   OH214627   0.767   2.920   4.884
 4874TIP3    H114628   0.815   2.987   4.836
 4874TIP3    H214629   0.811   2.838   4.862
 4875TIP3   OH214630   1.897   5.944   0.921
 4875TIP3    H114631   1.824   5.947   0.983
 4875TIP3    H214632   1.975   5.959   0.974
 4876TIP3   OH214633   1.022   2.230   4.973
 4876TIP3    H114634   1.102   2.279   4.955
 4876TIP3    H214635   0.961   2.259   4.905
 4877TIP3   OH214636   0.687   5.102   2.941
 4877TIP3    H114637   0.654   5.018   2.909
 4877TIP3    H214638   0.621   5.166   2.914
 4878TIP3   OH214639   0.331   4.862   0.927
 4878TIP3    H114640   0.423   4.836   0.935
 4878TIP3    H214641   0.312   4.909   1.008
 4879TIP3   OH214642   6.164   5.836   1.693
 4879TIP3    H114643   6.090   5.784   1.662
 4879TIP3    H214644   6.236   5.774   1.701
 4880TIP3   OH214645   3.523   3.803   2.991
 4880TIP3    H114646   3.539   3.783   3.083
 4880TIP3    H214647   3.560   3.728   2.944
 4881TIP3   OH214648   5.455   3.539   0.062
 4881TIP3    H114649   5.514   3.615   0.065
 4881TIP3    H214650   5.486   3.488  -0.013
 4882TIP3   OH214651   4.129   2.983   4.285
 4882TIP3    H114652   4.117   2.909   4.225
 4882TIP3    H214653   4.151   2.942   4.369
 4883TIP3   OH214654   1.018   1.111   2.668
 4883TIP3    H114655   0.981   1.053   2.602
 4883TIP3    H214656   0.987   1.198   2.643
 4884TIP3   OH214657   5.318   1.258   0.565
 4884TIP3    H114658   5.397   1.297   0.526
 4884TIP3    H214659   5.257   1.331   0.575
 4885TIP3   OH214660   4.168   1.377   4.467
 4885TIP3    H114661   4.256   1.407   4.443
 4885TIP3    H214662   4.113   1.408   4.395
 4886TIP3   OH214663   3.604   4.315   3.539
 4886TIP3    H114664   3.564   4.395   3.506
 4886TIP3    H214665   3.669   4.345   3.602
 4887TIP3   OH214666   2.892   5.088   1.979
 4887TIP3    H114667   2.948   5.079   2.056
 4887TIP3    H214668   2.808   5.050   2.006
 4888TIP3   OH214669   2.210   2.193   2.676
 4888TIP3    H114670   2.153   2.175   2.750
 4888TIP3    H214671   2.212   2.289   2.669
 4889TIP3   OH214672   5.990   5.608   3.844
 4889TIP3    H114673   6.025   5.573   3.762
 4889TIP3    H214674   5.919   5.548   3.867
 4890TIP3   OH214675   3.753   5.334   3.123
 4890TIP3    H114676   3.773   5.242   3.103
 4890TIP3    H214677   3.743   5.336   3.218
 4891TIP3   OH214678   0.787   3.013   3.686
 4891TIP3    H114679   0.717   3.069   3.654
 4891TIP3    H214680   0.844   2.999   3.610
 4892TIP3   OH214681   5.569   4.482   1.879
 4892TIP3    H114682   5.492   4.536   1.867
 4892TIP3    H214683   5.634   4.518   1.818
 4893TIP3   OH214684   5.547   5.092   2.691
 4893TIP3    H114685   5.469   5.039   2.701
 4893TIP3    H214686   5.526   5.175   2.734
 4894TIP3   OH214687   3.343   2.201   2.814
 4894TIP3    H114688   3.337   2.279   2.869
 4894TIP3    H214689   3.284   2.138   2.855
 4895TIP3   OH214690   4.593   5.435   4.156
 4895TIP3    H114691   4.622   5.369   4.219
 4895TIP3    H214692   4.649   5.511   4.174
 4896TIP3   OH214693   4.731   2.228   2.620
 4896TIP3    H114694   4.755   2.197   2.707
 4896TIP3    H214695   4.806   2.206   2.565
 4897TIP3   OH214696   5.049   4.530   0.766
 4897TIP3    H114697   5.000   4.575   0.697
 4897TIP3    H214698   5.023   4.573   0.847
 4898TIP3   OH214699   0.052   5.949   2.072
 4898TIP3    H114700   0.123   5.895   2.107
 4898TIP3    H214701   0.088   5.987   1.991
 4899TIP3   OH214702   0.190   2.202   1.839
 4899TIP3    H114703   0.241   2.131   1.878
 4899TIP3    H214704   0.253   2.272   1.825
 4900TIP3   OH214705   2.715   4.123   0.530
 4900TIP3    H114706   2.799   4.145   0.570
 4900TIP3    H214707   2.664   4.204   0.534
 4901TIP3   OH214708   2.022   3.369   3.853
 4901TIP3    H114709   1.936   3.348   3.816
 4901TIP3    H214710   2.013   3.351   3.946
 4902TIP3   OH214711   4.399   0.703   3.531
 4902TIP3    H114712   4.425   0.633   3.472
 4902TIP3    H214713   4.476   0.718   3.586
 4903TIP3   OH214714   3.033   3.063   1.124
 4903TIP3    H114715   2.958   3.121   1.112
 4903TIP3    H214716   3.002   2.995   1.184
 4904TIP3   OH214717   5.303   3.275   1.849
 4904TIP3    H114718   5.273   3.259   1.759
 4904TIP3    H214719   5.398   3.282   1.842
 4905TIP3   OH214720   2.980   0.086   4.350
 4905TIP3    H114721   2.968   0.178   4.326
 4905TIP3    H214722   2.976   0.085   4.445
 4906TIP3   OH214723   2.469   5.497   4.500
 4906TIP3    H114724   2.556   5.498   4.459
 4906TIP3    H214725   2.473   5.424   4.562
 4907TIP3   OH214726   2.290   0.582   3.535
 4907TIP3    H114727   2.254   0.575   3.623
 4907TIP3    H214728   2.229   0.533   3.480
 4908TIP3   OH214729   4.368   0.864   4.668
 4908TIP3    H114730   4.365   0.937   4.606
 4908TIP3    H214731   4.338   0.788   4.617
 4909TIP3   OH214732   0.607   3.855   1.560
 4909TIP3    H114733   0.561   3.771   1.565
 4909TIP3    H214734   0.671   3.842   1.490
 4910TIP3   OH214735   2.830   1.080   2.762
 4910TIP3    H114736   2.759   1.084   2.826
 4910TIP3    H214737   2.794   1.030   2.689
 4911TIP3   OH214738   3.276   1.781   2.668
 4911TIP3    H114739   3.276   1.752   2.759
 4911TIP3    H214740   3.240   1.707   2.619
 4912TIP3   OH214741   0.273   4.285   3.610
 4912TIP3    H114742   0.249   4.309   3.521
 4912TIP3    H214743   0.360   4.324   3.623
 4913TIP3   OH214744   5.460   3.786   4.030
 4913TIP3    H114745   5.454   3.736   3.949
 4913TIP3    H214746   5.460   3.878   4.003
 4914TIP3   OH214747   3.118   5.446   4.481
 4914TIP3    H114748   3.181   5.484   4.543
 4914TIP3    H214749   3.111   5.511   4.411
 4915TIP3   OH214750   0.926   2.198   3.421
 4915TIP3    H114751   1.000   2.137   3.419
 4915TIP3    H214752   0.907   2.217   3.329
 4916TIP3   OH214753   3.271   0.732   3.298
 4916TIP3    H114754   3.179   0.750   3.317
 4916TIP3    H214755   3.273   0.640   3.271
 4917TIP3   OH214756   6.253   1.835   0.029
 4917TIP3    H114757   6.164   1.867   0.009
 4917TIP3    H214758   6.280   1.885   0.105
 4918TIP3   OH214759   0.889   0.950   0.186
 4918TIP3    H114760   0.961   0.911   0.137
 4918TIP3    H214761   0.842   1.003   0.122
 4919TIP3   OH214762   2.624   3.521   0.116
 4919TIP3    H114763   2.699   3.509   0.057
 4919TIP3    H214764   2.631   3.613   0.144
 4920TIP3   OH214765   5.705   4.136   1.968
 4920TIP3    H114766   5.634   4.079   1.998
 4920TIP3    H214767   5.783   4.080   1.970
 4921TIP3   OH214768   5.647   5.880   3.906
 4921TIP3    H114769   5.655   5.797   3.859
 4921TIP3    H214770   5.719   5.879   3.969
 4922TIP3   OH214771   3.484   1.469   0.654
 4922TIP3    H114772   3.573   1.464   0.618
 4922TIP3    H214773   3.446   1.547   0.613
 4923TIP3   OH214774   0.650   1.943   5.035
 4923TIP3    H114775   0.740   1.923   5.059
 4923TIP3    H214776   0.634   2.031   5.069
 4924TIP3   OH214777   3.996   5.835   1.526
 4924TIP3    H114778   3.905   5.833   1.556
 4924TIP3    H214779   4.041   5.772   1.581
 4925TIP3   OH214780   2.402   5.976   2.648
 4925TIP3    H114781   2.342   5.907   2.675
 4925TIP3    H214782   2.346   6.049   2.624
 4926TIP3   OH214783   5.695   1.762   3.595
 4926TIP3    H114784   5.757   1.715   3.539
 4926TIP3    H214785   5.742   1.840   3.624
 4927TIP3   OH214786   0.639   2.823   3.551
 4927TIP3    H114787   0.553   2.864   3.562
 4927TIP3    H214788   0.690   2.854   3.625
 4928TIP3   OH214789   1.174   2.497   4.431
 4928TIP3    H114790   1.091   2.483   4.385
 4928TIP3    H214791   1.241   2.478   4.365
 4929TIP3   OH214792   4.373   3.808   0.995
 4929TIP3    H114793   4.464   3.811   1.026
 4929TIP3    H214794   4.331   3.742   1.051
 4930TIP3   OH214795   2.859   3.050   3.408
 4930TIP3    H114796   2.783   3.001   3.380
 4930TIP3    H214797   2.901   3.078   3.326
 4931TIP3   OH214798   2.105   0.869   0.718
 4931TIP3    H114799   2.088   0.837   0.630
 4931TIP3    H214800   2.130   0.791   0.767
 4932TIP3   OH214801   0.813   0.087   2.447
 4932TIP3    H114802   0.837  -0.006   2.453
 4932TIP3    H214803   0.752   0.101   2.519
 4933TIP3   OH214804   4.872   4.295   4.955
 4933TIP3    H114805   4.952   4.260   4.916
 4933TIP3    H214806   4.902   4.367   5.011
 4934TIP3   OH214807   3.739   4.357   1.698
 4934TIP3    H114808   3.646   4.357   1.723
 4934TIP3    H214809   3.746   4.290   1.631
 4935TIP3   OH214810   2.626   0.331   0.184
 4935TIP3    H114811   2.719   0.354   0.189
 4935TIP3    H214812   2.586   0.378   0.257
 4936TIP3   OH214813   6.021   2.470   4.349
 4936TIP3    H114814   6.007   2.535   4.280
 4936TIP3    H214815   6.111   2.485   4.378
 4937TIP3   OH214816   0.475   0.728   0.926
 4937TIP3    H114817   0.490   0.717   0.832
 4937TIP3    H214818   0.549   0.781   0.956
 4938TIP3   OH214819   3.274   5.933   3.475
 4938TIP3    H114820   3.287   5.844   3.443
 4938TIP3    H214821   3.361   5.972   3.473
 4939TIP3   OH214822   3.181   2.165   2.294
 4939TIP3    H114823   3.273   2.181   2.273
 4939TIP3    H214824   3.173   2.189   2.386
 4940TIP3   OH214825   0.540   5.106   3.397
 4940TIP3    H114826   0.496   5.171   3.342
 4940TIP3    H214827   0.627   5.095   3.358
 4941TIP3   OH214828   3.923   2.045   0.434
 4941TIP3    H114829   4.013   2.065   0.460
 4941TIP3    H214830   3.887   1.995   0.508
 4942TIP3   OH214831   1.734   3.764   0.725
 4942TIP3    H114832   1.726   3.669   0.721
 4942TIP3    H214833   1.720   3.785   0.817
 4943TIP3   OH214834   0.225   0.346   4.348
 4943TIP3    H114835   0.280   0.409   4.301
 4943TIP3    H214836   0.280   0.269   4.358
 4944TIP3   OH214837   1.666   4.383   4.501
 4944TIP3    H114838   1.757   4.373   4.471
 4944TIP3    H214839   1.634   4.293   4.507
 4945TIP3   OH214840   3.802   2.592   3.721
 4945TIP3    H114841   3.805   2.607   3.626
 4945TIP3    H214842   3.721   2.634   3.749
 4946TIP3   OH214843   4.718   2.139   1.156
 4946TIP3    H114844   4.761   2.122   1.240
 4946TIP3    H214845   4.788   2.134   1.091
 4947TIP3   OH214846   5.416   4.783   3.000
 4947TIP3    H114847   5.448   4.693   2.990
 4947TIP3    H214848   5.382   4.806   2.913
 4948TIP3   OH214849   3.380   2.446   2.544
 4948TIP3    H114850   3.362   2.352   2.554
 4948TIP3    H214851   3.294   2.487   2.556
 4949TIP3   OH214852   3.183   5.362   0.591
 4949TIP3    H114853   3.158   5.363   0.499
 4949TIP3    H214854   3.204   5.453   0.612
 4950TIP3   OH214855   0.445   0.477   4.201
 4950TIP3    H114856   0.416   0.566   4.221
 4950TIP3    H214857   0.452   0.434   4.286
 4951TIP3   OH214858   2.286   4.198   4.149
 4951TIP3    H114859   2.291   4.118   4.096
 4951TIP3    H214860   2.336   4.179   4.227
 4952TIP3   OH214861   4.947   2.797   2.492
 4952TIP3    H114862   4.871   2.826   2.543
 4952TIP3    H214863   5.007   2.872   2.494
 4953TIP3   OH214864   5.945   2.335   5.178
 4953TIP3    H114865   5.915   2.418   5.140
 4953TIP3    H214866   6.033   2.323   5.142
 4954TIP3   OH214867   0.824   1.536   0.696
 4954TIP3    H114868   0.741   1.580   0.683
 4954TIP3    H214869   0.831   1.525   0.791
 4955TIP3   OH214870   5.822   1.021   4.413
 4955TIP3    H114871   5.733   1.050   4.396
 4955TIP3    H214872   5.877   1.097   4.395
 4956TIP3   OH214873   2.736   2.371   0.361
 4956TIP3    H114874   2.789   2.449   0.345
 4956TIP3    H214875   2.682   2.394   0.437
 4957TIP3   OH214876   5.034   3.552   3.851
 4957TIP3    H114877   5.130   3.551   3.845
 4957TIP3    H214878   5.004   3.516   3.768
 4958TIP3   OH214879   3.103   3.166   0.873
 4958TIP3    H114880   3.105   3.121   0.958
 4958TIP3    H214881   3.192   3.157   0.839
 4959TIP3   OH214882   2.783   1.921   5.185
 4959TIP3    H114883   2.775   1.849   5.123
 4959TIP3    H214884   2.851   1.978   5.149
 4960TIP3   OH214885   6.250   3.568   2.205
 4960TIP3    H114886   6.318   3.635   2.197
 4960TIP3    H214887   6.224   3.571   2.297
 4961TIP3   OH214888   4.514   5.875   3.552
 4961TIP3    H114889   4.558   5.793   3.572
 4961TIP3    H214890   4.578   5.943   3.573
 4962TIP3   OH214891   5.971   3.300   4.900
 4962TIP3    H114892   6.012   3.286   4.986
 4962TIP3    H214893   5.939   3.214   4.875
 4963TIP3   OH214894   3.529   4.260   2.808
 4963TIP3    H114895   3.571   4.207   2.740
 4963TIP3    H214896   3.456   4.206   2.839
 4964TIP3   OH214897   4.907   3.820   2.806
 4964TIP3    H114898   4.864   3.735   2.812
 4964TIP3    H214899   4.999   3.802   2.822
 4965TIP3   OH214900   2.744   4.903   1.280
 4965TIP3    H114901   2.795   4.843   1.225
 4965TIP3    H214902   2.657   4.904   1.240
 4966TIP3   OH214903   0.845   1.614   2.493
 4966TIP3    H114904   0.861   1.628   2.400
 4966TIP3    H214905   0.754   1.642   2.507
 4967TIP3   OH214906   0.097   1.771   4.166
 4967TIP3    H114907   0.185   1.760   4.202
 4967TIP3    H214908   0.065   1.853   4.203
 4968TIP3   OH214909   1.100   0.067   1.211
 4968TIP3    H114910   1.121   0.090   1.302
 4968TIP3    H214911   1.134   0.139   1.159
 4969TIP3   OH214912   1.864   1.831   1.550
 4969TIP3    H114913   1.952   1.828   1.511
 4969TIP3    H214914   1.839   1.923   1.546
 4970TIP3   OH214915   4.667   0.371   0.434
 4970TIP3    H114916   4.620   0.412   0.362
 4970TIP3    H214917   4.630   0.412   0.513
 4971TIP3   OH214918   4.106   5.079   3.781
 4971TIP3    H114919   4.186   5.029   3.762
 4971TIP3    H214920   4.073   5.104   3.694
 4972TIP3   OH214921   5.315   0.873   4.710
 4972TIP3    H114922   5.410   0.883   4.703
 4972TIP3    H214923   5.285   0.866   4.619
 4973TIP3   OH214924   0.317   0.593   2.510
 4973TIP3    H114925   0.398   0.603   2.561
 4973TIP3    H214926   0.347   0.570   2.422
 4974TIP3   OH214927   3.674   1.510   3.877
 4974TIP3    H114928   3.627   1.444   3.927
 4974TIP3    H214929   3.701   1.575   3.942
 4975TIP3   OH214930   5.670   0.198   4.081
 4975TIP3    H114931   5.685   0.292   4.071
 4975TIP3    H214932   5.582   0.191   4.117
 4976TIP3   OH214933   4.252   2.893   4.725
 4976TIP3    H114934   4.299   2.977   4.732
 4976TIP3    H214935   4.209   2.898   4.639
 4977TIP3   OH214936   4.782   5.320   3.293
 4977TIP3    H114937   4.815   5.395   3.343
 4977TIP3    H214938   4.687   5.324   3.304
 4978TIP3   OH214939   5.882   3.605   2.275
 4978TIP3    H114940   5.843   3.665   2.212
 4978TIP3    H214941   5.891   3.523   2.226
 4979TIP3   OH214942   4.497   3.972   5.171
 4979TIP3    H114943   4.454   3.985   5.086
 4979TIP3    H214944   4.432   4.001   5.235
 4980TIP3   OH214945   0.716   5.297   3.938
 4980TIP3    H114946   0.715   5.296   3.843
 4980TIP3    H214947   0.808   5.285   3.962
 4981TIP3   OH214948   5.760   4.827   4.557
 4981TIP3    H114949   5.835   4.837   4.499
 4981TIP3    H214950   5.701   4.768   4.510
 4982TIP3   OH214951   5.884   4.549   4.572
 4982TIP3    H114952   5.944   4.608   4.527
 4982TIP3    H214953   5.834   4.606   4.630
 4983TIP3   OH214954   2.056   1.225   3.829
 4983TIP3    H114955   2.055   1.214   3.924
 4983TIP3    H214956   1.980   1.177   3.797
 4984TIP3   OH214957   3.242   2.168   2.561
 4984TIP3    H114958   3.286   2.187   2.643
 4984TIP3    H214959   3.150   2.157   2.585
 4985TIP3   OH214960   6.180   2.226   3.341
 4985TIP3    H114961   6.271   2.248   3.356
 4985TIP3    H214962   6.177   2.130   3.346
 4986TIP3   OH214963   4.732   4.699   0.455
 4986TIP3    H114964   4.725   4.713   0.549
 4986TIP3    H214965   4.777   4.616   0.446
 4987TIP3   OH214966   3.076   5.039   3.324
 4987TIP3    H114967   3.109   5.105   3.386
 4987TIP3    H214968   3.146   5.030   3.259
 4988TIP3   OH214969   5.496   0.166   2.956
 4988TIP3    H114970   5.479   0.193   3.046
 4988TIP3    H214971   5.559   0.094   2.964
 4989TIP3   OH214972   3.791   4.550   4.026
 4989TIP3    H114973   3.699   4.524   4.033
 4989TIP3    H214974   3.839   4.478   4.067
 4990TIP3   OH214975   0.707   1.206   3.715
 4990TIP3    H114976   0.746   1.282   3.673
 4990TIP3    H214977   0.772   1.177   3.778
 4991TIP3   OH214978   4.366   0.360   3.134
 4991TIP3    H114979   4.283   0.335   3.093
 4991TIP3    H214980   4.432   0.306   3.090
 4992TIP3   OH214981   2.779   4.400   3.829
 4992TIP3    H114982   2.719   4.408   3.755
 4992TIP3    H214983   2.835   4.326   3.807
 4993TIP3   OH214984   0.709   4.359   4.325
 4993TIP3    H114985   0.661   4.438   4.298
 4993TIP3    H214986   0.726   4.373   4.418
 4994TIP3   OH214987   2.691   3.593   3.680
 4994TIP3    H114988   2.633   3.645   3.734
 4994TIP3    H214989   2.652   3.505   3.680
 4995TIP3   OH214990   3.664   5.569   4.758
 4995TIP3    H114991   3.677   5.528   4.843
 4995TIP3    H214992   3.667   5.497   4.695
 4996TIP3   OH214993   0.604   2.767   3.927
 4996TIP3    H114994   0.618   2.674   3.912
 4996TIP3    H214995   0.637   2.782   4.016
 4997TIP3   OH214996   0.055   0.943   4.569
 4997TIP3    H114997   0.047   0.866   4.624
 4997TIP3    H214998  -0.035   0.967   4.548
 4998TIP3   OH214999   4.940   1.805   0.972
 4998TIP3    H115000   4.875   1.790   1.040
 4998TIP3    H215001   4.893   1.854   0.904
 4999TIP3   OH215002   1.359   0.141   3.813
 4999TIP3    H115003   1.264   0.130   3.820
 4999TIP3    H215004   1.393   0.051   3.814
 5000TIP3   OH215005   0.619   3.712   0.700
 5000TIP3    H115006   0.660   3.728   0.615
 5000TIP3    H215007   0.540   3.662   0.680
 5001TIP3   OH215008   5.051   2.612   1.763
 5001TIP3    H115009   5.052   2.524   1.801
 5001TIP3    H215010   4.982   2.610   1.697
 5002TIP3   OH215011   1.217   2.853   4.956
 5002TIP3    H115012   1.286   2.855   5.022
 5002TIP3    H215013   1.148   2.910   4.991
 5003TIP3   OH215014   3.359   2.040   1.906
 5003TIP3    H115015   3.320   2.007   1.826
 5003TIP3    H215016   3.356   1.965   1.966
 5004TIP3   OH215017   4.424   5.110   4.768
 5004TIP3    H115018   4.431   5.127   4.862
 5004TIP3    H215019   4.367   5.180   4.735
 5005TIP3   OH215020   6.199   3.522   0.472
 5005TIP3    H115021   6.248   3.458   0.421
 5005TIP3    H215022   6.160   3.580   0.407
 5006TIP3   OH215023   0.510   2.999   0.083
 5006TIP3    H115024   0.519   3.093   0.065
 5006TIP3    H215025   0.530   2.957  -0.001
 5007TIP3   OH215026   2.996   4.369   3.187
 5007TIP3    H115027   2.996   4.463   3.170
 5007TIP3    H215028   2.936   4.357   3.260
 5008TIP3   OH215029   4.747   2.742   4.769
 5008TIP3    H115030   4.750   2.737   4.674
 5008TIP3    H215031   4.654   2.753   4.789
 5009TIP3   OH215032   1.153   4.379   3.025
 5009TIP3    H115033   1.193   4.411   2.944
 5009TIP3    H215034   1.130   4.288   3.006
 5010TIP3   OH215035   3.748   0.351   4.262
 5010TIP3    H115036   3.757   0.260   4.233
 5010TIP3    H215037   3.708   0.345   4.349
 5011TIP3   OH215038   1.010   4.954   0.325
 5011TIP3    H115039   1.081   4.913   0.275
 5011TIP3    H215040   1.052   4.991   0.402
 5012TIP3   OH215041   1.931   3.693   1.708
 5012TIP3    H115042   1.894   3.743   1.636
 5012TIP3    H215043   2.024   3.687   1.688
 5013TIP3   OH215044   5.644   0.928   4.673
 5013TIP3    H115045   5.615   0.931   4.582
 5013TIP3    H215046   5.643   0.835   4.695
 5014TIP3   OH215047   1.365   2.821   2.993
 5014TIP3    H115048   1.385   2.872   3.072
 5014TIP3    H215049   1.329   2.739   3.026
 5015TIP3   OH215050   4.662   3.343   4.331
 5015TIP3    H115051   4.711   3.423   4.313
 5015TIP3    H215052   4.572   3.373   4.345
 5016TIP3   OH215053   3.758   5.065   0.669
 5016TIP3    H115054   3.769   5.077   0.575
 5016TIP3    H215055   3.842   5.094   0.706
 5017TIP3   OH215056   3.795   5.683   2.548
 5017TIP3    H115057   3.747   5.676   2.631
 5017TIP3    H215058   3.828   5.594   2.533
 5018TIP3   OH215059   3.481   2.706   3.203
 5018TIP3    H115060   3.386   2.711   3.199
 5018TIP3    H215061   3.506   2.653   3.127
 5019TIP3   OH215062   0.028   0.462   2.386
 5019TIP3    H115063   0.053   0.370   2.374
 5019TIP3    H215064   0.110   0.505   2.412
 5020TIP3   OH215065   1.620   0.322   2.816
 5020TIP3    H115066   1.557   0.366   2.873
 5020TIP3    H215067   1.697   0.310   2.871
 5021TIP3   OH215068   0.731   1.704   4.624
 5021TIP3    H115069   0.688   1.770   4.569
 5021TIP3    H215070   0.775   1.754   4.692
 5022TIP3   OH215071   3.020   4.779   2.569
 5022TIP3    H115072   3.024   4.686   2.547
 5022TIP3    H215073   2.927   4.802   2.559
 5023TIP3   OH215074   0.437   1.772   4.683
 5023TIP3    H115075   0.437   1.844   4.746
 5023TIP3    H215076   0.515   1.720   4.706
 5024TIP3   OH215077   0.121   5.841   0.365
 5024TIP3    H115078   0.086   5.828   0.453
 5024TIP3    H215079   0.143   5.934   0.361
 5025TIP3   OH215080   6.219   5.881   3.534
 5025TIP3    H115081   6.174   5.816   3.480
 5025TIP3    H215082   6.196   5.965   3.494
 5026TIP3   OH215083   5.196   3.435   2.088
 5026TIP3    H115084   5.210   3.444   1.994
 5026TIP3    H215085   5.146   3.354   2.098
 5027TIP3   OH215086   4.281   1.665   0.151
 5027TIP3    H115087   4.208   1.718   0.116
 5027TIP3    H215088   4.357   1.695   0.102
 5028TIP3   OH215089   2.915   0.293   3.215
 5028TIP3    H115090   2.912   0.322   3.306
 5028TIP3    H215091   2.880   0.366   3.165
 5029TIP3   OH215092   1.848   2.388   3.547
 5029TIP3    H115093   1.800   2.471   3.539
 5029TIP3    H215094   1.891   2.378   3.463
 5030TIP3   OH215095   4.997   2.317   0.086
 5030TIP3    H115096   4.990   2.305  -0.009
 5030TIP3    H215097   4.917   2.363   0.110
 5031TIP3   OH215098   4.770   1.694   3.690
 5031TIP3    H115099   4.755   1.601   3.676
 5031TIP3    H215100   4.718   1.716   3.767
 5032TIP3   OH215101   4.773   1.254   3.870
 5032TIP3    H115102   4.742   1.182   3.925
 5032TIP3    H215103   4.767   1.221   3.781
 5033TIP3   OH215104   2.064   5.603   2.583
 5033TIP3    H115105   2.032   5.527   2.535
 5033TIP3    H215106   2.052   5.676   2.522
 5034TIP3   OH215107   0.242   1.188   1.196
 5034TIP3    H115108   0.293   1.160   1.273
 5034TIP3    H215109   0.254   1.118   1.132
 5035TIP3   OH215110   1.012   5.855   0.975
 5035TIP3    H115111   0.961   5.801   0.915
 5035TIP3    H215112   1.065   5.912   0.918
 5036TIP3   OH215113   1.932   1.078   4.520
 5036TIP3    H115114   1.935   1.174   4.523
 5036TIP3    H215115   1.940   1.057   4.427
 5037TIP3   OH215116   3.819   1.141   2.065
 5037TIP3    H115117   3.880   1.178   2.129
 5037TIP3    H215118   3.826   1.046   2.077
 5038TIP3   OH215119   2.957   3.384   0.873
 5038TIP3    H115120   2.992   3.296   0.855
 5038TIP3    H215121   2.933   3.381   0.966
 5039TIP3   OH215122   5.750   2.185   2.027
 5039TIP3    H115123   5.662   2.148   2.037
 5039TIP3    H215124   5.735   2.280   2.024
 5040TIP3   OH215125   2.624   4.049   3.590
 5040TIP3    H115126   2.551   4.104   3.617
 5040TIP3    H215127   2.603   3.962   3.626
 5041TIP3   OH215128   0.050   0.795   1.339
 5041TIP3    H115129  -0.024   0.743   1.309
 5041TIP3    H215130   0.125   0.734   1.338
 5042TIP3   OH215131   4.023   5.680   5.199
 5042TIP3    H115132   4.095   5.625   5.231
 5042TIP3    H215133   4.032   5.679   5.104
 5043TIP3   OH215134   4.838   1.876   1.282
 5043TIP3    H115135   4.867   1.829   1.360
 5043TIP3    H215136   4.744   1.858   1.277
 5044TIP3   OH215137   4.123   0.343   3.418
 5044TIP3    H115138   4.076   0.426   3.414
 5044TIP3    H215139   4.112   0.305   3.331
 5045TIP3   OH215140   5.495   5.126   2.130
 5045TIP3    H115141   5.457   5.193   2.187
 5045TIP3    H215142   5.578   5.163   2.100
 5046TIP3   OH215143   3.837   1.001   1.790
 5046TIP3    H115144   3.791   1.016   1.873
 5046TIP3    H215145   3.785   0.934   1.745
 5047TIP3   OH215146   1.308   1.460   4.570
 5047TIP3    H115147   1.326   1.415   4.652
 5047TIP3    H215148   1.261   1.396   4.517
 5048TIP3   OH215149   1.287   0.666   1.538
 5048TIP3    H115150   1.362   0.632   1.586
 5048TIP3    H215151   1.241   0.588   1.507
 5049TIP3   OH215152   1.811   5.374   2.928
 5049TIP3    H115153   1.749   5.447   2.938
 5049TIP3    H215154   1.789   5.315   3.000
 5050TIP3   OH215155   0.835   0.077   1.731
 5050TIP3    H115156   0.832   0.102   1.638
 5050TIP3    H215157   0.897   0.139   1.770
 5051TIP3   OH215158   6.180   4.636   5.054
 5051TIP3    H115159   6.261   4.670   5.016
 5051TIP3    H215160   6.124   4.615   4.979
 5052TIP3   OH215161   4.106   4.684   2.807
 5052TIP3    H115162   4.020   4.647   2.787
 5052TIP3    H215163   4.089   4.752   2.873
 5053TIP3   OH215164   5.203   1.497   3.491
 5053TIP3    H115165   5.168   1.585   3.500
 5053TIP3    H215166   5.137   1.450   3.440
 5054TIP3   OH215167   0.253   2.554   0.907
 5054TIP3    H115168   0.341   2.575   0.875
 5054TIP3    H215169   0.269   2.496   0.981
 5055TIP3   OH215170   4.149   0.392   2.478
 5055TIP3    H115171   4.123   0.452   2.547
 5055TIP3    H215172   4.069   0.344   2.456
 5056TIP3   OH215173   2.298   1.564   0.450
 5056TIP3    H115174   2.390   1.586   0.438
 5056TIP3    H215175   2.281   1.493   0.388
 5057TIP3   OH215176   3.333   1.556   0.946
 5057TIP3    H115177   3.385   1.544   0.866
 5057TIP3    H215178   3.288   1.472   0.958
 5058TIP3   OH215179   0.605   5.590   4.545
 5058TIP3    H115180   0.625   5.629   4.630
 5058TIP3    H215181   0.514   5.560   4.553
 5059TIP3   OH215182   0.263   3.559   4.322
 5059TIP3    H115183   0.343   3.515   4.294
 5059TIP3    H215184   0.192   3.503   4.291
 5060TIP3   OH215185   4.202   4.097   0.384
 5060TIP3    H115186   4.288   4.110   0.344
 5060TIP3    H215187   4.154   4.045   0.320
 5061TIP3   OH215188   2.621   2.174   1.973
 5061TIP3    H115189   2.560   2.187   2.045
 5061TIP3    H215190   2.623   2.258   1.927
 5062TIP3   OH215191   1.921   2.157   0.321
 5062TIP3    H115192   2.013   2.161   0.293
 5062TIP3    H215193   1.920   2.205   0.404
 5063TIP3   OH215194   5.460   1.840   5.142
 5063TIP3    H115195   5.445   1.855   5.235
 5063TIP3    H215196   5.377   1.863   5.101
 5064TIP3   OH215197   4.063   0.674   1.723
 5064TIP3    H115198   4.085   0.723   1.802
 5064TIP3    H215199   4.050   0.584   1.753
 5065TIP3   OH215200   5.995   4.242   0.562
 5065TIP3    H115201   6.083   4.239   0.525
 5065TIP3    H215202   5.937   4.217   0.490
 5066TIP3   OH215203   4.872   4.860   2.963
 5066TIP3    H115204   4.819   4.923   3.012
 5066TIP3    H215205   4.923   4.915   2.903
 5067TIP3   OH215206   1.082   1.061   2.339
 5067TIP3    H115207   1.048   1.081   2.252
 5067TIP3    H215208   1.007   1.025   2.386
 5068TIP3   OH215209   4.787   0.350   4.297
 5068TIP3    H115210   4.801   0.317   4.386
 5068TIP3    H215211   4.787   0.271   4.242
 5069TIP3   OH215212   5.619   4.203   0.124
 5069TIP3    H115213   5.580   4.289   0.110
 5069TIP3    H215214   5.638   4.171   0.036
 5070TIP3   OH215215   6.114   0.839   5.154
 5070TIP3    H115216   6.136   0.856   5.063
 5070TIP3    H215217   6.183   0.781   5.185
 5071TIP3   OH215218   3.903   3.659   5.054
 5071TIP3    H115219   3.880   3.752   5.064
 5071TIP3    H215220   3.833   3.624   4.999
 5072TIP3   OH215221   3.880   3.286   4.495
 5072TIP3    H115222   3.824   3.233   4.552
 5072TIP3    H215223   3.822   3.354   4.462
 5073TIP3   OH215224   3.144   0.365   5.175
 5073TIP3    H115225   3.097   0.384   5.094
 5073TIP3    H215226   3.188   0.447   5.197
 5074TIP3   OH215227   0.327   0.286   1.421
 5074TIP3    H115228   0.288   0.313   1.338
 5074TIP3    H215229   0.384   0.360   1.446
 5075TIP3   OH215230   3.333   2.295   1.829
 5075TIP3    H115231   3.309   2.211   1.867
 5075TIP3    H215232   3.313   2.359   1.898
 5076TIP3   OH215233   3.168   0.416   0.361
 5076TIP3    H115234   3.241   0.434   0.301
 5076TIP3    H215235   3.192   0.334   0.403
 5077TIP3   OH215236   4.692   0.049   0.857
 5077TIP3    H115237   4.758  -0.014   0.830
 5077TIP3    H215238   4.741   0.130   0.873
 5078TIP3   OH215239   1.115   5.883   2.959
 5078TIP3    H115240   1.209   5.898   2.969
 5078TIP3    H215241   1.084   5.865   3.048
 5079TIP3   OH215242   3.298   1.798   3.299
 5079TIP3    H115243   3.375   1.784   3.242
 5079TIP3    H215244   3.234   1.734   3.268
 5080TIP3   OH215245   5.706   3.583   4.200
 5080TIP3    H115246   5.732   3.668   4.164
 5080TIP3    H215247   5.617   3.597   4.233
 5081TIP3   OH215248   5.370   4.823   1.954
 5081TIP3    H115249   5.446   4.848   2.006
 5081TIP3    H215250   5.405   4.766   1.885
 5082TIP3   OH215251   2.809   0.771   1.508
 5082TIP3    H115252   2.739   0.736   1.564
 5082TIP3    H215253   2.867   0.696   1.494
 5083TIP3   OH215254   5.706   1.427   4.883
 5083TIP3    H115255   5.743   1.352   4.836
 5083TIP3    H215256   5.677   1.391   4.967
 5084TIP3   OH215257   4.336   3.769   2.497
 5084TIP3    H115258   4.395   3.730   2.562
 5084TIP3    H215259   4.249   3.764   2.537
 5085TIP3   OH215260   0.505   0.642   2.660
 5085TIP3    H115261   0.593   0.670   2.686
 5085TIP3    H215262   0.459   0.626   2.743
 5086TIP3   OH215263   4.894   1.530   2.423
 5086TIP3    H115264   4.966   1.592   2.436
 5086TIP3    H215265   4.936   1.445   2.419
 5087TIP3   OH215266   0.325   5.626   2.826
 5087TIP3    H115267   0.246   5.579   2.851
 5087TIP3    H215268   0.333   5.696   2.892
 5088TIP3   OH215269   0.874   3.818   1.864
 5088TIP3    H115270   0.906   3.729   1.847
 5088TIP3    H215271   0.953   3.872   1.864
 5089TIP3   OH215272   3.502   4.138   4.120
 5089TIP3    H115273   3.517   4.080   4.194
 5089TIP3    H215274   3.408   4.158   4.125
 5090TIP3   OH215275   6.207   0.135   3.680
 5090TIP3    H115276   6.168   0.160   3.764
 5090TIP3    H215277   6.198   0.214   3.626
 5091TIP3   OH215278   4.668   3.148   0.065
 5091TIP3    H115279   4.651   3.194  -0.018
 5091TIP3    H215280   4.636   3.209   0.132
 5092TIP3   OH215281   0.874   2.304   4.104
 5092TIP3    H115282   0.795   2.345   4.140
 5092TIP3    H215283   0.937   2.305   4.176
 5093TIP3   OH215284   4.109   3.600   2.552
 5093TIP3    H115285   4.067   3.537   2.611
 5093TIP3    H215286   4.167   3.547   2.497
 5094TIP3   OH215287   2.684   0.246   4.099
 5094TIP3    H115288   2.631   0.190   4.042
 5094TIP3    H215289   2.621   0.284   4.160
 5095TIP3   OH215290   0.216   4.516   2.581
 5095TIP3    H115291   0.245   4.552   2.665
 5095TIP3    H215292   0.189   4.593   2.531
 5096TIP3   OH215293   3.208   2.803   2.675
 5096TIP3    H115294   3.176   2.874   2.621
 5096TIP3    H215295   3.296   2.830   2.701
 5097TIP3   OH215296   1.219   4.730   3.033
 5097TIP3    H115297   1.203   4.715   2.940
 5097TIP3    H215298   1.188   4.819   3.049
 5098TIP3   OH215299   3.018   2.202   3.634
 5098TIP3    H115300   3.061   2.239   3.557
 5098TIP3    H215301   3.086   2.151   3.678
 5099TIP3   OH215302   1.087   5.930   4.278
 5099TIP3    H115303   1.071   5.923   4.184
 5099TIP3    H215304   1.014   5.982   4.311
 5100TIP3   OH215305   4.443   4.203   1.444
 5100TIP3    H115306   4.531   4.221   1.410
 5100TIP3    H215307   4.385   4.238   1.377
 5101TIP3   OH215308   1.459   3.732   4.188
 5101TIP3    H115309   1.418   3.742   4.274
 5101TIP3    H215310   1.448   3.639   4.167
 5102TIP3   OH215311   2.426   0.285   4.235
 5102TIP3    H115312   2.332   0.271   4.243
 5102TIP3    H215313   2.465   0.217   4.291
 5103TIP3   OH215314   1.561   3.021   3.692
 5103TIP3    H115315   1.553   2.957   3.622
 5103TIP3    H215316   1.479   3.071   3.690
 5104TIP3   OH215317   4.901   0.724   1.684
 5104TIP3    H115318   4.840   0.767   1.744
 5104TIP3    H215319   4.862   0.638   1.667
 5105TIP3   OH215320   2.783   2.694   0.565
 5105TIP3    H115321   2.853   2.654   0.512
 5105TIP3    H215322   2.782   2.642   0.645
 5106TIP3   OH215323   4.297   1.303   1.202
 5106TIP3    H115324   4.311   1.385   1.250
 5106TIP3    H215325   4.242   1.328   1.127
 5107TIP3   OH215326   2.288   1.333   0.268
 5107TIP3    H115327   2.323   1.366   0.185
 5107TIP3    H215328   2.335   1.252   0.284
 5108TIP3   OH215329   4.227   5.787   0.972
 5108TIP3    H115330   4.133   5.777   0.990
 5108TIP3    H215331   4.249   5.873   1.008
 5109TIP3   OH215332   3.955   4.340   3.598
 5109TIP3    H115333   3.952   4.421   3.649
 5109TIP3    H215334   3.927   4.272   3.658
 5110TIP3   OH215335   1.619   3.810   4.485
 5110TIP3    H115336   1.528   3.809   4.515
 5110TIP3    H215337   1.626   3.733   4.429
 5111TIP3   OH215338   1.380   2.673   3.258
 5111TIP3    H115339   1.300   2.648   3.211
 5111TIP3    H215340   1.370   2.767   3.273
 5112TIP3   OH215341   2.553   0.784   0.361
 5112TIP3    H115342   2.471   0.771   0.312
 5112TIP3    H215343   2.529   0.767   0.452
 5113TIP3   OH215344   1.585   4.641   2.760
 5113TIP3    H115345   1.633   4.665   2.681
 5113TIP3    H215346   1.497   4.674   2.745
 5114TIP3   OH215347   4.922   5.819   3.350
 5114TIP3    H115348   4.974   5.796   3.427
 5114TIP3    H215349   4.964   5.773   3.278
 5115TIP3   OH215350   0.504   5.029   1.809
 5115TIP3    H115351   0.520   5.048   1.717
 5115TIP3    H215352   0.591   5.033   1.850
 5116TIP3   OH215353   2.467   1.840   0.938
 5116TIP3    H115354   2.561   1.824   0.948
 5116TIP3    H215355   2.461   1.932   0.913
 5117TIP3   OH215356   4.009   1.610   4.894
 5117TIP3    H115357   3.918   1.621   4.924
 5117TIP3    H215358   4.001   1.560   4.813
 5118TIP3   OH215359   2.673   0.448   3.132
 5118TIP3    H115360   2.653   0.503   3.057
 5118TIP3    H215361   2.598   0.459   3.190
 5119TIP3   OH215362   5.180   5.145   0.114
 5119TIP3    H115363   5.211   5.233   0.134
 5119TIP3    H215364   5.213   5.127   0.026
 5120TIP3   OH215365   3.770   2.757   2.470
 5120TIP3    H115366   3.813   2.707   2.539
 5120TIP3    H215367   3.704   2.697   2.435
 5121TIP3   OH215368   3.331   4.859   4.755
 5121TIP3    H115369   3.346   4.768   4.781
 5121TIP3    H215370   3.236   4.871   4.765
 5122TIP3   OH215371   2.466   1.544   2.599
 5122TIP3    H115372   2.431   1.540   2.688
 5122TIP3    H215373   2.555   1.578   2.610
 5123TIP3   OH215374   5.771   5.776   4.656
 5123TIP3    H115375   5.777   5.809   4.746
 5123TIP3    H215376   5.799   5.850   4.602
 5124TIP3   OH215377   1.673   2.827   4.058
 5124TIP3    H115378   1.645   2.859   4.144
 5124TIP3    H215379   1.602   2.769   4.029
 5125TIP3   OH215380   1.616   1.370   2.695
 5125TIP3    H115381   1.543   1.415   2.737
 5125TIP3    H215382   1.576   1.293   2.655
 5126TIP3   OH215383   0.718   4.707   1.985
 5126TIP3    H115384   0.689   4.616   1.983
 5126TIP3    H215385   0.793   4.709   1.926
 5127TIP3   OH215386   1.910   2.000   3.340
 5127TIP3    H115387   1.921   2.032   3.429
 5127TIP3    H215388   1.818   1.973   3.336
 5128TIP3   OH215389   3.448   3.811   4.013
 5128TIP3    H115390   3.453   3.838   3.921
 5128TIP3    H215391   3.359   3.777   4.023
 5129TIP3   OH215392   3.398   1.082   0.920
 5129TIP3    H115393   3.467   1.111   0.860
 5129TIP3    H215394   3.322   1.067   0.863
 5130TIP3   OH215395   2.020   5.650   4.365
 5130TIP3    H115396   2.030   5.686   4.277
 5130TIP3    H215397   2.109   5.634   4.395
 5131TIP3   OH215398   5.170   0.717   2.141
 5131TIP3    H115399   5.146   0.654   2.073
 5131TIP3    H215400   5.153   0.803   2.101
 5132TIP3   OH215401   1.531   2.867   3.460
 5132TIP3    H115402   1.448   2.898   3.423
 5132TIP3    H215403   1.516   2.775   3.480
 5133TIP3   OH215404   6.000   0.172   1.561
 5133TIP3    H115405   6.005   0.129   1.647
 5133TIP3    H215406   6.044   0.111   1.502
 5134TIP3   OH215407   1.236   0.401   1.541
 5134TIP3    H115408   1.320   0.359   1.522
 5134TIP3    H215409   1.218   0.379   1.632
 5135TIP3   OH215410   2.616   0.193   3.667
 5135TIP3    H115411   2.521   0.191   3.682
 5135TIP3    H215412   2.644   0.276   3.704
 5136TIP3   OH215413   1.865   4.643   4.259
 5136TIP3    H115414   1.942   4.695   4.236
 5136TIP3    H215415   1.900   4.568   4.307
 5137TIP3   OH215416   4.468   1.292   2.800
 5137TIP3    H115417   4.525   1.286   2.877
 5137TIP3    H215418   4.427   1.378   2.806
 5138TIP3   OH215419   2.487   5.499   3.406
 5138TIP3    H115420   2.570   5.485   3.451
 5138TIP3    H215421   2.509   5.497   3.313
 5139TIP3   OH215422   0.745   5.357   3.470
 5139TIP3    H115423   0.697   5.330   3.548
 5139TIP3    H215424   0.837   5.361   3.498
 5140TIP3   OH215425   5.227   0.046   0.699
 5140TIP3    H115426   5.152   0.061   0.641
 5140TIP3    H215427   5.244   0.131   0.739
 5141TIP3   OH215428   3.657   5.282   2.381
 5141TIP3    H115429   3.712   5.220   2.333
 5141TIP3    H215430   3.679   5.367   2.345
 5142TIP3   OH215431   0.195   2.073   4.153
 5142TIP3    H115432   0.142   2.085   4.074
 5142TIP3    H215433   0.247   2.153   4.159
 5143TIP3   OH215434   1.597   3.329   3.533
 5143TIP3    H115435   1.515   3.302   3.576
 5143TIP3    H215436   1.664   3.315   3.600
 5144TIP3   OH215437   1.384   0.333   0.406
 5144TIP3    H115438   1.468   0.292   0.386
 5144TIP3    H215439   1.333   0.324   0.326
 5145TIP3   OH215440   1.552   3.827   3.941
 5145TIP3    H115441   1.487   3.896   3.944
 5145TIP3    H215442   1.550   3.787   4.028
 5146TIP3   OH215443   2.483  -0.012   1.202
 5146TIP3    H115444   2.538  -0.035   1.277
 5146TIP3    H215445   2.459   0.080   1.218
 5147TIP3   OH215446   0.273   1.627   0.074
 5147TIP3    H115447   0.293   1.599  -0.015
 5147TIP3    H215448   0.188   1.588   0.093
 5148TIP3   OH215449   4.638   3.363   2.554
 5148TIP3    H115450   4.645   3.374   2.649
 5148TIP3    H215451   4.580   3.288   2.544
 5149TIP3   OH215452   6.070   2.303   3.104
 5149TIP3    H115453   6.006   2.373   3.108
 5149TIP3    H215454   6.087   2.280   3.195
 5150TIP3   OH215455   4.603   0.513   1.789
 5150TIP3    H115456   4.591   0.525   1.884
 5150TIP3    H215457   4.531   0.456   1.762
 5151TIP3   OH215458   1.023   3.505   4.141
 5151TIP3    H115459   1.045   3.453   4.219
 5151TIP3    H215460   1.040   3.446   4.068
 5152TIP3   OH215461   4.721   4.706   3.562
 5152TIP3    H115462   4.755   4.736   3.478
 5152TIP3    H215463   4.630   4.682   3.545
 5153TIP3   OH215464   2.347   1.528   1.086
 5153TIP3    H115465   2.316   1.613   1.117
 5153TIP3    H215466   2.442   1.533   1.092
 5154TIP3   OH215467   3.066   3.667   0.347
 5154TIP3    H115468   3.043   3.619   0.267
 5154TIP3    H215469   3.093   3.600   0.409
 5155TIP3   OH215470   3.445   0.075   0.996
 5155TIP3    H115471   3.492   0.136   1.053
 5155TIP3    H215472   3.473  -0.012   1.024
 5156TIP3   OH215473   2.134   4.557   3.848
 5156TIP3    H115474   2.154   4.599   3.765
 5156TIP3    H215475   2.171   4.615   3.914
 5157TIP3   OH215476   5.174   5.786   5.113
 5157TIP3    H115477   5.163   5.733   5.034
 5157TIP3    H215478   5.222   5.864   5.083
 5158TIP3   OH215479   1.439   2.040   5.075
 5158TIP3    H115480   1.417   1.947   5.082
 5158TIP3    H215481   1.382   2.073   5.005
 5159TIP3   OH215482   4.015   0.854   2.540
 5159TIP3    H115483   4.059   0.829   2.458
 5159TIP3    H215484   3.957   0.925   2.515
 5160TIP3   OH215485   3.799   3.538   2.353
 5160TIP3    H115486   3.713   3.569   2.326
 5160TIP3    H215487   3.807   3.564   2.445
 5161TIP3   OH215488   4.052   3.393   4.101
 5161TIP3    H115489   4.114   3.361   4.167
 5161TIP3    H215490   3.985   3.325   4.097
 5162TIP3   OH215491   4.793   3.474   5.043
 5162TIP3    H115492   4.841   3.515   5.115
 5162TIP3    H215493   4.818   3.524   4.965
 5163TIP3   OH215494   5.949   1.224   0.011
 5163TIP3    H115495   5.994   1.273   0.080
 5163TIP3    H215496   5.862   1.264   0.005
 5164TIP3   OH215497   5.260  -0.009   2.878
 5164TIP3    H115498   5.187   0.043   2.846
 5164TIP3    H215499   5.256  -0.001   2.974
 5165TIP3   OH215500   2.806   3.097   2.695
 5165TIP3    H115501   2.757   3.017   2.714
 5165TIP3    H215502   2.866   3.072   2.625
 5166TIP3   OH215503   0.159   0.098   1.509
 5166TIP3    H115504   0.129   0.100   1.600
 5166TIP3    H215505   0.220   0.171   1.503
 5167TIP3   OH215506   2.913   4.508   4.060
 5167TIP3    H115507   2.871   4.453   3.994
 5167TIP3    H215508   2.862   4.493   4.140
 5168TIP3   OH215509   1.254   0.855   0.587
 5168TIP3    H115510   1.182   0.890   0.638
 5168TIP3    H215511   1.326   0.846   0.650
 5169TIP3   OH215512   1.877   1.639   0.337
 5169TIP3    H115513   1.868   1.545   0.353
 5169TIP3    H215514   1.868   1.648   0.243
 5170TIP3   OH215515   2.858   0.122   1.374
 5170TIP3    H115516   2.824   0.131   1.285
 5170TIP3    H215517   2.835   0.033   1.399
 5171TIP3   OH215518   3.200   4.819   2.859
 5171TIP3    H115519   3.152   4.781   2.786
 5171TIP3    H215520   3.145   4.890   2.891
 5172TIP3   OH215521   1.645   1.352   3.246
 5172TIP3    H115522   1.588   1.328   3.173
 5172TIP3    H215523   1.688   1.433   3.217
 5173TIP3   OH215524   4.375   5.240   0.928
 5173TIP3    H115525   4.415   5.156   0.951
 5173TIP3    H215526   4.306   5.217   0.865
 5174TIP3   OH215527   1.149   5.870   4.774
 5174TIP3    H115528   1.121   5.837   4.859
 5174TIP3    H215529   1.222   5.928   4.793
 5175TIP3   OH215530   1.324   4.449   2.077
 5175TIP3    H115531   1.244   4.488   2.042
 5175TIP3    H215532   1.309   4.444   2.172
 5176TIP3   OH215533   4.636   5.674   2.564
 5176TIP3    H115534   4.669   5.661   2.653
 5176TIP3    H215535   4.655   5.591   2.519
 5177TIP3   OH215536   4.007   1.366   4.236
 5177TIP3    H115537   4.043   1.360   4.148
 5177TIP3    H215538   3.914   1.382   4.223
 5178TIP3   OH215539   0.265   4.142   4.373
 5178TIP3    H115540   0.235   4.084   4.443
 5178TIP3    H215541   0.279   4.083   4.299
 5179TIP3   OH215542   5.551   3.858   4.317
 5179TIP3    H115543   5.562   3.864   4.412
 5179TIP3    H215544   5.478   3.797   4.305
 5180TIP3   OH215545   1.569   5.357   2.275
 5180TIP3    H115546   1.486   5.383   2.313
 5180TIP3    H215547   1.619   5.438   2.268
 5181TIP3   OH215548   0.326   3.352   0.435
 5181TIP3    H115549   0.342   3.388   0.347
 5181TIP3    H215550   0.247   3.298   0.425
 5182TIP3   OH215551   6.232   0.807   3.084
 5182TIP3    H115552   6.290   0.738   3.116
 5182TIP3    H215553   6.251   0.813   2.990
 5183TIP3   OH215554   4.659   3.395   1.995
 5183TIP3    H115555   4.660   3.384   2.090
 5183TIP3    H215556   4.591   3.460   1.979
 5184TIP3   OH215557   1.572   0.459   4.876
 5184TIP3    H115558   1.621   0.495   4.950
 5184TIP3    H215559   1.481   0.486   4.892
 5185TIP3   OH215560   2.157   0.704   5.074
 5185TIP3    H115561   2.214   0.776   5.046
 5185TIP3    H215562   2.101   0.687   4.998
 5186TIP3   OH215563   0.879   1.707   2.234
 5186TIP3    H115564   0.936   1.775   2.198
 5186TIP3    H215565   0.860   1.649   2.161
 5187TIP3   OH215566   4.676   4.350   3.464
 5187TIP3    H115567   4.680   4.331   3.558
 5187TIP3    H215568   4.764   4.381   3.442
 5188TIP3   OH215569   2.029   2.992   3.891
 5188TIP3    H115570   1.937   3.016   3.881
 5188TIP3    H215571   2.029   2.896   3.888
 5189TIP3   OH215572   1.219   2.583   4.783
 5189TIP3    H115573   1.232   2.630   4.701
 5189TIP3    H215574   1.252   2.642   4.851
 5190TIP3   OH215575   4.053   1.820   0.097
 5190TIP3    H115576   3.971   1.827   0.147
 5190TIP3    H215577   4.033   1.761   0.025
 5191TIP3   OH215578   4.447   1.297   2.176
 5191TIP3    H115579   4.538   1.271   2.160
 5191TIP3    H215580   4.409   1.305   2.088
 5192TIP3   OH215581   1.728   2.849   3.279
 5192TIP3    H115582   1.653   2.811   3.325
 5192TIP3    H215583   1.713   2.944   3.283
 5193TIP3   OH215584   3.127   4.739   1.351
 5193TIP3    H115585   3.078   4.712   1.429
 5193TIP3    H215586   3.094   4.827   1.332
 5194TIP3   OH215587   2.053   4.353   3.556
 5194TIP3    H115588   2.099   4.424   3.512
 5194TIP3    H215589   2.107   4.275   3.539
 5195TIP3   OH215590   1.468   4.226   1.976
 5195TIP3    H115591   1.393   4.166   1.973
 5195TIP3    H215592   1.433   4.307   2.013
 5196TIP3   OH215593   2.785   0.796   5.152
 5196TIP3    H115594   2.797   0.703   5.168
 5196TIP3    H215595   2.733   0.801   5.072
 5197TIP3   OH215596   0.161   5.884   3.377
 5197TIP3    H115597   0.078   5.931   3.380
 5197TIP3    H215598   0.156   5.832   3.297
 5198TIP3   OH215599   2.596   2.327   5.021
 5198TIP3    H115600   2.655   2.348   5.093
 5198TIP3    H215601   2.525   2.392   5.028
 5199TIP3   OH215602   6.305   1.317   1.217
 5199TIP3    H115603   6.326   1.365   1.297
 5199TIP3    H215604   6.310   1.224   1.242
 5200TIP3   OH215605   1.830   4.191   4.769
 5200TIP3    H115606   1.761   4.124   4.774
 5200TIP3    H215607   1.869   4.177   4.682
 5201TIP3   OH215608   5.487   2.703   5.174
 5201TIP3    H115609   5.557   2.746   5.126
 5201TIP3    H215610   5.449   2.773   5.228
 5202TIP3   OH215611   6.135   5.290   4.670
 5202TIP3    H115612   6.163   5.373   4.633
 5202TIP3    H215613   6.136   5.304   4.765
 5203TIP3   OH215614   4.729   4.524   1.003
 5203TIP3    H115615   4.803   4.578   0.978
 5203TIP3    H215616   4.704   4.555   1.090
 5204TIP3   OH215617   2.487   5.290   4.671
 5204TIP3    H115618   2.427   5.254   4.735
 5204TIP3    H215619   2.486   5.228   4.598
 5205TIP3   OH215620   4.476   1.920   5.094
 5205TIP3    H115621   4.454   1.858   5.163
 5205TIP3    H215622   4.395   1.929   5.043
 5206TIP3   OH215623   6.148   2.214   1.460
 5206TIP3    H115624   6.098   2.284   1.502
 5206TIP3    H215625   6.216   2.192   1.523
 5207TIP3   OH215626   2.145   0.360   2.434
 5207TIP3    H115627   2.214   0.315   2.386
 5207TIP3    H215628   2.189   0.432   2.480
 5208TIP3   OH215629   4.117   0.201   4.897
 5208TIP3    H115630   4.114   0.241   4.810
 5208TIP3    H215631   4.159   0.116   4.883
 5209TIP3   OH215632   2.732   0.418   1.534
 5209TIP3    H115633   2.782   0.444   1.457
 5209TIP3    H215634   2.644   0.401   1.502
 5210TIP3   OH215635   2.263   5.084   4.694
 5210TIP3    H115636   2.240   5.023   4.764
 5210TIP3    H215637   2.188   5.082   4.635
 5211TIP3   OH215638   3.713   3.817   3.242
 5211TIP3    H115639   3.734   3.809   3.335
 5211TIP3    H215640   3.638   3.875   3.239
 5212TIP3   OH215641   4.413   4.319   4.952
 5212TIP3    H115642   4.319   4.312   4.935
 5212TIP3    H215643   4.447   4.374   4.882
 5213TIP3   OH215644   1.700   5.019   1.879
 5213TIP3    H115645   1.741   5.018   1.965
 5213TIP3    H215646   1.676   4.927   1.862
 5214TIP3   OH215647   6.041   1.356   3.568
 5214TIP3    H115648   5.963   1.349   3.622
 5214TIP3    H215649   6.107   1.302   3.611
 5215TIP3   OH215650   5.260   0.768   1.348
 5215TIP3    H115651   5.322   0.698   1.328
 5215TIP3    H215652   5.252   0.817   1.267
 5216TIP3   OH215653   0.393   4.444   3.969
 5216TIP3    H115654   0.322   4.389   3.936
 5216TIP3    H215655   0.426   4.489   3.892
 5217TIP3   OH215656   2.261   1.046   2.086
 5217TIP3    H115657   2.229   1.077   2.171
 5217TIP3    H215658   2.183   1.041   2.031
 5218TIP3   OH215659   2.411   1.002   2.717
 5218TIP3    H115660   2.399   1.022   2.624
 5218TIP3    H215661   2.329   1.028   2.758
 5219TIP3   OH215662   4.246   2.221   2.607
 5219TIP3    H115663   4.248   2.159   2.533
 5219TIP3    H215664   4.313   2.188   2.666
 5220TIP3   OH215665   3.212   0.660   4.979
 5220TIP3    H115666   3.121   0.654   4.950
 5220TIP3    H215667   3.263   0.659   4.898
 5221TIP3   OH215668   0.653   3.554   4.697
 5221TIP3    H115669   0.559   3.556   4.678
 5221TIP3    H215670   0.667   3.623   4.761
 5222TIP3   OH215671   0.278   5.747   0.153
 5222TIP3    H115672   0.248   5.795   0.076
 5222TIP3    H215673   0.225   5.781   0.225
 5223TIP3   OH215674   1.334   3.434   3.568
 5223TIP3    H115675   1.275   3.501   3.603
 5223TIP3    H215676   1.348   3.459   3.477
 5224TIP3   OH215677   3.464   4.050   2.264
 5224TIP3    H115678   3.446   4.032   2.356
 5224TIP3    H215679   3.385   4.023   2.218
 5225TIP3   OH215680   5.828   3.912   4.783
 5225TIP3    H115681   5.895   3.845   4.770
 5225TIP3    H215682   5.798   3.899   4.873
 5226TIP3   OH215683   0.663   5.691   2.530
 5226TIP3    H115684   0.655   5.601   2.562
 5226TIP3    H215685   0.682   5.683   2.437
 5227TIP3   OH215686   5.478   3.717   1.815
 5227TIP3    H115687   5.559   3.767   1.806
 5227TIP3    H215688   5.500   3.647   1.878
 5228TIP3   OH215689   0.927   0.425   1.615
 5228TIP3    H115690   0.889   0.351   1.568
 5228TIP3    H215691   1.015   0.396   1.638
 5229TIP3   OH215692   2.465   4.988   4.108
 5229TIP3    H115693   2.537   5.043   4.076
 5229TIP3    H215694   2.386   5.037   4.084
 5230TIP3   OH215695   1.266   0.864   4.124
 5230TIP3    H115696   1.277   0.959   4.135
 5230TIP3    H215697   1.354   0.828   4.133
 5231TIP3   OH215698   5.613   1.363   0.568
 5231TIP3    H115699   5.594   1.385   0.476
 5231TIP3    H215700   5.609   1.447   0.614
 5232TIP3   OH215701   5.271   2.154   2.999
 5232TIP3    H115702   5.366   2.166   3.006
 5232TIP3    H215703   5.252   2.078   3.054
 5233TIP3   OH215704   3.620   4.135   1.042
 5233TIP3    H115705   3.598   4.129   1.135
 5233TIP3    H215706   3.599   4.226   1.018
 5234TIP3   OH215707   1.000   5.400   4.925
 5234TIP3    H115708   0.941   5.327   4.943
 5234TIP3    H215709   1.035   5.382   4.838
 5235TIP3   OH215710   5.528   2.277   0.738
 5235TIP3    H115711   5.492   2.197   0.701
 5235TIP3    H215712   5.616   2.253   0.767
 5236TIP3   OH215713   3.971   5.236   2.578
 5236TIP3    H115714   3.962   5.246   2.673
 5236TIP3    H215715   3.986   5.326   2.546
 5237TIP3   OH215716   1.742   1.559   1.425
 5237TIP3    H115717   1.762   1.630   1.487
 5237TIP3    H215718   1.819   1.556   1.368
 5238TIP3   OH215719   1.725   2.843   2.006
 5238TIP3    H115720   1.637   2.874   2.026
 5238TIP3    H215721   1.713   2.769   1.947
 5239TIP3   OH215722   3.755   3.365   3.033
 5239TIP3    H115723   3.705   3.338   3.110
 5239TIP3    H215724   3.831   3.308   3.032
 5240TIP3   OH215725   6.158   4.406   3.518
 5240TIP3    H115726   6.160   4.500   3.499
 5240TIP3    H215727   6.164   4.399   3.613
 5241TIP3   OH215728   0.119   1.150   0.693
 5241TIP3    H115729   0.068   1.220   0.652
 5241TIP3    H215730   0.055   1.101   0.744
 5242TIP3   OH215731   1.777   5.212   1.387
 5242TIP3    H115732   1.778   5.120   1.415
 5242TIP3    H215733   1.863   5.246   1.412
 5243TIP3   OH215734   6.090   4.307   4.339
 5243TIP3    H115735   6.065   4.323   4.248
 5243TIP3    H215736   6.184   4.323   4.341
 5244TIP3   OH215737   0.493   3.876   4.468
 5244TIP3    H115738   0.475   3.905   4.558
 5244TIP3    H215739   0.585   3.851   4.468
 5245TIP3   OH215740   1.607   2.900   2.890
 5245TIP3    H115741   1.518   2.877   2.916
 5245TIP3    H215742   1.642   2.949   2.965
 5246TIP3   OH215743   2.551   5.214   2.999
 5246TIP3    H115744   2.606   5.190   2.924
 5246TIP3    H215745   2.463   5.224   2.963
 5247TIP3   OH215746   1.055   2.665   5.107
 5247TIP3    H115747   1.113   2.653   5.183
 5247TIP3    H215748   1.115   2.683   5.035
 5248TIP3   OH215749   2.954   1.126   3.620
 5248TIP3    H115750   2.938   1.074   3.699
 5248TIP3    H215751   2.954   1.216   3.650
 5249TIP3   OH215752   0.382   4.650   3.327
 5249TIP3    H115753   0.475   4.639   3.311
 5249TIP3    H215754   0.377   4.714   3.398
 5250TIP3   OH215755   0.743   3.992   3.402
 5250TIP3    H115756   0.802   4.056   3.362
 5250TIP3    H215757   0.783   3.974   3.488
 5251TIP3   OH215758   0.726   4.622   0.776
 5251TIP3    H115759   0.680   4.544   0.745
 5251TIP3    H215760   0.781   4.648   0.703
 5252TIP3   OH215761   5.898   2.501   3.013
 5252TIP3    H115762   5.895   2.557   3.091
 5252TIP3    H215763   5.812   2.458   3.011
 5253TIP3   OH215764   6.320   2.007   0.222
 5253TIP3    H115765   6.317   2.095   0.184
 5253TIP3    H215766   6.325   2.022   0.316
 5254TIP3   OH215767   5.389   2.298   1.003
 5254TIP3    H115768   5.452   2.263   0.940
 5254TIP3    H215769   5.431   2.376   1.038
 5255TIP3   OH215770   2.274   5.906   4.575
 5255TIP3    H115771   2.225   5.939   4.499
 5255TIP3    H215772   2.260   5.971   4.643
 5256TIP3   OH215773   3.726   4.506   3.735
 5256TIP3    H115774   3.667   4.571   3.696
 5256TIP3    H215775   3.744   4.540   3.823
 5257TIP3   OH215776   2.882   3.228   3.897
 5257TIP3    H115777   2.867   3.217   3.803
 5257TIP3    H215778   2.805   3.275   3.928
 5258TIP3   OH215779   5.524   0.939   0.332
 5258TIP3    H115780   5.574   0.936   0.250
 5258TIP3    H215781   5.589   0.919   0.400
 5259TIP3   OH215782   5.886   0.176   0.726
 5259TIP3    H115783   5.853   0.194   0.814
 5259TIP3    H215784   5.808   0.174   0.671
 5260TIP3   OH215785   2.484   2.925   4.239
 5260TIP3    H115786   2.495   3.019   4.251
 5260TIP3    H215787   2.392   2.914   4.215
 5261TIP3   OH215788   3.189   2.341   3.902
 5261TIP3    H115789   3.261   2.337   3.965
 5261TIP3    H215790   3.231   2.370   3.821
 5262TIP3   OH215791   3.779   4.192   0.803
 5262TIP3    H115792   3.804   4.274   0.760
 5262TIP3    H215793   3.826   4.193   0.887
 5263TIP3   OH215794   3.297   3.677   3.266
 5263TIP3    H115795   3.207   3.688   3.237
 5263TIP3    H215796   3.326   3.765   3.288
 5264TIP3   OH215797   4.392   4.834   0.178
 5264TIP3    H115798   4.476   4.819   0.135
 5264TIP3    H215799   4.415   4.870   0.263
 5265TIP3   OH215800   3.863   2.349   2.399
 5265TIP3    H115801   3.810   2.375   2.323
 5265TIP3    H215802   3.867   2.427   2.454
 5266TIP3   OH215803   0.482   3.485   0.845
 5266TIP3    H115804   0.538   3.408   0.859
 5266TIP3    H215805   0.519   3.553   0.901
 5267TIP3   OH215806   1.344   1.102   3.319
 5267TIP3    H115807   1.377   1.027   3.270
 5267TIP3    H215808   1.358   1.177   3.261
 5268TIP3   OH215809   1.983   1.476   4.934
 5268TIP3    H115810   2.023   1.560   4.957
 5268TIP3    H215811   1.980   1.477   4.838
 5269TIP3   OH215812   0.483   1.042   2.741
 5269TIP3    H115813   0.390   1.023   2.746
 5269TIP3    H215814   0.512   0.997   2.662
 5270TIP3   OH215815   4.657   0.860   4.634
 5270TIP3    H115816   4.663   0.786   4.573
 5270TIP3    H215817   4.569   0.895   4.621
 5271TIP3   OH215818   3.552   3.128   1.640
 5271TIP3    H115819   3.528   3.036   1.643
 5271TIP3    H215820   3.602   3.142   1.720
 5272TIP3   OH215821   5.736   5.735   1.032
 5272TIP3    H115822   5.649   5.695   1.040
 5272TIP3    H215823   5.733   5.781   0.948
 5273TIP3   OH215824   4.541   0.734   1.118
 5273TIP3    H115825   4.491   0.675   1.174
 5273TIP3    H215826   4.488   0.814   1.112
 5274TIP3   OH215827   0.459   4.081   2.717
 5274TIP3    H115828   0.536   4.078   2.661
 5274TIP3    H215829   0.412   4.000   2.698
 5275TIP3   OH215830   0.795   3.304   4.365
 5275TIP3    H115831   0.816   3.392   4.336
 5275TIP3    H215832   0.812   3.249   4.289
 5276TIP3   OH215833   0.943   1.305   3.006
 5276TIP3    H115834   0.972   1.379   2.953
 5276TIP3    H215835   0.863   1.275   2.964
 5277TIP3   OH215836   5.604   5.260   3.601
 5277TIP3    H115837   5.697   5.238   3.602
 5277TIP3    H215838   5.564   5.196   3.543
 5278TIP3   OH215839   2.228   2.442   4.823
 5278TIP3    H115840   2.136   2.470   4.827
 5278TIP3    H215841   2.258   2.449   4.913
 5279TIP3   OH215842   0.849   4.851   2.563
 5279TIP3    H115843   0.765   4.878   2.527
 5279TIP3    H215844   0.894   4.808   2.491
 5280TIP3   OH215845   5.704   3.654   0.101
 5280TIP3    H115846   5.673   3.644   0.191
 5280TIP3    H215847   5.764   3.581   0.087
 5281TIP3   OH215848   4.660   5.543   3.030
 5281TIP3    H115849   4.618   5.592   2.959
 5281TIP3    H215850   4.670   5.608   3.100
 5282TIP3   OH215851   4.170   1.291   0.923
 5282TIP3    H115852   4.258   1.319   0.899
 5282TIP3    H215853   4.156   1.209   0.876
 5283TIP3   OH215854   5.193   5.632   2.217
 5283TIP3    H115855   5.231   5.627   2.305
 5283TIP3    H215856   5.255   5.587   2.161
 5284TIP3   OH215857   0.658   4.685   2.251
 5284TIP3    H115858   0.679   4.695   2.158
 5284TIP3    H215859   0.589   4.618   2.253
 5285TIP3   OH215860   3.141   1.501   2.901
 5285TIP3    H115861   3.102   1.449   2.831
 5285TIP3    H215862   3.222   1.455   2.923
 5286TIP3   OH215863   5.977   4.926   2.555
 5286TIP3    H115864   5.898   4.979   2.546
 5286TIP3    H215865   5.945   4.836   2.567
 5287TIP3   OH215866   3.658   1.234   3.706
 5287TIP3    H115867   3.602   1.157   3.716
 5287TIP3    H215868   3.625   1.296   3.772
 5288TIP3   OH215869   0.622   5.203   3.667
 5288TIP3    H115870   0.537   5.241   3.687
 5288TIP3    H215871   0.607   5.144   3.594
 5289TIP3   OH215872   4.477   1.894   3.636
 5289TIP3    H115873   4.487   1.827   3.704
 5289TIP3    H215874   4.552   1.952   3.648
 5290TIP3   OH215875   1.595   1.647   4.837
 5290TIP3    H115876   1.603   1.586   4.910
 5290TIP3    H215877   1.664   1.620   4.776
 5291TIP3   OH215878   5.834   1.171   2.088
 5291TIP3    H115879   5.877   1.232   2.028
 5291TIP3    H215880   5.900   1.104   2.106
 5292TIP3   OH215881   0.421   2.708   3.180
 5292TIP3    H115882   0.492   2.745   3.233
 5292TIP3    H215883   0.441   2.735   3.091
 5293TIP3   OH215884   4.959   3.936   1.313
 5293TIP3    H115885   5.038   3.989   1.311
 5293TIP3    H215886   4.931   3.929   1.222
 5294TIP3   OH215887   4.747   1.572   2.921
 5294TIP3    H115888   4.814   1.541   2.860
 5294TIP3    H215889   4.680   1.503   2.920
 5295TIP3   OH215890   0.254   1.218   3.340
 5295TIP3    H115891   0.316   1.286   3.367
 5295TIP3    H215892   0.304   1.137   3.339
 5296TIP3   OH215893   4.625   3.447   0.031
 5296TIP3    H115894   4.594   3.527   0.073
 5296TIP3    H215895   4.716   3.465   0.010
 5297TIP3   OH215896   4.105   1.323   1.717
 5297TIP3    H115897   4.060   1.364   1.791
 5297TIP3    H215898   4.168   1.389   1.688
 5298TIP3   OH215899   3.499   2.852   1.781
 5298TIP3    H115900   3.585   2.826   1.749
 5298TIP3    H215901   3.446   2.772   1.776
 5299TIP3   OH215902   2.404   2.107   2.138
 5299TIP3    H115903   2.319   2.147   2.157
 5299TIP3    H215904   2.426   2.059   2.218
 5300TIP3   OH215905   3.075   4.056   1.737
 5300TIP3    H115906   2.984   4.044   1.708
 5300TIP3    H215907   3.097   3.974   1.782
 5301TIP3   OH215908   0.419   2.026   4.843
 5301TIP3    H115909   0.353   2.091   4.867
 5301TIP3    H215910   0.480   2.027   4.917
 5302TIP3   OH215911   0.059   2.409   2.261
 5302TIP3    H115912   0.127   2.344   2.249
 5302TIP3    H215913   0.057   2.457   2.178
 5303TIP3   OH215914   1.960   3.284   4.310
 5303TIP3    H115915   1.959   3.191   4.286
 5303TIP3    H215916   1.915   3.328   4.237
 5304TIP3   OH215917   0.003   1.532   3.214
 5304TIP3    H115918   0.066   1.540   3.286
 5304TIP3    H215919   0.047   1.477   3.149
 5305TIP3   OH215920   5.926   4.873   3.408
 5305TIP3    H115921   5.864   4.894   3.477
 5305TIP3    H215922   5.885   4.905   3.328
 5306TIP3   OH215923   0.862   2.481   0.929
 5306TIP3    H115924   0.928   2.419   0.962
 5306TIP3    H215925   0.873   2.559   0.984
 5307TIP3   OH215926   6.056   4.499   4.124
 5307TIP3    H115927   6.051   4.503   4.029
 5307TIP3    H215928   6.034   4.588   4.153
 5308TIP3   OH215929   5.082   2.694   2.264
 5308TIP3    H115930   5.015   2.671   2.200
 5308TIP3    H215931   5.075   2.789   2.272
 5309TIP3   OH215932   5.155   5.116   2.451
 5309TIP3    H115933   5.065   5.148   2.446
 5309TIP3    H215934   5.159   5.048   2.384
 5310TIP3   OH215935   0.904   0.359   0.924
 5310TIP3    H115936   0.863   0.279   0.956
 5310TIP3    H215937   0.997   0.346   0.938
 5311TIP3   OH215938   0.403   0.692   3.593
 5311TIP3    H115939   0.493   0.725   3.594
 5311TIP3    H215940   0.373   0.700   3.684
 5312TIP3   OH215941   0.768   2.229   0.109
 5312TIP3    H115942   0.692   2.233   0.051
 5312TIP3    H215943   0.830   2.174   0.063
 5313TIP3   OH215944   0.397   1.236   0.826
 5313TIP3    H115945   0.313   1.261   0.787
 5313TIP3    H215946   0.382   1.149   0.864
 5314TIP3   OH215947   0.975   5.642   3.943
 5314TIP3    H115948   1.055   5.600   3.975
 5314TIP3    H215949   0.954   5.594   3.862
 5315TIP3   OH215950   2.846   4.068   5.157
 5315TIP3    H115951   2.911   4.039   5.093
 5315TIP3    H215952   2.873   4.157   5.180
 5316TIP3   OH215953   4.805  -0.029   2.622
 5316TIP3    H115954   4.839   0.049   2.577
 5316TIP3    H215955   4.711  -0.014   2.628
 5317TIP3   OH215956   0.130   3.330   1.136
 5317TIP3    H115957   0.186   3.402   1.166
 5317TIP3    H215958   0.075   3.369   1.068
 5318TIP3   OH215959   5.748   0.754   3.327
 5318TIP3    H115960   5.798   0.835   3.316
 5318TIP3    H215961   5.710   0.737   3.241
 5319TIP3   OH215962   2.762   1.256   3.271
 5319TIP3    H115963   2.732   1.274   3.361
 5319TIP3    H215964   2.716   1.321   3.218
 5320TIP3   OH215965   1.418   1.517   2.816
 5320TIP3    H115966   1.386   1.518   2.906
 5320TIP3    H215967   1.434   1.608   2.794
 5321TIP3   OH215968   5.304   2.207   3.862
 5321TIP3    H115969   5.214   2.174   3.859
 5321TIP3    H215970   5.316   2.233   3.954
 5322TIP3   OH215971   5.231   5.025   2.190
 5322TIP3    H115972   5.322   5.055   2.197
 5322TIP3    H215973   5.213   5.023   2.096
 5323TIP3   OH215974   2.682   3.138   1.387
 5323TIP3    H115975   2.680   3.090   1.469
 5323TIP3    H215976   2.610   3.102   1.335
 5324TIP3   OH215977   6.095   3.698   4.713
 5324TIP3    H115978   6.120   3.699   4.620
 5324TIP3    H215979   6.099   3.790   4.739
 5325TIP3   OH215980   0.739   0.282   2.163
 5325TIP3    H115981   0.765   0.296   2.072
 5325TIP3    H215982   0.821   0.266   2.209
 5326TIP3   OH215983   0.403  -0.011   2.273
 5326TIP3    H115984   0.474   0.053   2.282
 5326TIP3    H215985   0.369  -0.023   2.361
 5327TIP3   OH215986   0.531   1.193   4.875
 5327TIP3    H115987   0.447   1.208   4.918
 5327TIP3    H215988   0.556   1.279   4.840
 5328TIP3   OH215989   0.738   2.560   3.514
 5328TIP3    H115990   0.688   2.640   3.524
 5328TIP3    H215991   0.695   2.513   3.443
 5329TIP3   OH215992   3.920   5.863   3.125
 5329TIP3    H115993   3.903   5.772   3.100
 5329TIP3    H215994   4.001   5.886   3.080
 5330TIP3   OH215995   1.609   4.017   1.498
 5330TIP3    H115996   1.661   4.096   1.479
 5330TIP3    H215997   1.668   3.961   1.548
 5331TIP3   OH215998   2.497   3.817   4.820
 5331TIP3    H115999   2.452   3.744   4.778
 5331TIP3    H216000   2.537   3.865   4.747
 5332TIP3   OH216001   1.846   0.189   0.676
 5332TIP3    H116002   1.848   0.172   0.770
 5332TIP3    H216003   1.797   0.270   0.667
 5333TIP3   OH216004   0.213   1.916   0.056
 5333TIP3    H116005   0.203   1.821   0.062
 5333TIP3    H216006   0.145   1.951   0.114
 5334TIP3   OH216007   2.806   0.726   0.305
 5334TIP3    H116008   2.859   0.801   0.278
 5334TIP3    H216009   2.715   0.756   0.297
 5335TIP3   OH216010   3.770   3.609   1.803
 5335TIP3    H116011   3.677   3.587   1.810
 5335TIP3    H216012   3.800   3.615   1.894
 5336TIP3   OH216013   3.018   3.114   4.888
 5336TIP3    H116014   2.971   3.196   4.874
 5336TIP3    H216015   3.079   3.133   4.959
 5337TIP3   OH216016   4.615   1.343   3.052
 5337TIP3    H116017   4.649   1.267   3.097
 5337TIP3    H216018   4.586   1.402   3.122
 5338TIP3   OH216019   4.543   1.992   2.926
 5338TIP3    H116020   4.454   1.976   2.957
 5338TIP3    H216021   4.565   2.079   2.959
 5339TIP3   OH216022   4.684   2.398   1.332
 5339TIP3    H116023   4.689   2.321   1.387
 5339TIP3    H216024   4.749   2.383   1.263
 5340TIP3   OH216025   4.285   5.341   3.571
 5340TIP3    H116026   4.285   5.394   3.651
 5340TIP3    H216027   4.226   5.387   3.512
 5341TIP3   OH216028   0.297   3.145   3.285
 5341TIP3    H116029   0.278   3.170   3.195
 5341TIP3    H216030   0.212   3.148   3.329
 5342TIP3   OH216031   6.168   3.015   1.425
 5342TIP3    H116032   6.183   2.945   1.361
 5342TIP3    H216033   6.221   3.088   1.392
 5343TIP3   OH216034   5.095   5.871   3.987
 5343TIP3    H116035   5.018   5.915   3.950
 5343TIP3    H216036   5.099   5.903   4.077
 5344TIP3   OH216037   6.229   5.655   2.208
 5344TIP3    H116038   6.236   5.636   2.302
 5344TIP3    H216039   6.152   5.711   2.201
 5345TIP3   OH216040   5.992   4.347   2.274
 5345TIP3    H116041   5.956   4.265   2.309
 5345TIP3    H216042   5.937   4.415   2.313
 5346TIP3   OH216043   6.216   5.137   2.061
 5346TIP3    H116044   6.168   5.205   2.015
 5346TIP3    H216045   6.154   5.105   2.127
 5347TIP3   OH216046   0.005   1.721   1.951
 5347TIP3    H116047  -0.010   1.638   1.996
 5347TIP3    H216048   0.090   1.751   1.983
 5348TIP3   OH216049   1.623   1.330   4.032
 5348TIP3    H116050   1.699   1.362   3.984
 5348TIP3    H216051   1.632   1.368   4.119
 5349TIP3   OH216052   1.777   0.264   1.236
 5349TIP3    H116053   1.794   0.311   1.318
 5349TIP3    H216054   1.743   0.179   1.264
 5350TIP3   OH216055   1.424   3.511   3.057
 5350TIP3    H116056   1.484   3.539   2.988
 5350TIP3    H216057   1.429   3.415   3.056
 5351TIP3   OH216058   6.150   1.712   3.112
 5351TIP3    H116059   6.205   1.642   3.147
 5351TIP3    H216060   6.101   1.671   3.041
 5352TIP3   OH216061   0.101   0.714   4.745
 5352TIP3    H116062   0.023   0.662   4.767
 5352TIP3    H216063   0.164   0.650   4.712
 5353TIP3   OH216064   0.468   1.706   2.296
 5353TIP3    H116065   0.499   1.752   2.218
 5353TIP3    H216066   0.436   1.776   2.354
 5354TIP3   OH216067   1.664   3.269   2.542
 5354TIP3    H116068   1.581   3.221   2.536
 5354TIP3    H216069   1.698   3.248   2.629
 5355TIP3   OH216070   1.583   1.989   4.507
 5355TIP3    H116071   1.657   2.026   4.554
 5355TIP3    H216072   1.611   1.901   4.483
 5356TIP3   OH216073   4.646   0.946   3.982
 5356TIP3    H116074   4.645   0.901   4.066
 5356TIP3    H216075   4.738   0.962   3.963
 5357TIP3   OH216076   3.796   0.899   3.319
 5357TIP3    H116077   3.745   0.819   3.312
 5357TIP3    H216078   3.791   0.924   3.412
 5358TIP3   OH216079   1.434   4.743   0.762
 5358TIP3    H116080   1.506   4.738   0.698
 5358TIP3    H216081   1.459   4.816   0.819
 5359TIP3   OH216082   2.298   1.557   3.034
 5359TIP3    H116083   2.383   1.601   3.028
 5359TIP3    H216084   2.237   1.620   2.996
 5360TIP3   OH216085   1.017   0.485   2.780
 5360TIP3    H116086   1.068   0.546   2.726
 5360TIP3    H216087   0.937   0.471   2.731
 5361TIP3   OH216088   2.837   4.318   1.468
 5361TIP3    H116089   2.927   4.301   1.439
 5361TIP3    H216090   2.845   4.386   1.534
 5362TIP3   OH216091   4.808   1.356   4.721
 5362TIP3    H116092   4.767   1.331   4.638
 5362TIP3    H216093   4.754   1.429   4.753
 5363TIP3   OH216094   6.231   0.132   4.147
 5363TIP3    H116095   6.275   0.068   4.203
 5363TIP3    H216096   6.236   0.214   4.196
 5364TIP3   OH216097   5.293   2.900   0.195
 5364TIP3    H116098   5.286   2.807   0.176
 5364TIP3    H216099   5.205   2.926   0.220
 5365TIP3   OH216100   4.398   1.756   0.637
 5365TIP3    H116101   4.362   1.724   0.555
 5365TIP3    H216102   4.409   1.850   0.623
 5366TIP3   OH216103   3.639   4.162   4.722
 5366TIP3    H116104   3.613   4.095   4.785
 5366TIP3    H216105   3.573   4.230   4.730
 5367TIP3   OH216106   4.678   4.807   4.097
 5367TIP3    H116107   4.654   4.764   4.015
 5367TIP3    H216108   4.643   4.749   4.165
 5368TIP3   OH216109   5.474   4.760   2.307
 5368TIP3    H116110   5.475   4.709   2.226
 5368TIP3    H216111   5.396   4.815   2.300
 5369TIP3   OH216112   5.920   1.464   4.322
 5369TIP3    H116113   5.825   1.466   4.335
 5369TIP3    H216114   5.953   1.537   4.374
 5370TIP3   OH216115   0.306   0.365   2.781
 5370TIP3    H116116   0.360   0.288   2.764
 5370TIP3    H216117   0.302   0.410   2.697
 5371TIP3   OH216118   2.500   1.840   3.363
 5371TIP3    H116119   2.555   1.763   3.378
 5371TIP3    H216120   2.500   1.886   3.447
 5372TIP3   OH216121   0.769   4.438   2.701
 5372TIP3    H116122   0.684   4.480   2.716
 5372TIP3    H216123   0.829   4.483   2.760
 5373TIP3   OH216124   4.238   0.131   0.805
 5373TIP3    H116125   4.272   0.174   0.884
 5373TIP3    H216126   4.266   0.187   0.733
 5374TIP3   OH216127   2.947   0.572   0.478
 5374TIP3    H116128   2.886   0.619   0.420
 5374TIP3    H216129   2.986   0.504   0.423
 5375TIP3   OH216130   0.921   4.132   3.271
 5375TIP3    H116131   0.909   4.227   3.270
 5375TIP3    H216132   0.957   4.112   3.185
 5376TIP3   OH216133   1.103   2.704   1.883
 5376TIP3    H116134   1.096   2.783   1.936
 5376TIP3    H216135   1.071   2.731   1.797
 5377TIP3   OH216136   0.720   5.286   1.869
 5377TIP3    H116137   0.671   5.250   1.942
 5377TIP3    H216138   0.800   5.234   1.865
 5378TIP3   OH216139   4.206   2.735   0.308
 5378TIP3    H116140   4.204   2.756   0.214
 5378TIP3    H216141   4.298   2.744   0.332
 5379TIP3   OH216142   2.462   1.954   3.612
 5379TIP3    H116143   2.546   1.926   3.649
 5379TIP3    H216144   2.397   1.909   3.665
 5380TIP3   OH216145   3.435   1.422   3.736
 5380TIP3    H116146   3.387   1.461   3.662
 5380TIP3    H216147   3.441   1.493   3.800
 5381TIP3   OH216148   5.866   5.189   3.581
 5381TIP3    H116149   5.933   5.190   3.514
 5381TIP3    H216150   5.865   5.098   3.613
 5382TIP3   OH216151   6.210   4.303   0.402
 5382TIP3    H116152   6.294   4.341   0.425
 5382TIP3    H216153   6.173   4.363   0.338
 5383TIP3   OH216154   0.700   2.826   4.174
 5383TIP3    H116155   0.632   2.853   4.235
 5383TIP3    H216156   0.779   2.817   4.228
 5384TIP3   OH216157   4.110   5.570   0.287
 5384TIP3    H116158   4.087   5.663   0.295
 5384TIP3    H216159   4.197   5.570   0.248
 5385TIP3   OH216160   5.739   4.844   2.310
 5385TIP3    H116161   5.660   4.790   2.313
 5385TIP3    H216162   5.709   4.932   2.333
 5386TIP3   OH216163   3.486   5.126   3.941
 5386TIP3    H116164   3.559   5.141   3.880
 5386TIP3    H216165   3.434   5.206   3.937
 5387TIP3   OH216166   4.913   3.475   1.933
 5387TIP3    H116167   4.818   3.463   1.928
 5387TIP3    H216168   4.928   3.507   2.022
 5388TIP3   OH216169   4.428   2.139   1.149
 5388TIP3    H116170   4.404   2.120   1.240
 5388TIP3    H216171   4.521   2.159   1.152
 5389TIP3   OH216172   1.067   4.051   1.410
 5389TIP3    H116173   1.128   4.081   1.478
 5389TIP3    H216174   1.016   4.128   1.388
 5390TIP3   OH216175   5.300   3.463   0.328
 5390TIP3    H116176   5.336   3.508   0.251
 5390TIP3    H216177   5.376   3.434   0.377
 5391TIP3   OH216178   3.410   0.505   1.057
 5391TIP3    H116179   3.474   0.435   1.067
 5391TIP3    H216180   3.462   0.581   1.031
 5392TIP3   OH216181   0.714   1.514   1.125
 5392TIP3    H116182   0.680   1.426   1.142
 5392TIP3    H216183   0.781   1.502   1.057
 5393TIP3   OH216184   2.689   0.922   2.601
 5393TIP3    H116185   2.617   0.890   2.655
 5393TIP3    H216186   2.673   0.885   2.514
 5394TIP3   OH216187   3.024   1.987   1.430
 5394TIP3    H116188   2.978   1.944   1.502
 5394TIP3    H216189   3.003   1.935   1.353
 5395TIP3   OH216190   5.089   1.637   3.008
 5395TIP3    H116191   4.998   1.667   3.018
 5395TIP3    H216192   5.081   1.543   2.992
 5396TIP3   OH216193   5.467   2.061   4.886
 5396TIP3    H116194   5.424   1.995   4.941
 5396TIP3    H216195   5.470   2.139   4.941
 5397TIP3   OH216196   2.467   3.001   2.159
 5397TIP3    H116197   2.532   3.014   2.089
 5397TIP3    H216198   2.396   2.953   2.116
 5398TIP3   OH216199   0.870   3.146   2.431
 5398TIP3    H116200   0.806   3.173   2.497
 5398TIP3    H216201   0.926   3.222   2.420
 5399TIP3   OH216202   0.018   4.851   4.622
 5399TIP3    H116203  -0.060   4.842   4.676
 5399TIP3    H216204   0.045   4.942   4.634
 5400TIP3   OH216205   2.736   4.300   2.056
 5400TIP3    H116206   2.715   4.254   2.137
 5400TIP3    H216207   2.774   4.233   1.999
 5401TIP3   OH216208   0.142   1.871   3.199
 5401TIP3    H116209   0.170   1.961   3.182
 5401TIP3    H216210   0.217   1.817   3.175
 5402TIP3   OH216211   5.685   5.674   3.731
 5402TIP3    H116212   5.596   5.703   3.711
 5402TIP3    H216213   5.673   5.590   3.776
 5403TIP3   OH216214   3.601   5.824   4.202
 5403TIP3    H116215   3.663   5.885   4.241
 5403TIP3    H216216   3.654   5.768   4.146
 5404TIP3   OH216217   2.689   4.423   0.939
 5404TIP3    H116218   2.738   4.447   1.018
 5404TIP3    H216219   2.598   4.416   0.968
 5405TIP3   OH216220   0.205   0.898   4.935
 5405TIP3    H116221   0.127   0.930   4.980
 5405TIP3    H216222   0.177   0.815   4.895
 5406TIP3   OH216223   3.233   5.353   3.675
 5406TIP3    H116224   3.320   5.392   3.667
 5406TIP3    H216225   3.176   5.425   3.700
 5407TIP3   OH216226   5.875   0.133  -0.020
 5407TIP3    H116227   5.852   0.084   0.059
 5407TIP3    H216228   5.967   0.156  -0.009
 5408TIP3   OH216229   2.187   3.236   2.925
 5408TIP3    H116230   2.102   3.196   2.906
 5408TIP3    H216231   2.215   3.273   2.841
 5409TIP3   OH216232   0.264   3.018   1.365
 5409TIP3    H116233   0.216   3.032   1.283
 5409TIP3    H216234   0.338   2.962   1.340
 5410TIP3   OH216235   5.330   5.672   4.339
 5410TIP3    H116236   5.408   5.728   4.343
 5410TIP3    H216237   5.330   5.638   4.250
 5411TIP3   OH216238   4.881   5.426   0.032
 5411TIP3    H116239   4.875   5.368   0.108
 5411TIP3    H216240   4.894   5.513   0.070
 5412TIP3   OH216241   5.841   4.533   0.478
 5412TIP3    H116242   5.830   4.628   0.471
 5412TIP3    H216243   5.884   4.520   0.563
 5413TIP3   OH216244   1.493   1.788   0.549
 5413TIP3    H116245   1.499   1.731   0.472
 5413TIP3    H216246   1.404   1.824   0.545
 5414TIP3   OH216247   3.177   3.422   4.800
 5414TIP3    H116248   3.182   3.365   4.877
 5414TIP3    H216249   3.126   3.498   4.829
 5415TIP3   OH216250   0.286   3.521   3.565
 5415TIP3    H116251   0.265   3.467   3.641
 5415TIP3    H216252   0.246   3.606   3.584
 5416TIP3   OH216253   0.852   0.368   3.760
 5416TIP3    H116254   0.863   0.350   3.853
 5416TIP3    H216255   0.791   0.301   3.729
 5417TIP3   OH216256   4.247   4.043   1.012
 5417TIP3    H116257   4.303   4.118   0.990
 5417TIP3    H216258   4.305   3.968   1.002
 5418TIP3   OH216259   3.475   3.858   3.739
 5418TIP3    H116260   3.445   3.805   3.665
 5418TIP3    H216261   3.470   3.948   3.706
 5419TIP3   OH216262   2.328   0.326   3.959
 5419TIP3    H116263   2.248   0.274   3.963
 5419TIP3    H216264   2.396   0.268   3.994
 5420TIP3   OH216265   5.480   0.300   4.842
 5420TIP3    H116266   5.384   0.305   4.851
 5420TIP3    H216267   5.513   0.367   4.902
 5421TIP3   OH216268   0.637   3.068   2.057
 5421TIP3    H116269   0.602   3.120   2.128
 5421TIP3    H216270   0.652   3.130   1.986
 5422TIP3   OH216271   0.583   4.483   0.418
 5422TIP3    H116272   0.575   4.545   0.346
 5422TIP3    H216273   0.495   4.475   0.454
 5423TIP3   OH216274   1.104   1.558   4.896
 5423TIP3    H116275   1.127   1.632   4.841
 5423TIP3    H216276   1.090   1.596   4.983
 5424TIP3   OH216277   3.619   4.897   2.319
 5424TIP3    H116278   3.549   4.925   2.377
 5424TIP3    H216279   3.698   4.898   2.374
 5425TIP3   OH216280   1.174   0.708   3.585
 5425TIP3    H116281   1.166   0.761   3.664
 5425TIP3    H216282   1.091   0.662   3.577
 5426TIP3   OH216283   4.797   1.267   0.899
 5426TIP3    H116284   4.746   1.192   0.929
 5426TIP3    H216285   4.838   1.237   0.818
 5427TIP3   OH216286   0.830   4.543   3.789
 5427TIP3    H116287   0.897   4.505   3.845
 5427TIP3    H216288   0.832   4.637   3.810
 5428TIP3   OH216289   5.592   1.183   1.934
 5428TIP3    H116290   5.655   1.176   2.006
 5428TIP3    H216291   5.607   1.270   1.897
 5429TIP3   OH216292   4.174   0.864   3.864
 5429TIP3    H116293   4.177   0.839   3.772
 5429TIP3    H216294   4.224   0.796   3.909
 5430TIP3   OH216295   4.526   2.651   3.014
 5430TIP3    H116296   4.600   2.636   3.073
 5430TIP3    H216297   4.558   2.626   2.928
 5431TIP3   OH216298   5.445   3.004   3.433
 5431TIP3    H116299   5.484   3.090   3.419
 5431TIP3    H216300   5.472   2.952   3.358
 5432TIP3   OH216301   1.328   2.902   4.370
 5432TIP3    H116302   1.303   2.868   4.284
 5432TIP3    H216303   1.248   2.940   4.406
 5433TIP3   OH216304   2.208   0.984   0.278
 5433TIP3    H116305   2.117   0.987   0.248
 5433TIP3    H216306   2.203   1.000   0.372
 5434TIP3   OH216307   4.103   2.079   1.885
 5434TIP3    H116308   4.100   2.074   1.981
 5434TIP3    H216309   4.153   2.159   1.867
 5435TIP3   OH216310   3.823   5.668   3.364
 5435TIP3    H116311   3.802   5.762   3.364
 5435TIP3    H216312   3.892   5.660   3.430
 5436TIP3   OH216313   1.605   5.804   4.962
 5436TIP3    H116314   1.544   5.877   4.966
 5436TIP3    H216315   1.616   5.786   4.868
 5437TIP3   OH216316   5.992   2.889   3.164
 5437TIP3    H116317   5.969   2.943   3.239
 5437TIP3    H216318   5.944   2.807   3.179
 5438TIP3   OH216319   3.690   4.785   1.061
 5438TIP3    H116320   3.785   4.785   1.044
 5438TIP3    H216321   3.655   4.849   0.999
 5439TIP3   OH216322   1.832   5.674   1.620
 5439TIP3    H116323   1.908   5.691   1.564
 5439TIP3    H216324   1.807   5.760   1.654
 5440TIP3   OH216325   2.772   2.147   3.248
 5440TIP3    H116326   2.724   2.080   3.199
 5440TIP3    H216327   2.781   2.110   3.336
 5441TIP3   OH216328   4.681   0.183   1.557
 5441TIP3    H116329   4.688   0.275   1.531
 5441TIP3    H216330   4.588   0.162   1.543
 5442TIP3   OH216331   0.519   3.644   1.907
 5442TIP3    H116332   0.436   3.634   1.859
 5442TIP3    H216333   0.545   3.734   1.891
 5443TIP3   OH216334   5.165   5.791   1.981
 5443TIP3    H116335   5.113   5.872   1.978
 5443TIP3    H216336   5.163   5.765   2.073
 5444TIP3   OH216337   4.071   5.367   4.936
 5444TIP3    H116338   4.122   5.343   5.013
 5444TIP3    H216339   4.059   5.462   4.943
 5445TIP3   OH216340   3.103   2.202   1.631
 5445TIP3    H116341   3.177   2.155   1.669
 5445TIP3    H216342   3.060   2.138   1.575
 5446TIP3   OH216343   4.712   5.293   0.522
 5446TIP3    H116344   4.802   5.260   0.517
 5446TIP3    H216345   4.683   5.273   0.610
 5447TIP3   OH216346   3.052   1.627   3.747
 5447TIP3    H116347   3.138   1.650   3.712
 5447TIP3    H216348   3.027   1.703   3.801
 5448TIP3   OH216349   3.631   1.017   4.251
 5448TIP3    H116350   3.599   0.960   4.181
 5448TIP3    H216351   3.601   0.975   4.332
 5449TIP3   OH216352   2.110   4.202   2.878
 5449TIP3    H116353   2.114   4.128   2.939
 5449TIP3    H216354   2.076   4.164   2.797
 5450TIP3   OH216355   5.250   3.657   3.701
 5450TIP3    H116356   5.341   3.636   3.725
 5450TIP3    H216357   5.257   3.742   3.656
 5451TIP3   OH216358   1.524   2.552   0.159
 5451TIP3    H116359   1.610   2.528   0.126
 5451TIP3    H216360   1.501   2.483   0.221
 5452TIP3   OH216361   2.789   5.717   1.239
 5452TIP3    H116362   2.792   5.626   1.211
 5452TIP3    H216363   2.849   5.722   1.314
 5453TIP3   OH216364   4.667   4.094   0.883
 5453TIP3    H116365   4.674   4.172   0.938
 5453TIP3    H216366   4.735   4.105   0.817
 5454TIP3   OH216367   5.277   3.823   1.280
 5454TIP3    H116368   5.325   3.745   1.310
 5454TIP3    H216369   5.191   3.789   1.256
 5455TIP3   OH216370   2.332   2.430   3.580
 5455TIP3    H116371   2.267   2.465   3.640
 5455TIP3    H216372   2.303   2.340   3.563
 5456TIP3   OH216373   3.648   1.824   4.216
 5456TIP3    H116374   3.649   1.733   4.186
 5456TIP3    H216375   3.559   1.854   4.197
 5457TIP3   OH216376   5.362   5.476   1.904
 5457TIP3    H116377   5.381   5.395   1.857
 5457TIP3    H216378   5.445   5.500   1.946
 5458TIP3   OH216379   6.025   2.367   2.782
 5458TIP3    H116380   6.117   2.339   2.781
 5458TIP3    H216381   6.017   2.423   2.859
 5459TIP3   OH216382   5.571   3.153   2.729
 5459TIP3    H116383   5.651   3.109   2.701
 5459TIP3    H216384   5.587   3.245   2.709
 5460TIP3   OH216385   3.145   3.175   2.848
 5460TIP3    H116386   3.107   3.199   2.763
 5460TIP3    H216387   3.082   3.205   2.913
 5461TIP3   OH216388   2.364   4.071   4.416
 5461TIP3    H116389   2.358   4.152   4.466
 5461TIP3    H216390   2.433   4.020   4.460
 5462TIP3   OH216391   1.598   3.494   4.645
 5462TIP3    H116392   1.621   3.406   4.675
 5462TIP3    H216393   1.560   3.537   4.721
 5463TIP3   OH216394   3.374   0.808   3.556
 5463TIP3    H116395   3.363   0.780   3.465
 5463TIP3    H216396   3.285   0.831   3.585
 5464TIP3   OH216397   1.438   5.513   0.992
 5464TIP3    H116398   1.442   5.517   0.896
 5464TIP3    H216399   1.350   5.481   1.011
 5465TIP3   OH216400   5.064   5.434   2.834
 5465TIP3    H116401   5.007   5.460   2.907
 5465TIP3    H216402   5.009   5.443   2.756
 5466TIP3   OH216403   1.810   4.982   2.195
 5466TIP3    H116404   1.788   5.036   2.271
 5466TIP3    H216405   1.897   5.010   2.170
 5467TIP3   OH216406   4.444   1.411   3.757
 5467TIP3    H116407   4.488   1.326   3.754
 5467TIP3    H216408   4.483   1.460   3.685
 5468TIP3   OH216409   3.500   0.443   3.378
 5468TIP3    H116410   3.528   0.441   3.470
 5468TIP3    H216411   3.408   0.418   3.380
 5469TIP3   OH216412   3.682   3.607   2.889
 5469TIP3    H116413   3.707   3.529   2.937
 5469TIP3    H216414   3.712   3.590   2.799
 5470TIP3   OH216415   4.767   0.208   4.553
 5470TIP3    H116416   4.714   0.129   4.566
 5470TIP3    H216417   4.720   0.277   4.601
 5471TIP3   OH216418   3.617   0.627   4.076
 5471TIP3    H116419   3.608   0.620   4.171
 5471TIP3    H216420   3.583   0.713   4.054
 5472TIP3   OH216421   3.177   3.821   1.417
 5472TIP3    H116422   3.211   3.804   1.505
 5472TIP3    H216423   3.254   3.845   1.366
 5473TIP3   OH216424   0.821   2.183   0.375
 5473TIP3    H116425   0.784   2.212   0.292
 5473TIP3    H216426   0.753   2.202   0.440
 5474TIP3   OH216427   1.802   5.575   3.653
 5474TIP3    H116428   1.713   5.608   3.663
 5474TIP3    H216429   1.794   5.480   3.666
 5475TIP3   OH216430   5.751   3.742   4.570
 5475TIP3    H116431   5.795   3.782   4.495
 5475TIP3    H216432   5.730   3.815   4.628
 5476TIP3   OH216433   5.996   3.136   0.874
 5476TIP3    H116434   6.000   3.228   0.847
 5476TIP3    H216435   5.956   3.091   0.799
 5477TIP3   OH216436   2.869   5.534   2.694
 5477TIP3    H116437   2.858   5.447   2.733
 5477TIP3    H216438   2.916   5.518   2.613
 5478TIP3   OH216439   2.791   1.141   0.797
 5478TIP3    H116440   2.714   1.090   0.823
 5478TIP3    H216441   2.849   1.136   0.873
 5479TIP3   OH216442   4.349   5.849   4.866
 5479TIP3    H116443   4.410   5.892   4.927
 5479TIP3    H216444   4.302   5.922   4.825
 5480TIP3   OH216445   4.770   3.910   4.480
 5480TIP3    H116446   4.843   3.899   4.418
 5480TIP3    H216447   4.715   3.978   4.441
 5481TIP3   OH216448   2.816   3.345   4.268
 5481TIP3    H116449   2.906   3.347   4.237
 5481TIP3    H216450   2.766   3.388   4.198
 5482TIP3   OH216451   0.723   3.861   2.726
 5482TIP3    H116452   0.786   3.907   2.670
 5482TIP3    H216453   0.702   3.924   2.795
 5483TIP3   OH216454   5.113   4.692   0.043
 5483TIP3    H116455   5.100   4.669   0.135
 5483TIP3    H216456   5.176   4.764   0.045
 5484TIP3   OH216457   3.222   3.578   2.637
 5484TIP3    H116458   3.291   3.552   2.697
 5484TIP3    H216459   3.191   3.496   2.599
 5485TIP3   OH216460   4.868   5.035   1.239
 5485TIP3    H116461   4.906   5.121   1.255
 5485TIP3    H216462   4.809   5.021   1.313
 5486TIP3   OH216463   5.449   1.256   3.885
 5486TIP3    H116464   5.386   1.279   3.953
 5486TIP3    H216465   5.416   1.298   3.806
 5487TIP3   OH216466   1.174   3.677   3.072
 5487TIP3    H116467   1.104   3.643   3.016
 5487TIP3    H216468   1.231   3.602   3.088
 5488TIP3   OH216469   5.692   1.986   5.084
 5488TIP3    H116470   5.748   2.006   5.009
 5488TIP3    H216471   5.618   1.937   5.047
 5489TIP3   OH216472   4.507   2.479   3.796
 5489TIP3    H116473   4.499   2.483   3.891
 5489TIP3    H216474   4.472   2.393   3.772
 5490TIP3   OH216475   4.243   5.953   2.493
 5490TIP3    H116476   4.215   5.945   2.584
 5490TIP3    H216477   4.163   5.939   2.442
 5491TIP3   OH216478   2.826   4.445   0.439
 5491TIP3    H116479   2.736   4.415   0.424
 5491TIP3    H216480   2.828   4.467   0.532
 5492TIP3   OH216481   4.930   5.223   0.224
 5492TIP3    H116482   4.966   5.286   0.286
 5492TIP3    H216483   5.002   5.205   0.163
 5493TIP3   OH216484   3.141   0.256   4.023
 5493TIP3    H116485   3.215   0.309   4.053
 5493TIP3    H216486   3.070   0.279   4.083
 5494TIP3   OH216487   2.252   5.072   4.393
 5494TIP3    H116488   2.272   4.979   4.380
 5494TIP3    H216489   2.336   5.111   4.415
 5495TIP3   OH216490   2.531   1.854   0.247
 5495TIP3    H116491   2.575   1.808   0.175
 5495TIP3    H216492   2.600   1.871   0.311
 5496TIP3   OH216493   4.434   3.629   4.455
 5496TIP3    H116494   4.363   3.660   4.511
 5496TIP3    H216495   4.423   3.677   4.373
 5497TIP3   OH216496   0.783   5.568   1.792
 5497TIP3    H116497   0.832   5.534   1.867
 5497TIP3    H216498   0.784   5.497   1.728
 5498TIP3   OH216499   6.190   5.445   0.988
 5498TIP3    H116500   6.119   5.502   0.960
 5498TIP3    H216501   6.265   5.473   0.935
 5499TIP3   OH216502   0.543   4.370   3.561
 5499TIP3    H116503   0.556   4.343   3.470
 5499TIP3    H216504   0.613   4.327   3.609
 5500TIP3   OH216505   1.911   1.559   1.217
 5500TIP3    H116506   1.854   1.540   1.142
 5500TIP3    H216507   1.985   1.499   1.206
 5501TIP3   OH216508   2.648   1.034   2.046
 5501TIP3    H116509   2.588   0.961   2.030
 5501TIP3    H216510   2.607   1.082   2.119
 5502TIP3   OH216511   4.841   2.175   2.902
 5502TIP3    H116512   4.870   2.218   2.983
 5502TIP3    H216513   4.882   2.089   2.905
 5503TIP3   OH216514   1.841   5.905   4.026
 5503TIP3    H116515   1.805   5.816   4.029
 5503TIP3    H216516   1.765   5.962   4.033
 5504TIP3   OH216517   6.282   3.055   3.592
 5504TIP3    H116518   6.240   3.099   3.666
 5504TIP3    H216519   6.301   2.967   3.625
 5505TIP3   OH216520   2.706   5.087   3.747
 5505TIP3    H116521   2.646   5.096   3.673
 5505TIP3    H216522   2.785   5.048   3.710
 5506TIP3   OH216523   4.444   2.862   0.305
 5506TIP3    H116524   4.377   2.920   0.268
 5506TIP3    H216525   4.513   2.921   0.335
 5507TIP3   OH216526   5.333   5.625   3.385
 5507TIP3    H116527   5.326   5.666   3.298
 5507TIP3    H216528   5.297   5.537   3.373
 5508TIP3   OH216529   2.136   1.738   1.091
 5508TIP3    H116530   2.041   1.727   1.084
 5508TIP3    H216531   2.165   1.745   1.000
 5509TIP3   OH216532   4.628   0.072   3.379
 5509TIP3    H116533   4.583  -0.010   3.401
 5509TIP3    H216534   4.719   0.045   3.363
 5510TIP3   OH216535   4.652   2.530   3.251
 5510TIP3    H116536   4.640   2.625   3.256
 5510TIP3    H216537   4.604   2.497   3.327
 5511TIP3   OH216538   1.284   0.061   4.518
 5511TIP3    H116539   1.263   0.134   4.461
 5511TIP3    H216540   1.333   0.100   4.591
 5512TIP3   OH216541   1.028   5.846   0.582
 5512TIP3    H116542   1.100   5.876   0.527
 5512TIP3    H216543   0.962   5.916   0.576
 5513TIP3   OH216544   2.225   3.263   1.167
 5513TIP3    H116545   2.271   3.250   1.250
 5513TIP3    H216546   2.212   3.174   1.134
 5514TIP3   OH216547   3.460   2.482   2.988
 5514TIP3    H116548   3.507   2.531   2.920
 5514TIP3    H216549   3.368   2.488   2.962
 5515TIP3   OH216550   0.919   1.191   3.996
 5515TIP3    H116551   0.983   1.228   3.934
 5515TIP3    H216552   0.952   1.103   4.013
 5516TIP3   OH216553   3.556   1.194   4.716
 5516TIP3    H116554   3.470   1.232   4.735
 5516TIP3    H216555   3.537   1.102   4.696
 5517TIP3   OH216556   0.635   1.507   1.848
 5517TIP3    H116557   0.601   1.435   1.794
 5517TIP3    H216558   0.655   1.576   1.786
 5518TIP3   OH216559   4.635   2.966   0.846
 5518TIP3    H116560   4.584   3.048   0.845
 5518TIP3    H216561   4.579   2.903   0.801
 5519TIP3   OH216562   0.633   1.084   2.415
 5519TIP3    H116563   0.644   1.149   2.346
 5519TIP3    H216564   0.564   1.026   2.383
 5520TIP3   OH216565   3.697   3.089   3.946
 5520TIP3    H116566   3.610   3.097   3.986
 5520TIP3    H216567   3.755   3.138   4.005
 5521TIP3   OH216568   0.360   0.980   4.368
 5521TIP3    H116569   0.283   1.023   4.331
 5521TIP3    H216570   0.416   1.053   4.396
 5522TIP3   OH216571   4.752   0.695  -0.023
 5522TIP3    H116572   4.833   0.649   0.001
 5522TIP3    H216573   4.692   0.675   0.048
 5523TIP3   OH216574   4.348   0.312   3.610
 5523TIP3    H116575   4.270   0.339   3.562
 5523TIP3    H216576   4.420   0.357   3.568
 5524TIP3   OH216577   1.740   3.032   3.881
 5524TIP3    H116578   1.668   3.024   3.819
 5524TIP3    H216579   1.725   2.963   3.946
 5525TIP3   OH216580   2.903   2.177   1.284
 5525TIP3    H116581   2.819   2.133   1.297
 5525TIP3    H216582   2.961   2.139   1.350
 5526TIP3   OH216583   0.264   1.512   2.195
 5526TIP3    H116584   0.293   1.603   2.206
 5526TIP3    H216585   0.170   1.515   2.209
 5527TIP3   OH216586   4.171   4.490   0.422
 5527TIP3    H116587   4.163   4.584   0.407
 5527TIP3    H216588   4.123   4.450   0.350
 5528TIP3   OH216589   2.823   2.685   2.064
 5528TIP3    H116590   2.914   2.715   2.062
 5528TIP3    H216591   2.787   2.724   2.143
 5529TIP3   OH216592   4.956   0.812   4.804
 5529TIP3    H116593   4.949   0.849   4.716
 5529TIP3    H216594   4.980   0.886   4.860
 5530TIP3   OH216595   2.942   1.006   4.630
 5530TIP3    H116596   3.005   1.078   4.637
 5530TIP3    H216597   2.952   0.975   4.540
 5531TIP3   OH216598   3.415   3.423   2.773
 5531TIP3    H116599   3.478   3.351   2.765
 5531TIP3    H216600   3.332   3.380   2.791
 5532TIP3   OH216601   5.658   4.987   4.303
 5532TIP3    H116602   5.658   5.076   4.338
 5532TIP3    H216603   5.722   4.940   4.356
 5533TIP3   OH216604   5.380   1.357   1.823
 5533TIP3    H116605   5.396   1.452   1.820
 5533TIP3    H216606   5.390   1.329   1.732
 5534TIP3   OH216607   5.639   4.262   4.897
 5534TIP3    H116608   5.665   4.268   4.988
 5534TIP3    H216609   5.603   4.174   4.888
 5535TIP3   OH216610   3.656   1.538   1.671
 5535TIP3    H116611   3.621   1.502   1.590
 5535TIP3    H216612   3.727   1.478   1.696
 5536TIP3   OH216613   2.717   1.239   3.950
 5536TIP3    H116614   2.739   1.225   4.042
 5536TIP3    H216615   2.636   1.288   3.951
 5537TIP3   OH216616   4.383   4.194   3.495
 5537TIP3    H116617   4.311   4.131   3.490
 5537TIP3    H216618   4.391   4.227   3.405
 5538TIP3   OH216619   3.928   5.773   0.889
 5538TIP3    H116620   3.951   5.804   0.976
 5538TIP3    H216621   3.833   5.784   0.883
 5539TIP3   OH216622   4.239   0.166   1.898
 5539TIP3    H116623   4.187   0.088   1.879
 5539TIP3    H216624   4.325   0.148   1.859
 5540TIP3   OH216625   1.872   4.509   1.161
 5540TIP3    H116626   1.866   4.456   1.241
 5540TIP3    H216627   1.938   4.575   1.182
 5541TIP3   OH216628   4.480   1.134   1.326
 5541TIP3    H116629   4.423   1.186   1.270
 5541TIP3    H216630   4.426   1.059   1.353
 5542TIP3   OH216631   3.041   5.520   4.802
 5542TIP3    H116632   3.028   5.439   4.753
 5542TIP3    H216633   3.123   5.507   4.850
 5543TIP3   OH216634   4.419   0.906   0.601
 5543TIP3    H116635   4.329   0.877   0.592
 5543TIP3    H216636   4.472   0.826   0.596
 5544TIP3   OH216637   0.086   4.287   2.952
 5544TIP3    H116638   0.172   4.305   2.915
 5544TIP3    H216639   0.101   4.220   3.019
 5545TIP3   OH216640   5.071   5.761   1.505
 5545TIP3    H116641   5.090   5.815   1.583
 5545TIP3    H216642   5.008   5.813   1.455
 5546TIP3   OH216643   5.145   3.656   4.491
 5546TIP3    H116644   5.148   3.656   4.586
 5546TIP3    H216645   5.097   3.577   4.468
 5547TIP3   OH216646   4.226   4.173   4.109
 5547TIP3    H116647   4.266   4.087   4.122
 5547TIP3    H216648   4.202   4.203   4.197
 5548TIP3   OH216649   4.262   5.373   4.743
 5548TIP3    H116650   4.189   5.382   4.805
 5548TIP3    H216651   4.321   5.445   4.764
 5549TIP3   OH216652   1.482   1.547   0.036
 5549TIP3    H116653   1.389   1.522   0.041
 5549TIP3    H216654   1.519   1.518   0.119
 5550TIP3   OH216655   1.212   5.303   3.149
 5550TIP3    H116656   1.177   5.297   3.060
 5550TIP3    H216657   1.247   5.215   3.167
 5551TIP3   OH216658   1.101   3.984   0.157
 5551TIP3    H116659   1.006   3.984   0.150
 5551TIP3    H216660   1.128   4.062   0.108
 5552TIP3   OH216661   1.486   1.657   3.309
 5552TIP3    H116662   1.576   1.666   3.276
 5552TIP3    H216663   1.497   1.627   3.400
 5553TIP3   OH216664   3.320   5.621   0.570
 5553TIP3    H116665   3.265   5.656   0.499
 5553TIP3    H216666   3.400   5.594   0.526
 5554TIP3   OH216667   5.059   2.314   0.549
 5554TIP3    H116668   4.983   2.279   0.502
 5554TIP3    H216669   5.059   2.408   0.529
 5555TIP3   OH216670   5.656   2.780   4.977
 5555TIP3    H116671   5.602   2.728   4.918
 5555TIP3    H216672   5.730   2.808   4.924
 5556TIP3   OH216673   1.564   1.147   0.399
 5556TIP3    H116674   1.633   1.155   0.333
 5556TIP3    H216675   1.545   1.237   0.425
 5557TIP3   OH216676   6.284   4.589   1.325
 5557TIP3    H116677   6.222   4.656   1.354
 5557TIP3    H216678   6.323   4.625   1.246
 5558TIP3   OH216679   5.732   5.086   2.479
 5558TIP3    H116680   5.672   5.067   2.551
 5558TIP3    H216681   5.703   5.171   2.445
 5559TIP3   OH216682   5.652   3.404   2.391
 5559TIP3    H116683   5.610   3.402   2.477
 5559TIP3    H216684   5.618   3.483   2.349
 5560TIP3   OH216685   3.743   0.265   3.562
 5560TIP3    H116686   3.660   0.293   3.601
 5560TIP3    H216687   3.719   0.190   3.508
 5561TIP3   OH216688   1.265   1.121   2.778
 5561TIP3    H116689   1.188   1.098   2.726
 5561TIP3    H216690   1.229   1.158   2.859
 5562TIP3   OH216691   2.600   4.668   4.587
 5562TIP3    H116692   2.568   4.758   4.582
 5562TIP3    H216693   2.671   4.671   4.650
 5563TIP3   OH216694   5.834   4.156   4.646
 5563TIP3    H116695   5.924   4.187   4.641
 5563TIP3    H216696   5.833   4.095   4.719
 5564TIP3   OH216697   1.836   5.950   5.151
 5564TIP3    H116698   1.806   5.871   5.104
 5564TIP3    H216699   1.908   5.919   5.206
 5565TIP3   OH216700   4.372   2.297   5.035
 5565TIP3    H116701   4.403   2.359   4.969
 5565TIP3    H216702   4.319   2.349   5.095
 5566TIP3   OH216703   6.147   2.708   2.840
 5566TIP3    H116704   6.162   2.773   2.908
 5566TIP3    H216705   6.185   2.627   2.875
 5567TIP3   OH216706   5.180   4.024   2.187
 5567TIP3    H116707   5.094   4.019   2.229
 5567TIP3    H216708   5.189   3.941   2.141
 5568TIP3   OH216709   0.789   2.748   1.420
 5568TIP3    H116710   0.780   2.654   1.404
 5568TIP3    H216711   0.870   2.772   1.375
 5569TIP3   OH216712   2.251   1.465   4.234
 5569TIP3    H116713   2.340   1.454   4.266
 5569TIP3    H216714   2.215   1.536   4.287
 5570TIP3   OH216715   3.539   3.438   1.707
 5570TIP3    H116716   3.468   3.453   1.645
 5570TIP3    H216717   3.528   3.346   1.734
 5571TIP3   OH216718   3.087   2.717   4.127
 5571TIP3    H116719   3.014   2.667   4.091
 5571TIP3    H216720   3.121   2.662   4.198
 5572TIP3   OH216721   3.824   1.764   1.788
 5572TIP3    H116722   3.751   1.724   1.741
 5572TIP3    H216723   3.796   1.768   1.879
 5573TIP3   OH216724   5.285   3.066   0.517
 5573TIP3    H116725   5.253   2.987   0.474
 5573TIP3    H216726   5.371   3.043   0.551
 5574TIP3   OH216727   2.615   2.382   1.425
 5574TIP3    H116728   2.634   2.288   1.425
 5574TIP3    H216729   2.556   2.395   1.499
 5575TIP3   OH216730   2.835   2.427   0.099
 5575TIP3    H116731   2.828   2.374   0.020
 5575TIP3    H216732   2.807   2.368   0.170
 5576TIP3   OH216733   3.115   4.964   0.189
 5576TIP3    H116734   3.035   5.007   0.217
 5576TIP3    H216735   3.123   4.887   0.246
 5577TIP3   OH216736   0.428   4.866   3.514
 5577TIP3    H116737   0.469   4.926   3.452
 5577TIP3    H216738   0.495   4.849   3.579
 5578TIP3   OH216739   2.211   0.243   4.480
 5578TIP3    H116740   2.217   0.169   4.418
 5578TIP3    H216741   2.117   0.261   4.485
 5579TIP3   OH216742   4.151   0.488   2.894
 5579TIP3    H116743   4.227   0.445   2.854
 5579TIP3    H216744   4.107   0.418   2.943
 5580TIP3   OH216745   4.064   5.919   2.121
 5580TIP3    H116746   4.010   5.948   2.049
 5580TIP3    H216747   4.107   5.840   2.089
 5581TIP3   OH216748   4.972   3.188   3.284
 5581TIP3    H116749   5.063   3.187   3.312
 5581TIP3    H216750   4.922   3.205   3.364
 5582TIP3   OH216751   2.940   1.873   0.685
 5582TIP3    H116752   2.856   1.833   0.710
 5582TIP3    H216753   2.919   1.964   0.664
 5583TIP3   OH216754   3.667   4.097   3.378
 5583TIP3    H116755   3.741   4.048   3.413
 5583TIP3    H216756   3.659   4.173   3.436
 5584TIP3   OH216757   4.369   1.166   0.515
 5584TIP3    H116758   4.417   1.179   0.433
 5584TIP3    H216759   4.375   1.072   0.532
 5585TIP3   OH216760   0.703   4.449   1.631
 5585TIP3    H116761   0.771   4.510   1.602
 5585TIP3    H216762   0.723   4.433   1.723
 5586TIP3   OH216763   0.598   2.178   2.513
 5586TIP3    H116764   0.602   2.198   2.420
 5586TIP3    H216765   0.688   2.160   2.538
 5587TIP3   OH216766   5.483   0.350   0.251
 5587TIP3    H116767   5.445   0.340   0.163
 5587TIP3    H216768   5.543   0.425   0.242
 5588TIP3   OH216769   0.569   2.114   0.699
 5588TIP3    H116770   0.482   2.146   0.723
 5588TIP3    H216771   0.628   2.157   0.762
 5589TIP3   OH216772   6.311   1.788   1.381
 5589TIP3    H116773   6.325   1.742   1.298
 5589TIP3    H216774   6.219   1.814   1.380
 5590TIP3   OH216775   5.122   1.148   3.668
 5590TIP3    H116776   5.193   1.196   3.709
 5590TIP3    H216777   5.138   1.056   3.691
 5591TIP3   OH216778   4.876   1.790   4.656
 5591TIP3    H116779   4.816   1.764   4.726
 5591TIP3    H216780   4.963   1.771   4.691
 5592TIP3   OH216781   3.068   2.921   0.721
 5592TIP3    H116782   3.136   2.967   0.770
 5592TIP3    H216783   2.992   2.920   0.779
 5593TIP3   OH216784   3.011   3.597   5.079
 5593TIP3    H116785   3.097   3.561   5.057
 5593TIP3    H216786   2.993   3.661   5.010
 5594TIP3   OH216787   0.833   5.410   0.899
 5594TIP3    H116788   0.798   5.434   0.985
 5594TIP3    H216789   0.755   5.405   0.843
 5595TIP3   OH216790   2.023   1.399   3.611
 5595TIP3    H116791   2.034   1.343   3.688
 5595TIP3    H216792   2.110   1.438   3.598
 5596TIP3   OH216793   5.046   4.752   5.166
 5596TIP3    H116794   5.094   4.828   5.201
 5596TIP3    H216795   5.109   4.681   5.167
 5597TIP3   OH216796   3.337   4.369   1.101
 5597TIP3    H116797   3.324   4.455   1.141
 5597TIP3    H216798   3.390   4.387   1.023
 5598TIP3   OH216799   0.412   0.815   1.796
 5598TIP3    H116800   0.366   0.867   1.731
 5598TIP3    H216801   0.505   0.830   1.779
 5599TIP3   OH216802   1.943   1.747   4.609
 5599TIP3    H116803   1.861   1.767   4.655
 5599TIP3    H216804   1.953   1.818   4.546
 5600TIP3   OH216805   0.566   1.263   1.165
 5600TIP3    H116806   0.596   1.209   1.092
 5600TIP3    H216807   0.614   1.230   1.241
 5601TIP3   OH216808   3.219   1.541   2.544
 5601TIP3    H116809   3.159   1.476   2.579
 5601TIP3    H216810   3.298   1.492   2.521
 5602TIP3   OH216811   4.405   1.934   4.269
 5602TIP3    H116812   4.475   1.880   4.305
 5602TIP3    H216813   4.377   1.889   4.190
 5603TIP3   OH216814   6.174   3.464   0.193
 5603TIP3    H116815   6.115   3.389   0.206
 5603TIP3    H216816   6.127   3.538   0.230
 5604TIP3   OH216817   3.805   5.939   3.387
 5604TIP3    H116818   3.880   5.973   3.339
 5604TIP3    H216819   3.789   6.004   3.456
 5605TIP3   OH216820   3.572   4.775   1.636
 5605TIP3    H116821   3.618   4.833   1.575
 5605TIP3    H216822   3.631   4.701   1.649
 5606TIP3   OH216823   0.939   4.311   0.248
 5606TIP3    H116824   0.941   4.397   0.205
 5606TIP3    H216825   0.881   4.323   0.323
 5607TIP3   OH216826   0.360   3.252   1.487
 5607TIP3    H116827   0.292   3.294   1.540
 5607TIP3    H216828   0.315   3.178   1.445
 5608TIP3   OH216829   0.775   0.021   2.042
 5608TIP3    H116830   0.704   0.005   1.980
 5608TIP3    H216831   0.756   0.108   2.078
 5609TIP3   OH216832   3.208   1.659   1.344
 5609TIP3    H116833   3.274   1.699   1.287
 5609TIP3    H216834   3.258   1.627   1.420
 5610TIP3   OH216835   4.843   1.553   4.408
 5610TIP3    H116836   4.839   1.558   4.503
 5610TIP3    H216837   4.777   1.615   4.377
 5611TIP3   OH216838   2.521   2.688   2.954
 5611TIP3    H116839   2.515   2.706   2.860
 5611TIP3    H216840   2.433   2.658   2.978
 5612TIP3   OH216841   1.674   4.009   4.179
 5612TIP3    H116842   1.651   3.919   4.202
 5612TIP3    H216843   1.626   4.026   4.098
 5613TIP3   OH216844   2.453   0.521   3.282
 5613TIP3    H116845   2.382   0.490   3.338
 5613TIP3    H216846   2.446   0.617   3.287
 5614TIP3   OH216847   6.213   3.024   0.968
 5614TIP3    H116848   6.123   3.055   0.963
 5614TIP3    H216849   6.241   3.018   0.877
 5615TIP3   OH216850   5.352   5.931   2.781
 5615TIP3    H116851   5.262   5.899   2.785
 5615TIP3    H216852   5.397   5.882   2.850
 5616TIP3   OH216853   3.424   1.219   0.088
 5616TIP3    H116854   3.452   1.206   0.179
 5616TIP3    H216855   3.476   1.157   0.038
 5617TIP3   OH216856   3.459   4.420   1.716
 5617TIP3    H116857   3.374   4.377   1.714
 5617TIP3    H216858   3.461   4.472   1.636
 5618TIP3   OH216859   1.969   2.530   4.871
 5618TIP3    H116860   1.977   2.493   4.959
 5618TIP3    H216861   1.894   2.589   4.877
 5619TIP3   OH216862   3.436   1.386   2.468
 5619TIP3    H116863   3.503   1.419   2.408
 5619TIP3    H216864   3.422   1.296   2.441
 5620TIP3   OH216865   2.928   5.050   3.576
 5620TIP3    H116866   2.847   5.047   3.526
 5620TIP3    H216867   2.982   5.114   3.531
 5621TIP3   OH216868   1.799   0.673   4.423
 5621TIP3    H116869   1.887   0.670   4.388
 5621TIP3    H216870   1.763   0.756   4.392
 5622TIP3   OH216871   3.829   3.219   4.138
 5622TIP3    H116872   3.745   3.242   4.178
 5622TIP3    H216873   3.860   3.144   4.189
 5623TIP3   OH216874   1.833   4.084   3.398
 5623TIP3    H116875   1.898   4.061   3.464
 5623TIP3    H216876   1.849   4.023   3.326
 5624TIP3   OH216877   0.286   5.300   4.772
 5624TIP3    H116878   0.207   5.310   4.824
 5624TIP3    H216879   0.255   5.281   4.683
 5625TIP3   OH216880   2.528   0.001   3.424
 5625TIP3    H116881   2.518   0.082   3.475
 5625TIP3    H216882   2.439  -0.033   3.418
 5626TIP3   OH216883   4.384   3.477   4.042
 5626TIP3    H116884   4.402   3.388   4.072
 5626TIP3    H216885   4.429   3.483   3.958
 5627TIP3   OH216886   4.456   3.169   3.408
 5627TIP3    H116887   4.529   3.110   3.428
 5627TIP3    H216888   4.378   3.113   3.412
 5628TIP3   OH216889   4.969   1.285   1.139
 5628TIP3    H116890   4.913   1.262   1.213
 5628TIP3    H216891   4.909   1.296   1.065
 5629TIP3   OH216892   5.186   3.462   4.937
 5629TIP3    H116893   5.270   3.459   4.982
 5629TIP3    H216894   5.154   3.372   4.940
 5630TIP3   OH216895   1.951   2.978   2.048
 5630TIP3    H116896   1.861   2.948   2.039
 5630TIP3    H216897   1.991   2.916   2.110
 5631TIP3   OH216898   2.016   1.864   3.819
 5631TIP3    H116899   2.089   1.922   3.799
 5631TIP3    H216900   1.938   1.919   3.807
 5632TIP3   OH216901   5.580   4.261   0.815
 5632TIP3    H116902   5.675   4.254   0.824
 5632TIP3    H216903   5.564   4.353   0.795
 5633TIP3   OH216904   0.774   4.143   0.821
 5633TIP3    H116905   0.715   4.109   0.754
 5633TIP3    H216906   0.860   4.147   0.779
 5634TIP3   OH216907   1.596   0.556   2.666
 5634TIP3    H116908   1.631   0.473   2.699
 5634TIP3    H216909   1.543   0.530   2.590
 5635TIP3   OH216910   1.044   3.465   4.410
 5635TIP3    H116911   1.049   3.552   4.370
 5635TIP3    H216912   1.120   3.459   4.467
 5636TIP3   OH216913   4.763   1.319   0.062
 5636TIP3    H116914   4.850   1.335   0.098
 5636TIP3    H216915   4.706   1.309   0.139
 5637TIP3   OH216916   4.791   4.783   1.999
 5637TIP3    H116917   4.800   4.877   2.011
 5637TIP3    H216918   4.745   4.774   1.915
 5638TIP3   OH216919   2.327   3.419   2.207
 5638TIP3    H116920   2.234   3.428   2.186
 5638TIP3    H216921   2.335   3.331   2.243
 5639TIP3   OH216922   3.543   1.458   2.011
 5639TIP3    H116923   3.628   1.447   1.968
 5639TIP3    H216924   3.491   1.384   1.981
 5640TIP3   OH216925   6.196   4.632   2.654
 5640TIP3    H116926   6.253   4.573   2.703
 5640TIP3    H216927   6.174   4.584   2.575
 5641TIP3   OH216928   3.736   1.575   4.437
 5641TIP3    H116929   3.651   1.581   4.392
 5641TIP3    H216930   3.798   1.617   4.377
 5642TIP3   OH216931   5.720   2.943   1.588
 5642TIP3    H116932   5.644   2.928   1.533
 5642TIP3    H216933   5.788   2.887   1.551
 5643TIP3   OH216934   2.620   2.951   3.313
 5643TIP3    H116935   2.557   2.932   3.243
 5643TIP3    H216936   2.577   3.020   3.365
 5644TIP3   OH216937   3.863   1.174   3.909
 5644TIP3    H116938   3.790   1.205   3.962
 5644TIP3    H216939   3.838   1.195   3.819
 5645TIP3   OH216940   4.081   5.114   2.797
 5645TIP3    H116941   4.035   5.093   2.716
 5645TIP3    H216942   4.136   5.037   2.813
 5646TIP3   OH216943   4.713   4.628   0.720
 5646TIP3    H116944   4.685   4.537   0.710
 5646TIP3    H216945   4.702   4.647   0.813
 5647TIP3   OH216946   0.072   0.312   2.920
 5647TIP3    H116947   0.152   0.328   2.871
 5647TIP3    H216948   0.014   0.385   2.898
 5648TIP3   OH216949   0.829   1.547   5.152
 5648TIP3    H116950   0.867   1.529   5.238
 5648TIP3    H216951   0.858   1.475   5.097
 5649TIP3   OH216952   6.116   1.390   3.288
 5649TIP3    H116953   6.105   1.374   3.381
 5649TIP3    H216954   6.192   1.448   3.283
 5650TIP3   OH216955   5.075   3.680   1.813
 5650TIP3    H116956   5.104   3.641   1.731
 5650TIP3    H216957   4.992   3.636   1.833
 5651TIP3   OH216958   3.433   3.747   2.078
 5651TIP3    H116959   3.431   3.681   2.009
 5651TIP3    H216960   3.342   3.752   2.109
 5652TIP3   OH216961   0.397   3.218   3.912
 5652TIP3    H116962   0.440   3.248   3.992
 5652TIP3    H216963   0.306   3.202   3.937
 5653TIP3   OH216964   1.345   5.768   2.276
 5653TIP3    H116965   1.304   5.682   2.280
 5653TIP3    H216966   1.376   5.776   2.186
 5654TIP3   OH216967   1.217   4.321   4.040
 5654TIP3    H116968   1.300   4.319   4.086
 5654TIP3    H216969   1.176   4.237   4.061
 5655TIP3   OH216970   4.356   0.745   1.589
 5655TIP3    H116971   4.328   0.807   1.521
 5655TIP3    H216972   4.277   0.693   1.608
 5656TIP3   OH216973   4.154   4.608   2.390
 5656TIP3    H116974   4.184   4.561   2.467
 5656TIP3    H216975   4.058   4.605   2.396
 5657TIP3   OH216976   0.797   4.955   4.966
 5657TIP3    H116977   0.878   4.972   5.013
 5657TIP3    H216978   0.755   4.884   5.014
 5658TIP3   OH216979   4.973   1.476   1.991
 5658TIP3    H116980   4.953   1.537   1.921
 5658TIP3    H216981   5.064   1.492   2.013
 5659TIP3   OH216982   4.695   5.022   1.464
 5659TIP3    H116983   4.652   5.104   1.487
 5659TIP3    H216984   4.625   4.957   1.464
 5660TIP3   OH216985   4.529   3.593   3.540
 5660TIP3    H116986   4.612   3.618   3.581
 5660TIP3    H216987   4.498   3.673   3.498
 5661TIP3   OH216988   1.375   5.103   4.540
 5661TIP3    H116989   1.357   5.193   4.567
 5661TIP3    H216990   1.313   5.086   4.469
 5662TIP3   OH216991   4.602   3.029   1.340
 5662TIP3    H116992   4.638   2.958   1.286
 5662TIP3    H216993   4.568   3.092   1.277
 5663TIP3   OH216994   1.257   4.501   3.243
 5663TIP3    H116995   1.246   4.438   3.172
 5663TIP3    H216996   1.187   4.564   3.231
 5664TIP3   OH216997   4.450   3.936   0.090
 5664TIP3    H116998   4.437   4.024   0.125
 5664TIP3    H216999   4.419   3.941   0.000
 5665TIP3   OH217000   0.694   4.317   3.020
 5665TIP3    H117001   0.623   4.375   2.993
 5665TIP3    H217002   0.754   4.373   3.070
 5666TIP3   OH217003   3.247   1.017   4.403
 5666TIP3    H117004   3.220   1.076   4.474
 5666TIP3    H217005   3.167   1.004   4.351
 5667TIP3   OH217006   6.258   3.894   3.507
 5667TIP3    H117007   6.172   3.852   3.519
 5667TIP3    H217008   6.294   3.901   3.595
 5668TIP3   OH217009   5.899   3.685   1.351
 5668TIP3    H117010   5.832   3.621   1.331
 5668TIP3    H217011   5.950   3.694   1.271
 5669TIP3   OH217012   2.156   5.278   3.550
 5669TIP3    H117013   2.153   5.253   3.642
 5669TIP3    H217014   2.096   5.352   3.543
 5670TIP3   OH217015   2.517   4.822   2.396
 5670TIP3    H117016   2.534   4.791   2.307
 5670TIP3    H217017   2.509   4.917   2.387
 5671TIP3   OH217018   0.223   3.870   0.473
 5671TIP3    H117019   0.260   3.795   0.426
 5671TIP3    H217020   0.136   3.881   0.437
 5672TIP3   OH217021   1.823   1.855   0.054
 5672TIP3    H117022   1.809   1.763   0.079
 5672TIP3    H217023   1.781   1.905   0.123
 5673TIP3   OH217024   6.175   2.661   4.115
 5673TIP3    H117025   6.216   2.740   4.079
 5673TIP3    H217026   6.237   2.630   4.180
 5674TIP3   OH217027   4.922   5.079   1.910
 5674TIP3    H117028   5.017   5.069   1.920
 5674TIP3    H217029   4.910   5.101   1.818
 5675TIP3   OH217030   1.111   5.076   4.791
 5675TIP3    H117031   1.140   5.097   4.880
 5675TIP3    H217032   1.124   5.156   4.742
 5676TIP3   OH217033   4.620   0.687   5.067
 5676TIP3    H117034   4.588   0.597   5.063
 5676TIP3    H217035   4.570   0.734   5.000
 5677TIP3   OH217036   3.142   3.745   2.169
 5677TIP3    H117037   3.180   3.716   2.252
 5677TIP3    H217038   3.104   3.666   2.131
 5678TIP3   OH217039   1.556   5.660   2.990
 5678TIP3    H117040   1.641   5.697   3.012
 5678TIP3    H217041   1.558   5.650   2.895
 5679TIP3   OH217042   3.179   5.269   4.781
 5679TIP3    H117043   3.229   5.251   4.702
 5679TIP3    H217044   3.120   5.194   4.791
 5680TIP3   OH217045   1.754   3.571   3.547
 5680TIP3    H117046   1.672   3.527   3.571
 5680TIP3    H217047   1.728   3.633   3.479
 5681TIP3   OH217048   6.171   2.845   3.818
 5681TIP3    H117049   6.122   2.827   3.739
 5681TIP3    H217050   6.144   2.933   3.845
 5682TIP3   OH217051   2.013   1.306   0.905
 5682TIP3    H117052   2.035   1.307   0.998
 5682TIP3    H217053   2.073   1.369   0.865
 5683TIP3   OH217054   0.408   2.084   1.954
 5683TIP3    H117055   0.486   2.035   1.929
 5683TIP3    H217056   0.434   2.134   2.031
 5684TIP3   OH217057   5.413   0.356   3.524
 5684TIP3    H117058   5.481   0.291   3.507
 5684TIP3    H217059   5.430   0.425   3.460
 5685TIP3   OH217060   3.454   0.812   0.319
 5685TIP3    H117061   3.528   0.765   0.280
 5685TIP3    H217062   3.410   0.747   0.373
 5686TIP3   OH217063   5.527   2.647   1.827
 5686TIP3    H117064   5.563   2.680   1.744
 5686TIP3    H217065   5.448   2.600   1.801
 5687TIP3   OH217066   4.045   4.355   0.842
 5687TIP3    H117067   4.110   4.412   0.884
 5687TIP3    H217068   4.071   4.353   0.750
 5688TIP3   OH217069   0.988   4.379   1.826
 5688TIP3    H117070   0.960   4.470   1.837
 5688TIP3    H217071   0.943   4.331   1.896
 5689TIP3   OH217072   2.571   2.436   1.874
 5689TIP3    H117073   2.525   2.450   1.791
 5689TIP3    H217074   2.526   2.492   1.937
 5690TIP3   OH217075   6.314   1.481   2.802
 5690TIP3    H117076   6.337   1.573   2.814
 5690TIP3    H217077   6.283   1.475   2.712
 5691TIP3   OH217078   3.338   3.305   4.392
 5691TIP3    H117079   3.406   3.306   4.324
 5691TIP3    H217080   3.260   3.340   4.348
 5692TIP3   OH217081   4.259   0.268   1.049
 5692TIP3    H117082   4.200   0.270   1.123
 5692TIP3    H217083   4.347   0.267   1.088
 5693TIP3   OH217084   2.876   5.326   0.446
 5693TIP3    H117085   2.847   5.353   0.534
 5693TIP3    H217086   2.868   5.406   0.393
 5694TIP3   OH217087   2.946   2.124   2.592
 5694TIP3    H117088   2.866   2.112   2.540
 5694TIP3    H217089   2.972   2.035   2.618
 5695TIP3   OH217090   3.410   0.103   2.084
 5695TIP3    H117091   3.416   0.137   2.173
 5695TIP3    H217092   3.318   0.081   2.073
 5696TIP3   OH217093   1.994   5.915   1.830
 5696TIP3    H117094   1.917   5.906   1.774
 5696TIP3    H217095   1.975   5.861   1.907
 5697TIP3   OH217096   4.949   4.896   2.665
 5697TIP3    H117097   4.993   4.966   2.618
 5697TIP3    H217098   4.936   4.827   2.600
 5698TIP3   OH217099   1.836   0.237   2.957
 5698TIP3    H117100   1.886   0.319   2.956
 5698TIP3    H217101   1.826   0.217   3.050
 5699TIP3   OH217102   1.074   2.642   2.725
 5699TIP3    H117103   1.071   2.547   2.723
 5699TIP3    H217104   0.982   2.669   2.730
 5700TIP3   OH217105   5.191   0.188   4.058
 5700TIP3    H117106   5.140   0.106   4.058
 5700TIP3    H217107   5.151   0.242   4.125
 5701TIP3   OH217108   3.118   1.678   0.707
 5701TIP3    H117109   3.029   1.709   0.688
 5701TIP3    H217110   3.115   1.584   0.688
 5702TIP3   OH217111   4.447   2.535   0.975
 5702TIP3    H117112   4.509   2.462   0.977
 5702TIP3    H217113   4.493   2.604   0.927
 5703TIP3   OH217114   5.306   5.939   3.708
 5703TIP3    H117115   5.301   6.015   3.765
 5703TIP3    H217116   5.304   5.975   3.619
 5704TIP3   OH217117   5.914   4.787   4.344
 5704TIP3    H117118   6.008   4.777   4.332
 5704TIP3    H217119   5.876   4.716   4.292
 5705TIP3   OH217120   4.452   4.345   3.271
 5705TIP3    H117121   4.530   4.351   3.326
 5705TIP3    H217122   4.486   4.325   3.184
 5706TIP3   OH217123   0.941   3.653   4.882
 5706TIP3    H117124   0.865   3.711   4.878
 5706TIP3    H217125   1.003   3.691   4.819
 5707TIP3   OH217126   4.306   0.653   2.039
 5707TIP3    H117127   4.228   0.708   2.048
 5707TIP3    H217128   4.273   0.572   2.000
 5708TIP3   OH217129   1.425   3.842   0.227
 5708TIP3    H117130   1.441   3.936   0.216
 5708TIP3    H217131   1.370   3.835   0.305
 5709TIP3   OH217132   2.382   1.237   1.210
 5709TIP3    H117133   2.378   1.178   1.134
 5709TIP3    H217134   2.437   1.309   1.180
 5710TIP3   OH217135   2.688   0.931   3.548
 5710TIP3    H117136   2.733   0.944   3.632
 5710TIP3    H217137   2.667   0.838   3.546
 5711TIP3   OH217138   3.430   4.140   3.079
 5711TIP3    H117139   3.525   4.146   3.084
 5711TIP3    H217140   3.402   4.119   3.169
 5712TIP3   OH217141   4.731   2.686   1.325
 5712TIP3    H117142   4.660   2.712   1.267
 5712TIP3    H217143   4.726   2.590   1.328
 5713TIP3   OH217144   3.652   4.096   0.023
 5713TIP3    H117145   3.716   4.119   0.090
 5713TIP3    H217146   3.704   4.068  -0.052
 5714TIP3   OH217147   4.670   5.576   4.752
 5714TIP3    H117148   4.713   5.650   4.797
 5714TIP3    H217149   4.728   5.556   4.679
 5715TIP3   OH217150   1.710   4.840   5.173
 5715TIP3    H117151   1.726   4.877   5.086
 5715TIP3    H217152   1.723   4.746   5.161
 5716TIP3   OH217153   2.327   1.738   4.702
 5716TIP3    H117154   2.251   1.750   4.645
 5716TIP3    H217155   2.365   1.826   4.710
 5717TIP3   OH217156   2.009   0.232   2.643
 5717TIP3    H117157   2.035   0.301   2.704
 5717TIP3    H217158   2.045   0.260   2.559
 5718TIP3   OH217159   1.001   3.740   3.818
 5718TIP3    H117160   1.008   3.832   3.844
 5718TIP3    H217161   0.922   3.737   3.763
 5719TIP3   OH217162   5.722   3.516   0.701
 5719TIP3    H117163   5.807   3.486   0.668
 5719TIP3    H217164   5.732   3.611   0.710
 5720TIP3   OH217165   2.338   1.319   4.657
 5720TIP3    H117166   2.372   1.241   4.612
 5720TIP3    H217167   2.412   1.350   4.709
 5721TIP3   OH217168   1.106   5.866   1.534
 5721TIP3    H117169   1.047   5.930   1.575
 5721TIP3    H217170   1.092   5.877   1.440
 5722TIP3   OH217171   0.057   5.823   0.634
 5722TIP3    H117172  -0.028   5.849   0.669
 5722TIP3    H217173   0.120   5.880   0.678
 5723TIP3   OH217174   4.182   0.406   1.967
 5723TIP3    H117175   4.226   0.326   1.939
 5723TIP3    H217176   4.095   0.400   1.928
 5724TIP3   OH217177   3.153   4.188   0.162
 5724TIP3    H117178   3.107   4.215   0.242
 5724TIP3    H217179   3.233   4.146   0.194
 5725TIP3   OH217180   5.838   2.142   4.705
 5725TIP3    H117181   5.845   2.219   4.650
 5725TIP3    H217182   5.853   2.175   4.794
 5726TIP3   OH217183   1.763   5.615   0.094
 5726TIP3    H117184   1.696   5.607   0.162
 5726TIP3    H217185   1.717   5.596   0.013
 5727TIP3   OH217186   5.245   3.424   2.517
 5727TIP3    H117187   5.178   3.390   2.577
 5727TIP3    H217188   5.293   3.346   2.489
 5728TIP3   OH217189   4.901   5.429   3.057
 5728TIP3    H117190   4.817   5.472   3.038
 5728TIP3    H217191   4.878   5.355   3.114
 5729TIP3   OH217192   1.098   1.614   1.340
 5729TIP3    H117193   1.015   1.660   1.325
 5729TIP3    H217194   1.082   1.561   1.418
 5730TIP3   OH217195   3.784   2.002   3.182
 5730TIP3    H117196   3.828   1.917   3.190
 5730TIP3    H217197   3.691   1.980   3.174
 5731TIP3   OH217198   3.865   3.602   4.161
 5731TIP3    H117199   3.911   3.528   4.120
 5731TIP3    H217200   3.843   3.660   4.088
 5732TIP3   OH217201   3.316   2.403   5.083
 5732TIP3    H117202   3.364   2.457   5.147
 5732TIP3    H217203   3.224   2.418   5.104
 5733TIP3   OH217204   1.365   0.412   3.484
 5733TIP3    H117205   1.348   0.319   3.500
 5733TIP3    H217206   1.315   0.432   3.405
 5734TIP3   OH217207   1.107   5.617   1.157
 5734TIP3    H117208   1.170   5.679   1.191
 5734TIP3    H217209   1.067   5.661   1.082
 5735TIP3   OH217210   3.803   4.754  -0.010
 5735TIP3    H117211   3.814   4.848   0.007
 5735TIP3    H217212   3.862   4.711   0.051
 5736TIP3   OH217213   1.898   0.012   0.476
 5736TIP3    H117214   1.912  -0.074   0.517
 5736TIP3    H217215   1.880   0.071   0.549
 5737TIP3   OH217216   2.787   4.508   2.367
 5737TIP3    H117217   2.869   4.520   2.416
 5737TIP3    H217218   2.778   4.414   2.359
 5738TIP3   OH217219   5.377   4.605   4.564
 5738TIP3    H117220   5.324   4.647   4.632
 5738TIP3    H217221   5.429   4.540   4.611
 5739TIP3   OH217222   5.447   2.829   2.301
 5739TIP3    H117223   5.540   2.824   2.279
 5739TIP3    H217224   5.436   2.916   2.340
 5740TIP3   OH217225   5.489   4.694   0.604
 5740TIP3    H117226   5.434   4.711   0.528
 5740TIP3    H217227   5.568   4.746   0.590
 5741TIP3   OH217228   2.891   4.409   3.477
 5741TIP3    H117229   2.851   4.453   3.552
 5741TIP3    H217230   2.848   4.324   3.472
 5742TIP3   OH217231   1.306   5.951   0.689
 5742TIP3    H117232   1.336   5.875   0.739
 5742TIP3    H217233   1.283   6.016   0.756
 5743TIP3   OH217234   3.071   4.903   3.938
 5743TIP3    H117235   3.157   4.929   3.907
 5743TIP3    H217236   3.079   4.809   3.955
 5744TIP3   OH217237   0.268   4.747   4.260
 5744TIP3    H117238   0.268   4.809   4.187
 5744TIP3    H217239   0.216   4.673   4.229
 5745TIP3   OH217240   0.523   3.926   1.973
 5745TIP3    H117241   0.581   3.936   2.048
 5745TIP3    H217242   0.531   4.008   1.925
 5746TIP3   OH217243   3.731   3.538   2.618
 5746TIP3    H117244   3.662   3.474   2.635
 5746TIP3    H217245   3.809   3.500   2.659
 5747TIP3   OH217246   3.890   4.075   1.083
 5747TIP3    H117247   3.799   4.071   1.053
 5747TIP3    H217248   3.907   3.989   1.121
 5748TIP3   OH217249   2.427   5.509   0.937
 5748TIP3    H117250   2.463   5.502   1.026
 5748TIP3    H217251   2.481   5.451   0.884
 5749TIP3   OH217252   2.302   1.445   1.411
 5749TIP3    H117253   2.311   1.367   1.356
 5749TIP3    H217254   2.209   1.447   1.434
 5750TIP3   OH217255   0.359   5.454   0.982
 5750TIP3    H117256   0.308   5.492   0.911
 5750TIP3    H217257   0.306   5.469   1.061
 5751TIP3   OH217258   0.120   3.052   1.107
 5751TIP3    H117259   0.092   3.140   1.131
 5751TIP3    H217260   0.053   3.022   1.044
 5752TIP3   OH217261   1.517   3.263   4.957
 5752TIP3    H117262   1.512   3.179   4.910
 5752TIP3    H217263   1.573   3.244   5.032
 5753TIP3   OH217264   0.299   2.446   3.216
 5753TIP3    H117265   0.380   2.417   3.259
 5753TIP3    H217266   0.321   2.531   3.179
 5754TIP3   OH217267   0.228   4.291   1.195
 5754TIP3    H117268   0.302   4.284   1.255
 5754TIP3    H217269   0.168   4.221   1.224
 5755TIP3   OH217270   4.571   2.712   0.642
 5755TIP3    H117271   4.587   2.798   0.604
 5755TIP3    H217272   4.486   2.685   0.606
 5756TIP3   OH217273   3.253   5.064   1.672
 5756TIP3    H117274   3.310   5.126   1.717
 5756TIP3    H217275   3.197   5.028   1.741
 5757TIP3   OH217276   2.182   3.860   1.665
 5757TIP3    H117277   2.116   3.894   1.725
 5757TIP3    H217278   2.265   3.893   1.699
 5758TIP3   OH217279   1.779   0.312   4.730
 5758TIP3    H117280   1.835   0.277   4.799
 5758TIP3    H217281   1.723   0.376   4.773
 5759TIP3   OH217282   3.731   5.721   5.037
 5759TIP3    H117283   3.725   5.625   5.040
 5759TIP3    H217284   3.644   5.751   5.066
 5760TIP3   OH217285   3.983   3.847   2.487
 5760TIP3    H117286   3.913   3.867   2.550
 5760TIP3    H217287   4.036   3.781   2.531
 5761TIP3   OH217288   5.917   4.626   2.464
 5761TIP3    H117289   5.864   4.575   2.525
 5761TIP3    H217290   5.874   4.614   2.379
 5762TIP3   OH217291   2.824   3.253   2.324
 5762TIP3    H117292   2.743   3.301   2.344
 5762TIP3    H217293   2.893   3.319   2.329
 5763TIP3   OH217294   2.198   0.500   3.796
 5763TIP3    H117295   2.264   0.454   3.847
 5763TIP3    H217296   2.129   0.435   3.782
 5764TIP3   OH217297   5.207   2.674   1.099
 5764TIP3    H117298   5.292   2.642   1.129
 5764TIP3    H217299   5.155   2.594   1.085
 5765TIP3   OH217300   3.822   3.188   3.497
 5765TIP3    H117301   3.826   3.115   3.559
 5765TIP3    H217302   3.908   3.230   3.503
 5766TIP3   OH217303   0.016   4.860   2.627
 5766TIP3    H117304   0.073   4.820   2.562
 5766TIP3    H217305  -0.040   4.789   2.658
 5767TIP3   OH217306   1.369   2.984   1.995
 5767TIP3    H117307   1.304   3.053   2.008
 5767TIP3    H217308   1.395   2.959   2.083
 5768TIP3   OH217309   2.397   5.452   5.027
 5768TIP3    H117310   2.489   5.430   5.009
 5768TIP3    H217311   2.376   5.402   5.106
 5769TIP3   OH217312   1.715   4.659   4.012
 5769TIP3    H117313   1.746   4.613   4.091
 5769TIP3    H217314   1.734   4.751   4.029
 5770TIP3   OH217315   2.887   4.963   2.234
 5770TIP3    H117316   2.893   5.010   2.317
 5770TIP3    H217317   2.793   4.946   2.224
 5771TIP3   OH217318   2.767   4.676   3.804
 5771TIP3    H117319   2.711   4.713   3.872
 5771TIP3    H217320   2.760   4.581   3.816
 5772TIP3   OH217321   2.788   2.807   1.829
 5772TIP3    H117322   2.811   2.734   1.771
 5772TIP3    H217323   2.777   2.767   1.915
 5773TIP3   OH217324   2.466   1.771   3.017
 5773TIP3    H117325   2.476   1.818   3.100
 5773TIP3    H217326   2.452   1.840   2.952
 5774TIP3   OH217327   5.256   0.879   3.332
 5774TIP3    H117328   5.285   0.969   3.349
 5774TIP3    H217329   5.161   0.886   3.323
 5775TIP3   OH217330   0.911   3.164   1.689
 5775TIP3    H117331   0.886   3.123   1.605
 5775TIP3    H217332   0.993   3.210   1.669
 5776TIP3   OH217333   2.628   3.313   2.706
 5776TIP3    H117334   2.637   3.341   2.797
 5776TIP3    H217335   2.706   3.260   2.690
 5777TIP3   OH217336   2.436   4.704   1.444
 5777TIP3    H117337   2.409   4.672   1.530
 5777TIP3    H217338   2.436   4.626   1.388
 5778TIP3   OH217339   4.721   4.949   4.347
 5778TIP3    H117340   4.660   4.890   4.393
 5778TIP3    H217341   4.704   4.932   4.254
 5779TIP3   OH217342   0.050   5.179   1.837
 5779TIP3    H117343   0.115   5.113   1.813
 5779TIP3    H217344   0.017   5.151   1.922
 5780TIP3   OH217345   4.736   2.596   0.920
 5780TIP3    H117346   4.685   2.660   0.872
 5780TIP3    H217347   4.796   2.560   0.855
 5781TIP3   OH217348   6.136   4.869   3.061
 5781TIP3    H117349   6.056   4.888   3.109
 5781TIP3    H217350   6.165   4.785   3.097
 5782TIP3   OH217351   4.672   2.838   3.260
 5782TIP3    H117352   4.761   2.873   3.262
 5782TIP3    H217353   4.629   2.874   3.337
 5783TIP3   OH217354   1.706   5.774   3.427
 5783TIP3    H117355   1.682   5.682   3.420
 5783TIP3    H217356   1.642   5.811   3.487
 5784TIP3   OH217357   3.192   1.336   0.354
 5784TIP3    H117358   3.178   1.427   0.328
 5784TIP3    H217359   3.271   1.337   0.408
 5785TIP3   OH217360   5.224   0.655   4.847
 5785TIP3    H117361   5.283   0.691   4.781
 5785TIP3    H217362   5.138   0.691   4.824
 5786TIP3   OH217363   4.278   5.347   3.101
 5786TIP3    H117364   4.258   5.321   3.191
 5786TIP3    H217365   4.225   5.426   3.087
 5787TIP3   OH217366   4.248   5.330   5.149
 5787TIP3    H117367   4.336   5.325   5.112
 5787TIP3    H217368   4.257   5.295   5.237
 5788TIP3   OH217369   6.254   5.451   1.613
 5788TIP3    H117370   6.307   5.484   1.686
 5788TIP3    H217371   6.189   5.520   1.598
 5789TIP3   OH217372   1.461   3.952   4.968
 5789TIP3    H117373   1.465   3.856   4.964
 5789TIP3    H217374   1.367   3.972   4.975
 5790TIP3   OH217375   1.231   3.451   0.266
 5790TIP3    H117376   1.175   3.374   0.255
 5790TIP3    H217377   1.279   3.458   0.184
 5791TIP3   OH217378   1.342   5.816   3.941
 5791TIP3    H117379   1.343   5.860   3.856
 5791TIP3    H217380   1.271   5.858   3.989
 5792TIP3   OH217381   5.057   1.511   4.717
 5792TIP3    H117382   5.117   1.448   4.678
 5792TIP3    H217383   4.971   1.471   4.707
 5793TIP3   OH217384   1.749   4.266   3.214
 5793TIP3    H117385   1.667   4.227   3.183
 5793TIP3    H217386   1.797   4.193   3.253
 5794TIP3   OH217387   1.976   5.831   1.425
 5794TIP3    H117388   1.907   5.777   1.385
 5794TIP3    H217389   1.960   5.919   1.392
 5795TIP3   OH217390   0.919   4.398   3.197
 5795TIP3    H117391   0.924   4.489   3.226
 5795TIP3    H217392   0.994   4.386   3.139
 5796TIP3   OH217393   2.610   2.278   2.309
 5796TIP3    H117394   2.672   2.333   2.260
 5796TIP3    H217395   2.528   2.326   2.306
 5797TIP3   OH217396   1.426   4.004   0.642
 5797TIP3    H117397   1.381   4.084   0.671
 5797TIP3    H217398   1.375   3.973   0.568
 5798TIP3   OH217399   5.635   1.628   0.699
 5798TIP3    H117400   5.721   1.661   0.723
 5798TIP3    H217401   5.610   1.680   0.622
 5799TIP3   OH217402   3.018   5.043   5.092
 5799TIP3    H117403   2.935   5.043   5.044
 5799TIP3    H217404   3.037   4.951   5.107
 5800TIP3   OH217405   2.579   0.503   0.423
 5800TIP3    H117406   2.487   0.516   0.448
 5800TIP3    H217407   2.615   0.591   0.416
 5801TIP3   OH217408   1.737   4.550   3.370
 5801TIP3    H117409   1.688   4.632   3.373
 5801TIP3    H217410   1.734   4.517   3.459
 5802TIP3   OH217411   5.054   2.746   3.740
 5802TIP3    H117412   4.985   2.812   3.752
 5802TIP3    H217413   5.083   2.759   3.650
 5803TIP3   OH217414   5.274   0.854   1.726
 5803TIP3    H117415   5.314   0.875   1.642
 5803TIP3    H217416   5.243   0.938   1.760
 5804TIP3   OH217417   5.773   4.061   3.151
 5804TIP3    H117418   5.722   4.068   3.231
 5804TIP3    H217419   5.812   4.147   3.139
 5805TIP3   OH217420   3.405   3.270   3.801
 5805TIP3    H117421   3.448   3.276   3.716
 5805TIP3    H217422   3.367   3.357   3.815
 5806TIP3   OH217423   1.205   1.260   2.477
 5806TIP3    H117424   1.138   1.312   2.523
 5806TIP3    H217425   1.156   1.191   2.434
 5807TIP3   OH217426   1.229   4.804   0.270
 5807TIP3    H117427   1.306   4.845   0.311
 5807TIP3    H217428   1.252   4.711   0.264
 5808TIP3   OH217429   4.260   2.682   0.735
 5808TIP3    H117430   4.242   2.590   0.755
 5808TIP3    H217431   4.182   2.712   0.688
 5809TIP3   OH217432   5.077   3.630   1.237
 5809TIP3    H117433   4.983   3.640   1.256
 5809TIP3    H217434   5.088   3.536   1.223
 5810TIP3   OH217435   5.849   1.582   0.325
 5810TIP3    H117436   5.923   1.522   0.309
 5810TIP3    H217437   5.814   1.555   0.410
 5811TIP3   OH217438   1.923   4.118   4.514
 5811TIP3    H117439   1.857   4.122   4.446
 5811TIP3    H217440   1.992   4.062   4.478
 5812TIP3   OH217441   2.169   2.658   2.215
 5812TIP3    H117442   2.094   2.653   2.155
 5812TIP3    H217443   2.142   2.606   2.291
 5813TIP3   OH217444   2.986   5.500   4.209
 5813TIP3    H117445   2.997   5.470   4.119
 5813TIP3    H217446   3.047   5.574   4.217
 5814TIP3   OH217447   1.481   4.505   1.221
 5814TIP3    H117448   1.525   4.540   1.143
 5814TIP3    H217449   1.530   4.542   1.295
 5815TIP3   OH217450   4.317   0.288   4.124
 5815TIP3    H117451   4.252   0.236   4.076
 5815TIP3    H217452   4.375   0.224   4.164
 5816TIP3   OH217453   2.529   2.387   2.609
 5816TIP3    H117454   2.457   2.385   2.545
 5816TIP3    H217455   2.601   2.431   2.563
 5817TIP3   OH217456   1.056   0.588   0.564
 5817TIP3    H117457   1.039   0.494   0.565
 5817TIP3    H217458   1.022   0.618   0.479
 5818TIP3   OH217459   3.233   0.046   4.537
 5818TIP3    H117460   3.226  -0.011   4.460
 5818TIP3    H217461   3.232  -0.014   4.612
 5819TIP3   OH217462   1.375   3.322   2.211
 5819TIP3    H117463   1.438   3.251   2.200
 5819TIP3    H217464   1.408   3.371   2.286
 5820TIP3   OH217465   1.850   1.074   1.626
 5820TIP3    H117466   1.769   1.040   1.664
 5820TIP3    H217467   1.910   0.999   1.627
 5821TIP3   OH217468   5.100   1.494   1.010
 5821TIP3    H117469   5.065   1.410   1.040
 5821TIP3    H217470   5.178   1.470   0.959
 5822TIP3   OH217471   5.719   4.503   2.290
 5822TIP3    H117472   5.682   4.417   2.273
 5822TIP3    H217473   5.727   4.544   2.204
 5823TIP3   OH217474   1.504   1.011   2.848
 5823TIP3    H117475   1.500   0.921   2.815
 5823TIP3    H217476   1.413   1.037   2.858
 5824TIP3   OH217477   5.619   4.237   3.927
 5824TIP3    H117478   5.669   4.317   3.942
 5824TIP3    H217479   5.623   4.189   4.010
 5825TIP3   OH217480   3.292   5.632   2.391
 5825TIP3    H117481   3.282   5.613   2.298
 5825TIP3    H217482   3.304   5.546   2.432
 5826TIP3   OH217483   0.374   4.084   2.289
 5826TIP3    H117484   0.348   4.083   2.197
 5826TIP3    H217485   0.293   4.065   2.337
 5827TIP3   OH217486   3.907   0.109   2.677
 5827TIP3    H117487   3.981   0.049   2.689
 5827TIP3    H217488   3.830   0.053   2.684
 5828TIP3   OH217489   2.106   0.285   2.054
 5828TIP3    H117490   2.150   0.258   2.135
 5828TIP3    H217491   2.132   0.219   1.989
 5829TIP3   OH217492   0.276   3.592   2.343
 5829TIP3    H117493   0.229   3.542   2.410
 5829TIP3    H217494   0.210   3.649   2.304
 5830TIP3   OH217495   4.081   3.593   3.760
 5830TIP3    H117496   4.137   3.517   3.750
 5830TIP3    H217497   4.035   3.600   3.676
 5831TIP3   OH217498   5.013   5.176   1.649
 5831TIP3    H117499   4.945   5.243   1.649
 5831TIP3    H217500   5.094   5.223   1.631
 5832TIP3   OH217501   0.844   2.563   3.858
 5832TIP3    H117502   0.923   2.552   3.910
 5832TIP3    H217503   0.864   2.637   3.800
 5833TIP3   OH217504   0.427   3.482   0.211
 5833TIP3    H117505   0.513   3.516   0.185
 5833TIP3    H217506   0.401   3.425   0.139
 5834TIP3   OH217507   1.008   4.254   4.543
 5834TIP3    H117508   1.033   4.268   4.634
 5834TIP3    H217509   0.943   4.322   4.525
 5835TIP3   OH217510   1.632   3.766   3.070
 5835TIP3    H117511   1.587   3.806   2.996
 5835TIP3    H217512   1.700   3.712   3.029
 5836TIP3   OH217513   0.124   0.688   0.640
 5836TIP3    H117514   0.163   0.765   0.600
 5836TIP3    H217515   0.042   0.720   0.678
 5837TIP3   OH217516   5.780   3.786   4.032
 5837TIP3    H117517   5.818   3.839   3.961
 5837TIP3    H217518   5.693   3.824   4.046
 5838TIP3   OH217519   2.992   1.916   2.278
 5838TIP3    H117520   3.080   1.935   2.247
 5838TIP3    H217521   2.937   1.981   2.235
 5839TIP3   OH217522   2.574   4.498   1.939
 5839TIP3    H117523   2.643   4.460   1.994
 5839TIP3    H217524   2.512   4.427   1.924
 5840TIP3   OH217525   5.863   0.982   0.420
 5840TIP3    H117526   5.857   0.970   0.515
 5840TIP3    H217527   5.940   1.038   0.408
 5841TIP3   OH217528   3.013   1.148   3.245
 5841TIP3    H117529   2.927   1.191   3.249
 5841TIP3    H217530   3.032   1.125   3.336
 5842TIP3   OH217531   3.468   0.483   0.659
 5842TIP3    H117532   3.552   0.529   0.650
 5842TIP3    H217533   3.455   0.477   0.754
 5843TIP3   OH217534   3.722   5.804   1.589
 5843TIP3    H117535   3.649   5.814   1.650
 5843TIP3    H217536   3.682   5.809   1.502
 5844TIP3   OH217537   2.827   0.545   1.784
 5844TIP3    H117538   2.781   0.620   1.822
 5844TIP3    H217539   2.776   0.522   1.707
 5845TIP3   OH217540   2.252   4.984   3.858
 5845TIP3    H117541   2.286   4.907   3.904
 5845TIP3    H217542   2.238   5.049   3.927
 5846TIP3   OH217543   0.678   4.443   4.995
 5846TIP3    H117544   0.629   4.413   4.919
 5846TIP3    H217545   0.632   4.405   5.070
 5847TIP3   OH217546   1.302   2.707   4.565
 5847TIP3    H117547   1.267   2.656   4.492
 5847TIP3    H217548   1.355   2.775   4.524
 5848TIP3   OH217549   5.436   2.888   3.891
 5848TIP3    H117550   5.387   2.807   3.877
 5848TIP3    H217551   5.474   2.878   3.978
 5849TIP3   OH217552   0.733   5.013   1.978
 5849TIP3    H117553   0.823   5.039   1.997
 5849TIP3    H217554   0.725   4.924   2.012
 5850TIP3   OH217555   2.148   2.786   0.163
 5850TIP3    H117556   2.240   2.766   0.181
 5850TIP3    H217557   2.149   2.827   0.076
 5851TIP3   OH217558   4.024   3.617   0.278
 5851TIP3    H117559   4.083   3.632   0.352
 5851TIP3    H217560   3.936   3.621   0.316
 5852TIP3   OH217561   0.380   5.087   4.246
 5852TIP3    H117562   0.352   5.064   4.157
 5852TIP3    H217563   0.374   5.182   4.249
 5853TIP3   OH217564   3.285   4.661   1.135
 5853TIP3    H117565   3.227   4.672   1.211
 5853TIP3    H217566   3.332   4.744   1.129
 5854TIP3   OH217567   0.986   4.199   4.821
 5854TIP3    H117568   1.027   4.162   4.900
 5854TIP3    H217569   1.000   4.294   4.830
 5855TIP3   OH217570   6.297   1.262   1.935
 5855TIP3    H117571   6.272   1.171   1.951
 5855TIP3    H217572   6.380   1.255   1.888
 5856TIP3   OH217573   4.365   3.675   2.227
 5856TIP3    H117574   4.269   3.671   2.225
 5856TIP3    H217575   4.386   3.700   2.317
 5857TIP3   OH217576   3.288   4.368   5.002
 5857TIP3    H117577   3.382   4.360   5.011
 5857TIP3    H217578   3.253   4.349   5.090
 5858TIP3   OH217579   3.095   1.217   4.114
 5858TIP3    H117580   3.171   1.160   4.099
 5858TIP3    H217581   3.034   1.163   4.164
 5859TIP3   OH217582   2.873   3.140   2.073
 5859TIP3    H117583   2.802   3.097   2.026
 5859TIP3    H217584   2.856   3.121   2.165
 5860TIP3   OH217585   5.172   1.406   1.424
 5860TIP3    H117586   5.201   1.458   1.499
 5860TIP3    H217587   5.225   1.439   1.351
 5861TIP3   OH217588   2.755   3.556   3.404
 5861TIP3    H117589   2.768   3.648   3.381
 5861TIP3    H217590   2.712   3.559   3.490
 5862TIP3   OH217591   3.569   2.310   3.226
 5862TIP3    H117592   3.534   2.363   3.154
 5862TIP3    H217593   3.571   2.221   3.191
 5863TIP3   OH217594   0.195   1.208   1.791
 5863TIP3    H117595   0.240   1.124   1.792
 5863TIP3    H217596   0.166   1.218   1.700
 5864TIP3   OH217597   4.441   5.223   4.097
 5864TIP3    H117598   4.455   5.178   4.014
 5864TIP3    H217599   4.488   5.305   4.089
 5865TIP3   OH217600   5.618   1.982   4.679
 5865TIP3    H117601   5.694   2.036   4.699
 5865TIP3    H217602   5.559   1.995   4.753
 5866TIP3   OH217603   6.125   3.501   2.689
 5866TIP3    H117604   6.102   3.444   2.762
 5866TIP3    H217605   6.180   3.569   2.727
 5867TIP3   OH217606   2.164   2.245   1.771
 5867TIP3    H117607   2.173   2.276   1.681
 5867TIP3    H217608   2.239   2.187   1.784
 5868TIP3   OH217609   5.148   4.938   0.319
 5868TIP3    H117610   5.174   4.991   0.244
 5868TIP3    H217611   5.070   4.891   0.291
 5869TIP3   OH217612   5.955   1.909   3.019
 5869TIP3    H117613   6.007   1.876   3.092
 5869TIP3    H217614   5.906   1.833   2.988
 5870TIP3   OH217615   6.072   2.448   1.577
 5870TIP3    H117616   6.051   2.468   1.668
 5870TIP3    H217617   6.128   2.520   1.548
 5871TIP3   OH217618   0.509   0.319   0.050
 5871TIP3    H117619   0.472   0.312  -0.037
 5871TIP3    H217620   0.582   0.380   0.040
 5872TIP3   OH217621   2.192   4.261   5.110
 5872TIP3    H117622   2.190   4.339   5.166
 5872TIP3    H217623   2.102   4.252   5.078
 5873TIP3   OH217624   4.913   2.917   4.891
 5873TIP3    H117625   4.864   2.872   4.822
 5873TIP3    H217626   4.909   3.010   4.867
 5874TIP3   OH217627   4.153   0.116   3.978
 5874TIP3    H117628   4.177   0.110   3.885
 5874TIP3    H217629   4.092   0.043   3.991
 5875TIP3   OH217630   4.309   3.458   3.129
 5875TIP3    H117631   4.277   3.544   3.156
 5875TIP3    H217632   4.392   3.448   3.176
 5876TIP3   OH217633   0.497   3.890   0.468
 5876TIP3    H117634   0.406   3.887   0.497
 5876TIP3    H217635   0.493   3.919   0.377
 5877TIP3   OH217636   5.470   4.321   2.068
 5877TIP3    H117637   5.523   4.378   2.012
 5877TIP3    H217638   5.417   4.270   2.007
 5878TIP3   OH217639   3.568   3.901   4.258
 5878TIP3    H117640   3.553   3.907   4.163
 5878TIP3    H217641   3.661   3.884   4.266
 5879TIP3   OH217642   4.614   3.592   0.909
 5879TIP3    H117643   4.656   3.551   0.984
 5879TIP3    H217644   4.531   3.545   0.898
 5880TIP3   OH217645   3.330   0.011   3.289
 5880TIP3    H117646   3.381  -0.045   3.231
 5880TIP3    H217647   3.271   0.059   3.230
 5881TIP3   OH217648   5.025   0.094   1.432
 5881TIP3    H117649   4.941   0.076   1.390
 5881TIP3    H217650   5.013   0.179   1.475
 5882TIP3   OH217651   4.593   1.860   4.840
 5882TIP3    H117652   4.571   1.909   4.761
 5882TIP3    H217653   4.530   1.890   4.905
 5883TIP3   OH217654   2.410   5.517   1.577
 5883TIP3    H117655   2.386   5.606   1.551
 5883TIP3    H217656   2.487   5.529   1.633
 5884TIP3   OH217657   1.822   5.661   1.240
 5884TIP3    H117658   1.761   5.592   1.265
 5884TIP3    H217659   1.820   5.663   1.145
 5885TIP3   OH217660   0.373   1.572   4.208
 5885TIP3    H117661   0.393   1.664   4.226
 5885TIP3    H217662   0.387   1.527   4.291
 5886TIP3   OH217663   5.453   0.614   2.167
 5886TIP3    H117664   5.396   0.642   2.096
 5886TIP3    H217665   5.536   0.594   2.125
 5887TIP3   OH217666   0.169   5.522   2.212
 5887TIP3    H117667   0.082   5.537   2.247
 5887TIP3    H217668   0.165   5.555   2.122
 5888TIP3   OH217669   0.268   2.067   0.616
 5888TIP3    H117670   0.218   2.142   0.648
 5888TIP3    H217671   0.258   2.001   0.685
 5889TIP3   OH217672   6.005   3.044   3.376
 5889TIP3    H117673   5.927   3.083   3.417
 5889TIP3    H217674   6.055   3.119   3.344
 5890TIP3   OH217675   0.985   0.639   1.788
 5890TIP3    H117676   0.959   0.569   1.729
 5890TIP3    H217677   1.027   0.704   1.732
 5891TIP3   OH217678   5.897   3.186   3.593
 5891TIP3    H117679   5.856   3.183   3.680
 5891TIP3    H217680   5.936   3.273   3.588
 5892TIP3   OH217681   4.962   5.471   1.455
 5892TIP3    H117682   5.018   5.545   1.478
 5892TIP3    H217683   4.916   5.450   1.537
 5893TIP3   OH217684   1.201   4.388   0.653
 5893TIP3    H117685   1.124   4.331   0.660
 5893TIP3    H217686   1.234   4.396   0.742
 5894TIP3   OH217687   1.499   3.586   0.436
 5894TIP3    H117688   1.466   3.629   0.358
 5894TIP3    H217689   1.594   3.580   0.423
 5895TIP3   OH217690   3.994   4.628   4.720
 5895TIP3    H117691   3.951   4.579   4.649
 5895TIP3    H217692   3.935   4.701   4.738
 5896TIP3   OH217693   2.927   1.027   1.735
 5896TIP3    H117694   2.938   0.944   1.782
 5896TIP3    H217695   2.832   1.039   1.730
 5897TIP3   OH217696   3.988   0.301   3.665
 5897TIP3    H117697   4.049   0.280   3.594
 5897TIP3    H217698   3.902   0.304   3.621
 5898TIP3   OH217699   2.712   4.230   3.154
 5898TIP3    H117700   2.731   4.227   3.060
 5898TIP3    H217701   2.702   4.324   3.173
 5899TIP3   OH217702   0.913   2.248   1.232
 5899TIP3    H117703   0.934   2.171   1.284
 5899TIP3    H217704   0.988   2.260   1.173
 5900TIP3   OH217705   2.671   2.762   2.295
 5900TIP3    H117706   2.668   2.848   2.338
 5900TIP3    H217707   2.672   2.699   2.366
 5901TIP3   OH217708   4.923   1.415   2.790
 5901TIP3    H117709   4.879   1.335   2.759
 5901TIP3    H217710   5.011   1.409   2.754
 5902TIP3   OH217711   1.711   1.547   1.798
 5902TIP3    H117712   1.641   1.488   1.825
 5902TIP3    H217713   1.777   1.489   1.760
 5903TIP3   OH217714   3.923   3.787   3.069
 5903TIP3    H117715   3.865   3.789   3.145
 5903TIP3    H217716   3.886   3.851   3.009
 5904TIP3   OH217717   0.624   2.673   4.901
 5904TIP3    H117718   0.568   2.736   4.947
 5904TIP3    H217719   0.678   2.727   4.843
 5905TIP3   OH217720   4.805   5.636   4.176
 5905TIP3    H117721   4.866   5.694   4.221
 5905TIP3    H217722   4.862   5.574   4.129
 5906TIP3   OH217723   2.077   2.843   2.536
 5906TIP3    H117724   2.110   2.833   2.625
 5906TIP3    H217725   1.987   2.812   2.540
 5907TIP3   OH217726   2.294   3.754   0.239
 5907TIP3    H117727   2.212   3.795   0.211
 5907TIP3    H217728   2.307   3.787   0.328
 5908TIP3   OH217729   3.280   0.831   0.711
 5908TIP3    H117730   3.361   0.807   0.757
 5908TIP3    H217731   3.299   0.819   0.619
 5909TIP3   OH217732   5.391   3.732   4.535
 5909TIP3    H117733   5.307   3.722   4.490
 5909TIP3    H217734   5.425   3.643   4.543
 5910TIP3   OH217735   1.887   1.544   2.967
 5910TIP3    H117736   1.879   1.449   2.965
 5910TIP3    H217737   1.863   1.572   2.879
 5911TIP3   OH217738   4.673   1.589   4.710
 5911TIP3    H117739   4.604   1.587   4.776
 5911TIP3    H217740   4.658   1.670   4.662
 5912TIP3   OH217741   5.684   2.570   4.228
 5912TIP3    H117742   5.643   2.550   4.312
 5912TIP3    H217743   5.774   2.595   4.251
 5913TIP3   OH217744   1.083   0.412   2.067
 5913TIP3    H117745   1.046   0.323   2.068
 5913TIP3    H217746   1.051   0.450   1.986
 5914TIP3   OH217747   0.048   1.859   3.733
 5914TIP3    H117748   0.135   1.896   3.736
 5914TIP3    H217749  -0.002   1.918   3.677
 5915TIP3   OH217750   1.461   5.494   0.618
 5915TIP3    H117751   1.506   5.434   0.559
 5915TIP3    H217752   1.372   5.499   0.583
 5916TIP3   OH217753   2.750   1.833   0.968
 5916TIP3    H117754   2.811   1.827   1.042
 5916TIP3    H217755   2.751   1.926   0.943
 5917TIP3   OH217756   0.186   5.434   1.797
 5917TIP3    H117757   0.119   5.500   1.815
 5917TIP3    H217758   0.138   5.351   1.798
 5918TIP3   OH217759   2.435   3.385   4.525
 5918TIP3    H117760   2.353   3.345   4.495
 5918TIP3    H217761   2.503   3.326   4.495
 5919TIP3   OH217762   3.739   2.773   3.968
 5919TIP3    H117763   3.762   2.837   3.900
 5919TIP3    H217764   3.824   2.738   3.996
 5920TIP3   OH217765   0.406   4.135   3.207
 5920TIP3    H117766   0.419   4.080   3.284
 5920TIP3    H217767   0.408   4.225   3.241
 5921TIP3   OH217768   0.423   3.366   3.326
 5921TIP3    H117769   0.381   3.280   3.332
 5921TIP3    H217770   0.409   3.406   3.412
 5922TIP3   OH217771   3.183   2.731   3.261
 5922TIP3    H117772   3.172   2.644   3.221
 5922TIP3    H217773   3.101   2.776   3.243
 5923TIP3   OH217774   6.295   0.090   4.832
 5923TIP3    H117775   6.322   0.172   4.793
 5923TIP3    H217776   6.241   0.047   4.765
 5924TIP3   OH217777   1.281   1.825   3.185
 5924TIP3    H117778   1.304   1.915   3.164
 5924TIP3    H217779   1.363   1.785   3.214
 5925TIP3   OH217780   5.311   1.794   0.691
 5925TIP3    H117781   5.236   1.847   0.666
 5925TIP3    H217782   5.303   1.783   0.786
 5926TIP3   OH217783   3.722   5.504   0.882
 5926TIP3    H117784   3.776   5.435   0.921
 5926TIP3    H217785   3.780   5.549   0.821
 5927TIP3   OH217786   3.559   0.574   4.797
 5927TIP3    H117787   3.519   0.496   4.836
 5927TIP3    H217788   3.561   0.637   4.869
 5928TIP3   OH217789   1.335   0.179   2.002
 5928TIP3    H117790   1.288   0.186   1.919
 5928TIP3    H217791   1.344   0.085   2.016
 5929TIP3   OH217792   3.467   1.767   3.912
 5929TIP3    H117793   3.403   1.701   3.939
 5929TIP3    H217794   3.539   1.716   3.875
 5930TIP3   OH217795   5.790   4.412   2.027
 5930TIP3    H117796   5.753   4.326   2.044
 5930TIP3    H217797   5.731   4.451   1.962
 5931TIP3   OH217798   1.448   2.343   1.388
 5931TIP3    H117799   1.521   2.348   1.325
 5931TIP3    H217800   1.470   2.269   1.444
 5932TIP3   OH217801   1.989   0.242   4.946
 5932TIP3    H117802   1.925   0.259   5.015
 5932TIP3    H217803   2.069   0.284   4.977
 5933TIP3   OH217804   2.394   1.443   3.388
 5933TIP3    H117805   2.486   1.471   3.385
 5933TIP3    H217806   2.344   1.525   3.386
 5934TIP3   OH217807   4.301   4.313   1.253
 5934TIP3    H117808   4.207   4.298   1.256
 5934TIP3    H217809   4.325   4.302   1.161
 5935TIP3   OH217810   2.060   1.227   4.102
 5935TIP3    H117811   2.096   1.139   4.113
 5935TIP3    H217812   2.134   1.286   4.119
 5936TIP3   OH217813   5.392   1.478   1.242
 5936TIP3    H117814   5.381   1.571   1.259
 5936TIP3    H217815   5.422   1.473   1.151
 5937TIP3   OH217816   1.519   0.548   3.693
 5937TIP3    H117817   1.452   0.533   3.626
 5937TIP3    H217818   1.469   0.574   3.771
 5938TIP3   OH217819   4.514   0.820   4.226
 5938TIP3    H117820   4.571   0.743   4.221
 5938TIP3    H217821   4.450   0.807   4.156
 5939TIP3   OH217822   5.405   0.907   0.837
 5939TIP3    H117823   5.376   0.819   0.862
 5939TIP3    H217824   5.472   0.929   0.902
 5940TIP3   OH217825   5.450   4.528   4.907
 5940TIP3    H117826   5.493   4.466   4.848
 5940TIP3    H217827   5.439   4.607   4.854
 5941TIP3   OH217828   1.084   4.694   3.694
 5941TIP3    H117829   1.020   4.719   3.761
 5941TIP3    H217830   1.131   4.620   3.733
 5942TIP3   OH217831   1.537   5.299   0.409
 5942TIP3    H117832   1.597   5.224   0.410
 5942TIP3    H217833   1.525   5.318   0.316
 5943TIP3   OH217834   2.115   0.485   4.746
 5943TIP3    H117835   2.135   0.433   4.823
 5943TIP3    H217836   2.090   0.570   4.780
 5944TIP3   OH217837   3.036   3.859   1.087
 5944TIP3    H117838   2.944   3.833   1.072
 5944TIP3    H217839   3.036   3.898   1.174
 5945TIP3   OH217840   4.238   2.983   2.527
 5945TIP3    H117841   4.143   2.982   2.533
 5945TIP3    H217842   4.257   3.008   2.436
 5946TIP3   OH217843   4.933   5.911   1.326
 5946TIP3    H117844   4.902   5.836   1.275
 5946TIP3    H217845   4.862   5.974   1.322
 5947TIP3   OH217846   4.107   0.842   1.932
 5947TIP3    H117847   4.014   0.850   1.953
 5947TIP3    H217848   4.152   0.889   2.002
 5948TIP3   OH217849   5.258   4.924   3.434
 5948TIP3    H117850   5.249   4.925   3.529
 5948TIP3    H217851   5.262   5.016   3.409
 5949TIP3   OH217852   1.566   5.639   0.282
 5949TIP3    H117853   1.560   5.731   0.308
 5949TIP3    H217854   1.618   5.598   0.351
 5950TIP3   OH217855   5.639   4.382   1.442
 5950TIP3    H117856   5.689   4.447   1.492
 5950TIP3    H217857   5.699   4.356   1.372
 5951TIP3   OH217858   2.209   3.521   4.066
 5951TIP3    H117859   2.171   3.436   4.088
 5951TIP3    H217860   2.134   3.577   4.049
 5952TIP3   OH217861   3.445   2.178   4.241
 5952TIP3    H117862   3.424   2.114   4.173
 5952TIP3    H217863   3.426   2.132   4.323
 5953TIP3   OH217864   0.064   4.072   1.267
 5953TIP3    H117865   0.007   4.028   1.330
 5953TIP3    H217866   0.044   4.030   1.184
 5954TIP3   OH217867   4.175   2.557   3.037
 5954TIP3    H117868   4.240   2.598   3.095
 5954TIP3    H217869   4.170   2.466   3.067
 5955TIP3   OH217870   1.175   2.732   4.183
 5955TIP3    H117871   1.196   2.775   4.100
 5955TIP3    H217872   1.139   2.647   4.159
 5956TIP3   OH217873   4.344   3.394   2.308
 5956TIP3    H117874   4.250   3.379   2.294
 5956TIP3    H217875   4.359   3.482   2.275
 5957TIP3   OH217876   1.329   1.338   0.714
 5957TIP3    H117877   1.362   1.278   0.781
 5957TIP3    H217878   1.278   1.403   0.762
 5958TIP3   OH217879   5.201   1.909   5.047
 5958TIP3    H117880   5.149   1.829   5.054
 5958TIP3    H217881   5.140   1.973   5.011
 5959TIP3   OH217882   2.415   1.410   1.818
 5959TIP3    H117883   2.422   1.373   1.906
 5959TIP3    H217884   2.320   1.417   1.803
 5960TIP3   OH217885   3.691   2.829   4.759
 5960TIP3    H117886   3.740   2.816   4.677
 5960TIP3    H217887   3.708   2.749   4.810
 5961TIP3   OH217888   5.917   1.455   2.296
 5961TIP3    H117889   6.003   1.418   2.315
 5961TIP3    H217890   5.926   1.548   2.315
 5962TIP3   OH217891   5.668   1.311   0.037
 5962TIP3    H117892   5.599   1.265  -0.011
 5962TIP3    H217893   5.648   1.294   0.129
 5963TIP3   OH217894   5.994   4.684   1.915
 5963TIP3    H117895   5.985   4.695   2.010
 5963TIP3    H217896   5.966   4.593   1.899
 5964TIP3   OH217897   4.091   5.274   2.114
 5964TIP3    H117898   4.050   5.246   2.032
 5964TIP3    H217899   4.048   5.356   2.135
 5965TIP3   OH217900   2.282   4.997   2.869
 5965TIP3    H117901   2.360   4.945   2.886
 5965TIP3    H217902   2.314   5.087   2.862
 5966TIP3   OH217903   0.527   5.869   1.423
 5966TIP3    H117904   0.492   5.942   1.473
 5966TIP3    H217905   0.543   5.801   1.489
 5967TIP3   OH217906   5.295   2.814   1.923
 5967TIP3    H117907   5.209   2.810   1.879
 5967TIP3    H217908   5.354   2.850   1.857
 5968TIP3   OH217909   3.308   3.519   3.824
 5968TIP3    H117910   3.216   3.538   3.844
 5968TIP3    H217911   3.357   3.589   3.867
 5969TIP3   OH217912   5.588   4.248   2.682
 5969TIP3    H117913   5.504   4.242   2.638
 5969TIP3    H217914   5.627   4.162   2.673
 5970TIP3   OH217915   3.967   5.825   4.155
 5970TIP3    H117916   4.022   5.757   4.115
 5970TIP3    H217917   3.971   5.898   4.094
 5971TIP3   OH217918   5.953   0.334   3.743
 5971TIP3    H117919   5.975   0.280   3.819
 5971TIP3    H217920   6.014   0.408   3.748
 5972TIP3   OH217921   4.162   5.014   4.092
 5972TIP3    H117922   4.199   5.093   4.052
 5972TIP3    H217923   4.120   5.044   4.172
 5973TIP3   OH217924   0.153   4.043   3.731
 5973TIP3    H117925   0.213   4.016   3.800
 5973TIP3    H217926   0.178   4.132   3.710
 5974TIP3   OH217927   2.089   5.795   4.131
 5974TIP3    H117928   2.012   5.845   4.103
 5974TIP3    H217929   2.122   5.755   4.050
 5975TIP3   OH217930   2.669   2.112   1.444
 5975TIP3    H117931   2.713   2.071   1.519
 5975TIP3    H217932   2.648   2.039   1.386
 5976TIP3   OH217933   4.432   1.542   3.996
 5976TIP3    H117934   4.509   1.502   4.036
 5976TIP3    H217935   4.428   1.504   3.909
 5977TIP3   OH217936   1.038   5.589   0.707
 5977TIP3    H117937   1.071   5.675   0.683
 5977TIP3    H217938   0.960   5.607   0.758
 5978TIP3   OH217939   0.109   3.217   0.255
 5978TIP3    H117940   0.016   3.194   0.252
 5978TIP3    H217941   0.128   3.253   0.168
 5979TIP3   OH217942   4.487   0.437   5.182
 5979TIP3    H117943   4.423   0.495   5.222
 5979TIP3    H217944   4.436   0.381   5.124
 5980TIP3   OH217945   3.973   1.614   1.045
 5980TIP3    H117946   3.878   1.605   1.054
 5980TIP3    H217947   4.008   1.568   1.121
 5981TIP3   OH217948   2.053   4.701   1.202
 5981TIP3    H117949   2.037   4.748   1.284
 5981TIP3    H217950   2.148   4.707   1.190
 5982TIP3   OH217951   4.809   1.708   4.955
 5982TIP3    H117952   4.752   1.784   4.953
 5982TIP3    H217953   4.750   1.633   4.960
 5983TIP3   OH217954   4.351   2.549   4.321
 5983TIP3    H117955   4.258   2.527   4.328
 5983TIP3    H217956   4.369   2.545   4.227
 5984TIP3   OH217957   2.784   5.734   2.015
 5984TIP3    H117958   2.785   5.676   2.091
 5984TIP3    H217959   2.828   5.684   1.946
 5985TIP3   OH217960   6.253   2.483   2.982
 5985TIP3    H117961   6.186   2.433   3.028
 5985TIP3    H217962   6.307   2.520   3.052
 5986TIP3   OH217963   3.018   0.197   0.204
 5986TIP3    H117964   2.961   0.163   0.135
 5986TIP3    H217965   2.985   0.285   0.222
 5987TIP3   OH217966   2.911   3.372   0.340
 5987TIP3    H117967   2.956   3.411   0.265
 5987TIP3    H217968   2.825   3.414   0.342
 5988TIP3   OH217969   5.187   3.296   1.600
 5988TIP3    H117970   5.093   3.309   1.617
 5988TIP3    H217971   5.219   3.383   1.575
 5989TIP3   OH217972   2.293   2.376   4.538
 5989TIP3    H117973   2.384   2.385   4.509
 5989TIP3    H217974   2.297   2.392   4.632
 5990TIP3   OH217975   3.403   4.568   1.935
 5990TIP3    H117976   3.445   4.513   1.869
 5990TIP3    H217977   3.367   4.506   1.998
 5991TIP3   OH217978   0.306   5.853   2.217
 5991TIP3    H117979   0.261   5.789   2.272
 5991TIP3    H217980   0.359   5.904   2.277
 5992TIP3   OH217981   1.531   2.411   3.784
 5992TIP3    H117982   1.623   2.382   3.784
 5992TIP3    H217983   1.481   2.331   3.772
 5993TIP3   OH217984   4.614   3.162   5.162
 5993TIP3    H117985   4.647   3.214   5.235
 5993TIP3    H217986   4.621   3.220   5.086
 5994TIP3   OH217987   2.217   4.756   3.685
 5994TIP3    H117988   2.170   4.794   3.611
 5994TIP3    H217989   2.230   4.829   3.745
 5995TIP3   OH217990   4.398   0.672   2.650
 5995TIP3    H117991   4.361   0.675   2.562
 5995TIP3    H217992   4.447   0.589   2.653
 5996TIP3   OH217993   2.896   2.368   2.704
 5996TIP3    H117994   2.905   2.279   2.670
 5996TIP3    H217995   2.898   2.424   2.626
 5997TIP3   OH217996   5.279   1.957   3.193
 5997TIP3    H117997   5.354   1.996   3.240
 5997TIP3    H217998   5.307   1.868   3.174
 5998TIP3   OH217999   1.997   1.291   0.032
 5998TIP3    H118000   2.061   1.343  -0.017
 5998TIP3    H218001   2.021   1.304   0.124
 5999TIP3   OH218002   2.537   4.843   3.670
 5999TIP3    H118003   2.447   4.814   3.682
 5999TIP3    H218004   2.574   4.843   3.759
 6000TIP3   OH218005   3.057   5.118   0.619
 6000TIP3    H118006   3.115   5.195   0.615
 6000TIP3    H218007   2.969   5.156   0.621
 6001TIP3   OH218008   2.826   2.028   2.094
 6001TIP3    H118009   2.830   1.943   2.050
 6001TIP3    H218010   2.743   2.066   2.064
 6002TIP3   OH218011   2.054   2.500   0.244
 6002TIP3    H118012   2.081   2.592   0.246
 6002TIP3    H218013   2.092   2.462   0.323
 6003TIP3   OH218014   6.301   0.975   1.928
 6003TIP3    H118015   6.374   0.917   1.949
 6003TIP3    H218016   6.232   0.916   1.897
 6004TIP3   OH218017   4.316   4.857   3.912
 6004TIP3    H118018   4.382   4.922   3.889
 6004TIP3    H218019   4.250   4.905   3.962
 6005TIP3   OH218020   1.041   3.898   3.569
 6005TIP3    H118021   1.068   3.934   3.485
 6005TIP3    H218022   1.091   3.948   3.634
 6006TIP3   OH218023   3.138   5.575   0.807
 6006TIP3    H118024   3.228   5.603   0.788
 6006TIP3    H218025   3.086   5.656   0.803
 6007TIP3   OH218026   2.613   0.566   2.875
 6007TIP3    H118027   2.588   0.576   2.783
 6007TIP3    H218028   2.646   0.652   2.901
 6008TIP3   OH218029   2.341   1.628   0.818
 6008TIP3    H118030   2.361   1.572   0.893
 6008TIP3    H218031   2.392   1.708   0.834
 6009TIP3   OH218032   4.212   0.081   3.703
 6009TIP3    H118033   4.184   0.040   3.621
 6009TIP3    H218034   4.256   0.162   3.676
 6010TIP3   OH218035   3.298   0.313   1.677
 6010TIP3    H118036   3.275   0.292   1.587
 6010TIP3    H218037   3.236   0.382   1.703
 6011TIP3   OH218038   3.574   2.931   3.353
 6011TIP3    H118039   3.574   2.860   3.289
 6011TIP3    H218040   3.484   2.963   3.352
 6012TIP3   OH218041   5.451   2.920   1.758
 6012TIP3    H118042   5.466   2.891   1.668
 6012TIP3    H218043   5.519   2.986   1.774
 6013TIP3   OH218044   2.230   5.370   1.404
 6013TIP3    H118045   2.221   5.420   1.323
 6013TIP3    H218046   2.298   5.415   1.453
 6014TIP3   OH218047   2.971   3.952   0.062
 6014TIP3    H118048   2.996   4.034   0.105
 6014TIP3    H218049   2.886   3.971   0.023
 6015TIP3   OH218050   4.702   4.631   2.962
 6015TIP3    H118051   4.779   4.685   2.979
 6015TIP3    H218052   4.736   4.554   2.916
 6016TIP3   OH218053   1.882   4.010   2.269
 6016TIP3    H118054   1.975   3.993   2.257
 6016TIP3    H218055   1.849   4.030   2.182
 6017TIP3   OH218056   4.499   1.456   3.273
 6017TIP3    H118057   4.426   1.427   3.219
 6017TIP3    H218058   4.463   1.527   3.327
 6018TIP3   OH218059   4.871   4.861   4.975
 6018TIP3    H118060   4.909   4.949   4.982
 6018TIP3    H218061   4.910   4.813   5.048
 6019TIP3   OH218062   0.160   5.780   3.133
 6019TIP3    H118063   0.200   5.693   3.135
 6019TIP3    H218064   0.184   5.815   3.047
 6020TIP3   OH218065   4.303   5.921   3.726
 6020TIP3    H118066   4.282   6.014   3.718
 6020TIP3    H218067   4.374   5.907   3.664
 6021TIP3   OH218068   2.161   3.990   0.694
 6021TIP3    H118069   2.133   4.073   0.656
 6021TIP3    H218070   2.253   4.004   0.717
 6022TIP3   OH218071   4.089   0.068   4.559
 6022TIP3    H118072   4.062   0.080   4.468
 6022TIP3    H218073   4.095   0.157   4.594
 6023TIP3   OH218074   0.162   2.654   1.808
 6023TIP3    H118075   0.222   2.719   1.844
 6023TIP3    H218076   0.076   2.679   1.843
 6024TIP3   OH218077   5.805   5.127   0.417
 6024TIP3    H118078   5.879   5.174   0.456
 6024TIP3    H218079   5.728   5.164   0.459
 6025TIP3   OH218080   5.101   2.442   1.079
 6025TIP3    H118081   5.028   2.383   1.096
 6025TIP3    H218082   5.131   2.418   0.991
 6026TIP3   OH218083   2.951   5.719   2.868
 6026TIP3    H118084   2.999   5.795   2.837
 6026TIP3    H218085   2.921   5.675   2.789
 6027TIP3   OH218086   3.828   3.167   1.493
 6027TIP3    H118087   3.898   3.208   1.441
 6027TIP3    H218088   3.807   3.232   1.560
 6028TIP3   OH218089   2.353   3.282   3.788
 6028TIP3    H118090   2.412   3.268   3.861
 6028TIP3    H218091   2.376   3.215   3.724
 6029TIP3   OH218092   5.305   3.581   1.613
 6029TIP3    H118093   5.378   3.611   1.667
 6029TIP3    H218094   5.249   3.658   1.604
 6030TIP3   OH218095   0.047   5.716   4.537
 6030TIP3    H118096   0.062   5.639   4.482
 6030TIP3    H218097   0.095   5.698   4.618
 6031TIP3   OH218098   5.603   1.790   0.458
 6031TIP3    H118099   5.533   1.847   0.425
 6031TIP3    H218100   5.681   1.818   0.409
 6032TIP3   OH218101   2.355   4.235   0.034
 6032TIP3    H118102   2.327   4.265  -0.053
 6032TIP3    H218103   2.283   4.258   0.092
 6033TIP3   OH218104   2.403   5.238   3.835
 6033TIP3    H118105   2.368   5.151   3.816
 6033TIP3    H218106   2.490   5.223   3.870
 6034TIP3   OH218107   5.626   2.381   3.728
 6034TIP3    H118108   5.696   2.385   3.663
 6034TIP3    H218109   5.599   2.472   3.739
 6035TIP3   OH218110   0.584   4.507   1.373
 6035TIP3    H118111   0.522   4.435   1.356
 6035TIP3    H218112   0.605   4.498   1.466
 6036TIP3   OH218113   0.298   0.085   4.296
 6036TIP3    H118114   0.340   0.000   4.283
 6036TIP3    H218115   0.206   0.070   4.274
 6037TIP3   OH218116   1.062   4.814   2.759
 6037TIP3    H118117   1.001   4.788   2.690
 6037TIP3    H218118   1.023   4.892   2.798
 6038TIP3   OH218119   3.516   5.098   2.559
 6038TIP3    H118120   3.504   5.167   2.625
 6038TIP3    H218121   3.558   5.142   2.486
 6039TIP3   OH218122   0.666   0.864   1.088
 6039TIP3    H118123   0.674   0.942   1.033
 6039TIP3    H218124   0.742   0.868   1.146
 6040TIP3   OH218125   3.365   2.929   1.520
 6040TIP3    H118126   3.416   2.881   1.585
 6040TIP3    H218127   3.342   2.863   1.454
 6041TIP3   OH218128   4.816   3.035   2.302
 6041TIP3    H118129   4.830   3.129   2.307
 6041TIP3    H218130   4.904   2.997   2.314
 6042TIP3   OH218131   3.486  -0.004   4.902
 6042TIP3    H118132   3.465  -0.002   4.995
 6042TIP3    H218133   3.555   0.062   4.892
 6043TIP3   OH218134   3.046   4.282   4.897
 6043TIP3    H118135   3.121   4.338   4.918
 6043TIP3    H218136   3.065   4.200   4.942
 6044TIP3   OH218137   6.106   1.006   4.077
 6044TIP3    H118138   6.130   1.098   4.080
 6044TIP3    H218139   6.187   0.961   4.054
 6045TIP3   OH218140   5.507   0.169   2.050
 6045TIP3    H118141   5.545   0.082   2.037
 6045TIP3    H218142   5.421   0.163   2.009
 6046TIP3   OH218143   4.212   3.704   2.835
 6046TIP3    H118144   4.207   3.633   2.899
 6046TIP3    H218145   4.122   3.738   2.830
 6047TIP3   OH218146   6.301   2.335   2.700
 6047TIP3    H118147   6.316   2.396   2.772
 6047TIP3    H218148   6.379   2.280   2.697
 6048TIP3   OH218149   0.110   1.597   0.794
 6048TIP3    H118150   0.113   1.554   0.879
 6048TIP3    H218151   0.201   1.620   0.775
 6049TIP3   OH218152   3.081   0.475   4.563
 6049TIP3    H118153   3.122   0.549   4.519
 6049TIP3    H218154   3.038   0.513   4.639
 6050TIP3   OH218155   3.667   2.050   1.889
 6050TIP3    H118156   3.691   1.959   1.870
 6050TIP3    H218157   3.576   2.046   1.916
 6051TIP3   OH218158   3.984   5.202   4.751
 6051TIP3    H118159   4.042   5.125   4.750
 6051TIP3    H218160   4.008   5.249   4.830
 6052TIP3   OH218161   6.284   0.645   4.190
 6052TIP3    H118162   6.345   0.706   4.149
 6052TIP3    H218163   6.219   0.701   4.232
 6053TIP3   OH218164   3.891   1.368   1.455
 6053TIP3    H118165   3.906   1.450   1.407
 6053TIP3    H218166   3.978   1.343   1.486
 6054TIP3   OH218167   2.416   5.708   0.755
 6054TIP3    H118168   2.509   5.707   0.733
 6054TIP3    H218169   2.405   5.635   0.816
 6055TIP3   OH218170   5.844   1.745   2.131
 6055TIP3    H118171   5.920   1.802   2.139
 6055TIP3    H218172   5.836   1.728   2.037
 6056TIP3   OH218173   2.316   4.345   3.889
 6056TIP3    H118174   2.315   4.286   3.964
 6056TIP3    H218175   2.230   4.388   3.891
 6057TIP3   OH218176   4.785   3.647   4.844
 6057TIP3    H118177   4.774   3.742   4.850
 6057TIP3    H218178   4.743   3.623   4.761
 6058TIP3   OH218179   4.859   5.493   1.909
 6058TIP3    H118180   4.857   5.559   1.978
 6058TIP3    H218181   4.939   5.511   1.860
 6059TIP3   OH218182   3.914   0.690   0.359
 6059TIP3    H118183   3.932   0.784   0.366
 6059TIP3    H218184   3.834   0.685   0.307
 6060TIP3   OH218185   6.291   3.551   3.817
 6060TIP3    H118186   6.223   3.506   3.867
 6060TIP3    H218187   6.352   3.583   3.884
 6061TIP3   OH218188   5.726   4.961   2.874
 6061TIP3    H118189   5.662   4.972   2.804
 6061TIP3    H218190   5.800   5.017   2.849
 6062TIP3   OH218191   0.825   5.028   1.488
 6062TIP3    H118192   0.860   4.975   1.416
 6062TIP3    H218193   0.779   5.100   1.444
 6063TIP3   OH218194   6.130   1.000   4.576
 6063TIP3    H118195   6.065   0.983   4.645
 6063TIP3    H218196   6.086   1.059   4.516
 6064TIP3   OH218197   3.085   4.485   3.701
 6064TIP3    H118198   3.082   4.436   3.620
 6064TIP3    H218199   3.049   4.571   3.679
 6065TIP3   OH218200   5.736   1.737   2.360
 6065TIP3    H118201   5.785   1.819   2.359
 6065TIP3    H218202   5.722   1.716   2.268
 6066TIP3   OH218203   5.877   0.059   2.457
 6066TIP3    H118204   5.939   0.125   2.428
 6066TIP3    H218205   5.915   0.023   2.537
 6067TIP3   OH218206   5.052   2.888   4.499
 6067TIP3    H118207   5.128   2.829   4.495
 6067TIP3    H218208   4.985   2.845   4.445
 6068TIP3   OH218209   1.518   4.895   2.370
 6068TIP3    H118210   1.575   4.894   2.293
 6068TIP3    H218211   1.575   4.867   2.442
 6069TIP3   OH218212   5.777   1.405   3.671
 6069TIP3    H118213   5.813   1.376   3.755
 6069TIP3    H218214   5.693   1.445   3.693
 6070TIP3   OH218215   2.150   1.664   4.379
 6070TIP3    H118216   2.195   1.748   4.392
 6070TIP3    H218217   2.076   1.667   4.440
 6071TIP3   OH218218   1.522   5.224   4.145
 6071TIP3    H118219   1.575   5.299   4.172
 6071TIP3    H218220   1.547   5.154   4.206
 6072TIP3   OH218221   4.417   0.074   4.801
 6072TIP3    H118222   4.358   0.028   4.860
 6072TIP3    H218223   4.499   0.081   4.850
 6073TIP3   OH218224   3.036   4.577   4.834
 6073TIP3    H118225   3.114   4.554   4.784
 6073TIP3    H218226   3.010   4.496   4.877
 6074TIP3   OH218227   0.442   4.696   1.744
 6074TIP3    H118228   0.381   4.753   1.697
 6074TIP3    H218229   0.529   4.727   1.718
 6075TIP3   OH218230   0.497   3.361   1.303
 6075TIP3    H118231   0.426   3.423   1.287
 6075TIP3    H218232   0.471   3.314   1.382
 6076TIP3   OH218233   0.563   3.179   3.707
 6076TIP3    H118234   0.491   3.192   3.770
 6076TIP3    H218235   0.607   3.264   3.704
 6077TIP3   OH218236   6.155   1.982   2.840
 6077TIP3    H118237   6.197   2.061   2.875
 6077TIP3    H218238   6.087   1.961   2.904
 6078TIP3   OH218239   1.259   3.245   0.728
 6078TIP3    H118240   1.220   3.326   0.697
 6078TIP3    H218241   1.333   3.229   0.670
 6079TIP3   OH218242   2.003   3.458   3.511
 6079TIP3    H118243   2.050   3.540   3.500
 6079TIP3    H218244   1.911   3.483   3.525
 6080TIP3   OH218245   5.887   0.154   2.078
 6080TIP3    H118246   5.966   0.198   2.109
 6080TIP3    H218247   5.869   0.195   1.993
 6081TIP3   OH218248   0.273   4.580   1.136
 6081TIP3    H118249   0.268   4.501   1.188
 6081TIP3    H218250   0.285   4.549   1.046
 6082TIP3   OH218251   5.196   0.594   1.599
 6082TIP3    H118252   5.223   0.677   1.559
 6082TIP3    H218253   5.100   0.594   1.590
 6083TIP3   OH218254   2.635   3.854   2.830
 6083TIP3    H118255   2.560   3.816   2.784
 6083TIP3    H218256   2.681   3.779   2.867
 6084TIP3   OH218257   1.685   2.147   3.572
 6084TIP3    H118258   1.693   2.231   3.528
 6084TIP3    H218259   1.634   2.093   3.511
 6085TIP3   OH218260   0.661   4.851   2.780
 6085TIP3    H118261   0.648   4.768   2.733
 6085TIP3    H218262   0.706   4.826   2.860
 6086TIP3   OH218263   5.549   3.071   2.411
 6086TIP3    H118264   5.612   3.097   2.479
 6086TIP3    H218265   5.600   3.068   2.331
 6087TIP3   OH218266   0.878   1.101   3.326
 6087TIP3    H118267   0.888   1.019   3.278
 6087TIP3    H218268   0.962   1.112   3.371
 6088TIP3   OH218269   4.882   0.203   0.372
 6088TIP3    H118270   4.818   0.269   0.396
 6088TIP3    H218271   4.830   0.128   0.343
 6089TIP3   OH218272   5.652   3.890   3.713
 6089TIP3    H118273   5.602   3.952   3.766
 6089TIP3    H218274   5.714   3.945   3.665
 6090TIP3   OH218275   4.526   0.308   0.829
 6090TIP3    H118276   4.595   0.259   0.786
 6090TIP3    H218277   4.558   0.323   0.918
 6091TIP3   OH218278   2.458   2.015   3.940
 6091TIP3    H118279   2.537   2.051   3.899
 6091TIP3    H218280   2.449   2.062   4.022
 6092TIP3   OH218281   5.549   3.303   3.420
 6092TIP3    H118282   5.580   3.352   3.497
 6092TIP3    H218283   5.628   3.285   3.369
 6093TIP3   OH218284   1.502   2.708   2.154
 6093TIP3    H118285   1.564   2.730   2.224
 6093TIP3    H218286   1.420   2.750   2.182
 6094TIP3   OH218287   6.094   3.930   5.050
 6094TIP3    H118288   6.089   3.844   5.090
 6094TIP3    H218289   6.073   3.991   5.120
 6095TIP3   OH218290   0.316   5.358   1.482
 6095TIP3    H118291   0.367   5.353   1.563
 6095TIP3    H218292   0.375   5.324   1.414
 6096TIP3   OH218293   1.322   2.138   1.277
 6096TIP3    H118294   1.347   2.230   1.286
 6096TIP3    H218295   1.389   2.100   1.220
 6097TIP3   OH218296   1.515   4.489   1.592
 6097TIP3    H118297   1.436   4.435   1.586
 6097TIP3    H218298   1.482   4.578   1.601
 6098TIP3   OH218299   5.499   5.857   0.836
 6098TIP3    H118300   5.520   5.910   0.912
 6098TIP3    H218301   5.433   5.908   0.789
 6099TIP3   OH218302   5.387   3.721   5.100
 6099TIP3    H118303   5.427   3.728   5.013
 6099TIP3    H218304   5.371   3.628   5.112
 6100TIP3   OH218305   4.017   2.678   3.888
 6100TIP3    H118306   4.087   2.614   3.881
 6100TIP3    H218307   3.952   2.650   3.823
 6101TIP3   OH218308   3.628   2.296   2.733
 6101TIP3    H118309   3.656   2.215   2.691
 6101TIP3    H218310   3.542   2.275   2.769
 6102TIP3   OH218311   1.004   2.155   4.330
 6102TIP3    H118312   0.986   2.109   4.413
 6102TIP3    H218313   1.052   2.092   4.278
 6103TIP3   OH218314   1.389   3.237   4.489
 6103TIP3    H118315   1.385   3.217   4.583
 6103TIP3    H218316   1.340   3.166   4.448
 6104TIP3   OH218317   0.526   1.136   4.524
 6104TIP3    H118318   0.543   1.114   4.616
 6104TIP3    H218319   0.613   1.143   4.485
 6105TIP3   OH218320   4.586   5.859   5.077
 6105TIP3    H118321   4.581   5.927   5.145
 6105TIP3    H218322   4.613   5.780   5.124
 6106TIP3   OH218323   1.082   2.094   1.396
 6106TIP3    H118324   1.160   2.100   1.341
 6106TIP3    H218325   1.109   2.131   1.480
 6107TIP3   OH218326   0.691   3.369   0.283
 6107TIP3    H118327   0.758   3.406   0.226
 6107TIP3    H218328   0.611   3.368   0.230
 6108TIP3   OH218329   0.853   1.758   2.792
 6108TIP3    H118330   0.896   1.743   2.707
 6108TIP3    H218331   0.762   1.780   2.769
 6109TIP3   OH218332   3.596   0.372   4.026
 6109TIP3    H118333   3.600   0.468   4.019
 6109TIP3    H218334   3.671   0.349   4.080
 6110TIP3   OH218335   2.909   1.333   1.981
 6110TIP3    H118336   2.921   1.373   2.067
 6110TIP3    H218337   2.888   1.242   2.000
 6111TIP3   OH218338   5.736   5.521  -0.030
 6111TIP3    H118339   5.787   5.502   0.049
 6111TIP3    H218340   5.652   5.552   0.003
 6112TIP3   OH218341   3.460   4.121   3.648
 6112TIP3    H118342   3.516   4.180   3.597
 6112TIP3    H218343   3.415   4.178   3.710
 6113TIP3   OH218344   3.654   2.465   1.836
 6113TIP3    H118345   3.707   2.542   1.854
 6113TIP3    H218346   3.568   2.485   1.874
 6114TIP3   OH218347   2.079   1.081   1.904
 6114TIP3    H118348   2.092   1.106   1.812
 6114TIP3    H218349   1.985   1.086   1.918
 6115TIP3   OH218350   4.181   3.544   4.781
 6115TIP3    H118351   4.168   3.634   4.810
 6115TIP3    H218352   4.275   3.529   4.788
 6116TIP3   OH218353   1.729   3.841   0.996
 6116TIP3    H118354   1.809   3.807   1.034
 6116TIP3    H218355   1.697   3.906   1.059
 6117TIP3   OH218356   2.922   2.694   0.866
 6117TIP3    H118357   3.002   2.682   0.815
 6117TIP3    H218358   2.899   2.786   0.854
 6118TIP3   OH218359   1.645   2.232   3.008
 6118TIP3    H118360   1.620   2.321   3.031
 6118TIP3    H218361   1.584   2.176   3.056
 6119TIP3   OH218362   3.857   1.525   3.654
 6119TIP3    H118363   3.787   1.498   3.713
 6119TIP3    H218364   3.938   1.503   3.701
 6120TIP3   OH218365   6.222   4.665   0.923
 6120TIP3    H118366   6.128   4.684   0.919
 6120TIP3    H218367   6.249   4.698   1.008
 6121TIP3   OH218368   5.621   1.002   3.428
 6121TIP3    H118369   5.576   1.023   3.510
 6121TIP3    H218370   5.620   0.907   3.424
 6122TIP3   OH218371   5.428   4.852   5.164
 6122TIP3    H118372   5.439   4.794   5.089
 6122TIP3    H218373   5.399   4.935   5.126
 6123TIP3   OH218374   3.848   2.464   4.780
 6123TIP3    H118375   3.942   2.481   4.777
 6123TIP3    H218376   3.830   2.411   4.703
 6124TIP3   OH218377   3.714   5.272   4.675
 6124TIP3    H118378   3.714   5.208   4.604
 6124TIP3    H218379   3.804   5.273   4.706
 6125TIP3   OH218380   1.338   3.695   4.426
 6125TIP3    H118381   1.258   3.718   4.379
 6125TIP3    H218382   1.313   3.621   4.481
 6126TIP3   OH218383   1.798   2.047   0.982
 6126TIP3    H118384   1.843   2.018   1.061
 6126TIP3    H218385   1.864   2.044   0.914
 6127TIP3   OH218386   1.952   0.348   4.522
 6127TIP3    H118387   1.998   0.423   4.561
 6127TIP3    H218388   1.884   0.326   4.585
 6128TIP3   OH218389   2.608   1.945   1.828
 6128TIP3    H118390   2.609   1.878   1.896
 6128TIP3    H218391   2.626   2.027   1.875
 6129TIP3   OH218392   2.676   0.387   0.780
 6129TIP3    H118393   2.680   0.358   0.689
 6129TIP3    H218394   2.767   0.383   0.810
 6130TIP3   OH218395   0.997   1.944   4.166
 6130TIP3    H118396   0.910   1.984   4.174
 6130TIP3    H218397   0.982   1.851   4.185
 6131TIP3   OH218398   5.125   0.219   4.665
 6131TIP3    H118399   5.202   0.200   4.612
 6131TIP3    H218400   5.067   0.144   4.651
 6132TIP3   OH218401   5.311   2.658   3.805
 6132TIP3    H118402   5.333   2.588   3.867
 6132TIP3    H218403   5.217   2.651   3.793
 6133TIP3   OH218404   3.154   2.857   2.091
 6133TIP3    H118405   3.165   2.929   2.029
 6133TIP3    H218406   3.173   2.778   2.041
 6134TIP3   OH218407   4.459   5.324   0.125
 6134TIP3    H118408   4.435   5.331   0.218
 6134TIP3    H218409   4.528   5.259   0.123
 6135TIP3   OH218410   2.915   5.509   1.883
 6135TIP3    H118411   2.969   5.430   1.889
 6135TIP3    H218412   2.960   5.564   1.818
 6136TIP3   OH218413   3.774   1.373   1.875
 6136TIP3    H118414   3.849   1.430   1.892
 6136TIP3    H218415   3.799   1.289   1.913
 6137TIP3   OH218416   3.496   2.764   1.139
 6137TIP3    H118417   3.461   2.853   1.138
 6137TIP3    H218418   3.470   2.729   1.224
 6138TIP3   OH218419   3.948   0.759   4.569
 6138TIP3    H118420   3.902   0.699   4.628
 6138TIP3    H218421   3.954   0.710   4.486
 6139TIP3   OH218422   4.015   3.371   1.432
 6139TIP3    H118423   4.019   3.391   1.338
 6139TIP3    H218424   4.081   3.427   1.472
 6140TIP3   OH218425   4.582   4.691   3.845
 6140TIP3    H118426   4.553   4.719   3.758
 6140TIP3    H218427   4.524   4.618   3.867
 6141TIP3   OH218428   2.013   4.573   1.465
 6141TIP3    H118429   1.923   4.545   1.483
 6141TIP3    H218430   2.005   4.666   1.442
 6142TIP3   OH218431   0.443   1.019   3.390
 6142TIP3    H118432   0.408   1.046   3.475
 6142TIP3    H218433   0.533   0.994   3.408
 6143TIP3   OH218434   6.131   1.740   0.335
 6143TIP3    H118435   6.104   1.717   0.246
 6143TIP3    H218436   6.220   1.776   0.325
 6144TIP3   OH218437   1.724   4.845   0.701
 6144TIP3    H118438   1.682   4.793   0.633
 6144TIP3    H218439   1.815   4.815   0.701
 6145TIP3   OH218440   5.174   4.072   3.432
 6145TIP3    H118441   5.159   4.081   3.338
 6145TIP3    H218442   5.171   4.161   3.466
 6146TIP3   OH218443   5.718   1.082   1.551
 6146TIP3    H118444   5.662   1.159   1.560
 6146TIP3    H218445   5.800   1.116   1.517
 6147TIP3   OH218446   5.992   5.119   4.022
 6147TIP3    H118447   6.023   5.028   4.021
 6147TIP3    H218448   6.041   5.161   3.952
 6148TIP3   OH218449   0.017   1.393   0.655
 6148TIP3    H118450   0.020   1.446   0.734
 6148TIP3    H218451   0.065   1.443   0.590
 6149TIP3   OH218452   4.937   4.011   4.942
 6149TIP3    H118453   5.017   3.996   4.891
 6149TIP3    H218454   4.955   3.970   5.027
 6150TIP3   OH218455   3.151   1.407   3.505
 6150TIP3    H118456   3.149   1.321   3.463
 6150TIP3    H218457   3.126   1.390   3.596
 6151TIP3   OH218458   5.015   3.632   5.126
 6151TIP3    H118459   5.024   3.727   5.132
 6151TIP3    H218460   5.056   3.609   5.043
 6152TIP3   OH218461   4.072   1.950   2.746
 6152TIP3    H118462   3.988   1.995   2.734
 6152TIP3    H218463   4.063   1.869   2.696
 6153TIP3   OH218464   4.354   1.625   0.863
 6153TIP3    H118465   4.393   1.676   0.792
 6153TIP3    H218466   4.386   1.536   0.848
 6154TIP3   OH218467   3.539   1.862   0.620
 6154TIP3    H118468   3.634   1.871   0.628
 6154TIP3    H218469   3.511   1.942   0.575
 6155TIP3   OH218470   6.222   5.769   1.272
 6155TIP3    H118471   6.304   5.744   1.313
 6155TIP3    H218472   6.207   5.859   1.300
 6156TIP3   OH218473   3.215   3.610   4.546
 6156TIP3    H118474   3.194   3.663   4.623
 6156TIP3    H218475   3.287   3.657   4.504
 6157TIP3   OH218476   4.150   5.548   3.399
 6157TIP3    H118477   4.072   5.562   3.453
 6157TIP3    H218478   4.197   5.632   3.403
 6158TIP3   OH218479   4.958   0.333   3.534
 6158TIP3    H118480   5.039   0.373   3.501
 6158TIP3    H218481   4.960   0.350   3.628
 6159TIP3   OH218482   0.562   2.057   4.129
 6159TIP3    H118483   0.548   2.108   4.209
 6159TIP3    H218484   0.590   2.122   4.064
 6160TIP3   OH218485   5.550   5.825   4.308
 6160TIP3    H118486   5.539   5.916   4.338
 6160TIP3    H218487   5.626   5.793   4.357
 6161TIP3   OH218488   2.764   4.073   0.269
 6161TIP3    H118489   2.723   3.993   0.238
 6161TIP3    H218490   2.734   4.083   0.359
 6162TIP3   OH218491   6.312   0.055   2.758
 6162TIP3    H118492   6.299  -0.001   2.834
 6162TIP3    H218493   6.354   0.134   2.793
 6163TIP3   OH218494   3.876   4.934   2.693
 6163TIP3    H118495   3.858   4.873   2.764
 6163TIP3    H218496   3.811   5.003   2.704
 6164TIP3   OH218497   3.793   2.802   4.502
 6164TIP3    H118498   3.770   2.859   4.428
 6164TIP3    H218499   3.752   2.718   4.481
 6165TIP3   OH218500   3.272   5.699   3.352
 6165TIP3    H118501   3.302   5.610   3.370
 6165TIP3    H218502   3.328   5.729   3.279
 6166TIP3   OH218503   2.762   3.394   2.927
 6166TIP3    H118504   2.857   3.384   2.920
 6166TIP3    H218505   2.739   3.353   3.010
 6167TIP3   OH218506   4.714   1.997   0.825
 6167TIP3    H118507   4.705   1.983   0.731
 6167TIP3    H218508   4.676   1.919   0.865
 6168TIP3   OH218509   3.357   1.903   4.194
 6168TIP3    H118510   3.359   1.935   4.104
 6168TIP3    H218511   3.264   1.890   4.212
 6169TIP3   OH218512   1.407   4.006   2.622
 6169TIP3    H118513   1.421   4.089   2.667
 6169TIP3    H218514   1.371   4.030   2.537
 6170TIP3   OH218515   6.122   0.576   3.976
 6170TIP3    H118516   6.159   0.657   4.012
 6170TIP3    H218517   6.198   0.522   3.956
 6171TIP3   OH218518   5.935   3.975   2.213
 6171TIP3    H118519   5.893   4.031   2.278
 6171TIP3    H218520   5.871   3.906   2.196
 6172TIP3   OH218521   1.872   4.720   3.080
 6172TIP3    H118522   1.961   4.746   3.054
 6172TIP3    H218523   1.838   4.796   3.128
 6173TIP3   OH218524   0.336   4.548   3.085
 6173TIP3    H118525   0.353   4.599   3.164
 6173TIP3    H218526   0.358   4.458   3.108
 6174TIP3   OH218527   2.643   3.022   1.930
 6174TIP3    H118528   2.619   3.086   1.864
 6174TIP3    H218529   2.671   2.945   1.880
 6175TIP3   OH218530   4.605   1.285   4.211
 6175TIP3    H118531   4.547   1.216   4.179
 6175TIP3    H218532   4.631   1.333   4.133
 6176TIP3   OH218533   4.515   1.477   0.258
 6176TIP3    H118534   4.556   1.391   0.263
 6176TIP3    H218535   4.578   1.536   0.300
 6177TIP3   OH218536   5.938   2.057   1.884
 6177TIP3    H118537   5.892   2.105   1.952
 6177TIP3    H218538   6.029   2.053   1.914
 6178TIP3   OH218539   0.686   5.083   1.206
 6178TIP3    H118540   0.637   5.129   1.138
 6178TIP3    H218541   0.773   5.070   1.168
 6179TIP3   OH218542   5.363   1.327   3.631
 6179TIP3    H118543   5.295   1.348   3.567
 6179TIP3    H218544   5.409   1.410   3.645
 6180TIP3   OH218545   1.110   4.696   1.412
 6180TIP3    H118546   1.052   4.770   1.398
 6180TIP3    H218547   1.198   4.733   1.409
 6181TIP3   OH218548   5.908   4.931   3.695
 6181TIP3    H118549   5.829   4.921   3.748
 6181TIP3    H218550   5.969   4.866   3.731
 6182TIP3   OH218551   1.081   4.311   3.580
 6182TIP3    H118552   0.990   4.297   3.605
 6182TIP3    H218553   1.120   4.356   3.655
 6183TIP3   OH218554   5.699   2.421   3.452
 6183TIP3    H118555   5.771   2.481   3.474
 6183TIP3    H218556   5.736   2.362   3.387
 6184TIP3   OH218557   0.625   5.526   5.063
 6184TIP3    H118558   0.610   5.451   5.006
 6184TIP3    H218559   0.579   5.504   5.144
 6185TIP3   OH218560   5.854   3.245   4.084
 6185TIP3    H118561   5.795   3.209   4.151
 6185TIP3    H218562   5.931   3.188   4.087
 6186TIP3   OH218563   4.951   4.495   4.653
 6186TIP3    H118564   4.929   4.423   4.595
 6186TIP3    H218565   4.880   4.559   4.640
 6187TIP3   OH218566   2.502   3.199   4.987
 6187TIP3    H118567   2.532   3.165   4.902
 6187TIP3    H218568   2.456   3.280   4.965
 6188TIP3   OH218569   5.152   1.825   4.363
 6188TIP3    H118570   5.240   1.821   4.400
 6188TIP3    H218571   5.095   1.792   4.432
 6189TIP3   OH218572   1.602   0.110   2.400
 6189TIP3    H118573   1.659   0.039   2.369
 6189TIP3    H218574   1.610   0.107   2.496
 6190TIP3   OH218575   5.940   1.615   2.963
 6190TIP3    H118576   5.933   1.541   2.902
 6190TIP3    H218577   5.890   1.587   3.040
 6191TIP3   OH218578   6.191   2.389   2.453
 6191TIP3    H118579   6.264   2.395   2.391
 6191TIP3    H218580   6.231   2.354   2.533
 6192TIP3   OH218581   2.426   2.723   1.400
 6192TIP3    H118582   2.515   2.688   1.400
 6192TIP3    H218583   2.390   2.697   1.315
 6193TIP3   OH218584   1.287   2.873   2.260
 6193TIP3    H118585   1.273   2.797   2.317
 6193TIP3    H218586   1.253   2.947   2.310
 6194TIP3   OH218587   0.763   3.594   2.676
 6194TIP3    H118588   0.732   3.683   2.694
 6194TIP3    H218589   0.732   3.576   2.587
 6195TIP3   OH218590   2.861   3.618   2.625
 6195TIP3    H118591   2.840   3.686   2.690
 6195TIP3    H218592   2.802   3.546   2.647
 6196TIP3   OH218593   3.020   4.029   2.891
 6196TIP3    H118594   3.047   3.942   2.863
 6196TIP3    H218595   3.101   4.079   2.898
 6197TIP3   OH218596   1.117   5.115   1.361
 6197TIP3    H118597   1.099   5.203   1.327
 6197TIP3    H218598   1.156   5.068   1.287
 6198TIP3   OH218599   5.962   1.664   3.577
 6198TIP3    H118600   5.957   1.681   3.671
 6198TIP3    H218601   6.036   1.603   3.567
 6199TIP3   OH218602   0.677   3.183   2.606
 6199TIP3    H118603   0.619   3.243   2.559
 6199TIP3    H218604   0.685   3.222   2.693
 6200TIP3   OH218605   4.041   4.097   3.936
 6200TIP3    H118606   4.064   4.008   3.910
 6200TIP3    H218607   4.115   4.126   3.990
 6201TIP3   OH218608   5.670   0.939   0.108
 6201TIP3    H118609   5.640   0.864   0.055
 6201TIP3    H218610   5.616   1.012   0.077
 6202TIP3   OH218611   3.922   1.194   1.223
 6202TIP3    H118612   3.849   1.132   1.224
 6202TIP3    H218613   3.899   1.259   1.289
 6203TIP3   OH218614   3.059   0.810   3.452
 6203TIP3    H118615   3.088   0.766   3.532
 6203TIP3    H218616   2.971   0.776   3.436
 6204TIP3   OH218617   4.605   0.376   0.154
 6204TIP3    H118618   4.671   0.312   0.183
 6204TIP3    H218619   4.607   0.371   0.059
 6205TIP3   OH218620   3.587   0.378   4.493
 6205TIP3    H118621   3.642   0.319   4.545
 6205TIP3    H218622   3.498   0.360   4.523
 6206TIP3   OH218623   1.855   3.092   2.675
 6206TIP3    H118624   1.906   3.015   2.651
 6206TIP3    H218625   1.866   3.099   2.770
 6207TIP3   OH218626   3.513   1.828   4.931
 6207TIP3    H118627   3.584   1.848   4.870
 6207TIP3    H218628   3.483   1.913   4.962
 6208TIP3   OH218629   4.623   4.014   4.695
 6208TIP3    H118630   4.573   4.069   4.634
 6208TIP3    H218631   4.680   3.961   4.639
 6209TIP3   OH218632   3.580   4.418   0.960
 6209TIP3    H118633   3.649   4.459   0.908
 6209TIP3    H218634   3.597   4.448   1.050
 6210TIP3   OH218635   1.445   3.132   2.513
 6210TIP3    H118636   1.440   3.050   2.562
 6210TIP3    H218637   1.356   3.148   2.483
 6211TIP3   OH218638   1.023   1.948   0.403
 6211TIP3    H118639   0.974   2.024   0.375
 6211TIP3    H218640   1.078   1.926   0.327
 6212TIP3   OH218641   0.338   5.308   2.771
 6212TIP3    H118642   0.247   5.285   2.786
 6212TIP3    H218643   0.336   5.401   2.749
 6213TIP3   OH218644   1.645   4.764   1.842
 6213TIP3    H118645   1.562   4.754   1.797
 6213TIP3    H218646   1.643   4.697   1.911
 6214TIP3   OH218647   1.032   3.030   5.026
 6214TIP3    H118648   1.009   3.086   5.100
 6214TIP3    H218649   0.953   3.028   4.972
 6215TIP3   OH218650   4.670   3.738   3.767
 6215TIP3    H118651   4.618   3.709   3.842
 6215TIP3    H218652   4.638   3.826   3.748
 6216TIP3   OH218653   2.583   3.253   0.219
 6216TIP3    H118654   2.574   3.338   0.176
 6216TIP3    H218655   2.587   3.274   0.312
 6217TIP3   OH218656   5.047   2.101   3.795
 6217TIP3    H118657   5.034   2.007   3.802
 6217TIP3    H218658   5.049   2.118   3.701
 6218TIP3   OH218659   3.401   2.027   3.952
 6218TIP3    H118660   3.472   2.085   3.922
 6218TIP3    H218661   3.421   1.942   3.912
 6219TIP3   OH218662   3.951   3.155   2.766
 6219TIP3    H118663   3.869   3.117   2.800
 6219TIP3    H218664   3.944   3.142   2.671
 6220TIP3   OH218665   5.950   2.103   2.724
 6220TIP3    H118666   5.966   2.198   2.720
 6220TIP3    H218667   6.034   2.066   2.753
 6221TIP3   OH218668   5.180   3.047   3.720
 6221TIP3    H118669   5.220   3.002   3.794
 6221TIP3    H218670   5.200   2.992   3.644
 6222TIP3   OH218671   5.565   2.961   4.437
 6222TIP3    H118672   5.572   2.911   4.356
 6222TIP3    H218673   5.471   2.972   4.450
 6223TIP3   OH218674   4.640   5.649   3.589
 6223TIP3    H118675   4.730   5.620   3.607
 6223TIP3    H218676   4.594   5.569   3.564
 6224TIP3   OH218677   0.542   3.079   4.957
 6224TIP3    H118678   0.467   3.020   4.969
 6224TIP3    H218679   0.614   3.021   4.931
 6225TIP3   OH218680   1.025   0.828   0.423
 6225TIP3    H118681   1.107   0.820   0.473
 6225TIP3    H218682   1.022   0.920   0.396
 6226TIP3   OH218683   5.282   5.390   1.190
 6226TIP3    H118684   5.306   5.347   1.107
 6226TIP3    H218685   5.362   5.387   1.242
 6227TIP3   OH218686   2.803   5.658   3.110
 6227TIP3    H118687   2.844   5.683   3.027
 6227TIP3    H218688   2.860   5.589   3.144
 6228TIP3   OH218689   2.282   5.510   2.317
 6228TIP3    H118690   2.358   5.554   2.356
 6228TIP3    H218691   2.289   5.530   2.223
 6229TIP3   OH218692   1.278   2.139   4.059
 6229TIP3    H118693   1.219   2.207   4.026
 6229TIP3    H218694   1.221   2.066   4.081
 6230TIP3   OH218695   0.469   2.159   3.717
 6230TIP3    H118696   0.546   2.105   3.737
 6230TIP3    H218697   0.502   2.224   3.654
 6231TIP3   OH218698   6.342   2.372   1.300
 6231TIP3    H118699   6.282   2.312   1.344
 6231TIP3    H218700   6.362   2.438   1.366
 6232TIP3   OH218701   2.329   1.778   4.015
 6232TIP3    H118702   2.359   1.860   3.975
 6232TIP3    H218703   2.409   1.739   4.052
 6233TIP3   OH218704   3.433   0.998   4.995
 6233TIP3    H118705   3.500   1.049   5.039
 6233TIP3    H218706   3.464   0.908   5.000
 6234TIP3   OH218707   2.019   5.345   2.503
 6234TIP3    H118708   2.087   5.285   2.533
 6234TIP3    H218709   1.986   5.306   2.422
 6235TIP3   OH218710   1.248   2.094   1.607
 6235TIP3    H118711   1.314   2.046   1.556
 6235TIP3    H218712   1.274   2.082   1.698
 6236TIP3   OH218713   6.213   3.694   2.866
 6236TIP3    H118714   6.226   3.666   2.956
 6236TIP3    H218715   6.237   3.787   2.866
 6237TIP3   OH218716   1.854   0.385   1.753
 6237TIP3    H118717   1.779   0.418   1.804
 6237TIP3    H218718   1.853   0.290   1.768
 6238TIP3   OH218719   4.796   5.942   1.009
 6238TIP3    H118720   4.777   5.882   1.082
 6238TIP3    H218721   4.787   5.888   0.931
 6239TIP3   OH218722   3.807   5.214   1.645
 6239TIP3    H118723   3.859   5.138   1.618
 6239TIP3    H218724   3.722   5.200   1.603
 6240TIP3   OH218725   2.057   2.435   3.734
 6240TIP3    H118726   1.972   2.417   3.695
 6240TIP3    H218727   2.036   2.462   3.824
 6241TIP3   OH218728   1.688   2.942   1.162
 6241TIP3    H118729   1.618   2.983   1.112
 6241TIP3    H218730   1.651   2.928   1.249
 6242TIP3   OH218731   0.944   0.121   4.698
 6242TIP3    H118732   0.972   0.066   4.771
 6242TIP3    H218733   0.905   0.198   4.739
 6243TIP3   OH218734   1.890   3.713   4.176
 6243TIP3    H118735   1.936   3.793   4.203
 6243TIP3    H218736   1.842   3.685   4.254
 6244TIP3   OH218737   3.115   1.108   2.753
 6244TIP3    H118738   3.020   1.115   2.741
 6244TIP3    H218739   3.131   1.156   2.835
 6245TIP3   OH218740   0.509   2.408   3.566
 6245TIP3    H118741   0.444   2.473   3.593
 6245TIP3    H218742   0.586   2.428   3.619
 6246TIP3   OH218743   4.737   4.952   2.480
 6246TIP3    H118744   4.685   4.932   2.557
 6246TIP3    H218745   4.782   4.870   2.460
 6247TIP3   OH218746   5.018   5.572   4.725
 6247TIP3    H118747   5.092   5.612   4.679
 6247TIP3    H218748   4.961   5.540   4.655
 6248TIP3   OH218749   1.726   4.057   2.904
 6248TIP3    H118750   1.753   4.089   2.818
 6248TIP3    H218751   1.715   4.136   2.957
 6249TIP3   OH218752   2.348   4.296   3.284
 6249TIP3    H118753   2.361   4.316   3.191
 6249TIP3    H218754   2.318   4.378   3.322
 6250TIP3   OH218755   3.633   1.328   4.488
 6250TIP3    H118756   3.675   1.414   4.497
 6250TIP3    H218757   3.638   1.290   4.576
 6251TIP3   OH218758   6.002   1.277   4.752
 6251TIP3    H118759   6.054   1.286   4.673
 6251TIP3    H218760   6.010   1.362   4.796
 6252TIP3   OH218761   1.636   2.663   1.798
 6252TIP3    H118762   1.607   2.597   1.860
 6252TIP3    H218763   1.560   2.721   1.788
 6253TIP3   OH218764   5.076   3.326   1.231
 6253TIP3    H118765   5.069   3.235   1.261
 6253TIP3    H218766   5.169   3.338   1.212
 6254TIP3   OH218767   4.125   5.585   2.831
 6254TIP3    H118768   4.038   5.561   2.799
 6254TIP3    H218769   4.180   5.587   2.753
 6255TIP3   OH218770   2.789   3.334   0.670
 6255TIP3    H118771   2.839   3.275   0.613
 6255TIP3    H218772   2.853   3.366   0.734
 6256TIP3   OH218773   2.005   5.248   1.522
 6256TIP3    H118774   2.034   5.212   1.606
 6256TIP3    H218775   2.079   5.301   1.493
 6257TIP3   OH218776   0.000   3.919   4.499
 6257TIP3    H118777   0.080   3.876   4.470
 6257TIP3    H218778  -0.070   3.858   4.476
 6258TIP3   OH218779   4.026   3.156   2.060
 6258TIP3    H118780   4.122   3.150   2.055
 6258TIP3    H218781   4.000   3.189   1.974
 6259TIP3   OH218782   1.160   1.207   0.528
 6259TIP3    H118783   1.084   1.220   0.584
 6259TIP3    H218784   1.235   1.232   0.582
 6260TIP3   OH218785   3.259   1.735   4.622
 6260TIP3    H118786   3.281   1.828   4.630
 6260TIP3    H218787   3.290   1.696   4.704
 6261TIP3   OH218788   0.602   5.219   2.255
 6261TIP3    H118789   0.538   5.170   2.204
 6261TIP3    H218790   0.612   5.302   2.209
 6262TIP3   OH218791   1.020   0.926   4.018
 6262TIP3    H118792   0.948   0.882   4.063
 6262TIP3    H218793   1.098   0.901   4.067
 6263TIP3   OH218794   3.990   2.144   2.574
 6263TIP3    H118795   3.961   2.221   2.525
 6263TIP3    H218796   4.066   2.174   2.623
 6264TIP3   OH218797   0.697   4.211   1.512
 6264TIP3    H118798   0.749   4.158   1.572
 6264TIP3    H218799   0.705   4.300   1.547
 6265TIP3   OH218800   4.871   4.468   0.401
 6265TIP3    H118801   4.930   4.420   0.460
 6265TIP3    H218802   4.806   4.403   0.375
 6266TIP3   OH218803   3.473   3.003   2.595
 6266TIP3    H118804   3.471   3.003   2.691
 6266TIP3    H218805   3.407   3.066   2.570
 6267TIP3   OH218806   5.405   5.032   4.557
 6267TIP3    H118807   5.313   5.017   4.581
 6267TIP3    H218808   5.400   5.085   4.477
 6268TIP3   OH218809   3.616   5.860   4.643
 6268TIP3    H118810   3.704   5.888   4.616
 6268TIP3    H218811   3.632   5.788   4.704
 6269TIP3   OH218812   4.704   2.617   4.052
 6269TIP3    H118813   4.673   2.612   4.142
 6269TIP3    H218814   4.797   2.592   4.057
 6270TIP3   OH218815   1.548   4.333   0.622
 6270TIP3    H118816   1.515   4.392   0.690
 6270TIP3    H218817   1.558   4.249   0.666
 6271TIP3   OH218818   5.647   0.810   2.052
 6271TIP3    H118819   5.669   0.865   1.977
 6271TIP3    H218820   5.553   0.822   2.065
 6272TIP3   OH218821   4.851   3.479   0.796
 6272TIP3    H118822   4.830   3.395   0.838
 6272TIP3    H218823   4.770   3.528   0.798
 6273TIP3   OH218824   3.819   2.935   0.190
 6273TIP3    H118825   3.805   2.844   0.166
 6273TIP3    H218826   3.839   2.979   0.107
 6274TIP3   OH218827   3.986   3.073   1.185
 6274TIP3    H118828   3.907   3.018   1.186
 6274TIP3    H218829   4.057   3.013   1.162
 6275TIP3   OH218830   1.505   1.560   3.564
 6275TIP3    H118831   1.454   1.480   3.555
 6275TIP3    H218832   1.568   1.541   3.634
 6276TIP3   OH218833   3.361   3.571   1.272
 6276TIP3    H118834   3.381   3.664   1.261
 6276TIP3    H218835   3.446   3.528   1.266
 6277TIP3   OH218836   1.781   1.788   3.610
 6277TIP3    H118837   1.790   1.842   3.688
 6277TIP3    H218838   1.794   1.699   3.641
 6278TIP3   OH218839   3.430   2.486   2.014
 6278TIP3    H118840   3.414   2.575   2.046
 6278TIP3    H218841   3.443   2.434   2.093
 6279TIP3   OH218842   6.050   3.690   0.309
 6279TIP3    H118843   6.032   3.761   0.247
 6279TIP3    H218844   5.967   3.678   0.355
 6280TIP3   OH218845   3.688   3.002   1.235
 6280TIP3    H118846   3.644   3.054   1.303
 6280TIP3    H218847   3.691   2.913   1.271
 6281TIP3   OH218848   2.454   0.566   2.083
 6281TIP3    H118849   2.415   0.582   2.169
 6281TIP3    H218850   2.492   0.479   2.089
 6282TIP3   OH218851   3.764   1.919   4.466
 6282TIP3    H118852   3.718   1.888   4.388
 6282TIP3    H218853   3.853   1.885   4.456
 6283TIP3   OH218854   1.189   0.419   3.983
 6283TIP3    H118855   1.266   0.439   3.930
 6283TIP3    H218856   1.180   0.494   4.042
 6284TIP3   OH218857   3.427   1.114   2.728
 6284TIP3    H118858   3.379   1.185   2.770
 6284TIP3    H218859   3.364   1.041   2.724
 6285TIP3   OH218860   4.345   3.963   3.184
 6285TIP3    H118861   4.329   3.876   3.149
 6285TIP3    H218862   4.368   4.016   3.108
 6286TIP3   OH218863   4.968   1.137   3.441
 6286TIP3    H118864   4.957   1.218   3.392
 6286TIP3    H218865   5.058   1.140   3.474
 6287TIP3   OH218866   5.590   0.507   4.060
 6287TIP3    H118867   5.587   0.481   3.968
 6287TIP3    H218868   5.642   0.587   4.060
 6288TIP3   OH218869   2.369   2.022   4.723
 6288TIP3    H118870   2.463   2.022   4.705
 6288TIP3    H218871   2.360   2.074   4.803
 6289TIP3   OH218872   5.452   1.883   2.057
 6289TIP3    H118873   5.430   1.814   1.995
 6289TIP3    H218874   5.418   1.851   2.141
 6290TIP3   OH218875   6.259   1.006   0.850
 6290TIP3    H118876   6.267   0.923   0.803
 6290TIP3    H218877   6.274   0.983   0.942
 6291TIP3   OH218878   3.143   3.324   5.065
 6291TIP3    H118879   3.169   3.395   5.124
 6291TIP3    H218880   3.078   3.274   5.115
 6292TIP3   OH218881   4.308   0.703   4.059
 6292TIP3    H118882   4.334   0.638   3.993
 6292TIP3    H218883   4.274   0.651   4.132
 6293TIP3   OH218884   5.771   0.976   2.412
 6293TIP3    H118885   5.694   0.921   2.395
 6293TIP3    H218886   5.787   0.965   2.506
 6294TIP3   OH218887   4.598   1.770   3.895
 6294TIP3    H118888   4.663   1.796   3.962
 6294TIP3    H218889   4.551   1.697   3.935
 6295TIP3   OH218890   0.497   4.216   0.385
 6295TIP3    H118891   0.554   4.292   0.377
 6295TIP3    H218892   0.540   4.161   0.451
 6296TIP3   OH218893   5.887   2.652   2.055
 6296TIP3    H118894   5.947   2.664   2.128
 6296TIP3    H218895   5.882   2.738   2.013
 6297TIP3   OH218896   5.371   1.008   4.234
 6297TIP3    H118897   5.286   1.049   4.215
 6297TIP3    H218898   5.392   0.960   4.153
 6298TIP3   OH218899   3.632   4.693   2.740
 6298TIP3    H118900   3.584   4.643   2.807
 6298TIP3    H218901   3.607   4.784   2.757
 6299TIP3   OH218902   1.628   5.497   4.218
 6299TIP3    H118903   1.533   5.507   4.219
 6299TIP3    H218904   1.659   5.548   4.292
 6300TIP3   OH218905   0.628   3.624   3.735
 6300TIP3    H118906   0.628   3.545   3.681
 6300TIP3    H218907   0.700   3.677   3.702
 6301TIP3   OH218908   4.797   0.937   0.832
 6301TIP3    H118909   4.733   0.970   0.896
 6301TIP3    H218910   4.880   0.976   0.859
 6302TIP3   OH218911   5.328   5.370   0.168
 6302TIP3    H118912   5.303   5.452   0.210
 6302TIP3    H218913   5.417   5.353   0.199
 6303TIP3   OH218914   3.043   3.317   4.474
 6303TIP3    H118915   2.995   3.358   4.546
 6303TIP3    H218916   2.975   3.278   4.418
 6304TIP3   OH218917   3.168   0.028   0.362
 6304TIP3    H118918   3.252   0.074   0.361
 6304TIP3    H218919   3.107   0.088   0.321
 6305TIP3   OH218920   4.485   1.345   2.446
 6305TIP3    H118921   4.404   1.363   2.494
 6305TIP3    H218922   4.455   1.315   2.360
 6306TIP3   OH218923   1.686   0.895   0.464
 6306TIP3    H118924   1.729   0.924   0.544
 6306TIP3    H218925   1.642   0.973   0.430
 6307TIP3   OH218926   0.496   0.279   0.314
 6307TIP3    H118927   0.436   0.335   0.363
 6307TIP3    H218928   0.511   0.327   0.232
 6308TIP3   OH218929   3.778   0.907   3.855
 6308TIP3    H118930   3.826   0.976   3.901
 6308TIP3    H218931   3.688   0.914   3.887
 6309TIP3   OH218932   3.753   5.002   4.526
 6309TIP3    H118933   3.761   4.977   4.618
 6309TIP3    H218934   3.791   4.928   4.478
 6310TIP3   OH218935   1.376   1.054   3.854
 6310TIP3    H118936   1.307   0.993   3.829
 6310TIP3    H218937   1.432   1.060   3.776
 6311TIP3   OH218938   5.540   0.853   2.362
 6311TIP3    H118939   5.501   0.853   2.449
 6311TIP3    H218940   5.496   0.782   2.315
 6312TIP3   OH218941   6.132   2.121   3.768
 6312TIP3    H118942   6.182   2.090   3.692
 6312TIP3    H218943   6.048   2.149   3.732
 6313TIP3   OH218944   4.676   1.042   1.057
 6313TIP3    H118945   4.581   1.034   1.062
 6313TIP3    H218946   4.705   1.050   1.148
 6314TIP3   OH218947   1.232   4.603   1.735
 6314TIP3    H118948   1.166   4.586   1.801
 6314TIP3    H218949   1.258   4.517   1.704
 6315TIP3   OH218950   0.398   1.960   2.390
 6315TIP3    H118951   0.330   1.971   2.324
 6315TIP3    H218952   0.404   2.045   2.434
 6316TIP3   OH218953   5.662   5.174   1.666
 6316TIP3    H118954   5.735   5.178   1.728
 6316TIP3    H218955   5.687   5.233   1.595
 6317TIP3   OH218956   0.972   5.655   3.582
 6317TIP3    H118957   0.950   5.738   3.538
 6317TIP3    H218958   0.888   5.625   3.618
 6318TIP3   OH218959   5.045   4.659   1.969
 6318TIP3    H118960   5.080   4.688   1.884
 6318TIP3    H218961   4.960   4.702   1.975
 6319TIP3   OH218962   2.156   1.799   0.484
 6319TIP3    H118963   2.177   1.826   0.394
 6319TIP3    H218964   2.195   1.712   0.492
 6320TIP3   OH218965   2.471   0.310   1.646
 6320TIP3    H118966   2.454   0.344   1.558
 6320TIP3    H218967   2.493   0.387   1.698
 6321TIP3   OH218968   0.138   5.085   2.104
 6321TIP3    H118969   0.152   5.006   2.157
 6321TIP3    H218970   0.045   5.104   2.112
 6322TIP3   OH218971   1.636   4.020   4.764
 6322TIP3    H118972   1.672   3.931   4.757
 6322TIP3    H218973   1.565   4.012   4.828
 6323TIP3   OH218974   5.124   0.368   4.276
 6323TIP3    H118975   5.114   0.430   4.349
 6323TIP3    H218976   5.101   0.283   4.314
 6324TIP3   OH218977   0.388   2.435   0.295
 6324TIP3    H118978   0.412   2.481   0.215
 6324TIP3    H218979   0.400   2.500   0.365
 6325TIP3   OH218980   4.601   0.768   1.709
 6325TIP3    H118981   4.617   0.680   1.741
 6325TIP3    H218982   4.510   0.767   1.679
 6326TIP3   OH218983   1.739   3.813   2.408
 6326TIP3    H118984   1.762   3.730   2.365
 6326TIP3    H218985   1.770   3.880   2.347
 6327TIP3   OH218986   2.720   4.084   0.987
 6327TIP3    H118987   2.670   4.165   0.978
 6327TIP3    H218988   2.714   4.063   1.080
 6328TIP3   OH218989   1.396   3.760   0.814
 6328TIP3    H118990   1.414   3.833   0.755
 6328TIP3    H218991   1.417   3.794   0.901
 6329TIP3   OH218992   0.836   1.507   3.634
 6329TIP3    H118993   0.884   1.589   3.621
 6329TIP3    H218994   0.770   1.507   3.565
 6330TIP3   OH218995   2.762   4.364   2.889
 6330TIP3    H118996   2.709   4.410   2.824
 6330TIP3    H218997   2.758   4.272   2.863
 6331TIP3   OH218998   0.650   1.027   5.093
 6331TIP3    H118999   0.556   1.010   5.094
 6331TIP3    H219000   0.670   1.052   5.003
 6332TIP3   OH219001   3.564   2.442   1.069
 6332TIP3    H119002   3.582   2.504   1.140
 6332TIP3    H219003   3.649   2.425   1.029
 6333TIP3   OH219004   3.289   1.686   2.304
 6333TIP3    H119005   3.195   1.675   2.287
 6333TIP3    H219006   3.301   1.655   2.394
 6334TIP3   OH219007   4.131   0.489   4.143
 6334TIP3    H119008   4.060   0.456   4.088
 6334TIP3    H219009   4.199   0.423   4.136
 6335TIP3   OH219010   4.954   1.395   3.704
 6335TIP3    H119011   4.995   1.320   3.661
 6335TIP3    H219012   4.884   1.358   3.757
 6336TIP3   OH219013   1.026   3.353   2.342
 6336TIP3    H119014   0.970   3.383   2.271
 6336TIP3    H219015   1.070   3.432   2.373
 6337TIP3   OH219016   2.098   1.362   1.162
 6337TIP3    H119017   2.176   1.417   1.151
 6337TIP3    H219018   2.133   1.275   1.179
 6338TIP3   OH219019   0.641   4.681   3.275
 6338TIP3    H119020   0.683   4.727   3.347
 6338TIP3    H219021   0.682   4.717   3.196
 6339TIP3   OH219022   3.543   3.590   3.393
 6339TIP3    H119023   3.546   3.549   3.307
 6339TIP3    H219024   3.537   3.684   3.375
 6340TIP3   OH219025   4.920   3.974   1.042
 6340TIP3    H119026   4.885   4.062   1.026
 6340TIP3    H219027   4.843   3.917   1.045
 6341TIP3   OH219028   5.185   3.645   3.233
 6341TIP3    H119029   5.242   3.569   3.224
 6341TIP3    H219030   5.158   3.645   3.325
 6342TIP3   OH219031   5.479   5.805   4.674
 6342TIP3    H119032   5.553   5.763   4.631
 6342TIP3    H219033   5.475   5.893   4.636
 6343TIP3   OH219034   4.050   2.477   1.971
 6343TIP3    H119035   3.978   2.540   1.980
 6343TIP3    H219036   4.089   2.472   2.058
 6344TIP3   OH219037   0.955   3.577   1.464
 6344TIP3    H119038   0.929   3.653   1.412
 6344TIP3    H219039   0.873   3.536   1.490
 6345TIP3   OH219040   1.141   4.773   3.439
 6345TIP3    H119041   1.235   4.793   3.437
 6345TIP3    H219042   1.125   4.740   3.528
 6346TIP3   OH219043   4.795   0.444   2.285
 6346TIP3    H119044   4.889   0.446   2.306
 6346TIP3    H219045   4.792   0.450   2.190
 6347TIP3   OH219046   1.546   2.982   4.861
 6347TIP3    H119047   1.586   2.917   4.919
 6347TIP3    H219048   1.619   3.014   4.807
 6348TIP3   OH219049   3.953   2.979   2.246
 6348TIP3    H119050   3.982   3.038   2.176
 6348TIP3    H219051   3.868   2.947   2.217
 6349TIP3   OH219052   2.643   4.453   3.596
 6349TIP3    H119053   2.553   4.463   3.626
 6349TIP3    H219054   2.658   4.529   3.539
 6350TIP3   OH219055   5.566   2.359   5.051
 6350TIP3    H119056   5.585   2.386   5.141
 6350TIP3    H219057   5.487   2.407   5.027
 6351TIP3   OH219058   5.878   5.840   3.363
 6351TIP3    H119059   5.801   5.787   3.341
 6351TIP3    H219060   5.857   5.881   3.447
 6352TIP3   OH219061   3.308   3.023   1.906
 6352TIP3    H119062   3.380   3.044   1.965
 6352TIP3    H219063   3.346   2.962   1.842
 6353TIP3   OH219064   1.264   3.553   2.070
 6353TIP3    H119065   1.304   3.614   2.132
 6353TIP3    H219066   1.296   3.467   2.096
 6354TIP3   OH219067   2.996   3.102   0.494
 6354TIP3    H119068   3.084   3.136   0.481
 6354TIP3    H219069   3.005   3.037   0.564
 6355TIP3   OH219070   4.858   3.538   3.509
 6355TIP3    H119071   4.952   3.522   3.500
 6355TIP3    H219072   4.853   3.622   3.554
 6356TIP3   OH219073   2.885   1.592   0.333
 6356TIP3    H119074   2.852   1.562   0.418
 6356TIP3    H219075   2.977   1.565   0.333
 6357TIP3   OH219076   0.523   3.043   1.610
 6357TIP3    H119077   0.506   2.979   1.541
 6357TIP3    H219078   0.456   3.110   1.597
 6358TIP3   OH219079   0.396   5.033   4.917
 6358TIP3    H119080   0.408   5.031   4.822
 6358TIP3    H219081   0.311   5.076   4.929
 6359TIP3   OH219082   1.570   0.229   0.923
 6359TIP3    H119083   1.599   0.302   0.978
 6359TIP3    H219084   1.509   0.269   0.861
 6360TIP3   OH219085   2.197   5.711   3.492
 6360TIP3    H119086   2.222   5.658   3.568
 6360TIP3    H219087   2.271   5.770   3.478
 6361TIP3   OH219088   2.670   5.420   1.961
 6361TIP3    H119089   2.633   5.420   1.873
 6361TIP3    H219090   2.763   5.438   1.948
 6362TIP3   OH219091   5.635   4.854   2.046
 6362TIP3    H119092   5.683   4.889   2.122
 6362TIP3    H219093   5.690   4.877   1.971
 6363TIP3   OH219094   2.088   3.797   4.474
 6363TIP3    H119095   2.107   3.875   4.525
 6363TIP3    H219096   2.080   3.828   4.384
 6364TIP3   OH219097   1.639   4.812   0.053
 6364TIP3    H119098   1.573   4.878   0.029
 6364TIP3    H219099   1.687   4.851   0.126
 6365TIP3   OH219100   1.754   1.622   3.208
 6365TIP3    H119101   1.813   1.647   3.279
 6365TIP3    H219102   1.812   1.606   3.133
 6366TIP3   OH219103   0.168   1.339   3.105
 6366TIP3    H119104   0.210   1.279   3.167
 6366TIP3    H219105   0.236   1.360   3.042
 6367TIP3   OH219106   1.928   2.657   2.098
 6367TIP3    H119107   1.853   2.713   2.114
 6367TIP3    H219108   1.905   2.574   2.139
 6368TIP3   OH219109   3.290   1.584   1.580
 6368TIP3    H119110   3.290   1.491   1.559
 6368TIP3    H219111   3.312   1.587   1.673
 6369TIP3   OH219112   1.336   3.173   3.719
 6369TIP3    H119113   1.307   3.242   3.660
 6369TIP3    H219114   1.255   3.129   3.746
 6370TIP3   OH219115   5.924   0.888   1.825
 6370TIP3    H119116   5.941   0.949   1.896
 6370TIP3    H219117   5.830   0.897   1.807
 6371TIP3   OH219118   5.246   3.687   2.555
 6371TIP3    H119119   5.259   3.592   2.561
 6371TIP3    H219120   5.325   3.720   2.513
 6372TIP3   OH219121   4.985   1.726   0.653
 6372TIP3    H119122   4.921   1.738   0.583
 6372TIP3    H219123   5.029   1.811   0.660
 6373TIP3   OH219124   1.753   1.207   0.966
 6373TIP3    H119125   1.841   1.231   0.935
 6373TIP3    H219126   1.768   1.142   1.034
 6374TIP3   OH219127   3.281   4.044   4.725
 6374TIP3    H119128   3.283   3.959   4.767
 6374TIP3    H219129   3.358   4.090   4.759
 6375TIP3   OH219130   5.189   4.259   0.984
 6375TIP3    H119131   5.251   4.285   0.916
 6375TIP3    H219132   5.206   4.166   0.998
 6376TIP3   OH219133   0.454   5.296   3.204
 6376TIP3    H119134   0.533   5.350   3.202
 6376TIP3    H219135   0.456   5.247   3.122
 6377TIP3   OH219136   5.981   3.262   0.284
 6377TIP3    H119137   6.039   3.186   0.286
 6377TIP3    H219138   5.900   3.229   0.246
 6378TIP3   OH219139   3.662   5.867   0.911
 6378TIP3    H119140   3.696   5.916   0.987
 6378TIP3    H219141   3.573   5.843   0.936
 6379TIP3   OH219142   1.217   5.577   0.487
 6379TIP3    H119143   1.150   5.587   0.554
 6379TIP3    H219144   1.246   5.667   0.468
 6380TIP3   OH219145   2.518   3.799   3.781
 6380TIP3    H119146   2.427   3.816   3.761
 6380TIP3    H219147   2.526   3.814   3.875
 6381TIP3   OH219148   1.893   4.907   4.838
 6381TIP3    H119149   1.854   4.822   4.860
 6381TIP3    H219150   1.821   4.956   4.799
 6382TIP3   OH219151   0.746   2.067   0.907
 6382TIP3    H119152   0.662   2.022   0.918
 6382TIP3    H219153   0.734   2.151   0.951
 6383TIP3   OH219154   1.638   2.331   3.319
 6383TIP3    H119155   1.603   2.260   3.266
 6383TIP3    H219156   1.568   2.352   3.381
 6384TIP3   OH219157   1.283   5.003   1.141
 6384TIP3    H119158   1.361   5.059   1.147
 6384TIP3    H219159   1.317   4.914   1.139
 6385TIP3   OH219160   1.369   4.892   4.776
 6385TIP3    H119161   1.382   4.838   4.698
 6385TIP3    H219162   1.304   4.957   4.750
 6386TIP3   OH219163   1.078   1.814   4.791
 6386TIP3    H119164   1.086   1.897   4.746
 6386TIP3    H219165   1.122   1.827   4.875
 6387TIP3   OH219166   4.898   0.330   2.048
 6387TIP3    H119167   4.842   0.258   2.018
 6387TIP3    H219168   4.982   0.289   2.069
 6388TIP3   OH219169   1.948   5.999   2.994
 6388TIP3    H119170   2.002   5.949   3.056
 6388TIP3    H219171   1.939   5.941   2.918
 6389TIP3   OH219172   1.459   1.604   4.408
 6389TIP3    H119173   1.416   1.558   4.481
 6389TIP3    H219174   1.387   1.651   4.364
 6390TIP3   OH219175   1.872   4.400   2.663
 6390TIP3    H119176   1.898   4.334   2.598
 6390TIP3    H219177   1.945   4.462   2.665
 6391TIP3   OH219178   1.372   2.309   3.475
 6391TIP3    H119179   1.290   2.345   3.439
 6391TIP3    H219180   1.362   2.318   3.569
 6392TIP3   OH219181   3.027   4.020   4.598
 6392TIP3    H119182   3.004   3.928   4.616
 6392TIP3    H219183   3.112   4.031   4.640
 6393TIP3   OH219184   3.676   0.198   2.367
 6393TIP3    H119185   3.589   0.232   2.347
 6393TIP3    H219186   3.662   0.106   2.390
 6394TIP3   OH219187   3.902   5.389   0.636
 6394TIP3    H119188   3.811   5.364   0.648
 6394TIP3    H219189   3.898   5.481   0.608
 6395TIP3   OH219190   1.003   1.430   4.525
 6395TIP3    H119191   1.061   1.505   4.537
 6395TIP3    H219192   0.992   1.394   4.614
 6396TIP3   OH219193   5.243   1.750   0.418
 6396TIP3    H119194   5.199   1.832   0.397
 6396TIP3    H219195   5.307   1.773   0.485
 6397TIP3   OH219196   1.965   1.516   2.046
 6397TIP3    H119197   1.945   1.594   2.098
 6397TIP3    H219198   1.885   1.463   2.051
 6398TIP3   OH219199   6.253   1.756   3.945
 6398TIP3    H119200   6.322   1.752   4.012
 6398TIP3    H219201   6.298   1.785   3.866
 6399TIP3   OH219202   1.081   5.890   4.008
 6399TIP3    H119203   1.102   5.937   3.928
 6399TIP3    H219204   1.027   5.817   3.978
 6400TIP3   OH219205   5.557   0.301   0.872
 6400TIP3    H119206   5.548   0.206   0.879
 6400TIP3    H219207   5.468   0.333   0.860
 6401TIP3   OH219208   5.323  -0.021   4.308
 6401TIP3    H119209   5.409  -0.038   4.346
 6401TIP3    H219210   5.296   0.063   4.346
 6402TIP3   OH219211   4.379   0.486   4.300
 6402TIP3    H119212   4.460   0.517   4.260
 6402TIP3    H219213   4.353   0.411   4.247
 6403TIP3   OH219214   1.413   4.281   2.745
 6403TIP3    H119215   1.371   4.366   2.757
 6403TIP3    H219216   1.501   4.293   2.781
 6404TIP3   OH219217   6.310   3.247   1.383
 6404TIP3    H119218   6.373   3.274   1.317
 6404TIP3    H219219   6.306   3.321   1.445
 6405TIP3   OH219220   5.260   0.411   2.614
 6405TIP3    H119221   5.215   0.443   2.692
 6405TIP3    H219222   5.257   0.485   2.552
 6406TIP3   OH219223   1.100   4.015   0.820
 6406TIP3    H119224   1.079   3.932   0.778
 6406TIP3    H219225   1.054   4.081   0.768
 6407TIP3   OH219226   3.643   1.153   5.070
 6407TIP3    H119227   3.722   1.102   5.050
 6407TIP3    H219228   3.658   1.237   5.028
 6408TIP3   OH219229   1.631   0.056   1.361
 6408TIP3    H119230   1.615   0.006   1.442
 6408TIP3    H219231   1.624  -0.009   1.291
 6409TIP3   OH219232   5.167   2.754   1.481
 6409TIP3    H119233   5.108   2.767   1.406
 6409TIP3    H219234   5.155   2.662   1.505
 6410TIP3   OH219235   3.459   0.013   2.702
 6410TIP3    H119236   3.371  -0.019   2.684
 6410TIP3    H219237   3.448   0.107   2.715
 6411TIP3   OH219238   1.307   1.372   3.614
 6411TIP3    H119239   1.232   1.388   3.557
 6411TIP3    H219240   1.298   1.280   3.640
 6412TIP3   OH219241   1.922   4.419   4.430
 6412TIP3    H119242   1.981   4.343   4.426
 6412TIP3    H219243   1.961   4.476   4.496
 6413TIP3   OH219244   3.586   4.530   2.484
 6413TIP3    H119245   3.676   4.537   2.454
 6413TIP3    H219246   3.582   4.585   2.562
 6414TIP3   OH219247   2.328   2.978   4.737
 6414TIP3    H119248   2.352   2.912   4.802
 6414TIP3    H219249   2.409   3.027   4.722
 6415TIP3   OH219250   3.624   3.016   4.923
 6415TIP3    H119251   3.532   3.025   4.900
 6415TIP3    H219252   3.654   2.940   4.873
 6416TIP3   OH219253   5.015   5.287   5.059
 6416TIP3    H119254   4.969   5.347   5.000
 6416TIP3    H219255   5.001   5.200   5.022
 6417TIP3   OH219256   3.490   2.154   3.590
 6417TIP3    H119257   3.448   2.237   3.613
 6417TIP3    H219258   3.568   2.179   3.540
 6418TIP3   OH219259   1.207   3.875   1.237
 6418TIP3    H119260   1.156   3.938   1.287
 6418TIP3    H219261   1.153   3.796   1.235
 6419TIP3   OH219262   4.493   5.563   1.715
 6419TIP3    H119263   4.472   5.655   1.729
 6419TIP3    H219264   4.452   5.518   1.789
 6420TIP3   OH219265   5.813   1.379   3.945
 6420TIP3    H119266   5.796   1.312   4.012
 6420TIP3    H219267   5.883   1.433   3.982
 6421TIP3   OH219268   2.873   1.999   2.886
 6421TIP3    H119269   2.881   1.926   2.825
 6421TIP3    H219270   2.802   2.053   2.849
 6422TIP3   OH219271   3.694   2.243   5.091
 6422TIP3    H119272   3.774   2.253   5.143
 6422TIP3    H219273   3.665   2.333   5.074
 6423TIP3   OH219274   1.465   3.814   2.026
 6423TIP3    H119275   1.462   3.861   1.942
 6423TIP3    H219276   1.557   3.817   2.051
 6424TIP3   OH219277   0.326   3.397   2.928
 6424TIP3    H119278   0.324   3.315   2.977
 6424TIP3    H219279   0.401   3.389   2.869
 6425TIP3   OH219280   2.213   4.374   1.539
 6425TIP3    H119281   2.141   4.431   1.511
 6425TIP3    H219282   2.286   4.398   1.482
 6426TIP3   OH219283   4.370   0.656   2.364
 6426TIP3    H119284   4.367   0.579   2.307
 6426TIP3    H219285   4.463   0.677   2.371
 6427TIP3   OH219286   0.955   0.407   1.263
 6427TIP3    H119287   0.863   0.381   1.254
 6427TIP3    H219288   0.985   0.361   1.341
 6428TIP3   OH219289   5.815   2.285   1.518
 6428TIP3    H119290   5.736   2.320   1.558
 6428TIP3    H219291   5.855   2.359   1.472
 6429TIP3   OH219292   0.672   2.889   0.276
 6429TIP3    H119293   0.617   2.916   0.203
 6429TIP3    H219294   0.688   2.796   0.261
 6430TIP3   OH219295   0.752   0.953   4.560
 6430TIP3    H119296   0.794   0.997   4.486
 6430TIP3    H219297   0.746   1.020   4.628
 6431TIP3   OH219298   5.413   3.111   5.162
 6431TIP3    H119299   5.491   3.140   5.115
 6431TIP3    H219300   5.391   3.184   5.220
 6432TIP3   OH219301   5.561   2.143   4.244
 6432TIP3    H119302   5.519   2.085   4.308
 6432TIP3    H219303   5.623   2.086   4.198
 6433TIP3   OH219304   1.872   4.603   4.920
 6433TIP3    H119305   1.810   4.572   4.985
 6433TIP3    H219306   1.957   4.601   4.965
 6434TIP3   OH219307   2.287   1.921   4.474
 6434TIP3    H119308   2.339   1.965   4.541
 6434TIP3    H219309   2.278   1.985   4.404
 6435TIP3   OH219310   4.578   5.125   5.138
 6435TIP3    H119311   4.598   5.198   5.079
 6435TIP3    H219312   4.646   5.130   5.206
 6436TIP3   OH219313   2.587   5.296   0.264
 6436TIP3    H119314   2.510   5.343   0.233
 6436TIP3    H219315   2.551   5.223   0.315
 6437TIP3   OH219316   0.021   2.125   3.935
 6437TIP3    H119317   0.095   2.082   3.893
 6437TIP3    H219318  -0.046   2.130   3.866
 6438TIP3   OH219319   2.083   3.914   4.232
 6438TIP3    H119320   2.172   3.923   4.197
 6438TIP3    H219321   2.039   3.996   4.207
 6439TIP3   OH219322   3.009   2.629   1.142
 6439TIP3    H119323   2.982   2.588   1.059
 6439TIP3    H219324   3.060   2.562   1.186
 6440TIP3   OH219325   0.681   0.533   0.040
 6440TIP3    H119326   0.765   0.556  -0.001
 6440TIP3    H219327   0.682   0.579   0.124
 6441TIP3   OH219328   1.332   5.078   2.224
 6441TIP3    H119329   1.354   5.092   2.316
 6441TIP3    H219330   1.334   4.983   2.213
 6442TIP3   OH219331   1.105   5.050   3.406
 6442TIP3    H119332   1.074   4.961   3.422
 6442TIP3    H219333   1.198   5.047   3.427
 6443TIP3   OH219334   4.728   1.601   2.199
 6443TIP3    H119335   4.769   1.573   2.281
 6443TIP3    H219336   4.706   1.520   2.154
 6444TIP3   OH219337   1.887   3.541   1.317
 6444TIP3    H119338   1.847   3.625   1.339
 6444TIP3    H219339   1.922   3.553   1.229
 6445TIP3   OH219340   4.467   0.444   3.371
 6445TIP3    H119341   4.557   0.415   3.358
 6445TIP3    H219342   4.422   0.420   3.289
 6446TIP3   OH219343   0.705   1.580   3.989
 6446TIP3    H119344   0.679   1.519   4.059
 6446TIP3    H219345   0.679   1.536   3.908
 6447TIP3   OH219346   1.029   1.081   1.675
 6447TIP3    H119347   1.068   1.000   1.644
 6447TIP3    H219348   0.951   1.093   1.621
 6448TIP3   OH219349   4.250   1.116   4.496
 6448TIP3    H119350   4.206   1.065   4.429
 6448TIP3    H219351   4.203   1.199   4.500
 6449TIP3   OH219352   4.065   3.134   0.082
 6449TIP3    H119353   4.045   3.215   0.130
 6449TIP3    H219354   4.160   3.140   0.066
 6450TIP3   OH219355   6.071   3.420   3.923
 6450TIP3    H119356   6.010   3.379   3.984
 6450TIP3    H219357   6.028   3.501   3.896
 6451TIP3   OH219358   2.037   2.472   4.056
 6451TIP3    H119359   2.046   2.388   4.011
 6451TIP3    H219360   1.965   2.459   4.118
 6452TIP3   OH219361   1.701   0.743   3.711
 6452TIP3    H119362   1.641   0.669   3.703
 6452TIP3    H219363   1.700   0.785   3.625
 6453TIP3   OH219364   0.001   4.054   3.292
 6453TIP3    H119365   0.053   3.984   3.251
 6453TIP3    H219366  -0.043   4.011   3.365
 6454TIP3   OH219367   0.747   3.559   4.227
 6454TIP3    H119368   0.805   3.535   4.155
 6454TIP3    H219369   0.665   3.585   4.184
 6455TIP3   OH219370   4.398   5.603   4.752
 6455TIP3    H119371   4.390   5.689   4.793
 6455TIP3    H219372   4.492   5.591   4.740
 6456TIP3   OH219373   1.564   2.108   1.497
 6456TIP3    H119374   1.519   2.024   1.491
 6456TIP3    H219375   1.637   2.101   1.436
 6457TIP3   OH219376   5.980   5.184   3.192
 6457TIP3    H119377   6.027   5.162   3.273
 6457TIP3    H219378   5.918   5.252   3.219
 6458TIP3   OH219379   4.379   3.116   0.265
 6458TIP3    H119380   4.468   3.151   0.263
 6458TIP3    H219381   4.334   3.160   0.193
 6459TIP3   OH219382   4.339   2.060   0.904
 6459TIP3    H119383   4.379   2.109   0.977
 6459TIP3    H219384   4.248   2.048   0.931
 6460TIP3   OH219385   5.116   4.183   4.337
 6460TIP3    H119386   5.139   4.100   4.295
 6460TIP3    H219387   5.075   4.158   4.419
 6461TIP3   OH219388   4.224   3.088   0.835
 6461TIP3    H119389   4.309   3.122   0.860
 6461TIP3    H219390   4.221   3.097   0.739
 6462TIP3   OH219391   2.858   5.187   2.440
 6462TIP3    H119392   2.883   5.190   2.532
 6462TIP3    H219393   2.798   5.260   2.428
 6463TIP3   OH219394   1.143   5.105   0.626
 6463TIP3    H119395   1.087   5.139   0.696
 6463TIP3    H219396   1.123   5.012   0.622
 6464TIP3   OH219397   1.268   2.344   5.013
 6464TIP3    H119398   1.309   2.429   5.029
 6464TIP3    H219399   1.331   2.297   4.958
 6465TIP3   OH219400   2.559   0.972   0.833
 6465TIP3    H119401   2.553   0.881   0.863
 6465TIP3    H219402   2.504   1.021   0.893
 6466TIP3   OH219403   5.923   0.741   4.506
 6466TIP3    H119404   5.913   0.836   4.495
 6466TIP3    H219405   5.949   0.709   4.420
 6467TIP3   OH219406   5.898   2.960   2.125
 6467TIP3    H119407   5.932   3.017   2.056
 6467TIP3    H219408   5.814   3.000   2.150
 6468TIP3   OH219409   1.573   1.911   3.116
 6468TIP3    H119410   1.639   1.899   3.184
 6468TIP3    H219411   1.512   1.974   3.153
 6469TIP3   OH219412   2.117   4.002   0.196
 6469TIP3    H119413   2.032   4.018   0.237
 6469TIP3    H219414   2.103   4.019   0.103
 6470TIP3   OH219415   4.089   2.567   1.034
 6470TIP3    H119416   4.150   2.617   1.089
 6470TIP3    H219417   4.115   2.476   1.046
 6471TIP3   OH219418   2.475   0.691   0.600
 6471TIP3    H119419   2.478   0.650   0.687
 6471TIP3    H219420   2.402   0.753   0.607
 6472TIP3   OH219421   1.259   4.954   3.822
 6472TIP3    H119422   1.288   4.901   3.748
 6472TIP3    H219423   1.218   4.892   3.882
 6473TIP3   OH219424   0.966   5.812   1.879
 6473TIP3    H119425   0.956   5.874   1.807
 6473TIP3    H219426   0.906   5.740   1.857
 6474TIP3   OH219427   2.335   2.024   3.201
 6474TIP3    H119428   2.263   1.964   3.218
 6474TIP3    H219429   2.412   1.979   3.236
 6475TIP3   OH219430   1.458   1.907   4.170
 6475TIP3    H119431   1.364   1.890   4.176
 6475TIP3    H219432   1.494   1.827   4.130
 6476TIP3   OH219433   2.117   5.652   1.180
 6476TIP3    H119434   2.043   5.633   1.239
 6476TIP3    H219435   2.099   5.740   1.148
 6477TIP3   OH219436   3.480   4.320   2.145
 6477TIP3    H119437   3.484   4.239   2.196
 6477TIP3    H219438   3.387   4.332   2.126
 6478TIP3   OH219439   4.765   4.365   3.732
 6478TIP3    H119440   4.788   4.284   3.778
 6478TIP3    H219441   4.768   4.433   3.799
 6479TIP3   OH219442   4.417   2.022   1.424
 6479TIP3    H119443   4.405   1.932   1.394
 6479TIP3    H219444   4.363   2.027   1.503
 6480TIP3   OH219445   2.963   0.628   3.136
 6480TIP3    H119446   3.036   0.567   3.128
 6480TIP3    H219447   2.929   0.636   3.047
 6481TIP3   OH219448   4.672   5.717   3.285
 6481TIP3    H119449   4.638   5.666   3.359
 6481TIP3    H219450   4.761   5.740   3.311
 6482TIP3   OH219451   6.065   0.148   3.922
 6482TIP3    H119452   5.993   0.102   3.967
 6482TIP3    H219453   6.128   0.166   3.991
 6483TIP3   OH219454   2.436   0.067   4.368
 6483TIP3    H119455   2.461   0.026   4.451
 6483TIP3    H219456   2.372   0.007   4.330
 6484TIP3   OH219457   3.454   3.701   4.407
 6484TIP3    H119458   3.493   3.784   4.380
 6484TIP3    H219459   3.459   3.646   4.329
 6485TIP3   OH219460   2.353   2.670   3.804
 6485TIP3    H119461   2.350   2.753   3.851
 6485TIP3    H219462   2.429   2.676   3.747
 6486TIP3   OH219463   2.934   0.658   2.839
 6486TIP3    H119464   2.869   0.659   2.769
 6486TIP3    H219465   2.958   0.750   2.850
 6487TIP3   OH219466   5.469   2.156   3.614
 6487TIP3    H119467   5.554   2.178   3.653
 6487TIP3    H219468   5.405   2.176   3.682
 6488TIP3   OH219469   5.545   5.441   1.239
 6488TIP3    H119470   5.528   5.515   1.181
 6488TIP3    H219471   5.601   5.383   1.187
 6489TIP3   OH219472   5.143   1.604   3.872
 6489TIP3    H119473   5.117   1.685   3.827
 6489TIP3    H219474   5.102   1.534   3.821
 6490TIP3   OH219475   1.628   4.800   4.892
 6490TIP3    H119476   1.581   4.794   4.975
 6490TIP3    H219477   1.571   4.851   4.836
 6491TIP3   OH219478   1.751   4.527   1.471
 6491TIP3    H119479   1.709   4.611   1.456
 6491TIP3    H219480   1.689   4.477   1.523
 6492TIP3   OH219481   3.057   3.494   1.580
 6492TIP3    H119482   2.988   3.544   1.624
 6492TIP3    H219483   3.014   3.452   1.506
 6493TIP3   OH219484   4.771   5.789   4.882
 6493TIP3    H119485   4.848   5.844   4.898
 6493TIP3    H219486   4.715   5.804   4.958
 6494TIP3   OH219487   0.766   3.260   4.081
 6494TIP3    H119488   0.769   3.176   4.034
 6494TIP3    H219489   0.790   3.325   4.015
 6495TIP3   OH219490   5.423   5.511   1.468
 6495TIP3    H119491   5.469   5.482   1.390
 6495TIP3    H219492   5.396   5.601   1.448
 6496TIP3   OH219493   5.118   2.164   3.272
 6496TIP3    H119494   5.180   2.097   3.244
 6496TIP3    H219495   5.169   2.245   3.275
 6497TIP3   OH219496   3.045   5.051   1.035
 6497TIP3    H119497   3.042   4.985   0.966
 6497TIP3    H219498   3.020   5.133   0.992
 6498TIP3   OH219499   4.128   1.308   0.428
 6498TIP3    H119500   4.126   1.267   0.342
 6498TIP3    H219501   4.191   1.256   0.478
 6499TIP3   OH219502   2.741   5.354   3.455
 6499TIP3    H119503   2.813   5.318   3.403
 6499TIP3    H219504   2.672   5.288   3.450
 6500TIP3   OH219505   5.983   4.048   1.938
 6500TIP3    H119506   5.992   4.020   2.029
 6500TIP3    H219507   6.002   4.142   1.939
 6501TIP3   OH219508   6.337   4.811   0.416
 6501TIP3    H119509   6.250   4.840   0.446
 6501TIP3    H219510   6.397   4.877   0.452
 6502TIP3   OH219511   0.549   0.608   2.021
 6502TIP3    H119512   0.629   0.659   2.006
 6502TIP3    H219513   0.522   0.580   1.933
 6503TIP3   OH219514   2.431   5.088   5.065
 6503TIP3    H119515   2.391   5.160   5.114
 6503TIP3    H219516   2.407   5.009   5.113
 6504TIP3   OH219517   5.821   0.238   1.808
 6504TIP3    H119518   5.873   0.309   1.769
 6504TIP3    H219519   5.731   0.266   1.796
 6505TIP3   OH219520   3.550   4.250   0.554
 6505TIP3    H119521   3.478   4.300   0.516
 6505TIP3    H219522   3.604   4.316   0.598
 6506TIP3   OH219523   3.467   3.923   3.327
 6506TIP3    H119524   3.526   3.984   3.372
 6506TIP3    H219525   3.388   3.973   3.311
 6507TIP3   OH219526   3.163   1.226   2.433
 6507TIP3    H119527   3.240   1.187   2.474
 6507TIP3    H219528   3.175   1.211   2.340
 6508TIP3   OH219529   0.273   4.429   4.276
 6508TIP3    H119530   0.307   4.424   4.186
 6508TIP3    H219531   0.255   4.338   4.299
 6509TIP3   OH219532   1.826   0.967   0.689
 6509TIP3    H119533   1.891   0.903   0.718
 6509TIP3    H219534   1.873   1.050   0.690
 6510TIP3   OH219535   5.811   4.532   0.088
 6510TIP3    H119536   5.730   4.560   0.131
 6510TIP3    H219537   5.812   4.579   0.005
 6511TIP3   OH219538   0.928   2.207   2.211
 6511TIP3    H119539   0.927   2.295   2.174
 6511TIP3    H219540   1.017   2.175   2.194
 6512TIP3   OH219541   4.052   1.511   2.968
 6512TIP3    H119542   4.037   1.435   2.912
 6512TIP3    H219543   4.141   1.539   2.948
 6513TIP3   OH219544   0.033   5.215   4.301
 6513TIP3    H119545   0.062   5.226   4.211
 6513TIP3    H219546  -0.056   5.250   4.302
 6514TIP3   OH219547   1.134   5.657   4.570
 6514TIP3    H119548   1.119   5.727   4.633
 6514TIP3    H219549   1.048   5.642   4.529
 6515TIP3   OH219550   4.894   0.440   1.734
 6515TIP3    H119551   4.811   0.445   1.780
 6515TIP3    H219552   4.956   0.406   1.799
 6516TIP3   OH219553   0.926   0.556   4.483
 6516TIP3    H119554   1.002   0.613   4.494
 6516TIP3    H219555   0.960   0.468   4.500
 6517TIP3   OH219556   1.786   5.787   0.657
 6517TIP3    H119557   1.796   5.703   0.702
 6517TIP3    H219558   1.870   5.831   0.671
 6518TIP3   OH219559   1.205   1.371   4.168
 6518TIP3    H119560   1.269   1.439   4.189
 6518TIP3    H219561   1.257   1.291   4.159
 6519TIP3   OH219562   0.245   0.381   1.936
 6519TIP3    H119563   0.177   0.442   1.967
 6519TIP3    H219564   0.288   0.428   1.864
 6520TIP3   OH219565   5.149   1.809   3.485
 6520TIP3    H119566   5.150   1.872   3.414
 6520TIP3    H219567   5.235   1.818   3.527
 6521TIP3   OH219568   0.676   5.872   1.137
 6521TIP3    H119569   0.624   5.801   1.176
 6521TIP3    H219570   0.623   5.901   1.061
 6522TIP3   OH219571   1.100   1.987   5.025
 6522TIP3    H119572   1.024   1.951   5.071
 6522TIP3    H219573   1.084   2.081   5.021
 6523TIP3   OH219574   4.614   4.983   2.220
 6523TIP3    H119575   4.662   4.954   2.298
 6523TIP3    H219576   4.658   5.064   2.194
 6524TIP3   OH219577   2.270   0.383   0.293
 6524TIP3    H119578   2.244   0.470   0.263
 6524TIP3    H219579   2.218   0.369   0.372
 6525TIP3   OH219580   6.025   0.897   0.012
 6525TIP3    H119581   5.986   0.985   0.017
 6525TIP3    H219582   6.118   0.911   0.029
 6526TIP3   OH219583   1.837   1.146   4.263
 6526TIP3    H119584   1.811   1.214   4.324
 6526TIP3    H219585   1.897   1.189   4.202
 6527TIP3   OH219586   3.394   4.524   1.470
 6527TIP3    H119587   3.392   4.484   1.384
 6527TIP3    H219588   3.374   4.617   1.454
 6528TIP3   OH219589   3.161   3.110   1.532
 6528TIP3    H119590   3.093   3.043   1.538
 6528TIP3    H219591   3.243   3.063   1.548
 6529TIP3   OH219592   5.021   1.944   0.305
 6529TIP3    H119593   5.042   2.031   0.272
 6529TIP3    H219594   4.926   1.945   0.320
 6530TIP3   OH219595   5.776   3.017   1.863
 6530TIP3    H119596   5.783   3.100   1.816
 6530TIP3    H219597   5.755   2.953   1.795
 6531TIP3   OH219598   2.107   5.822   3.849
 6531TIP3    H119599   2.057   5.878   3.790
 6531TIP3    H219600   2.109   5.736   3.806
 6532TIP3   OH219601   2.668   2.650   1.318
 6532TIP3    H119602   2.673   2.554   1.316
 6532TIP3    H219603   2.747   2.678   1.363
 6533TIP3   OH219604   1.822   0.219   2.081
 6533TIP3    H119605   1.779   0.268   2.152
 6533TIP3    H219606   1.913   0.249   2.083
 6534TIP3   OH219607   1.709   1.998   0.284
 6534TIP3    H119608   1.731   1.941   0.358
 6534TIP3    H219609   1.783   2.058   0.277
 6535TIP3   OH219610   1.605   4.967   3.106
 6535TIP3    H119611   1.696   4.986   3.086
 6535TIP3    H219612   1.570   4.928   3.026
 6536TIP3   OH219613   2.768   3.012   4.535
 6536TIP3    H119614   2.781   2.929   4.581
 6536TIP3    H219615   2.841   3.016   4.472
 6537TIP3   OH219616   0.350   1.863   4.214
 6537TIP3    H119617   0.433   1.886   4.174
 6537TIP3    H219618   0.288   1.927   4.180
 6538TIP3   OH219619   3.264   1.631   3.565
 6538TIP3    H119620   3.215   1.593   3.491
 6538TIP3    H219621   3.274   1.723   3.542
 6539TIP3   OH219622   5.857   4.276   0.306
 6539TIP3    H119623   5.887   4.362   0.335
 6539TIP3    H219624   5.926   4.244   0.248
 6540TIP3   OH219625   2.821   4.149   3.409
 6540TIP3    H119626   2.776   4.174   3.328
 6540TIP3    H219627   2.754   4.107   3.462
 6541TIP3   OH219628   3.052   1.394   5.026
 6541TIP3    H119629   3.132   1.346   5.004
 6541TIP3    H219630   3.082   1.468   5.079
 6542TIP3   OH219631   5.330   2.752   3.132
 6542TIP3    H119632   5.287   2.675   3.169
 6542TIP3    H219633   5.411   2.761   3.183
 6543TIP3   OH219634   1.584   5.883   3.771
 6543TIP3    H119635   1.564   5.930   3.690
 6543TIP3    H219636   1.609   5.952   3.833
 6544TIP3   OH219637   4.756   2.909   3.764
 6544TIP3    H119638   4.666   2.879   3.774
 6544TIP3    H219639   4.796   2.894   3.849
 6545TIP3   OH219640   6.294   2.043   3.560
 6545TIP3    H119641   6.244   1.986   3.501
 6545TIP3    H219642   6.342   2.101   3.501
 6546TIP3   OH219643   2.457   0.594   0.845
 6546TIP3    H119644   2.492   0.646   0.917
 6546TIP3    H219645   2.500   0.509   0.854
 6547TIP3   OH219646   2.842   0.863   0.717
 6547TIP3    H119647   2.917   0.901   0.670
 6547TIP3    H219648   2.773   0.929   0.711
 6548TIP3   OH219649   0.062   3.466   2.472
 6548TIP3    H119650  -0.010   3.402   2.471
 6548TIP3    H219651   0.029   3.537   2.528
 6549TIP3   OH219652   3.025   5.303   0.926
 6549TIP3    H119653   3.086   5.306   1.000
 6549TIP3    H219654   3.059   5.370   0.866
 6550TIP3   OH219655   3.043   4.651   0.882
 6550TIP3    H119656   3.029   4.739   0.848
 6550TIP3    H219657   3.134   4.651   0.911
 6551TIP3   OH219658   0.731   3.688   0.421
 6551TIP3    H119659   0.803   3.633   0.389
 6551TIP3    H219660   0.664   3.681   0.352
 6552TIP3   OH219661   4.991   3.697   4.088
 6552TIP3    H119662   5.015   3.784   4.058
 6552TIP3    H219663   5.011   3.639   4.014
 6553TIP3   OH219664   1.759   1.823   1.201
 6553TIP3    H119665   1.775   1.742   1.250
 6553TIP3    H219666   1.707   1.795   1.126
 6554TIP3   OH219667   5.198   5.802   2.472
 6554TIP3    H119668   5.200   5.847   2.387
 6554TIP3    H219669   5.261   5.849   2.526
 6555TIP3   OH219670   5.538   0.124   4.555
 6555TIP3    H119671   5.616   0.115   4.501
 6555TIP3    H219672   5.559   0.079   4.636
 6556TIP3   OH219673   4.951   5.158   3.133
 6556TIP3    H119674   5.000   5.162   3.051
 6556TIP3    H219675   4.860   5.175   3.107
 6557TIP3   OH219676   4.154   3.777   4.912
 6557TIP3    H119677   4.228   3.837   4.918
 6557TIP3    H219678   4.080   3.828   4.946
 6558TIP3   OH219679   0.871   0.537   3.134
 6558TIP3    H119680   0.806   0.524   3.203
 6558TIP3    H219681   0.902   0.448   3.114
 6559TIP3   OH219682   6.316   1.499   2.126
 6559TIP3    H119683   6.275   1.447   2.195
 6559TIP3    H219684   6.328   1.438   2.054
 6560TIP3   OH219685   2.614   4.763   0.953
 6560TIP3    H119686   2.559   4.734   1.026
 6560TIP3    H219687   2.701   4.730   0.974
 6561TIP3   OH219688   0.519   0.468   1.083
 6561TIP3    H119689   0.497   0.441   0.994
 6561TIP3    H219690   0.518   0.564   1.080
 6562TIP3   OH219691   5.520   2.670   0.227
 6562TIP3    H119692   5.510   2.581   0.261
 6562TIP3    H219693   5.503   2.662   0.133
 6563TIP3   OH219694   4.699   1.855   2.054
 6563TIP3    H119695   4.779   1.895   2.086
 6563TIP3    H219696   4.697   1.768   2.094
 6564TIP3   OH219697   5.628   3.169   4.770
 6564TIP3    H119698   5.604   3.210   4.687
 6564TIP3    H219699   5.547   3.127   4.800
 6565TIP3   OH219700   1.159   3.552   2.461
 6565TIP3    H119701   1.123   3.638   2.481
 6565TIP3    H219702   1.244   3.570   2.420
 6566TIP3   OH219703   5.010   4.952   3.657
 6566TIP3    H119704   4.961   5.004   3.593
 6566TIP3    H219705   5.101   4.963   3.632
 6567TIP3   OH219706   4.660   3.916   2.303
 6567TIP3    H119707   4.641   3.864   2.381
 6567TIP3    H219708   4.614   3.998   2.317
 6568TIP3   OH219709   2.154   1.510   3.946
 6568TIP3    H119710   2.157   1.604   3.926
 6568TIP3    H219711   2.222   1.497   4.011
 6569TIP3   OH219712   3.599   3.354   3.589
 6569TIP3    H119713   3.656   3.429   3.574
 6569TIP3    H219714   3.651   3.278   3.564
 6570TIP3   OH219715   4.236   0.427   1.439
 6570TIP3    H119716   4.232   0.417   1.534
 6570TIP3    H219717   4.173   0.363   1.405
 6571TIP3   OH219718   6.334   1.745   2.852
 6571TIP3    H119719   6.287   1.826   2.832
 6571TIP3    H219720   6.314   1.726   2.943
 6572TIP3   OH219721   4.484   1.099   3.787
 6572TIP3    H119722   4.520   1.096   3.876
 6572TIP3    H219723   4.514   1.017   3.747
 6573TIP3   OH219724   1.241   4.895   2.441
 6573TIP3    H119725   1.327   4.861   2.416
 6573TIP3    H219726   1.261   4.978   2.486
 6574TIP3   OH219727   3.877   2.620   2.265
 6574TIP3    H119728   3.870   2.711   2.295
 6574TIP3    H219729   3.971   2.605   2.256
 6575TIP3   OH219730   2.916   5.916   2.355
 6575TIP3    H119731   2.958   5.988   2.401
 6575TIP3    H219732   2.864   5.872   2.422
 6576TIP3   OH219733   3.884   4.886   2.436
 6576TIP3    H119734   3.867   4.793   2.419
 6576TIP3    H219735   3.902   4.890   2.530
 6577TIP3   OH219736   5.234   4.601   2.512
 6577TIP3    H119737   5.192   4.516   2.497
 6577TIP3    H219738   5.214   4.651   2.433
 6578TIP3   OH219739   2.128   2.716   2.777
 6578TIP3    H119740   2.045   2.701   2.823
 6578TIP3    H219741   2.187   2.750   2.844
 6579TIP3   OH219742   0.814   2.264   2.761
 6579TIP3    H119743   0.867   2.207   2.816
 6579TIP3    H219744   0.843   2.245   2.671
 6580TIP3   OH219745   5.567   2.659   3.692
 6580TIP3    H119746   5.479   2.655   3.730
 6580TIP3    H219747   5.574   2.748   3.658
 6581TIP3   OH219748   0.125   0.083   4.578
 6581TIP3    H119749   0.198   0.045   4.529
 6581TIP3    H219750   0.145   0.064   4.670
 6582TIP3   OH219751   3.692   1.802   2.044
 6582TIP3    H119752   3.597   1.787   2.042
 6582TIP3    H219753   3.727   1.726   2.089
 6583TIP3   OH219754   3.124   3.306   3.619
 6583TIP3    H119755   3.095   3.389   3.581
 6583TIP3    H219756   3.216   3.299   3.591
 6584TIP3   OH219757   0.600   1.590   4.989
 6584TIP3    H119758   0.687   1.611   5.022
 6584TIP3    H219759   0.549   1.569   5.067
 6585TIP3   OH219760   2.685   4.950   0.755
 6585TIP3    H119761   2.688   4.882   0.687
 6585TIP3    H219762   2.661   4.902   0.835
 6586TIP3   OH219763   1.712   4.116   2.016
 6586TIP3    H119764   1.617   4.129   2.015
 6586TIP3    H219765   1.728   4.057   1.941
 6587TIP3   OH219766   0.927   3.949   4.051
 6587TIP3    H119767   0.869   3.978   4.121
 6587TIP3    H219768   0.869   3.903   3.990
 6588TIP3   OH219769   0.379   3.670   3.355
 6588TIP3    H119770   0.379   3.762   3.380
 6588TIP3    H219771   0.365   3.623   3.438
 6589TIP3   OH219772   3.437   5.232   2.805
 6589TIP3    H119773   3.364   5.177   2.777
 6589TIP3    H219774   3.419   5.252   2.897
 6590TIP3   OH219775   4.724   2.408   0.073
 6590TIP3    H119776   4.695   2.417   0.164
 6590TIP3    H219777   4.648   2.434   0.021
 6591TIP3   OH219778   3.281   2.749   2.941
 6591TIP3    H119779   3.234   2.777   2.863
 6591TIP3    H219780   3.221   2.686   2.983
 6592TIP3   OH219781   6.036   0.981   3.121
 6592TIP3    H119782   5.963   0.922   3.103
 6592TIP3    H219783   6.113   0.925   3.125
 6593TIP3   OH219784   5.503   4.204   4.403
 6593TIP3    H119785   5.596   4.226   4.415
 6593TIP3    H219786   5.469   4.271   4.344
 6594TIP3   OH219787   2.489   4.911   4.600
 6594TIP3    H119788   2.537   4.955   4.530
 6594TIP3    H219789   2.403   4.953   4.600
 6595TIP3   OH219790   5.918   5.910   0.168
 6595TIP3    H119791   5.848   5.954   0.120
 6595TIP3    H219792   5.996   5.962   0.149
 6596TIP3   OH219793   1.823   1.003   1.185
 6596TIP3    H119794   1.731   0.979   1.178
 6596TIP3    H219795   1.849   0.976   1.273
 6597TIP3   OH219796   1.578   2.821   0.127
 6597TIP3    H119797   1.532   2.843   0.207
 6597TIP3    H219798   1.555   2.730   0.110
 6598TIP3   OH219799   1.526   5.307   3.281
 6598TIP3    H119800   1.513   5.235   3.343
 6598TIP3    H219801   1.581   5.370   3.329
 6599TIP3   OH219802   4.933   3.074   1.008
 6599TIP3    H119803   5.014   3.028   0.989
 6599TIP3    H219804   4.931   3.081   1.103
 6600TIP3   OH219805   3.429   0.079   4.129
 6600TIP3    H119806   3.335   0.072   4.112
 6600TIP3    H219807   3.436   0.077   4.225
 6601TIP3   OH219808   0.738   2.699  -0.004
 6601TIP3    H119809   0.803   2.769   0.000
 6601TIP3    H219810   0.780   2.625   0.040
 6602TIP3   OH219811   6.201   0.415   1.309
 6602TIP3    H119812   6.152   0.426   1.390
 6602TIP3    H219813   6.194   0.500   1.266
 6603TIP3   OH219814   4.142   5.782   3.897
 6603TIP3    H119815   4.195   5.852   3.859
 6603TIP3    H219816   4.059   5.786   3.849
 6604TIP3   OH219817   2.987   2.603   1.487
 6604TIP3    H119818   3.054   2.537   1.505
 6604TIP3    H219819   2.920   2.587   1.553
 6605TIP3   OH219820   1.991   0.778   1.364
 6605TIP3    H119821   2.069   0.810   1.318
 6605TIP3    H219822   1.950   0.718   1.302
 6606TIP3   OH219823   2.277   5.360   3.280
 6606TIP3    H119824   2.340   5.421   3.318
 6606TIP3    H219825   2.218   5.337   3.352
 6607TIP3   OH219826   1.065   3.582   1.889
 6607TIP3    H119827   1.118   3.536   1.954
 6607TIP3    H219828   1.109   3.666   1.878
 6608TIP3   OH219829   3.618   0.581   1.495
 6608TIP3    H119830   3.534   0.557   1.457
 6608TIP3    H219831   3.657   0.498   1.522
 6609TIP3   OH219832   4.948   4.488   3.555
 6609TIP3    H119833   4.964   4.567   3.607
 6609TIP3    H219834   4.879   4.442   3.602
 6610TIP3   OH219835   4.215   5.923   1.770
 6610TIP3    H119836   4.127   5.906   1.803
 6610TIP3    H219837   4.228   6.017   1.782
 6611TIP3   OH219838   1.871   1.441   2.718
 6611TIP3    H119839   1.779   1.423   2.696
 6611TIP3    H219840   1.917   1.360   2.697
 6612TIP3   OH219841   6.310   5.532   0.218
 6612TIP3    H119842   6.229   5.490   0.246
 6612TIP3    H219843   6.286   5.624   0.204
 6613TIP3   OH219844  -0.025   1.936   0.937
 6613TIP3    H119845  -0.008   1.963   1.027
 6613TIP3    H219846   0.045   1.976   0.886
 6614TIP3   OH219847   5.617   0.342   3.837
 6614TIP3    H119848   5.707   0.309   3.845
 6614TIP3    H219849   5.564   0.265   3.818
 6615TIP3   OH219850   5.352   2.702   0.818
 6615TIP3    H119851   5.257   2.697   0.810
 6615TIP3    H219852   5.384   2.708   0.728
 6616TIP3   OH219853   5.329   1.194   3.012
 6616TIP3    H119854   5.268   1.124   2.989
 6616TIP3    H219855   5.275   1.273   3.012
 6617TIP3   OH219856   0.053   1.460   0.206
 6617TIP3    H119857   0.075   1.503   0.289
 6617TIP3    H219858  -0.035   1.426   0.220
 6618TIP3   OH219859   4.101   4.751   0.453
 6618TIP3    H119860   4.146   4.828   0.488
 6618TIP3    H219861   4.029   4.787   0.401
 6619TIP3   OH219862   2.613   3.343   3.637
 6619TIP3    H119863   2.552   3.269   3.641
 6619TIP3    H219864   2.697   3.307   3.664
 6620TIP3   OH219865   0.159   1.171   2.116
 6620TIP3    H119866   0.110   1.242   2.076
 6620TIP3    H219867   0.095   1.101   2.129
 6621TIP3   OH219868   5.363   2.016   2.351
 6621TIP3    H119869   5.296   1.957   2.316
 6621TIP3    H219870   5.322   2.103   2.347
 6622TIP3   OH219871   0.803   5.436   4.181
 6622TIP3    H119872   0.778   5.527   4.167
 6622TIP3    H219873   0.731   5.385   4.143
 6623TIP3   OH219874   1.691   0.493   3.161
 6623TIP3    H119875   1.612   0.482   3.107
 6623TIP3    H219876   1.659   0.533   3.242
 6624TIP3   OH219877   1.370   2.875   1.578
 6624TIP3    H119878   1.280   2.902   1.561
 6624TIP3    H219879   1.367   2.830   1.662
 6625TIP3   OH219880   6.016   5.619   1.586
 6625TIP3    H119881   5.942   5.633   1.526
 6625TIP3    H219882   5.976   5.607   1.671
 6626TIP3   OH219883   2.492   4.304   0.430
 6626TIP3    H119884   2.457   4.368   0.368
 6626TIP3    H219885   2.431   4.230   0.425
 6627TIP3   OH219886   3.487   2.353   2.273
 6627TIP3    H119887   3.446   2.401   2.345
 6627TIP3    H219888   3.508   2.268   2.311
 6628TIP3   OH219889   1.907   5.306   4.931
 6628TIP3    H119890   1.857   5.378   4.971
 6628TIP3    H219891   1.997   5.340   4.926
 6629TIP3   OH219892   4.016   2.435   1.705
 6629TIP3    H119893   3.964   2.356   1.690
 6629TIP3    H219894   4.022   2.442   1.800
 6630TIP3   OH219895   3.175   5.475   2.896
 6630TIP3    H119896   3.235   5.544   2.867
 6630TIP3    H219897   3.137   5.441   2.815
 6631TIP3   OH219898   2.955   5.800   1.453
 6631TIP3    H119899   3.040   5.776   1.414
 6631TIP3    H219900   2.945   5.893   1.432
 6632TIP3   OH219901   0.915   3.017   0.205
 6632TIP3    H119902   0.975   2.945   0.185
 6632TIP3    H219903   0.838   2.975   0.244
 6633TIP3   OH219904   6.346   3.372   3.087
 6633TIP3    H119905   6.292   3.407   3.158
 6633TIP3    H219906   6.343   3.440   3.019
 6634TIP3   OH219907   3.166   5.399   2.615
 6634TIP3    H119908   3.091   5.343   2.634
 6634TIP3    H219909   3.196   5.369   2.529
 6635TIP3   OH219910   0.683   3.120   4.549
 6635TIP3    H119911   0.701   3.157   4.635
 6635TIP3    H219912   0.711   3.188   4.488
 6636TIP3   OH219913   5.471   5.618   1.009
 6636TIP3    H119914   5.434   5.688   0.955
 6636TIP3    H219915   5.497   5.550   0.947
 6637TIP3   OH219916   1.596   5.864   2.784
 6637TIP3    H119917   1.599   5.891   2.876
 6637TIP3    H219918   1.503   5.870   2.760
 6638TIP3   OH219919   0.551   2.897   4.425
 6638TIP3    H119920   0.467   2.932   4.398
 6638TIP3    H219921   0.595   2.971   4.467
 6639TIP3   OH219922   5.363   3.545   0.775
 6639TIP3    H119923   5.268   3.545   0.769
 6639TIP3    H219924   5.382   3.553   0.868
 6640TIP3   OH219925   2.788   1.677   5.040
 6640TIP3    H119926   2.864   1.656   5.094
 6640TIP3    H219927   2.727   1.606   5.056
   6.34297   5.98020   5.17901   0.00000   0.00000  -2.11432   0.00000  -2.11432  -2.99011
