Title
19927
    1ASP      N    1   2.608   2.458   3.333 -0.8146 -0.1463  0.3337
    1ASP    HT1    2   2.699   2.448   3.382 -0.4030 -0.5960 -0.4937
    1ASP    HT2    3   2.566   2.363   3.330 -1.5272  0.1654  0.2765
    1ASP    HT3    4   2.541   2.522   3.381  0.9813  2.3624 -0.2453
    1ASP     CA    5   2.628   2.501   3.189 -0.1570 -0.2114 -0.2418
    1ASP     HA    6   2.689   2.590   3.185  1.3014 -1.1791 -0.1271
    1ASP     CB    7   2.715   2.392   3.111  0.1697 -0.1342 -0.4577
    1ASP    HB1    8   2.655   2.299   3.097 -2.5476  1.0656  1.9871
    1ASP    HB2    9   2.801   2.370   3.178 -0.6813 -1.6734  0.1829
    1ASP     CG   10   2.755   2.447   2.979 -0.5991  1.0021 -0.6206
    1ASP    OD1   11   2.747   2.570   2.952 -0.0532  0.0343  0.0628
    1ASP    OD2   12   2.796   2.361   2.894  0.3584  0.5380  0.5640
    1ASP      C   13   2.489   2.527   3.137  0.5389  0.1731  0.3624
    1ASP      O   14   2.382   2.528   3.207 -0.1564  0.2287  0.6537
    2ALA      N   15   2.465   2.562   3.006  0.3105  0.0456 -0.0051
    2ALA     HN   16   2.541   2.561   2.942  0.8445 -0.3790  0.6179
    2ALA     CA   17   2.335   2.621   2.963  0.7862  0.0605 -0.7533
    2ALA     HA   18   2.317   2.713   3.017  1.8193 -0.3526  0.3154
    2ALA     CB   19   2.351   2.667   2.816  0.2794  0.4602 -0.0573
    2ALA    HB1   20   2.252   2.707   2.784  1.3250  2.4405 -0.9982
    2ALA    HB2   21   2.372   2.582   2.747  0.9278  0.3915  0.2231
    2ALA    HB3   22   2.426   2.748   2.806  1.1439 -0.2965  0.1953
    2ALA      C   23   2.203   2.533   2.980 -1.0401 -0.2029 -0.5420
    2ALA      O   24   2.205   2.414   2.970  0.4465  0.3292  0.1723
    3ASP      N   25   2.087   2.597   3.013  0.5661 -0.4438  0.2412
    3ASP     HN   26   2.084   2.696   3.022  1.4374 -0.4079  0.2113
    3ASP     CA   27   1.957   2.549   3.048  0.7976  0.3123 -0.2792
    3ASP     HA   28   1.965   2.490   3.138 -0.1514 -1.9649 -1.6114
    3ASP     CB   29   1.865   2.672   3.075 -0.3072  0.3723  0.1424
    3ASP    HB1   30   1.759   2.642   3.088 -0.0404 -1.2829 -1.1831
    3ASP    HB2   31   1.865   2.743   2.990 -0.2086  1.6184  1.1513
    3ASP     CG   32   1.922   2.730   3.202  0.7228  0.0073  0.7077
    3ASP    OD1   33   1.942   2.656   3.301 -0.2653 -0.0197  0.2289
    3ASP    OD2   34   1.911   2.850   3.221 -0.1014 -0.1705 -0.1840
    3ASP      C   35   1.900   2.453   2.950 -0.2207  0.4966  0.3159
    3ASP      O   36   1.904   2.472   2.830  0.0686  0.5082 -0.1866
    4GLY      N   37   1.846   2.334   2.996 -0.3808 -0.0829  0.2975
    4GLY     HN   38   1.827   2.316   3.093 -0.3317  0.2024  0.3617
    4GLY     CA   39   1.804   2.222   2.914 -0.1099  0.1985  0.1704
    4GLY    HA1   40   1.765   2.140   2.973  0.0696 -1.5264 -1.9926
    4GLY    HA2   41   1.897   2.196   2.866 -0.6099 -2.8291  0.6121
    4GLY      C   42   1.695   2.274   2.813 -0.0709  0.3650 -0.2572
    4GLY      O   43   1.639   2.384   2.815 -0.4052  0.4177  0.4954
    5PRO      N   44   1.671   2.189   2.714  0.1176 -0.7247 -0.6604
    5PRO     CD   45   1.728   2.056   2.711 -0.3033 -0.5076 -0.1862
    5PRO    HD1   46   1.731   2.003   2.809  1.7702  0.7100  0.4717
    5PRO    HD2   47   1.827   2.076   2.664 -0.5637  0.6587 -0.2660
    5PRO     CA   48   1.575   2.212   2.604  0.3599  0.1419  0.1207
    5PRO     HA   49   1.612   2.293   2.542 -0.6649 -0.4489 -1.2941
    5PRO     CB   50   1.586   2.077   2.525 -0.7991  0.1564 -0.1063
    5PRO    HB1   51   1.652   2.082   2.436 -0.0462 -0.7605  0.3873
    5PRO    HB2   52   1.487   2.036   2.494 -1.7279  1.6370  0.7629
    5PRO     CG   53   1.636   1.973   2.625 -0.4758  0.5208 -0.2378
    5PRO    HG1   54   1.551   1.930   2.682 -0.3375 -1.1926 -1.2674
    5PRO    HG2   55   1.689   1.891   2.572  1.5156  1.3720  0.3516
    5PRO      C   56   1.434   2.252   2.628  0.6457 -0.2543  0.9040
    5PRO      O   57   1.369   2.305   2.534  0.0634  0.0722 -0.0561
    6GLY      N   58   1.371   2.209   2.743 -0.2044 -0.3946  0.2317
    6GLY     HN   59   1.427   2.173   2.816  0.4647  1.2922  0.6037
    6GLY     CA   60   1.228   2.244   2.770  0.5395 -0.3385 -0.5945
    6GLY    HA1   61   1.210   2.342   2.727  0.4604  0.2286  0.6988
    6GLY    HA2   62   1.210   2.238   2.876 -0.8964  1.1343 -0.7275
    6GLY      C   63   1.124   2.158   2.713 -0.0677 -0.4635 -1.0719
    6GLY      O   64   1.009   2.190   2.735  0.1487 -0.2456  0.3404
    7ASP      N   65   1.166   2.051   2.640 -0.1616 -0.1733  0.3117
    7ASP     HN   66   1.265   2.041   2.635 -0.3057 -1.3020 -0.9434
    7ASP     CA   67   1.067   1.973   2.565  0.4269  0.1979 -0.4090
    7ASP     HA   68   0.997   2.041   2.517  0.6478  1.2154  0.6732
    7ASP     CB   69   1.140   1.886   2.455  0.4226 -0.5608 -0.2326
    7ASP    HB1   70   1.067   1.812   2.416 -0.8226  0.5138  0.0089
    7ASP    HB2   71   1.219   1.826   2.506  0.0061 -3.0303 -2.3249
    7ASP     CG   72   1.194   1.969   2.342  1.1149 -0.7939 -0.1552
    7ASP    OD1   73   1.157   2.090   2.324 -0.3181  0.8560  0.8427
    7ASP    OD2   74   1.277   1.912   2.262  0.1821 -0.3812 -0.2895
    7ASP      C   75   1.001   1.874   2.665  0.2239 -0.0148 -0.0566
    7ASP      O   76   1.063   1.835   2.765  0.0080 -0.4468  0.3259
    8PRO      N   77   0.883   1.830   2.649  0.3858  0.4377 -0.1809
    8PRO     CD   78   0.790   1.890   2.547  0.1825 -0.2181  0.2021
    8PRO    HD1   79   0.834   1.883   2.446  1.3021 -1.7654  0.7669
    8PRO    HD2   80   0.766   1.993   2.582 -2.6875 -0.2603 -1.3332
    8PRO     CA   81   0.828   1.719   2.722 -0.2306  0.0679 -0.2101
    8PRO     HA   82   0.787   1.755   2.816 -0.5110 -1.4180  0.2689
    8PRO     CB   83   0.717   1.666   2.628  0.1265  0.2089  0.2623
    8PRO    HB1   84   0.630   1.616   2.677 -0.7759 -0.6985 -2.1438
    8PRO    HB2   85   0.753   1.594   2.552 -1.5327 -1.0464  0.6149
    8PRO     CG   86   0.665   1.801   2.565  0.1021  0.1188  0.7437
    8PRO    HG1   87   0.604   1.781   2.475  2.6027 -1.7022 -0.6776
    8PRO    HG2   88   0.597   1.855   2.635  0.5212  1.3903  0.1939
    8PRO      C   89   0.915   1.601   2.759 -0.2052 -0.1619 -0.4734
    8PRO      O   90   1.002   1.571   2.683  0.9001  0.3208 -0.1162
    9ASP      N   91   0.896   1.538   2.876 -0.1324 -0.2192  0.0887
    9ASP     HN   92   0.817   1.559   2.933 -1.9805  0.9268 -2.7095
    9ASP     CA   93   0.974   1.423   2.920 -0.7175  0.0877  0.6221
    9ASP     HA   94   1.078   1.451   2.909 -0.7838  1.3420  2.5242
    9ASP     CB   95   0.935   1.394   3.065  0.3744 -0.0101 -0.3489
    9ASP    HB1   96   1.003   1.311   3.093  2.5680  1.5827 -0.7034
    9ASP    HB2   97   0.827   1.371   3.075  0.0673  1.8567  1.4533
    9ASP     CG   98   0.964   1.496   3.172 -0.2399  0.2308 -0.2430
    9ASP    OD1   99   1.058   1.577   3.166  0.2247 -0.3416  0.1083
    9ASP    OD2  100   0.895   1.480   3.273  0.4194 -0.0832 -0.4947
    9ASP      C  101   0.965   1.301   2.834  0.4144  0.5421 -0.3630
    9ASP      O  102   0.872   1.281   2.749 -0.1623  0.1617  0.3727
   10ALA      N  103   1.074   1.211   2.844  0.2518  0.2586  0.3280
   10ALA     HN  104   1.143   1.213   2.916 -1.3928 -0.8849  2.0221
   10ALA     CA  105   1.088   1.111   2.744  0.4616  0.4049  0.0260
   10ALA     HA  106   1.046   1.136   2.647  0.5089 -0.3475 -0.1941
   10ALA     CB  107   1.241   1.090   2.721 -0.7080  0.3408  0.0877
   10ALA    HB1  108   1.287   1.049   2.813  1.2877 -0.7351 -1.3178
   10ALA    HB2  109   1.296   1.185   2.705  1.1030 -0.1470  2.7784
   10ALA    HB3  110   1.262   1.022   2.636 -0.0644  0.8438 -0.1665
   10ALA      C  111   1.034   0.975   2.775  0.8988  0.1156  0.4488
   10ALA      O  112   1.022   0.887   2.685 -0.2011  0.2670  0.5950
   11GLY      N  113   0.975   0.955   2.904  0.0768 -0.6425 -0.0699
   11GLY     HN  114   0.985   1.028   2.971 -2.0720 -0.8253  0.4975
   11GLY     CA  115   0.907   0.832   2.940  0.6529  0.0924  0.1953
   11GLY    HA1  116   0.852   0.804   2.851  1.0634  1.8942 -0.6759
   11GLY    HA2  117   0.835   0.863   3.014 -0.1833  0.5576 -0.7997
   11GLY      C  118   0.995   0.712   2.997  0.0922  0.0137  0.0780
   11GLY    OT1  119   1.085   0.741   3.074  0.0967  0.0472 -0.4208
   11GLY    OT2  120   0.958   0.594   2.965 -0.1663  0.6523  0.4090
   12SOD    SOD  121   4.907   2.512   3.752 -0.0212  0.6036  0.0107
   13SOD    SOD  122   2.634   3.670   0.924  0.0446  0.0437  0.0194
   14SOD    SOD  123   5.768   5.930   0.800  0.5948 -0.8596  0.5117
   15SOD    SOD  124   4.284   5.627   2.676  0.3630  0.3051  0.3590
   16SOD    SOD  125   3.025   1.398   4.160 -0.0688  0.1796  0.3040
   17SOD    SOD  126   4.024   1.800   2.738  0.5100 -1.1593 -0.1833
   18SOD    SOD  127   3.292   5.800   3.161  0.2326 -0.4892  0.2843
   19SOD    SOD  128   3.726   5.880   1.153  0.1001 -0.3575 -0.0173
   20SOD    SOD  129   1.860   4.555   1.733  0.4166  0.0663  0.0780
   21SOD    SOD  130   3.677   4.837   1.622  0.2719  0.2033 -0.2411
   22SOD    SOD  131   0.662   2.174   3.319  0.3235  0.1968 -0.0625
   23SOD    SOD  132   1.875   1.303   2.758 -0.5100  0.7221 -0.1910
   24SOD    SOD  133   0.901   0.800   3.727  0.0271  0.4661 -0.2512
   25SOD    SOD  134   2.506   5.942   4.956  0.3177 -0.0854  0.5725
   26SOD    SOD  135   2.698   5.573   2.534 -0.1463  0.0154  0.2707
   27SOD    SOD  136   0.697   0.642   0.529 -0.2010 -0.3812 -0.4578
   28SOD    SOD  137   2.296   4.060   0.976 -0.3335 -0.8788 -0.0140
   29SOD    SOD  138   3.625   5.675   1.741  0.2720 -0.0295  0.4498
   30SOD    SOD  139   2.755   1.661   1.106  0.1101  0.0732 -0.1036
   31SOD    SOD  140   2.059   3.544   2.896  0.3493 -0.0960  0.2244
   32SOD    SOD  141   1.510   0.729   5.111  0.0481  0.2250  0.5116
   33SOD    SOD  142   2.864   3.706   3.661  0.3017 -0.0252  0.0491
   34CLA    CLA  143   3.918   4.447   2.141 -0.0236 -0.2621 -0.1314
   35CLA    CLA  144   3.702   1.700   0.065  0.0551  0.0635 -0.2519
   36CLA    CLA  145   0.787   2.034   1.565  0.2630  0.5722  0.0876
   37CLA    CLA  146   1.012   4.938   3.361  0.0238  0.0653  0.1951
   38CLA    CLA  147   5.204   4.727   0.320  0.1436 -0.1862 -0.0657
   39CLA    CLA  148   2.919   4.257   0.613 -0.2755 -0.1117 -0.1455
   40CLA    CLA  149   4.587   0.402   3.097  0.1659 -0.1703  0.1587
   41CLA    CLA  150   4.023   0.823   3.791 -0.2308  0.2132 -0.1881
   42CLA    CLA  151   0.874   1.483   3.975 -0.2420 -0.1290 -0.0186
   43CLA    CLA  152   1.100   2.560   0.265  0.5733  0.4855 -0.0793
   44CLA    CLA  153   0.057   1.621   3.994  0.1345  0.0517  0.2117
   45CLA    CLA  154   2.321   5.162   0.236  0.2631 -0.0484  0.2980
   46CLA    CLA  155   0.142   3.279   4.234 -0.3660  0.0361 -0.1556
   47CLA    CLA  156   0.479   1.429   0.522  0.0045 -0.1340  0.4061
   48CLA    CLA  157   4.880   2.775   3.680 -0.3133 -0.2138 -0.2060
   49CLA    CLA  158   5.105   4.439   1.149 -0.3325 -0.1071  0.0916
   50CLA    CLA  159   2.758   2.768   4.299  0.1674  0.1680  0.2356
   51CLA    CLA  160   2.947   5.255   1.024 -0.1603 -0.0198  0.1568
   52TIP3   OH2  161   1.296   2.701   3.718 -0.4450  0.0739  0.3040
   52TIP3    H1  162   1.327   2.611   3.722  0.7838  0.4946  0.7958
   52TIP3    H2  163   1.359   2.745   3.661 -0.5257  0.8111  0.7683
   53TIP3   OH2  164   3.457   3.492   5.096 -0.0493 -0.2314  0.6732
   53TIP3    H1  165   3.482   3.575   5.137 -0.2468 -0.0593  0.4479
   53TIP3    H2  166   3.392   3.517   5.030  0.1147 -0.5300  0.3985
   54TIP3   OH2  167   5.843   5.467   4.889 -0.2902 -0.1739  0.8912
   54TIP3    H1  168   5.866   5.558   4.875 -0.2080 -0.3672 -0.3534
   54TIP3    H2  169   5.923   5.427   4.922  0.5756 -0.3651 -1.2753
   55TIP3   OH2  170   2.082   2.800   0.978  0.4920 -0.2933 -0.0623
   55TIP3    H1  171   2.013   2.797   0.912  0.2326 -2.3178  0.2208
   55TIP3    H2  172   2.050   2.743   1.048  0.8437  1.6041  1.7529
   56TIP3   OH2  173   6.204   0.616   0.565  0.2636 -0.4339  0.2770
   56TIP3    H1  174   6.285   0.611   0.617 -0.1007  0.2823  0.9368
   56TIP3    H2  175   6.235   0.617   0.474  0.9527 -0.9977  0.4955
   57TIP3   OH2  176   2.041   3.728   2.306 -0.0332 -0.0638 -0.0713
   57TIP3    H1  177   2.072   3.659   2.248  0.9719 -1.7042  2.2450
   57TIP3    H2  178   2.038   3.807   2.252  1.1572 -1.4059 -2.2026
   58TIP3   OH2  179   6.000   3.062   1.527  0.2355 -0.1445 -0.3194
   58TIP3    H1  180   6.050   2.988   1.495 -0.5389 -0.4694 -0.8076
   58TIP3    H2  181   5.943   3.025   1.595 -0.0823  0.0177 -0.4961
   59TIP3   OH2  182   1.491   3.573   1.549 -0.0162  0.1243 -0.1684
   59TIP3    H1  183   1.582   3.571   1.520  0.0371 -2.6904 -0.0882
   59TIP3    H2  184   1.496   3.585   1.644  0.2355  0.6291 -0.2451
   60TIP3   OH2  185   4.686   0.673  -0.015  0.6129  0.3712  0.3007
   60TIP3    H1  186   4.673   0.698   0.076  2.0200  0.5314  0.4867
   60TIP3    H2  187   4.760   0.612  -0.013 -0.0290 -0.4904 -0.6200
   61TIP3   OH2  188   3.874   0.493   3.341 -0.3357 -0.3529  0.0924
   61TIP3    H1  189   3.893   0.510   3.248  1.1890 -0.8538  0.2773
   61TIP3    H2  190   3.876   0.579   3.382 -0.9125 -0.1378 -0.3102
   62TIP3   OH2  191   3.868   4.061   0.918  0.4681  0.4787 -1.0638
   62TIP3    H1  192   3.865   4.142   0.869  1.5240  1.1550 -0.0675
   62TIP3    H2  193   3.942   4.072   0.978 -0.5257 -0.4488  0.4031
   63TIP3   OH2  194   2.722   0.375   1.603  0.0689  0.2376  0.2618
   63TIP3    H1  195   2.734   0.469   1.590  1.4236  0.2608  1.4189
   63TIP3    H2  196   2.755   0.359   1.691 -0.2691 -1.3043  0.1265
   64TIP3   OH2  197   0.173   0.761   4.294 -0.1711 -0.8811  0.5959
   64TIP3    H1  198   0.187   0.682   4.242  0.7431  0.4121 -1.2685
   64TIP3    H2  199   0.156   0.829   4.229 -0.0835  0.6312  2.0882
   65TIP3   OH2  200   1.205   2.353   2.039 -0.0077 -0.3417  0.2232
   65TIP3    H1  201   1.292   2.388   2.058  0.9343 -0.7773 -2.8417
   65TIP3    H2  202   1.220   2.260   2.022 -0.6954 -0.0523 -2.2645
   66TIP3   OH2  203   5.941   3.771   2.992 -0.1419  0.2954 -0.3497
   66TIP3    H1  204   6.018   3.776   2.936 -1.2037 -2.4474 -2.2734
   66TIP3    H2  205   5.973   3.793   3.080  2.4325  0.8071 -1.3359
   67TIP3   OH2  206   4.948   1.966   5.085 -0.0622 -0.0105  0.3900
   67TIP3    H1  207   4.881   1.902   5.063  0.7718 -1.2471  1.2651
   67TIP3    H2  208   4.913   2.014   5.160  0.0320 -0.6646  0.8571
   68TIP3   OH2  209   5.517   4.031   0.205 -0.0953  0.2286 -0.4469
   68TIP3    H1  210   5.564   4.114   0.199 -1.2476  0.7884 -2.8295
   68TIP3    H2  211   5.428   4.052   0.178 -1.1100 -1.3181  1.4317
   69TIP3   OH2  212   3.018   4.921   0.608  0.2615  0.0863  0.2345
   69TIP3    H1  213   2.983   4.920   0.697  1.2301 -0.0691  0.6256
   69TIP3    H2  214   3.032   5.013   0.589 -1.0877  0.2218 -0.2402
   70TIP3   OH2  215   5.788   0.080   1.595 -0.7216  1.4411  0.3085
   70TIP3    H1  216   5.798   0.017   1.667 -0.2684  0.9293 -0.1907
   70TIP3    H2  217   5.877   0.090   1.560 -0.8269  2.2134  0.2544
   71TIP3   OH2  218   1.484   1.999   2.936  0.0816  0.1312 -0.4255
   71TIP3    H1  219   1.390   1.986   2.941 -0.0847  0.2288 -2.5691
   71TIP3    H2  220   1.521   1.914   2.960 -0.4834  0.3055  1.1856
   72TIP3   OH2  221   2.307   4.852   2.500 -0.0455 -0.2232 -0.7395
   72TIP3    H1  222   2.338   4.770   2.463 -0.8302 -0.5007 -0.7993
   72TIP3    H2  223   2.218   4.833   2.530  0.2931  0.2058  0.5819
   73TIP3   OH2  224   0.624   4.851   3.558  0.7702  0.4095 -0.0028
   73TIP3    H1  225   0.529   4.861   3.564  0.6101  0.3308 -1.7631
   73TIP3    H2  226   0.659   4.934   3.590 -0.0324  1.6154 -2.0225
   74TIP3   OH2  227   2.534   3.739   2.075 -0.0278 -0.2102  0.2406
   74TIP3    H1  228   2.592   3.666   2.051 -0.0599 -0.5620  1.2014
   74TIP3    H2  229   2.582   3.788   2.141 -0.7387 -0.3917  0.9089
   75TIP3   OH2  230   5.146   4.788   2.440  0.0980 -0.0227 -0.4884
   75TIP3    H1  231   5.053   4.770   2.421  0.1980 -0.0407 -0.9610
   75TIP3    H2  232   5.169   4.860   2.382  0.7180 -0.8333 -1.2951
   76TIP3   OH2  233   3.317   2.958   3.902  0.2520 -0.2171 -0.2274
   76TIP3    H1  234   3.259   2.915   3.839  1.0834 -0.5913 -0.7521
   76TIP3    H2  235   3.373   3.014   3.849 -0.2603  0.9062  0.3720
   77TIP3   OH2  236   3.247   5.909   0.573  0.2690 -0.1921  0.3643
   77TIP3    H1  237   3.187   5.978   0.543 -0.6168 -0.1411  2.0962
   77TIP3    H2  238   3.334   5.943   0.554 -0.1863  0.9078  0.1629
   78TIP3   OH2  239   5.258   5.254   0.452  0.1902  0.5495  0.7866
   78TIP3    H1  240   5.307   5.194   0.508  1.9898  1.0031 -0.2040
   78TIP3    H2  241   5.175   5.269   0.498  1.2007  0.1838  2.8318
   79TIP3   OH2  242   2.260   3.913   4.347  0.1128 -0.2768  0.0769
   79TIP3    H1  243   2.281   3.819   4.343  0.3845 -0.2466  0.6808
   79TIP3    H2  244   2.192   3.920   4.413 -0.5697 -0.1517 -0.6253
   80TIP3   OH2  245   0.944   5.054   1.964 -0.1062  0.3478 -0.0092
   80TIP3    H1  246   1.036   5.033   1.951  0.3871  2.2263  0.1889
   80TIP3    H2  247   0.906   4.973   1.999  1.8559  0.0607  1.6707
   81TIP3   OH2  248   6.282   3.452   2.220 -0.3994  0.2597 -0.1484
   81TIP3    H1  249   6.320   3.373   2.183 -1.4107 -0.1678 -0.3207
   81TIP3    H2  250   6.347   3.483   2.283 -0.7414 -1.7671  1.3108
   82TIP3   OH2  251   0.696   4.392   2.144 -0.0563  0.2688  0.6699
   82TIP3    H1  252   0.781   4.350   2.130 -0.3538 -0.4206  0.9292
   82TIP3    H2  253   0.707   4.480   2.106  0.2580 -0.3586 -0.7480
   83TIP3   OH2  254   5.059   1.611   3.264  0.1670  0.6098  0.0188
   83TIP3    H1  255   5.112   1.586   3.340  1.0686 -0.0573 -0.7976
   83TIP3    H2  256   5.123   1.639   3.199 -0.6269  1.7210 -0.3064
   84TIP3   OH2  257   0.818   2.365   2.821  0.0471 -0.1096 -0.3655
   84TIP3    H1  258   0.824   2.349   2.915 -0.0237 -1.6393 -0.5951
   84TIP3    H2  259   0.891   2.316   2.783  1.0823  1.7989 -1.0152
   85TIP3   OH2  260   1.345   1.440   4.936 -0.4280 -0.0476  0.0930
   85TIP3    H1  261   1.343   1.409   5.026 -0.4403 -0.0118  0.1052
   85TIP3    H2  262   1.438   1.446   4.914 -0.4304 -0.5835 -0.0802
   86TIP3   OH2  263   4.332   1.502   2.434 -0.1902  0.3349 -0.5076
   86TIP3    H1  264   4.267   1.496   2.363 -0.3606  0.3416 -0.3539
   86TIP3    H2  265   4.411   1.463   2.397  0.0377  1.2914 -1.0578
   87TIP3   OH2  266   0.280   1.195   0.474  0.0319  0.3366  0.6504
   87TIP3    H1  267   0.349   1.261   0.480 -1.6526  2.3159 -0.4235
   87TIP3    H2  268   0.211   1.226   0.532 -1.4071  0.3764 -0.9983
   88TIP3   OH2  269   3.899   0.770   3.429 -0.2433  0.3233 -0.5349
   88TIP3    H1  270   3.993   0.759   3.413  0.2944  1.9551  1.1475
   88TIP3    H2  271   3.893   0.793   3.522 -2.3069  0.4502 -0.6514
   89TIP3   OH2  272   6.108   2.152   2.445 -0.1344  0.3252 -0.3026
   89TIP3    H1  273   6.066   2.238   2.438 -0.7776  0.0827  0.4798
   89TIP3    H2  274   6.175   2.163   2.512 -2.4852 -0.6064  2.4097
   90TIP3   OH2  275   4.540   3.561   3.943 -0.9520 -0.5368  0.2193
   90TIP3    H1  276   4.513   3.513   4.021 -0.2584 -1.3335 -0.0137
   90TIP3    H2  277   4.603   3.625   3.974 -1.3489 -0.2513  0.4361
   91TIP3   OH2  278   1.880   3.986   3.949  0.4317  1.1364 -0.4491
   91TIP3    H1  279   1.836   3.924   3.891 -2.7164  1.9917  0.8626
   91TIP3    H2  280   1.936   3.931   4.004 -2.0426 -0.6032  0.4821
   92TIP3   OH2  281   1.761   2.096   3.713  0.3538 -0.0175  0.0239
   92TIP3    H1  282   1.752   2.163   3.780 -3.5221  1.4895 -1.6895
   92TIP3    H2  283   1.855   2.095   3.692  0.9779  2.8010  2.1165
   93TIP3   OH2  284   5.600   2.626   3.943 -0.9038  0.0543  0.4216
   93TIP3    H1  285   5.594   2.602   4.035 -0.0518  1.0100  0.7539
   93TIP3    H2  286   5.668   2.568   3.908 -0.1503  0.6850  0.7827
   94TIP3   OH2  287   3.626   1.553   0.567 -0.5109  0.2673 -0.0448
   94TIP3    H1  288   3.695   1.609   0.604 -0.1548  0.3712 -0.8591
   94TIP3    H2  289   3.662   1.522   0.484  0.0866 -2.6893  1.1910
   95TIP3   OH2  290   4.247   2.508   4.095  0.9169 -0.5731  0.2383
   95TIP3    H1  291   4.261   2.564   4.172  0.0098 -2.7133  2.0843
   95TIP3    H2  292   4.198   2.562   4.034 -1.3949  0.1929  2.6117
   96TIP3   OH2  293   3.606   1.461   0.847  0.2984 -0.0934  0.2859
   96TIP3    H1  294   3.659   1.469   0.767  0.1277 -1.6867 -0.0283
   96TIP3    H2  295   3.563   1.546   0.856 -0.3480 -0.1293 -1.8101
   97TIP3   OH2  296   4.832   1.648   4.183  0.1102  0.2122  0.2536
   97TIP3    H1  297   4.896   1.590   4.226  0.7302  0.5271 -0.2292
   97TIP3    H2  298   4.843   1.732   4.227 -0.1541  0.2084  0.3319
   98TIP3   OH2  299   4.862   4.454   4.682  0.5168 -0.1643  0.2764
   98TIP3    H1  300   4.912   4.462   4.601  0.9550 -0.3850  0.5195
   98TIP3    H2  301   4.802   4.381   4.666  0.1692  0.1896 -0.0644
   99TIP3   OH2  302   5.903   1.720   2.050  0.0267 -0.6997 -0.2328
   99TIP3    H1  303   5.937   1.705   2.138  0.5475 -0.5794 -0.4062
   99TIP3    H2  304   5.981   1.738   1.997 -0.5115  2.9307 -0.0136
  100TIP3   OH2  305   2.894   3.006   4.484 -0.3256 -0.2402  0.1283
  100TIP3    H1  306   2.843   3.073   4.438 -1.7907 -0.3378  1.5295
  100TIP3    H2  307   2.878   2.926   4.433 -0.3841  0.0232 -0.2760
  101TIP3   OH2  308   5.979   5.353   3.423  0.4875  0.3436 -0.1546
  101TIP3    H1  309   5.988   5.444   3.395  1.2148  0.5172  0.6352
  101TIP3    H2  310   6.067   5.326   3.449  0.1127 -0.2901  0.5051
  102TIP3   OH2  311   4.072   5.259   1.629 -0.0176  0.6881  0.5268
  102TIP3    H1  312   4.119   5.283   1.549  0.7469  1.7566  1.2683
  102TIP3    H2  313   4.141   5.247   1.695 -0.6020 -0.5649  0.9520
  103TIP3   OH2  314   1.653   1.598   0.517  0.2192 -0.0778  0.0735
  103TIP3    H1  315   1.677   1.673   0.462 -1.1434  0.3688  0.0604
  103TIP3    H2  316   1.736   1.570   0.556  0.8223  1.1650 -0.2522
  104TIP3   OH2  317   1.103   4.510   2.027 -0.5441  0.2868 -0.3159
  104TIP3    H1  318   1.168   4.471   1.969 -0.7932  0.9315 -1.0411
  104TIP3    H2  319   1.026   4.455   2.018 -1.3595  1.6576 -2.3902
  105TIP3   OH2  320   5.253   3.153   3.617 -0.2276 -0.2327 -0.2601
  105TIP3    H1  321   5.199   3.091   3.567 -0.5413 -0.3062  0.1669
  105TIP3    H2  322   5.193   3.225   3.638 -0.1629 -0.3113  0.2113
  106TIP3   OH2  323   1.214   0.536   4.609  0.0873  0.1874 -0.0374
  106TIP3    H1  324   1.146   0.600   4.589 -1.2006  0.5340  4.4130
  106TIP3    H2  325   1.281   0.586   4.656  1.7911 -0.8022 -1.3067
  107TIP3   OH2  326   0.426   3.253   4.328 -0.5865 -0.4116 -0.0075
  107TIP3    H1  327   0.479   3.329   4.306  0.0527 -0.6302  0.7350
  107TIP3    H2  328   0.339   3.273   4.292 -0.3103  0.4596 -0.2110
  108TIP3   OH2  329   5.794   0.530   2.544 -0.0540 -0.3541 -0.0010
  108TIP3    H1  330   5.773   0.589   2.616  0.8506  1.3797 -1.0705
  108TIP3    H2  331   5.885   0.504   2.560 -0.0092 -0.3508 -0.2415
  109TIP3   OH2  332   6.153   5.872   0.639 -0.0203 -0.0599 -0.4204
  109TIP3    H1  333   6.062   5.863   0.666 -0.3264 -1.4440 -1.7417
  109TIP3    H2  334   6.194   5.788   0.661  0.2198 -0.4755 -2.2278
  110TIP3   OH2  335   2.415   0.938   0.176 -0.1574 -0.4521 -0.7755
  110TIP3    H1  336   2.506   0.912   0.190  0.0647  0.8499  0.3955
  110TIP3    H2  337   2.403   1.014   0.233 -2.3632 -1.3668  0.0544
  111TIP3   OH2  338   3.634   3.416   2.699  0.0274 -1.0173  0.1750
  111TIP3    H1  339   3.707   3.414   2.760  0.9748 -0.8975 -0.9173
  111TIP3    H2  340   3.568   3.471   2.741  1.0387 -0.1485  0.6615
  112TIP3   OH2  341   0.378   0.648   1.742 -0.2710 -0.1910  0.6008
  112TIP3    H1  342   0.400   0.741   1.748 -0.7589  0.0203 -0.6661
  112TIP3    H2  343   0.451   0.609   1.694 -1.4065  0.0734 -1.4135
  113TIP3   OH2  344   0.526   4.449   1.596  0.3278  0.1109  0.1864
  113TIP3    H1  345   0.436   4.426   1.570  1.3450 -1.3200 -2.5410
  113TIP3    H2  346   0.528   4.436   1.690 -2.0775 -0.7698  0.1922
  114TIP3   OH2  347   2.378   3.375   0.128  0.3634 -0.0092  0.0709
  114TIP3    H1  348   2.418   3.461   0.122 -0.4044  0.3571  0.1560
  114TIP3    H2  349   2.375   3.355   0.221 -1.0599  0.6540  0.2011
  115TIP3   OH2  350   4.102   5.282   2.968 -0.2401  0.2301  0.5620
  115TIP3    H1  351   4.061   5.229   2.899  0.2206 -1.1378  1.2915
  115TIP3    H2  352   4.183   5.314   2.928 -1.1967  1.6015 -0.3523
  116TIP3   OH2  353   1.926   5.947   2.961 -0.3778 -0.0040 -0.3102
  116TIP3    H1  354   1.875   6.028   2.965  1.7255  1.3887  0.5964
  116TIP3    H2  355   1.926   5.915   3.051  0.3839  0.0708 -0.2782
  117TIP3   OH2  356   5.698   1.469   2.263  0.0544  0.2670 -0.3739
  117TIP3    H1  357   5.765   1.451   2.329 -1.3172 -1.3163  0.6598
  117TIP3    H2  358   5.665   1.556   2.285  0.0741  0.0311  0.6065
  118TIP3   OH2  359   1.498   4.127   2.293 -0.0278 -0.0126  0.0944
  118TIP3    H1  360   1.444   4.187   2.344  2.8156  0.8925  2.3057
  118TIP3    H2  361   1.521   4.177   2.215  0.9279  1.1989  1.1123
  119TIP3   OH2  362   2.815   1.615   1.766  0.3500  0.1298  0.1189
  119TIP3    H1  363   2.907   1.593   1.750 -0.0010 -0.4561 -1.2745
  119TIP3    H2  364   2.811   1.640   1.858  1.6297 -1.3213  0.6040
  120TIP3   OH2  365   6.139   4.437   5.015 -0.4862 -0.2842 -0.1462
  120TIP3    H1  366   6.198   4.400   4.950  0.2162 -1.4544  1.1151
  120TIP3    H2  367   6.167   4.399   5.098 -1.1726  1.3699  0.9086
  121TIP3   OH2  368   3.837   2.185   0.461 -0.2461 -0.0222 -0.4031
  121TIP3    H1  369   3.785   2.227   0.531  0.6734 -0.8047  0.7891
  121TIP3    H2  370   3.870   2.258   0.409 -0.4287  0.6176  0.3581
  122TIP3   OH2  371   1.191   4.021   4.319 -0.1546  0.1651 -0.0722
  122TIP3    H1  372   1.106   4.059   4.343 -1.2706 -1.5656 -1.1415
  122TIP3    H2  373   1.247   4.098   4.306 -1.7771  1.3920 -0.2427
  123TIP3   OH2  374   1.500   0.426   3.118  0.6534 -0.6973 -0.9556
  123TIP3    H1  375   1.552   0.506   3.119 -1.4938  0.7916  0.5200
  123TIP3    H2  376   1.410   0.455   3.101 -0.2873 -2.6902  0.1637
  124TIP3   OH2  377   3.393   5.861   4.514  0.3954  0.0212 -0.0990
  124TIP3    H1  378   3.369   5.878   4.605  3.1133 -0.3379  0.7791
  124TIP3    H2  379   3.485   5.886   4.509  0.2409  0.2956 -2.8614
  125TIP3   OH2  380   3.734   3.344   1.647 -0.1019  0.3024  0.1707
  125TIP3    H1  381   3.653   3.393   1.630 -1.4741 -1.0665  2.3295
  125TIP3    H2  382   3.740   3.340   1.743  1.5932 -1.1325  0.0524
  126TIP3   OH2  383   1.867   3.387   3.942 -0.1364  0.0825  0.2867
  126TIP3    H1  384   1.894   3.477   3.926  0.2376 -0.2541 -1.1231
  126TIP3    H2  385   1.862   3.347   3.855 -2.2016 -0.7364  0.7278
  127TIP3   OH2  386   2.611   3.042   3.335 -0.1939 -0.1499  0.5327
  127TIP3    H1  387   2.690   3.093   3.315 -0.3713 -0.0488  0.0773
  127TIP3    H2  388   2.626   3.009   3.424  0.2539  0.0703  0.5439
  128TIP3   OH2  389   2.949   1.193   2.477 -0.1585  0.2354  0.4828
  128TIP3    H1  390   2.945   1.124   2.543  0.2254 -1.4441 -1.1612
  128TIP3    H2  391   2.951   1.147   2.394  0.4849  2.2378 -0.6926
  129TIP3   OH2  392   0.852   1.446   3.669 -0.4432 -0.2226  0.1954
  129TIP3    H1  393   0.833   1.358   3.635  0.5930 -0.5014  0.3076
  129TIP3    H2  394   0.831   1.440   3.762  2.0249 -1.1552  0.7754
  130TIP3   OH2  395   1.777   1.702   3.562 -1.0434  0.4913  0.1800
  130TIP3    H1  396   1.737   1.775   3.515 -1.3480  0.8843  1.0299
  130TIP3    H2  397   1.735   1.702   3.648 -1.3296 -0.9322  0.0687
  131TIP3   OH2  398   2.640   1.368   5.021 -0.0934  0.0443  0.1813
  131TIP3    H1  399   2.619   1.317   5.099  0.2661  0.6140  0.6580
  131TIP3    H2  400   2.574   1.438   5.021 -0.9699 -0.7512 -0.8070
  132TIP3   OH2  401   0.381   2.400   2.020  0.0351  0.2436 -0.1213
  132TIP3    H1  402   0.398   2.320   1.971  2.9066 -0.1902  1.4242
  132TIP3    H2  403   0.311   2.376   2.081 -0.1617 -0.6214 -0.6686
  133TIP3   OH2  404   4.735   4.879   1.593  0.7261  0.5108 -0.0207
  133TIP3    H1  405   4.816   4.892   1.543  1.5704  0.6300  1.3269
  133TIP3    H2  406   4.744   4.791   1.630 -0.1180  0.2257 -0.4682
  134TIP3   OH2  407   2.950   1.116   3.126  0.2757 -0.0076  0.1856
  134TIP3    H1  408   2.915   1.046   3.181  2.5004 -0.1367  1.5708
  134TIP3    H2  409   2.958   1.191   3.185  2.9856 -0.2336  0.2164
  135TIP3   OH2  410   5.661   4.642   0.892  0.2709  0.6913  0.0149
  135TIP3    H1  411   5.573   4.648   0.854 -0.2433 -3.2670  0.2244
  135TIP3    H2  412   5.715   4.603   0.823  1.2332  0.6056  0.7944
  136TIP3   OH2  413   4.083   2.519   0.626 -0.4230  0.1333  0.2299
  136TIP3    H1  414   4.017   2.496   0.560 -0.5611 -0.6398  0.6213
  136TIP3    H2  415   4.066   2.611   0.646 -1.7466 -0.2002  0.7219
  137TIP3   OH2  416   3.212   2.606   2.585 -0.5056 -0.1896  0.2359
  137TIP3    H1  417   3.122   2.603   2.619  0.1943  1.1528  2.4152
  137TIP3    H2  418   3.202   2.610   2.490 -2.7441  0.1233  0.4377
  138TIP3   OH2  419   0.126   1.693   4.955  0.2396  0.0501  0.8101
  138TIP3    H1  420   0.114   1.679   5.049  0.7047 -0.4738  0.7925
  138TIP3    H2  421   0.049   1.744   4.929 -0.1333 -0.2062  1.3821
  139TIP3   OH2  422   3.598   2.362   1.637 -0.2801 -0.3596  0.2697
  139TIP3    H1  423   3.693   2.376   1.633 -0.4707  2.3377  2.0020
  139TIP3    H2  424   3.586   2.296   1.705  0.3592  1.3596  2.1679
  140TIP3   OH2  425   1.141   3.194   0.146 -0.1058  0.1182  0.0918
  140TIP3    H1  426   1.107   3.128   0.207 -2.2747  0.8405 -0.2593
  140TIP3    H2  427   1.121   3.277   0.188  2.9620  0.6747  0.7190
  141TIP3   OH2  428   2.851   2.423   0.445 -0.4515  0.0037 -0.5345
  141TIP3    H1  429   2.836   2.479   0.521 -0.6496 -0.4324 -0.2520
  141TIP3    H2  430   2.944   2.404   0.446 -0.4629 -0.0411 -0.3751
  142TIP3   OH2  431   5.609   1.315   5.165  0.2830 -0.1474  0.2365
  142TIP3    H1  432   5.619   1.223   5.143 -1.2327 -0.7968  2.0271
  142TIP3    H2  433   5.673   1.331   5.235 -0.4167 -0.2389  0.9118
  143TIP3   OH2  434   3.984   4.600   3.969 -0.2806  0.0862  0.0395
  143TIP3    H1  435   4.045   4.658   3.922  0.9109  0.2319  1.6692
  143TIP3    H2  436   3.920   4.659   4.008  0.2928  0.2308  0.7860
  144TIP3   OH2  437   1.872   5.744   4.610  0.8253 -0.8178  0.0378
  144TIP3    H1  438   1.808   5.673   4.601  1.1573 -1.2373  0.9361
  144TIP3    H2  439   1.930   5.733   4.535 -0.9125  0.3887 -1.5913
  145TIP3   OH2  440   6.130   1.245   2.878 -0.5906 -0.0616  0.1165
  145TIP3    H1  441   6.204   1.305   2.886 -0.0535 -0.5006 -1.1861
  145TIP3    H2  442   6.122   1.205   2.964  0.0860  0.6864  0.5397
  146TIP3   OH2  443   3.868   5.478   0.969 -0.0504 -0.3916 -0.6941
  146TIP3    H1  444   3.824   5.397   0.946  0.0158 -0.4271 -0.6982
  146TIP3    H2  445   3.842   5.540   0.901 -0.4242 -0.2949 -0.4662
  147TIP3   OH2  446   6.241   3.866   2.961  0.0762 -0.8012  0.5864
  147TIP3    H1  447   6.210   3.889   3.048 -1.3141  0.3370 -0.1677
  147TIP3    H2  448   6.336   3.878   2.965 -0.1552  1.0104  1.4528
  148TIP3   OH2  449   3.360   1.885   0.301 -0.1018  0.3559 -0.6359
  148TIP3    H1  450   3.364   1.889   0.205  0.6348  0.6268 -0.6021
  148TIP3    H2  451   3.333   1.795   0.320 -1.2860  0.5895 -1.1104
  149TIP3   OH2  452   4.807   3.668   1.485  0.1808  0.0038 -0.1545
  149TIP3    H1  453   4.751   3.739   1.454  1.1283  0.7694 -0.1541
  149TIP3    H2  454   4.895   3.705   1.486  0.6525 -1.0770  0.1529
  150TIP3   OH2  455   4.925   2.928   3.144  0.1299  0.4635  0.0380
  150TIP3    H1  456   4.994   2.952   3.207 -0.9151  0.3452  1.2581
  150TIP3    H2  457   4.846   2.919   3.197 -0.6600 -0.2485 -1.2179
  151TIP3   OH2  458   4.298   0.073   2.583  0.4155  0.0117 -0.0754
  151TIP3    H1  459   4.337   0.083   2.496  0.8623  0.1562  0.1375
  151TIP3    H2  460   4.340   0.140   2.636 -1.5230  1.4990 -0.2840
  152TIP3   OH2  461   4.934   2.820   0.056 -0.5035  0.3386 -0.1988
  152TIP3    H1  462   5.018   2.775   0.047  0.7722  1.9190  2.4426
  152TIP3    H2  463   4.887   2.802  -0.025  0.8605 -3.6588 -0.2990
  153TIP3   OH2  464   2.090   2.799   3.488  0.2973 -0.4730 -0.0488
  153TIP3    H1  465   2.021   2.773   3.428  0.5619 -0.8354 -0.1990
  153TIP3    H2  466   2.170   2.800   3.435  0.5857 -1.0938  0.3518
  154TIP3   OH2  467   2.124   4.120   3.377 -0.3826  0.2330 -0.3111
  154TIP3    H1  468   2.096   4.152   3.462 -0.0594  1.8664 -0.7848
  154TIP3    H2  469   2.220   4.112   3.384 -0.2711  1.1332 -0.7565
  155TIP3   OH2  470   3.450   0.410   3.761 -0.3200 -0.2617 -0.5074
  155TIP3    H1  471   3.456   0.502   3.736 -1.1949 -0.3978 -1.3021
  155TIP3    H2  472   3.521   0.368   3.712 -0.8897 -0.2374 -1.3814
  156TIP3   OH2  473   2.945   5.624   2.707  0.0291  0.1661 -0.2909
  156TIP3    H1  474   2.912   5.611   2.796 -1.4499 -0.0809 -0.8544
  156TIP3    H2  475   3.021   5.681   2.719  0.9330 -1.2706  1.2855
  157TIP3   OH2  476   2.458   0.243   4.608 -0.4110 -0.1056 -0.5374
  157TIP3    H1  477   2.432   0.316   4.553  1.4573  1.3735  0.4221
  157TIP3    H2  478   2.536   0.207   4.566 -0.0625 -0.1527  0.1277
  158TIP3   OH2  479   2.534   2.451   3.651  0.5437 -0.8588 -0.4287
  158TIP3    H1  480   2.550   2.457   3.745  0.9380 -1.0638 -0.4848
  158TIP3    H2  481   2.488   2.368   3.639  1.7145 -1.4971 -0.5851
  159TIP3   OH2  482   0.434   3.490   0.930 -0.1571 -0.2450  0.0785
  159TIP3    H1  483   0.450   3.523   1.018 -1.9331 -0.2321  0.4370
  159TIP3    H2  484   0.384   3.560   0.887 -0.1828 -0.6695 -0.5990
  160TIP3   OH2  485   4.495   1.600   1.558  0.0666 -0.1921 -0.6587
  160TIP3    H1  486   4.565   1.615   1.494 -1.0279 -0.0789 -1.8861
  160TIP3    H2  487   4.482   1.505   1.557  0.8779 -0.3231  0.3337
  161TIP3   OH2  488   5.932   1.400   0.999 -0.3585  0.1422  0.3309
  161TIP3    H1  489   5.984   1.320   0.996 -0.8004 -0.1515  0.3448
  161TIP3    H2  490   5.885   1.395   1.083 -2.5816 -0.9990 -0.8942
  162TIP3   OH2  491   3.383   3.091   2.549 -0.0654  1.1134  0.1451
  162TIP3    H1  492   3.305   3.146   2.553 -0.9153 -0.0566  0.0026
  162TIP3    H2  493   3.367   3.032   2.475  0.1014 -0.4030  1.2861
  163TIP3   OH2  494   4.551   3.045   0.831  0.8005  0.1527  0.1479
  163TIP3    H1  495   4.513   3.011   0.750  0.4913  1.8558 -0.4831
  163TIP3    H2  496   4.538   2.977   0.896 -3.5766  0.6492  0.0601
  164TIP3   OH2  497   0.622   3.036   2.147  0.4277  0.6666  0.6464
  164TIP3    H1  498   0.674   2.979   2.203  1.4355  1.7168  0.8313
  164TIP3    H2  499   0.653   3.125   2.169  0.1537  1.1639 -0.8765
  165TIP3   OH2  500   3.967   4.981   0.086  0.4267  0.1202 -0.0405
  165TIP3    H1  501   3.980   4.900   0.037  0.6269  1.1852 -1.8693
  165TIP3    H2  502   3.897   4.961   0.148 -1.2106 -0.8331 -2.0551
  166TIP3   OH2  503   1.360   0.354   4.447 -0.7424  0.0758  0.2528
  166TIP3    H1  504   1.451   0.346   4.474 -0.9354 -0.1854  0.8474
  166TIP3    H2  505   1.323   0.420   4.507 -1.0471 -0.1343  0.3000
  167TIP3   OH2  506   5.097   2.118   4.873  0.6147 -0.3413 -0.1416
  167TIP3    H1  507   5.048   2.061   4.933  0.7589 -0.1378  0.1724
  167TIP3    H2  508   5.156   2.059   4.826  0.8702 -0.4346  0.2878
  168TIP3   OH2  509   5.100   5.685   4.343  0.0130 -0.4023  0.6669
  168TIP3    H1  510   5.073   5.649   4.259  0.5433 -1.4152  0.9095
  168TIP3    H2  511   5.116   5.608   4.398 -0.0328  0.2384  1.6001
  169TIP3   OH2  512   5.462   2.046   0.019  0.6432 -0.2370  0.3256
  169TIP3    H1  513   5.473   1.982  -0.051  1.4165 -1.0382  1.1589
  169TIP3    H2  514   5.516   2.013   0.091  0.5985  1.0523  0.9758
  170TIP3   OH2  515   5.743   5.825   0.994 -0.2500 -0.1326 -0.4960
  170TIP3    H1  516   5.809   5.858   1.056  1.8767  0.6010 -2.9479
  170TIP3    H2  517   5.733   5.733   1.016  2.0944 -0.4221 -0.3346
  171TIP3   OH2  518   2.419   4.090   4.510 -0.3579  0.0828 -0.1774
  171TIP3    H1  519   2.361   4.069   4.437  2.4817 -2.5339 -1.9096
  171TIP3    H2  520   2.501   4.116   4.469  1.3920 -1.5711  2.0047
  172TIP3   OH2  521   0.796   2.834   1.704  0.0214 -0.1745  0.0322
  172TIP3    H1  522   0.870   2.816   1.647  0.8461  1.0441  0.6680
  172TIP3    H2  523   0.726   2.862   1.644  0.6619  0.4475 -0.4523
  173TIP3   OH2  524   2.273   2.284   0.340 -0.1101  0.0590  0.0598
  173TIP3    H1  525   2.183   2.297   0.370 -0.4379 -0.6010 -0.6078
  173TIP3    H2  526   2.313   2.230   0.408 -0.4941 -0.4237 -0.0972
  174TIP3   OH2  527   2.302   0.179   3.591 -0.0474 -0.0595 -0.2061
  174TIP3    H1  528   2.358   0.102   3.591  0.4147  0.2226 -2.4869
  174TIP3    H2  529   2.352   0.246   3.544  0.0315  2.0393  2.5598
  175TIP3   OH2  530   2.348   3.864   1.554  0.6104  0.4048 -0.2165
  175TIP3    H1  531   2.266   3.849   1.601  1.3662 -0.0128  1.0232
  175TIP3    H2  532   2.345   3.957   1.530 -0.0467  0.4912  0.1508
  176TIP3   OH2  533   6.011   5.548   4.568 -0.0696  0.5033 -0.5130
  176TIP3    H1  534   6.062   5.603   4.628 -0.3549 -0.1572  0.3579
  176TIP3    H2  535   6.069   5.535   4.493  0.5802  0.7765 -0.0732
  177TIP3   OH2  536   3.041   1.945   3.867  0.4241 -0.2366 -0.2355
  177TIP3    H1  537   3.002   1.971   3.784 -0.2598  0.7070  0.3599
  177TIP3    H2  538   2.973   1.892   3.910  1.0378 -1.3224 -0.5535
  178TIP3   OH2  539   0.540   3.886   3.982  0.4181  0.1382  0.1201
  178TIP3    H1  540   0.510   3.814   4.037  0.0900 -0.2539 -0.5672
  178TIP3    H2  541   0.636   3.877   3.982  0.3519 -0.6647 -0.4481
  179TIP3   OH2  542   5.012   1.464   5.068  0.4107  0.1382 -0.4173
  179TIP3    H1  543   4.923   1.477   5.100 -0.0815 -1.7151 -0.9535
  179TIP3    H2  544   5.066   1.519   5.125 -0.6998 -1.1972  2.0628
  180TIP3   OH2  545   3.532   5.879   1.011 -0.2447 -0.0409  0.0464
  180TIP3    H1  546   3.452   5.904   1.056 -0.5920 -0.2508 -0.4378
  180TIP3    H2  547   3.535   5.936   0.934  0.8648  1.0228  0.8350
  181TIP3   OH2  548   2.737   4.663   3.095 -0.4127  0.0081 -0.3146
  181TIP3    H1  549   2.763   4.726   3.028 -0.1074 -0.1648 -0.3621
  181TIP3    H2  550   2.686   4.714   3.158 -0.9082  0.1229 -0.7988
  182TIP3   OH2  551   4.586   4.519   2.186  0.1981 -0.6044  0.2503
  182TIP3    H1  552   4.505   4.469   2.173  0.4797 -0.6929 -1.2993
  182TIP3    H2  553   4.634   4.468   2.252 -0.4226 -1.2769  0.1991
  183TIP3   OH2  554   3.328   2.000   3.528 -0.2257  0.6243  0.2458
  183TIP3    H1  555   3.283   2.027   3.448 -0.6098  0.9127  0.5596
  183TIP3    H2  556   3.317   2.073   3.588  0.1535  0.4521  0.5277
  184TIP3   OH2  557   1.340   5.301   2.444  0.4132  0.3730  0.5570
  184TIP3    H1  558   1.399   5.377   2.437  1.1441  0.0338  2.4112
  184TIP3    H2  559   1.377   5.237   2.383 -0.0918  1.4199 -0.8739
  185TIP3   OH2  560   2.740   1.993   0.277  0.2563  0.3804  1.0289
  185TIP3    H1  561   2.735   2.031   0.189  1.0098  1.0690  1.2756
  185TIP3    H2  562   2.834   1.980   0.293  0.1344  0.3621  1.7793
  186TIP3   OH2  563   1.792   4.216   4.907  0.3592 -0.4973  0.0065
  186TIP3    H1  564   1.853   4.255   4.970 -0.7495  0.8590  0.2827
  186TIP3    H2  565   1.831   4.233   4.821  0.2264  0.6918  0.1600
  187TIP3   OH2  566   2.308   5.027   3.826 -0.1411  0.4763 -0.1173
  187TIP3    H1  567   2.241   4.967   3.860 -0.4561  0.5960 -0.5172
  187TIP3    H2  568   2.334   4.988   3.742  0.0131  0.6351 -0.1435
  188TIP3   OH2  569   1.266   4.651   1.089 -0.2478 -0.8614 -0.3157
  188TIP3    H1  570   1.289   4.562   1.118 -0.6513 -0.4662  1.2509
  188TIP3    H2  571   1.174   4.661   1.112 -0.2226 -0.0530 -0.5486
  189TIP3   OH2  572   3.283   2.037   1.688 -0.3483  0.1472 -0.1538
  189TIP3    H1  573   3.301   1.954   1.732  2.8999  0.1381 -1.2469
  189TIP3    H2  574   3.189   2.034   1.667 -0.9198 -1.9772  2.2525
  190TIP3   OH2  575   2.602   1.039   0.335 -0.1572 -0.1903 -0.1939
  190TIP3    H1  576   2.565   1.119   0.297 -0.9370 -0.6259 -0.3727
  190TIP3    H2  577   2.681   1.069   0.380 -1.6217  1.1247  1.7362
  191TIP3   OH2  578   1.009   3.767   1.258  0.5616  0.3254 -0.2967
  191TIP3    H1  579   1.021   3.676   1.230  3.6208  0.4246  0.3346
  191TIP3    H2  580   0.958   3.760   1.339  1.1644 -0.8956  0.0027
  192TIP3   OH2  581   6.339   4.754   1.874 -0.0842  0.3235 -0.1106
  192TIP3    H1  582   6.248   4.763   1.902 -0.2354  0.2604 -0.5714
  192TIP3    H2  583   6.355   4.659   1.875 -0.1645  0.3067 -0.4707
  193TIP3   OH2  584   5.153   3.355   1.558 -0.2615  0.1199 -0.3943
  193TIP3    H1  585   5.190   3.412   1.625 -2.4545  0.0724  0.9388
  193TIP3    H2  586   5.072   3.321   1.597 -1.3197 -0.3651 -2.8407
  194TIP3   OH2  587   0.479   3.594   0.529 -0.5298  0.6196 -0.2237
  194TIP3    H1  588   0.408   3.645   0.568  0.2823  0.5284  1.4708
  194TIP3    H2  589   0.474   3.509   0.573  0.8656  0.7427  0.2192
  195TIP3   OH2  590   1.769   4.011   2.750 -0.0377  0.2557  0.5838
  195TIP3    H1  591   1.820   3.994   2.670 -0.7684  1.1092 -0.0883
  195TIP3    H2  592   1.710   4.083   2.726 -1.8176 -0.9206  1.2150
  196TIP3   OH2  593   3.292   2.323   3.457 -0.0053  0.5402 -0.0779
  196TIP3    H1  594   3.285   2.307   3.552  2.6102 -1.7122 -0.1485
  196TIP3    H2  595   3.344   2.403   3.450  0.9633 -0.0310  0.4221
  197TIP3   OH2  596   1.863   1.493   4.957 -0.1927 -0.4250 -0.2179
  197TIP3    H1  597   1.929   1.550   4.918 -0.1655 -0.8455 -0.8107
  197TIP3    H2  598   1.901   1.464   5.039  0.2019 -0.3531 -0.3745
  198TIP3   OH2  599   0.072   5.322   4.468 -0.4312  0.1176 -0.1053
  198TIP3    H1  600   0.120   5.247   4.432  1.6065 -0.0374  2.6479
  198TIP3    H2  601  -0.003   5.284   4.513 -1.9990  0.1958 -2.4327
  199TIP3   OH2  602   0.610   5.453   3.799  0.1034 -0.1555 -0.2104
  199TIP3    H1  603   0.652   5.518   3.854 -1.5656  0.6823  0.1409
  199TIP3    H2  604   0.673   5.436   3.729 -0.4116  3.9713 -1.9430
  200TIP3   OH2  605   5.862   3.987   2.699  0.3540 -0.7367  0.2764
  200TIP3    H1  606   5.792   4.053   2.694 -0.0270 -0.9669  1.8939
  200TIP3    H2  607   5.825   3.917   2.753  1.2349 -1.6562 -0.2811
  201TIP3   OH2  608   0.625   5.076   1.002 -0.3178  0.0084 -0.1284
  201TIP3    H1  609   0.623   5.059   0.907 -0.4290  0.7570 -0.2631
  201TIP3    H2  610   0.581   5.159   1.012 -1.2013 -0.5483  0.7023
  202TIP3   OH2  611   2.491   3.508   3.369 -0.5093  0.2147 -0.0616
  202TIP3    H1  612   2.398   3.530   3.362 -0.8642 -1.2537 -0.2486
  202TIP3    H2  613   2.502   3.482   3.460 -0.5665 -0.7901 -0.3327
  203TIP3   OH2  614   3.938   1.817   4.122  0.4667 -0.0370 -0.0852
  203TIP3    H1  615   4.001   1.856   4.184  0.6560  1.1947 -1.0200
  203TIP3    H2  616   3.895   1.748   4.172  2.0474 -0.4254  0.8081
  204TIP3   OH2  617   5.199   3.790   2.022  0.1293 -0.0358  0.3800
  204TIP3    H1  618   5.193   3.701   2.057 -2.1646 -0.2581 -0.4039
  204TIP3    H2  619   5.111   3.825   2.030  0.4370  1.3276 -1.4722
  205TIP3   OH2  620   2.014   5.385   2.261 -0.7362  0.1717  0.4667
  205TIP3    H1  621   1.951   5.454   2.239  0.4271  1.3011  0.5482
  205TIP3    H2  622   2.005   5.375   2.356 -0.3235  0.8437  0.5896
  206TIP3   OH2  623   1.131   3.552   2.397 -0.5244  0.2051 -0.2217
  206TIP3    H1  624   1.062   3.486   2.394  0.7526 -1.2415  0.7750
  206TIP3    H2  625   1.160   3.561   2.307 -1.2932  0.0494 -0.4915
  207TIP3   OH2  626  -0.018   1.267   4.945  0.0270 -0.4187  0.4139
  207TIP3    H1  627  -0.039   1.248   4.854 -0.9101  0.7028  0.3752
  207TIP3    H2  628   0.075   1.289   4.945  0.2317 -1.2337 -0.1216
  208TIP3   OH2  629   0.214   1.195   0.211  0.1168  0.2884  0.4321
  208TIP3    H1  630   0.205   1.184   0.305 -1.6531 -1.9854  0.0673
  208TIP3    H2  631   0.141   1.251   0.186  0.6002  0.9115  0.3700
  209TIP3   OH2  632   4.858   2.170   2.937  0.1857  0.0712  0.5331
  209TIP3    H1  633   4.910   2.250   2.947  2.4912 -0.8525 -2.5929
  209TIP3    H2  634   4.916   2.109   2.892 -3.7312 -0.7585 -4.3106
  210TIP3   OH2  635   3.206   4.613   3.816 -0.1257 -0.2667 -0.2512
  210TIP3    H1  636   3.199   4.553   3.890  1.6603 -1.8027 -1.2485
  210TIP3    H2  637   3.292   4.595   3.777 -1.4593 -0.4480 -3.4495
  211TIP3   OH2  638   0.044   2.725   2.041 -0.1750  0.2530 -0.3662
  211TIP3    H1  639   0.099   2.671   2.099  0.2348 -0.5317 -1.4461
  211TIP3    H2  640   0.101   2.745   1.967 -0.5752  1.5515 -0.3344
  212TIP3   OH2  641   1.622   0.433   2.018  0.0386 -0.4032 -0.3592
  212TIP3    H1  642   1.550   0.462   1.962  0.5074 -0.8252 -1.1968
  212TIP3    H2  643   1.603   0.340   2.034 -0.7327 -0.0236  1.1973
  213TIP3   OH2  644   2.231   1.367   3.956 -0.2750 -0.3967 -0.2160
  213TIP3    H1  645   2.241   1.273   3.968 -0.7050 -0.4821 -0.4899
  213TIP3    H2  646   2.299   1.391   3.892 -0.8502 -0.7121 -0.9604
  214TIP3   OH2  647   5.923   3.512   1.222 -0.5451 -0.5112 -0.3270
  214TIP3    H1  648   5.921   3.437   1.283  0.6303 -0.2072  0.1044
  214TIP3    H2  649   5.842   3.559   1.241 -0.4788 -0.7436  0.6012
  215TIP3   OH2  650   5.166   0.238   2.025 -0.7945 -0.2078 -0.3859
  215TIP3    H1  651   5.105   0.312   2.024 -1.0268 -0.4045 -0.9690
  215TIP3    H2  652   5.252   0.279   2.034 -0.8634  0.1829 -1.3892
  216TIP3   OH2  653   2.111   1.392   2.696  0.0767 -0.5044  0.3591
  216TIP3    H1  654   2.139   1.469   2.646 -1.4904 -0.3915 -0.4076
  216TIP3    H2  655   2.182   1.377   2.759  0.7749  1.0742 -0.0033
  217TIP3   OH2  656   2.489   1.809   2.896 -0.0614  0.3229  0.0672
  217TIP3    H1  657   2.504   1.810   2.991  0.3255  0.4727  0.0040
  217TIP3    H2  658   2.429   1.883   2.881  0.6215  0.8864  0.0745
  218TIP3   OH2  659   2.682   1.513   3.440 -0.1606 -0.3621 -0.6011
  218TIP3    H1  660   2.763   1.531   3.488 -0.1941  2.3840 -1.3918
  218TIP3    H2  661   2.617   1.572   3.479 -0.5320  0.9412 -3.0202
  219TIP3   OH2  662   1.010   5.328   1.907 -0.0465 -0.2465 -0.1226
  219TIP3    H1  663   0.963   5.256   1.949 -0.1114 -1.1063 -1.5831
  219TIP3    H2  664   1.093   5.334   1.953 -0.2582 -0.9118  0.3511
  220TIP3   OH2  665   4.846   4.107   0.703 -0.0801 -0.3049 -0.0335
  220TIP3    H1  666   4.902   4.039   0.741 -0.7715 -0.5581  0.5532
  220TIP3    H2  667   4.903   4.183   0.695  0.5732 -0.8037 -0.2377
  221TIP3   OH2  668   3.886   2.461   3.107 -0.4222 -0.0960 -0.4714
  221TIP3    H1  669   3.952   2.473   3.038  0.4543  0.8952  0.5083
  221TIP3    H2  670   3.852   2.549   3.123 -1.0333 -0.4070 -0.0430
  222TIP3   OH2  671   2.896   3.086   5.020  0.2309  0.2805 -0.0006
  222TIP3    H1  672   2.882   3.114   4.930  1.9751  0.1827 -0.3372
  222TIP3    H2  673   2.900   3.168   5.070 -0.4289  0.3486 -0.0500
  223TIP3   OH2  674   2.029   4.385   3.940  0.4547 -0.0414 -0.0737
  223TIP3    H1  675   1.958   4.392   4.004 -0.1388  0.6203 -0.7914
  223TIP3    H2  676   2.109   4.396   3.992 -0.0597  1.9217  0.3856
  224TIP3   OH2  677   0.959   4.389   1.476 -0.0566 -0.0819  0.1738
  224TIP3    H1  678   1.010   4.435   1.544  1.4887 -2.2609  0.5860
  224TIP3    H2  679   0.884   4.446   1.461  1.6939  2.5551  0.6624
  225TIP3   OH2  680   5.932   1.737   3.996  0.4334  0.2008 -0.3093
  225TIP3    H1  681   5.907   1.647   3.978 -0.6513  0.6333 -1.0193
  225TIP3    H2  682   5.960   1.736   4.088 -0.6280 -0.6391  0.0231
  226TIP3   OH2  683   6.196   2.576   0.081 -0.0603  0.2844  0.0067
  226TIP3    H1  684   6.137   2.516   0.128  0.3429  0.9283  1.3836
  226TIP3    H2  685   6.207   2.536  -0.005 -1.5400 -0.4808  0.1308
  227TIP3   OH2  686   4.768   2.661   2.762  0.2079 -0.5044 -1.0193
  227TIP3    H1  687   4.709   2.606   2.711 -1.6880  1.7604 -1.4510
  227TIP3    H2  688   4.727   2.668   2.849  0.8647 -0.4697 -0.7038
  228TIP3   OH2  689   4.815   4.757   3.522 -0.2353  0.0682  0.1217
  228TIP3    H1  690   4.860   4.674   3.539 -1.1007 -0.1658  1.4896
  228TIP3    H2  691   4.818   4.767   3.427  0.8012 -1.0054  0.0189
  229TIP3   OH2  692   4.281   2.857  -0.007  0.5554  0.3699 -0.0363
  229TIP3    H1  693   4.345   2.792  -0.035 -0.3677 -0.5671 -0.0185
  229TIP3    H2  694   4.231   2.813   0.063  0.3058  1.3044  0.3912
  230TIP3   OH2  695   2.305   5.866   0.155  0.0570  0.4189  0.3607
  230TIP3    H1  696   2.325   5.872   0.062  1.2217  1.2201  0.6377
  230TIP3    H2  697   2.212   5.843   0.158 -0.1988  1.1468 -0.9982
  231TIP3   OH2  698   1.969   2.083   4.700  0.0633 -0.4222 -0.5985
  231TIP3    H1  699   2.042   2.122   4.748  0.8973  0.3915 -2.4328
  231TIP3    H2  700   1.896   2.083   4.763  1.3036 -0.1846  0.9014
  232TIP3   OH2  701   4.839   0.692   4.012 -0.0659 -0.3464 -0.4316
  232TIP3    H1  702   4.759   0.744   4.012 -0.9769 -1.6728  0.3999
  232TIP3    H2  703   4.835   0.642   3.930 -0.0557 -0.3680 -0.4188
  233TIP3   OH2  704   3.300   1.399   1.034 -0.0522  0.8115 -0.4923
  233TIP3    H1  705   3.343   1.314   1.033 -0.5317  0.5681 -0.6102
  233TIP3    H2  706   3.360   1.456   1.081 -0.3280  0.0983  0.7633
  234TIP3   OH2  707   1.123   2.048   3.793 -0.1072 -0.0883 -0.1379
  234TIP3    H1  708   1.061   2.067   3.723 -0.4504 -0.4492  0.0622
  234TIP3    H2  709   1.143   2.133   3.832  0.4335  0.1655 -0.9600
  235TIP3   OH2  710   3.149   0.693   1.484  0.0777  0.4215  0.1184
  235TIP3    H1  711   3.093   0.616   1.471  0.9338 -0.2312  0.1918
  235TIP3    H2  712   3.089   0.762   1.509 -0.6192 -0.4638  0.9983
  236TIP3   OH2  713   3.623   4.259   4.173 -0.2784 -0.7387  0.0124
  236TIP3    H1  714   3.615   4.307   4.255  0.1321  2.0808 -1.4858
  236TIP3    H2  715   3.686   4.189   4.192 -0.5033 -0.4202  2.1658
  237TIP3   OH2  716   1.353   1.336   4.218 -0.1952 -0.0982  0.4212
  237TIP3    H1  717   1.370   1.279   4.144 -0.3663  0.1599  0.1825
  237TIP3    H2  718   1.435   1.383   4.233 -0.6373  1.0654 -0.6585
  238TIP3   OH2  719   6.232   5.648   0.347 -0.2055  0.4444  0.0446
  238TIP3    H1  720   6.222   5.735   0.309  0.8073  1.1378  1.2961
  238TIP3    H2  721   6.315   5.652   0.395 -1.5010 -0.3067  2.4785
  239TIP3   OH2  722   3.667   4.013   4.317 -0.1300 -0.7395 -0.3595
  239TIP3    H1  723   3.696   3.948   4.253 -0.6631 -3.2351  1.7742
  239TIP3    H2  724   3.600   3.968   4.369 -1.9989  2.1975  0.0224
  240TIP3   OH2  725   4.585   2.786   1.325  1.0381 -0.0571 -0.0010
  240TIP3    H1  726   4.675   2.776   1.358  1.2839  0.1331 -0.5921
  240TIP3    H2  727   4.540   2.837   1.392  0.6681 -2.2051  1.5064
  241TIP3   OH2  728   4.896   2.786   1.806  0.4025  0.5008 -0.1555
  241TIP3    H1  729   4.885   2.762   1.897 -0.2993  1.2518 -0.0303
  241TIP3    H2  730   4.860   2.712   1.757  1.2650 -0.1410  0.1522
  242TIP3   OH2  731   5.875   2.018   1.557  0.6968 -0.5535 -0.5026
  242TIP3    H1  732   5.862   2.110   1.581  0.4818 -0.3769 -1.2646
  242TIP3    H2  733   5.970   2.007   1.554  0.8172 -1.1299  2.4174
  243TIP3   OH2  734   6.105   1.006   3.660 -0.1279 -0.2494  0.3269
  243TIP3    H1  735   6.133   0.942   3.595 -1.8614 -1.1772  0.4382
  243TIP3    H2  736   6.023   0.971   3.694 -1.2175  2.1029  0.2813
  244TIP3   OH2  737   4.810   5.218   3.281 -0.3352  0.5346 -0.1021
  244TIP3    H1  738   4.841   5.288   3.339 -3.2481  1.2050  0.8249
  244TIP3    H2  739   4.879   5.152   3.284  1.2329  2.1066  1.2531
  245TIP3   OH2  740   0.036   3.091   3.399 -0.6800 -0.2396  0.2398
  245TIP3    H1  741   0.031   3.086   3.494 -1.4252 -2.6593  0.1354
  245TIP3    H2  742  -0.048   3.128   3.373 -0.8172 -0.3721  0.4895
  246TIP3   OH2  743   0.068   4.033   2.075 -0.2127  0.3337 -0.2885
  246TIP3    H1  744   0.041   4.101   2.136  0.4204  0.5758 -0.2700
  246TIP3    H2  745   0.021   3.954   2.104  0.9402  0.1600  1.1988
  247TIP3   OH2  746   2.817   0.747   1.303 -0.0514 -0.4785 -0.3420
  247TIP3    H1  747   2.862   0.832   1.309 -0.4756 -0.3282  1.1671
  247TIP3    H2  748   2.779   0.734   1.390 -1.2418 -1.5354 -0.9817
  248TIP3   OH2  749   4.430   3.997   0.841  0.0820 -0.1523 -0.2080
  248TIP3    H1  750   4.478   4.077   0.819  1.2575 -0.9265 -0.5857
  248TIP3    H2  751   4.346   4.028   0.875  0.7179  1.2523  0.1728
  249TIP3   OH2  752   5.009   5.677   2.763  0.4149 -0.5737  0.1442
  249TIP3    H1  753   4.993   5.695   2.670  1.2894  1.6336  0.3476
  249TIP3    H2  754   4.925   5.646   2.796 -0.7226  1.2357 -0.8485
  250TIP3   OH2  755   4.100   2.569   2.101  0.6554  0.1493 -0.0339
  250TIP3    H1  756   4.011   2.578   2.065  1.5423  0.3796 -2.3689
  250TIP3    H2  757   4.129   2.483   2.071  1.2932  0.1513  0.5544
  251TIP3   OH2  758   3.645   5.474   3.334  0.1989  0.1730 -0.6119
  251TIP3    H1  759   3.627   5.387   3.369  0.1360  0.6340  0.5516
  251TIP3    H2  760   3.737   5.490   3.356 -0.0738  0.8021  0.1112
  252TIP3   OH2  761   0.433   0.978   4.642  0.9277  0.1238 -0.2237
  252TIP3    H1  762   0.461   1.065   4.668 -0.1241  0.6135 -0.6886
  252TIP3    H2  763   0.460   0.921   4.714  1.8203  0.7839 -0.0165
  253TIP3   OH2  764   0.830   3.733   1.481  0.2389 -0.2187  0.0477
  253TIP3    H1  765   0.758   3.724   1.419  1.1053 -0.0669 -1.0183
  253TIP3    H2  766   0.795   3.702   1.564 -1.0704 -0.0616 -0.4307
  254TIP3   OH2  767   1.263   2.725   4.255  0.3544  0.4581 -0.5187
  254TIP3    H1  768   1.346   2.692   4.289  0.8732  1.2152 -0.9992
  254TIP3    H2  769   1.264   2.819   4.277 -0.1611  0.5657 -0.9343
  255TIP3   OH2  770   4.211   1.362   0.087  0.3350  0.1049  0.1423
  255TIP3    H1  771   4.126   1.340   0.126 -0.5022 -0.4355 -1.8668
  255TIP3    H2  772   4.220   1.456   0.101 -0.9069  0.2887 -0.1598
  256TIP3   OH2  773   1.369   3.597   2.546 -0.1378 -0.1780 -0.0926
  256TIP3    H1  774   1.284   3.581   2.503  0.2058  0.1743 -0.9293
  256TIP3    H2  775   1.346   3.635   2.631 -0.8147  0.4494 -0.5385
  257TIP3   OH2  776   0.438   2.699   4.995  0.2778 -0.3381  0.2196
  257TIP3    H1  777   0.496   2.661   5.060  0.4225 -1.3880 -0.5067
  257TIP3    H2  778   0.359   2.723   5.044  1.9097  2.8287  1.6194
  258TIP3   OH2  779   4.363   4.609   0.024 -0.1781 -0.5023  0.0375
  258TIP3    H1  780   4.359   4.704   0.037  2.7468 -0.3942  1.0659
  258TIP3    H2  781   4.337   4.572   0.108 -1.4782 -0.6389 -0.4145
  259TIP3   OH2  782   5.530   0.578   2.530 -0.0236  0.5845 -0.3416
  259TIP3    H1  783   5.622   0.555   2.512  0.3125  2.1794 -0.8144
  259TIP3    H2  784   5.534   0.630   2.610 -0.6208  0.0413  0.0482
  260TIP3   OH2  785   3.078   0.125   3.045 -0.2824 -0.7118  0.7118
  260TIP3    H1  786   3.129   0.140   2.965 -2.1394  0.3871 -0.3464
  260TIP3    H2  787   3.100   0.036   3.072  4.3033  0.5203  1.9790
  261TIP3   OH2  788   3.290   4.948   3.961  0.1714 -0.1296 -0.1807
  261TIP3    H1  789   3.318   5.001   4.035  0.1902  0.4614 -0.6078
  261TIP3    H2  790   3.369   4.939   3.907  0.0567 -0.2133 -0.3344
  262TIP3   OH2  791   2.315   0.983   1.195  0.1165  0.5396  0.2716
  262TIP3    H1  792   2.240   1.010   1.143  1.7024  1.1642 -1.8270
  262TIP3    H2  793   2.335   0.895   1.164 -0.7050 -0.2799  1.9893
  263TIP3   OH2  794   0.277   3.037   1.035  0.0217 -0.3003  0.4693
  263TIP3    H1  795   0.327   3.012   0.957  0.5883  0.8496  0.4437
  263TIP3    H2  796   0.292   3.131   1.043 -2.0116  0.0506  0.5661
  264TIP3   OH2  797   3.280   4.631   4.878 -0.4430  0.1850 -0.6339
  264TIP3    H1  798   3.203   4.672   4.838 -0.8589  1.2728  1.1455
  264TIP3    H2  799   3.252   4.607   4.966  1.0514 -0.0498 -0.1840
  265TIP3   OH2  800   4.461   1.661   1.000  0.5693  0.6357 -0.1180
  265TIP3    H1  801   4.427   1.587   1.050  1.3247  2.1079  2.7416
  265TIP3    H2  802   4.550   1.635   0.977  0.0043 -0.3158 -1.4053
  266TIP3   OH2  803   3.096   2.534   4.523 -0.3118 -0.1190 -0.4185
  266TIP3    H1  804   3.163   2.595   4.492 -0.5139  1.2809  1.7160
  266TIP3    H2  805   3.024   2.545   4.460  0.0676  1.0581 -0.6710
  267TIP3   OH2  806   0.177   2.435   1.459 -0.8189  0.2634 -0.2380
  267TIP3    H1  807   0.258   2.485   1.445 -0.6611  0.0507 -0.0978
  267TIP3    H2  808   0.191   2.390   1.542 -0.9892  0.0407 -0.3290
  268TIP3   OH2  809   0.787   2.798   3.961 -0.4144 -0.4254  0.2241
  268TIP3    H1  810   0.869   2.806   3.911  0.6003  0.1999  1.9175
  268TIP3    H2  811   0.730   2.864   3.923  0.0715 -0.4471 -0.5799
  269TIP3   OH2  812   5.132   4.337   4.815 -0.5927  0.2372  0.2879
  269TIP3    H1  813   5.054   4.345   4.760 -2.4532  1.0587  2.8702
  269TIP3    H2  814   5.150   4.427   4.843  0.7777 -0.0654  0.4367
  270TIP3   OH2  815   5.136   1.140   3.029 -0.2328  0.2684  0.1407
  270TIP3    H1  816   5.101   1.061   2.989 -0.1501 -0.3310  1.1945
  270TIP3    H2  817   5.063   1.174   3.082 -0.6777  1.6143 -1.2551
  271TIP3   OH2  818   3.686   5.244   0.049  0.6166 -0.0498 -0.2024
  271TIP3    H1  819   3.632   5.179   0.094  0.3507 -0.7653 -1.5144
  271TIP3    H2  820   3.647   5.328   0.074  0.8561 -0.3687  1.3695
  272TIP3   OH2  821   3.451   3.485   2.030  0.4624 -0.0604 -0.1639
  272TIP3    H1  822   3.426   3.529   2.112  3.0818 -2.7988  2.3957
  272TIP3    H2  823   3.428   3.393   2.045  1.3088 -0.7025 -2.4359
  273TIP3   OH2  824   3.810   4.420   2.904 -0.0902 -0.5877 -0.3275
  273TIP3    H1  825   3.870   4.346   2.901 -1.7608 -1.9828 -1.3336
  273TIP3    H2  826   3.726   4.384   2.876 -1.3131  1.3762  0.5815
  274TIP3   OH2  827   0.673   4.225   3.360 -0.5343  0.1013  0.3729
  274TIP3    H1  828   0.679   4.263   3.273 -1.1553 -1.2122 -0.2654
  274TIP3    H2  829   0.589   4.256   3.394 -2.6018 -3.0553 -1.3893
  275TIP3   OH2  830   4.597   0.266   2.190 -0.0464  0.0803  0.2971
  275TIP3    H1  831   4.538   0.203   2.150 -3.2677  3.3202 -0.6119
  275TIP3    H2  832   4.539   0.329   2.233  2.9282  1.9548  1.9026
  276TIP3   OH2  833   5.807   4.602   3.405 -0.1711  0.7200 -0.2151
  276TIP3    H1  834   5.847   4.536   3.462 -0.9798  1.8273  1.7697
  276TIP3    H2  835   5.819   4.684   3.453 -2.8789  1.3915 -0.5268
  277TIP3   OH2  836   3.007   5.231   2.967  0.2814 -0.1479  0.0794
  277TIP3    H1  837   3.035   5.280   2.889 -1.2713 -0.0503 -0.4484
  277TIP3    H2  838   3.087   5.220   3.018  0.8225  2.4618 -0.0391
  278TIP3   OH2  839   3.387   2.207   5.070 -0.3913 -0.2479  0.6666
  278TIP3    H1  840   3.372   2.249   5.154 -0.9404 -0.0478  0.4675
  278TIP3    H2  841   3.300   2.194   5.032 -0.1559 -0.3801  0.1515
  279TIP3   OH2  842   2.617   1.936   4.220 -0.3793 -0.2580  0.3710
  279TIP3    H1  843   2.616   2.030   4.203 -1.8358 -0.0813  1.2439
  279TIP3    H2  844   2.537   1.904   4.179 -0.4286 -0.9309  0.9786
  280TIP3   OH2  845   4.286   0.662   1.368 -0.1900 -0.9125 -0.2319
  280TIP3    H1  846   4.325   0.586   1.411  1.8787 -0.2106 -0.7840
  280TIP3    H2  847   4.238   0.625   1.294 -2.7109 -2.0102  1.7680
  281TIP3   OH2  848   3.205   2.412   2.026 -0.1508  0.3648  0.2723
  281TIP3    H1  849   3.124   2.389   1.981  0.2044  1.5594 -1.0513
  281TIP3    H2  850   3.226   2.334   2.079 -1.1296 -0.6985 -0.8436
  282TIP3   OH2  851   0.514   2.278   2.911 -0.4327 -0.1692 -0.2600
  282TIP3    H1  852   0.427   2.238   2.912  0.2355 -1.9336  3.2396
  282TIP3    H2  853   0.567   2.220   2.858 -1.1536  0.5543 -1.8513
  283TIP3   OH2  854   4.550   0.352   1.359 -0.2151 -0.3187 -0.3012
  283TIP3    H1  855   4.589   0.266   1.340  0.7929  0.4231 -1.8347
  283TIP3    H2  856   4.521   0.384   1.273  0.0239  1.1458  0.1380
  284TIP3   OH2  857   2.452   1.411   3.813 -0.1950  0.3141  0.5185
  284TIP3    H1  858   2.418   1.382   3.728 -1.2043  3.2514 -0.1856
  284TIP3    H2  859   2.543   1.383   3.812 -1.0629 -2.8706  0.0693
  285TIP3   OH2  860   0.903   3.192   3.238 -0.1242 -0.2123  0.1817
  285TIP3    H1  861   0.953   3.268   3.207  0.9878 -0.4220  1.3498
  285TIP3    H2  862   0.824   3.192   3.185 -0.9217  2.7032  1.1452
  286TIP3   OH2  863   5.497   1.477   0.308 -0.4402 -0.5158  0.4861
  286TIP3    H1  864   5.459   1.472   0.396 -0.4675  0.8547  0.5734
  286TIP3    H2  865   5.499   1.571   0.288  1.1137 -0.6887 -0.3037
  287TIP3   OH2  866   5.940   5.314   3.141 -0.5427 -0.3920 -0.1913
  287TIP3    H1  867   5.866   5.254   3.133 -1.1365  0.3512 -0.5006
  287TIP3    H2  868   5.965   5.310   3.233 -0.6660 -1.0031 -0.1848
  288TIP3   OH2  869   5.988   1.279   3.423  0.4640 -0.1503  0.3533
  288TIP3    H1  870   5.991   1.374   3.417 -0.3418 -0.2041 -1.9333
  288TIP3    H2  871   6.025   1.259   3.509 -0.6423  2.2701  1.4870
  289TIP3   OH2  872   4.873   4.760   0.398  0.1609  0.6985 -0.4741
  289TIP3    H1  873   4.901   4.724   0.482 -0.1501 -1.2740 -1.1552
  289TIP3    H2  874   4.955   4.775   0.350  0.3356  1.7756  0.1314
  290TIP3   OH2  875   1.867   0.549   2.485 -0.4048 -0.6817  0.1046
  290TIP3    H1  876   1.931   0.485   2.454 -1.3298 -1.6924  0.2026
  290TIP3    H2  877   1.796   0.546   2.420 -1.6641 -1.7073  1.4607
  291TIP3   OH2  878   3.004   3.901   3.644 -0.7905 -0.1375 -0.4698
  291TIP3    H1  879   3.063   3.965   3.684 -0.2784 -0.3476 -0.8715
  291TIP3    H2  880   3.028   3.901   3.551  0.1671 -1.8763 -0.2745
  292TIP3   OH2  881   2.645   4.702   0.660 -0.1016  0.0086 -0.4563
  292TIP3    H1  882   2.709   4.635   0.636 -0.7196 -0.5773 -0.5113
  292TIP3    H2  883   2.637   4.756   0.581 -0.4257 -0.5374 -0.8110
  293TIP3   OH2  884   0.233   1.000   1.892 -0.1529  0.2951 -0.3869
  293TIP3    H1  885   0.314   0.952   1.870  1.2423  1.7058  1.3135
  293TIP3    H2  886   0.184   1.003   1.810  2.3337  0.8780 -1.9789
  294TIP3   OH2  887   3.143   4.676   0.565  0.3656  0.3672  0.2441
  294TIP3    H1  888   3.098   4.760   0.559 -0.2649 -0.0090 -0.5188
  294TIP3    H2  889   3.074   4.614   0.589  0.7179 -0.0139  0.2760
  295TIP3   OH2  890   2.065   4.458   2.579  0.4954  0.0569 -0.1430
  295TIP3    H1  891   2.101   4.542   2.607  0.2887 -0.1730  0.8535
  295TIP3    H2  892   2.135   4.418   2.527  1.0189  0.3598  0.3191
  296TIP3   OH2  893   3.705   3.313   0.536  0.5143 -0.9111 -0.0007
  296TIP3    H1  894   3.738   3.402   0.550 -1.2113 -0.0383 -1.0455
  296TIP3    H2  895   3.776   3.268   0.489  1.6667 -0.3141  1.1140
  297TIP3   OH2  896   0.323   1.883   4.956  0.3506 -0.1530  0.4404
  297TIP3    H1  897   0.246   1.826   4.962 -1.2184  1.9236  1.2803
  297TIP3    H2  898   0.287   1.972   4.963  2.8653  0.8904  0.9600
  298TIP3   OH2  899   5.602   4.350   3.989 -0.4321  0.3364  0.1882
  298TIP3    H1  900   5.576   4.439   3.966 -2.8042 -0.3078  0.0922
  298TIP3    H2  901   5.634   4.357   4.079 -1.3603  1.1715  0.4700
  299TIP3   OH2  902   3.336   3.779   3.834 -0.3570 -0.2345 -0.7058
  299TIP3    H1  903   3.299   3.746   3.916  0.0127 -0.0952 -0.4861
  299TIP3    H2  904   3.405   3.717   3.812 -0.1631 -0.0255 -0.6858
  300TIP3   OH2  905   1.994   2.311   4.290 -0.2382  0.2343  0.0927
  300TIP3    H1  906   2.029   2.223   4.276  0.2678  0.5485 -0.6123
  300TIP3    H2  907   1.899   2.299   4.287 -0.3475 -0.8800  3.4480
  301TIP3   OH2  908   4.662   3.413   3.393  0.7902 -0.2601  0.2456
  301TIP3    H1  909   4.709   3.496   3.410  0.1679 -0.0677  1.1061
  301TIP3    H2  910   4.705   3.377   3.316  1.5244  0.5373  0.2594
  302TIP3   OH2  911   6.111   0.156   4.916  0.0156  0.0606  0.0450
  302TIP3    H1  912   6.113   0.062   4.898  2.1388 -0.1247  0.9730
  302TIP3    H2  913   6.021   0.183   4.895 -0.9798 -2.3745  0.8951
  303TIP3   OH2  914   3.265   5.411   1.796 -0.3099 -0.1611 -0.1230
  303TIP3    H1  915   3.299   5.324   1.817  1.6222  0.4397 -0.5531
  303TIP3    H2  916   3.170   5.401   1.800 -0.1432 -2.3054 -0.2456
  304TIP3   OH2  917   2.991   3.624   3.265 -0.2067  0.4672 -0.4327
  304TIP3    H1  918   3.046   3.695   3.297  0.2488  0.1297 -0.4392
  304TIP3    H2  919   2.950   3.658   3.186  1.0064  0.3090 -1.1576
  305TIP3   OH2  920   4.488   5.913   3.473 -0.0181  0.3286  0.4853
  305TIP3    H1  921   4.577   5.934   3.446  0.0185  1.3438  1.3027
  305TIP3    H2  922   4.499   5.862   3.554 -0.1667  1.1292  1.0271
  306TIP3   OH2  923   3.161   1.559   0.840 -0.3020  0.0383 -0.0402
  306TIP3    H1  924   3.207   1.633   0.879  0.6592  0.2254 -1.4161
  306TIP3    H2  925   3.212   1.482   0.867 -0.5910 -0.0022  0.3949
  307TIP3   OH2  926   2.684   0.289   4.410 -0.2480  0.1045 -0.8015
  307TIP3    H1  927   2.721   0.342   4.481 -0.5275  0.1596 -0.6970
  307TIP3    H2  928   2.733   0.317   4.332 -0.0761  0.1848 -0.6665
  308TIP3   OH2  929   0.256   2.529   0.043  0.1130  0.0605 -0.3566
  308TIP3    H1  930   0.262   2.445   0.089 -0.1392 -0.0465 -0.5187
  308TIP3    H2  931   0.327   2.526  -0.022 -0.8161 -0.6563 -1.3787
  309TIP3   OH2  932   0.841   3.850   4.049 -0.0638  0.3996  0.1343
  309TIP3    H1  933   0.931   3.819   4.060 -0.3129 -0.1737  0.6065
  309TIP3    H2  934   0.839   3.934   4.094  0.6003  1.1036 -1.0891
  310TIP3   OH2  935   5.640   5.053   4.852 -0.4224 -0.5259  0.0531
  310TIP3    H1  936   5.643   4.972   4.802  0.1878  0.3738 -1.4232
  310TIP3    H2  937   5.727   5.092   4.841 -1.5396  1.7241 -1.7081
  311TIP3   OH2  938   1.382   1.941   3.949  0.2088  0.6060 -0.4130
  311TIP3    H1  939   1.316   2.011   3.952  1.0730  1.4740 -1.0824
  311TIP3    H2  940   1.425   1.952   3.865  0.0495 -1.0568 -0.7554
  312TIP3   OH2  941   3.822   1.733   0.666 -0.0785 -0.4976 -0.1440
  312TIP3    H1  942   3.840   1.779   0.584  2.2755 -0.5135  0.3085
  312TIP3    H2  943   3.816   1.803   0.731  1.8600 -0.6659  0.2665
  313TIP3   OH2  944   4.399   0.366   4.842 -0.6248  0.0003 -0.0011
  313TIP3    H1  945   4.353   0.440   4.802  1.1745  1.1523 -0.0495
  313TIP3    H2  946   4.329   0.307   4.871 -2.0900  1.3481 -0.6488
  314TIP3   OH2  947   3.816   0.301   1.828  0.1761 -0.1282 -0.4435
  314TIP3    H1  948   3.795   0.227   1.771 -1.0439 -0.0084 -0.1910
  314TIP3    H2  949   3.825   0.263   1.915 -0.6728  0.0204 -0.2746
  315TIP3   OH2  950   0.224   5.492   0.442 -0.5818 -0.1555 -0.1658
  315TIP3    H1  951   0.253   5.503   0.533  0.3368  0.4950 -0.5142
  315TIP3    H2  952   0.271   5.561   0.394  1.1469 -2.2178 -1.6068
  316TIP3   OH2  953   4.734   1.470   3.516  0.1075 -0.2520 -0.4120
  316TIP3    H1  954   4.798   1.452   3.447 -0.3670 -0.9723 -0.6695
  316TIP3    H2  955   4.651   1.480   3.470 -0.0069  0.4745 -0.0577
  317TIP3   OH2  956   0.851   4.437   1.838 -0.3477  0.0002 -0.0501
  317TIP3    H1  957   0.836   4.343   1.831  1.3148 -0.2232 -1.0662
  317TIP3    H2  958   0.933   4.453   1.790 -1.1325  2.1288 -0.8048
  318TIP3   OH2  959   0.929   2.337   2.054 -0.1389  0.5481  0.1033
  318TIP3    H1  960   1.012   2.384   2.052 -0.9952  2.2467  1.2465
  318TIP3    H2  961   0.946   2.259   2.107  0.4102  1.6306  1.6005
  319TIP3   OH2  962   4.725   0.659   3.414  0.2036  0.4915  0.2184
  319TIP3    H1  963   4.755   0.738   3.460 -0.5854  0.8246  0.1710
  319TIP3    H2  964   4.630   0.665   3.416  0.1288 -0.6961  0.6005
  320TIP3   OH2  965   5.387   5.619   1.186  0.0343  0.3869  0.9863
  320TIP3    H1  966   5.313   5.674   1.212 -0.4876  0.3377 -0.3186
  320TIP3    H2  967   5.356   5.571   1.110  1.4768  0.5314  0.2680
  321TIP3   OH2  968   4.655   5.876   3.198  0.2912  0.3350  0.0278
  321TIP3    H1  969   4.687   5.901   3.111  0.3555  1.7277  0.4209
  321TIP3    H2  970   4.672   5.782   3.204  0.2229  0.1917 -1.4872
  322TIP3   OH2  971   4.316   5.633   1.641 -0.1251 -0.1148 -0.0669
  322TIP3    H1  972   4.387   5.579   1.676  1.5150  1.2650 -1.1465
  322TIP3    H2  973   4.249   5.570   1.614  0.9501 -1.4873  0.3583
  323TIP3   OH2  974   0.778   2.725   2.172  0.4614 -0.1887 -0.2582
  323TIP3    H1  975   0.802   2.769   2.090  1.9172  0.6726  0.5973
  323TIP3    H2  976   0.850   2.665   2.189 -0.8067 -1.9083 -0.6290
  324TIP3   OH2  977   2.173   1.060   0.072 -0.6464  0.0385 -0.2637
  324TIP3    H1  978   2.101   1.040   0.132 -1.6271 -0.8024 -1.6403
  324TIP3    H2  979   2.252   1.042   0.122 -1.4007  0.2454  1.0570
  325TIP3   OH2  980   5.682   2.896   3.793  0.3361 -1.0806  0.0228
  325TIP3    H1  981   5.619   2.965   3.813  0.4111 -1.3612  1.3168
  325TIP3    H2  982   5.637   2.838   3.732 -0.2562 -0.6826  0.0757
  326TIP3   OH2  983   4.726   4.210   4.684 -0.6621  0.4847  0.2737
  326TIP3    H1  984   4.801   4.157   4.655 -0.9049 -0.0150  0.5331
  326TIP3    H2  985   4.652   4.176   4.633 -0.6349  1.2850 -0.3158
  327TIP3   OH2  986   1.809   4.994   4.239 -0.1813  0.5758 -0.0700
  327TIP3    H1  987   1.888   4.941   4.238 -0.4220  0.1405  1.3774
  327TIP3    H2  988   1.741   4.935   4.273 -0.4164  1.8182  1.7599
  328TIP3   OH2  989   5.130   5.300   2.615  0.2164  0.4803 -0.2268
  328TIP3    H1  990   5.086   5.248   2.682  0.8660 -1.2966 -1.1306
  328TIP3    H2  991   5.066   5.307   2.544  0.8729 -0.9142 -0.9705
  329TIP3   OH2  992   3.466   2.257   1.403  0.0993  0.4328 -0.1840
  329TIP3    H1  993   3.449   2.317   1.330  1.9175 -0.4645 -1.4017
  329TIP3    H2  994   3.514   2.310   1.467 -0.1077  0.8084 -0.3371
  330TIP3   OH2  995   5.403   3.791   2.590  0.7733  0.0484 -0.2661
  330TIP3    H1  996   5.337   3.751   2.533  1.7068 -0.4638 -1.0133
  330TIP3    H2  997   5.468   3.722   2.604  0.1186 -0.1802  2.2327
  331TIP3   OH2  998   2.962   4.139   1.363  0.6155 -0.0680  0.1846
  331TIP3    H1  999   2.956   4.057   1.412 -1.1233  0.1904  0.4737
  331TIP3    H2 1000   2.942   4.207   1.427  2.6219  0.6891  0.0957
  332TIP3   OH2 1001   3.493   4.923   3.491 -0.4002  0.6998  0.4417
  332TIP3    H1 1002   3.434   4.853   3.520 -0.2935  0.8962  1.1606
  332TIP3    H2 1003   3.472   4.996   3.549 -0.6742  1.3376 -0.4618
  333TIP3   OH2 1004   5.362   4.578   1.815 -0.5771 -0.4232 -0.1093
  333TIP3    H1 1005   5.382   4.671   1.819  1.1928 -0.7763  0.0693
  333TIP3    H2 1006   5.439   4.535   1.851  0.1104 -2.1219 -3.2197
  334TIP3   OH2 1007   3.242   4.235   4.270  0.4431  0.0299  0.6424
  334TIP3    H1 1008   3.178   4.203   4.334  2.2440 -2.5136  1.3234
  334TIP3    H2 1009   3.274   4.317   4.307 -0.7047  0.1430  1.4502
  335TIP3   OH2 1010   4.029   5.776   3.484  0.2528  0.4476  0.2996
  335TIP3    H1 1011   4.112   5.815   3.457 -0.3043  1.7127  0.3701
  335TIP3    H2 1012   3.968   5.799   3.414 -0.5283  1.3239  1.2478
  336TIP3   OH2 1013   0.821   5.911   4.538  0.2144  0.6507 -0.1454
  336TIP3    H1 1014   0.916   5.920   4.530  0.5842 -1.2457  1.4761
  336TIP3    H2 1015   0.808   5.855   4.615 -2.3080  2.6768  1.0647
  337TIP3   OH2 1016   2.957   3.843   1.041 -0.0342 -0.0021 -0.0477
  337TIP3    H1 1017   2.998   3.868   0.958  2.0362  0.4323  1.0215
  337TIP3    H2 1018   2.865   3.864   1.030  0.1387 -0.1807 -2.3071
  338TIP3   OH2 1019   1.070   4.134   1.562 -0.4301 -0.1196  0.0714
  338TIP3    H1 1020   1.049   4.227   1.555 -0.4283 -0.1510 -0.4464
  338TIP3    H2 1021   0.992   4.089   1.528 -0.5484 -0.3181  0.5966
  339TIP3   OH2 1022   5.917   5.799   3.798  0.1983 -0.0900 -0.2918
  339TIP3    H1 1023   5.850   5.855   3.760  0.9987  1.0714 -0.0596
  339TIP3    H2 1024   5.999   5.846   3.782  0.6774 -0.0566  1.8988
  340TIP3   OH2 1025   3.068   4.188   3.370 -0.2932  0.6958 -0.2415
  340TIP3    H1 1026   3.131   4.257   3.388 -1.2988  1.1814  1.7208
  340TIP3    H2 1027   2.984   4.223   3.401 -0.6085 -1.8653  2.2069
  341TIP3   OH2 1028   4.916   0.573   4.861  0.4181 -0.2466 -0.1706
  341TIP3    H1 1029   4.962   0.549   4.780  0.1323  0.0464 -0.4240
  341TIP3    H2 1030   4.830   0.533   4.852  0.2037  0.2203 -0.2517
  342TIP3   OH2 1031   4.108   4.353   2.593 -0.0675  0.1762  0.0109
  342TIP3    H1 1032   4.088   4.438   2.631 -0.2768  0.1440 -0.0243
  342TIP3    H2 1033   4.111   4.369   2.499  0.2745  0.2201  0.0255
  343TIP3   OH2 1034   5.862   4.198   0.753 -0.2477  0.1659 -0.6302
  343TIP3    H1 1035   5.900   4.214   0.666  3.0485  0.3022  0.7147
  343TIP3    H2 1036   5.877   4.279   0.801 -0.1110 -0.6091  0.6854
  344TIP3   OH2 1037   3.073   3.301   2.935  0.0258 -0.4930  0.1877
  344TIP3    H1 1038   3.089   3.392   2.912 -1.1314  0.4090  2.5245
  344TIP3    H2 1039   2.987   3.281   2.897 -0.5213  0.0047  1.1231
  345TIP3   OH2 1040   3.277   5.825   1.952 -0.2887 -0.0140 -0.3202
  345TIP3    H1 1041   3.366   5.789   1.953 -0.2328  0.1174  0.7493
  345TIP3    H2 1042   3.240   5.797   1.868 -0.0196 -2.0049  0.1831
  346TIP3   OH2 1043   1.683   0.646   4.166  0.5191 -0.1365  0.0035
  346TIP3    H1 1044   1.740   0.700   4.221  1.6461 -0.9097 -0.3736
  346TIP3    H2 1045   1.697   0.679   4.078 -1.1309  0.9638  0.1125
  347TIP3   OH2 1046   3.935   2.454   4.113 -0.1626  0.0159 -0.8081
  347TIP3    H1 1047   4.023   2.428   4.140 -0.1630  2.2634  1.7675
  347TIP3    H2 1048   3.879   2.381   4.143  0.3657  0.5662  1.8071
  348TIP3   OH2 1049   1.738   3.018   0.964  0.1828  0.5205  1.2757
  348TIP3    H1 1050   1.667   2.966   0.925  0.5018  0.2832  1.0133
  348TIP3    H2 1051   1.788   3.051   0.889  0.1819  0.9323  1.4509
  349TIP3   OH2 1052   4.280   3.635   3.661 -0.4056 -0.1797 -0.1845
  349TIP3    H1 1053   4.209   3.669   3.607  0.4333  1.1296 -0.5241
  349TIP3    H2 1054   4.350   3.616   3.598  0.0002 -0.2276  0.2786
  350TIP3   OH2 1055   5.449   4.745   3.127 -0.3019 -0.0738  0.5484
  350TIP3    H1 1056   5.451   4.833   3.164 -0.7975  1.5630 -2.8867
  350TIP3    H2 1057   5.399   4.755   3.045  0.8752 -3.2338 -0.7096
  351TIP3   OH2 1058   4.053   0.076   4.100 -0.0527  0.1846 -0.2654
  351TIP3    H1 1059   4.116   0.141   4.067  1.1004  0.0929  1.5621
  351TIP3    H2 1060   4.055   0.005   4.036  2.5282 -0.2733  0.2034
  352TIP3   OH2 1061   6.101   2.243   3.131 -0.3144  0.3964 -0.4546
  352TIP3    H1 1062   6.167   2.312   3.137 -0.0336  0.0918  0.0373
  352TIP3    H2 1063   6.029   2.283   3.081  0.5097  0.5059 -1.5891
  353TIP3   OH2 1064   0.537   1.210   4.742  0.0739 -0.2711 -0.5843
  353TIP3    H1 1065   0.632   1.220   4.742  0.0040  0.5323  0.1926
  353TIP3    H2 1066   0.510   1.240   4.829 -1.0418  0.9775 -1.3272
  354TIP3   OH2 1067   1.890   4.017   2.499  0.9829  0.0871  0.3385
  354TIP3    H1 1068   1.983   4.018   2.478  0.9034 -1.4720 -0.1697
  354TIP3    H2 1069   1.847   3.990   2.418  0.2917 -1.5043  1.1817
  355TIP3   OH2 1070   3.072   0.306   2.781  0.7256  0.0520 -0.0530
  355TIP3    H1 1071   3.092   0.212   2.778 -1.0688 -0.4501  1.2320
  355TIP3    H2 1072   3.006   0.318   2.712 -1.6581 -0.4657  1.9695
  356TIP3   OH2 1073   3.166   3.083   0.693  0.3212  0.2156  0.4541
  356TIP3    H1 1074   3.109   3.036   0.632  1.0233  1.1360 -0.9605
  356TIP3    H2 1075   3.110   3.102   0.768 -0.8489 -0.0937 -0.3150
  357TIP3   OH2 1076   5.141   5.626   3.001 -0.3060  0.0065  0.9159
  357TIP3    H1 1077   5.102   5.621   2.913  0.6202 -0.7092  0.5326
  357TIP3    H2 1078   5.132   5.537   3.036  0.3218  0.0081  1.0973
  358TIP3   OH2 1079   0.191   2.556   4.099 -0.1357 -0.2930 -0.6365
  358TIP3    H1 1080   0.240   2.569   4.018  1.4850 -1.7829  0.0195
  358TIP3    H2 1081   0.237   2.484   4.143 -2.1044 -0.8074  0.7160
  359TIP3   OH2 1082   5.235   1.606   3.719  0.0226  0.2094 -0.2456
  359TIP3    H1 1083   5.327   1.627   3.737  0.1703 -0.5360 -0.0814
  359TIP3    H2 1084   5.196   1.598   3.806  0.2952 -1.5265 -0.2512
  360TIP3   OH2 1085   5.843   1.735   1.601  0.0156 -0.3453  0.7479
  360TIP3    H1 1086   5.936   1.750   1.581 -0.0568  0.1831  0.8051
  360TIP3    H2 1087   5.804   1.822   1.603 -0.6201 -0.5966  0.0859
  361TIP3   OH2 1088   4.048   3.985   0.627 -0.5407  0.0324  0.7187
  361TIP3    H1 1089   4.067   3.948   0.713  1.2067  0.4543  0.5601
  361TIP3    H2 1090   4.079   3.919   0.565 -1.5021 -0.1360  0.4077
  362TIP3   OH2 1091   3.787   2.853   0.203 -0.5954 -0.1398 -0.1249
  362TIP3    H1 1092   3.739   2.936   0.202 -0.7586 -0.2335  0.0254
  362TIP3    H2 1093   3.741   2.798   0.265 -1.3659 -0.8714 -1.2968
  363TIP3   OH2 1094   5.138   2.440   3.673 -0.0523 -0.2090 -0.2260
  363TIP3    H1 1095   5.174   2.367   3.624 -0.1051  0.0157 -0.6079
  363TIP3    H2 1096   5.199   2.454   3.745 -0.9812 -1.7922  0.9198
  364TIP3   OH2 1097   4.423   3.523   1.409 -0.0491 -0.0362  0.2789
  364TIP3    H1 1098   4.446   3.435   1.378  1.0799  0.4057 -0.1765
  364TIP3    H2 1099   4.413   3.575   1.330  0.6383  0.5627  0.5699
  365TIP3   OH2 1100   1.411   1.123   1.601 -0.3212 -1.1090  0.0965
  365TIP3    H1 1101   1.407   1.216   1.623  2.4124 -0.8587 -0.1531
  365TIP3    H2 1102   1.469   1.086   1.668 -1.6781 -2.7395  0.4140
  366TIP3   OH2 1103   2.357   2.605   4.939  0.1267  0.5218 -0.0458
  366TIP3    H1 1104   2.411   2.660   4.994  1.3167 -1.2784  0.6781
  366TIP3    H2 1105   2.409   2.526   4.924 -0.7744  0.2909 -2.4983
  367TIP3   OH2 1106   4.909   5.932   0.349 -0.0528 -0.4619  0.3006
  367TIP3    H1 1107   5.000   5.959   0.332 -0.6710  2.0003  0.5005
  367TIP3    H2 1108   4.857   5.981   0.285 -1.2883 -1.6409  0.3627
  368TIP3   OH2 1109   0.135   1.511   1.323  0.4154  0.0361 -0.5234
  368TIP3    H1 1110   0.121   1.491   1.416  0.6977  0.2995 -0.4220
  368TIP3    H2 1111   0.050   1.493   1.282  0.6932 -1.4932 -0.4767
  369TIP3   OH2 1112   5.887   2.389   3.374 -0.9608 -0.6791 -0.2593
  369TIP3    H1 1113   5.950   2.320   3.395 -2.4978 -2.0119  0.0979
  369TIP3    H2 1114   5.826   2.348   3.313 -0.6790  1.0316 -1.8065
  370TIP3   OH2 1115   0.642   1.073   1.008 -0.0053  0.3535  0.2089
  370TIP3    H1 1116   0.609   1.076   1.098 -0.0166  1.7965  0.1757
  370TIP3    H2 1117   0.664   1.164   0.988 -0.3012  0.0916 -1.3696
  371TIP3   OH2 1118   5.194   0.150   0.479 -0.3782  0.3493  0.2552
  371TIP3    H1 1119   5.113   0.107   0.451  0.1843  0.5064 -1.7265
  371TIP3    H2 1120   5.225   0.198   0.402  1.3183  0.7484  1.1228
  372TIP3   OH2 1121   4.657   3.184   3.049 -0.5329  0.2804 -0.0326
  372TIP3    H1 1122   4.691   3.237   3.120 -0.0334 -0.2372  0.1210
  372TIP3    H2 1123   4.734   3.163   2.995 -0.2816 -2.1309  1.1168
  373TIP3   OH2 1124   4.644   2.066   0.166 -0.1119  0.0874  0.8543
  373TIP3    H1 1125   4.574   2.075   0.230 -0.4593 -1.1237  0.6666
  373TIP3    H2 1126   4.700   1.997   0.200  1.0006  1.0157  0.9842
  374TIP3   OH2 1127   3.989   3.998   2.316 -0.4456  0.2380  0.3128
  374TIP3    H1 1128   4.012   4.039   2.232  1.0612 -0.0222  0.5594
  374TIP3    H2 1129   3.901   3.964   2.303  0.0538 -0.5200 -1.4634
  375TIP3   OH2 1130   5.856   0.577   3.256  0.7806  0.5520  0.0124
  375TIP3    H1 1131   5.905   0.617   3.328  0.6053 -0.8404  0.9586
  375TIP3    H2 1132   5.864   0.483   3.272 -2.0241  0.2492  0.1222
  376TIP3   OH2 1133   3.235   0.273   0.827  0.2420  0.0057 -0.2736
  376TIP3    H1 1134   3.249   0.366   0.810  0.8619  0.9151  4.1270
  376TIP3    H2 1135   3.249   0.263   0.921 -1.1156 -4.3436 -0.3132
  377TIP3   OH2 1136   4.568   3.184   4.881  0.5661 -0.1967 -0.3347
  377TIP3    H1 1137   4.475   3.164   4.893 -0.6173  2.8053 -2.7933
  377TIP3    H2 1138   4.602   3.196   4.969 -1.5353 -0.8365  0.6298
  378TIP3   OH2 1139   3.195   2.777   1.154 -0.4933 -0.4412  0.2256
  378TIP3    H1 1140   3.179   2.861   1.198  1.1269  0.7089 -1.2265
  378TIP3    H2 1141   3.257   2.798   1.084  0.1115 -2.9039 -0.0790
  379TIP3   OH2 1142   3.962   3.630   2.891  0.0629 -0.8448  0.1871
  379TIP3    H1 1143   4.007   3.570   2.831 -0.6724 -0.8197 -0.4035
  379TIP3    H2 1144   3.912   3.573   2.949 -0.4621 -0.8157 -0.2329
  380TIP3   OH2 1145   4.881   3.344   4.322  0.4280 -0.3182  0.5228
  380TIP3    H1 1146   4.894   3.253   4.348  0.1941 -0.7822 -0.8943
  380TIP3    H2 1147   4.969   3.377   4.305  0.3732 -1.3110 -2.1549
  381TIP3   OH2 1148   4.052   3.639   0.194  0.2333 -0.5440  0.9527
  381TIP3    H1 1149   4.094   3.571   0.141 -2.4667 -0.9383 -0.8591
  381TIP3    H2 1150   4.106   3.717   0.181  2.5041 -1.8733  1.8201
  382TIP3   OH2 1151   2.154   4.133   1.147  0.2995 -0.3200  0.1136
  382TIP3    H1 1152   2.059   4.136   1.149  0.2621 -0.8541 -0.5534
  382TIP3    H2 1153   2.181   4.161   1.234 -0.4863 -1.0483  0.6003
  383TIP3   OH2 1154   1.055   2.514   3.676  0.3274  0.6588  0.1312
  383TIP3    H1 1155   1.069   2.441   3.616 -1.0744 -1.8781  2.6038
  383TIP3    H2 1156   1.135   2.518   3.728  0.3229  0.6787  0.1362
  384TIP3   OH2 1157   1.784   1.138   1.956  0.3583 -0.0776 -0.0672
  384TIP3    H1 1158   1.738   1.221   1.968 -0.6338 -0.5493 -0.5748
  384TIP3    H2 1159   1.875   1.158   1.980 -0.4122  0.4168  2.7342
  385TIP3   OH2 1160   2.315   1.854   4.252 -0.4007  0.0057  0.1059
  385TIP3    H1 1161   2.261   1.782   4.282  1.2897 -1.0939  0.6508
  385TIP3    H2 1162   2.361   1.884   4.331 -0.2294  0.9331 -0.3290
  386TIP3   OH2 1163   0.906   1.360   2.504  0.2769 -0.1968 -0.2623
  386TIP3    H1 1164   0.924   1.308   2.583 -0.3342  0.4737  0.3408
  386TIP3    H2 1165   0.913   1.451   2.534 -1.4657  0.0827 -0.5999
  387TIP3   OH2 1166   5.901   0.050   3.556  0.3668  0.1157 -0.4481
  387TIP3    H1 1167   5.933   0.035   3.467 -2.7898 -0.6532 -1.5796
  387TIP3    H2 1168   5.825   0.107   3.545  0.7873  1.2861  1.9734
  388TIP3   OH2 1169   2.626   3.866   4.522  0.6775  0.5813  0.4622
  388TIP3    H1 1170   2.659   3.845   4.610 -0.5787  0.6963  0.9815
  388TIP3    H2 1171   2.650   3.958   4.510  2.1155  0.1902  0.0693
  389TIP3   OH2 1172   0.154   3.931   3.690 -0.1196  0.4476 -0.0987
  389TIP3    H1 1173   0.216   3.858   3.694 -0.7015 -0.0044  2.1137
  389TIP3    H2 1174   0.205   4.007   3.717  0.2262  0.7083 -1.4045
  390TIP3   OH2 1175   2.561   2.292   0.105 -0.1982  0.4669  0.5921
  390TIP3    H1 1176   2.626   2.358   0.126  0.7577 -0.2036 -0.1417
  390TIP3    H2 1177   2.481   2.342   0.086  0.8270  1.5371 -1.2113
  391TIP3   OH2 1178   6.297   3.408   3.760  0.1756 -0.0174 -0.2127
  391TIP3    H1 1179   6.208   3.443   3.753  0.1712  0.8018  2.7208
  391TIP3    H2 1180   6.290   3.338   3.824  1.4106 -0.9585 -1.0680
  392TIP3   OH2 1181   3.431   5.054   4.166  0.4192  0.0964  0.9768
  392TIP3    H1 1182   3.435   5.008   4.250 -1.5733 -0.2270  0.9586
  392TIP3    H2 1183   3.391   5.138   4.187  0.5957  0.3076  0.4677
  393TIP3   OH2 1184   4.832   4.555   0.215  0.3773  0.4514 -0.3342
  393TIP3    H1 1185   4.746   4.549   0.258 -1.6201  0.3140 -3.9572
  393TIP3    H2 1186   4.875   4.628   0.259 -1.5809  0.5909  1.5561
  394TIP3   OH2 1187   0.047   1.673   1.823  0.0170 -0.0022 -0.4736
  394TIP3    H1 1188   0.096   1.739   1.872  0.1409  0.1241 -0.7629
  394TIP3    H2 1189   0.079   1.682   1.733  2.2457 -2.4328 -0.0649
  395TIP3   OH2 1190   0.311   3.045   1.709 -0.5208  0.0412  0.0618
  395TIP3    H1 1191   0.251   3.103   1.662 -0.6976  1.4449  1.9076
  395TIP3    H2 1192   0.392   3.047   1.656 -0.3014  2.5243  0.3484
  396TIP3   OH2 1193   3.486   2.790   2.564  0.3072  0.2238 -0.3904
  396TIP3    H1 1194   3.415   2.762   2.505  0.5156 -1.3847  0.0889
  396TIP3    H2 1195   3.502   2.881   2.539  0.1454 -0.2889 -2.5939
  397TIP3   OH2 1196   1.638   1.902   3.444 -0.0404  0.1806  0.8781
  397TIP3    H1 1197   1.559   1.857   3.413  1.0103 -1.3427  0.3044
  397TIP3    H2 1198   1.633   1.989   3.405  0.1371 -0.9380 -1.8798
  398TIP3   OH2 1199   5.495   0.961   3.358 -0.7977  0.2040  0.0229
  398TIP3    H1 1200   5.553   0.922   3.292 -1.2046  0.3726 -0.4412
  398TIP3    H2 1201   5.415   0.908   3.355 -0.5347 -0.2696  0.9356
  399TIP3   OH2 1202   3.597   0.454   1.728 -0.2736 -0.0128  0.4859
  399TIP3    H1 1203   3.526   0.391   1.737  1.3450 -1.8074  1.6629
  399TIP3    H2 1204   3.676   0.404   1.750  1.2989  2.0166 -0.2150
  400TIP3   OH2 1205   3.729   0.972   3.537 -0.6291  0.6134 -0.6668
  400TIP3    H1 1206   3.755   0.960   3.446 -0.9798 -1.2906 -0.5460
  400TIP3    H2 1207   3.634   0.964   3.536 -0.9855  3.6928 -0.5399
  401TIP3   OH2 1208   3.086   3.494   1.883 -0.0907  0.0577  0.0326
  401TIP3    H1 1209   3.170   3.537   1.870 -0.8484  2.0091  1.2510
  401TIP3    H2 1210   3.053   3.529   1.965 -1.6807 -1.4041  0.0812
  402TIP3   OH2 1211   1.634   5.845   1.296  0.9052  0.4740 -0.0815
  402TIP3    H1 1212   1.720   5.803   1.299  0.7216 -0.1206 -1.8005
  402TIP3    H2 1213   1.653   5.936   1.272  1.0472  0.1604 -1.2369
  403TIP3   OH2 1214   4.281   4.855   0.683 -0.3377  0.0073 -0.3480
  403TIP3    H1 1215   4.268   4.839   0.589 -0.4752 -2.7186  0.0596
  403TIP3    H2 1216   4.197   4.834   0.723  0.1900 -0.4637  0.5469
  404TIP3   OH2 1217   3.337   1.348   1.424 -0.4857  0.2218  0.6234
  404TIP3    H1 1218   3.405   1.408   1.394 -1.3314  1.1819  0.5923
  404TIP3    H2 1219   3.329   1.365   1.517 -0.3518 -0.2406  0.7229
  405TIP3   OH2 1220   2.018   1.928   3.046  0.2359  0.2944 -0.1052
  405TIP3    H1 1221   1.964   1.855   3.077  1.3103 -0.4687 -0.0065
  405TIP3    H2 1222   2.087   1.936   3.112  0.2668  1.2548 -0.2422
  406TIP3   OH2 1223   4.782   4.577   1.983  0.1559 -0.7372 -0.5229
  406TIP3    H1 1224   4.792   4.525   1.903  1.0018 -1.7532  0.2134
  406TIP3    H2 1225   4.715   4.532   2.034 -0.7099  0.1642 -0.8383
  407TIP3   OH2 1226   2.538   0.797   4.310  0.1118  0.0811 -0.3738
  407TIP3    H1 1227   2.523   0.846   4.391  1.0379 -1.6285  0.8956
  407TIP3    H2 1228   2.465   0.736   4.305  1.2538 -1.4375  0.5005
  408TIP3   OH2 1229   3.803   4.858   1.137 -0.2753  0.4109 -0.5473
  408TIP3    H1 1230   3.779   4.793   1.072 -0.6344  0.0679 -0.0729
  408TIP3    H2 1231   3.899   4.864   1.130 -0.2694  0.0495 -0.7937
  409TIP3   OH2 1232   1.414   5.669   1.473 -0.0922  0.0511  0.1184
  409TIP3    H1 1233   1.394   5.760   1.455 -0.5777  0.0292  0.5185
  409TIP3    H2 1234   1.379   5.621   1.398 -0.4690  0.1298  0.2400
  410TIP3   OH2 1235   4.875   3.610   4.413 -0.2746 -0.7443 -0.3265
  410TIP3    H1 1236   4.900   3.521   4.390  0.7796 -1.0548  1.7533
  410TIP3    H2 1237   4.812   3.599   4.485 -1.9363  0.1700 -1.5707
  411TIP3   OH2 1238   0.504   1.451   2.365  0.2170  0.0411 -0.3331
  411TIP3    H1 1239   0.531   1.433   2.455  1.4539 -0.6453 -0.8036
  411TIP3    H2 1240   0.438   1.520   2.372  1.1311  0.8139  1.0062
  412TIP3   OH2 1241   3.290   0.068   0.246 -0.0944  0.3776  0.2161
  412TIP3    H1 1242   3.203   0.056   0.208 -0.2433 -1.7062  1.0914
  412TIP3    H2 1243   3.331   0.136   0.192 -2.7109  2.3733  0.6003
  413TIP3   OH2 1244   2.758   0.051   0.238  0.9843 -0.2893 -0.8229
  413TIP3    H1 1245   2.738   0.037   0.146 -0.7703  0.0625 -0.5371
  413TIP3    H2 1246   2.736   0.143   0.253 -0.5084 -0.7982  0.3307
  414TIP3   OH2 1247   0.656   5.858   1.478 -0.1666  0.4317 -0.1127
  414TIP3    H1 1248   0.585   5.810   1.522 -1.7261  0.0914 -2.7589
  414TIP3    H2 1249   0.720   5.791   1.455 -0.2206  0.3268  0.0431
  415TIP3   OH2 1250   0.893   3.154   4.636  0.9413  0.1897 -0.1161
  415TIP3    H1 1251   0.912   3.108   4.554 -1.5723 -0.0748 -0.6198
  415TIP3    H2 1252   0.975   3.199   4.657  1.5964  0.5187 -2.9434
  416TIP3   OH2 1253   4.044   1.345   2.156  0.0202  0.1989  0.1510
  416TIP3    H1 1254   4.023   1.352   2.063  0.2243  0.1289  0.1001
  416TIP3    H2 1255   4.086   1.259   2.165 -0.1685  0.1242  0.3396
  417TIP3   OH2 1256   3.889   2.329   1.157 -0.3565  0.3389  0.1615
  417TIP3    H1 1257   3.983   2.314   1.145 -0.7238 -0.5597 -1.9204
  417TIP3    H2 1258   3.873   2.301   1.247  1.0306 -1.4641 -0.0785
  418TIP3   OH2 1259   0.719   4.481   0.276 -0.5178 -0.1506  0.2693
  418TIP3    H1 1260   0.653   4.437   0.330  0.7321  0.4565  2.4463
  418TIP3    H2 1261   0.778   4.412   0.248 -0.8533 -0.4022  0.1816
  419TIP3   OH2 1262   3.333   1.367   0.075  0.2536  0.0812 -0.2897
  419TIP3    H1 1263   3.263   1.337   0.132  0.4795  1.9471  1.0579
  419TIP3    H2 1264   3.394   1.293   0.071 -0.4945 -0.6165  0.6767
  420TIP3   OH2 1265   2.702   0.689   3.530  0.0063  0.1177  0.1417
  420TIP3    H1 1266   2.619   0.734   3.512 -0.0477 -0.3821 -0.9091
  420TIP3    H2 1267   2.690   0.653   3.618 -1.2638 -0.7449 -0.3534
  421TIP3   OH2 1268   6.012   0.166   3.830  0.2918  0.9884 -0.4045
  421TIP3    H1 1269   6.054   0.231   3.774  0.8718 -0.4983 -1.7930
  421TIP3    H2 1270   5.956   0.116   3.770  0.4169 -0.2384  0.4667
  422TIP3   OH2 1271   3.451   3.837   0.379 -0.0464 -0.0039  0.0584
  422TIP3    H1 1272   3.441   3.920   0.427 -0.9728 -0.0691  0.0090
  422TIP3    H2 1273   3.538   3.842   0.341 -0.4889  1.4410 -0.8612
  423TIP3   OH2 1274   1.012   2.066   0.661  0.4683 -0.3546 -0.2365
  423TIP3    H1 1275   0.934   2.065   0.606  0.9152  1.0114 -0.9468
  423TIP3    H2 1276   1.025   1.975   0.686 -2.2446 -0.4363  1.2090
  424TIP3   OH2 1277   1.356   5.335   2.752  0.1890  0.1110  0.6259
  424TIP3    H1 1278   1.397   5.421   2.755  0.0913  0.1403  3.5782
  424TIP3    H2 1279   1.268   5.352   2.718  0.1402  1.1962  1.2626
  425TIP3   OH2 1280   4.376   1.459   0.407 -0.6410  0.2390 -0.1017
  425TIP3    H1 1281   4.351   1.465   0.499 -0.8594  0.0143 -0.1468
  425TIP3    H2 1282   4.325   1.385   0.373 -1.4326  1.0455 -0.6958
  426TIP3   OH2 1283   4.206   1.893   3.422  0.1940  0.0906 -0.0876
  426TIP3    H1 1284   4.146   1.938   3.363  0.4615  0.4487 -0.0902
  426TIP3    H2 1285   4.167   1.807   3.435 -0.9855  0.7422  0.9061
  427TIP3   OH2 1286   5.415   3.710   1.858  0.5488 -0.5470  0.2860
  427TIP3    H1 1287   5.481   3.774   1.835 -0.4203 -0.0435 -1.1911
  427TIP3    H2 1288   5.358   3.756   1.920 -0.1040  0.0080 -0.7154
  428TIP3   OH2 1289   4.767   5.064   2.276  0.1141  0.0584  0.3699
  428TIP3    H1 1290   4.710   5.129   2.235  1.0748  0.4621 -0.3461
  428TIP3    H2 1291   4.751   4.984   2.226 -0.5480 -0.1004  0.8095
  429TIP3   OH2 1292   2.735   5.387   3.699 -0.2967 -0.4258 -0.3937
  429TIP3    H1 1293   2.767   5.438   3.773 -1.5141 -1.9217  1.2629
  429TIP3    H2 1294   2.658   5.434   3.667 -0.6041 -0.5018  0.2311
  430TIP3   OH2 1295   2.249   4.539   2.851 -0.4922  0.0002  0.0146
  430TIP3    H1 1296   2.214   4.597   2.783 -1.1714 -0.4386 -0.0318
  430TIP3    H2 1297   2.249   4.452   2.810  0.1948 -0.0873  0.1911
  431TIP3   OH2 1298   5.111   3.681   4.878  0.9533 -0.3579  0.0412
  431TIP3    H1 1299   5.132   3.608   4.936  2.0558 -0.7969 -0.8574
  431TIP3    H2 1300   5.179   3.677   4.810 -0.6411 -0.2613 -1.6346
  432TIP3   OH2 1301   4.075   1.045   2.185  0.0754 -0.1011 -0.2100
  432TIP3    H1 1302   4.040   1.076   2.269 -0.7471 -0.5281 -0.3831
  432TIP3    H2 1303   4.145   0.985   2.209 -0.6549 -0.8088  0.1989
  433TIP3   OH2 1304   3.657   2.132   5.111  0.8310  0.1671 -0.0084
  433TIP3    H1 1305   3.696   2.098   5.031 -1.6648 -0.7082 -0.9644
  433TIP3    H2 1306   3.580   2.180   5.081 -0.2355 -0.2935  1.8628
  434TIP3   OH2 1307   2.960   2.690   3.035 -0.1744  0.0371 -0.4573
  434TIP3    H1 1308   2.869   2.678   3.007  0.5580 -0.3798 -2.9046
  434TIP3    H2 1309   2.979   2.613   3.088 -0.9167 -0.4125 -0.8305
  435TIP3   OH2 1310   2.736   0.457   2.848 -0.3617  0.5473 -0.1303
  435TIP3    H1 1311   2.708   0.366   2.837 -0.1735  0.5396 -0.5733
  435TIP3    H2 1312   2.817   0.463   2.797  0.2023  0.6845  0.7561
  436TIP3   OH2 1313   0.707   4.414   2.472 -0.2126  0.0050  0.0339
  436TIP3    H1 1314   0.776   4.349   2.464  2.4766  2.8462 -2.2964
  436TIP3    H2 1315   0.675   4.427   2.382 -0.3070  2.1889  0.3364
  437TIP3   OH2 1316   0.101   3.717   4.847 -0.1793 -0.1844 -0.3936
  437TIP3    H1 1317   0.142   3.687   4.766  2.2478 -1.1392  1.0723
  437TIP3    H2 1318   0.007   3.719   4.827  0.2468 -1.2509 -2.9290
  438TIP3   OH2 1319   3.092   3.440   5.065  0.8906 -0.1495 -0.3176
  438TIP3    H1 1320   3.125   3.429   5.154 -0.2500 -2.7969 -0.1318
  438TIP3    H2 1321   3.140   3.515   5.031  0.0206  2.2085  3.1308
  439TIP3   OH2 1322   0.329   3.145   3.109 -0.1478  0.8538 -0.1070
  439TIP3    H1 1323   0.318   3.146   3.204  0.4033  0.1884 -0.0267
  439TIP3    H2 1324   0.305   3.056   3.082  1.4377  0.4543 -0.3461
  440TIP3   OH2 1325   0.918   5.928   0.219  0.0355  0.1395 -0.0055
  440TIP3    H1 1326   0.831   5.940   0.179 -0.0795  0.0003  0.2016
  440TIP3    H2 1327   0.936   5.834   0.209  0.4790  0.2895 -0.6906
  441TIP3   OH2 1328   0.428   1.823   0.973  0.1903 -0.5163 -0.1315
  441TIP3    H1 1329   0.359   1.774   1.019 -1.0313 -0.6598 -1.9895
  441TIP3    H2 1330   0.474   1.757   0.922 -0.1167 -0.0506 -1.0381
  442TIP3   OH2 1331   1.203   0.729   4.189  0.7856 -0.0714 -0.3281
  442TIP3    H1 1332   1.248   0.685   4.260 -2.5960  1.2455  2.9672
  442TIP3    H2 1333   1.217   0.823   4.205 -1.2889  0.3057 -0.3426
  443TIP3   OH2 1334   2.239   4.123   5.049 -0.3146  0.1589  0.2265
  443TIP3    H1 1335   2.264   4.103   5.139 -2.9615 -0.7826  0.8439
  443TIP3    H2 1336   2.176   4.054   5.025  0.3058  0.3773 -2.3650
  444TIP3   OH2 1337   0.228   2.765   3.390  0.0488  0.6926  0.0926
  444TIP3    H1 1338   0.203   2.723   3.308  0.0095 -0.6503  0.7688
  444TIP3    H2 1339   0.193   2.708   3.459 -1.1573  2.4975  1.0914
  445TIP3   OH2 1340   4.444   0.496   2.188 -0.1655 -0.3253  0.0350
  445TIP3    H1 1341   4.521   0.545   2.160 -0.5285  0.4169  0.2967
  445TIP3    H2 1342   4.370   0.553   2.167 -0.6868 -1.2046 -0.6041
  446TIP3   OH2 1343   3.743   0.764   2.073  0.1189 -0.3881  0.4369
  446TIP3    H1 1344   3.691   0.760   1.992  0.1608  0.4431  0.3584
  446TIP3    H2 1345   3.678   0.768   2.143  0.0260  1.8010  0.2830
  447TIP3   OH2 1346   1.512   0.816   0.167  0.0439 -0.0525 -0.2352
  447TIP3    H1 1347   1.544   0.891   0.217 -0.6363 -0.7470  1.3100
  447TIP3    H2 1348   1.573   0.746   0.186  0.0901 -0.1810 -0.8375
  448TIP3   OH2 1349   3.412   1.862   0.042 -0.4141  0.0815 -0.1116
  448TIP3    H1 1350   3.451   1.942   0.007  1.0007 -0.2784  0.5834
  448TIP3    H2 1351   3.486   1.811   0.074 -1.1558 -2.1093 -1.6676
  449TIP3   OH2 1352   0.033   0.274   3.238 -0.3503  0.0977  0.0052
  449TIP3    H1 1353   0.068   0.341   3.296 -1.6616 -0.7292  1.8639
  449TIP3    H2 1354   0.110   0.225   3.209  0.5031  1.6228 -0.4354
  450TIP3   OH2 1355   0.418   5.833   0.792  0.2190 -0.2589 -0.7172
  450TIP3    H1 1356   0.340   5.806   0.744  0.5416 -0.6330 -1.0305
  450TIP3    H2 1357   0.394   5.917   0.831 -0.7534 -0.9345  0.1863
  451TIP3   OH2 1358   3.862   1.602   3.869 -0.1480  0.8448  0.3694
  451TIP3    H1 1359   3.785   1.559   3.832  0.5448  0.9849 -1.3221
  451TIP3    H2 1360   3.826   1.674   3.921 -1.1962 -0.0188  0.8898
  452TIP3   OH2 1361   2.920   2.794   3.454 -0.1073 -0.1846  0.6092
  452TIP3    H1 1362   2.989   2.836   3.403  0.0302  0.8625  1.6190
  452TIP3    H2 1363   2.854   2.863   3.468 -0.5366 -0.6831  1.1234
  453TIP3   OH2 1364   1.530   3.115   3.707 -0.3051 -0.0143  0.0605
  453TIP3    H1 1365   1.468   3.060   3.755  0.5840  0.3600  1.7352
  453TIP3    H2 1366   1.484   3.140   3.627 -2.3060  0.2401  1.2333
  454TIP3   OH2 1367   4.943   4.762   2.096  0.4300 -0.1321 -0.3030
  454TIP3    H1 1368   4.907   4.781   2.182 -0.7974  0.3790 -0.9076
  454TIP3    H2 1369   4.885   4.695   2.060  1.2354 -0.7190 -0.5459
  455TIP3   OH2 1370   1.857   4.311   2.464  0.2137 -0.3682  0.2261
  455TIP3    H1 1371   1.879   4.220   2.442 -0.9237 -0.6697  0.2638
  455TIP3    H2 1372   1.938   4.347   2.500  0.1466 -1.9602  2.0973
  456TIP3   OH2 1373   0.150   3.158   1.277  0.0986  0.2388 -0.0996
  456TIP3    H1 1374   0.167   3.141   1.369 -0.4397 -0.7153 -0.1625
  456TIP3    H2 1375   0.228   3.203   1.246  0.1372  0.8962  0.8981
  457TIP3   OH2 1376   6.361   5.063   4.302  0.2722  0.0121 -0.1949
  457TIP3    H1 1377   6.270   5.041   4.324 -0.0300  1.5216  0.2109
  457TIP3    H2 1378   6.356   5.098   4.213  0.3156  0.8068  0.1059
  458TIP3   OH2 1379   5.797   3.809   2.483  0.2643 -0.4847  0.0985
  458TIP3    H1 1380   5.774   3.716   2.491  0.5350 -0.5194  0.5113
  458TIP3    H2 1381   5.793   3.842   2.573 -1.3635  0.2755 -0.2234
  459TIP3   OH2 1382   0.441   4.731   4.620 -0.8087 -0.1448  0.2502
  459TIP3    H1 1383   0.514   4.672   4.601 -0.6511  0.2822 -0.5506
  459TIP3    H2 1384   0.363   4.684   4.591 -0.6634  0.1075 -0.5765
  460TIP3   OH2 1385   4.315   5.249   1.802 -0.1839  0.1218 -0.4522
  460TIP3    H1 1386   4.411   5.246   1.805 -0.1773 -0.5877 -1.0418
  460TIP3    H2 1387   4.287   5.183   1.866 -0.2407 -1.0195 -1.6092
  461TIP3   OH2 1388   0.994   5.818   1.220  0.2872 -0.0153  0.7887
  461TIP3    H1 1389   0.961   5.770   1.296  0.3441 -1.3659  0.0100
  461TIP3    H2 1390   0.927   5.883   1.201 -0.3181 -0.4862  1.2670
  462TIP3   OH2 1391   3.643   0.292   3.581  0.0120  0.0160 -0.0528
  462TIP3    H1 1392   3.707   0.240   3.532 -0.6450 -0.9893  0.1262
  462TIP3    H2 1393   3.678   0.381   3.578  1.5226 -0.5240  0.1911
  463TIP3   OH2 1394   3.092   0.648   0.823  0.1003  0.1103 -0.4545
  463TIP3    H1 1395   3.185   0.672   0.823  0.4871 -0.7372  3.4820
  463TIP3    H2 1396   3.065   0.658   0.915 -3.4427 -0.7148 -1.2713
  464TIP3   OH2 1397   4.774   5.523   0.003 -0.0831 -0.1895  0.0807
  464TIP3    H1 1398   4.686   5.549   0.034 -0.2250  0.1807 -0.6111
  464TIP3    H2 1399   4.833   5.553   0.072 -0.5071 -0.5304  0.6004
  465TIP3   OH2 1400   0.867   4.134   0.614 -0.8279  0.2873  0.4854
  465TIP3    H1 1401   0.807   4.096   0.551  2.0036  0.0832 -2.3375
  465TIP3    H2 1402   0.867   4.072   0.688  0.4654 -3.1365 -2.1299
  466TIP3   OH2 1403   3.198   4.451   4.421  0.3870 -0.6593  0.0170
  466TIP3    H1 1404   3.121   4.456   4.479  0.8604 -0.2595  0.6302
  466TIP3    H2 1405   3.256   4.520   4.454  0.1527  0.4144 -1.7129
  467TIP3   OH2 1406   6.040   2.672   2.311  0.0474 -0.3738 -0.7263
  467TIP3    H1 1407   6.051   2.736   2.241  1.2701 -0.3672 -0.5464
  467TIP3    H2 1408   6.023   2.725   2.389  0.3497 -0.3047 -0.7078
  468TIP3   OH2 1409   6.279   4.582   3.920 -0.1510 -0.4291  0.0417
  468TIP3    H1 1410   6.366   4.564   3.885 -0.4042  1.2732 -1.6135
  468TIP3    H2 1411   6.281   4.676   3.941 -2.1505  0.1257 -1.9027
  469TIP3   OH2 1412   0.262   1.980   0.553  0.2856  0.7009  0.4439
  469TIP3    H1 1413   0.303   2.017   0.631 -0.8562  1.1696  0.8417
  469TIP3    H2 1414   0.191   1.926   0.586  0.5441 -0.0797 -0.2346
  470TIP3   OH2 1415   1.674   5.222   0.466 -0.4161 -0.8731 -0.4350
  470TIP3    H1 1416   1.690   5.139   0.421 -2.4341 -1.4728 -0.1340
  470TIP3    H2 1417   1.581   5.220   0.487 -0.1616  0.7557  1.0397
  471TIP3   OH2 1418   4.016   2.210   1.784 -0.0294 -0.0441  0.4111
  471TIP3    H1 1419   4.058   2.228   1.868 -1.6226  2.0101  0.8822
  471TIP3    H2 1420   3.994   2.117   1.787  0.3770 -0.1228  2.0731
  472TIP3   OH2 1421   5.284   0.210   0.725  0.0658  0.0937  0.4948
  472TIP3    H1 1422   5.213   0.239   0.782 -0.5710 -2.9919  1.4395
  472TIP3    H2 1423   5.241   0.179   0.646  0.5782  0.1946  0.1676
  473TIP3   OH2 1424   4.889   1.500   1.807 -0.4592  0.2428  0.0750
  473TIP3    H1 1425   4.930   1.414   1.809  2.0078  1.2979 -0.8927
  473TIP3    H2 1426   4.910   1.534   1.720 -1.4564  1.7794  0.4022
  474TIP3   OH2 1427   4.198   5.796   2.329 -0.6610 -0.3356 -0.3953
  474TIP3    H1 1428   4.249   5.841   2.397  0.4164 -2.0804  0.0136
  474TIP3    H2 1429   4.221   5.841   2.248  0.7814 -0.4497 -0.0699
  475TIP3   OH2 1430   0.115   2.077   1.520  0.0320  0.0577  0.3771
  475TIP3    H1 1431   0.112   2.124   1.604  0.4952  0.4882  0.1606
  475TIP3    H2 1432   0.192   2.113   1.476 -0.5430  0.2687 -0.4822
  476TIP3   OH2 1433   1.448   4.252   1.151 -0.2469 -0.1889 -0.3402
  476TIP3    H1 1434   1.498   4.176   1.122  1.1487  0.8348 -0.7354
  476TIP3    H2 1435   1.379   4.216   1.206  1.7250 -1.5949  1.3648
  477TIP3   OH2 1436   4.643   3.190   4.605 -0.0983  0.1704 -0.6127
  477TIP3    H1 1437   4.587   3.247   4.552 -0.6384  0.9190  0.7219
  477TIP3    H2 1438   4.612   3.202   4.695  2.8268  1.4342  0.3502
  478TIP3   OH2 1439   1.430   5.593   2.764  0.2624 -0.3375 -0.0749
  478TIP3    H1 1440   1.467   5.594   2.852 -0.5221  0.4545  0.2573
  478TIP3    H2 1441   1.404   5.683   2.747  1.3310 -0.2573 -1.5360
  479TIP3   OH2 1442   5.531   2.694   1.019  0.5471 -0.0989  0.6178
  479TIP3    H1 1443   5.609   2.651   1.055 -0.0260 -1.8969 -0.2042
  479TIP3    H2 1444   5.482   2.624   0.976 -1.0698  1.1650  0.2976
  480TIP3   OH2 1445   2.312   4.266   2.743  0.3106 -0.2411  0.3202
  480TIP3    H1 1446   2.267   4.190   2.779  1.6524 -1.3750 -0.3143
  480TIP3    H2 1447   2.403   4.254   2.768  0.4790  1.4420  0.6408
  481TIP3   OH2 1448   5.995   0.626   1.558 -0.0134 -0.3975 -0.0155
  481TIP3    H1 1449   5.982   0.648   1.650  0.9109  0.4743 -0.0693
  481TIP3    H2 1450   5.907   0.615   1.522 -0.5814  2.7593  0.1534
  482TIP3   OH2 1451   0.397   0.050   4.014  0.5948  0.1715  0.1797
  482TIP3    H1 1452   0.363   0.105   3.943 -2.8446 -2.5399 -0.5620
  482TIP3    H2 1453   0.347   0.077   4.091  0.8703 -0.0718  0.4441
  483TIP3   OH2 1454   4.170   4.872   4.204 -0.6373 -0.1933  0.2284
  483TIP3    H1 1455   4.147   4.958   4.170 -0.7558 -0.5423 -0.5960
  483TIP3    H2 1456   4.089   4.820   4.197 -0.2847 -0.6807 -0.2794
  484TIP3   OH2 1457   1.269   4.519   0.306  0.1684 -0.2437 -0.0185
  484TIP3    H1 1458   1.358   4.484   0.300 -1.0757 -3.7271 -0.1775
  484TIP3    H2 1459   1.248   4.515   0.399  1.1660  3.6982  0.5416
  485TIP3   OH2 1460   4.567   3.482   4.894 -0.3063  0.3496  0.5217
  485TIP3    H1 1461   4.474   3.488   4.917 -0.8748  1.4749 -1.7443
  485TIP3    H2 1462   4.573   3.404   4.838 -0.5712  1.9185 -1.8412
  486TIP3   OH2 1463   0.124   0.600   0.695  0.0939  0.0578  0.2290
  486TIP3    H1 1464   0.146   0.683   0.739  0.1384  1.7166 -2.6411
  486TIP3    H2 1465   0.198   0.583   0.638 -1.5448  0.2100 -2.0934
  487TIP3   OH2 1466   4.414   2.202   3.899 -0.1801 -0.5412  0.2619
  487TIP3    H1 1467   4.378   2.114   3.906  1.3017 -1.1340  0.8918
  487TIP3    H2 1468   4.338   2.259   3.889 -1.1815 -1.8539  0.1644
  488TIP3   OH2 1469   5.191   0.068   1.095 -0.2989 -0.0488  0.2162
  488TIP3    H1 1470   5.157   0.143   1.046 -2.1836 -0.3821  0.9385
  488TIP3    H2 1471   5.131   0.058   1.168  0.5147 -1.6574  0.7055
  489TIP3   OH2 1472   4.251   2.050   0.749  0.3951  0.2090  0.2015
  489TIP3    H1 1473   4.287   2.044   0.838  2.5782  0.5457 -0.6057
  489TIP3    H2 1474   4.240   2.143   0.733 -1.5834  0.1042  0.6561
  490TIP3   OH2 1475   0.719   0.910   1.630 -0.1312 -0.0769 -0.4095
  490TIP3    H1 1476   0.754   0.915   1.541  0.4618 -0.3354 -0.1962
  490TIP3    H2 1477   0.794   0.934   1.686 -0.3559 -0.4320  0.0439
  491TIP3   OH2 1478   5.848   3.576   0.823 -0.0089  0.2561 -0.0894
  491TIP3    H1 1479   5.878   3.650   0.876  1.7159 -0.1345 -0.4594
  491TIP3    H2 1480   5.912   3.569   0.752 -1.6587  0.0858 -1.6394
  492TIP3   OH2 1481   3.943   2.368   3.349 -0.5014  0.0151  0.0440
  492TIP3    H1 1482   4.038   2.375   3.357 -0.4447 -0.3977 -0.2808
  492TIP3    H2 1483   3.924   2.394   3.259 -0.6760 -0.1474  0.0342
  493TIP3   OH2 1484   4.844   5.256   5.073 -0.0254  0.4424  0.1005
  493TIP3    H1 1485   4.935   5.230   5.064 -0.2703 -0.1398 -0.8028
  493TIP3    H2 1486   4.812   5.209   5.150 -0.0010 -0.6255 -0.5299
  494TIP3   OH2 1487   6.289   4.535   2.217  0.0289 -0.8985 -0.1665
  494TIP3    H1 1488   6.249   4.505   2.299 -2.6229  0.7054 -0.7568
  494TIP3    H2 1489   6.256   4.475   2.150  1.3055 -1.5442 -0.2351
  495TIP3   OH2 1490   1.405   5.172   3.583 -0.6155 -0.4624 -0.1456
  495TIP3    H1 1491   1.481   5.211   3.538 -0.4152 -0.6923 -0.0077
  495TIP3    H2 1492   1.417   5.195   3.675 -1.1225  0.1665 -0.2311
  496TIP3   OH2 1493   3.186   3.115   3.098  0.1271 -0.0948 -0.6954
  496TIP3    H1 1494   3.183   3.047   3.031 -0.5138 -0.4212 -0.3468
  496TIP3    H2 1495   3.169   3.196   3.051 -0.3467 -0.3274 -0.9289
  497TIP3   OH2 1496   4.350   3.105   0.451  0.0197  0.1740 -0.3119
  497TIP3    H1 1497   4.404   3.169   0.495 -0.9291 -0.0289  1.2115
  497TIP3    H2 1498   4.354   3.027   0.507  0.5075 -0.8517 -1.7036
  498TIP3   OH2 1499   3.294   4.021   3.221  0.1536 -0.2631 -0.0665
  498TIP3    H1 1500   3.384   4.053   3.224  0.1728 -0.2022 -0.9273
  498TIP3    H2 1501   3.243   4.087   3.267  0.5905 -0.4750  0.7412
  499TIP3   OH2 1502   0.834   5.014   0.279  0.0186  0.1587 -0.2313
  499TIP3    H1 1503   0.784   4.940   0.311  0.3414 -0.9502 -2.0897
  499TIP3    H2 1504   0.895   5.035   0.350  0.1287 -1.5744  0.2453
  500TIP3   OH2 1505   5.623   1.444   0.842  0.6015  0.6556 -0.1123
  500TIP3    H1 1506   5.622   1.524   0.789  1.7588  0.5288 -0.3433
  500TIP3    H2 1507   5.681   1.465   0.915  0.3955  0.2375  0.1736
  501TIP3   OH2 1508   4.418   0.548   2.769  0.3659 -0.1395 -0.3559
  501TIP3    H1 1509   4.351   0.616   2.759  0.2110 -0.2156  0.1610
  501TIP3    H2 1510   4.484   0.586   2.827  0.8483 -0.0148 -0.9772
  502TIP3   OH2 1511   5.902   1.101   1.208 -0.1916 -0.4751 -0.0893
  502TIP3    H1 1512   5.814   1.068   1.189 -0.0641  0.4873 -2.8415
  502TIP3    H2 1513   5.892   1.197   1.208  0.9041 -0.3440 -0.9058
  503TIP3   OH2 1514   3.430   2.610   2.309  0.2782 -0.3979 -0.4536
  503TIP3    H1 1515   3.432   2.515   2.320 -0.9170 -0.4495 -0.5508
  503TIP3    H2 1516   3.338   2.630   2.296  0.5208  0.7859 -0.4082
  504TIP3   OH2 1517   2.295   5.650   3.568  0.4622 -0.0206  0.0015
  504TIP3    H1 1518   2.298   5.655   3.472  1.0314  2.0590  0.0848
  504TIP3    H2 1519   2.313   5.557   3.587 -0.6595 -0.6930 -1.9061
  505TIP3   OH2 1520   3.029   0.351   4.499 -0.2322  0.3214  0.1332
  505TIP3    H1 1521   3.003   0.322   4.586  0.0850  2.4892  1.0314
  505TIP3    H2 1522   2.971   0.424   4.480 -1.4284 -1.1349 -2.2679
  506TIP3   OH2 1523   1.899   1.585   0.181 -0.2711 -0.0512  0.7168
  506TIP3    H1 1524   1.946   1.517   0.230 -2.2544 -2.1426 -0.1129
  506TIP3    H2 1525   1.868   1.540   0.102 -2.0238  1.7211  0.3266
  507TIP3   OH2 1526   1.424   4.233   1.658  0.0417 -0.1792  0.2064
  507TIP3    H1 1527   1.486   4.259   1.590  0.7647 -0.5563  0.7022
  507TIP3    H2 1528   1.430   4.137   1.661  0.7876 -0.1247  1.4738
  508TIP3   OH2 1529   0.246   0.103   3.137  0.1489 -0.5051 -0.0360
  508TIP3    H1 1530   0.189   0.067   3.069 -0.5454 -1.5191  1.0303
  508TIP3    H2 1531   0.294   0.027   3.170  0.6515  0.0112  0.4350
  509TIP3   OH2 1532   0.743   0.455   2.149 -0.7983 -0.6247  0.0105
  509TIP3    H1 1533   0.809   0.521   2.127 -0.9983 -0.0763  1.0206
  509TIP3    H2 1534   0.791   0.373   2.152  0.2583  0.0159  2.6010
  510TIP3   OH2 1535   1.799   5.290   3.853  0.8838  0.2805 -0.4493
  510TIP3    H1 1536   1.793   5.342   3.933 -0.1431 -1.6167  0.7791
  510TIP3    H2 1537   1.707   5.275   3.828  1.1613 -0.6532 -0.9411
  511TIP3   OH2 1538   4.018   5.048   3.556 -0.6735 -0.2644  0.2216
  511TIP3    H1 1539   4.027   5.016   3.466 -0.0106  1.3738 -0.3245
  511TIP3    H2 1540   3.924   5.040   3.574 -0.6265 -1.9496 -0.0558
  512TIP3   OH2 1541   1.175   5.752   0.522 -0.1320  1.4056 -0.3126
  512TIP3    H1 1542   1.240   5.728   0.456  0.0113  1.8552 -0.3350
  512TIP3    H2 1543   1.223   5.746   0.605 -0.1672  1.3618 -0.2954
  513TIP3   OH2 1544   2.370   1.235   3.384 -0.2498  0.0066 -0.4913
  513TIP3    H1 1545   2.425   1.305   3.348  1.1712 -0.5331  0.5479
  513TIP3    H2 1546   2.316   1.207   3.310  0.8386  0.5899 -1.5453
  514TIP3   OH2 1547   2.240   3.068   4.467 -0.0252 -0.0181 -0.6342
  514TIP3    H1 1548   2.306   3.002   4.444 -1.6794 -2.2972  0.7462
  514TIP3    H2 1549   2.218   3.110   4.384  1.0649 -1.2413 -1.5941
  515TIP3   OH2 1550   2.215   0.279   4.293 -0.0161  0.3801 -0.3209
  515TIP3    H1 1551   2.296   0.230   4.313 -0.0988  0.1865 -0.4588
  515TIP3    H2 1552   2.151   0.244   4.356  0.3409  1.4529  0.6709
  516TIP3   OH2 1553   3.167   0.451   0.513  0.0336 -0.1278 -0.2827
  516TIP3    H1 1554   3.083   0.438   0.556 -0.1677 -0.2165 -0.6959
  516TIP3    H2 1555   3.180   0.546   0.512 -1.2014  0.0728 -2.3396
  517TIP3   OH2 1556   5.192   3.269   3.091  0.6230 -0.0749 -0.6018
  517TIP3    H1 1557   5.266   3.328   3.100  1.4270 -1.1935  0.5016
  517TIP3    H2 1558   5.155   3.263   3.179  1.8097 -2.6988 -0.1610
  518TIP3   OH2 1559   6.149   4.037   2.730 -0.4300 -0.3213 -0.7693
  518TIP3    H1 1560   6.174   3.999   2.814 -2.1593  0.9623  0.4065
  518TIP3    H2 1561   6.059   4.008   2.717 -1.1895  1.8228 -0.6858
  519TIP3   OH2 1562   2.729   3.093   2.518  0.0429 -0.5784  0.5312
  519TIP3    H1 1563   2.680   3.014   2.494  0.3290 -0.7363  0.4561
  519TIP3    H2 1564   2.820   3.063   2.526  0.3140 -0.0695 -0.4402
  520TIP3   OH2 1565   4.194   5.183   0.119 -0.9657  0.0642  0.0270
  520TIP3    H1 1566   4.151   5.252   0.069  0.8084 -0.3998 -2.3406
  520TIP3    H2 1567   4.138   5.106   0.108 -0.7507  0.0509 -1.0435
  521TIP3   OH2 1568   3.159   5.483   4.484 -0.2745  1.1506 -0.2457
  521TIP3    H1 1569   3.247   5.484   4.522 -0.0407  0.5500 -0.7397
  521TIP3    H2 1570   3.120   5.402   4.516 -0.6008  1.3482 -0.1389
  522TIP3   OH2 1571   0.508   0.587   4.016 -0.7128  0.5818 -0.3833
  522TIP3    H1 1572   0.425   0.544   4.037 -0.0918 -0.2452  0.4669
  522TIP3    H2 1573   0.575   0.523   4.039  0.1645  1.0670 -1.4554
  523TIP3   OH2 1574   5.497   2.096   2.929 -0.6214 -0.1431 -0.9581
  523TIP3    H1 1575   5.522   2.157   2.860  0.9809  0.4982  0.1354
  523TIP3    H2 1576   5.579   2.072   2.971 -1.2996 -2.3579 -0.7471
  524TIP3   OH2 1577   3.733   5.119   1.073  0.4753 -0.5495  0.2684
  524TIP3    H1 1578   3.748   5.040   1.126  0.2690  1.1874  3.1815
  524TIP3    H2 1579   3.714   5.188   1.138 -1.3526  1.4866 -2.2078
  525TIP3   OH2 1580   0.372   0.335   1.136  0.5027  0.7533  0.5105
  525TIP3    H1 1581   0.465   0.338   1.113  1.4317 -2.3588  3.0822
  525TIP3    H2 1582   0.334   0.276   1.071  1.4084 -1.5554  1.9277
  526TIP3   OH2 1583   2.610   2.839   2.614  0.2808 -0.2927 -0.4910
  526TIP3    H1 1584   2.614   2.842   2.709  0.1311  0.0404 -0.4968
  526TIP3    H2 1585   2.643   2.751   2.592  0.9716 -0.1191 -0.1712
  527TIP3   OH2 1586   1.691   1.261   2.909 -0.2255 -0.0822  0.1922
  527TIP3    H1 1587   1.699   1.229   2.999  0.1463  0.0069  0.1946
  527TIP3    H2 1588   1.639   1.195   2.864 -1.7344  0.6120  0.8344
  528TIP3   OH2 1589   4.433   0.182   4.130  0.0150 -0.0369 -0.3209
  528TIP3    H1 1590   4.495   0.199   4.059  1.3925  1.6912  1.1932
  528TIP3    H2 1591   4.455   0.094   4.160 -0.5316 -0.7656 -1.9070
  529TIP3   OH2 1592   4.870   2.927   5.170 -0.0631  0.0451  0.0134
  529TIP3    H1 1593   4.912   2.860   5.116  1.4925  0.1401  1.0246
  529TIP3    H2 1594   4.793   2.953   5.121  0.4911 -0.9256 -1.4368
  530TIP3   OH2 1595   5.108   5.601   0.443 -0.0877  0.0422  0.4610
  530TIP3    H1 1596   5.133   5.633   0.357  0.6929 -0.8982  0.3218
  530TIP3    H2 1597   5.069   5.515   0.427 -1.2203  0.4444  0.9240
  531TIP3   OH2 1598   0.657   5.023   1.920  0.3195 -0.1854  0.9325
  531TIP3    H1 1599   0.593   5.067   1.976  1.1235  1.9684  0.2671
  531TIP3    H2 1600   0.610   5.004   1.839  0.2994  0.6990  0.7292
  532TIP3   OH2 1601   4.140   4.152  -0.004 -0.1171 -0.1197  0.2607
  532TIP3    H1 1602   4.212   4.124   0.052  1.3349 -0.2834 -1.5644
  532TIP3    H2 1603   4.087   4.074  -0.017  0.0689 -0.3093  0.6371
  533TIP3   OH2 1604   4.722   1.272   0.603  0.7026 -1.0359  0.2156
  533TIP3    H1 1605   4.770   1.352   0.582  0.8586 -1.5895 -1.7435
  533TIP3    H2 1606   4.764   1.240   0.682  1.0657  0.4700  0.6779
  534TIP3   OH2 1607   3.086   5.845   2.818  0.2350  0.2687  0.2531
  534TIP3    H1 1608   3.142   5.896   2.759 -0.4854  0.2886 -0.4326
  534TIP3    H2 1609   3.093   5.890   2.902  3.0634 -1.0564  0.8515
  535TIP3   OH2 1610   4.222   5.708   0.517 -0.4409 -0.2999 -0.1998
  535TIP3    H1 1611   4.174   5.750   0.446 -1.0370  0.0004  0.3694
  535TIP3    H2 1612   4.158   5.698   0.587  0.6007  1.2993  1.0675
  536TIP3   OH2 1613   4.475   1.320   4.142 -0.1964 -0.0302 -0.1874
  536TIP3    H1 1614   4.435   1.250   4.090  1.1686 -0.6810 -0.4038
  536TIP3    H2 1615   4.496   1.279   4.226  1.7460 -0.2900 -0.7412
  537TIP3   OH2 1616   5.530   3.528   0.718  0.0855  0.1152  0.0620
  537TIP3    H1 1617   5.531   3.623   0.715  0.4672  0.1105 -3.1947
  537TIP3    H2 1618   5.605   3.501   0.666 -0.0497 -1.9906  0.8575
  538TIP3   OH2 1619   5.296   0.791   3.312  0.5168 -0.1415  0.2150
  538TIP3    H1 1620   5.224   0.823   3.366  1.9704 -1.1691  2.9582
  538TIP3    H2 1621   5.268   0.704   3.283 -0.4780  0.6126 -1.2531
  539TIP3   OH2 1622   3.598   2.145   0.608 -0.3459  0.1451  0.6052
  539TIP3    H1 1623   3.540   2.221   0.608  0.3551  0.7662 -1.6421
  539TIP3    H2 1624   3.588   2.107   0.521  0.2204 -1.6566  1.2795
  540TIP3   OH2 1625   2.185   4.655   0.056 -0.2136 -0.4151  0.2833
  540TIP3    H1 1626   2.094   4.647   0.083 -0.1900 -0.1734  0.4425
  540TIP3    H2 1627   2.227   4.574   0.084 -0.3673 -0.4979  0.2675
  541TIP3   OH2 1628   0.892   4.533   2.655  0.5020  0.1705  0.0738
  541TIP3    H1 1629   0.825   4.483   2.608 -0.4407  0.9662  0.5225
  541TIP3    H2 1630   0.934   4.587   2.588 -0.8175  1.2840  0.1050
  542TIP3   OH2 1631   1.766   2.619   2.656 -0.0366 -0.3850  0.1666
  542TIP3    H1 1632   1.807   2.702   2.681  0.3292  0.1082 -1.8732
  542TIP3    H2 1633   1.796   2.557   2.722 -0.1308  1.0323  1.6096
  543TIP3   OH2 1634   5.237   2.636   1.676  0.1705 -0.5436  0.6212
  543TIP3    H1 1635   5.195   2.585   1.606  0.0627  0.3105  0.0501
  543TIP3    H2 1636   5.326   2.601   1.681 -0.3815 -1.9369  1.4070
  544TIP3   OH2 1637   3.932   4.734   2.048  0.2008  0.2988  0.0774
  544TIP3    H1 1638   4.020   4.750   2.013 -0.3008 -3.2197 -3.4293
  544TIP3    H2 1639   3.937   4.647   2.088 -2.3229 -2.0261 -3.9600
  545TIP3   OH2 1640   2.983   0.667   2.152 -0.7136 -0.2467 -0.2139
  545TIP3    H1 1641   2.960   0.645   2.062 -2.0892 -0.3856  0.1635
  545TIP3    H2 1642   2.965   0.588   2.202  1.8285 -0.8335 -0.0469
  546TIP3   OH2 1643   5.715   3.887  -0.014  0.5918 -0.2707 -0.5716
  546TIP3    H1 1644   5.659   3.829   0.036  0.2919 -0.2861 -0.9192
  546TIP3    H2 1645   5.705   3.973   0.027 -0.8119  0.0436 -1.4994
  547TIP3   OH2 1646   5.563   3.126   3.378 -0.1776  0.1760  0.5001
  547TIP3    H1 1647   5.495   3.114   3.445 -1.1787  1.0360 -0.3203
  547TIP3    H2 1648   5.644   3.137   3.427 -0.6768 -0.5456  1.5188
  548TIP3   OH2 1649   1.339   1.640   1.281  0.0448 -0.2165  0.1488
  548TIP3    H1 1650   1.422   1.634   1.328  0.0151  0.3926  0.2975
  548TIP3    H2 1651   1.359   1.691   1.203 -0.5841  1.7582  1.2101
  549TIP3   OH2 1652   1.430   2.478   3.062  0.0470 -0.3312  0.0942
  549TIP3    H1 1653   1.497   2.503   2.998  0.9012 -0.7617  0.7901
  549TIP3    H2 1654   1.444   2.385   3.076 -0.6755 -0.4135  0.2957
  550TIP3   OH2 1655   5.391   1.106   3.089 -0.1826 -0.0075  0.0442
  550TIP3    H1 1656   5.303   1.141   3.076  0.0112  0.9239  1.0341
  550TIP3    H2 1657   5.408   1.119   3.183  0.4101 -1.6195  0.2015
  551TIP3   OH2 1658   3.636   2.882   3.558  0.1602  0.3218  0.2717
  551TIP3    H1 1659   3.619   2.884   3.652  0.2282  0.3861  0.2830
  551TIP3    H2 1660   3.600   2.964   3.525 -1.2945 -0.4064 -0.0065
  552TIP3   OH2 1661   2.380   0.186   3.181  0.3214 -0.3084  0.9782
  552TIP3    H1 1662   2.329   0.264   3.204 -0.7721 -0.4522 -0.8250
  552TIP3    H2 1663   2.470   0.219   3.175  0.5497 -0.0310  4.0517
  553TIP3   OH2 1664   5.827   4.008   3.396 -0.1539 -0.2873  0.2335
  553TIP3    H1 1665   5.871   4.091   3.375 -0.1321 -0.0225  1.2502
  553TIP3    H2 1666   5.783   3.983   3.315  0.2569  0.4576 -0.2385
  554TIP3   OH2 1667   5.094   0.496   4.662  0.3138 -0.0211  0.0604
  554TIP3    H1 1668   5.120   0.404   4.660 -2.1527 -0.8005 -0.0725
  554TIP3    H2 1669   5.108   0.526   4.572 -0.9077 -0.9435 -0.4690
  555TIP3   OH2 1670   0.804   0.697   3.368 -0.6424  0.5128 -0.0164
  555TIP3    H1 1671   0.898   0.710   3.357 -0.4754  0.9246  1.6544
  555TIP3    H2 1672   0.777   0.647   3.290  1.0592 -0.1475 -0.2164
  556TIP3   OH2 1673   3.409   0.257   1.651 -0.6698  0.2130  0.6024
  556TIP3    H1 1674   3.400   0.171   1.693 -0.6885 -0.4091 -0.6268
  556TIP3    H2 1675   3.319   0.292   1.649 -0.7468  0.0164  0.6081
  557TIP3   OH2 1676   3.647   3.954   1.474 -0.2769  0.2007 -0.2459
  557TIP3    H1 1677   3.597   4.011   1.532 -1.1438 -0.8447  0.0457
  557TIP3    H2 1678   3.715   3.917   1.530  0.9080  1.6601 -0.6535
  558TIP3   OH2 1679   1.644   4.838   4.399 -0.2529  0.0404  0.4565
  558TIP3    H1 1680   1.552   4.817   4.385 -0.4582  0.4796  1.0965
  558TIP3    H2 1681   1.643   4.912   4.459  0.5095  0.4838 -0.0617
  559TIP3   OH2 1682   3.001   1.065   0.446  0.0585 -0.3473  0.5969
  559TIP3    H1 1683   3.023   1.054   0.539 -1.8353 -0.5784  1.0616
  559TIP3    H2 1684   3.038   0.987   0.404 -0.5585 -1.1425  1.4634
  560TIP3   OH2 1685   4.309   5.549   1.962 -0.3065 -0.3036  0.7012
  560TIP3    H1 1686   4.315   5.454   1.970  1.7924 -0.4167 -1.2314
  560TIP3    H2 1687   4.220   5.564   1.931 -1.2773 -1.4211  2.7137
  561TIP3   OH2 1688   2.332   5.724   2.745 -1.1705 -0.0946 -0.2217
  561TIP3    H1 1689   2.248   5.769   2.744 -1.8976 -1.3813 -1.3972
  561TIP3    H2 1690   2.310   5.631   2.741  0.2987 -0.4525 -1.2576
  562TIP3   OH2 1691   5.982   0.418   0.923 -0.3473  0.8363  0.3899
  562TIP3    H1 1692   5.904   0.371   0.953  0.8801 -1.0528  0.8251
  562TIP3    H2 1693   6.006   0.475   0.997  0.1431 -0.5248  1.3139
  563TIP3   OH2 1694   6.168   4.777   1.578  0.1450 -0.8617  0.3619
  563TIP3    H1 1695   6.208   4.737   1.501  0.4294  0.6594 -0.3123
  563TIP3    H2 1696   6.228   4.848   1.602 -2.1532  1.6810 -0.8305
  564TIP3   OH2 1697   1.919   3.804   0.292  0.1763  0.0803 -0.5341
  564TIP3    H1 1698   1.915   3.709   0.280  0.3493 -0.0059  0.0593
  564TIP3    H2 1699   1.828   3.832   0.289  0.0652 -0.2003 -0.0084
  565TIP3   OH2 1700   4.818   4.137   1.563  0.3337 -0.2098 -0.1525
  565TIP3    H1 1701   4.879   4.176   1.501 -0.1315 -1.1503 -1.2394
  565TIP3    H2 1702   4.849   4.048   1.575 -1.6710 -1.2531 -2.0088
  566TIP3   OH2 1703   4.702   5.357   4.846  0.5703 -0.1108 -0.5140
  566TIP3    H1 1704   4.639   5.288   4.866  2.0031 -1.4629 -0.4764
  566TIP3    H2 1705   4.770   5.348   4.912 -0.2366  2.8022  0.8689
  567TIP3   OH2 1706   1.665   0.537   2.288 -0.1211 -0.6802  0.4998
  567TIP3    H1 1707   1.652   0.445   2.309 -0.6179 -0.6425  0.3662
  567TIP3    H2 1708   1.668   0.540   2.192 -0.1559 -0.5526  0.5020
  568TIP3   OH2 1709   3.262   5.578   3.082  0.7080 -0.6115 -0.3651
  568TIP3    H1 1710   3.300   5.554   2.998  0.6633 -0.7615 -0.3425
  568TIP3    H2 1711   3.189   5.516   3.094  0.0131  0.1131 -0.7369
  569TIP3   OH2 1712   1.096   2.782   4.795 -0.2000 -0.3020 -0.2391
  569TIP3    H1 1713   1.127   2.872   4.797  1.0903 -0.7119  2.2554
  569TIP3    H2 1714   1.009   2.787   4.755  0.1053  1.9271 -0.7396
  570TIP3   OH2 1715   3.657   2.180   4.618  0.3764 -0.3791 -0.5219
  570TIP3    H1 1716   3.674   2.149   4.529  0.0850 -1.4558 -0.2046
  570TIP3    H2 1717   3.573   2.142   4.642 -0.9205  2.0791 -0.7629
  571TIP3   OH2 1718   2.627   3.579   4.032  0.1267 -0.4943  0.2407
  571TIP3    H1 1719   2.548   3.627   4.005  1.1913  2.1986  1.5133
  571TIP3    H2 1720   2.642   3.608   4.122  2.1170 -1.6083  0.3136
  572TIP3   OH2 1721   5.262   0.409   1.615 -0.2293 -0.2486  0.2230
  572TIP3    H1 1722   5.336   0.349   1.617  0.7984  0.8375 -2.0464
  572TIP3    H2 1723   5.185   0.352   1.619  0.7143 -1.5710  0.1206
  573TIP3   OH2 1724   2.179   2.146   2.509  0.3711 -0.3344 -0.4980
  573TIP3    H1 1725   2.111   2.206   2.480 -0.8833 -0.3020  2.2033
  573TIP3    H2 1726   2.156   2.062   2.470 -1.1109 -0.2608  0.1647
  574TIP3   OH2 1727   2.724   4.925   1.454 -0.0683 -0.3131 -0.5341
  574TIP3    H1 1728   2.651   4.988   1.457  0.9887  0.9132  0.5760
  574TIP3    H2 1729   2.682   4.841   1.438 -1.5556  0.6273 -1.8480
  575TIP3   OH2 1730   1.755   4.895   4.721 -0.3077  0.2521  0.0013
  575TIP3    H1 1731   1.703   4.845   4.784 -1.5603  1.6033  0.0766
  575TIP3    H2 1732   1.692   4.951   4.677  0.8067  0.5161 -1.3186
  576TIP3   OH2 1733   1.140   0.407   4.894  0.1840  0.2673  0.1783
  576TIP3    H1 1734   1.115   0.389   4.985  3.4886 -0.1656  1.1624
  576TIP3    H2 1735   1.059   0.433   4.851 -1.5672  0.2526  3.1842
  577TIP3   OH2 1736   3.756   0.125   0.856  0.4053  0.0101 -0.0817
  577TIP3    H1 1737   3.697   0.101   0.928  1.6363  0.3838  1.1014
  577TIP3    H2 1738   3.728   0.071   0.782  0.1336 -1.5964  1.1508
  578TIP3   OH2 1739   0.908   3.479   2.687  0.6740  0.0981 -0.7712
  578TIP3    H1 1740   0.824   3.448   2.720 -0.2516  2.1652 -0.9780
  578TIP3    H2 1741   0.970   3.410   2.709 -0.9785 -1.2650 -0.1540
  579TIP3   OH2 1742   2.869   0.642   0.390 -0.0577 -0.4127  0.2879
  579TIP3    H1 1743   2.897   0.591   0.466  0.7061 -1.7934 -0.8692
  579TIP3    H2 1744   2.776   0.619   0.379  0.2731 -1.5673 -0.2056
  580TIP3   OH2 1745   1.222   3.488   5.100  0.1039  0.0930 -0.3357
  580TIP3    H1 1746   1.272   3.547   5.155  0.3454  0.7642 -1.2576
  580TIP3    H2 1747   1.169   3.545   5.045  1.1771 -0.4607 -2.0412
  581TIP3   OH2 1748   5.272   1.959   2.819 -0.0544 -0.0769  0.4416
  581TIP3    H1 1749   5.310   1.999   2.896 -0.9390 -0.5833  1.1619
  581TIP3    H2 1750   5.312   1.872   2.815  2.6106  1.0896 -1.6713
  582TIP3   OH2 1751   0.925   0.859   5.140  0.3333  0.3217  0.2688
  582TIP3    H1 1752   1.019   0.862   5.160  0.5093 -2.8192  0.3986
  582TIP3    H2 1753   0.921   0.859   5.044  0.3977  1.1319  0.2597
  583TIP3   OH2 1754   0.655   4.553   4.650  0.0222 -0.0306  0.6081
  583TIP3    H1 1755   0.706   4.561   4.730 -0.9957 -0.9942  1.3835
  583TIP3    H2 1756   0.612   4.468   4.657 -0.9478  0.3451 -0.4463
  584TIP3   OH2 1757   4.065   5.672   2.115  0.4879 -0.1221  0.2575
  584TIP3    H1 1758   3.987   5.687   2.168  0.6122 -2.1739  1.1246
  584TIP3    H2 1759   4.137   5.709   2.166  0.3350 -0.0906  0.4487
  585TIP3   OH2 1760   5.722   1.684   3.665  0.1526 -0.6203  0.0480
  585TIP3    H1 1761   5.803   1.657   3.709  0.8866  1.3822  0.0100
  585TIP3    H2 1762   5.728   1.779   3.659 -1.7269 -0.5147 -0.9319
  586TIP3   OH2 1763   5.191   0.166   1.415  0.5788  0.7081 -0.4287
  586TIP3    H1 1764   5.102   0.150   1.447  0.8396 -0.0595 -0.0611
  586TIP3    H2 1765   5.186   0.252   1.373 -0.5914  0.1966 -1.3927
  587TIP3   OH2 1766   6.092   2.859   4.165  0.0271 -0.1201 -0.2020
  587TIP3    H1 1767   6.045   2.924   4.114  0.1674 -0.6525 -1.0277
  587TIP3    H2 1768   6.184   2.872   4.143  0.2467  0.6172  1.0613
  588TIP3   OH2 1769   6.107   3.613   4.134  0.0279 -0.1705  0.4458
  588TIP3    H1 1770   6.072   3.531   4.098 -0.0556 -0.2327  0.6649
  588TIP3    H2 1771   6.189   3.587   4.176  0.9735  0.1678 -1.0922
  589TIP3   OH2 1772   5.522   2.757   1.666 -0.2013 -0.0878 -0.5110
  589TIP3    H1 1773   5.488   2.843   1.642  0.6160  0.4052  0.0443
  589TIP3    H2 1774   5.571   2.772   1.747  0.0027 -1.0638 -0.4410
  590TIP3   OH2 1775   4.831   5.747   2.247 -0.5792  0.0560  0.2912
  590TIP3    H1 1776   4.837   5.651   2.246  0.0742  0.0404  1.9367
  590TIP3    H2 1777   4.886   5.776   2.174 -1.0715 -0.8172 -0.4471
  591TIP3   OH2 1778   0.361   2.517   3.261 -0.0785 -0.4344 -0.0131
  591TIP3    H1 1779   0.410   2.537   3.341  0.1914  3.4002 -0.9238
  591TIP3    H2 1780   0.272   2.497   3.292  1.0109 -3.8008  1.4010
  592TIP3   OH2 1781   5.816   1.154   0.479  0.1074 -0.3336  0.7215
  592TIP3    H1 1782   5.760   1.195   0.414 -1.1139  0.0186  1.9380
  592TIP3    H2 1783   5.904   1.188   0.461 -0.4871  1.0384  0.2742
  593TIP3   OH2 1784   2.342   3.328   1.211  0.6216  0.8509  0.4167
  593TIP3    H1 1785   2.311   3.339   1.121  0.3216  1.0722  0.5470
  593TIP3    H2 1786   2.421   3.274   1.202 -0.1881 -0.3191  0.1426
  594TIP3   OH2 1787   0.215   5.154   3.345  0.0052  0.2632 -0.3507
  594TIP3    H1 1788   0.252   5.147   3.257  0.9766  0.8356  0.0015
  594TIP3    H2 1789   0.178   5.242   3.349 -0.6323  0.0032 -0.4032
  595TIP3   OH2 1790   1.636   1.549   2.883  0.5789 -0.0555  0.0164
  595TIP3    H1 1791   1.697   1.568   2.811  0.8505 -2.4256 -0.4600
  595TIP3    H2 1792   1.655   1.459   2.907 -1.8218 -0.4269  0.7724
  596TIP3   OH2 1793   3.616   5.055   0.528  0.5871 -0.4560  0.4620
  596TIP3    H1 1794   3.610   4.960   0.516  1.9158 -0.4782 -0.2730
  596TIP3    H2 1795   3.526   5.084   0.536  0.0499 -1.5864 -1.0202
  597TIP3   OH2 1796   0.132   3.404   3.468  0.1205  0.6369 -0.1938
  597TIP3    H1 1797   0.182   3.457   3.530  1.9740 -1.4159  0.1694
  597TIP3    H2 1798   0.157   3.314   3.488 -3.2320 -0.4700 -0.5134
  598TIP3   OH2 1799   0.234   5.653   4.227  0.3749 -0.2692  0.4500
  598TIP3    H1 1800   0.227   5.603   4.308 -1.8893  0.9984  1.1396
  598TIP3    H2 1801   0.157   5.710   4.227  0.5710  0.1689 -2.3534
  599TIP3   OH2 1802   6.152   2.020   3.966  0.0373  0.1844  0.6617
  599TIP3    H1 1803   6.142   1.961   4.040 -0.5309 -0.5094  0.0511
  599TIP3    H2 1804   6.134   1.965   3.889 -1.5436  1.3612  0.1341
  600TIP3   OH2 1805   3.565   4.983   1.762 -0.7410 -0.6557  0.8977
  600TIP3    H1 1806   3.501   5.054   1.751  0.2694  0.1216 -0.2420
  600TIP3    H2 1807   3.623   5.013   1.832  1.2356  0.9278 -1.2562
  601TIP3   OH2 1808   4.034   1.039   5.105  0.3188  0.0959 -0.0835
  601TIP3    H1 1809   3.995   1.051   5.018  0.9265  1.5824 -0.1689
  601TIP3    H2 1810   4.067   1.125   5.129  0.0626 -0.2681  1.6939
  602TIP3   OH2 1811   1.477   1.009   2.468 -0.6027  0.0652  0.2013
  602TIP3    H1 1812   1.554   0.952   2.465 -1.8750 -1.6691 -1.7787
  602TIP3    H2 1813   1.404   0.953   2.442 -2.5006  1.7726  1.5701
  603TIP3   OH2 1814   4.319   1.056   3.083 -0.2528  0.0417  0.5204
  603TIP3    H1 1815   4.367   1.015   3.155  0.5486 -0.6467 -0.3766
  603TIP3    H2 1816   4.346   1.148   3.086  0.0007 -0.0400  0.9193
  604TIP3   OH2 1817   3.824   0.803   2.406 -0.3801 -0.2645 -0.2644
  604TIP3    H1 1818   3.758   0.760   2.350  0.7051  0.2098 -1.9838
  604TIP3    H2 1819   3.904   0.753   2.390  0.7293  1.8536 -1.7278
  605TIP3   OH2 1820   0.098   0.550   3.147 -0.7636  0.3683 -0.0495
  605TIP3    H1 1821   0.090   0.464   3.106 -1.3609  0.5268 -0.2820
  605TIP3    H2 1822   0.010   0.570   3.178 -0.7653  1.1359 -0.5056
  606TIP3   OH2 1823   5.381   1.785   1.386 -0.1867 -0.4223 -0.3497
  606TIP3    H1 1824   5.292   1.808   1.414 -0.8718 -0.2758 -2.4193
  606TIP3    H2 1825   5.438   1.846   1.432 -1.0015 -1.2919  1.9521
  607TIP3   OH2 1826   0.431   0.675   0.936  0.2516 -1.5914 -0.3875
  607TIP3    H1 1827   0.348   0.701   0.976  1.5635 -0.8650  2.0793
  607TIP3    H2 1828   0.414   0.588   0.899 -1.9370 -0.8752 -1.1619
  608TIP3   OH2 1829   4.147   1.358   4.444  0.3324 -0.7421 -0.2577
  608TIP3    H1 1830   4.175   1.393   4.528  1.2955 -0.9734 -0.4800
  608TIP3    H2 1831   4.188   1.415   4.379  1.2866 -1.7984 -0.6067
  609TIP3   OH2 1832   3.820   0.719   1.308  0.1458 -0.3299 -0.2893
  609TIP3    H1 1833   3.761   0.668   1.363 -0.2976  1.6395  1.1824
  609TIP3    H2 1834   3.807   0.809   1.336  1.9979  0.4530 -1.7135
  610TIP3   OH2 1835   6.223   1.562   3.152 -0.5221  0.4704  0.2766
  610TIP3    H1 1836   6.239   1.614   3.231 -0.3688 -1.0787  1.3058
  610TIP3    H2 1837   6.306   1.518   3.135 -0.5010  0.9372 -0.8829
  611TIP3   OH2 1838   4.573   0.753   1.183 -0.0122 -0.4051 -0.0898
  611TIP3    H1 1839   4.574   0.701   1.103 -0.3725  0.2217 -0.5077
  611TIP3    H2 1840   4.631   0.705   1.243  0.5520 -0.6865 -0.8411
  612TIP3   OH2 1841   3.750   3.034   2.039  0.1789  0.2851 -0.6289
  612TIP3    H1 1842   3.742   3.110   2.096 -1.3892 -0.2982 -0.0145
  612TIP3    H2 1843   3.827   3.052   1.985  2.3451  0.4202  2.2876
  613TIP3   OH2 1844   4.879   5.781   4.065  0.0782 -0.2202  0.0780
  613TIP3    H1 1845   4.847   5.844   4.129  1.0208  0.6724 -0.3123
  613TIP3    H2 1846   4.963   5.816   4.035 -0.2757 -0.6497 -1.5684
  614TIP3   OH2 1847   5.712   5.910   2.157  0.7490  0.3582 -0.1176
  614TIP3    H1 1848   5.631   5.928   2.204  2.2220  0.0006  2.7806
  614TIP3    H2 1849   5.699   5.823   2.120  0.6284 -0.8200  2.4786
  615TIP3   OH2 1850   3.586   1.424   2.482 -0.4297 -0.8713 -0.0756
  615TIP3    H1 1851   3.610   1.436   2.390  2.3142 -0.8503  0.5672
  615TIP3    H2 1852   3.528   1.347   2.482 -0.9220 -0.5420 -1.8434
  616TIP3   OH2 1853   2.371   0.042   0.307  1.0004  0.6440 -0.3717
  616TIP3    H1 1854   2.349   0.088   0.388 -1.6918 -0.3696 -0.4518
  616TIP3    H2 1855   2.455  -0.001   0.327 -0.0677 -0.4327  2.2882
  617TIP3   OH2 1856   0.494   3.699   1.641 -0.3940  0.1783 -0.0906
  617TIP3    H1 1857   0.494   3.786   1.681  0.7935  0.3179 -0.3726
  617TIP3    H2 1858   0.497   3.717   1.547  0.3038 -0.1619 -0.1373
  618TIP3   OH2 1859   5.164   0.045   4.138 -0.4604 -0.7631  0.3583
  618TIP3    H1 1860   5.228   0.039   4.067 -0.2745  0.4160  0.3920
  618TIP3    H2 1861   5.121   0.130   4.124 -1.2748 -1.0689  0.9516
  619TIP3   OH2 1862   3.546   4.966   4.640 -0.0102 -0.0965  0.1357
  619TIP3    H1 1863   3.602   4.918   4.579  2.9418  0.8191  1.9509
  619TIP3    H2 1864   3.574   4.937   4.727 -0.5910  2.2847  1.1977
  620TIP3   OH2 1865   4.976   1.485   4.795  0.2796 -0.0073  0.1740
  620TIP3    H1 1866   4.919   1.431   4.740 -0.0903 -0.3001  0.8349
  620TIP3    H2 1867   4.965   1.449   4.883  0.2521  0.9679  0.5738
  621TIP3   OH2 1868   1.114   1.039   3.172 -0.6785  0.1520  0.4850
  621TIP3    H1 1869   1.160   0.961   3.203 -0.3026  0.6591  1.2386
  621TIP3    H2 1870   1.181   1.088   3.123 -1.2876 -0.6858 -1.2568
  622TIP3   OH2 1871   0.577   2.676   1.971  0.1889  0.2234  0.2131
  622TIP3    H1 1872   0.483   2.668   1.991  0.5533 -1.2571  1.4824
  622TIP3    H2 1873   0.616   2.715   2.049  0.7318  0.2656 -0.0726
  623TIP3   OH2 1874   3.296   2.466   0.978  0.1221 -0.0007 -0.8991
  623TIP3    H1 1875   3.322   2.541   0.925 -1.6453  1.5114  0.2140
  623TIP3    H2 1876   3.207   2.445   0.948 -0.6679  0.4894  0.8922
  624TIP3   OH2 1877   1.810   2.775   1.130 -0.6260 -0.4178  0.4229
  624TIP3    H1 1878   1.754   2.802   1.056 -2.0888 -0.3535  1.5053
  624TIP3    H2 1879   1.817   2.854   1.183  1.5187 -0.0899 -0.2632
  625TIP3   OH2 1880   6.092   5.544  -0.030  0.1535 -0.3517 -0.1496
  625TIP3    H1 1881   6.113   5.485   0.041  0.2704 -0.3213 -0.1589
  625TIP3    H2 1882   6.068   5.626   0.013 -0.5251 -0.5608 -0.1151
  626TIP3   OH2 1883   1.560   5.647   4.821  0.1075  0.3352 -0.1252
  626TIP3    H1 1884   1.547   5.638   4.727  0.7903 -1.2644 -0.0991
  626TIP3    H2 1885   1.478   5.616   4.860  1.4340 -3.8213 -0.1320
  627TIP3   OH2 1886   3.077   3.008   0.240  0.0942 -0.2064  0.6221
  627TIP3    H1 1887   3.125   2.926   0.231 -0.5556 -0.4135 -1.5049
  627TIP3    H2 1888   3.025   3.014   0.160 -0.6890  1.7605  1.2257
  628TIP3   OH2 1889   0.265   2.333   0.218 -0.0258 -0.5151 -0.4529
  628TIP3    H1 1890   0.193   2.369   0.270  0.2773  2.0748 -1.6338
  628TIP3    H2 1891   0.310   2.273   0.277 -2.0794 -0.8481  0.8726
  629TIP3   OH2 1892   4.628   5.004   4.277  0.4093  0.5351  0.4872
  629TIP3    H1 1893   4.626   4.911   4.255 -1.2222 -0.0458  2.7345
  629TIP3    H2 1894   4.720   5.021   4.299  0.7099 -0.5459  0.1415
  630TIP3   OH2 1895   4.986   4.197   3.469  0.4005 -0.4236 -0.6949
  630TIP3    H1 1896   4.972   4.241   3.385  1.1224 -1.8282 -1.6086
  630TIP3    H2 1897   5.068   4.234   3.502  0.1316  0.1118 -0.6229
  631TIP3   OH2 1898   2.151   5.179  -0.007  0.7603 -0.3097  0.7202
  631TIP3    H1 1899   2.082   5.243   0.012  0.3354 -0.6645  0.3923
  631TIP3    H2 1900   2.214   5.190   0.064  0.5906  0.3315  0.7773
  632TIP3   OH2 1901   5.231   0.362   2.341  0.4051 -0.0791 -0.5818
  632TIP3    H1 1902   5.135   0.367   2.340  0.4568  1.3478  0.0044
  632TIP3    H2 1903   5.256   0.359   2.249 -0.1653  0.6559 -0.7675
  633TIP3   OH2 1904   5.291   2.579   2.699  0.2291 -0.2433  0.2418
  633TIP3    H1 1905   5.214   2.635   2.693  0.5323  0.4401  2.0656
  633TIP3    H2 1906   5.280   2.531   2.782  2.6090  1.2635  1.5468
  634TIP3   OH2 1907   1.003   1.813   3.073  0.6208 -0.4286 -0.5425
  634TIP3    H1 1908   1.034   1.729   3.105  1.2156 -0.4179 -1.0793
  634TIP3    H2 1909   0.986   1.864   3.153 -0.5656 -1.3317 -0.1933
  635TIP3   OH2 1910   2.222   1.191   2.547 -0.1054  0.6091 -0.3707
  635TIP3    H1 1911   2.135   1.228   2.567 -0.9496 -1.4081 -0.0871
  635TIP3    H2 1912   2.262   1.178   2.633 -1.0968 -1.9454 -0.2039
  636TIP3   OH2 1913   0.462   0.541   3.726 -0.4819 -0.2405  0.1529
  636TIP3    H1 1914   0.382   0.561   3.677 -0.3130  1.7586  0.6168
  636TIP3    H2 1915   0.434   0.537   3.817 -0.7198 -3.5430  0.0596
  637TIP3   OH2 1916   3.686   5.738   3.900  0.0799  0.2996  0.2620
  637TIP3    H1 1917   3.642   5.822   3.914 -0.8432 -0.1210 -0.0343
  637TIP3    H2 1918   3.751   5.756   3.833 -1.9134  0.2380 -1.8391
  638TIP3   OH2 1919   0.405   4.260   3.378 -0.0786 -0.5551  0.1793
  638TIP3    H1 1920   0.346   4.329   3.408 -0.1020 -0.4919 -0.0149
  638TIP3    H2 1921   0.410   4.271   3.283  1.0147  0.0466  0.2887
  639TIP3   OH2 1922   0.133   3.546   0.833 -0.7525  0.4137 -0.1840
  639TIP3    H1 1923   0.178   3.595   0.764 -1.7006  1.9168  0.2078
  639TIP3    H2 1924   0.151   3.454   0.813  2.0211  0.9180 -0.3230
  640TIP3   OH2 1925   5.269   4.264   1.348  0.2524 -0.6940 -0.1475
  640TIP3    H1 1926   5.227   4.320   1.283  0.2233  0.9699  1.2490
  640TIP3    H2 1927   5.201   4.244   1.412  0.6807 -0.9409  0.2452
  641TIP3   OH2 1928   2.301   1.023   1.974 -0.3733 -0.7287  0.1585
  641TIP3    H1 1929   2.365   1.094   1.982 -1.6564  0.4774  0.2017
  641TIP3    H2 1930   2.330   0.957   2.037  0.8767 -0.2744  0.0861
  642TIP3   OH2 1931   4.591   3.571   1.082  0.0439  0.0788  0.6051
  642TIP3    H1 1932   4.538   3.608   1.011  0.2660 -1.2222 -0.2724
  642TIP3    H2 1933   4.537   3.500   1.118  1.6255 -2.1664 -1.1781
  643TIP3   OH2 1934   3.305   4.509   5.144 -0.1136  0.0234  0.1395
  643TIP3    H1 1935   3.365   4.556   5.202  1.7164 -0.8046 -0.9700
  643TIP3    H2 1936   3.218   4.524   5.181  0.5647  2.7091  0.8481
  644TIP3   OH2 1937   5.624   0.038   3.484 -0.0116  0.0946 -0.0268
  644TIP3    H1 1938   5.649  -0.041   3.532 -0.8640 -2.2828 -3.1765
  644TIP3    H2 1939   5.557   0.080   3.538  0.7945 -1.0253  1.9401
  645TIP3   OH2 1940   1.615   4.521   3.407  0.3667 -0.9316 -0.3370
  645TIP3    H1 1941   1.701   4.562   3.412 -0.0081 -0.2491  1.6129
  645TIP3    H2 1942   1.609   4.489   3.318  2.1206  0.1409 -0.9040
  646TIP3   OH2 1943   2.204   1.489   0.584  0.2109 -0.1292 -0.5588
  646TIP3    H1 1944   2.194   1.573   0.540  0.0617  0.7506  1.0632
  646TIP3    H2 1945   2.121   1.476   0.630  1.0092 -0.0368  1.0006
  647TIP3   OH2 1946   5.360   4.695   0.765  1.0141 -0.1360 -0.8477
  647TIP3    H1 1947   5.361   4.790   0.762  1.8822 -0.1156 -0.2521
  647TIP3    H2 1948   5.298   4.669   0.696 -0.3088  0.8739 -0.0704
  648TIP3   OH2 1949   1.906   1.259   3.982  0.6130 -0.2458  0.2173
  648TIP3    H1 1950   1.921   1.350   3.955 -0.8202 -0.6878 -2.3080
  648TIP3    H2 1951   1.993   1.218   3.977  0.8955  0.4461 -0.8242
  649TIP3   OH2 1952   5.894   1.940   0.154 -0.4594  0.2953 -0.3871
  649TIP3    H1 1953   5.914   1.893   0.235 -0.9457  1.5554  0.4958
  649TIP3    H2 1954   5.937   1.889   0.086  1.3599  0.0682  0.8355
  650TIP3   OH2 1955   2.014   1.730   1.318  0.3219  0.2425  0.2439
  650TIP3    H1 1956   2.036   1.699   1.406 -1.3245  0.8839  0.9195
  650TIP3    H2 1957   2.022   1.825   1.323 -2.1234  0.4893  0.4432
  651TIP3   OH2 1958   4.708   2.936   2.707  0.1011  0.6871 -0.1013
  651TIP3    H1 1959   4.750   2.854   2.735 -0.8953  0.7156  1.6238
  651TIP3    H2 1960   4.763   3.005   2.744 -0.0079  0.7686 -0.0916
  652TIP3   OH2 1961   2.791   0.277   0.959 -0.0416 -0.6579  0.2871
  652TIP3    H1 1962   2.744   0.197   0.984 -1.5592 -0.5796 -2.0020
  652TIP3    H2 1963   2.820   0.261   0.869 -0.2636  1.3184 -0.1867
  653TIP3   OH2 1964   3.564   2.928   0.490  0.3874 -0.5788  0.4491
  653TIP3    H1 1965   3.495   2.980   0.530  1.8981  0.8991  1.3051
  653TIP3    H2 1966   3.575   2.853   0.548 -0.7334 -1.0385  0.0848
  654TIP3   OH2 1967   0.452   2.069   3.871  0.3044  0.1609 -0.3155
  654TIP3    H1 1968   0.415   2.044   3.787 -0.1299 -1.7312  0.3934
  654TIP3    H2 1969   0.524   2.008   3.885  1.5983  1.6446 -0.1196
  655TIP3   OH2 1970   3.464   3.544   2.970 -0.5991 -0.4837  0.2740
  655TIP3    H1 1971   3.488   3.622   3.020  1.2773  0.1569 -1.4583
  655TIP3    H2 1972   3.453   3.576   2.880 -0.5177 -2.0814 -0.3343
  656TIP3   OH2 1973   5.368   1.352   2.521 -0.0444 -0.3743  0.1884
  656TIP3    H1 1974   5.399   1.443   2.524  0.1749 -0.4484  0.2058
  656TIP3    H2 1975   5.273   1.359   2.515 -0.0044 -0.1379 -0.2104
  657TIP3   OH2 1976   0.517   1.257   3.683 -0.2334  1.0174  0.2143
  657TIP3    H1 1977   0.607   1.226   3.674 -0.2473  0.0587  2.6820
  657TIP3    H2 1978   0.521   1.349   3.657  1.5910  1.1658  0.8528
  658TIP3   OH2 1979   6.239   2.281   1.099  0.6719 -0.0773  0.3266
  658TIP3    H1 1980   6.306   2.340   1.133  1.2847  0.1114 -1.1496
  658TIP3    H2 1981   6.166   2.289   1.161  1.0219  1.6500  0.5584
  659TIP3   OH2 1982   1.263   5.350   2.004 -0.1074  0.1358 -0.2278
  659TIP3    H1 1983   1.255   5.269   2.054  0.2992  0.8728  1.0800
  659TIP3    H2 1984   1.348   5.345   1.961  0.6682  0.5782  1.2081
  660TIP3   OH2 1985   5.548   3.641   3.253  0.6152  0.3197  0.4190
  660TIP3    H1 1986   5.516   3.723   3.213  1.0756  1.0491  1.5166
  660TIP3    H2 1987   5.609   3.670   3.320  0.9456 -0.9552  0.6746
  661TIP3   OH2 1988   1.865   4.406   0.103 -0.2414 -0.5710  0.3813
  661TIP3    H1 1989   1.899   4.396   0.192 -0.5877 -0.1536  0.5684
  661TIP3    H2 1990   1.814   4.327   0.087  0.5301 -1.0418  0.2264
  662TIP3   OH2 1991   6.014   1.985   4.598 -0.1044  0.1906 -0.2508
  662TIP3    H1 1992   5.960   1.975   4.520  0.9423 -0.7983 -0.8807
  662TIP3    H2 1993   6.096   2.022   4.566  0.3027 -0.1403  0.3884
  663TIP3   OH2 1994   3.033   2.603   1.310 -0.1035 -0.1898  0.1267
  663TIP3    H1 1995   3.081   2.663   1.252  0.9066  0.5275  1.6412
  663TIP3    H2 1996   3.061   2.516   1.282 -0.1067  0.1088 -0.8511
  664TIP3   OH2 1997   2.160   3.060   3.836 -0.1645  0.0629 -0.1676
  664TIP3    H1 1998   2.066   3.063   3.851 -0.0623 -0.9070  0.7983
  664TIP3    H2 1999   2.191   3.147   3.864 -0.6684  0.0751  0.3724
  665TIP3   OH2 2000   0.126   5.669   2.248 -0.2343 -0.2420 -0.2281
  665TIP3    H1 2001   0.100   5.704   2.162  0.8215  2.0351  0.3213
  665TIP3    H2 2002   0.124   5.744   2.306  1.1889 -1.3196  1.2946
  666TIP3   OH2 2003   4.024   1.468   4.061 -0.2150 -0.2876 -0.4594
  666TIP3    H1 2004   4.048   1.509   4.144  0.7230 -0.0007 -0.8514
  666TIP3    H2 2005   3.964   1.530   4.020  0.7609  0.4728 -0.7978
  667TIP3   OH2 2006   3.029   5.502   0.838 -0.0709  0.0996  0.0074
  667TIP3    H1 2007   3.006   5.480   0.747 -0.6780 -1.2805  0.4705
  667TIP3    H2 2008   3.049   5.418   0.878  2.8700  0.9251  0.4703
  668TIP3   OH2 2009   2.821   3.559   0.912  0.3018  0.2526  0.1443
  668TIP3    H1 2010   2.823   3.482   0.854  0.0774  0.5491 -0.2621
  668TIP3    H2 2011   2.903   3.605   0.894  0.4030  0.1458  0.3343
  669TIP3   OH2 2012   0.146   4.984   2.739  0.2239 -0.3550  0.3661
  669TIP3    H1 2013   0.102   5.036   2.673  1.7599  0.8133  0.1970
  669TIP3    H2 2014   0.120   5.022   2.823  1.5183  0.9078  0.2355
  670TIP3   OH2 2015   3.459   3.041   3.067 -0.1546 -0.3114  0.0952
  670TIP3    H1 2016   3.461   3.038   2.971  0.1221  1.9588 -0.0282
  670TIP3    H2 2017   3.371   3.070   3.088 -1.2957 -3.8076  0.7690
  671TIP3   OH2 2018   4.300   4.043   1.548  0.0047 -0.4973 -0.4991
  671TIP3    H1 2019   4.386   4.074   1.520 -0.2123  0.6965  0.0760
  671TIP3    H2 2020   4.317   3.958   1.589  0.8791 -0.3797 -0.6008
  672TIP3   OH2 2021   2.898   0.320   4.748  0.4878 -0.1338 -0.1862
  672TIP3    H1 2022   2.860   0.406   4.769 -0.3871 -0.0745 -1.8179
  672TIP3    H2 2023   2.861   0.261   4.814  2.0637  0.9010  1.7270
  673TIP3   OH2 2024   1.595   2.101   0.067  0.4612  0.0116  0.1028
  673TIP3    H1 2025   1.523   2.103   0.003  1.1382 -0.5902 -0.6985
  673TIP3    H2 2026   1.587   2.184   0.114  0.5640  0.9526 -1.4631
  674TIP3   OH2 2027   1.679   2.539   4.554  0.1764  0.2991 -0.1526
  674TIP3    H1 2028   1.756   2.590   4.527 -0.5589  3.4011  2.9334
  674TIP3    H2 2029   1.714   2.471   4.612  0.7556  0.2803 -0.5124
  675TIP3   OH2 2030   1.339   3.930   3.391  0.1262  0.4546  0.4076
  675TIP3    H1 2031   1.381   3.989   3.452  0.3988  3.4302 -2.3794
  675TIP3    H2 2032   1.252   3.914   3.428  0.7280  1.0281  2.1559
  676TIP3   OH2 2033   3.601   3.421   0.252  0.1026 -0.1750 -0.2233
  676TIP3    H1 2034   3.581   3.456   0.338  0.8328 -0.6571  0.1576
  676TIP3    H2 2035   3.590   3.495   0.192  0.1856  0.3212  0.3654
  677TIP3   OH2 2036   6.311   4.432   1.616 -0.6499 -0.4975 -0.2684
  677TIP3    H1 2037   6.273   4.497   1.557 -0.4823  0.6798  0.8788
  677TIP3    H2 2038   6.275   4.349   1.585 -0.8113  0.1144 -1.8156
  678TIP3   OH2 2039   1.224   5.067   2.557  0.3562 -0.1176  0.3094
  678TIP3    H1 2040   1.201   5.152   2.521 -0.0666  0.0907  1.0580
  678TIP3    H2 2041   1.140   5.023   2.572  0.5776 -1.5971 -2.1876
  679TIP3   OH2 2042   6.137   1.719   1.558  0.3438  0.0087  0.3328
  679TIP3    H1 2043   6.232   1.725   1.565  0.5691 -0.4027 -1.5826
  679TIP3    H2 2044   6.119   1.625   1.554 -0.0939  0.0911  0.2457
  680TIP3   OH2 2045   4.885   2.192   2.616 -0.5395 -0.2503 -0.7782
  680TIP3    H1 2046   4.804   2.166   2.572 -0.8917 -0.8195  0.1813
  680TIP3    H2 2047   4.915   2.113   2.661 -0.2507  0.3350  0.0990
  681TIP3   OH2 2048   2.901   5.711   3.210 -0.1233 -1.3373 -0.1260
  681TIP3    H1 2049   2.827   5.769   3.192 -0.1338 -0.9083  1.1881
  681TIP3    H2 2050   2.912   5.661   3.129  1.1793  1.8661 -2.1157
  682TIP3   OH2 2051   0.722   4.806   0.651  0.1459 -0.3614  0.0084
  682TIP3    H1 2052   0.753   4.780   0.737 -0.3216 -1.1412 -0.0567
  682TIP3    H2 2053   0.666   4.735   0.622 -0.5169  0.3532 -0.5138
  683TIP3   OH2 2054   3.115   5.026   4.827 -0.3850  0.3576  0.0665
  683TIP3    H1 2055   3.196   5.052   4.783 -0.1063  0.5398  0.6706
  683TIP3    H2 2056   3.061   5.105   4.825  0.0743  0.7232  1.0276
  684TIP3   OH2 2057   1.515   3.203   0.373 -0.6102  0.2607  0.2643
  684TIP3    H1 2058   1.603   3.168   0.389 -0.9329  0.0906  1.8624
  684TIP3    H2 2059   1.493   3.173   0.285  1.0216  0.5282 -0.2742
  685TIP3   OH2 2060   1.885   2.028   1.956  0.8153 -0.2227  0.0825
  685TIP3    H1 2061   1.833   2.009   2.034  0.6203  0.9324  0.2472
  685TIP3    H2 2062   1.834   1.989   1.884 -2.3824  3.9496 -0.2891
  686TIP3   OH2 2063   2.256   3.700   4.900  0.0486 -0.5122 -0.5349
  686TIP3    H1 2064   2.314   3.671   4.830  0.0598  0.0716 -0.7770
  686TIP3    H2 2065   2.280   3.791   4.915  0.2907 -0.7265  0.4814
  687TIP3   OH2 2066   0.417   5.078   0.488  0.2543  0.1997 -0.1272
  687TIP3    H1 2067   0.407   4.991   0.449  1.4304  0.2576 -0.5738
  687TIP3    H2 2068   0.467   5.128   0.424 -0.9470  1.4208 -0.1569
  688TIP3   OH2 2069   3.731   1.867   1.630 -0.0326 -0.5767  0.7717
  688TIP3    H1 2070   3.675   1.938   1.599 -1.8605 -2.8241 -1.5560
  688TIP3    H2 2071   3.808   1.911   1.665 -0.7380  2.5259 -1.1379
  689TIP3   OH2 2072   0.636   3.684   4.519 -0.3462 -0.0771 -0.0960
  689TIP3    H1 2073   0.568   3.723   4.574  0.3086  0.4579  0.3392
  689TIP3    H2 2074   0.632   3.590   4.540 -0.2986  0.0815  0.6569
  690TIP3   OH2 2075   3.306   4.720   3.535 -0.3910 -0.0944  0.1604
  690TIP3    H1 2076   3.327   4.678   3.451 -1.4466  0.1821 -0.2602
  690TIP3    H2 2077   3.344   4.663   3.601 -0.8864 -1.1580 -0.4495
  691TIP3   OH2 2078   3.805   2.775   5.191  0.1823  0.2397  0.4765
  691TIP3    H1 2079   3.733   2.721   5.224  1.9005 -0.8978  2.5534
  691TIP3    H2 2080   3.783   2.788   5.098 -0.6078 -3.6603 -0.0729
  692TIP3   OH2 2081   0.831   5.195   0.050 -0.1100  0.3400 -0.3521
  692TIP3    H1 2082   0.912   5.164   0.010 -0.6477 -1.6586 -0.0027
  692TIP3    H2 2083   0.829   5.153   0.136 -0.3747  2.2785  0.6386
  693TIP3   OH2 2084   3.324   4.636   3.266 -0.0313 -0.2037 -0.3381
  693TIP3    H1 2085   3.404   4.644   3.213  1.0603  1.1475  1.3724
  693TIP3    H2 2086   3.260   4.691   3.221  1.0372  1.3612 -0.0470
  694TIP3   OH2 2087   0.487   4.521   2.984  0.3037 -0.6797  0.3000
  694TIP3    H1 2088   0.535   4.457   3.037 -0.8850 -0.5623  1.5789
  694TIP3    H2 2089   0.538   4.530   2.904  1.4705 -1.8425  0.8909
  695TIP3   OH2 2090   4.594   4.404   5.093 -0.0438  0.0378  0.1124
  695TIP3    H1 2091   4.578   4.456   5.015  0.7040 -0.0042 -0.0744
  695TIP3    H2 2092   4.591   4.314   5.063 -0.1432  0.0087  0.2089
  696TIP3   OH2 2093   5.638   2.683   0.755  0.2624  0.2581 -0.2114
  696TIP3    H1 2094   5.595   2.719   0.833  2.0862  1.6304  0.2269
  696TIP3    H2 2095   5.669   2.760   0.707  2.3491 -0.6303 -0.4001
  697TIP3   OH2 2096   2.334   1.883   1.475 -0.0010  0.4808 -0.2054
  697TIP3    H1 2097   2.326   1.790   1.495 -0.8600  0.7737  0.9069
  697TIP3    H2 2098   2.374   1.885   1.388  0.3618 -0.9120 -0.0974
  698TIP3   OH2 2099   0.393   1.047   1.183  0.0680  0.2693 -0.2727
  698TIP3    H1 2100   0.302   1.065   1.159 -0.4032 -0.2462  1.0143
  698TIP3    H2 2101   0.390   0.960   1.221  0.9358  0.6235  0.6372
  699TIP3   OH2 2102   3.561   4.829   3.838 -0.7960  0.0932  0.3629
  699TIP3    H1 2103   3.540   4.891   3.769  1.4194  0.5956  0.0565
  699TIP3    H2 2104   3.553   4.743   3.797 -0.9726  0.3130 -0.0690
  700TIP3   OH2 2105   6.282   1.528   0.638  0.5700 -0.1345  0.1891
  700TIP3    H1 2106   6.224   1.534   0.714 -0.0099  0.5745 -0.2885
  700TIP3    H2 2107   6.370   1.535   0.674  0.2561  2.2439  0.6346
  701TIP3   OH2 2108   3.926   1.714   2.546  0.1894 -0.0261 -0.4376
  701TIP3    H1 2109   3.923   1.634   2.494  0.0191  0.0057 -0.4775
  701TIP3    H2 2110   3.894   1.783   2.488  0.4075  0.0855 -0.4282
  702TIP3   OH2 2111   5.978   5.290   3.734  0.0206 -0.7779 -0.2308
  702TIP3    H1 2112   5.994   5.362   3.673  1.4834 -0.3767  0.5553
  702TIP3    H2 2113   6.004   5.326   3.820  1.9705 -2.5656  0.0257
  703TIP3   OH2 2114   6.041   2.454   0.679  0.1334  0.0244 -0.1294
  703TIP3    H1 2115   6.130   2.418   0.678  0.5478  0.9550  0.9613
  703TIP3    H2 2116   5.985   2.378   0.690  0.7227 -0.6697 -1.6672
  704TIP3   OH2 2117   1.251   5.637   0.043  0.1343 -0.2503  0.3397
  704TIP3    H1 2118   1.340   5.604   0.036 -0.3474 -1.3446 -1.1471
  704TIP3    H2 2119   1.196   5.565   0.013 -1.1232  1.0231 -0.5679
  705TIP3   OH2 2120   2.738   2.543   2.670  0.1230  0.8935  0.5273
  705TIP3    H1 2121   2.684   2.474   2.630 -0.4844  2.0438 -0.7205
  705TIP3    H2 2122   2.731   2.527   2.764  1.1470 -1.5771  0.2644
  706TIP3   OH2 2123   2.221   0.542   0.979  0.5353  0.0065  0.5524
  706TIP3    H1 2124   2.246   0.449   0.972  0.4471  0.0578 -0.8842
  706TIP3    H2 2125   2.150   0.552   0.915 -0.5609  0.7225  1.8471
  707TIP3   OH2 2126   1.544   2.559   3.334  0.3237 -0.4469 -0.1377
  707TIP3    H1 2127   1.634   2.527   3.341  0.8574  0.8178 -0.8469
  707TIP3    H2 2128   1.515   2.529   3.248 -0.2185 -1.4756  0.3802
  708TIP3   OH2 2129   5.232   4.995   1.011  0.0088  0.1680 -0.2199
  708TIP3    H1 2130   5.154   5.027   0.966 -1.3040  0.0998  1.9214
  708TIP3    H2 2131   5.210   4.905   1.037  0.6401  0.2802  0.7439
  709TIP3   OH2 2132   5.254   1.620   4.811  0.4382  0.0558 -0.2406
  709TIP3    H1 2133   5.189   1.565   4.856  0.8097  0.7831  1.2315
  709TIP3    H2 2134   5.229   1.710   4.832  1.2017  0.3796 -0.6718
  710TIP3   OH2 2135   5.946   2.837   1.042 -0.0024  0.0845  0.4286
  710TIP3    H1 2136   5.972   2.925   1.018  0.9121 -0.0630  0.8434
  710TIP3    H2 2137   6.012   2.780   1.002 -0.8336 -0.4542 -0.2156
  711TIP3   OH2 2138   4.612   2.156   1.613 -0.4591 -0.0396 -0.3843
  711TIP3    H1 2139   4.570   2.240   1.630  1.6383  0.6250  2.2042
  711TIP3    H2 2140   4.585   2.100   1.686 -0.9752 -1.3197 -1.5033
  712TIP3   OH2 2141   6.312   0.842   0.334  0.5020 -0.3234 -0.0467
  712TIP3    H1 2142   6.396   0.798   0.324  1.1201  0.9909 -0.8897
  712TIP3    H2 2143   6.265   0.823   0.252  0.3664 -0.2481  0.0130
  713TIP3   OH2 2144   5.122   1.308   4.123  0.2719 -0.3627  0.5470
  713TIP3    H1 2145   5.087   1.376   4.180 -1.9506 -2.1910  1.5144
  713TIP3    H2 2146   5.107   1.226   4.171  1.5053 -1.6839 -1.1861
  714TIP3   OH2 2147   3.009   5.441   0.556  0.0914  0.5902  0.2484
  714TIP3    H1 2148   3.070   5.505   0.520 -0.2467 -0.1159 -1.7059
  714TIP3    H2 2149   2.932   5.447   0.500 -0.7030 -0.2156  1.2020
  715TIP3   OH2 2150   2.133   3.229   3.231 -0.0707 -0.0137  0.2653
  715TIP3    H1 2151   2.157   3.146   3.190  0.5746  0.4172 -0.2469
  715TIP3    H2 2152   2.128   3.291   3.158  0.5221  0.6381  0.7690
  716TIP3   OH2 2153   1.125   4.758   0.342  0.1994 -0.3075 -0.0296
  716TIP3    H1 2154   1.156   4.815   0.272 -1.2220 -1.4630 -1.7033
  716TIP3    H2 2155   1.178   4.679   0.334 -1.5079 -1.3825 -1.4206
  717TIP3   OH2 2156   3.916   0.553   0.789  0.0080  0.1474 -0.0261
  717TIP3    H1 2157   3.935   0.588   0.702 -1.2841  0.5340 -0.1671
  717TIP3    H2 2158   3.883   0.628   0.838 -0.5224 -0.3611  0.3987
  718TIP3   OH2 2159   0.208   2.618   2.270  0.0421  0.6469  0.3820
  718TIP3    H1 2160   0.228   2.529   2.242  1.3703  0.6525  1.2037
  718TIP3    H2 2161   0.182   2.609   2.362  1.7931  1.2570  0.9693
  719TIP3   OH2 2162   4.190   3.323   3.592  0.4373 -0.3424  0.6218
  719TIP3    H1 2163   4.275   3.356   3.564  0.7173 -0.4256  1.3394
  719TIP3    H2 2164   4.128   3.355   3.527  0.9723  0.0217  0.2935
  720TIP3   OH2 2165   2.502   1.379   0.179  0.2382 -0.1195  1.0035
  720TIP3    H1 2166   2.503   1.388   0.084 -0.3143  0.5574  1.0506
  720TIP3    H2 2167   2.582   1.423   0.209  0.1556  0.1178  0.8793
  721TIP3   OH2 2168   2.573   0.708   1.868  0.3260  0.2235  0.0063
  721TIP3    H1 2169   2.516   0.747   1.802 -0.0132  0.7135  0.5770
  721TIP3    H2 2170   2.631   0.779   1.894  1.1580 -0.2563 -0.5185
  722TIP3   OH2 2171   4.546   2.545   4.808 -0.0140  0.6980 -0.5732
  722TIP3    H1 2172   4.472   2.555   4.748 -0.8189  2.3963  0.6241
  722TIP3    H2 2173   4.594   2.628   4.801  0.6803  0.3673  0.0954
  723TIP3   OH2 2174   4.446   5.853   4.261 -0.0605 -0.1143 -0.1178
  723TIP3    H1 2175   4.373   5.794   4.245  0.2962 -1.2695  2.0677
  723TIP3    H2 2176   4.409   5.940   4.252 -1.4611 -0.6775 -0.0895
  724TIP3   OH2 2177   0.492   0.748   3.550 -0.4516 -0.0627 -0.3261
  724TIP3    H1 2178   0.483   0.700   3.468 -2.5544 -0.5744  0.1419
  724TIP3    H2 2179   0.497   0.680   3.617  0.1888  0.3609  0.0666
  725TIP3   OH2 2180   0.042   4.427   2.547 -0.0486 -0.4133  0.3688
  725TIP3    H1 2181   0.090   4.498   2.505  0.8026 -1.3066 -0.2306
  725TIP3    H2 2182  -0.038   4.418   2.496 -0.1954  0.1602  0.4982
  726TIP3   OH2 2183   5.897   4.391   4.143  0.0524 -0.2666 -0.6943
  726TIP3    H1 2184   5.921   4.314   4.195  0.6043  1.8923  2.5344
  726TIP3    H2 2185   5.801   4.394   4.149  0.0998 -0.1330  0.1033
  727TIP3   OH2 2186   1.296   3.624   1.364  0.4331 -0.3108 -0.5227
  727TIP3    H1 2187   1.377   3.620   1.415 -0.4464 -0.7173  0.9202
  727TIP3    H2 2188   1.245   3.693   1.407  1.4696  2.7424 -3.7673
  728TIP3   OH2 2189   2.071   2.956   2.058 -0.2112 -0.0444  0.6128
  728TIP3    H1 2190   2.068   2.960   2.154 -0.1381  1.2849  0.5825
  728TIP3    H2 2191   2.008   2.889   2.035  0.1269 -0.7292  1.6122
  729TIP3   OH2 2192   2.652   0.203   2.768  0.5339  0.3477 -0.0245
  729TIP3    H1 2193   2.635   0.165   2.681  0.7318  1.0494 -0.3734
  729TIP3    H2 2194   2.702   0.135   2.813 -0.7639 -0.6090  0.0489
  730TIP3   OH2 2195   0.295   5.612   3.394  0.2023 -0.4121  0.2977
  730TIP3    H1 2196   0.238   5.554   3.445 -1.5291  0.8816 -0.0906
  730TIP3    H2 2197   0.250   5.623   3.311  0.4291  1.5700  0.3993
  731TIP3   OH2 2198   2.722   3.780   4.756  0.1290 -0.1177  0.1284
  731TIP3    H1 2199   2.781   3.710   4.729  1.7456  1.0075  0.6567
  731TIP3    H2 2200   2.638   3.735   4.772  0.9850 -1.8418 -0.0101
  732TIP3   OH2 2201   0.842   2.530   3.861  0.0085 -0.1956 -0.0197
  732TIP3    H1 2202   0.821   2.620   3.887  1.0631 -0.1832  0.8543
  732TIP3    H2 2203   0.921   2.538   3.808  0.7867 -0.6800  1.0225
  733TIP3   OH2 2204   0.416   2.562   3.000 -0.3579  0.1016  0.3645
  733TIP3    H1 2205   0.446   2.474   2.977 -1.0895 -0.2584  0.7386
  733TIP3    H2 2206   0.396   2.557   3.093 -1.2488  0.4138  0.2022
  734TIP3   OH2 2207   0.140   2.578   2.543 -0.3838  0.0926  0.1123
  734TIP3    H1 2208   0.199   2.588   2.618  1.0322 -0.1430 -0.9293
  734TIP3    H2 2209   0.105   2.489   2.552 -0.0975  0.0090  0.4196
  735TIP3   OH2 2210   2.382   3.447   4.593 -0.2803  0.0192 -0.4283
  735TIP3    H1 2211   2.304   3.394   4.610  1.3941 -2.1179  1.1769
  735TIP3    H2 2212   2.451   3.403   4.642  2.0382  1.5952 -2.1161
  736TIP3   OH2 2213   3.583   1.219   1.179 -0.6052 -0.1263 -0.5469
  736TIP3    H1 2214   3.672   1.249   1.200 -0.8008  2.0398 -2.3641
  736TIP3    H2 2215   3.564   1.153   1.245  1.8756  0.2295  0.6710
  737TIP3   OH2 2216   3.325   2.687   0.822 -0.0135  0.2722 -0.6928
  737TIP3    H1 2217   3.386   2.749   0.862  0.4753 -0.2711 -0.5839
  737TIP3    H2 2218   3.299   2.728   0.739  0.1773  0.6927 -0.5432
  738TIP3   OH2 2219   0.539   0.150   0.236  0.0411  0.3333 -0.5012
  738TIP3    H1 2220   0.477   0.184   0.301  1.8507  0.2562  1.3801
  738TIP3    H2 2221   0.575   0.228   0.194 -0.8228  0.4010 -1.1456
  739TIP3   OH2 2222   0.320   2.546   3.861  0.2696  0.4039 -0.3589
  739TIP3    H1 2223   0.331   2.467   3.809 -1.3001 -1.3973  1.8702
  739TIP3    H2 2224   0.401   2.554   3.910 -0.0522 -0.6487  0.3866
  740TIP3   OH2 2225   5.605   5.662   1.342  0.4113 -0.1218 -0.4407
  740TIP3    H1 2226   5.535   5.616   1.294  1.2058 -3.1311  1.0022
  740TIP3    H2 2227   5.563   5.690   1.424  0.5179 -0.6250 -0.2083
  741TIP3   OH2 2228   1.859   5.576   2.157 -0.0699  0.4051  0.3348
  741TIP3    H1 2229   1.853   5.637   2.231 -0.1813 -0.2287  0.8577
  741TIP3    H2 2230   1.775   5.583   2.113  0.3463  1.4971 -0.3045
  742TIP3   OH2 2231   5.011   3.321   3.666 -0.2309 -0.4237 -0.2890
  742TIP3    H1 2232   4.971   3.238   3.693 -0.8557 -0.2689 -0.7044
  742TIP3    H2 2233   4.949   3.387   3.695  0.1353 -0.1197 -0.1994
  743TIP3   OH2 2234   4.010   0.194   0.129  0.5259  0.2462 -0.0658
  743TIP3    H1 2235   4.060   0.167   0.206  0.5510  0.2627 -0.0762
  743TIP3    H2 2236   3.919   0.198   0.159  0.3021 -1.2864 -0.4293
  744TIP3   OH2 2237   0.361   1.280   2.185  0.3623  0.0333 -0.2391
  744TIP3    H1 2238   0.393   1.307   2.099  2.6614 -0.4488  0.3938
  744TIP3    H2 2239   0.414   1.331   2.247 -1.1553  0.2759  0.9047
  745TIP3   OH2 2240   3.897   2.053   3.888 -0.4193  0.0317 -0.6503
  745TIP3    H1 2241   3.961   1.985   3.908 -1.2371 -0.1833  1.4892
  745TIP3    H2 2242   3.928   2.130   3.936 -1.1097  0.2865 -0.6042
  746TIP3   OH2 2243   0.690   2.342   3.152  1.0350  0.2486  0.3139
  746TIP3    H1 2244   0.727   2.426   3.181  1.4614  0.8698 -1.8093
  746TIP3    H2 2245   0.625   2.367   3.086  0.8591 -1.0892 -0.0432
  747TIP3   OH2 2246   5.937   4.703   3.893  0.1078  0.4290 -0.6409
  747TIP3    H1 2247   5.935   4.798   3.905  0.7399  0.3309  0.3371
  747TIP3    H2 2248   5.967   4.668   3.977 -0.1673 -0.6462 -0.9647
  748TIP3   OH2 2249   1.610   0.562   3.592 -0.1795 -0.1394  0.4127
  748TIP3    H1 2250   1.641   0.653   3.591 -0.7738  0.0749  1.2444
  748TIP3    H2 2251   1.690   0.511   3.581  0.0873  0.4879 -0.7754
  749TIP3   OH2 2252   4.007   4.218   5.201  0.1423  0.7174  0.3197
  749TIP3    H1 2253   3.968   4.294   5.157  0.6315  1.5975  1.3353
  749TIP3    H2 2254   4.032   4.159   5.130 -0.4480  1.4066 -0.4866
  750TIP3   OH2 2255   1.275   4.536   0.572 -0.6875  0.4013  0.4348
  750TIP3    H1 2256   1.345   4.558   0.635 -1.2330 -0.3274  1.3184
  750TIP3    H2 2257   1.204   4.504   0.626 -1.3894  0.2913 -0.5356
  751TIP3   OH2 2258   4.463   5.711   0.770 -0.2556  0.1891  0.2558
  751TIP3    H1 2259   4.517   5.701   0.848 -1.0874 -0.2043  0.7860
  751TIP3    H2 2260   4.483   5.634   0.717 -0.6913 -0.2288  0.6938
  752TIP3   OH2 2261   0.660   2.478   4.246 -0.3624 -0.0223  1.2237
  752TIP3    H1 2262   0.754   2.472   4.264 -0.4380  0.7578  1.9345
  752TIP3    H2 2263   0.641   2.572   4.246 -0.4048  0.1511 -3.0071
  753TIP3   OH2 2264   3.306   2.474   5.144 -0.2981  0.6872  0.3267
  753TIP3    H1 2265   3.311   2.557   5.097  0.1385  0.8337  0.6256
  753TIP3    H2 2266   3.357   2.488   5.224  0.7510 -0.2398 -0.1571
  754TIP3   OH2 2267   4.333   4.886   0.046 -0.1793 -0.3975 -0.1715
  754TIP3    H1 2268   4.316   4.943  -0.029 -0.3131 -0.3827 -0.1304
  754TIP3    H2 2269   4.372   4.944   0.112 -1.2924 -0.1177  0.2638
  755TIP3   OH2 2270   4.905   5.514   1.762 -0.3085 -0.4996 -0.2079
  755TIP3    H1 2271   4.851   5.466   1.825 -1.3474  0.7535 -0.0833
  755TIP3    H2 2272   4.898   5.464   1.681  0.9184 -2.0524  0.5836
  756TIP3   OH2 2273   1.259   5.003   1.745 -0.9593 -0.9736  0.6748
  756TIP3    H1 2274   1.169   4.969   1.745 -0.3871 -2.7078 -1.5788
  756TIP3    H2 2275   1.313   4.926   1.760  0.2586 -0.4266 -0.7563
  757TIP3   OH2 2276   2.280   3.797   2.018  0.0650 -0.2910  0.3216
  757TIP3    H1 2277   2.374   3.782   2.023  0.0945  0.3636  2.4137
  757TIP3    H2 2278   2.243   3.712   1.994  1.1116 -0.7350  0.2494
  758TIP3   OH2 2279   3.743   4.155   1.757  0.2439  0.3801 -0.0301
  758TIP3    H1 2280   3.701   4.215   1.695  0.4762  0.5586 -0.0191
  758TIP3    H2 2281   3.836   4.177   1.751  0.2185  0.7418  0.7460
  759TIP3   OH2 2282   5.611   1.445   3.824 -0.0426 -0.2533 -0.0387
  759TIP3    H1 2283   5.617   1.386   3.899 -2.1336 -1.6029 -0.8205
  759TIP3    H2 2284   5.651   1.397   3.752 -3.3011 -1.6689 -1.1018
  760TIP3   OH2 2285   4.973   5.707   1.030 -0.5111  0.5332 -0.4809
  760TIP3    H1 2286   4.999   5.624   0.989 -0.2928  0.5295 -0.3353
  760TIP3    H2 2287   5.056   5.748   1.056 -0.6877 -1.2321  3.4998
  761TIP3   OH2 2288   3.678   5.776   1.936  0.5268 -0.0729 -0.2414
  761TIP3    H1 2289   3.683   5.870   1.955  1.4796 -0.1514 -0.0709
  761TIP3    H2 2290   3.623   5.740   2.005 -0.3704  0.4436 -0.6613
  762TIP3   OH2 2291   4.349   2.714   4.231  0.4436 -0.2067  0.2539
  762TIP3    H1 2292   4.367   2.754   4.146  0.6288  2.5291  1.4644
  762TIP3    H2 2293   4.425   2.658   4.248 -0.4537 -2.3294 -2.1227
  763TIP3   OH2 2294   5.661   3.002   5.174  0.1161 -0.2772 -0.7129
  763TIP3    H1 2295   5.718   3.046   5.111  0.4771 -0.6021 -0.6125
  763TIP3    H2 2296   5.607   3.073   5.210  3.3980  0.9505  2.4626
  764TIP3   OH2 2297   1.393   0.805   1.954 -0.7370  0.0840  0.8339
  764TIP3    H1 2298   1.447   0.758   1.891 -1.1655  1.6820 -0.8122
  764TIP3    H2 2299   1.445   0.805   2.035  1.1693  0.4408 -0.3299
  765TIP3   OH2 2300   4.519   4.592   4.535 -0.1145  0.3585 -0.3345
  765TIP3    H1 2301   4.442   4.579   4.590 -0.8254  1.8610 -0.9167
  765TIP3    H2 2302   4.539   4.686   4.543  1.1499  0.1607 -0.8533
  766TIP3   OH2 2303   0.581   3.010   1.822 -0.5673  0.1423  0.3428
  766TIP3    H1 2304   0.512   2.949   1.849  0.6261 -0.2810  2.8181
  766TIP3    H2 2305   0.647   3.002   1.892  1.8721  0.6884 -1.7512
  767TIP3   OH2 2306   5.294   3.478   1.769  0.1814 -0.0066 -0.2478
  767TIP3    H1 2307   5.368   3.528   1.804  0.9102 -1.3029  0.1456
  767TIP3    H2 2308   5.228   3.483   1.838 -0.5433  1.9985 -1.0126
  768TIP3   OH2 2309   6.205   2.584   3.704 -0.3006 -0.2680 -0.1161
  768TIP3    H1 2310   6.207   2.597   3.799  2.4030  0.1701 -0.1439
  768TIP3    H2 2311   6.213   2.672   3.668  1.1611 -0.5939 -0.6562
  769TIP3   OH2 2312   2.591   5.723   2.660 -0.5888 -0.5391 -0.1250
  769TIP3    H1 2313   2.499   5.721   2.688 -0.7735  0.6323 -0.5672
  769TIP3    H2 2314   2.631   5.791   2.714  0.4340 -2.1181  1.1815
  770TIP3   OH2 2315   2.437   5.974   3.153  0.3727  0.2025  0.0589
  770TIP3    H1 2316   2.372   5.911   3.123  2.2775 -1.8295 -0.1245
  770TIP3    H2 2317   2.392   6.027   3.219 -0.8703 -2.5771  1.5974
  771TIP3   OH2 2318   4.794   1.679   1.982 -0.9233 -0.1350  0.3665
  771TIP3    H1 2319   4.759   1.736   1.912  0.9424  1.5083  0.6814
  771TIP3    H2 2320   4.826   1.602   1.936  2.3241  1.8587 -1.0549
  772TIP3   OH2 2321   1.187   2.362   1.728 -0.4292 -0.3296  0.7323
  772TIP3    H1 2322   1.213   2.314   1.807 -0.0389 -1.2893  0.0424
  772TIP3    H2 2323   1.134   2.299   1.678  0.8647 -0.3993 -0.6379
  773TIP3   OH2 2324   1.640   5.936   2.300  0.5788 -0.1917 -0.1465
  773TIP3    H1 2325   1.714   5.944   2.360  1.1180  0.6983 -0.9143
  773TIP3    H2 2326   1.678   5.906   2.218  0.0195 -0.1792 -0.4185
  774TIP3   OH2 2327   3.196   5.739   4.369 -0.6863  0.0337 -0.4281
  774TIP3    H1 2328   3.274   5.769   4.415 -2.0595  1.6771  1.0091
  774TIP3    H2 2329   3.173   5.656   4.411 -0.0361 -0.1804 -0.4865
  775TIP3   OH2 2330   4.596   5.018   0.104  0.0671  0.0351  0.6205
  775TIP3    H1 2331   4.678   5.069   0.101  0.9979 -1.4312  0.1241
  775TIP3    H2 2332   4.603   4.966   0.184  0.4725 -1.3954 -0.3001
  776TIP3   OH2 2333   5.844   0.881   3.700  0.1144  0.2464  0.0137
  776TIP3    H1 2334   5.807   0.875   3.612 -1.3146 -0.8938  0.6527
  776TIP3    H2 2335   5.772   0.859   3.759  1.1285  0.6152  1.4686
  777TIP3   OH2 2336   2.149   1.922   4.011 -0.3397 -0.4397 -0.1336
  777TIP3    H1 2337   2.092   1.943   3.936 -2.4117 -1.5201  1.0463
  777TIP3    H2 2338   2.236   1.953   3.985 -1.3561  0.8411 -2.2359
  778TIP3   OH2 2339   2.040   0.131   0.745  0.2641 -0.2324 -0.1515
  778TIP3    H1 2340   1.984   0.053   0.741  0.5717 -0.5218  0.7371
  778TIP3    H2 2341   2.044   0.163   0.655 -0.8964 -0.5102 -0.3157
  779TIP3   OH2 2342   4.540   5.751   3.982  0.3491 -0.5925 -0.1999
  779TIP3    H1 2343   4.608   5.788   3.927 -0.4175  1.0015 -0.1338
  779TIP3    H2 2344   4.532   5.812   4.055 -0.0654 -1.5959  0.6282
  780TIP3   OH2 2345   3.459   3.779   5.147  0.1150  0.4957  0.0157
  780TIP3    H1 2346   3.509   3.768   5.229 -0.5394 -0.0820  0.3505
  780TIP3    H2 2347   3.399   3.851   5.165 -0.1406  0.2624  0.1037
  781TIP3   OH2 2348   3.259   1.068   2.811 -0.2215 -0.1028 -0.0518
  781TIP3    H1 2349   3.259   1.095   2.903 -0.4281 -0.1161 -0.0470
  781TIP3    H2 2350   3.223   1.143   2.764 -0.7677 -0.3492 -0.0415
  782TIP3   OH2 2351   2.854   2.405   1.404 -0.1722 -0.0414  0.3599
  782TIP3    H1 2352   2.781   2.415   1.342 -1.7298 -0.4974  2.0311
  782TIP3    H2 2353   2.914   2.477   1.382 -1.0952  0.3257 -1.0913
  783TIP3   OH2 2354   3.733   1.845   3.877  0.0809 -0.1476 -0.0543
  783TIP3    H1 2355   3.767   1.933   3.864  0.0939 -0.1884 -0.2965
  783TIP3    H2 2356   3.678   1.829   3.801  0.0230 -0.3229  0.0233
  784TIP3   OH2 2357   0.637   1.729   0.089 -0.3529 -0.2521 -0.5601
  784TIP3    H1 2358   0.659   1.646   0.047 -0.2959 -0.8926  0.6657
  784TIP3    H2 2359   0.555   1.711   0.135 -0.7271  0.5938 -0.8771
  785TIP3   OH2 2360   0.363   3.067   0.170 -0.2357 -0.3471 -0.1833
  785TIP3    H1 2361   0.370   3.154   0.210  0.6153 -0.6099  0.2716
  785TIP3    H2 2362   0.324   3.012   0.238  0.7474 -0.6816  0.1324
  786TIP3   OH2 2363   5.307   0.941   5.192  0.3805 -0.3402 -0.5075
  786TIP3    H1 2364   5.353   0.971   5.113  2.2545  0.1453  0.6910
  786TIP3    H2 2365   5.300   0.846   5.180 -1.7997 -0.0237 -2.4209
  787TIP3   OH2 2366   4.601   1.810   2.153 -0.4442  0.0236  0.7413
  787TIP3    H1 2367   4.669   1.764   2.103 -0.7994 -0.4180  0.6536
  787TIP3    H2 2368   4.525   1.811   2.095  0.2642  3.0035 -0.2882
  788TIP3   OH2 2369   0.809   5.617   0.656 -0.2169 -0.4336  0.0136
  788TIP3    H1 2370   0.827   5.565   0.578 -0.6935  0.5046 -0.7378
  788TIP3    H2 2371   0.870   5.584   0.722 -0.4770 -1.8972 -0.4548
  789TIP3   OH2 2372   2.729   2.345   0.769  0.5808 -0.6394 -0.4596
  789TIP3    H1 2373   2.642   2.341   0.731 -0.3259 -0.1367  1.4311
  789TIP3    H2 2374   2.761   2.254   0.766 -0.1396 -0.8800 -0.8866
  790TIP3   OH2 2375   1.385   2.207   2.274  0.2469 -0.1217 -0.0650
  790TIP3    H1 2376   1.299   2.167   2.277 -0.4486  1.0589 -2.2161
  790TIP3    H2 2377   1.395   2.250   2.359 -0.5928 -1.5724  0.7902
  791TIP3   OH2 2378   0.255   1.179   0.800 -0.4090  0.3230  0.2249
  791TIP3    H1 2379   0.176   1.199   0.750 -0.1817  1.3101  0.2317
  791TIP3    H2 2380   0.288   1.265   0.827  1.5218  0.0617 -1.0947
  792TIP3   OH2 2381   4.430   5.242   3.004  0.8926 -0.1495 -0.0458
  792TIP3    H1 2382   4.410   5.328   3.041 -0.6189 -0.1308 -0.8366
  792TIP3    H2 2383   4.471   5.194   3.076  0.2640  0.6860  0.8942
  793TIP3   OH2 2384   6.114   4.839   3.441 -0.2561 -0.0016  0.3180
  793TIP3    H1 2385   6.205   4.859   3.465  0.0421 -0.2509 -0.5634
  793TIP3    H2 2386   6.113   4.745   3.426 -0.6591  0.0002  0.3336
  794TIP3   OH2 2387   1.161   5.897   3.675 -0.3161 -0.5609  0.2089
  794TIP3    H1 2388   1.206   5.814   3.659  0.0203 -0.2221 -0.7133
  794TIP3    H2 2389   1.178   5.948   3.596 -0.3171  0.4762  0.8618
  795TIP3   OH2 2390   4.821   0.604   3.767  0.5208 -0.3599 -0.1341
  795TIP3    H1 2391   4.757   0.674   3.752  0.4068 -0.5058 -0.3325
  795TIP3    H2 2392   4.887   0.617   3.699 -0.5474 -1.6694 -1.4917
  796TIP3   OH2 2393   2.357   3.289   3.855  0.1214  0.1564 -0.0622
  796TIP3    H1 2394   2.382   3.296   3.762 -0.1928 -4.3311 -0.7241
  796TIP3    H2 2395   2.437   3.309   3.903  0.9080  0.4180 -1.4218
  797TIP3   OH2 2396   4.636   4.128   4.044 -0.1700  0.6731  0.0803
  797TIP3    H1 2397   4.706   4.067   4.020 -2.1321 -1.0684 -1.6413
  797TIP3    H2 2398   4.651   4.146   4.136  3.2764  1.4678 -0.4726
  798TIP3   OH2 2399   2.727   0.567   1.004  0.3926  0.3734 -0.2541
  798TIP3    H1 2400   2.777   0.486   1.012 -1.2879 -0.6875 -0.0262
  798TIP3    H2 2401   2.717   0.598   1.094 -0.2557  0.0117 -0.2001
  799TIP3   OH2 2402   1.958   4.270   3.550  0.3626  0.0233 -0.6623
  799TIP3    H1 2403   1.989   4.216   3.622  1.1883  0.0824 -0.9642
  799TIP3    H2 2404   1.940   4.356   3.590 -2.6714 -0.8857  0.1910
  800TIP3   OH2 2405   1.162   0.194   1.643 -0.2904  0.1680  0.3585
  800TIP3    H1 2406   1.081   0.191   1.592  1.8284  1.5752 -3.5169
  800TIP3    H2 2407   1.175   0.287   1.662  1.3302  0.2648 -0.9465
  801TIP3   OH2 2408   5.801   5.330   1.262  0.2949 -0.2279  0.0821
  801TIP3    H1 2409   5.829   5.241   1.240 -1.5419 -0.6835 -0.6386
  801TIP3    H2 2410   5.851   5.353   1.340  0.5909 -2.0188  0.4565
  802TIP3   OH2 2411   1.834   3.344   3.654 -0.0167  0.5023 -0.3396
  802TIP3    H1 2412   1.793   3.405   3.592 -2.8680  0.0369  0.9041
  802TIP3    H2 2413   1.888   3.287   3.600 -0.5175  1.5908 -2.0767
  803TIP3   OH2 2414   0.799   1.626   3.463 -0.0226  0.1072 -0.1300
  803TIP3    H1 2415   0.800   1.569   3.541 -0.3282 -0.5347 -0.5836
  803TIP3    H2 2416   0.843   1.574   3.396  0.2695  0.6751 -0.3814
  804TIP3   OH2 2417   6.000   5.360   4.008  0.1532 -0.4742  0.0458
  804TIP3    H1 2418   5.949   5.441   3.996 -0.0267 -0.6003 -0.0397
  804TIP3    H2 2419   6.001   5.347   4.103  2.0704  0.8408  0.2659
  805TIP3   OH2 2420   5.923   2.526   4.633  0.2079 -0.0186 -0.5333
  805TIP3    H1 2421   6.014   2.509   4.612  0.2414 -0.3161 -0.1457
  805TIP3    H2 2422   5.902   2.466   4.705  0.1703  1.1838  0.4939
  806TIP3   OH2 2423   1.186   0.737   1.571 -0.3998 -0.1974 -0.5918
  806TIP3    H1 2424   1.176   0.822   1.613 -1.9821 -0.6009 -0.0725
  806TIP3    H2 2425   1.131   0.742   1.493 -0.6840 -0.7887 -0.4410
  807TIP3   OH2 2426   2.028   5.876   4.829 -0.2438  0.2283  0.1088
  807TIP3    H1 2427   1.980   5.836   4.901  0.2364  0.2540  0.4453
  807TIP3    H2 2428   1.996   5.830   4.751 -1.0016  0.4236  0.2980
  808TIP3   OH2 2429   1.688   0.146   2.249  0.1643 -0.4206 -0.4130
  808TIP3    H1 2430   1.648   0.141   2.336 -0.0267  0.7312 -0.4250
  808TIP3    H2 2431   1.613   0.150   2.189  0.2291  1.9387 -0.4261
  809TIP3   OH2 2432   2.300   5.638   3.304 -0.1795 -0.2630 -0.8476
  809TIP3    H1 2433   2.318   5.561   3.251 -0.7981 -0.0333 -1.4091
  809TIP3    H2 2434   2.280   5.707   3.240 -0.7589  0.0618 -0.3288
  810TIP3   OH2 2435   1.266   5.225   4.802  0.2899  0.4462  0.3858
  810TIP3    H1 2436   1.226   5.261   4.881 -0.6708  2.1761 -0.8294
  810TIP3    H2 2437   1.360   5.236   4.816  0.0748  2.9193  0.3841
  811TIP3   OH2 2438   5.133   1.387   0.395  0.2694 -0.5926  0.1502
  811TIP3    H1 2439   5.137   1.445   0.319  1.8925  0.6927  1.1504
  811TIP3    H2 2440   5.163   1.440   0.468 -0.2935 -2.0839  1.5260
  812TIP3   OH2 2441   1.710   1.941   3.965  0.2172  0.0130  0.0494
  812TIP3    H1 2442   1.660   2.013   4.005 -1.8844  0.1476 -2.5057
  812TIP3    H2 2443   1.750   1.980   3.888  0.6788 -1.1373 -0.3040
  813TIP3   OH2 2444   6.273   0.049   2.534  0.4422  0.4562  0.6481
  813TIP3    H1 2445   6.269   0.126   2.477  1.3195 -2.3474 -3.7479
  813TIP3    H2 2446   6.197  -0.003   2.509  0.4316 -0.6051  2.7219
  814TIP3   OH2 2447   3.392   5.855   2.652 -0.0756  0.3451  0.0505
  814TIP3    H1 2448   3.362   5.945   2.640 -1.0990  0.0762  0.5083
  814TIP3    H2 2449   3.350   5.807   2.580  1.1935  0.3735 -0.7450
  815TIP3   OH2 2450   1.192   0.483   3.093  0.0427  0.2590  1.1170
  815TIP3    H1 2451   1.157   0.571   3.078 -1.7296 -0.6584 -0.4585
  815TIP3    H2 2452   1.144   0.451   3.169  1.8885  1.1878  2.7841
  816TIP3   OH2 2453   4.341   2.343   0.474  0.3901  0.0372 -0.5826
  816TIP3    H1 2454   4.356   2.311   0.562  0.2998  2.5141  0.4219
  816TIP3    H2 2455   4.420   2.394   0.453  0.2123 -0.1348 -1.7356
  817TIP3   OH2 2456   6.119   3.233   4.562  1.1175  0.3888  0.2662
  817TIP3    H1 2457   6.114   3.265   4.472 -0.4354  1.4946  0.7069
  817TIP3    H2 2458   6.126   3.138   4.552 -0.3775  0.3639 -1.0346
  818TIP3   OH2 2459   2.635   1.893   0.544  0.0059 -0.4611 -0.3350
  818TIP3    H1 2460   2.636   1.929   0.456  0.4816  1.1522  0.3019
  818TIP3    H2 2461   2.652   1.799   0.532  2.4122  0.0786 -1.8048
  819TIP3   OH2 2462   1.276   5.645   3.647  0.1871  0.0120 -0.5399
  819TIP3    H1 2463   1.263   5.619   3.738  1.7651  0.3063 -0.2010
  819TIP3    H2 2464   1.230   5.579   3.596 -1.7854  0.5354  0.4820
  820TIP3   OH2 2465   3.157   2.326   1.189  0.1003  0.3972 -0.0740
  820TIP3    H1 2466   3.194   2.387   1.125 -1.8584  0.7124 -0.9831
  820TIP3    H2 2467   3.173   2.240   1.153  0.0358  0.5287 -0.4168
  821TIP3   OH2 2468   5.686   3.444   1.783 -0.4328 -0.4907  0.4485
  821TIP3    H1 2469   5.629   3.389   1.730 -0.0456 -0.1658 -0.3096
  821TIP3    H2 2470   5.772   3.437   1.742  0.1597 -1.2218  1.7609
  822TIP3   OH2 2471   3.932  -0.015   3.256 -0.1835 -0.7220 -0.1568
  822TIP3    H1 2472   3.938   0.060   3.315  0.6732 -0.5981 -0.3950
  822TIP3    H2 2473   3.848  -0.002   3.211  0.7590  1.0982 -1.5137
  823TIP3   OH2 2474   5.873   1.497   0.566 -0.2730 -0.3495 -0.0950
  823TIP3    H1 2475   5.839   1.509   0.477 -0.8760  5.0890  0.5286
  823TIP3    H2 2476   5.952   1.444   0.554 -0.5379 -0.1842 -3.8195
  824TIP3   OH2 2477   1.377   3.887   2.868  0.4410 -0.1523 -0.1154
  824TIP3    H1 2478   1.458   3.856   2.827  0.3398  0.6603 -0.9593
  824TIP3    H2 2479   1.398   3.895   2.961  0.8962 -1.3284 -0.0999
  825TIP3   OH2 2480   4.881   5.178   4.519 -0.5298 -0.1371 -0.1362
  825TIP3    H1 2481   4.965   5.156   4.559 -1.3671  0.5042  2.1418
  825TIP3    H2 2482   4.886   5.141   4.431  2.1939  0.0488 -0.1534
  826TIP3   OH2 2483   1.318   2.161   4.304  0.3828 -0.8416  0.1091
  826TIP3    H1 2484   1.341   2.068   4.303  3.5164 -0.2378 -2.8326
  826TIP3    H2 2485   1.383   2.202   4.361 -1.4649 -0.4295  2.0414
  827TIP3   OH2 2486   0.024   2.433   1.927  0.0446 -0.1347 -0.6654
  827TIP3    H1 2487   0.075   2.416   2.007 -0.1676 -2.6971 -0.9858
  827TIP3    H2 2488   0.003   2.526   1.932  1.6368  0.2084  1.3123
  828TIP3   OH2 2489   3.371   2.385   4.057 -0.4385  0.3711 -0.0187
  828TIP3    H1 2490   3.379   2.472   4.097 -0.6655  0.6038 -0.4784
  828TIP3    H2 2491   3.351   2.402   3.965 -0.2655 -0.1666 -0.1607
  829TIP3   OH2 2492   2.927   1.574   0.980 -0.3045 -0.0344  0.1727
  829TIP3    H1 2493   2.957   1.516   1.050  0.0087 -0.1739 -0.0722
  829TIP3    H2 2494   3.008   1.605   0.939 -0.4941 -0.2156 -0.3399
  830TIP3   OH2 2495   0.017   4.694   3.115  0.4128  0.3511 -0.2641
  830TIP3    H1 2496   0.087   4.701   3.050  0.0795 -1.4514 -0.8880
  830TIP3    H2 2497  -0.044   4.764   3.092  1.8799  1.8597  0.1984
  831TIP3   OH2 2498   1.178   2.151   0.412 -0.4576 -0.0057 -0.2329
  831TIP3    H1 2499   1.126   2.138   0.491  1.4956 -1.0141  0.9892
  831TIP3    H2 2500   1.133   2.100   0.344 -2.6141  1.5440 -0.0402
  832TIP3   OH2 2501   2.935   0.120   1.997 -0.0137  0.6103 -0.0459
  832TIP3    H1 2502   3.022   0.156   2.009  1.8366 -2.9340 -1.4857
  832TIP3    H2 2503   2.949   0.033   1.960 -4.0902 -1.0506  1.6674
  833TIP3   OH2 2504   6.278   0.197   4.661 -0.4851  0.2188 -0.5690
  833TIP3    H1 2505   6.206   0.197   4.724 -0.4736 -2.2737 -0.4618
  833TIP3    H2 2506   6.299   0.289   4.649 -0.9457  0.8504  2.5661
  834TIP3   OH2 2507   1.535   0.046   3.102 -0.9610 -0.0881 -0.1303
  834TIP3    H1 2508   1.554   0.115   3.038  0.0387  1.2472  1.5373
  834TIP3    H2 2509   1.505  -0.028   3.049 -0.4508  1.0582 -2.1149
  835TIP3   OH2 2510   6.203   2.944   3.030 -0.0410 -0.0632 -0.3091
  835TIP3    H1 2511   6.265   2.988   2.973  0.2632  0.0087  0.0750
  835TIP3    H2 2512   6.154   3.014   3.073  0.9653 -0.0486  0.8874
  836TIP3   OH2 2513   4.650   1.676   2.655 -0.7790  0.4589  0.1932
  836TIP3    H1 2514   4.672   1.740   2.722 -1.9800  1.3399 -0.2139
  836TIP3    H2 2515   4.731   1.663   2.606  0.4219 -0.9978  2.3910
  837TIP3   OH2 2516   4.120   1.209   0.786 -0.1682  0.2022 -0.6473
  837TIP3    H1 2517   4.107   1.268   0.860 -1.5559 -1.4354  0.4892
  837TIP3    H2 2518   4.033   1.176   0.765  0.3127 -0.0625 -2.4620
  838TIP3   OH2 2519   0.225   3.837   1.494  0.2623 -0.1036 -0.4231
  838TIP3    H1 2520   0.223   3.771   1.564 -0.8825  0.6781  0.3011
  838TIP3    H2 2521   0.315   3.833   1.461 -0.1766 -3.1791 -1.5456
  839TIP3   OH2 2522   0.381   2.755   1.417  0.4152 -0.4039 -0.1083
  839TIP3    H1 2523   0.474   2.769   1.397  0.2959 -1.9089 -2.0857
  839TIP3    H2 2524   0.335   2.783   1.337 -0.7298 -0.8876  0.3565
  840TIP3   OH2 2525   1.822   2.924   2.281  0.3272  0.1786 -0.3965
  840TIP3    H1 2526   1.749   2.914   2.220  1.0543  0.5282 -1.3482
  840TIP3    H2 2527   1.882   2.984   2.237  1.3332 -0.3309  0.2379
  841TIP3   OH2 2528   1.286   0.315   0.672 -0.1574 -0.0733  0.4698
  841TIP3    H1 2529   1.333   0.235   0.692  0.4213  0.0525 -0.3309
  841TIP3    H2 2530   1.353   0.383   0.674 -0.4414  0.2218  0.0485
  842TIP3   OH2 2531   0.873   3.219   1.964 -0.0529 -0.0897  0.5768
  842TIP3    H1 2532   0.960   3.237   2.000 -0.3429  0.2836  1.1092
  842TIP3    H2 2533   0.836   3.306   1.948 -0.1837 -0.2509 -0.0105
  843TIP3   OH2 2534   1.259   1.133   0.784  0.1746  0.0065  0.0849
  843TIP3    H1 2535   1.271   1.221   0.749  1.7776  0.0774  0.7301
  843TIP3    H2 2536   1.170   1.108   0.757  0.3343  1.1164 -1.6100
  844TIP3   OH2 2537   5.186   2.947   3.240 -0.2213  0.2005  0.2536
  844TIP3    H1 2538   5.165   2.959   3.333  1.3668  0.2371  0.6526
  844TIP3    H2 2539   5.279   2.972   3.234  0.7399 -3.1200 -0.6439
  845TIP3   OH2 2540   3.173   0.044   2.753 -0.0290  0.2033  0.5421
  845TIP3    H1 2541   3.205  -0.044   2.774  0.1771  0.3387  0.7967
  845TIP3    H2 2542   3.198   0.057   2.661  0.7029  0.3315  0.7550
  846TIP3   OH2 2543   0.322   3.684   3.010  0.4272  0.1465  0.4634
  846TIP3    H1 2544   0.309   3.657   2.919  0.7344  0.8925  0.1880
  846TIP3    H2 2545   0.299   3.607   3.062 -0.6694  0.0020 -0.2037
  847TIP3   OH2 2546   3.214   3.898   2.783  0.2417 -0.2337  0.1029
  847TIP3    H1 2547   3.128   3.858   2.768  0.2468  0.7898 -3.9793
  847TIP3    H2 2548   3.259   3.837   2.842 -1.7958 -3.1263 -1.0903
  848TIP3   OH2 2549   1.335   2.616   2.215 -0.3395  0.3526 -0.8662
  848TIP3    H1 2550   1.351   2.621   2.309 -1.7207 -0.7242 -0.5350
  848TIP3    H2 2551   1.241   2.597   2.208 -0.6255  2.0497 -2.5134
  849TIP3   OH2 2552   0.708   0.243   3.991 -0.3856 -0.2521  0.3529
  849TIP3    H1 2553   0.674   0.203   3.911  0.4097 -1.7107  0.6999
  849TIP3    H2 2554   0.802   0.251   3.976 -0.5204  1.5656  0.2972
  850TIP3   OH2 2555   4.222   3.435   0.737  0.5383 -0.1048  0.1505
  850TIP3    H1 2556   4.306   3.400   0.707 -0.2312 -2.8063  0.8983
  850TIP3    H2 2557   4.229   3.435   0.832 -0.1319  0.1273  0.2021
  851TIP3   OH2 2558   5.996   4.019   3.739  0.5964 -0.3630  0.1411
  851TIP3    H1 2559   6.000   4.107   3.778  0.5458 -0.8848  1.3393
  851TIP3    H2 2560   6.086   4.000   3.715  0.8198 -0.5143  1.0836
  852TIP3   OH2 2561   4.779   4.453   3.868  0.8154  0.3259  0.1903
  852TIP3    H1 2562   4.693   4.412   3.883  0.6081  0.4641 -0.5394
  852TIP3    H2 2563   4.762   4.547   3.874  0.6141  0.4174 -1.2572
  853TIP3   OH2 2564   0.933   2.812   0.214 -0.0710 -0.1810  0.3890
  853TIP3    H1 2565   0.956   2.720   0.219 -0.0631 -0.1778  0.4116
  853TIP3    H2 2566   1.017   2.858   0.223  0.1680 -0.2037 -1.2987
  854TIP3   OH2 2567   1.998   4.454   4.947 -0.2803  0.0673 -0.8223
  854TIP3    H1 2568   2.050   4.406   5.012  0.3346 -2.8182 -3.1940
  854TIP3    H2 2569   2.056   4.523   4.917  1.1498 -1.2883 -1.3340
  855TIP3   OH2 2570   4.276   2.151   3.544  0.2021 -0.0912 -0.1397
  855TIP3    H1 2571   4.267   2.087   3.473 -0.0863  0.3697 -0.5342
  855TIP3    H2 2572   4.353   2.123   3.593  0.4322 -0.3988 -0.6664
  856TIP3   OH2 2573   3.187   4.891   2.281 -0.2378  0.4067  0.4383
  856TIP3    H1 2574   3.221   4.896   2.191  1.2166 -0.0991  0.9340
  856TIP3    H2 2575   3.229   4.814   2.318 -1.8326 -0.1582  1.1687
  857TIP3   OH2 2576   0.477   5.351   0.973  0.2022 -0.8078  0.2075
  857TIP3    H1 2577   0.534   5.365   0.897 -1.8301  0.2114 -1.2155
  857TIP3    H2 2578   0.502   5.420   1.035 -0.3751  0.5120 -0.9798
  858TIP3   OH2 2579   1.839   3.459   2.184  0.0916 -0.7115 -0.0608
  858TIP3    H1 2580   1.777   3.386   2.178  1.0497 -1.7833  2.0193
  858TIP3    H2 2581   1.783   3.536   2.196 -0.9061 -1.2184 -1.2623
  859TIP3   OH2 2582   5.132   4.987   2.996 -0.2430 -0.2972  0.5973
  859TIP3    H1 2583   5.074   4.977   3.072 -2.7548 -2.2975 -1.4046
  859TIP3    H2 2584   5.149   4.898   2.967  0.8023  0.4142 -1.0822
  860TIP3   OH2 2585   5.314   5.667   3.846 -0.2423 -0.0239 -0.1369
  860TIP3    H1 2586   5.366   5.727   3.899 -1.8406  0.2658  1.2165
  860TIP3    H2 2587   5.333   5.691   3.755  1.0036  0.8687  0.3436
  861TIP3   OH2 2588   3.446   5.852   4.156  0.1933  0.0160 -0.3588
  861TIP3    H1 2589   3.354   5.846   4.180 -0.6020  1.5041 -2.7185
  861TIP3    H2 2590   3.482   5.919   4.214 -0.3164 -0.2249  0.2403
  862TIP3   OH2 2591   1.097   4.300   4.148 -0.2215  0.4685  0.4795
  862TIP3    H1 2592   1.104   4.212   4.112  0.0987  0.5359  0.3726
  862TIP3    H2 2593   1.188   4.329   4.159 -0.3047  0.3752  1.5250
  863TIP3   OH2 2594   5.934   5.934   1.974  0.1270 -0.5549  0.3104
  863TIP3    H1 2595   5.856   5.943   2.029  0.4074 -0.4007  0.6908
  863TIP3    H2 2596   5.929   5.845   1.938 -1.6802  0.3412 -1.9248
  864TIP3   OH2 2597   2.226   3.918   0.193 -0.6525  0.3337 -0.3466
  864TIP3    H1 2598   2.309   3.929   0.239 -1.2723 -0.4616  1.0322
  864TIP3    H2 2599   2.176   3.997   0.214 -1.1851 -0.3234  0.9399
  865TIP3   OH2 2600   3.981   1.190   4.632  0.0251  0.1013 -0.0458
  865TIP3    H1 2601   3.938   1.132   4.570 -0.9796  0.8726 -0.1042
  865TIP3    H2 2602   4.009   1.265   4.580  1.0669 -0.1876  0.0745
  866TIP3   OH2 2603   3.796   5.951   2.227 -0.2267 -0.5300  0.1102
  866TIP3    H1 2604   3.769   5.955   2.136  0.8310 -0.5882 -0.2135
  866TIP3    H2 2605   3.820   6.041   2.250 -1.5971 -0.2831  0.6992
  867TIP3   OH2 2606   0.431   5.808   4.382  0.2481  0.2023 -0.7308
  867TIP3    H1 2607   0.476   5.812   4.466 -0.1608  0.7734 -0.5299
  867TIP3    H2 2608   0.396   5.719   4.377 -0.1932  0.3333 -0.0487
  868TIP3   OH2 2609   5.748   5.095   3.188  1.0067 -0.4085 -0.1966
  868TIP3    H1 2610   5.791   5.077   3.271  0.2777 -0.9747  0.0723
  868TIP3    H2 2611   5.768   5.019   3.133  1.6195  0.0360 -0.6036
  869TIP3   OH2 2612   2.022   2.387   0.138 -0.2226 -0.3620  0.4761
  869TIP3    H1 2613   2.054   2.431   0.216  0.2392 -2.3008  1.4578
  869TIP3    H2 2614   1.963   2.319   0.171  2.5931 -3.5417 -0.4472
  870TIP3   OH2 2615   1.715   2.206   0.703 -0.3960 -0.1279 -0.6662
  870TIP3    H1 2616   1.728   2.295   0.736 -0.3059  0.3271 -1.8552
  870TIP3    H2 2617   1.620   2.199   0.691 -0.4247 -0.2757 -0.3483
  871TIP3   OH2 2618   5.471   0.486   1.445 -0.1885 -0.3137  0.2177
  871TIP3    H1 2619   5.397   0.502   1.504 -0.3432 -0.8084  0.1593
  871TIP3    H2 2620   5.430   0.451   1.366  0.1892 -1.5692  0.5561
  872TIP3   OH2 2621   0.932   0.572   3.717 -0.1131  0.0372  0.1920
  872TIP3    H1 2622   0.868   0.503   3.733  0.9250 -0.6045  1.7733
  872TIP3    H2 2623   1.009   0.527   3.683  0.1529  0.5670  0.0756
  873TIP3   OH2 2624   4.585   4.206   0.758 -0.0609  0.0579 -0.1470
  873TIP3    H1 2625   4.670   4.175   0.728 -0.1442 -1.6660  1.1858
  873TIP3    H2 2626   4.601   4.238   0.847 -0.6163  0.7366 -0.2785
  874TIP3   OH2 2627   3.569   2.540   0.833 -0.1584 -0.7862  0.2796
  874TIP3    H1 2628   3.549   2.564   0.924  0.0165 -0.9260  0.3545
  874TIP3    H2 2629   3.632   2.468   0.840  1.3966  0.5213  0.0222
  875TIP3   OH2 2630   6.296   1.454   3.539 -0.2576 -0.0988  0.7910
  875TIP3    H1 2631   6.269   1.398   3.612 -2.0602  0.8837  0.9393
  875TIP3    H2 2632   6.314   1.539   3.580 -1.1685  0.4308  0.1441
  876TIP3   OH2 2633   2.746   5.833   4.684 -0.3881 -0.1019  0.1137
  876TIP3    H1 2634   2.718   5.911   4.733 -1.1716 -0.6129  0.5086
  876TIP3    H2 2635   2.712   5.760   4.735 -2.9564 -0.6561 -2.1548
  877TIP3   OH2 2636   0.613   5.119   4.748 -0.4211  0.8394  0.0497
  877TIP3    H1 2637   0.613   5.025   4.764  1.2661  0.4944 -1.5662
  877TIP3    H2 2638   0.586   5.127   4.656 -0.6902  1.9388  0.2143
  878TIP3   OH2 2639   6.345   2.403   3.114 -0.6361 -1.0395  0.2417
  878TIP3    H1 2640   6.309   2.482   3.155 -0.7444 -1.6809  1.4276
  878TIP3    H2 2641   6.386   2.434   3.034 -1.8795  0.0285 -0.0162
  879TIP3   OH2 2642   1.299   2.378   0.415 -0.0795 -0.3990 -0.1801
  879TIP3    H1 2643   1.228   2.437   0.387 -0.9385 -1.7904 -1.0614
  879TIP3    H2 2644   1.260   2.291   0.411  1.7576 -1.2279 -0.8746
  880TIP3   OH2 2645   1.498   5.514   3.892  0.0625  0.7064 -0.1140
  880TIP3    H1 2646   1.428   5.570   3.925  0.3204  0.3077  1.2073
  880TIP3    H2 2647   1.578   5.564   3.906  0.3422 -0.1072  1.5041
  881TIP3   OH2 2648   5.997   0.906   2.769  0.4269  0.7376 -0.1943
  881TIP3    H1 2649   5.918   0.889   2.718  0.6881  0.5710 -0.5402
  881TIP3    H2 2650   5.966   0.956   2.845 -0.0921  0.1885 -0.0402
  882TIP3   OH2 2651   5.827   5.484   0.996  0.2758  0.0360  0.3962
  882TIP3    H1 2652   5.802   5.436   1.074  2.7116 -1.2695  0.4609
  882TIP3    H2 2653   5.913   5.522   1.017 -0.2808  2.0728 -0.6796
  883TIP3   OH2 2654   5.510   5.413   0.491 -0.0924  0.6520 -0.1085
  883TIP3    H1 2655   5.550   5.372   0.569  0.9016 -1.6746 -1.7176
  883TIP3    H2 2656   5.420   5.380   0.490  0.0076  0.3737 -0.1291
  884TIP3   OH2 2657   5.220   5.783   2.150  0.0889  0.0568 -0.5956
  884TIP3    H1 2658   5.225   5.687   2.160 -0.2010  0.0198 -0.7809
  884TIP3    H2 2659   5.253   5.817   2.233 -0.9235 -0.2217 -0.0641
  885TIP3   OH2 2660  -0.009   5.712   3.310 -0.2562  0.1256 -0.2786
  885TIP3    H1 2661   0.028   5.654   3.244  0.7351 -0.0382  0.3952
  885TIP3    H2 2662   0.023   5.799   3.287  1.5348 -0.1459  0.8908
  886TIP3   OH2 2663   5.666   1.212   4.730 -0.3155  0.2205  0.5391
  886TIP3    H1 2664   5.627   1.237   4.814  1.8012 -0.2490  1.7269
  886TIP3    H2 2665   5.756   1.242   4.735 -0.4792  1.5172 -2.2185
  887TIP3   OH2 2666   1.268   5.264   4.082 -0.2914 -0.2972  0.5217
  887TIP3    H1 2667   1.210   5.260   4.158 -0.4812 -2.0457  0.3397
  887TIP3    H2 2668   1.263   5.176   4.044 -0.3575  0.5790 -1.6421
  888TIP3   OH2 2669   6.237   5.519   2.028  0.1057 -0.1370 -0.1827
  888TIP3    H1 2670   6.235   5.613   2.012  1.0827 -0.2253 -0.9554
  888TIP3    H2 2671   6.164   5.503   2.088 -0.1195  1.0939 -0.0983
  889TIP3   OH2 2672   4.001   4.985   4.852 -0.3508 -0.2515  0.1240
  889TIP3    H1 2673   4.095   4.971   4.836 -0.5595 -0.2737 -1.2713
  889TIP3    H2 2674   3.998   5.058   4.913  0.5928 -1.1811  1.3519
  890TIP3   OH2 2675   4.450   5.452   4.328  0.1592 -0.3622  0.2598
  890TIP3    H1 2676   4.501   5.402   4.392  1.6003 -0.7637 -1.1528
  890TIP3    H2 2677   4.375   5.396   4.310 -2.1259  1.1275  3.9216
  891TIP3   OH2 2678   6.151   5.095   3.771 -0.2051 -0.1273 -0.1024
  891TIP3    H1 2679   6.103   5.178   3.764  2.1299  1.4379  1.1847
  891TIP3    H2 2680   6.105   5.047   3.840 -1.1925  0.3804 -0.3903
  892TIP3   OH2 2681   1.217   0.450   1.709  0.1024  0.2313  0.5957
  892TIP3    H1 2682   1.224   0.527   1.652 -1.4762 -0.1023 -0.1019
  892TIP3    H2 2683   1.255   0.479   1.792  0.4567  1.4454  0.0392
  893TIP3   OH2 2684   5.715   3.760   3.434  0.2572 -0.2936 -0.3738
  893TIP3    H1 2685   5.753   3.848   3.439 -1.4362  0.4125  0.9202
  893TIP3    H2 2686   5.679   3.744   3.521 -0.1121 -1.9771 -0.7992
  894TIP3   OH2 2687   3.929   4.496   5.126  0.5069  0.1276 -0.5466
  894TIP3    H1 2688   3.836   4.475   5.126  0.2016  1.3515 -1.3253
  894TIP3    H2 2689   3.950   4.511   5.034  1.1184  1.2769 -0.2424
  895TIP3   OH2 2690   6.244   2.274   1.506  0.3769  0.1962 -0.5731
  895TIP3    H1 2691   6.333   2.254   1.478  0.2908 -0.2829 -0.5071
  895TIP3    H2 2692   6.209   2.190   1.537 -0.3253  0.2296 -1.2432
  896TIP3   OH2 2693   4.488   5.592   3.392 -0.4450 -0.5203  0.2603
  896TIP3    H1 2694   4.425   5.545   3.447 -0.6381  1.0685  1.4582
  896TIP3    H2 2695   4.486   5.682   3.424  0.1825  0.2588 -1.7171
  897TIP3   OH2 2696   2.687   0.600   4.840  0.8271 -0.3021 -0.7136
  897TIP3    H1 2697   2.689   0.534   4.910  0.9343 -2.0977 -2.3227
  897TIP3    H2 2698   2.760   0.659   4.861  2.4928 -2.2776 -0.6192
  898TIP3   OH2 2699   0.998   1.179   1.470  0.0791 -0.0246 -0.0221
  898TIP3    H1 2700   1.033   1.255   1.423 -0.0745  0.1383  0.1239
  898TIP3    H2 2701   0.970   1.214   1.555  1.4496 -0.5239  0.6796
  899TIP3   OH2 2702   0.836   2.430   0.014 -0.1987  0.1100 -0.0110
  899TIP3    H1 2703   0.857   2.470   0.099  0.7940  0.6935 -0.5141
  899TIP3    H2 2704   0.922   2.408  -0.023 -0.6782 -1.2820 -0.3261
  900TIP3   OH2 2705   4.551   5.545   5.060  0.6017  0.4612 -0.5418
  900TIP3    H1 2706   4.511   5.579   4.980 -0.0824  0.3146 -0.2694
  900TIP3    H2 2707   4.478   5.534   5.121  0.7259 -1.7866 -0.7102
  901TIP3   OH2 2708   1.175   2.713   3.429  0.0558  0.4411 -0.2884
  901TIP3    H1 2709   1.163   2.751   3.516  1.3765  1.6761 -0.6021
  901TIP3    H2 2710   1.224   2.632   3.444  1.4728  1.3263  0.0542
  902TIP3   OH2 2711   3.652   5.910   3.097  0.8047 -0.8927  0.3233
  902TIP3    H1 2712   3.637   5.828   3.051  0.2297 -0.1979 -0.7865
  902TIP3    H2 2713   3.583   5.914   3.163  0.1544 -0.8072 -0.3445
  903TIP3   OH2 2714   5.380   4.888   0.108 -0.3996 -0.2110  0.1956
  903TIP3    H1 2715   5.329   4.943   0.049  1.8072  1.5304 -0.2372
  903TIP3    H2 2716   5.316   4.849   0.167 -2.2665  1.1929 -0.8187
  904TIP3   OH2 2717   0.624   0.587   1.613  0.2391  0.1030  0.5852
  904TIP3    H1 2718   0.716   0.566   1.602  0.1942 -0.2658  0.9182
  904TIP3    H2 2719   0.608   0.656   1.548  0.6630 -0.0693  0.2891
  905TIP3   OH2 2720   4.983   4.261   2.769 -0.0519  0.2636  0.5631
  905TIP3    H1 2721   4.986   4.182   2.715  0.8742  0.2262  0.6408
  905TIP3    H2 2722   4.896   4.297   2.755  0.0761  0.1174 -0.7880
  906TIP3   OH2 2723   6.326   3.592   0.582  0.3783  0.2259 -0.1617
  906TIP3    H1 2724   6.271   3.634   0.517  0.7373  0.7463 -0.1349
  906TIP3    H2 2725   6.283   3.611   0.666  0.7546  0.8970 -0.1125
  907TIP3   OH2 2726   3.595   1.570   3.812  0.3194 -0.2250 -0.0793
  907TIP3    H1 2727   3.529   1.523   3.761 -0.6510  1.4323 -0.4072
  907TIP3    H2 2728   3.548   1.599   3.890  0.8768  0.2719  0.0722
  908TIP3   OH2 2729   1.044   2.791   5.128 -0.0601 -0.4958 -0.0533
  908TIP3    H1 2730   1.001   2.769   5.211 -0.7614 -0.8895 -0.5077
  908TIP3    H2 2731   0.975   2.782   5.062  0.3624  0.2776 -0.6270
  909TIP3   OH2 2732   5.538   1.655   1.943  0.2849 -0.0961  0.0383
  909TIP3    H1 2733   5.626   1.633   1.912 -0.3869 -1.6015 -0.9164
  909TIP3    H2 2734   5.481   1.591   1.900 -1.0420 -0.5086  2.2353
  910TIP3   OH2 2735   1.103   0.298   4.521  0.1293  0.4896 -0.4802
  910TIP3    H1 2736   1.194   0.292   4.493  0.2403  1.1847 -0.2858
  910TIP3    H2 2737   1.106   0.343   4.606 -0.3323 -0.1493 -0.1202
  911TIP3   OH2 2738   5.173   1.639   1.651 -0.2838  0.1384 -0.2679
  911TIP3    H1 2739   5.098   1.680   1.694 -0.0582 -0.4212  0.6950
  911TIP3    H2 2740   5.146   1.631   1.560 -0.8716  1.1470 -0.2030
  912TIP3   OH2 2741   6.288   5.900   2.343 -0.5988  0.1702  0.6206
  912TIP3    H1 2742   6.272   5.968   2.277 -0.2490  1.3794  1.7414
  912TIP3    H2 2743   6.202   5.860   2.356 -0.6535 -0.1715 -0.6404
  913TIP3   OH2 2744   6.239   2.328   0.823 -0.2154  0.3483  0.0062
  913TIP3    H1 2745   6.234   2.423   0.837  1.4368  0.4741 -0.1078
  913TIP3    H2 2746   6.226   2.291   0.910 -4.2090  0.4566 -0.3664
  914TIP3   OH2 2747   0.070   4.970   1.432  0.3472  0.4955  0.4155
  914TIP3    H1 2748   0.009   5.042   1.450 -2.6413 -1.4314 -1.0719
  914TIP3    H2 2749   0.093   4.935   1.518 -0.6092  1.3595  1.0429
  915TIP3   OH2 2750   5.596   3.910   1.878  0.4246  0.1100  0.1464
  915TIP3    H1 2751   5.670   3.871   1.924  0.4579 -0.9544 -0.7933
  915TIP3    H2 2752   5.574   3.987   1.931 -0.1157 -1.5354  2.4734
  916TIP3   OH2 2753   4.448   5.837   5.135 -0.5910  0.0423  0.1322
  916TIP3    H1 2754   4.407   5.901   5.077 -0.7216  1.3105  1.5412
  916TIP3    H2 2755   4.516   5.887   5.180 -0.5987 -0.8550  1.1790
  917TIP3   OH2 2756   4.542   4.454   1.377  0.3758 -0.1602  0.1366
  917TIP3    H1 2757   4.497   4.434   1.295 -1.2159  1.4143  0.5786
  917TIP3    H2 2758   4.579   4.541   1.364 -1.9237  1.1890  1.8011
  918TIP3   OH2 2759   4.536   1.539   3.349 -0.2708  0.4553  0.0372
  918TIP3    H1 2760   4.556   1.454   3.310  0.0774 -0.6638  2.4499
  918TIP3    H2 2761   4.557   1.602   3.281 -2.4650 -1.4120 -2.5754
  919TIP3   OH2 2762   4.454   4.307   3.915 -0.0912  0.6750  0.0038
  919TIP3    H1 2763   4.513   4.232   3.920  0.2193  0.8244 -1.1607
  919TIP3    H2 2764   4.446   4.325   3.821  0.5607  2.6632  0.2764
  920TIP3   OH2 2765   3.836   2.199   1.412  0.1148  0.2790 -0.4854
  920TIP3    H1 2766   3.755   2.229   1.452  1.5695  0.6454  2.4753
  920TIP3    H2 2767   3.822   2.105   1.397 -0.2034 -0.1176  1.9373
  921TIP3   OH2 2768   3.380   5.631   0.206 -0.3167 -0.6607 -0.2677
  921TIP3    H1 2769   3.377   5.724   0.187  0.3018 -0.7908 -1.0423
  921TIP3    H2 2770   3.401   5.626   0.299  2.7917 -0.0123 -0.8401
  922TIP3   OH2 2771   3.080   2.496   4.945 -0.3763 -0.4130 -0.6549
  922TIP3    H1 2772   3.149   2.430   4.943  1.7674  1.6781 -3.4528
  922TIP3    H2 2773   3.030   2.481   4.865 -0.7481  0.4804 -0.5948
  923TIP3   OH2 2774   0.535   3.068   4.148 -0.2302  0.0557  0.8261
  923TIP3    H1 2775   0.497   3.125   4.214 -1.8192 -0.1748  0.1446
  923TIP3    H2 2776   0.529   3.118   4.067 -0.2065 -0.4862  0.4862
  924TIP3   OH2 2777   1.744   2.532   1.274 -0.2113 -0.4534  0.3586
  924TIP3    H1 2778   1.744   2.548   1.369 -0.3740 -0.2108  0.3191
  924TIP3    H2 2779   1.776   2.614   1.237 -0.6914 -0.3529  0.1713
  925TIP3   OH2 2780   2.487   0.011   1.339  0.8339 -0.0500 -0.4726
  925TIP3    H1 2781   2.482   0.076   1.270  1.0806 -0.3381 -0.7664
  925TIP3    H2 2782   2.575   0.021   1.375  0.6598  0.1914 -0.1051
  926TIP3   OH2 2783   0.459   2.548   3.518  0.3345  0.0599  0.2842
  926TIP3    H1 2784   0.518   2.489   3.567  1.1484  0.5652 -0.0596
  926TIP3    H2 2785   0.491   2.636   3.538 -0.3131  0.3455  0.0798
  927TIP3   OH2 2786   5.015   2.049   0.131 -0.3609 -0.2186  0.7168
  927TIP3    H1 2787   5.006   2.061   0.037 -0.9394 -0.0216  0.7918
  927TIP3    H2 2788   5.106   2.022   0.144  0.2448  1.4555  0.2715
  928TIP3   OH2 2789   4.469   3.363   0.648  0.3575  0.1957 -0.1485
  928TIP3    H1 2790   4.496   3.427   0.582  1.1267 -0.2071 -0.2477
  928TIP3    H2 2791   4.548   3.348   0.700  0.5801 -1.5496 -0.8822
  929TIP3   OH2 2792   3.301   2.681   3.255  0.9300  0.1711  0.1503
  929TIP3    H1 2793   3.369   2.710   3.195  0.5454  1.5300  0.3486
  929TIP3    H2 2794   3.347   2.627   3.319  1.5061 -0.4450 -0.7557
  930TIP3   OH2 2795   2.608   3.350   2.501 -0.3266 -0.4414  0.2379
  930TIP3    H1 2796   2.514   3.332   2.492 -0.4039 -0.3106  0.7891
  930TIP3    H2 2797   2.649   3.263   2.502 -0.3759 -0.4849 -0.6580
  931TIP3   OH2 2798   0.748   3.684   3.287 -0.6232 -0.0686 -0.6336
  931TIP3    H1 2799   0.761   3.779   3.289  0.8057 -0.1545 -2.6832
  931TIP3    H2 2800   0.671   3.672   3.231 -1.1584 -0.1069  0.1045
  932TIP3   OH2 2801   5.402   2.050   4.263 -0.4408  0.5902 -0.5303
  932TIP3    H1 2802   5.376   1.996   4.189 -0.9925  0.9296 -0.5940
  932TIP3    H2 2803   5.491   2.022   4.284 -1.0112 -0.9597 -0.0103
  933TIP3   OH2 2804   0.202   2.656   0.317  0.5304  0.5310 -0.5323
  933TIP3    H1 2805   0.164   2.680   0.232 -0.3188 -0.3295 -0.4073
  933TIP3    H2 2806   0.145   2.587   0.351  1.1683  0.4854  0.5018
  934TIP3   OH2 2807   4.779   2.207   4.907  0.4805 -0.0206  0.1619
  934TIP3    H1 2808   4.792   2.139   4.841 -0.4356 -0.0438 -0.0191
  934TIP3    H2 2809   4.753   2.160   4.986  0.0285  0.0963  0.0884
  935TIP3   OH2 2810   3.958   5.814   0.038  0.5202  0.3199  0.3600
  935TIP3    H1 2811   3.959   5.727   0.078 -0.8694 -0.7879 -1.8064
  935TIP3    H2 2812   3.865   5.832   0.024  0.6836  2.8511  2.0792
  936TIP3   OH2 2813   1.945   5.324   1.206  0.3299  0.0725  0.6526
  936TIP3    H1 2814   1.970   5.354   1.293  1.9143 -0.4205  0.3830
  936TIP3    H2 2815   1.891   5.395   1.171 -0.5169  0.1772  2.0983
  937TIP3   OH2 2816   4.972   2.652   2.389  0.3027  0.1512  0.5668
  937TIP3    H1 2817   5.023   2.650   2.471  0.3252 -2.4913  0.5721
  937TIP3    H2 2818   5.032   2.689   2.325  0.4572  1.8144  1.6180
  938TIP3   OH2 2819   4.939   5.550   4.671  0.4153 -0.0035 -0.2072
  938TIP3    H1 2820   4.848   5.541   4.698  0.1645 -0.3800 -1.1358
  938TIP3    H2 2821   4.936   5.608   4.594  1.1275  1.2359  0.6618
  939TIP3   OH2 2822   0.259   5.134   3.645  0.0042 -0.4574 -0.2288
  939TIP3    H1 2823   0.258   5.147   3.550  1.2633  0.5965 -0.1253
  939TIP3    H2 2824   0.325   5.067   3.660 -0.3230 -0.7554 -0.1060
  940TIP3   OH2 2825   3.969   4.001   0.221  0.3899 -0.4291  0.4958
  940TIP3    H1 2826   4.059   4.024   0.246  0.4666 -0.9947  0.7558
  940TIP3    H2 2827   3.976   3.965   0.133  0.6028 -1.6152  0.9733
  941TIP3   OH2 2828   3.292   5.216   3.353 -0.2652 -0.0205 -0.1397
  941TIP3    H1 2829   3.311   5.257   3.438 -1.2647  2.0692 -0.8554
  941TIP3    H2 2830   3.362   5.245   3.296 -0.4249 -0.1638 -0.4090
  942TIP3   OH2 2831   3.441   3.364   1.014 -0.2994  0.1853 -0.2264
  942TIP3    H1 2832   3.486   3.280   1.005  2.7169  1.6851 -0.2680
  942TIP3    H2 2833   3.380   3.367   0.940  0.5555 -1.3645 -1.0379
  943TIP3   OH2 2834   1.848   0.434   0.556 -0.0934 -1.3184  0.4422
  943TIP3    H1 2835   1.913   0.432   0.486  1.1037  3.3770  1.0905
  943TIP3    H2 2836   1.765   0.418   0.511  0.6096  1.6875 -2.2843
  944TIP3   OH2 2837   4.352   4.029   2.641 -0.2813 -0.3342 -0.0338
  944TIP3    H1 2838   4.293   4.073   2.701  1.7377  1.0087  1.0838
  944TIP3    H2 2839   4.340   4.075   2.558 -2.0822 -1.3017 -0.3629
  945TIP3   OH2 2840   2.898   0.443   2.592 -0.1758 -0.2271  0.1047
  945TIP3    H1 2841   2.810   0.410   2.578  0.3061 -1.1878 -0.7608
  945TIP3    H2 2842   2.893   0.535   2.566 -1.1066 -0.0394  0.8676
  946TIP3   OH2 2843   1.714   1.962   1.478 -0.0011 -0.4999 -0.0512
  946TIP3    H1 2844   1.769   1.910   1.536 -1.9032 -1.7918  0.7018
  946TIP3    H2 2845   1.682   2.033   1.533  0.5640  0.0227 -0.3802
  947TIP3   OH2 2846   4.025   4.891   0.804 -0.5796 -0.3896 -0.0062
  947TIP3    H1 2847   4.029   4.986   0.802  3.2429 -0.3901 -0.1000
  947TIP3    H2 2848   4.049   4.868   0.894  0.8947 -1.2070 -0.5653
  948TIP3   OH2 2849   4.438   2.423   3.655  0.2966 -0.1429 -0.3819
  948TIP3    H1 2850   4.360   2.397   3.704  1.2098 -2.2982  0.0848
  948TIP3    H2 2851   4.415   2.406   3.563  0.1421 -0.6391 -0.2591
  949TIP3   OH2 2852   5.414   2.573   1.231  0.1232 -0.6830 -0.4374
  949TIP3    H1 2853   5.420   2.644   1.168 -0.5618  1.2235  1.4955
  949TIP3    H2 2854   5.499   2.573   1.276 -0.0324 -0.7622 -0.1365
  950TIP3   OH2 2855   6.113   4.809   0.228 -0.8425 -0.0969  0.4603
  950TIP3    H1 2856   6.115   4.872   0.301 -0.1163 -0.1113  0.4569
  950TIP3    H2 2857   6.069   4.856   0.157 -3.0966 -0.6372  1.3968
  951TIP3   OH2 2858   2.446   5.322   0.604 -0.0185 -0.2931 -0.1866
  951TIP3    H1 2859   2.421   5.339   0.695 -2.2485 -1.2405 -0.5696
  951TIP3    H2 2860   2.363   5.317   0.557  1.0431 -1.0664 -2.0727
  952TIP3   OH2 2861   5.161   3.700   1.028 -0.2963 -0.1597  0.1390
  952TIP3    H1 2862   5.153   3.792   1.054 -0.7493  0.0281 -0.6435
  952TIP3    H2 2863   5.080   3.682   0.980  0.9713 -0.1684 -2.1291
  953TIP3   OH2 2864   1.937   4.951   3.697 -0.0366  0.4450 -0.5106
  953TIP3    H1 2865   1.956   4.916   3.784 -0.4217 -0.8788 -0.9331
  953TIP3    H2 2866   1.842   4.945   3.689 -0.0447  0.9959 -0.8475
  954TIP3   OH2 2867   2.594   1.108   3.216  0.2475 -0.0089 -0.2144
  954TIP3    H1 2868   2.623   1.162   3.289  1.9502 -1.6727  0.4269
  954TIP3    H2 2869   2.666   1.046   3.202 -2.0690 -2.9779  0.0018
  955TIP3   OH2 2870   2.010   0.051   1.773 -0.6806  0.6558 -0.3698
  955TIP3    H1 2871   1.922   0.073   1.804  0.2168  1.0614  2.0825
  955TIP3    H2 2872   2.040   0.129   1.727  0.2455  2.6186  3.2108
  956TIP3   OH2 2873   3.076   3.950   2.498  0.2145  0.3530 -0.7433
  956TIP3    H1 2874   3.116   3.865   2.517  0.1302  0.5784  0.4662
  956TIP3    H2 2875   3.150   4.006   2.476  0.3465  0.1816 -0.7452
  957TIP3   OH2 2876   4.477   5.465   0.623  0.4318  0.2746 -0.0582
  957TIP3    H1 2877   4.459   5.385   0.672  1.5831  0.7704  1.2542
  957TIP3    H2 2878   4.447   5.447   0.534  2.5186 -2.3763 -0.3555
  958TIP3   OH2 2879   4.631   1.560   0.341  0.6011 -0.1209 -0.7155
  958TIP3    H1 2880   4.621   1.635   0.399  2.3245 -1.0976  0.9598
  958TIP3    H2 2881   4.549   1.511   0.351 -0.0664  0.8983 -0.9648
  959TIP3   OH2 2882   5.979   4.984   0.451  0.1807 -0.1285  0.1520
  959TIP3    H1 2883   5.935   4.924   0.391  0.8732 -1.3514  0.8181
  959TIP3    H2 2884   5.977   4.939   0.536 -0.4590  1.3936  0.9893
  960TIP3   OH2 2885   0.956   1.260   0.910 -0.1116 -0.2371  0.1100
  960TIP3    H1 2886   0.951   1.224   0.999 -0.2569  0.9315  0.5883
  960TIP3    H2 2887   0.867   1.289   0.891  0.0653  0.1386 -0.1526
  961TIP3   OH2 2888   0.645   4.521   2.775 -0.0095  0.4731  0.7654
  961TIP3    H1 2889   0.622   4.459   2.705 -1.9751  0.2187  1.5642
  961TIP3    H2 2890   0.738   4.536   2.764 -0.1711  0.1220 -1.6532
  962TIP3   OH2 2891   0.094   2.248   0.009 -0.0098  0.6367 -0.1381
  962TIP3    H1 2892   0.167   2.235   0.069  0.6905  0.8891 -0.9052
  962TIP3    H2 2893   0.016   2.226   0.060  0.5115  1.3344  1.0163
  963TIP3   OH2 2894   1.476   0.177   2.837 -0.1514 -0.2176  0.4204
  963TIP3    H1 2895   1.560   0.202   2.875  0.5407 -1.2447 -0.3519
  963TIP3    H2 2896   1.485   0.083   2.819 -0.0300  0.3227 -3.1392
  964TIP3   OH2 2897   3.384   5.153   1.602  0.2617 -0.1790  0.2961
  964TIP3    H1 2898   3.412   5.160   1.511 -0.0821 -0.9891  0.1144
  964TIP3    H2 2899   3.305   5.207   1.608  1.1534  1.1258  0.5080
  965TIP3   OH2 2900   1.878   4.774   1.638 -0.2588 -0.1199 -0.1808
  965TIP3    H1 2901   1.891   4.829   1.715 -2.9832 -2.2281  1.9776
  965TIP3    H2 2902   1.955   4.792   1.583  1.7345  1.6401  2.8566
  966TIP3   OH2 2903   3.916   1.574   4.536 -0.1667 -0.0275  0.6027
  966TIP3    H1 2904   3.829   1.612   4.553 -0.0840  1.0582 -1.1786
  966TIP3    H2 2905   3.966   1.594   4.615 -1.5575 -0.8500  1.7529
  967TIP3   OH2 2906   1.169   0.980   0.064  0.0919 -0.4772  0.9510
  967TIP3    H1 2907   1.109   0.966   0.138  0.5594  0.6859  1.5771
  967TIP3    H2 2908   1.111   1.005  -0.008 -0.3408 -1.2835  1.0032
  968TIP3   OH2 2909   5.338   2.696   4.805 -0.1432 -0.1137  0.1272
  968TIP3    H1 2910   5.286   2.763   4.851  0.3659 -0.8822  1.9061
  968TIP3    H2 2911   5.419   2.741   4.782 -0.3568  0.2534  0.0718
  969TIP3   OH2 2912   0.423   3.680   4.712 -0.4792 -0.1999 -0.4770
  969TIP3    H1 2913   0.388   3.592   4.725 -1.5077  0.1503 -0.7814
  969TIP3    H2 2914   0.458   3.704   4.798  2.2042 -1.8695 -0.9664
  970TIP3   OH2 2915   0.975   3.577   1.837 -0.0140 -0.5270 -0.0753
  970TIP3    H1 2916   1.056   3.541   1.801  0.8563  1.6334 -0.4352
  970TIP3    H2 2917   0.914   3.577   1.763 -0.2787 -1.8849  0.1202
  971TIP3   OH2 2918   6.335   1.506   2.434  0.2209  0.1702  0.2587
  971TIP3    H1 2919   6.407   1.513   2.372 -0.5973  0.6416 -0.6657
  971TIP3    H2 2920   6.261   1.473   2.382 -0.6165  1.0580  0.8466
  972TIP3   OH2 2921   4.080   1.927   4.336  0.2018 -0.6517  0.2198
  972TIP3    H1 2922   4.040   1.906   4.420  0.0499 -0.1900  0.2670
  972TIP3    H2 2923   4.173   1.938   4.356  0.5485 -2.7103 -0.0615
  973TIP3   OH2 2924   1.621   4.278   1.476 -0.0441 -0.4949  0.4223
  973TIP3    H1 2925   1.588   4.256   1.389  0.0012 -0.3609  0.3701
  973TIP3    H2 2926   1.716   4.288   1.464  0.0255 -0.9491  0.5863
  974TIP3   OH2 2927   4.002   2.210   5.025 -0.4524  0.1693  0.3620
  974TIP3    H1 2928   3.937   2.140   5.036 -0.0804 -0.0094  1.5703
  974TIP3    H2 2929   3.960   2.273   4.965 -0.6994 -1.1721 -0.9280
  975TIP3   OH2 2930   3.403   0.324   0.493 -0.2930 -0.0183 -0.1713
  975TIP3    H1 2931   3.425   0.234   0.471 -0.3168  0.5078 -2.6562
  975TIP3    H2 2932   3.317   0.338   0.454  0.6203  1.6595 -1.7351
  976TIP3   OH2 2933   3.092   5.020   3.183 -0.3299  0.0194  1.0960
  976TIP3    H1 2934   3.035   5.094   3.206 -0.0193  0.1351  1.5002
  976TIP3    H2 2935   3.173   5.036   3.231  0.3946  0.3260 -0.1681
  977TIP3   OH2 2936   6.133   1.879   2.407 -0.0574 -0.1499 -0.1617
  977TIP3    H1 2937   6.207   1.860   2.464  0.3428  0.8120 -0.3382
  977TIP3    H2 2938   6.121   1.974   2.415 -0.6938 -0.1705 -0.8292
  978TIP3   OH2 2939   4.756   5.767   3.812  0.2065 -0.1322 -0.2042
  978TIP3    H1 2940   4.791   5.765   3.901  1.3921  1.6554 -0.5855
  978TIP3    H2 2941   4.818   5.717   3.760 -0.6534 -1.4529 -0.0305
  979TIP3   OH2 2942   2.329   5.891   4.191 -0.8220 -0.2029 -0.2556
  979TIP3    H1 2943   2.297   5.900   4.281 -1.0359  0.2386 -0.3756
  979TIP3    H2 2944   2.404   5.832   4.198  0.3543  1.3207  0.4818
  980TIP3   OH2 2945   0.056   4.765   0.204 -0.4476  0.1288 -0.5400
  980TIP3    H1 2946   0.115   4.782   0.277 -1.3397 -0.0078  0.2211
  980TIP3    H2 2947  -0.032   4.778   0.240 -0.9716 -1.4382 -1.1813
  981TIP3   OH2 2948   3.740   3.259   2.205  0.2184  0.2240 -0.3010
  981TIP3    H1 2949   3.811   3.322   2.218 -0.1278  0.6714 -0.5210
  981TIP3    H2 2950   3.672   3.287   2.266  0.0732  0.0467 -0.3805
  982TIP3   OH2 2951   2.606   5.457   2.993 -0.5777 -0.0115  0.2102
  982TIP3    H1 2952   2.637   5.367   2.985 -0.6482 -0.2036  1.7834
  982TIP3    H2 2953   2.537   5.453   3.059  0.4545  1.4101  1.4551
  983TIP3   OH2 2954   5.221   4.732   3.380 -0.8152  0.5814  0.3123
  983TIP3    H1 2955   5.303   4.749   3.335 -1.4150  2.9292 -0.0398
  983TIP3    H2 2956   5.237   4.757   3.471 -0.4867 -1.2743  0.8073
  984TIP3   OH2 2957   1.230   3.642   2.774 -0.6708  0.0812 -0.0728
  984TIP3    H1 2958   1.136   3.651   2.758 -0.7873 -2.1302 -1.0275
  984TIP3    H2 2959   1.259   3.729   2.800 -3.0478  0.7291  0.6213
  985TIP3   OH2 2960   0.098   3.003   5.036 -0.3358 -0.0025 -0.7419
  985TIP3    H1 2961   0.016   3.050   5.025 -0.1965  0.9971  1.8191
  985TIP3    H2 2962   0.074   2.911   5.039 -1.6621  0.3543  1.7165
  986TIP3   OH2 2963   5.072   2.690   0.858  0.4697  0.2324 -0.0667
  986TIP3    H1 2964   5.078   2.631   0.782  0.3944 -0.1766  0.2392
  986TIP3    H2 2965   5.057   2.631   0.932 -1.9055  0.7538 -0.0405
  987TIP3   OH2 2966   1.497   5.150   2.287  0.4847 -0.5488  0.3624
  987TIP3    H1 2967   1.446   5.085   2.238  2.4200 -0.8282 -1.4558
  987TIP3    H2 2968   1.519   5.217   2.222  0.6560  0.6303  1.5995
  988TIP3   OH2 2969   0.359   0.118   4.946  0.1755 -0.2632  0.4680
  988TIP3    H1 2970   0.326   0.095   5.033  0.9457  0.9118  1.0945
  988TIP3    H2 2971   0.280   0.133   4.894 -0.3003 -1.7702  0.7282
  989TIP3   OH2 2972   3.158   1.641   2.513  0.0314 -0.0983  0.1846
  989TIP3    H1 2973   3.110   1.703   2.568 -0.0473  0.3310 -0.3499
  989TIP3    H2 2974   3.241   1.629   2.557  0.2112  0.7204  0.0904
  990TIP3   OH2 2975   4.883   1.510   3.741  0.2948  0.0771  0.5707
  990TIP3    H1 2976   4.807   1.480   3.791 -0.3448 -0.5281 -0.7094
  990TIP3    H2 2977   4.846   1.542   3.659  1.4207 -0.1806 -0.0534
  991TIP3   OH2 2978   0.748   4.145   4.077 -0.2456 -0.2007  0.3885
  991TIP3    H1 2979   0.678   4.166   4.015  1.3815  0.1129 -1.4888
  991TIP3    H2 2980   0.791   4.230   4.093  0.8948 -0.6587 -0.1071
  992TIP3   OH2 2981   0.505   1.760   3.389 -0.3461  0.4821 -0.0103
  992TIP3    H1 2982   0.466   1.792   3.471 -0.1244 -1.1194  0.7560
  992TIP3    H2 2983   0.468   1.817   3.321 -0.2765  2.0724  1.2193
  993TIP3   OH2 2984   3.739   3.422   0.858 -0.0845 -0.5967 -0.1647
  993TIP3    H1 2985   3.825   3.438   0.819 -0.4277  1.8124 -0.1040
  993TIP3    H2 2986   3.714   3.335   0.825  0.5865  0.3375 -3.5930
  994TIP3   OH2 2987   4.073   2.100   4.741  0.1665 -0.2955  0.5481
  994TIP3    H1 2988   4.046   2.172   4.798  0.6414 -1.1631  1.9394
  994TIP3    H2 2989   4.150   2.062   4.786  0.0050 -1.5699 -0.2081
  995TIP3   OH2 2990   1.094   5.290   4.988  0.0288  0.4220 -0.5342
  995TIP3    H1 2991   1.077   5.304   5.081  0.1912 -0.4959 -0.3524
  995TIP3    H2 2992   1.011   5.309   4.944  0.5031  2.9927 -0.4757
  996TIP3   OH2 2993   5.831   2.879   2.775  0.2312 -0.2706 -0.1287
  996TIP3    H1 2994   5.896   2.946   2.797 -2.2152  2.8856 -1.6961
  996TIP3    H2 2995   5.787   2.861   2.858  1.5158 -0.6471  0.4900
  997TIP3   OH2 2996   2.647   5.741   1.266 -0.5912  0.2340 -0.0419
  997TIP3    H1 2997   2.669   5.656   1.305  0.0488  0.6526  0.5365
  997TIP3    H2 2998   2.723   5.795   1.284 -1.8140  1.5514  1.4500
  998TIP3   OH2 2999   0.492   0.858   0.233  0.1580  0.1478  0.3149
  998TIP3    H1 3000   0.481   0.952   0.248  1.3618  0.2295  0.8464
  998TIP3    H2 3001   0.505   0.850   0.138  0.8684  0.6205  0.3684
  999TIP3   OH2 3002   1.919   5.837   0.181  0.4267 -0.4863 -0.0370
  999TIP3    H1 3003   1.931   5.875   0.094 -0.2288  1.4507  0.6730
  999TIP3    H2 3004   1.828   5.856   0.203  0.5103 -1.1853  0.9737
 1000TIP3   OH2 3005   0.596   4.829   5.082 -0.2864 -0.4039 -0.1134
 1000TIP3    H1 3006   0.567   4.740   5.106 -1.1736  0.3470  1.8140
 1000TIP3    H2 3007   0.603   4.826   4.986 -0.8221 -2.3966 -0.1508
 1001TIP3   OH2 3008   2.201   1.321   0.069 -0.1524 -0.1986  0.1058
 1001TIP3    H1 3009   2.113   1.298   0.037 -0.4569  0.4466  0.4405
 1001TIP3    H2 3010   2.250   1.240   0.065 -0.3177 -0.2632 -1.5297
 1002TIP3   OH2 3011   4.775   1.248   4.655 -0.0516  0.6593  0.4290
 1002TIP3    H1 3012   4.849   1.237   4.595  0.2483  0.2897  0.8525
 1002TIP3    H2 3013   4.744   1.158   4.670  1.8789  0.3387  3.2789
 1003TIP3   OH2 3014   2.199   0.312   3.346 -0.0910  0.3814 -0.5313
 1003TIP3    H1 3015   2.132   0.244   3.332 -0.5144  0.6486  0.1359
 1003TIP3    H2 3016   2.149   0.393   3.356  0.4376  0.9211 -1.9556
 1004TIP3   OH2 3017   0.349   5.156   3.095  0.2349  0.6389 -0.1171
 1004TIP3    H1 3018   0.407   5.080   3.102  1.0693  1.1912 -0.7465
 1004TIP3    H2 3019   0.407   5.231   3.112 -0.1055  1.2583 -1.5806
 1005TIP3   OH2 3020   3.434   2.860   1.012  0.5087  0.0266  0.0643
 1005TIP3    H1 3021   3.476   2.840   1.095 -1.3507 -0.3643  0.9792
 1005TIP3    H2 3022   3.448   2.954   0.999 -1.6718  0.7839  2.4055
 1006TIP3   OH2 3023   4.225   2.737   3.354 -0.0546  0.2221 -0.2936
 1006TIP3    H1 3024   4.205   2.800   3.423 -0.1380  1.7660 -1.6621
 1006TIP3    H2 3025   4.208   2.651   3.394  0.7011  0.9968  1.8309
 1007TIP3   OH2 3026   2.084   4.844   1.992  0.3639  0.3692  0.3823
 1007TIP3    H1 3027   2.006   4.857   2.047  0.0933 -1.1286  0.3954
 1007TIP3    H2 3028   2.104   4.931   1.958 -1.9296  0.6615 -0.4103
 1008TIP3   OH2 3029   6.079   0.446   1.369 -0.3214 -0.5122 -0.1273
 1008TIP3    H1 3030   6.049   0.527   1.412  0.6200 -0.0423 -0.3286
 1008TIP3    H2 3031   6.138   0.477   1.300  1.2198 -1.4493  0.7434
 1009TIP3   OH2 3032   4.733   4.362   3.011  0.1815  0.1763 -0.3066
 1009TIP3    H1 3033   4.675   4.297   2.971  1.5102 -0.4776 -1.2288
 1009TIP3    H2 3034   4.799   4.311   3.057 -0.0159  0.9131  0.8322
 1010TIP3   OH2 3035   2.333   1.879   4.972  0.2665  0.1575 -0.3693
 1010TIP3    H1 3036   2.311   1.818   5.042  0.3417  0.5747  0.0239
 1010TIP3    H2 3037   2.258   1.939   4.969 -0.0626 -0.2664 -1.1217
 1011TIP3   OH2 3038   1.489   2.628   2.800  0.0675  0.2416 -0.4141
 1011TIP3    H1 3039   1.564   2.573   2.778 -0.4906 -0.4026 -0.7077
 1011TIP3    H2 3040   1.528   2.706   2.839  0.8348 -0.8729  1.1623
 1012TIP3   OH2 3041   4.170   5.347   2.290 -0.5657  0.2031  0.2301
 1012TIP3    H1 3042   4.252   5.394   2.274 -0.2520 -0.4047  0.0194
 1012TIP3    H2 3043   4.197   5.268   2.336 -0.9312 -0.4469 -0.6577
 1013TIP3   OH2 3044   0.307   4.603   2.676  0.2735 -0.6294  0.2907
 1013TIP3    H1 3045   0.377   4.537   2.674  1.2023  0.3302 -0.4413
 1013TIP3    H2 3046   0.289   4.621   2.584  0.4965  0.5958  0.4739
 1014TIP3   OH2 3047   4.395   2.382   3.155 -0.0211 -0.5232  0.2473
 1014TIP3    H1 3048   4.402   2.386   3.060  1.0209  0.0185  0.3343
 1014TIP3    H2 3049   4.415   2.471   3.185 -1.7723 -0.3050  0.9060
 1015TIP3   OH2 3050   5.537   3.716   1.083  0.2907 -0.0431 -0.6348
 1015TIP3    H1 3051   5.501   3.737   1.169  1.3531  1.3707 -0.4834
 1015TIP3    H2 3052   5.489   3.639   1.054 -0.6357 -0.0683  0.8788
 1016TIP3   OH2 3053   4.726   3.655   2.294 -0.5479 -0.1370 -0.5653
 1016TIP3    H1 3054   4.701   3.564   2.309 -0.3674 -0.1425 -0.2969
 1016TIP3    H2 3055   4.821   3.652   2.281  0.0763  0.4097  2.9500
 1017TIP3   OH2 3056   6.069   5.675   3.398  0.1138  0.2547 -0.0714
 1017TIP3    H1 3057   6.161   5.702   3.395  0.1475  0.0994 -2.2390
 1017TIP3    H2 3058   6.027   5.728   3.330 -1.4551  0.4476  1.0042
 1018TIP3   OH2 3059   2.674   3.863   0.363 -0.4927  0.5087 -0.2255
 1018TIP3    H1 3060   2.747   3.881   0.422 -0.1828 -0.7674 -0.1846
 1018TIP3    H2 3061   2.714   3.854   0.277 -0.4727 -0.9169 -0.0932
 1019TIP3   OH2 3062   5.669   2.272   3.212 -0.5957  0.0190 -0.0345
 1019TIP3    H1 3063   5.707   2.238   3.132 -3.1064  1.1044 -1.8098
 1019TIP3    H2 3064   5.639   2.194   3.259  0.3063 -0.5876 -0.4315
 1020TIP3   OH2 3065   3.171   5.668   1.083 -0.0455 -0.1728 -0.2840
 1020TIP3    H1 3066   3.168   5.678   0.987 -0.2182  0.0237 -0.2590
 1020TIP3    H2 3067   3.144   5.578   1.098 -3.0513  0.6321 -0.2623
 1021TIP3   OH2 3068   2.497   2.084   0.326  0.5670 -0.4308  0.5440
 1021TIP3    H1 3069   2.574   2.061   0.273  0.1431 -0.2782 -0.1617
 1021TIP3    H2 3070   2.514   2.174   0.355  0.3826 -0.1717 -0.1312
 1022TIP3   OH2 3071   1.660   0.236   3.411 -0.4884  0.1148  0.0287
 1022TIP3    H1 3072   1.671   0.324   3.374 -0.0338  0.2574  0.4967
 1022TIP3    H2 3073   1.575   0.240   3.456 -0.3721  0.3812  0.2296
 1023TIP3   OH2 3074   6.168   0.734   4.410  0.2101 -0.3861 -0.8302
 1023TIP3    H1 3075   6.247   0.737   4.464  0.8238 -0.6837 -1.6953
 1023TIP3    H2 3076   6.116   0.663   4.448  1.7129 -2.2371 -2.0304
 1024TIP3   OH2 3077   5.438   2.955   0.001 -0.5376  0.2010  0.3236
 1024TIP3    H1 3078   5.514   2.905  -0.031 -2.0273  0.2286 -3.8461
 1024TIP3    H2 3079   5.382   2.890   0.042  0.0330 -0.5308 -0.0269
 1025TIP3   OH2 3080   3.175   1.726   1.071  0.3569 -0.0645 -0.2328
 1025TIP3    H1 3081   3.240   1.730   1.141 -0.0467 -1.1682  0.2252
 1025TIP3    H2 3082   3.091   1.731   1.117  0.0848  1.5143 -0.8279
 1026TIP3   OH2 3083   4.935   5.796   4.522 -0.2957 -0.1357 -0.2825
 1026TIP3    H1 3084   4.998   5.756   4.462 -1.1580 -2.5786  0.3153
 1026TIP3    H2 3085   4.852   5.796   4.474 -0.2238  1.5239 -0.4599
 1027TIP3   OH2 3086   0.746   5.462   2.209  0.4303  0.5619  0.2975
 1027TIP3    H1 3087   0.803   5.391   2.178 -0.7604 -0.3529  0.1498
 1027TIP3    H2 3088   0.716   5.434   2.295 -0.7943  0.4249 -0.1507
 1028TIP3   OH2 3089   2.782   1.930   3.596  0.2044 -0.3022 -0.1044
 1028TIP3    H1 3090   2.778   2.020   3.629  1.5101 -0.0211 -0.6403
 1028TIP3    H2 3091   2.853   1.931   3.531 -0.9200 -1.3218 -1.4020
 1029TIP3   OH2 3092   3.999   2.256   0.143 -0.7817  0.3018  0.0059
 1029TIP3    H1 3093   3.903   2.257   0.147 -0.8311 -1.8530  1.9761
 1029TIP3    H2 3094   4.020   2.175   0.097  0.0588  0.2209  0.5112
 1030TIP3   OH2 3095   2.894   3.663   4.537  0.1115  0.2866 -0.1083
 1030TIP3    H1 3096   2.946   3.734   4.574 -0.9211  0.4874  1.0405
 1030TIP3    H2 3097   2.893   3.681   4.443  1.6388  0.5688 -0.0943
 1031TIP3   OH2 3098   1.368   4.737   1.837 -0.2246  0.0225  0.5426
 1031TIP3    H1 3099   1.444   4.710   1.888 -0.6836 -1.3420  0.5260
 1031TIP3    H2 3100   1.372   4.685   1.757  0.4242  2.0536 -0.8242
 1032TIP3   OH2 3101   5.854   4.726   1.271 -0.2444  0.0653  0.3242
 1032TIP3    H1 3102   5.908   4.771   1.206 -0.7250  0.3860  0.1448
 1032TIP3    H2 3103   5.830   4.643   1.230  0.0433 -0.0478  0.3767
 1033TIP3   OH2 3104   5.696   3.075   1.290  0.1346 -0.3313 -0.3538
 1033TIP3    H1 3105   5.701   3.165   1.321  0.4234 -0.1282 -0.9790
 1033TIP3    H2 3106   5.696   3.082   1.195  0.0393 -0.9882 -0.4083
 1034TIP3   OH2 3107   1.481   2.867   1.109 -0.2414 -0.4179 -0.1815
 1034TIP3    H1 3108   1.441   2.954   1.111  0.6937  0.0238 -0.6177
 1034TIP3    H2 3109   1.432   2.817   1.175  0.3961  0.9584  1.3884
 1035TIP3   OH2 3110   5.249   2.296   0.462  0.1678  0.1493 -0.4567
 1035TIP3    H1 3111   5.313   2.249   0.515 -0.5306  1.6732  1.9268
 1035TIP3    H2 3112   5.300   2.333   0.390  1.2203 -1.8215 -0.7803
 1036TIP3   OH2 3113   5.378   2.255   1.234  0.6317 -0.5327  0.5165
 1036TIP3    H1 3114   5.365   2.340   1.191  2.2868 -0.5082 -0.0211
 1036TIP3    H2 3115   5.439   2.208   1.177  0.7545 -1.5753  1.4685
 1037TIP3   OH2 3116   3.630   1.730   4.754 -0.0720  0.1135 -0.8460
 1037TIP3    H1 3117   3.549   1.681   4.740 -0.0062  0.4334 -2.5158
 1037TIP3    H2 3118   3.655   1.762   4.667  0.1541  2.7282  0.0978
 1038TIP3   OH2 3119   5.434   5.018   3.944 -0.0978  0.0449 -0.4677
 1038TIP3    H1 3120   5.377   5.081   3.900  0.0934  0.6761  0.1857
 1038TIP3    H2 3121   5.463   5.062   4.023  0.4781 -0.6617 -0.2745
 1039TIP3   OH2 3122   4.445   5.793   1.463 -0.0225 -0.2222  0.5327
 1039TIP3    H1 3123   4.396   5.741   1.527 -0.8683 -0.1465 -0.0470
 1039TIP3    H2 3124   4.429   5.884   1.489 -0.7797 -0.1731 -0.0688
 1040TIP3   OH2 3125   3.660   5.494   1.588 -0.4531  0.1576  0.2741
 1040TIP3    H1 3126   3.614   5.501   1.504 -1.6400  1.6446  1.0052
 1040TIP3    H2 3127   3.683   5.402   1.595 -0.2601  0.0109 -1.7080
 1041TIP3   OH2 3128   4.299   1.043   3.644 -0.4339  0.4665  0.3386
 1041TIP3    H1 3129   4.240   1.065   3.716 -1.0169 -2.1285  0.7578
 1041TIP3    H2 3130   4.266   1.094   3.569 -2.4293  0.0637  0.8877
 1042TIP3   OH2 3131   3.753   4.472   1.881 -0.1626 -0.1727 -0.5508
 1042TIP3    H1 3132   3.817   4.477   1.953 -0.6340 -1.2231 -0.0290
 1042TIP3    H2 3133   3.779   4.394   1.832 -0.6827 -0.2594 -0.6928
 1043TIP3   OH2 3134   4.609   3.616   2.013 -0.0342 -0.6711  0.4128
 1043TIP3    H1 3135   4.629   3.632   2.105 -0.1206  1.6063  0.1047
 1043TIP3    H2 3136   4.517   3.590   2.012 -0.2142 -0.0675  0.9317
 1044TIP3   OH2 3137   5.099   5.980   1.718  0.2242 -0.2604  0.1599
 1044TIP3    H1 3138   5.134   6.028   1.643 -1.1693  1.1159  0.3264
 1044TIP3    H2 3139   5.056   5.904   1.680 -2.7567  1.7264 -0.8566
 1045TIP3   OH2 3140   1.190   1.182   4.367  0.0471 -0.1306 -0.1523
 1045TIP3    H1 3141   1.242   1.250   4.323  0.6785 -0.2730  0.3535
 1045TIP3    H2 3142   1.114   1.228   4.401  1.2965  0.6925  1.6669
 1046TIP3   OH2 3143   0.069   3.369   1.758 -0.6131  0.1408 -0.3555
 1046TIP3    H1 3144   0.100   3.289   1.800 -1.2620  0.7207  1.3372
 1046TIP3    H2 3145   0.001   3.340   1.698 -0.1000 -0.6792 -0.5448
 1047TIP3   OH2 3146   5.623   0.175   2.386 -0.5838 -0.0126  0.0328
 1047TIP3    H1 3147   5.701   0.172   2.441 -2.0970 -0.1838  2.3375
 1047TIP3    H2 3148   5.617   0.266   2.357 -0.3874  0.4030  1.2196
 1048TIP3   OH2 3149   5.717   3.767   4.114  0.0859 -0.1379  0.3255
 1048TIP3    H1 3150   5.686   3.829   4.047 -2.3228 -1.1034  0.4440
 1048TIP3    H2 3151   5.776   3.709   4.066 -0.1738  0.2828 -0.5422
 1049TIP3   OH2 3152   5.958   3.744   5.073 -0.4343  0.3137  0.1305
 1049TIP3    H1 3153   6.050   3.727   5.089 -0.6646  0.6376  1.9805
 1049TIP3    H2 3154   5.956   3.833   5.038 -0.1656  1.0613  1.9334
 1050TIP3   OH2 3155   0.545   2.406   4.741  0.2205 -0.3299 -0.2189
 1050TIP3    H1 3156   0.533   2.413   4.836  1.4757 -0.2774 -0.0526
 1050TIP3    H2 3157   0.604   2.331   4.730  0.5011 -0.0082 -0.9249
 1051TIP3   OH2 3158   2.763   2.240   1.065 -0.4480  0.4321 -0.3356
 1051TIP3    H1 3159   2.744   2.258   0.973  2.5951 -0.7175 -1.3056
 1051TIP3    H2 3160   2.740   2.320   1.111 -1.3018  1.3079 -2.2055
 1052TIP3   OH2 3161   1.511   3.321   4.451  0.6648 -0.3200  0.7079
 1052TIP3    H1 3162   1.589   3.269   4.472  2.1770  0.7205 -1.8593
 1052TIP3    H2 3163   1.440   3.257   4.447  2.1597 -1.9859 -0.8044
 1053TIP3   OH2 3164   5.406   0.596   1.044  0.4202 -0.2935  0.2607
 1053TIP3    H1 3165   5.386   0.675   1.094  0.4702  0.7014 -1.2346
 1053TIP3    H2 3166   5.467   0.625   0.977 -1.0657 -1.1564 -1.5475
 1054TIP3   OH2 3167   3.985   2.195   0.850 -0.5749 -0.0898 -0.7115
 1054TIP3    H1 3168   4.040   2.213   0.773  0.3227  2.4721  0.4092
 1054TIP3    H2 3169   4.047   2.197   0.924 -2.0025  2.4614  0.5546
 1055TIP3   OH2 3170   6.025   1.666   2.282 -0.2783  0.4632 -0.5707
 1055TIP3    H1 3171   5.990   1.596   2.338  0.3881  0.8074  0.3088
 1055TIP3    H2 3172   6.072   1.724   2.343 -0.2028  1.2801 -1.3890
 1056TIP3   OH2 3173   3.320   3.709   4.090 -0.2386  0.1074  0.0499
 1056TIP3    H1 3174   3.319   3.641   4.158 -1.3802  0.3304  0.2604
 1056TIP3    H2 3175   3.331   3.791   4.138  1.4604  0.0931 -0.2250
 1057TIP3   OH2 3176   4.267   0.420   2.566  0.2044  0.5535 -0.4861
 1057TIP3    H1 3177   4.297   0.391   2.653  0.2988 -1.0244 -1.0164
 1057TIP3    H2 3178   4.284   0.514   2.565  1.4335  0.3705  0.7062
 1058TIP3   OH2 3179   5.930   2.889   0.660 -0.3650  0.1484 -0.3160
 1058TIP3    H1 3180   5.839   2.864   0.644 -0.1466 -1.3127  0.5484
 1058TIP3    H2 3181   5.945   2.964   0.603 -1.8115 -0.2102 -1.2102
 1059TIP3   OH2 3182   0.907   5.604   0.166  0.8723 -0.0433 -0.0549
 1059TIP3    H1 3183   0.884   5.524   0.214 -0.5229  0.5871  0.3803
 1059TIP3    H2 3184   0.990   5.583   0.123 -0.3573 -2.3968 -1.5124
 1060TIP3   OH2 3185   5.430   4.844   4.293  0.5452  0.0442  0.0412
 1060TIP3    H1 3186   5.505   4.784   4.286  1.2688  0.6414  1.9937
 1060TIP3    H2 3187   5.365   4.795   4.342 -0.2366 -0.3295 -1.3173
 1061TIP3   OH2 3188   5.403   4.422   0.795  0.2135  0.2746  0.3881
 1061TIP3    H1 3189   5.340   4.492   0.783  0.3135  0.2614 -0.2638
 1061TIP3    H2 3190   5.411   4.412   0.889  0.9017  1.7831  0.5196
 1062TIP3   OH2 3191   2.259   2.917   1.838  0.5230  0.4906 -0.0440
 1062TIP3    H1 3192   2.286   2.826   1.848 -0.8328  0.0118 -0.5436
 1062TIP3    H2 3193   2.187   2.927   1.900  0.3601  1.0956 -0.3322
 1063TIP3   OH2 3194   5.414   3.837   4.821 -0.1295 -0.0837 -0.0237
 1063TIP3    H1 3195   5.369   3.913   4.782 -0.3459  0.7163  1.6934
 1063TIP3    H2 3196   5.504   3.868   4.834 -0.0008 -0.4258 -0.1078
 1064TIP3   OH2 3197   2.906   3.184   4.739 -0.2594 -0.1281 -1.0935
 1064TIP3    H1 3198   2.810   3.188   4.743 -0.3395  3.3549 -2.9805
 1064TIP3    H2 3199   2.924   3.118   4.671 -1.2710 -1.0221 -0.5292
 1065TIP3   OH2 3200   4.877   3.004   4.066 -0.0041  0.2470  0.0797
 1065TIP3    H1 3201   4.943   3.011   3.997  0.4042 -0.5844  0.3776
 1065TIP3    H2 3202   4.814   2.939   4.032  0.9973 -1.3229  1.0943
 1066TIP3   OH2 3203   4.725   4.328   2.685  0.0175  0.0317 -0.5354
 1066TIP3    H1 3204   4.709   4.244   2.642 -1.0499  0.4325 -0.9580
 1066TIP3    H2 3205   4.638   4.366   2.698  0.4532  0.8915  0.0265
 1067TIP3   OH2 3206   5.616   3.433   0.965  0.0208  0.1179  0.0133
 1067TIP3    H1 3207   5.597   3.454   0.873  0.0169 -0.4247 -0.1170
 1067TIP3    H2 3208   5.700   3.475   0.982  1.3790 -1.9595 -1.0651
 1068TIP3   OH2 3209   2.424   3.953   2.776 -0.6094 -0.1970  0.3955
 1068TIP3    H1 3210   2.440   3.941   2.870 -0.5213  0.3409  0.4497
 1068TIP3    H2 3211   2.501   4.001   2.745 -0.2674 -1.0340 -0.1044
 1069TIP3   OH2 3212   2.381   5.841   2.412 -0.1094  0.0019  0.4411
 1069TIP3    H1 3213   2.422   5.919   2.449 -1.0451  0.1569  1.2004
 1069TIP3    H2 3214   2.452   5.776   2.409  0.3152  0.4055  1.2837
 1070TIP3   OH2 3215   4.415   1.135   4.384  0.6315  0.3742 -0.8397
 1070TIP3    H1 3216   4.460   1.069   4.331  1.9866  0.9968 -0.5190
 1070TIP3    H2 3217   4.322   1.118   4.369  0.9576 -0.2536 -2.4317
 1071TIP3   OH2 3218   5.769   4.340   1.390  0.5527  0.0129 -0.0121
 1071TIP3    H1 3219   5.691   4.380   1.428 -0.2245 -2.3026  0.9716
 1071TIP3    H2 3220   5.776   4.380   1.303 -0.6297  1.6029  0.5723
 1072TIP3   OH2 3221   4.667   4.252   1.037 -0.2289  0.2230  0.2547
 1072TIP3    H1 3222   4.688   4.343   1.058  2.8532 -0.0454 -1.0960
 1072TIP3    H2 3223   4.749   4.204   1.052 -1.0710 -1.8883 -1.3004
 1073TIP3   OH2 3224   2.951   2.174   4.737 -0.2194  0.0772 -0.1429
 1073TIP3    H1 3225   2.901   2.099   4.769  0.9006 -0.0189  1.5558
 1073TIP3    H2 3226   2.917   2.190   4.649 -0.1002 -2.7789 -0.8257
 1074TIP3   OH2 3227   3.073   2.989   1.850 -0.0398  0.0593 -0.0756
 1074TIP3    H1 3228   3.154   2.939   1.835  0.4391  1.0710 -0.9834
 1074TIP3    H2 3229   3.102   3.079   1.863 -0.9747  0.3013  0.4128
 1075TIP3   OH2 3230   2.976   0.401   0.254  0.1772  0.1517 -1.1578
 1075TIP3    H1 3231   2.949   0.491   0.271  0.0790 -0.3139  1.8012
 1075TIP3    H2 3232   3.069   0.407   0.231  0.4053  0.9719 -0.0870
 1076TIP3   OH2 3233   5.584   0.384   0.664  0.3518 -0.2239 -0.1117
 1076TIP3    H1 3234   5.500   0.347   0.691 -0.1805  0.8190 -0.3081
 1076TIP3    H2 3235   5.574   0.403   0.571  0.9827 -0.5574 -0.2542
 1077TIP3   OH2 3236   4.054   3.555   1.693 -0.1127 -0.6017  0.1135
 1077TIP3    H1 3237   4.015   3.563   1.606  0.9478 -0.9892 -0.4194
 1077TIP3    H2 3238   4.059   3.644   1.726 -2.1469 -0.6120  0.5290
 1078TIP3   OH2 3239   6.248   2.705   4.789  0.1544 -0.4396  0.0884
 1078TIP3    H1 3240   6.286   2.780   4.743 -1.3529  0.7149  0.6570
 1078TIP3    H2 3241   6.202   2.656   4.721 -0.4079  0.1726  0.0264
 1079TIP3   OH2 3242   0.898   1.030   3.304  0.0732 -0.1088  0.0163
 1079TIP3    H1 3243   0.974   1.039   3.248 -1.1270 -2.3860 -2.1577
 1079TIP3    H2 3244   0.831   1.085   3.262 -0.6845 -1.4335 -0.5612
 1080TIP3   OH2 3245   0.924   2.514   4.208  0.5194 -1.0249 -0.2505
 1080TIP3    H1 3246   0.965   2.569   4.141  0.2101  0.4954  0.7438
 1080TIP3    H2 3247   0.994   2.457   4.239  1.0923 -0.5887 -0.7309
 1081TIP3   OH2 3248   5.799   2.992   1.735  0.9445  0.5125 -0.5469
 1081TIP3    H1 3249   5.782   2.902   1.765 -0.4764  1.0349  0.3632
 1081TIP3    H2 3250   5.712   3.032   1.732  1.7051  2.5176  1.3087
 1082TIP3   OH2 3251   0.559   0.922   4.113  0.2741 -0.3378  0.2707
 1082TIP3    H1 3252   0.626   0.978   4.152 -1.1910  2.3055 -0.7603
 1082TIP3    H2 3253   0.514   0.883   4.188  0.3441  1.1530  1.1349
 1083TIP3   OH2 3254   5.935   2.621   2.648 -0.1794  0.2538  0.1951
 1083TIP3    H1 3255   5.945   2.611   2.743 -0.3828  2.6121  0.5150
 1083TIP3    H2 3256   5.940   2.715   2.633 -2.4977  0.1354 -1.8671
 1084TIP3   OH2 3257   2.019   1.524   4.007 -0.0104  0.0294  0.0195
 1084TIP3    H1 3258   2.096   1.468   3.999  1.2493  1.5903  0.6812
 1084TIP3    H2 3259   2.015   1.571   3.924 -0.4460 -0.2453 -0.1237
 1085TIP3   OH2 3260   5.194   0.283   3.203 -0.1278  0.2416  0.6406
 1085TIP3    H1 3261   5.165   0.198   3.236 -1.1583 -1.2413 -3.5664
 1085TIP3    H2 3262   5.282   0.266   3.168 -0.4989  0.7459 -0.5902
 1086TIP3   OH2 3263   5.095   1.095   4.267 -0.2247 -0.0908 -0.2711
 1086TIP3    H1 3264   5.169   1.035   4.265  0.0553  0.2607 -0.7405
 1086TIP3    H2 3265   5.021   1.043   4.237  0.3436  0.2123 -2.3608
 1087TIP3   OH2 3266   2.321   5.616   4.941 -0.6266 -0.5435 -0.0601
 1087TIP3    H1 3267   2.326   5.678   5.013 -0.9734 -0.9064  0.2805
 1087TIP3    H2 3268   2.232   5.625   4.907 -0.3716 -0.1460 -0.6557
 1088TIP3   OH2 3269   6.089   2.338   1.837  0.5445 -0.4636 -0.7038
 1088TIP3    H1 3270   6.181   2.365   1.838  0.1443  1.1425 -2.2380
 1088TIP3    H2 3271   6.052   2.372   1.918  1.6664 -2.8346  0.9432
 1089TIP3   OH2 3272   2.322   4.429   3.099 -0.8105  0.0625  0.5079
 1089TIP3    H1 3273   2.327   4.337   3.075 -0.4753  0.1378  0.2727
 1089TIP3    H2 3274   2.348   4.476   3.020 -1.2362  0.3697  0.5439
 1090TIP3   OH2 3275   4.387   1.235   4.646 -0.4280  0.7307  0.3779
 1090TIP3    H1 3276   4.433   1.217   4.563  2.0378  0.0124  1.7832
 1090TIP3    H2 3277   4.302   1.269   4.619  0.2838  0.5730 -2.4480
 1091TIP3   OH2 3278   1.658   1.391   3.747 -0.3851  0.1233  0.3038
 1091TIP3    H1 3279   1.680   1.455   3.815 -0.0803 -0.5274  0.8294
 1091TIP3    H2 3280   1.562   1.389   3.746 -0.3974  0.6171  0.2519
 1092TIP3   OH2 3281   2.257   2.379   1.295  0.1625 -0.1039  0.1678
 1092TIP3    H1 3282   2.237   2.452   1.236 -1.0592 -0.7685 -0.2740
 1092TIP3    H2 3283   2.336   2.407   1.340  1.9414 -0.0862 -2.6917
 1093TIP3   OH2 3284   3.554   1.049   4.457 -0.3814 -0.1824  0.0751
 1093TIP3    H1 3285   3.467   1.027   4.422 -0.7655  1.7350 -0.3081
 1093TIP3    H2 3286   3.594   1.104   4.390  1.7295 -2.0790 -0.3467
 1094TIP3   OH2 3287   6.032   3.584   2.787  0.2114  0.5496  0.5804
 1094TIP3    H1 3288   6.102   3.564   2.724 -0.2237 -1.3322  0.6189
 1094TIP3    H2 3289   5.975   3.646   2.741 -0.4471 -1.2518 -1.2103
 1095TIP3   OH2 3290   3.440   4.819   5.047  0.6137  0.5545 -0.4799
 1095TIP3    H1 3291   3.360   4.860   5.079  1.2144  1.8314 -0.5278
 1095TIP3    H2 3292   3.416   4.781   4.963  0.0839  1.0394 -0.5514
 1096TIP3   OH2 3293   2.654   2.269   1.556  0.0887 -0.0796  0.0285
 1096TIP3    H1 3294   2.733   2.299   1.512 -0.0931 -1.7574 -1.5815
 1096TIP3    H2 3295   2.671   2.284   1.649  1.5742  1.1788 -0.4116
 1097TIP3   OH2 3296   3.563   2.073   1.578  0.7247 -0.0741 -0.1935
 1097TIP3    H1 3297   3.530   2.129   1.507 -0.8005 -0.9398 -0.2000
 1097TIP3    H2 3298   3.487   2.058   1.634  2.4214  2.8949  3.3217
 1098TIP3   OH2 3299   5.283   1.033   3.575 -0.8137  0.2944  0.1308
 1098TIP3    H1 3300   5.290   1.094   3.649 -2.6696 -0.4646  1.0196
 1098TIP3    H2 3301   5.326   1.077   3.502  0.1709  1.5179  1.4041
 1099TIP3   OH2 3302   2.767   5.546   5.060 -0.2258  0.5122  0.3003
 1099TIP3    H1 3303   2.724   5.466   5.028 -0.1633  0.4599  0.3461
 1099TIP3    H2 3304   2.841   5.514   5.112 -0.1270  0.6015  0.2161
 1100TIP3   OH2 3305   3.454   0.994   3.504  0.0639  0.6876  0.5624
 1100TIP3    H1 3306   3.459   1.014   3.411  1.4102  2.1061  0.8852
 1100TIP3    H2 3307   3.430   0.902   3.508  0.9869  0.3247 -1.2056
 1101TIP3   OH2 3308   5.011   3.282   5.137  0.1750 -0.3034  0.3196
 1101TIP3    H1 3309   5.079   3.280   5.069  0.3261 -0.2009  0.4667
 1101TIP3    H2 3310   5.008   3.192   5.170  0.3041 -0.2855  0.3780
 1102TIP3   OH2 3311   1.359   0.076   3.684 -0.4134  0.2666  0.0795
 1102TIP3    H1 3312   1.384   0.168   3.674 -0.3733  0.2976  0.4641
 1102TIP3    H2 3313   1.393   0.051   3.770 -1.0832  0.1082  0.3033
 1103TIP3   OH2 3314   2.206   3.522   3.878  0.0704 -0.1553 -0.6618
 1103TIP3    H1 3315   2.240   3.549   3.963 -0.5091 -0.1215 -0.4384
 1103TIP3    H2 3316   2.238   3.433   3.866 -2.4514 -1.3878  1.0401
 1104TIP3   OH2 3317   6.165   1.038   0.479  0.3492 -0.4244 -0.1576
 1104TIP3    H1 3318   6.213   0.973   0.428  1.1384 -0.3972  0.5249
 1104TIP3    H2 3319   6.209   1.039   0.564 -0.6226 -0.1098  0.3595
 1105TIP3   OH2 3320   0.015   3.640   0.074 -0.0317  0.1773  0.5657
 1105TIP3    H1 3321   0.097   3.628   0.121  0.0279 -1.1762  0.1717
 1105TIP3    H2 3322   0.026   3.589  -0.006 -0.9246  0.7125  0.0864
 1106TIP3   OH2 3323   2.315   0.691   2.036 -0.1577 -0.4686 -0.6054
 1106TIP3    H1 3324   2.359   0.623   2.087 -0.1401  0.9006  1.3121
 1106TIP3    H2 3325   2.368   0.770   2.050 -2.4739  0.9656  0.8431
 1107TIP3   OH2 3326   6.122   5.732   1.478  0.4694  0.4039 -0.1043
 1107TIP3    H1 3327   6.201   5.785   1.488 -0.1981  1.5887 -0.9593
 1107TIP3    H2 3328   6.073   5.773   1.407 -2.2163  1.3780  2.0950
 1108TIP3   OH2 3329   3.327   4.343   2.635  0.0016 -0.5479 -0.0399
 1108TIP3    H1 3330   3.386   4.280   2.593 -0.2518 -1.0734  0.3742
 1108TIP3    H2 3331   3.287   4.294   2.707 -1.7232 -0.5117 -0.9357
 1109TIP3   OH2 3332   3.172   2.163   4.911 -0.2000 -0.4659 -0.0694
 1109TIP3    H1 3333   3.172   2.069   4.896 -0.1870 -0.1642 -2.4345
 1109TIP3    H2 3334   3.090   2.194   4.871  0.4490  0.6510 -0.6067
 1110TIP3   OH2 3335   0.668   1.917   4.689  0.4426  0.8464  0.1144
 1110TIP3    H1 3336   0.731   1.894   4.621  0.7724  0.2355  0.6075
 1110TIP3    H2 3337   0.609   1.981   4.648  0.6028  0.4521 -0.7502
 1111TIP3   OH2 3338   1.959   4.876   0.923 -0.4814 -0.5716 -0.9720
 1111TIP3    H1 3339   1.995   4.788   0.922 -0.0995 -0.4082 -1.7715
 1111TIP3    H2 3340   1.971   4.906   1.014 -1.4107 -1.6555 -0.4735
 1112TIP3   OH2 3341   3.836   4.459   3.801 -0.0540 -0.0869 -0.1027
 1112TIP3    H1 3342   3.905   4.398   3.827 -0.5489 -0.3682  0.5573
 1112TIP3    H2 3343   3.860   4.541   3.845 -0.8003 -0.5169  1.1489
 1113TIP3   OH2 3344   6.217   0.111   3.078  0.2452  0.0460  0.3964
 1113TIP3    H1 3345   6.276   0.172   3.123 -2.1575  0.9267  2.6246
 1113TIP3    H2 3346   6.166   0.167   3.019 -1.4318  0.1891  1.8803
 1114TIP3   OH2 3347   4.708   4.738   0.043  0.0059 -0.1687 -0.1622
 1114TIP3    H1 3348   4.698   4.825   0.083 -0.0319  0.8626 -2.3105
 1114TIP3    H2 3349   4.754   4.687   0.110  0.8475  1.7544  0.8146
 1115TIP3   OH2 3350   5.703   5.939   3.927  0.1434 -0.2405  0.4190
 1115TIP3    H1 3351   5.776   5.889   3.962 -0.5903 -1.7904 -0.1538
 1115TIP3    H2 3352   5.626   5.902   3.970 -0.3506  1.0462  0.6703
 1116TIP3   OH2 3353   5.550   3.789   0.710  0.3025 -0.0008  0.2252
 1116TIP3    H1 3354   5.588   3.861   0.761  1.2744 -0.5055  0.2411
 1116TIP3    H2 3355   5.539   3.825   0.622  0.1759  0.3607  0.3856
 1117TIP3   OH2 3356   1.685   4.963   1.403  0.1525  0.7802  0.2152
 1117TIP3    H1 3357   1.628   5.039   1.408 -1.0711  0.0445 -1.4427
 1117TIP3    H2 3358   1.711   4.946   1.493 -2.4187  1.0405  1.0730
 1118TIP3   OH2 3359   3.642   5.779   3.416  0.0015  0.0886 -0.7683
 1118TIP3    H1 3360   3.710   5.813   3.475  0.9634 -0.6323 -1.4256
 1118TIP3    H2 3361   3.687   5.711   3.366 -0.6228  1.0546 -2.7288
 1119TIP3   OH2 3362   4.839   0.280   4.877  0.0241 -0.0597  0.8313
 1119TIP3    H1 3363   4.865   0.246   4.792  2.7123  0.5890  1.2828
 1119TIP3    H2 3364   4.748   0.309   4.866  0.0958 -0.5941 -1.5943
 1120TIP3   OH2 3365   4.126   3.440   2.711 -0.6077  0.6322 -0.2667
 1120TIP3    H1 3366   4.063   3.448   2.640 -0.3093  1.1755 -0.4790
 1120TIP3    H2 3367   4.112   3.352   2.747 -0.5585  0.2353 -1.1924
 1121TIP3   OH2 3368   3.342   3.832   1.323 -0.3991  0.4612 -0.6447
 1121TIP3    H1 3369   3.412   3.773   1.296 -0.7043 -0.5889  0.7561
 1121TIP3    H2 3370   3.261   3.782   1.312 -0.8788  1.3724 -1.4520
 1122TIP3   OH2 3371   5.517   1.121   2.574  0.5897  0.3204 -0.0574
 1122TIP3    H1 3372   5.468   1.200   2.555 -1.3377 -1.1459 -1.5286
 1122TIP3    H2 3373   5.494   1.100   2.665 -1.0752  0.0095 -0.5183
 1123TIP3   OH2 3374   4.265   5.749   3.859 -0.6031  0.7185 -0.1192
 1123TIP3    H1 3375   4.289   5.739   3.767  0.9945  1.1391  0.2200
 1123TIP3    H2 3376   4.339   5.712   3.907 -1.4515  0.4417  1.0034
 1124TIP3   OH2 3377   3.934   3.752   5.141 -0.3326  0.5699  0.0021
 1124TIP3    H1 3378   3.874   3.741   5.068 -0.7347 -0.7514  0.5092
 1124TIP3    H2 3379   4.021   3.748   5.102 -0.5411  1.1148 -0.5475
 1125TIP3   OH2 3380   1.533   5.541   0.501  0.0210  0.3583 -0.2551
 1125TIP3    H1 3381   1.612   5.488   0.506  0.0696  0.5154  0.8199
 1125TIP3    H2 3382   1.559   5.621   0.456  0.7232  0.8332  0.9603
 1126TIP3   OH2 3383   1.151   1.447   1.650 -0.1237  0.5901 -0.1291
 1126TIP3    H1 3384   1.175   1.513   1.714  2.3329  0.6645 -1.0002
 1126TIP3    H2 3385   1.125   1.497   1.572  1.9306  0.6347 -0.8569
 1127TIP3   OH2 3386   4.307   1.333   3.119  0.3240 -0.3262  0.1824
 1127TIP3    H1 3387   4.380   1.391   3.095  0.3701 -0.5858 -0.3144
 1127TIP3    H2 3388   4.248   1.337   3.043  0.1149 -0.5893  0.3307
 1128TIP3   OH2 3389   2.858   5.847   2.464  0.2694  0.5554  0.1908
 1128TIP3    H1 3390   2.944   5.847   2.421  0.0776  0.6807 -0.2006
 1128TIP3    H2 3391   2.796   5.843   2.391 -0.0504  0.2060  0.4852
 1129TIP3   OH2 3392   2.592   4.460   0.156 -0.2585  0.0947  0.0300
 1129TIP3    H1 3393   2.621   4.515   0.083  0.9115  0.5629  0.8226
 1129TIP3    H2 3394   2.605   4.370   0.125  1.1620  0.2910 -0.0124
 1130TIP3   OH2 3395   0.554   5.509   1.186  0.4254 -0.0749 -0.1915
 1130TIP3    H1 3396   0.606   5.495   1.265  0.1379 -1.2858 -0.1991
 1130TIP3    H2 3397   0.465   5.523   1.219  0.1587 -1.3786 -0.3183
 1131TIP3   OH2 3398   0.623   0.931   3.146 -0.4441  0.3260  0.3378
 1131TIP3    H1 3399   0.567   0.988   3.199  0.2870  0.4688  0.9781
 1131TIP3    H2 3400   0.694   0.906   3.205  0.4787  0.6032 -0.6255
 1132TIP3   OH2 3401   4.103   1.387   0.986  0.5000  0.2881 -0.1013
 1132TIP3    H1 3402   4.038   1.445   0.949  0.7247  0.9700  0.5472
 1132TIP3    H2 3403   4.186   1.435   0.979  0.4447  0.7561  1.8956
 1133TIP3   OH2 3404   0.802   1.717   4.283 -0.0189 -0.3146 -0.3155
 1133TIP3    H1 3405   0.788   1.799   4.236 -0.3303 -0.9771 -1.4318
 1133TIP3    H2 3406   0.896   1.701   4.276  0.2985  0.6863  1.2258
 1134TIP3   OH2 3407   2.682   0.809   0.145  0.3104 -0.3572  0.5456
 1134TIP3    H1 3408   2.755   0.749   0.130 -0.5227 -1.3954  0.5515
 1134TIP3    H2 3409   2.715   0.869   0.212  1.6007  0.0067 -0.3583
 1135TIP3   OH2 3410   2.620   5.826   2.930 -0.4714  0.4831 -0.3274
 1135TIP3    H1 3411   2.544   5.775   2.957 -0.4863  0.3228 -0.6727
 1135TIP3    H2 3412   2.602   5.914   2.963 -0.3964  0.2496  0.3685
 1136TIP3   OH2 3413   0.349   0.376   2.309  0.1156  0.4528  0.2662
 1136TIP3    H1 3414   0.406   0.365   2.233  1.7962  2.8135  1.0550
 1136TIP3    H2 3415   0.288   0.445   2.283  0.7365  1.3181  1.0147
 1137TIP3   OH2 3416   2.910   5.793   1.271 -0.0600  0.9874 -0.3526
 1137TIP3    H1 3417   2.929   5.828   1.184 -1.4464  0.1172 -1.0493
 1137TIP3    H2 3418   2.967   5.716   1.278 -0.2695  0.7987 -0.6830
 1138TIP3   OH2 3419   5.480   4.109   4.016 -0.4231 -0.5667 -0.8323
 1138TIP3    H1 3420   5.390   4.129   3.993 -0.6878 -0.3675  0.3415
 1138TIP3    H2 3421   5.521   4.194   4.030 -0.5354 -0.6964  0.3794
 1139TIP3   OH2 3422   0.925   5.623   5.158  0.2967 -0.2587  0.5959
 1139TIP3    H1 3423   0.938   5.646   5.066 -1.2018  0.3400  0.5148
 1139TIP3    H2 3424   0.937   5.528   5.161  0.3196 -0.2870 -0.2177
 1140TIP3   OH2 3425   1.571   0.829   1.323 -1.0076  0.4359  0.3257
 1140TIP3    H1 3426   1.600   0.833   1.232 -1.7920  3.2697  0.0973
 1140TIP3    H2 3427   1.585   0.738   1.349 -0.2009 -0.3167 -2.4177
 1141TIP3   OH2 3428   3.045   3.156   0.927  0.0917 -0.0916 -0.2160
 1141TIP3    H1 3429   3.070   3.225   0.988 -1.2231 -0.3830  0.6799
 1141TIP3    H2 3430   2.996   3.093   0.980 -1.6468 -0.0387 -1.6870
 1142TIP3   OH2 3431   5.926   4.537   0.777  0.2859  0.0779  0.1238
 1142TIP3    H1 3432   6.007   4.531   0.727 -0.0717 -0.3701 -0.4184
 1142TIP3    H2 3433   5.954   4.538   0.868  0.8708 -0.7140 -0.0348
 1143TIP3   OH2 3434   3.274   3.892   4.885  0.5923  0.3618  0.0354
 1143TIP3    H1 3435   3.209   3.959   4.906  0.5002  0.8948 -1.7974
 1143TIP3    H2 3436   3.358   3.938   4.885  0.9526 -0.2080  1.8282
 1144TIP3   OH2 3437   3.384   4.972   2.672  0.2701 -0.0607  0.3767
 1144TIP3    H1 3438   3.474   4.961   2.643  0.4585 -0.0119  0.9406
 1144TIP3    H2 3439   3.386   4.955   2.766 -0.4374 -0.8115  0.2699
 1145TIP3   OH2 3440   2.263   2.036   0.463 -0.5208 -0.2573  0.1111
 1145TIP3    H1 3441   2.348   2.006   0.431 -0.0397 -0.4146  1.4640
 1145TIP3    H2 3442   2.207   2.037   0.386  0.1822 -2.0367 -0.4649
 1146TIP3   OH2 3443   4.556   5.063   2.491 -0.0994  0.0369 -0.1946
 1146TIP3    H1 3444   4.649   5.072   2.469  0.5867 -2.2133  1.4181
 1146TIP3    H2 3445   4.544   5.116   2.569  0.2614 -0.9973  0.5743
 1147TIP3   OH2 3446   2.866   0.103   3.926 -0.3596 -0.6044  0.1739
 1147TIP3    H1 3447   2.911   0.186   3.914 -1.0141 -0.2501  0.1321
 1147TIP3    H2 3448   2.909   0.043   3.865  1.0828 -0.6925  1.2259
 1148TIP3   OH2 3449   2.995   5.449   1.768  0.1973 -0.5454  0.0977
 1148TIP3    H1 3450   2.997   5.494   1.683 -0.8216 -0.3041  0.1960
 1148TIP3    H2 3451   2.962   5.362   1.748  0.4033 -0.6462  0.1870
 1149TIP3   OH2 3452   1.841   4.516   3.605  0.5492  0.6865  0.3046
 1149TIP3    H1 3453   1.856   4.581   3.674  0.3696  1.6523 -0.5401
 1149TIP3    H2 3454   1.878   4.555   3.526 -1.9692  1.0243 -0.8121
 1150TIP3   OH2 3455   0.812   1.480   1.150 -0.2442  0.4962 -0.6461
 1150TIP3    H1 3456   0.809   1.540   1.225 -0.8637  0.1782 -0.4185
 1150TIP3    H2 3457   0.840   1.397   1.187 -0.4993  0.3521 -0.7778
 1151TIP3   OH2 3458   4.493   0.978   0.788 -0.5826 -0.2921  0.0348
 1151TIP3    H1 3459   4.426   0.909   0.789 -0.7988 -0.0958 -0.4543
 1151TIP3    H2 3460   4.542   0.962   0.708 -0.9263  0.3899 -0.3232
 1152TIP3   OH2 3461   0.204   4.095   1.406  0.2102  0.0619  0.4669
 1152TIP3    H1 3462   0.215   4.010   1.449  0.4550 -1.1804 -1.8780
 1152TIP3    H2 3463   0.160   4.074   1.323  1.0550  2.1084 -0.5604
 1153TIP3   OH2 3464   6.179   0.406   4.447 -0.5848  0.2169  0.1559
 1153TIP3    H1 3465   6.212   0.331   4.496  0.3851  1.0127  0.7407
 1153TIP3    H2 3466   6.134   0.367   4.372  3.2383 -0.9965 -1.7846
 1154TIP3   OH2 3467   3.465   5.357   3.881  0.5176 -0.1211  0.0677
 1154TIP3    H1 3468   3.541   5.414   3.894 -0.3221  0.6320  2.1606
 1154TIP3    H2 3469   3.440   5.330   3.969 -0.4508 -1.9893 -0.7256
 1155TIP3   OH2 3470   2.545   2.156   4.084 -0.4780 -0.7387 -0.3302
 1155TIP3    H1 3471   2.503   2.120   4.007 -1.3898  0.6910 -0.5410
 1155TIP3    H2 3472   2.472   2.185   4.140  0.1904 -0.2723  0.3190
 1156TIP3   OH2 3473   3.217   4.883   1.008  0.2980 -0.4989 -0.1671
 1156TIP3    H1 3474   3.313   4.887   0.998  0.2679 -1.0194 -0.7302
 1156TIP3    H2 3475   3.197   4.789   1.006 -0.2213 -0.3923  0.0027
 1157TIP3   OH2 3476   5.916   5.453   0.242  0.2404  0.0954  1.2497
 1157TIP3    H1 3477   5.882   5.364   0.233 -0.7336  0.5711 -0.4760
 1157TIP3    H2 3478   6.011   5.443   0.246  0.1893 -1.0097  0.3499
 1158TIP3   OH2 3479   3.116   4.259   1.897  0.7737 -0.0044  0.1462
 1158TIP3    H1 3480   3.104   4.192   1.964  0.9301 -0.5728 -0.3893
 1158TIP3    H2 3481   3.041   4.318   1.908 -0.2459 -1.1709 -0.4414
 1159TIP3   OH2 3482   4.347   3.771   1.591  0.0368  0.6093  0.0689
 1159TIP3    H1 3483   4.322   3.727   1.510 -0.2256 -0.0889  0.5233
 1159TIP3    H2 3484   4.412   3.713   1.631  0.0620  0.8795  0.4244
 1160TIP3   OH2 3485   5.066   2.991   3.499 -0.5067  0.3009 -0.0343
 1160TIP3    H1 3486   5.003   3.013   3.567 -1.6705 -1.0539 -0.6331
 1160TIP3    H2 3487   5.109   2.912   3.531  1.4447  1.5612  0.6833
 1161TIP3   OH2 3488   5.789   4.921   2.417  0.1608  0.2974 -0.4428
 1161TIP3    H1 3489   5.762   4.933   2.508 -2.2625 -0.6730 -0.9610
 1161TIP3    H2 3490   5.712   4.884   2.373  1.7672 -0.8014 -2.5421
 1162TIP3   OH2 3491   1.759   2.303   4.640  0.1658 -0.0807  0.1131
 1162TIP3    H1 3492   1.757   2.269   4.729 -0.8318 -0.6130 -0.0929
 1162TIP3    H2 3493   1.815   2.242   4.592  1.7188  0.8950  0.6171
 1163TIP3   OH2 3494   4.107   2.825   4.894 -0.5194 -0.1281  0.6371
 1163TIP3    H1 3495   4.122   2.732   4.874 -1.0841 -0.2506  0.7734
 1163TIP3    H2 3496   4.185   2.852   4.941 -1.2558 -1.1007  2.5351
 1164TIP3   OH2 3497   2.430   0.459   3.379  0.1698  0.2731  0.2012
 1164TIP3    H1 3498   2.354   0.403   3.363 -0.1405  1.1551 -1.6374
 1164TIP3    H2 3499   2.494   0.401   3.421 -1.3532 -0.5734  1.4744
 1165TIP3   OH2 3500   6.199   3.644   3.236  0.5111 -0.1431 -0.6277
 1165TIP3    H1 3501   6.106   3.637   3.212  0.0140 -0.6435  1.2827
 1165TIP3    H2 3502   6.215   3.738   3.245 -0.0469 -0.0888 -0.1568
 1166TIP3   OH2 3503   5.505   5.485   4.432 -0.1827  0.5729 -0.0127
 1166TIP3    H1 3504   5.460   5.522   4.507 -0.0912  1.0116 -0.1665
 1166TIP3    H2 3505   5.597   5.511   4.444 -0.1046  0.3262 -0.0817
 1167TIP3   OH2 3506   1.760   3.933   2.274 -0.1003 -0.2517  0.1169
 1167TIP3    H1 3507   1.742   3.840   2.258 -0.6835 -0.1608  0.2261
 1167TIP3    H2 3508   1.688   3.962   2.329 -0.9036  0.6929 -1.3700
 1168TIP3   OH2 3509   5.097   2.784   1.495  0.9128 -0.2165  0.1897
 1168TIP3    H1 3510   5.142   2.743   1.568  0.4067  2.1428  1.9467
 1168TIP3    H2 3511   5.120   2.877   1.501 -1.9105  0.6320 -0.4962
 1169TIP3   OH2 3512   1.511   3.991   3.940  0.6471 -0.4230  0.1008
 1169TIP3    H1 3513   1.535   4.054   4.008  1.8011 -0.9319  0.1751
 1169TIP3    H2 3514   1.526   4.039   3.858 -0.5840  0.1321  0.1776
 1170TIP3   OH2 3515   3.680   2.653   0.359  0.7045  0.4247 -0.0015
 1170TIP3    H1 3516   3.696   2.670   0.452 -0.6243  1.5728  0.0421
 1170TIP3    H2 3517   3.585   2.658   0.349  0.5635 -2.4369 -0.9352
 1171TIP3   OH2 3518   3.333   0.162   2.504  0.0842  0.4762 -0.1497
 1171TIP3    H1 3519   3.391   0.193   2.434  0.5024  0.0484  0.0006
 1171TIP3    H2 3520   3.387   0.103   2.555 -0.5249 -0.0222 -0.0704
 1172TIP3   OH2 3521   2.490   4.407   1.118 -0.5642 -0.1882  0.2934
 1172TIP3    H1 3522   2.423   4.438   1.179  0.6359  2.6572  0.3602
 1172TIP3    H2 3523   2.558   4.475   1.120  0.3409 -0.7902 -2.9097
 1173TIP3   OH2 3524   3.956   3.740   1.033  0.2530 -0.4169  0.1402
 1173TIP3    H1 3525   3.916   3.824   1.053  1.0464  0.0976 -0.3470
 1173TIP3    H2 3526   3.883   3.680   1.023 -0.3022  0.0759  1.0683
 1174TIP3   OH2 3527   4.332   1.686   1.978 -0.4711 -0.0149 -0.6761
 1174TIP3    H1 3528   4.288   1.728   1.904  0.0861 -1.1141 -1.6494
 1174TIP3    H2 3529   4.320   1.592   1.964  1.7008 -0.3458 -0.6760
 1175TIP3   OH2 3530   6.034   0.454   2.848 -0.1246  0.0557 -0.5334
 1175TIP3    H1 3531   6.084   0.533   2.830  1.6210 -0.4681  1.5926
 1175TIP3    H2 3532   6.088   0.382   2.814  0.9891 -0.5525  2.2204
 1176TIP3   OH2 3533   3.149   1.598   4.661  0.1111  0.4521 -0.5672
 1176TIP3    H1 3534   3.070   1.543   4.669 -0.2011  0.8859 -0.6241
 1176TIP3    H2 3535   3.191   1.590   4.747 -0.4823  0.9413 -0.2180
 1177TIP3   OH2 3536   3.936   2.552   4.640  0.1176 -0.3828  0.0424
 1177TIP3    H1 3537   4.020   2.556   4.686  0.4326 -1.3036 -0.4279
 1177TIP3    H2 3538   3.878   2.506   4.700 -0.0285  0.1586  0.3229
 1178TIP3   OH2 3539   4.323   5.874   2.666  0.1737 -0.1701 -0.8163
 1178TIP3    H1 3540   4.270   5.954   2.662  1.1460  0.4954 -0.9427
 1178TIP3    H2 3541   4.370   5.873   2.583  0.7196 -0.4789 -0.5081
 1179TIP3   OH2 3542   4.616   0.041   4.728 -0.2409 -0.6829 -0.3116
 1179TIP3    H1 3543   4.633   0.134   4.709 -1.1164 -0.2200  0.9944
 1179TIP3    H2 3544   4.571   0.009   4.649  0.3292 -0.0823 -0.8988
 1180TIP3   OH2 3545   2.683   1.686   2.763  0.2865  0.0607 -0.0575
 1180TIP3    H1 3546   2.621   1.739   2.813 -0.4251 -0.8948  0.0980
 1180TIP3    H2 3547   2.641   1.673   2.678 -1.1748 -3.0231  0.9805
 1181TIP3   OH2 3548   1.456   3.637   3.856 -0.0298 -0.1970 -0.5052
 1181TIP3    H1 3549   1.457   3.618   3.950  1.6430  1.0462 -0.2332
 1181TIP3    H2 3550   1.499   3.561   3.816 -0.6257 -0.6689 -0.2722
 1182TIP3   OH2 3551   0.894   4.906   2.439 -0.2181  0.1031  0.2669
 1182TIP3    H1 3552   0.814   4.861   2.412  0.6690 -0.3384 -1.8777
 1182TIP3    H2 3553   0.963   4.840   2.427  0.7730  1.2178 -0.4130
 1183TIP3   OH2 3554   4.007   0.094   2.394  0.2796  0.1761 -0.2606
 1183TIP3    H1 3555   4.081   0.144   2.359 -0.4848  1.7547  0.2625
 1183TIP3    H2 3556   4.001   0.123   2.485 -0.6777 -0.3199 -0.1602
 1184TIP3   OH2 3557   1.035   4.855   3.706  0.5075  0.1462 -0.1364
 1184TIP3    H1 3558   0.987   4.772   3.704 -3.2601  2.0246  1.4881
 1184TIP3    H2 3559   1.029   4.888   3.617  0.1834 -0.4259 -0.3308
 1185TIP3   OH2 3560   5.543   2.581   2.104 -0.1972 -0.2704 -0.1957
 1185TIP3    H1 3561   5.479   2.621   2.045 -0.0132 -1.1063 -0.9870
 1185TIP3    H2 3562   5.528   2.624   2.189 -2.2667 -0.8969 -0.1782
 1186TIP3   OH2 3563   5.553   0.512   3.143 -0.3829  0.1260 -0.9428
 1186TIP3    H1 3564   5.571   0.439   3.202  0.2055  0.8822 -0.1700
 1186TIP3    H2 3565   5.621   0.505   3.076  0.5032  0.7315 -0.1330
 1187TIP3   OH2 3566   5.341   5.351   1.842 -0.3296  0.2727  0.1401
 1187TIP3    H1 3567   5.273   5.301   1.796  1.3015 -1.0559 -0.9049
 1187TIP3    H2 3568   5.419   5.341   1.788  0.8797  1.2608  1.6404
 1188TIP3   OH2 3569   1.239   4.849   0.062  0.1109 -0.9394 -0.9369
 1188TIP3    H1 3570   1.161   4.898   0.039 -0.1022 -0.7147  0.2102
 1188TIP3    H2 3571   1.271   4.814  -0.021 -0.8392 -0.4991 -1.4997
 1189TIP3   OH2 3572   2.254   5.785   3.034  0.1931  0.0535  0.2899
 1189TIP3    H1 3573   2.238   5.800   2.941 -2.7411  0.0229  0.7145
 1189TIP3    H2 3574   2.169   5.800   3.076  0.8819 -2.1497  2.6859
 1190TIP3   OH2 3575   2.454   5.380   4.028  0.1460  0.1274  0.1865
 1190TIP3    H1 3576   2.417   5.337   3.950  1.1700 -1.2133  0.4027
 1190TIP3    H2 3577   2.476   5.468   3.998 -1.9541  0.5485 -0.2931
 1191TIP3   OH2 3578   0.859   4.335   5.028  0.4636  0.2088 -0.2352
 1191TIP3    H1 3579   0.812   4.308   4.950 -0.5364 -1.1352  0.7963
 1191TIP3    H2 3580   0.898   4.255   5.063  0.2221  0.6306  1.0777
 1192TIP3   OH2 3581   5.451   3.710   4.501 -0.2392  0.4364  0.1400
 1192TIP3    H1 3582   5.387   3.694   4.571 -0.0283  0.4705  0.3423
 1192TIP3    H2 3583   5.437   3.638   4.438 -1.4422  1.2337 -0.5310
 1193TIP3   OH2 3584   4.383   0.803   4.212 -0.1059  0.0211 -0.1519
 1193TIP3    H1 3585   4.350   0.736   4.272 -1.5417 -1.3272 -2.2837
 1193TIP3    H2 3586   4.305   0.830   4.162  1.5084 -1.7912 -4.0457
 1194TIP3   OH2 3587   1.156   0.975   1.674 -0.2433  0.0439  0.4303
 1194TIP3    H1 3588   1.116   1.055   1.640 -1.3347 -0.2675  0.9114
 1194TIP3    H2 3589   1.243   1.002   1.703 -0.1355  0.7833 -0.5302
 1195TIP3   OH2 3590   6.019   0.856   2.283  0.5993 -0.5622  0.2350
 1195TIP3    H1 3591   5.953   0.872   2.216  1.4773 -0.2946 -0.5909
 1195TIP3    H2 3592   5.971   0.816   2.355 -0.3061 -1.2059 -0.6980
 1196TIP3   OH2 3593   6.150   5.324   1.769  0.2866  0.7314  0.6128
 1196TIP3    H1 3594   6.076   5.298   1.714  0.2321  0.5220  0.7849
 1196TIP3    H2 3595   6.111   5.352   1.851  0.5063 -2.2045  1.8587
 1197TIP3   OH2 3596   4.979   5.995   1.975  0.3593 -0.0036 -0.0315
 1197TIP3    H1 3597   5.025   6.005   1.892  1.7749 -0.2190  0.6925
 1197TIP3    H2 3598   4.972   5.900   1.988 -0.1465  0.0280 -0.0600
 1198TIP3   OH2 3599   1.340   4.594   2.738 -0.3747 -0.1534  0.2971
 1198TIP3    H1 3600   1.375   4.566   2.823  1.3229  0.1432 -0.2523
 1198TIP3    H2 3601   1.262   4.645   2.760  0.1479  0.1042  1.7112
 1199TIP3   OH2 3602   2.641   0.216   3.129 -0.0359 -0.2843 -0.2908
 1199TIP3    H1 3603   2.695   0.161   3.073  1.7478 -2.1103  2.8919
 1199TIP3    H2 3604   2.698   0.286   3.158 -0.1939 -0.6182  0.8967
 1200TIP3   OH2 3605   1.726   3.808   1.646  0.1033 -0.4975 -0.7894
 1200TIP3    H1 3606   1.753   3.728   1.600  2.2713  0.1924 -0.8115
 1200TIP3    H2 3607   1.652   3.780   1.700 -0.4098 -2.0721 -2.2104
 1201TIP3   OH2 3608   0.528   5.909   0.439  0.8696  0.5620 -0.0026
 1201TIP3    H1 3609   0.589   5.894   0.511  2.7175  1.1174 -1.3479
 1201TIP3    H2 3610   0.584   5.942   0.368 -0.6150 -1.1892 -2.1185
 1202TIP3   OH2 3611   0.959   4.473   3.985  0.0436 -0.3449  0.4684
 1202TIP3    H1 3612   0.997   4.411   4.047 -1.2478 -0.9582  0.6786
 1202TIP3    H2 3613   1.031   4.496   3.927  0.8342 -1.1297  1.1166
 1203TIP3   OH2 3614   2.079   0.146   3.939 -0.3727  0.1593 -0.3769
 1203TIP3    H1 3615   2.033   0.202   4.001 -0.7330  0.7010 -1.1183
 1203TIP3    H2 3616   2.075   0.194   3.856 -0.8116 -1.0268 -1.0651
 1204TIP3   OH2 3617   5.391   5.254   4.340 -0.1521 -0.1523 -0.3962
 1204TIP3    H1 3618   5.413   5.220   4.427  0.9969 -1.6939 -1.2446
 1204TIP3    H2 3619   5.403   5.349   4.348  3.1750 -0.5224  0.2855
 1205TIP3   OH2 3620   4.753   5.821   0.606  0.1335 -0.3122 -0.0393
 1205TIP3    H1 3621   4.812   5.830   0.530 -1.8779 -0.9157 -1.7615
 1205TIP3    H2 3622   4.666   5.809   0.568 -0.9534 -0.7879  2.3931
 1206TIP3   OH2 3623   0.208   0.467   1.933 -0.1841  0.1701 -0.3558
 1206TIP3    H1 3624   0.218   0.562   1.932 -0.0794  0.1992 -2.7153
 1206TIP3    H2 3625   0.238   0.439   1.847  0.6484 -2.1265  0.5957
 1207TIP3   OH2 3626   2.681   3.803   3.541 -0.6017 -0.0179  0.1737
 1207TIP3    H1 3627   2.697   3.856   3.462 -1.4837 -0.2648 -0.1871
 1207TIP3    H2 3628   2.585   3.797   3.546 -0.6638  1.5063  2.2772
 1208TIP3   OH2 3629   2.898   4.876   0.360 -0.3784 -0.5079  0.2552
 1208TIP3    H1 3630   2.957   4.814   0.316 -0.0867  0.2803 -0.4985
 1208TIP3    H2 3631   2.952   4.915   0.428  0.4374  1.1875 -1.2819
 1209TIP3   OH2 3632   4.218   2.162   3.258 -0.3069 -0.2783  0.1620
 1209TIP3    H1 3633   4.146   2.152   3.195 -0.7321  0.7112  0.4681
 1209TIP3    H2 3634   4.287   2.208   3.209 -0.6464  0.5119  0.4084
 1210TIP3   OH2 3635   4.142   2.256   4.062 -0.2583  0.0314 -0.6806
 1210TIP3    H1 3636   4.219   2.303   4.093 -0.7156 -0.1183  0.7664
 1210TIP3    H2 3637   4.098   2.226   4.142 -0.3595 -2.2424 -1.5157
 1211TIP3   OH2 3638   4.814   1.199   3.604 -0.1744  0.2965 -0.3325
 1211TIP3    H1 3639   4.804   1.294   3.611 -0.5643  0.2150  0.2858
 1211TIP3    H2 3640   4.853   1.173   3.688 -0.2613 -0.1186 -0.4199
 1212TIP3   OH2 3641   3.202   1.376   2.292  0.2723  0.2524  0.0139
 1212TIP3    H1 3642   3.165   1.354   2.207 -1.3240 -1.3739  1.0474
 1212TIP3    H2 3643   3.126   1.385   2.350  1.3331  0.7047  1.3963
 1213TIP3   OH2 3644   2.727   5.213   2.916 -0.5093 -0.2294 -1.0439
 1213TIP3    H1 3645   2.727   5.143   2.851 -0.1866 -0.0286 -1.2598
 1213TIP3    H2 3646   2.819   5.238   2.926 -0.4648 -0.7451  0.0178
 1214TIP3   OH2 3647   2.726   5.157   1.262 -0.3858 -0.3757  1.3300
 1214TIP3    H1 3648   2.767   5.161   1.176 -0.3780  0.6553  1.3643
 1214TIP3    H2 3649   2.752   5.072   1.297 -0.5208 -0.8735  0.2581
 1215TIP3   OH2 3650   2.974   4.987   0.866  0.4254  0.7890 -0.4169
 1215TIP3    H1 3651   3.042   4.955   0.925 -0.8510 -0.7258  0.3013
 1215TIP3    H2 3652   2.954   5.075   0.899  2.3790  1.5247 -1.0016
 1216TIP3   OH2 3653   3.270   5.641   5.137  0.0796 -0.0702 -0.2541
 1216TIP3    H1 3654   3.252   5.638   5.231  0.8238  0.1127 -0.0986
 1216TIP3    H2 3655   3.253   5.553   5.106 -2.6321  0.4321 -0.4365
 1217TIP3   OH2 3656   5.264   4.074   0.105  0.0018  0.4899 -0.1443
 1217TIP3    H1 3657   5.248   4.010   0.036 -0.2300  1.0462 -0.6241
 1217TIP3    H2 3658   5.189   4.066   0.164  1.0313 -1.1812  1.0204
 1218TIP3   OH2 3659   5.611   4.071   4.799  0.1379 -0.0880 -0.2592
 1218TIP3    H1 3660   5.601   4.152   4.749  1.1285  0.4398  0.3552
 1218TIP3    H2 3661   5.663   4.014   4.742 -1.2566 -0.6150 -1.0286
 1219TIP3   OH2 3662   5.618   4.918   0.201 -0.1607  0.1364  0.0244
 1219TIP3    H1 3663   5.649   4.990   0.147 -0.6288  0.3726  0.0685
 1219TIP3    H2 3664   5.538   4.887   0.158  0.8258 -1.3377 -0.8269
 1220TIP3   OH2 3665   2.930   2.234   2.676  0.6912  0.5021 -0.1703
 1220TIP3    H1 3666   2.967   2.169   2.736  0.3503 -0.9161 -1.4182
 1220TIP3    H2 3667   2.902   2.306   2.732 -0.9224 -1.3529  1.5963
 1221TIP3   OH2 3668   5.975   4.780   2.671 -0.4126  0.9972  0.0148
 1221TIP3    H1 3669   6.001   4.834   2.746 -0.2702  0.9065  0.0316
 1221TIP3    H2 3670   6.025   4.816   2.597  1.3814 -0.4770  0.4343
 1222TIP3   OH2 3671   4.653   1.056   2.581  0.1705 -0.2781 -0.7553
 1222TIP3    H1 3672   4.664   0.961   2.589  1.1467 -0.1734 -0.7253
 1222TIP3    H2 3673   4.712   1.092   2.648 -2.7975  0.3049  1.7958
 1223TIP3   OH2 3674   3.785   1.780   3.425  0.0309 -0.4163  0.2087
 1223TIP3    H1 3675   3.728   1.840   3.473 -0.7196 -0.6730 -0.3436
 1223TIP3    H2 3676   3.829   1.729   3.493  1.4723  1.4448  0.7291
 1224TIP3   OH2 3677   1.674   1.155   0.624  0.1537  0.0068 -0.4297
 1224TIP3    H1 3678   1.624   1.108   0.690  1.3556  0.0536  0.5382
 1224TIP3    H2 3679   1.609   1.211   0.581 -0.9934 -1.3558 -0.5480
 1225TIP3   OH2 3680   4.948   5.258   2.416 -0.6505  0.3485 -0.3339
 1225TIP3    H1 3681   4.917   5.307   2.340 -2.0312 -0.5133 -0.3452
 1225TIP3    H2 3682   4.910   5.171   2.406 -0.1790 -0.0202  0.9284
 1226TIP3   OH2 3683   1.491   3.570   3.510  0.0602 -0.0855  0.0105
 1226TIP3    H1 3684   1.538   3.636   3.561  0.5328 -1.5362  1.5329
 1226TIP3    H2 3685   1.411   3.553   3.560  1.3115 -2.7462  1.2823
 1227TIP3   OH2 3686   4.596   2.799   4.750 -0.0050  0.1225  0.2466
 1227TIP3    H1 3687   4.540   2.815   4.674 -0.5605 -0.5671  0.4991
 1227TIP3    H2 3688   4.682   2.830   4.723  0.1276 -1.3281 -1.1795
 1228TIP3   OH2 3689   6.124   3.312   1.890  0.0607 -1.0652 -0.6037
 1228TIP3    H1 3690   6.069   3.241   1.922  0.4067 -0.4156  1.6164
 1228TIP3    H2 3691   6.210   3.272   1.877  0.2747 -1.1026  0.7206
 1229TIP3   OH2 3692   5.478   5.627   0.326 -0.1447 -0.1287 -0.1789
 1229TIP3    H1 3693   5.409   5.591   0.270 -2.0906  0.9577  1.3591
 1229TIP3    H2 3694   5.477   5.570   0.404  0.1038  0.3722  0.1952
 1230TIP3   OH2 3695   0.805   0.134   1.005  0.4214  0.3652  0.4396
 1230TIP3    H1 3696   0.895   0.119   1.033  0.3247  1.6045  1.5242
 1230TIP3    H2 3697   0.758   0.055   1.033  0.6172  0.9482  2.6298
 1231TIP3   OH2 3698   5.512   0.657   0.782  0.2174 -0.2036  0.1559
 1231TIP3    H1 3699   5.482   0.627   0.697  0.7738  2.0749 -0.8960
 1231TIP3    H2 3700   5.607   0.644   0.780  0.5090  1.7342 -0.4244
 1232TIP3   OH2 3701   1.844   3.708   1.225  0.1890  0.1464 -0.1537
 1232TIP3    H1 3702   1.906   3.776   1.200 -1.4324  1.2509 -1.3697
 1232TIP3    H2 3703   1.839   3.650   1.149  0.1064 -0.2457  0.1436
 1233TIP3   OH2 3704   0.825   3.192   0.115 -0.0450 -0.3912 -0.4002
 1233TIP3    H1 3705   0.779   3.227   0.191  1.1793 -0.0512  0.2132
 1233TIP3    H2 3706   0.763   3.200   0.043 -0.9077  0.1043  0.3884
 1234TIP3   OH2 3707   6.147   2.446   2.701 -0.4571  0.0763  0.0380
 1234TIP3    H1 3708   6.135   2.531   2.659 -0.5918 -0.0671 -0.2183
 1234TIP3    H2 3709   6.209   2.463   2.773  0.4481  0.1655 -0.7407
 1235TIP3   OH2 3710   0.644   2.055   3.518 -0.7437 -0.5593 -0.5673
 1235TIP3    H1 3711   0.716   2.027   3.574 -0.4789 -0.4309 -0.8436
 1235TIP3    H2 3712   0.573   1.993   3.537 -1.4076  0.7241  1.5049
 1236TIP3   OH2 3713   2.139   4.103   2.946 -0.0427 -0.1661  0.2441
 1236TIP3    H1 3714   2.045   4.113   2.964 -0.1856 -0.6669 -0.1854
 1236TIP3    H2 3715   2.165   4.026   2.995  0.2262  0.1705  0.6343
 1237TIP3   OH2 3716   4.567   3.805   4.779 -0.1782 -0.1281  0.2441
 1237TIP3    H1 3717   4.661   3.801   4.764 -0.2640  0.8387 -0.6365
 1237TIP3    H2 3718   4.558   3.826   4.872  0.4464 -1.2777  0.5795
 1238TIP3   OH2 3719   5.780   2.219   2.531 -0.1545  0.0062  0.0703
 1238TIP3    H1 3720   5.770   2.156   2.460  0.3771 -0.6437  0.5544
 1238TIP3    H2 3721   5.847   2.280   2.500  1.3386 -1.2645  0.6586
 1239TIP3   OH2 3722   6.201   4.485   3.060  0.1481  0.2293  0.8264
 1239TIP3    H1 3723   6.280   4.539   3.064 -0.5489  1.1774  2.9676
 1239TIP3    H2 3724   6.234   4.395   3.059  1.2657  0.6184  1.3081
 1240TIP3   OH2 3725   1.737   0.293   0.785  0.3998 -0.0149 -0.3543
 1240TIP3    H1 3726   1.780   0.337   0.712  2.2316  0.3902  0.8893
 1240TIP3    H2 3727   1.710   0.364   0.843  0.5194 -0.3890  0.1693
 1241TIP3   OH2 3728   5.319   5.585   5.194  0.6833 -0.1646  0.0068
 1241TIP3    H1 3729   5.256   5.644   5.154 -1.4466 -1.3088  1.4534
 1241TIP3    H2 3730   5.336   5.519   5.127  0.4966  0.2732 -0.4744
 1242TIP3   OH2 3731   0.505   4.324   0.047  0.2653 -0.0805  0.3727
 1242TIP3    H1 3732   0.413   4.299   0.041 -0.1559  1.2879  0.8289
 1242TIP3    H2 3733   0.547   4.281  -0.027 -0.8909 -0.0939 -0.2820
 1243TIP3   OH2 3734   5.279   3.057   4.631 -0.1368  0.2241 -0.4426
 1243TIP3    H1 3735   5.276   3.022   4.720 -0.5995  0.1411 -0.4880
 1243TIP3    H2 3736   5.303   3.149   4.642  1.6997 -0.2285 -0.3597
 1244TIP3   OH2 3737   2.354   0.766   4.826 -0.7657  0.2788 -0.1977
 1244TIP3    H1 3738   2.402   0.733   4.902 -0.6657  1.6062  0.3484
 1244TIP3    H2 3739   2.358   0.695   4.762  0.3222 -0.3510  0.5376
 1245TIP3   OH2 3740   2.733   0.468   1.972  0.2902  0.1214  0.2510
 1245TIP3    H1 3741   2.750   0.439   2.062  0.4866 -0.2918  0.0837
 1245TIP3    H2 3742   2.676   0.544   1.982  0.5975  0.2943  0.7403
 1246TIP3   OH2 3743   3.496   3.984   3.861 -0.1433 -0.3289  0.2689
 1246TIP3    H1 3744   3.449   4.046   3.918  1.9487  0.6521  1.0649
 1246TIP3    H2 3745   3.438   3.909   3.853 -1.3507  0.3328  2.1307
 1247TIP3   OH2 3746   4.142   1.599   2.747  0.0159  0.2257 -0.0851
 1247TIP3    H1 3747   4.224   1.571   2.788 -1.5612  0.8491  3.9619
 1247TIP3    H2 3748   4.110   1.522   2.702  1.8957 -0.5860 -0.1225
 1248TIP3   OH2 3749   3.539   0.832   0.088 -0.0246 -0.0409  0.2526
 1248TIP3    H1 3750   3.566   0.800   0.174 -0.5993  0.8013  0.7576
 1248TIP3    H2 3751   3.599   0.789   0.027  0.1513 -0.9367  1.0325
 1249TIP3   OH2 3752   1.382   4.495   2.482 -0.1144 -0.6970  0.4701
 1249TIP3    H1 3753   1.346   4.406   2.476 -2.1922  0.0704  0.7791
 1249TIP3    H2 3754   1.340   4.533   2.559  1.1969  0.3886  0.6872
 1250TIP3   OH2 3755   4.692   0.072   1.813 -0.1221  0.4863  0.3464
 1250TIP3    H1 3756   4.599   0.089   1.800  0.2040  0.3458 -3.1324
 1250TIP3    H2 3757   4.721   0.142   1.872 -2.2983  0.8113  1.1069
 1251TIP3   OH2 3758   0.602   3.747   0.003  0.4260 -0.0681  0.4593
 1251TIP3    H1 3759   0.508   3.736   0.018  0.3775 -0.5670 -0.1915
 1251TIP3    H2 3760   0.639   3.759   0.091 -0.3098  0.7007  0.6736
 1252TIP3   OH2 3761   0.072   0.419   3.739 -0.2815  0.2130 -0.5099
 1252TIP3    H1 3762   0.065   0.359   3.814 -1.9772 -0.2685 -1.0026
 1252TIP3    H2 3763   0.083   0.505   3.778 -1.0951 -0.0363  0.3016
 1253TIP3   OH2 3764   5.060   5.653   3.739  0.7376 -0.1016  0.7050
 1253TIP3    H1 3765   5.134   5.644   3.799  0.3188 -1.1491  1.0882
 1253TIP3    H2 3766   5.092   5.711   3.670  1.1360  1.3600  2.0609
 1254TIP3   OH2 3767   2.684   0.090   0.796 -0.4784 -0.4963  0.3982
 1254TIP3    H1 3768   2.671   0.145   0.719 -0.3163 -0.3689  0.4613
 1254TIP3    H2 3769   2.720   0.008   0.761 -0.4423 -0.4531  0.3345
 1255TIP3   OH2 3770   1.671   5.925   3.980 -0.2743 -0.3757 -0.1047
 1255TIP3    H1 3771   1.735   5.944   3.911 -1.2064  0.7957 -0.6746
 1255TIP3    H2 3772   1.588   5.953   3.944 -1.1095 -1.6827  0.7092
 1256TIP3   OH2 3773   3.440   4.248   4.548  0.3390  0.2059  0.4505
 1256TIP3    H1 3774   3.350   4.280   4.561  0.5147  0.8596  0.1129
 1256TIP3    H2 3775   3.430   4.154   4.537 -0.2685  0.2227  0.7948
 1257TIP3   OH2 3776   0.988   4.866   1.348  0.7035  0.2413 -0.5507
 1257TIP3    H1 3777   0.912   4.902   1.302  1.5938  0.9040 -1.5586
 1257TIP3    H2 3778   0.999   4.924   1.424  0.0654 -0.0076 -0.2592
 1258TIP3   OH2 3779   3.443   1.164   5.089  0.6524  0.3704  0.6901
 1258TIP3    H1 3780   3.400   1.216   5.157 -0.9467  0.6371 -0.4822
 1258TIP3    H2 3781   3.385   1.088   5.078  1.3314 -0.0807  0.1802
 1259TIP3   OH2 3782   1.088   2.950   1.180  0.9830 -0.1397 -0.5505
 1259TIP3    H1 3783   1.093   2.864   1.138 -0.1195  0.3979 -1.8104
 1259TIP3    H2 3784   1.177   2.985   1.172  1.1172 -0.6099 -1.2248
 1260TIP3   OH2 3785   4.831   3.544   1.216 -0.2058  0.0903  0.4235
 1260TIP3    H1 3786   4.752   3.579   1.174  0.1149  0.7258  0.3247
 1260TIP3    H2 3787   4.820   3.564   1.309 -0.2394  0.0209  0.4345
 1261TIP3   OH2 3788   3.501   0.119   4.961 -0.4215  0.2146  0.0390
 1261TIP3    H1 3789   3.544   0.175   5.026 -1.9164 -0.0271  1.2625
 1261TIP3    H2 3790   3.477   0.040   5.008 -2.5436  0.4916 -0.4799
 1262TIP3   OH2 3791   4.153   4.196   1.098  0.3227 -0.0506  0.1592
 1262TIP3    H1 3792   4.127   4.181   1.189  2.1423  3.5195  1.4889
 1262TIP3    H2 3793   4.249   4.190   1.100  0.4931  1.6594 -1.0962
 1263TIP3   OH2 3794   1.135   2.716   1.056  0.1752 -0.8040  0.6530
 1263TIP3    H1 3795   1.108   2.625   1.069  0.5140 -0.7909  1.5812
 1263TIP3    H2 3796   1.217   2.724   1.105  0.0754  0.0364  0.7074
 1264TIP3   OH2 3797   3.205   2.178   2.179  0.4280  0.3114 -0.4040
 1264TIP3    H1 3798   3.134   2.139   2.230  1.5865  0.2024  1.2123
 1264TIP3    H2 3799   3.251   2.102   2.141  0.7330  0.2821  0.0223
 1265TIP3   OH2 3800   2.697   5.233   0.842 -0.0136  0.2584 -0.1047
 1265TIP3    H1 3801   2.782   5.266   0.872 -0.2835  0.3472  0.5804
 1265TIP3    H2 3802   2.633   5.278   0.898 -0.4393 -0.6941  0.1927
 1266TIP3   OH2 3803   0.651   0.444   0.642 -0.1241 -0.5065 -0.0633
 1266TIP3    H1 3804   0.574   0.443   0.699 -0.7533 -1.1186 -0.9116
 1266TIP3    H2 3805   0.652   0.358   0.601  1.3235 -0.7130  0.3217
 1267TIP3   OH2 3806   0.851   2.054   0.452  0.3387 -0.1258  0.3071
 1267TIP3    H1 3807   0.889   1.999   0.384 -2.2907 -0.9904 -0.5831
 1267TIP3    H2 3808   0.796   2.116   0.404 -2.2075 -1.2511  1.5804
 1268TIP3   OH2 3809   1.204   1.652   1.833  0.4246 -0.1832 -0.3014
 1268TIP3    H1 3810   1.283   1.687   1.873  0.8377 -1.1387 -0.2526
 1268TIP3    H2 3811   1.166   1.726   1.786  0.8994  0.4914  0.3674
 1269TIP3   OH2 3812   1.561   0.223   3.932  0.2392 -0.4812 -0.2433
 1269TIP3    H1 3813   1.552   0.130   3.953 -0.1492 -0.3633  0.1335
 1269TIP3    H2 3814   1.642   0.229   3.882  0.6020 -0.9368  0.2770
 1270TIP3   OH2 3815   3.405   1.612   0.183 -0.4190  0.3906  0.5654
 1270TIP3    H1 3816   3.496   1.625   0.157 -0.1068  0.0517  1.4558
 1270TIP3    H2 3817   3.384   1.523   0.153 -0.1852  0.1509  1.1002
 1271TIP3   OH2 3818   3.326   2.009   3.230 -0.0776 -0.0344 -0.2773
 1271TIP3    H1 3819   3.372   2.090   3.206  0.9658 -0.2234  0.9799
 1271TIP3    H2 3820   3.331   1.955   3.151  2.1979 -0.1612 -0.1285
 1272TIP3   OH2 3821   5.035   3.621   0.402  0.0566  0.2504 -0.3573
 1272TIP3    H1 3822   5.047   3.572   0.483  2.0708  0.3099 -0.5761
 1272TIP3    H2 3823   5.059   3.558   0.333 -2.7575 -0.1956 -1.0540
 1273TIP3   OH2 3824   4.797   3.378   0.744 -0.0877  0.2188  0.6615
 1273TIP3    H1 3825   4.860   3.392   0.674  0.5791 -1.3074  0.9152
 1273TIP3    H2 3826   4.781   3.465   0.780  0.0444  0.9436 -0.9422
 1274TIP3   OH2 3827   0.903   1.735   1.970 -0.7431 -0.3006 -0.5480
 1274TIP3    H1 3828   0.951   1.784   1.903 -1.0756 -0.5655 -0.9806
 1274TIP3    H2 3829   0.840   1.797   2.005  0.3613  0.2704  0.5180
 1275TIP3   OH2 3830   3.821   5.332   2.968  0.2871 -0.4726 -0.0916
 1275TIP3    H1 3831   3.895   5.306   3.023  1.4131  3.2873  0.4265
 1275TIP3    H2 3832   3.848   5.415   2.929 -2.5338 -0.4523 -2.2826
 1276TIP3   OH2 3833   1.287   3.641   1.824  0.5160 -0.0353  0.2762
 1276TIP3    H1 3834   1.252   3.662   1.738 -2.4323  0.8705  1.5622
 1276TIP3    H2 3835   1.295   3.546   1.824 -0.7983 -0.1622 -0.5445
 1277TIP3   OH2 3836   2.617   2.159   2.380  0.8352  0.6641  0.2454
 1277TIP3    H1 3837   2.643   2.225   2.316  3.2322 -2.2740 -2.1129
 1277TIP3    H2 3838   2.523   2.146   2.364  1.4647 -0.4970 -3.3833
 1278TIP3   OH2 3839   0.174   2.789   4.279  0.5819  0.4829  0.5388
 1278TIP3    H1 3840   0.184   2.698   4.250 -0.4616  0.3685  0.5139
 1278TIP3    H2 3841   0.168   2.783   4.375 -1.1529  0.3374  0.4522
 1279TIP3   OH2 3842   4.925   0.456   1.175 -0.3653  0.1212 -0.1209
 1279TIP3    H1 3843   4.889   0.471   1.088  0.4990 -0.3894 -0.5732
 1279TIP3    H2 3844   4.906   0.364   1.194 -3.4950  0.9980  1.6397
 1280TIP3   OH2 3845   5.163   2.329   0.037  0.1570  0.4499 -0.3833
 1280TIP3    H1 3846   5.161   2.248   0.088  0.9351  0.1816 -0.7684
 1280TIP3    H2 3847   5.073   2.341   0.008 -0.0751  0.0250  0.1543
 1281TIP3   OH2 3848   1.317   2.215   3.637 -0.3017  0.2622  0.2247
 1281TIP3    H1 3849   1.259   2.199   3.563 -1.0361 -0.8317  1.0090
 1281TIP3    H2 3850   1.372   2.137   3.641 -0.0779  0.4403  0.6761
 1282TIP3   OH2 3851   0.819   5.354   0.922  0.0732 -0.1995  0.0244
 1282TIP3    H1 3852   0.878   5.319   0.989  0.7431  0.3233 -0.2786
 1282TIP3    H2 3853   0.827   5.293   0.849  0.7696  0.2236 -0.2696
 1283TIP3   OH2 3854   5.155   3.261   4.905  0.1467 -0.1160 -0.0384
 1283TIP3    H1 3855   5.225   3.282   4.843  0.3637  1.6981  0.7414
 1283TIP3    H2 3856   5.082   3.316   4.877 -0.0793 -0.0275  0.7094
 1284TIP3   OH2 3857   4.471   2.630   3.268  0.0416  0.9527 -0.1286
 1284TIP3    H1 3858   4.396   2.690   3.264 -1.3436 -0.6460  0.3646
 1284TIP3    H2 3859   4.545   2.685   3.293 -0.8069  2.7266 -1.2614
 1285TIP3   OH2 3860   0.366   5.098   2.601  0.1205  0.3001 -0.6524
 1285TIP3    H1 3861   0.313   5.032   2.645 -0.3629  0.1863 -1.3772
 1285TIP3    H2 3862   0.415   5.141   2.671  0.9363 -1.2546 -0.2245
 1286TIP3   OH2 3863   3.753   2.701   3.097  0.0764 -0.4563 -0.3529
 1286TIP3    H1 3864   3.832   2.741   3.133 -0.1634  0.0304 -0.3714
 1286TIP3    H2 3865   3.682   2.735   3.151  0.0125 -2.0069  0.6093
 1287TIP3   OH2 3866   0.525   3.374   3.221  0.3082 -1.0968 -0.4084
 1287TIP3    H1 3867   0.546   3.284   3.245  1.7037 -0.5076  0.7523
 1287TIP3    H2 3868   0.568   3.427   3.288 -0.7558  0.4288 -0.8803
 1288TIP3   OH2 3869   3.375   0.413   2.654  0.6248  0.3551 -0.0143
 1288TIP3    H1 3870   3.353   0.321   2.637  2.3838  0.1969 -1.9116
 1288TIP3    H2 3871   3.298   0.462   2.626  0.0609 -0.5001  0.0223
 1289TIP3   OH2 3872   0.211   1.532   0.651 -0.0714  0.0474  0.1160
 1289TIP3    H1 3873   0.231   1.530   0.744  0.2049  1.7755  0.1298
 1289TIP3    H2 3874   0.292   1.503   0.608 -0.3264 -1.1470  0.3896
 1290TIP3   OH2 3875   1.197   3.941   0.515  0.2581 -0.1398  0.5399
 1290TIP3    H1 3876   1.123   3.920   0.459  0.8964  0.5333 -0.5856
 1290TIP3    H2 3877   1.172   4.023   0.558  0.6152  0.4669 -0.3755
 1291TIP3   OH2 3878   6.106   5.923   4.067 -0.3846 -0.3909 -0.3985
 1291TIP3    H1 3879   6.180   5.954   4.120  0.1891 -2.2177 -0.0427
 1291TIP3    H2 3880   6.111   5.974   3.986  0.9896 -0.1646 -0.1959
 1292TIP3   OH2 3881   0.577   1.130   0.620 -0.4688 -0.1261 -0.0906
 1292TIP3    H1 3882   0.525   1.204   0.589  0.0829 -0.4734 -2.0038
 1292TIP3    H2 3883   0.515   1.057   0.625 -0.5789 -0.0565 -0.4057
 1293TIP3   OH2 3884   4.841   0.438   0.657 -0.0718  0.4107 -0.2446
 1293TIP3    H1 3885   4.868   0.499   0.726  0.5377 -0.6670  0.5024
 1293TIP3    H2 3886   4.899   0.459   0.583  1.1061 -0.1525  0.4787
 1294TIP3   OH2 3887   4.746   1.594   1.047 -0.4304  0.3427  0.4754
 1294TIP3    H1 3888   4.727   1.605   1.141  1.7827 -1.3284  1.1926
 1294TIP3    H2 3889   4.823   1.537   1.044  0.7215  1.8650 -2.3387
 1295TIP3   OH2 3890   2.127   5.888   3.501  0.4754  0.0212  0.2604
 1295TIP3    H1 3891   2.057   5.883   3.566 -1.7487 -1.2785 -2.0877
 1295TIP3    H2 3892   2.203   5.848   3.545  0.4553  3.0324  3.4967
 1296TIP3   OH2 3893   3.954   1.809   3.200  0.2573 -0.1977 -0.3766
 1296TIP3    H1 3894   3.963   1.904   3.208  0.8450 -0.3506  1.3097
 1296TIP3    H2 3895   3.879   1.787   3.256 -0.2287 -0.6853 -1.1914
 1297TIP3   OH2 3896   0.338   5.047   4.650 -0.2405 -0.4751  0.0123
 1297TIP3    H1 3897   0.354   4.953   4.651  1.8602 -0.1715  0.4743
 1297TIP3    H2 3898   0.344   5.072   4.558  1.0387 -0.5665  0.0474
 1298TIP3   OH2 3899   3.392   5.697   3.347 -0.2584 -0.2565  0.0550
 1298TIP3    H1 3900   3.479   5.728   3.375  0.0419 -1.7446  0.8988
 1298TIP3    H2 3901   3.392   5.604   3.369 -2.2779 -0.1851  0.5559
 1299TIP3   OH2 3902   0.424   3.552   2.496 -0.0886  0.0746  0.1284
 1299TIP3    H1 3903   0.463   3.632   2.459 -2.3645  0.5317 -1.5042
 1299TIP3    H2 3904   0.490   3.484   2.482  1.2721  1.3503  0.1480
 1300TIP3   OH2 3905   5.355   1.649   2.503  0.5714 -0.2261  0.6578
 1300TIP3    H1 3906   5.422   1.710   2.535  1.3406 -1.1590  0.8602
 1300TIP3    H2 3907   5.333   1.682   2.415  0.3788  0.8029  1.0750
 1301TIP3   OH2 3908   5.214   4.970   4.738  0.2617  0.1311 -0.4712
 1301TIP3    H1 3909   5.141   4.912   4.718  0.8002 -0.4055 -0.9550
 1301TIP3    H2 3910   5.268   4.920   4.799 -0.0664  0.7535  0.3324
 1302TIP3   OH2 3911   0.983   0.113   4.352  0.4033  0.2590  0.7349
 1302TIP3    H1 3912   1.000   0.193   4.402 -1.9975  1.0079  0.4667
 1302TIP3    H2 3913   0.942   0.054   4.415  0.3628 -0.0308  0.4390
 1303TIP3   OH2 3914   5.919   3.294   3.360  0.0128  0.0780 -0.1120
 1303TIP3    H1 3915   5.956   3.316   3.275  0.2260  0.0806 -0.0196
 1303TIP3    H2 3916   5.971   3.220   3.391 -0.3790 -0.2357 -0.1972
 1304TIP3   OH2 3917   1.789   5.879   2.081  0.0012  0.0902  1.1057
 1304TIP3    H1 3918   1.772   5.873   1.987 -0.4646  2.7240  0.9659
 1304TIP3    H2 3919   1.873   5.923   2.088  0.1173 -0.2399  1.9506
 1305TIP3   OH2 3920   0.077   4.286   0.482 -0.0079 -0.8759 -0.0315
 1305TIP3    H1 3921   0.037   4.227   0.546 -1.8403 -0.6918 -0.9354
 1305TIP3    H2 3922   0.043   4.257   0.398  1.1044 -0.1257 -0.7700
 1306TIP3   OH2 3923   2.112   0.027   4.204  0.5337  0.1457  0.3922
 1306TIP3    H1 3924   2.195   0.035   4.250  0.8169 -0.7715  0.0632
 1306TIP3    H2 3925   2.130   0.060   4.116  0.7542 -0.7118  0.1046
 1307TIP3   OH2 3926   2.629   1.240   3.496  0.2126 -0.0944  0.0198
 1307TIP3    H1 3927   2.534   1.231   3.492  0.2285 -0.2905  0.0952
 1307TIP3    H2 3928   2.646   1.330   3.467 -0.0044 -0.0213  0.1182
 1308TIP3   OH2 3929   0.445   2.182   3.289 -0.1768 -0.4501 -0.1818
 1308TIP3    H1 3930   0.390   2.238   3.234 -0.5901 -0.4530  0.2247
 1308TIP3    H2 3931   0.383   2.128   3.338  0.1410  0.3304  1.1157
 1309TIP3   OH2 3932   0.918   4.210   3.784  0.2200  0.1428  0.0626
 1309TIP3    H1 3933   1.000   4.188   3.828  0.3048  0.6782  0.1737
 1309TIP3    H2 3934   0.858   4.236   3.854  0.6169  1.8422 -0.1774
 1310TIP3   OH2 3935   0.067   4.911   1.181 -0.2249  0.6982  0.0311
 1310TIP3    H1 3936   0.086   4.916   1.275 -0.5082 -0.7520  0.1887
 1310TIP3    H2 3937   0.150   4.931   1.138  0.5708 -1.1353  0.6472
 1311TIP3   OH2 3938   3.194   2.570   4.190 -0.2542  0.3737 -0.3856
 1311TIP3    H1 3939   3.242   2.600   4.268  0.4387 -1.7612  0.0764
 1311TIP3    H2 3940   3.153   2.649   4.156  1.8596  1.9420  0.4293
 1312TIP3   OH2 3941   6.247   3.733   2.457  0.0600  0.4872  0.2333
 1312TIP3    H1 3942   6.336   3.738   2.422 -0.4537 -1.2175 -1.4910
 1312TIP3    H2 3943   6.244   3.647   2.501 -0.7579  0.5162  0.2321
 1313TIP3   OH2 3944   1.799   1.460   1.513  0.6812  0.4240  0.5700
 1313TIP3    H1 3945   1.860   1.443   1.442 -2.0562 -0.6411 -1.7209
 1313TIP3    H2 3946   1.799   1.379   1.565 -0.1808 -0.3408 -0.5865
 1314TIP3   OH2 3947   2.587   5.341   5.006 -0.2829  0.0582 -0.2922
 1314TIP3    H1 3948   2.523   5.355   4.936  0.0044 -0.2769 -0.6228
 1314TIP3    H2 3949   2.548   5.274   5.061 -1.6749  2.0473  1.3078
 1315TIP3   OH2 3950   0.272   1.753   2.024  0.3623 -0.3381 -0.6496
 1315TIP3    H1 3951   0.279   1.846   2.001 -1.7533 -0.5959 -2.7102
 1315TIP3    H2 3952   0.310   1.707   1.950 -0.3436 -1.1202 -0.5438
 1316TIP3   OH2 3953   6.037   0.521   0.234  0.2106  0.0154  0.5742
 1316TIP3    H1 3954   5.977   0.567   0.293 -0.2613  0.2634 -0.0846
 1316TIP3    H2 3955   5.980   0.465   0.182  0.3931  1.1225 -0.8677
 1317TIP3   OH2 3956   3.809   5.665   2.260 -0.0975 -0.2763  0.5297
 1317TIP3    H1 3957   3.814   5.761   2.262 -0.1193 -0.2744  1.8297
 1317TIP3    H2 3958   3.724   5.646   2.221  0.0126  0.2251  0.0355
 1318TIP3   OH2 3959   2.111   2.060   3.402 -0.4232 -0.0274  0.4427
 1318TIP3    H1 3960   2.137   2.107   3.323 -2.6953 -0.6926 -0.8002
 1318TIP3    H2 3961   2.130   1.968   3.382 -2.1438 -0.3441  0.1104
 1319TIP3   OH2 3962   1.304   2.033   3.294 -0.0135 -0.2610  0.2306
 1319TIP3    H1 3963   1.393   2.065   3.307 -0.4009  0.9352  0.0438
 1319TIP3    H2 3964   1.250   2.112   3.294 -1.2270 -1.0567  1.5073
 1320TIP3   OH2 3965   5.361   2.351   4.854 -0.8988  0.1514  0.2513
 1320TIP3    H1 3966   5.304   2.412   4.808 -1.1305  0.0786  0.4399
 1320TIP3    H2 3967   5.439   2.344   4.799 -1.2581 -0.0903 -0.2290
 1321TIP3   OH2 3968   1.473   0.761   0.881 -0.6829 -0.3379  0.0702
 1321TIP3    H1 3969   1.435   0.773   0.968 -2.0006  0.3037 -0.5617
 1321TIP3    H2 3970   1.465   0.667   0.864 -1.9768 -0.2317 -0.0133
 1322TIP3   OH2 3971   3.221   4.213   1.337  0.3668 -0.1495 -0.4839
 1322TIP3    H1 3972   3.132   4.178   1.345  0.5331 -0.2416  1.2575
 1322TIP3    H2 3973   3.266   4.149   1.282 -0.3739 -0.6354 -0.5436
 1323TIP3   OH2 3974   2.912   0.639   3.945 -0.7746 -0.2488  0.1473
 1323TIP3    H1 3975   2.950   0.622   3.858 -1.4150 -0.9951 -0.0020
 1323TIP3    H2 3976   2.945   0.567   3.999 -1.8809 -0.8534  0.0358
 1324TIP3   OH2 3977   1.904   1.326   0.568 -0.1014  0.8539 -0.0377
 1324TIP3    H1 3978   1.858   1.269   0.506  0.1455  1.0876 -0.4416
 1324TIP3    H2 3979   1.976   1.272   0.600 -1.5817 -0.1131  1.8740
 1325TIP3   OH2 3980   3.757   2.667   3.388 -0.2796 -0.2973 -0.3281
 1325TIP3    H1 3981   3.742   2.578   3.420  0.5323 -0.0361  0.8488
 1325TIP3    H2 3982   3.718   2.723   3.455  0.5675  0.2509 -0.2836
 1326TIP3   OH2 3983   1.560   5.491   2.409  0.2352 -0.1142  0.2523
 1326TIP3    H1 3984   1.523   5.577   2.427 -2.7718 -1.2629  0.0954
 1326TIP3    H2 3985   1.639   5.509   2.358  0.0503  2.5461  0.8017
 1327TIP3   OH2 3986   3.074   1.458   1.366  0.6626  0.0023  0.2049
 1327TIP3    H1 3987   3.098   1.535   1.417  0.6109 -1.7639  3.1375
 1327TIP3    H2 3988   3.148   1.398   1.377 -0.2042 -1.1767 -0.1854
 1328TIP3   OH2 3989   6.279   5.460   3.697 -0.0147 -0.0704  0.1842
 1328TIP3    H1 3990   6.185   5.471   3.682 -0.1840  1.6030  2.0351
 1328TIP3    H2 3991   6.310   5.548   3.717  1.4281 -0.9764  2.2225
 1329TIP3   OH2 3992   5.582   3.151   2.633  0.4021  0.7072 -0.3271
 1329TIP3    H1 3993   5.509   3.118   2.684 -0.1699  0.7107 -1.1305
 1329TIP3    H2 3994   5.625   3.072   2.599  0.3770  0.7301 -0.4104
 1330TIP3   OH2 3995   3.560   0.034   3.861  0.4764 -0.1269  0.7768
 1330TIP3    H1 3996   3.577   0.117   3.904 -0.7645 -0.1178  1.3098
 1330TIP3    H2 3997   3.464   0.025   3.864  0.6355 -2.0387  1.6698
 1331TIP3   OH2 3998   1.844   0.537   3.826 -0.3853 -0.0252 -0.9186
 1331TIP3    H1 3999   1.858   0.595   3.901 -3.2577 -1.2261  0.7418
 1331TIP3    H2 4000   1.862   0.591   3.749  2.1282  1.4320  0.5825
 1332TIP3   OH2 4001   3.051   3.531   4.281  0.1023  0.4191 -0.1678
 1332TIP3    H1 4002   3.146   3.516   4.276  0.0321  0.2251 -1.1790
 1332TIP3    H2 4003   3.021   3.470   4.348  0.8356  1.2441  0.9316
 1333TIP3   OH2 4004   5.575   3.540   2.000 -0.1297  0.8199  0.5160
 1333TIP3    H1 4005   5.502   3.585   1.956  0.2202  2.1474  1.2132
 1333TIP3    H2 4006   5.619   3.491   1.931 -2.8277 -1.6984  0.4004
 1334TIP3   OH2 4007   0.316   2.032   0.823  0.6035  0.6643  0.5775
 1334TIP3    H1 4008   0.355   1.965   0.880  1.3214  1.1587  0.6864
 1334TIP3    H2 4009   0.391   2.083   0.792  0.0705  1.4103  0.4844
 1335TIP3   OH2 4010   1.608   0.468   2.833 -0.0710 -0.4426  0.4199
 1335TIP3    H1 4011   1.516   0.485   2.850  0.4632  1.3237  1.8746
 1335TIP3    H2 4012   1.634   0.404   2.898  0.1690  0.5967  1.3849
 1336TIP3   OH2 4013   4.652   1.494   4.750 -0.2868  0.0556 -0.3208
 1336TIP3    H1 4014   4.690   1.418   4.705  3.1178  0.5302  1.4188
 1336TIP3    H2 4015   4.618   1.459   4.832 -0.3110  0.1340 -0.2976
 1337TIP3   OH2 4016   0.808   2.959   5.078  0.0083 -0.2457  0.4035
 1337TIP3    H1 4017   0.805   2.868   5.048 -1.1883 -0.6866  1.7653
 1337TIP3    H2 4018   0.894   2.991   5.049  0.3962 -1.7547 -0.2020
 1338TIP3   OH2 4019   0.286   1.566   4.741  0.4103  0.0720  0.2944
 1338TIP3    H1 4020   0.278   1.611   4.657 -0.5305 -0.2827  0.1807
 1338TIP3    H2 4021   0.242   1.623   4.803 -1.8095 -1.1487 -0.0450
 1339TIP3   OH2 4022   5.216   3.676   2.390 -0.4898  0.1277 -0.3463
 1339TIP3    H1 4023   5.156   3.749   2.381 -0.6278 -0.0629 -1.0048
 1339TIP3    H2 4024   5.281   3.689   2.320 -0.6700 -0.5152 -0.6409
 1340TIP3   OH2 4025   5.962   5.511   2.685 -0.3785  0.0418 -0.6401
 1340TIP3    H1 4026   6.005   5.595   2.667  0.2941 -0.0931  0.2616
 1340TIP3    H2 4027   5.901   5.531   2.756  0.7538 -0.4773  0.5271
 1341TIP3   OH2 4028   2.531   1.807   2.558 -0.3621  0.0689  0.1201
 1341TIP3    H1 4029   2.463   1.874   2.567 -1.0144 -0.6979  1.2452
 1341TIP3    H2 4030   2.612   1.856   2.547 -0.5949  1.1440  2.4931
 1342TIP3   OH2 4031   4.784   1.867   3.681 -0.1889  0.1569  0.1638
 1342TIP3    H1 4032   4.750   1.848   3.769  0.2691 -1.8489 -0.0506
 1342TIP3    H2 4033   4.723   1.932   3.646 -1.1630  0.0051  1.4649
 1343TIP3   OH2 4034   6.198   1.715   2.923  0.6991  0.4657  0.3549
 1343TIP3    H1 4035   6.188   1.637   2.868 -1.7276  1.2365 -0.4235
 1343TIP3    H2 4036   6.191   1.682   3.013  2.3708 -0.5119  0.1534
 1344TIP3   OH2 4037   5.565   5.305   2.596  0.0824 -0.2230  0.1407
 1344TIP3    H1 4038   5.641   5.280   2.543  1.0069  1.4304  0.5969
 1344TIP3    H2 4039   5.593   5.290   2.686 -0.3021 -0.0440  0.2907
 1345TIP3   OH2 4040   1.279   4.203   2.477 -0.3189  0.7158  0.4307
 1345TIP3    H1 4041   1.212   4.204   2.546 -0.7938 -1.7010  0.0639
 1345TIP3    H2 4042   1.232   4.178   2.398  0.4387  2.3894 -0.6087
 1346TIP3   OH2 4043   6.240   5.686   3.977 -0.5303  0.2872  0.3640
 1346TIP3    H1 4044   6.187   5.759   4.010 -1.3370  0.7228 -1.7623
 1346TIP3    H2 4045   6.263   5.636   4.055 -2.4081  1.2044  1.5644
 1347TIP3   OH2 4046   4.045   0.855   4.797  0.5909 -0.5993  0.6000
 1347TIP3    H1 4047   4.124   0.908   4.788 -0.5289  0.8871 -1.4241
 1347TIP3    H2 4048   4.054   0.786   4.732  0.7629 -1.1997  1.2469
 1348TIP3   OH2 4049   0.455   5.050   5.064  0.0119  0.3191  0.1814
 1348TIP3    H1 4050   0.430   5.058   5.156 -0.2258 -0.6748  0.2160
 1348TIP3    H2 4051   0.508   4.970   5.060  0.2366  0.4974 -0.4930
 1349TIP3   OH2 4052   4.402   4.984   1.966  0.4736  0.4355 -0.0745
 1349TIP3    H1 4053   4.469   4.919   1.946  0.4319  0.7946 -1.5256
 1349TIP3    H2 4054   4.436   5.031   2.042  1.9098  0.6424 -0.8167
 1350TIP3   OH2 4055   5.519   4.691   3.405 -0.1352  0.5281 -0.1205
 1350TIP3    H1 4056   5.545   4.696   3.313  0.2045  1.5857  0.0244
 1350TIP3    H2 4057   5.600   4.670   3.451 -0.0664  1.1813  0.0578
 1351TIP3   OH2 4058   4.632   0.507   4.943 -0.0585  0.0230 -0.2443
 1351TIP3    H1 4059   4.551   0.461   4.921 -0.1427 -0.6835  1.4190
 1351TIP3    H2 4060   4.629   0.518   5.038  1.1451  1.2560 -0.3145
 1352TIP3   OH2 4061   3.264   0.832   1.160 -0.2402 -0.4108 -0.4977
 1352TIP3    H1 4062   3.207   0.908   1.149  2.0595  1.2718 -1.4966
 1352TIP3    H2 4063   3.332   0.843   1.094  0.6937 -2.8805 -0.0562
 1353TIP3   OH2 4064   1.700   0.247   2.986  0.3113  0.1372 -0.1088
 1353TIP3    H1 4065   1.764   0.176   2.984 -0.3646 -0.5497  0.9806
 1353TIP3    H2 4066   1.712   0.287   3.073  0.1425  0.8464 -0.4036
 1354TIP3   OH2 4067   4.306   5.013   4.722 -0.2479  0.2283  0.1218
 1354TIP3    H1 4068   4.277   5.101   4.745  1.0994  1.1068 -1.3602
 1354TIP3    H2 4069   4.289   5.005   4.628  3.0949  0.4144 -0.6151
 1355TIP3   OH2 4070   1.877   1.608   2.773 -0.6688 -0.4470  0.7914
 1355TIP3    H1 4071   1.900   1.673   2.707 -0.7095 -1.9465 -0.7618
 1355TIP3    H2 4072   1.947   1.615   2.838  0.5029 -0.2997 -0.4337
 1356TIP3   OH2 4073   6.329   1.187   1.488  0.1900 -0.9590  0.1537
 1356TIP3    H1 4074   6.364   1.245   1.555 -0.9858 -2.7632  2.4790
 1356TIP3    H2 4075   6.234   1.201   1.491  0.0085 -2.0416 -0.1947
 1357TIP3   OH2 4076   4.225   3.729   2.171  0.3408 -0.1782 -0.0935
 1357TIP3    H1 4077   4.252   3.637   2.172 -2.2574 -1.0230  1.4716
 1357TIP3    H2 4078   4.248   3.762   2.258  0.0488  0.2763 -0.1879
 1358TIP3   OH2 4079   2.604   1.642   3.969 -0.0171 -0.2914  0.0932
 1358TIP3    H1 4080   2.597   1.576   3.900 -0.1961  0.1529 -0.3143
 1358TIP3    H2 4081   2.513   1.658   3.995  0.0121 -0.0719  0.0615
 1359TIP3   OH2 4082   2.725   2.229   3.459 -0.2961 -0.2366 -0.4386
 1359TIP3    H1 4083   2.766   2.194   3.538  2.0275  1.9741 -0.5125
 1359TIP3    H2 4084   2.762   2.177   3.388  0.2335 -0.0905 -0.2788
 1360TIP3   OH2 4085   0.863   0.032   4.591  0.1864 -0.2797  0.2144
 1360TIP3    H1 4086   0.818   0.116   4.592 -0.1305 -0.4456  0.1648
 1360TIP3    H2 4087   0.793  -0.033   4.578  0.6085 -0.4317 -1.5701
 1361TIP3   OH2 4088   4.478   4.099   2.213 -0.7844 -0.0731 -0.8449
 1361TIP3    H1 4089   4.494   4.011   2.247  0.6396  0.6761  0.5286
 1361TIP3    H2 4090   4.491   4.091   2.118  2.9062 -0.6963 -0.4242
 1362TIP3   OH2 4091   3.268   0.967   0.641  0.2772  0.1657  0.0126
 1362TIP3    H1 4092   3.325   1.037   0.610  0.4798  0.1468  0.3395
 1362TIP3    H2 4093   3.183   1.008   0.653 -1.0440 -0.6430 -4.6317
 1363TIP3   OH2 4094   5.219   3.681   0.062  0.4252  0.1993  0.0983
 1363TIP3    H1 4095   5.249   3.634   0.140 -0.2809 -1.3335 -0.4938
 1363TIP3    H2 4096   5.297   3.690   0.007  1.6325  3.9186  2.1086
 1364TIP3   OH2 4097   4.193   1.260   0.369 -0.1081  0.6471 -0.8731
 1364TIP3    H1 4098   4.156   1.190   0.315 -0.0982  0.6986 -0.9471
 1364TIP3    H2 4099   4.217   1.216   0.451 -2.9986  1.1227  0.3548
 1365TIP3   OH2 4100   5.680   0.823   2.363 -0.7658 -0.5488 -0.0653
 1365TIP3    H1 4101   5.586   0.836   2.346 -0.7193  0.0564  0.1082
 1365TIP3    H2 4102   5.723   0.863   2.288 -0.6216  0.2019  0.4033
 1366TIP3   OH2 4103   0.021   3.219   2.128  0.1344  0.2703  0.0490
 1366TIP3    H1 4104   0.104   3.176   2.147 -0.7876 -1.0272  1.3951
 1366TIP3    H2 4105  -0.006   3.185   2.043  0.7374  0.3280 -0.1646
 1367TIP3   OH2 4106   4.641   1.556   2.270 -0.2503  0.6024  0.6159
 1367TIP3    H1 4107   4.589   1.630   2.241 -0.0022  0.1096 -1.2716
 1367TIP3    H2 4108   4.657   1.505   2.190  1.3172 -0.3885  1.4916
 1368TIP3   OH2 4109   4.057   5.142   4.187  0.6067 -0.2119 -0.3802
 1368TIP3    H1 4110   4.035   5.200   4.114 -0.3431 -0.9253 -0.6741
 1368TIP3    H2 4111   3.976   5.137   4.238  1.1488 -0.0309  0.5116
 1369TIP3   OH2 4112   4.861   4.470   0.831  0.3367  0.5030 -0.1837
 1369TIP3    H1 4113   4.775   4.505   0.852  0.6414  0.6707  0.8500
 1369TIP3    H2 4114   4.920   4.511   0.894  0.8639 -1.1060  0.4166
 1370TIP3   OH2 4115   2.800   0.922   3.276  0.0429 -0.4324 -0.1843
 1370TIP3    H1 4116   2.799   0.937   3.371  0.3463 -1.2685 -0.0404
 1370TIP3    H2 4117   2.790   0.827   3.267 -0.3774 -0.3162 -1.0067
 1371TIP3   OH2 4118   6.062   4.775   2.373  0.0475  0.2331  0.4949
 1371TIP3    H1 4119   6.111   4.772   2.291 -1.2509 -2.0214 -0.2817
 1371TIP3    H2 4120   6.001   4.848   2.361  0.8685  0.8709  0.0898
 1372TIP3   OH2 4121   0.245   2.595   1.846 -0.6023 -0.1869  0.2402
 1372TIP3    H1 4122   0.268   2.571   1.756  0.2087  2.1798 -0.2515
 1372TIP3    H2 4123   0.264   2.516   1.897 -0.5701 -1.4129 -1.5660
 1373TIP3   OH2 4124   3.887   0.037   4.293 -0.0064 -0.2402  0.3373
 1373TIP3    H1 4125   3.919   0.127   4.295 -0.5819 -0.0404  2.1284
 1373TIP3    H2 4126   3.917   0.003   4.209  0.6934  1.4417 -0.1368
 1374TIP3   OH2 4127   5.583   5.716   2.829  0.6208  0.1368  0.1637
 1374TIP3    H1 4128   5.640   5.644   2.855 -0.4905 -0.5571  0.7778
 1374TIP3    H2 4129   5.521   5.725   2.901  0.0084  0.9268 -0.4359
 1375TIP3   OH2 4130   4.688   2.527  -0.004 -0.0078 -0.0534 -0.5334
 1375TIP3    H1 4131   4.744   2.466   0.044  0.3310  0.5130 -0.1939
 1375TIP3    H2 4132   4.611   2.475  -0.028  0.7694 -0.9172 -1.2503
 1376TIP3   OH2 4133   2.562   1.243   0.812 -0.6644  0.2868 -0.7486
 1376TIP3    H1 4134   2.652   1.228   0.783 -0.4164  0.6917 -0.2178
 1376TIP3    H2 4135   2.545   1.173   0.875  1.2556  3.1443  3.4075
 1377TIP3   OH2 4136   3.602   1.696   2.022 -0.2586  0.2594 -0.0572
 1377TIP3    H1 4137   3.684   1.708   1.975 -1.0495 -0.5227 -1.7488
 1377TIP3    H2 4138   3.544   1.764   1.988  0.1666  2.0098  2.4684
 1378TIP3   OH2 4139   3.256   2.668   2.072 -0.8572  0.4717  0.3498
 1378TIP3    H1 4140   3.248   2.576   2.046 -1.6209  0.4557  0.6453
 1378TIP3    H2 4141   3.345   2.692   2.046 -1.0209 -0.0379 -0.7314
 1379TIP3   OH2 4142   0.760   5.759   2.594 -0.6808  0.0388  0.1304
 1379TIP3    H1 4143   0.833   5.703   2.567  1.7637  3.7353 -1.7884
 1379TIP3    H2 4144   0.761   5.832   2.532 -4.1589  1.8602  1.8922
 1380TIP3   OH2 4145   2.966   0.382   1.808  0.0988  0.3689 -0.3434
 1380TIP3    H1 4146   2.898   0.373   1.875  0.5051  2.8939  0.5439
 1380TIP3    H2 4147   2.985   0.476   1.807  1.4247  0.1468 -2.7411
 1381TIP3   OH2 4148   6.267   4.200   3.050  0.0931  0.0058  0.3531
 1381TIP3    H1 4149   6.192   4.209   2.992  0.7989  1.0982 -0.4191
 1381TIP3    H2 4150   6.340   4.177   2.992  1.1063  2.4120  0.5590
 1382TIP3   OH2 4151   0.409   2.134   0.039  0.0996  0.2602 -0.0713
 1382TIP3    H1 4152   0.391   2.175   0.124 -0.4132  0.2668 -0.1803
 1382TIP3    H2 4153   0.497   2.097   0.048  0.6585  1.5612 -0.0385
 1383TIP3   OH2 4154   0.024   5.353   2.936 -0.3173 -0.5050 -0.0623
 1383TIP3    H1 4155  -0.048   5.325   2.880 -0.7193 -1.4643  0.8963
 1383TIP3    H2 4156   0.059   5.272   2.974 -0.1059  0.1130  1.1163
 1384TIP3   OH2 4157   4.638   3.462   4.240  0.2388  0.5317 -0.1277
 1384TIP3    H1 4158   4.670   3.528   4.179  0.2250  0.8186  0.1774
 1384TIP3    H2 4159   4.716   3.410   4.262  0.1693  0.1606 -0.7091
 1385TIP3   OH2 4160   4.871   3.168   1.416  0.1240 -0.5456  0.6328
 1385TIP3    H1 4161   4.806   3.223   1.460  1.4348  1.9813 -0.3983
 1385TIP3    H2 4162   4.862   3.189   1.324  1.1628 -1.5846  0.2654
 1386TIP3   OH2 4163   5.121   3.072   1.453  0.0853  0.5205 -0.5684
 1386TIP3    H1 4164   5.030   3.098   1.438 -0.5863 -0.7314  0.9739
 1386TIP3    H2 4165   5.133   3.082   1.548  1.2251 -0.2818 -0.6047
 1387TIP3   OH2 4166   6.070   3.353   4.025 -0.1027 -0.3250  0.7428
 1387TIP3    H1 4167   6.007   3.385   3.960 -0.3866  0.5444  1.4334
 1387TIP3    H2 4168   6.101   3.270   3.989 -1.4182 -0.6253  0.2517
 1388TIP3   OH2 4169   5.911   4.751   4.858  0.6987 -0.2620  0.1523
 1388TIP3    H1 4170   5.873   4.666   4.878  3.0804 -1.6998 -0.8796
 1388TIP3    H2 4171   5.853   4.814   4.899 -0.8638 -2.4012  1.4465
 1389TIP3   OH2 4172   2.331   5.875   4.571 -0.1148 -0.2309  0.0409
 1389TIP3    H1 4173   2.346   5.788   4.535  1.4674  0.1287 -0.2283
 1389TIP3    H2 4174   2.236   5.886   4.569 -0.3665 -2.1075  0.4867
 1390TIP3   OH2 4175   2.941   4.431   3.681 -0.2849  0.2077  0.9683
 1390TIP3    H1 4176   2.893   4.456   3.760 -0.0908  0.1313  1.1111
 1390TIP3    H2 4177   3.031   4.459   3.697 -0.0505 -0.6250  1.1551
 1391TIP3   OH2 4178   2.160   0.373   0.215 -0.0738 -0.2545  0.2660
 1391TIP3    H1 4179   2.215   0.299   0.188 -0.3686 -0.5517  0.4657
 1391TIP3    H2 4180   2.078   0.359   0.169  0.1197  0.3607 -0.2804
 1392TIP3   OH2 4181   1.062   3.837   4.524 -0.3721  0.1501  0.0347
 1392TIP3    H1 4182   0.989   3.814   4.467  0.6555 -0.9663 -0.8827
 1392TIP3    H2 4183   1.121   3.888   4.468  0.1684 -0.0726  0.3963
 1393TIP3   OH2 4184   3.433   0.596   0.359 -0.4340  0.1598 -0.5143
 1393TIP3    H1 4185   3.455   0.523   0.416  0.2219 -0.4152 -1.4643
 1393TIP3    H2 4186   3.500   0.662   0.377 -0.9702  0.4952  0.2755
 1394TIP3   OH2 4187   1.062   2.204   5.156  0.3510 -0.5457  0.1583
 1394TIP3    H1 4188   1.128   2.273   5.168 -0.1932 -0.2991  2.1909
 1394TIP3    H2 4189   1.026   2.220   5.069  1.6662  0.4710 -0.2280
 1395TIP3   OH2 4190   1.130   0.305   1.305  0.0145 -0.0877  0.2956
 1395TIP3    H1 4191   1.130   0.350   1.220 -1.6022 -0.0782  0.2756
 1395TIP3    H2 4192   1.043   0.321   1.341 -0.1904 -2.1386  0.8578
 1396TIP3   OH2 4193   1.021   4.895   3.066  0.0794 -0.2665 -0.6732
 1396TIP3    H1 4194   1.016   4.927   3.156  1.2744  0.4302 -0.8330
 1396TIP3    H2 4195   1.088   4.827   3.068  0.1604 -0.2026 -1.0460
 1397TIP3   OH2 4196   6.011   5.566   3.672 -0.1136 -0.0594 -0.4296
 1397TIP3    H1 4197   5.934   5.613   3.706 -0.3689  0.0482 -1.1427
 1397TIP3    H2 4198   6.031   5.610   3.589  2.3345  1.6555  0.9398
 1398TIP3   OH2 4199   5.160   5.496   4.850  0.2825 -0.0121 -0.0240
 1398TIP3    H1 4200   5.076   5.501   4.804 -0.3152 -3.0860  0.5334
 1398TIP3    H2 4201   5.150   5.554   4.925 -1.0693  0.1941 -0.3418
 1399TIP3   OH2 4202   4.000   3.062   5.036  0.0719 -0.4227 -0.2191
 1399TIP3    H1 4203   3.974   3.130   4.974  0.4737  0.4452  0.5292
 1399TIP3    H2 4204   4.023   2.987   4.981  0.1732  0.2354 -1.1070
 1400TIP3   OH2 4205   3.896   4.806   4.164 -0.2016  0.0541  0.1565
 1400TIP3    H1 4206   3.832   4.741   4.193 -0.6890  0.3974 -0.1319
 1400TIP3    H2 4207   3.851   4.890   4.172 -0.5195  0.1482 -1.9098
 1401TIP3   OH2 4208   5.358   1.149   4.707 -0.2023  0.0399 -0.7507
 1401TIP3    H1 4209   5.317   1.231   4.732  0.7622  0.7011 -1.2741
 1401TIP3    H2 4210   5.450   1.170   4.695  0.4907 -1.5712  1.1761
 1402TIP3   OH2 4211   6.272   2.243   3.853  0.0363  0.3593  0.0789
 1402TIP3    H1 4212   6.222   2.167   3.882 -0.1137  0.3329 -0.2386
 1402TIP3    H2 4213   6.363   2.220   3.869  0.2290 -1.0016 -2.4180
 1403TIP3   OH2 4214   3.971   3.471   3.368  0.1798  0.6307 -0.4985
 1403TIP3    H1 4215   3.979   3.376   3.357  1.2503  0.6446  0.0937
 1403TIP3    H2 4216   4.051   3.507   3.330 -0.3065  1.3141 -0.8887
 1404TIP3   OH2 4217   0.518   0.145   2.731 -0.1676  0.5091 -0.3427
 1404TIP3    H1 4218   0.454   0.184   2.672 -1.1513 -2.5860 -1.5214
 1404TIP3    H2 4219   0.599   0.142   2.681 -0.5621 -0.5309 -0.9566
 1405TIP3   OH2 4220   5.299   5.420   3.947 -0.1931 -0.5640 -0.2896
 1405TIP3    H1 4221   5.330   5.499   3.904  0.5990  0.4917  2.0385
 1405TIP3    H2 4222   5.219   5.447   3.993 -0.6162 -1.4437 -0.4786
 1406TIP3   OH2 4223   2.791   4.097   1.602  0.1324  0.1865 -0.0758
 1406TIP3    H1 4224   2.797   4.106   1.697  2.3858  1.6362 -0.2784
 1406TIP3    H2 4225   2.745   4.177   1.574 -1.8099 -0.9034 -0.1537
 1407TIP3   OH2 4226   1.646   4.492   1.683  0.1759 -0.3358  0.3954
 1407TIP3    H1 4227   1.586   4.436   1.733  1.7172 -3.1925 -0.7036
 1407TIP3    H2 4228   1.633   4.466   1.592  2.2120 -0.1965  0.0161
 1408TIP3   OH2 4229   0.232   0.945   0.100  0.0114  0.0990  0.8257
 1408TIP3    H1 4230   0.256   1.026   0.144  1.8143 -0.3570  0.7876
 1408TIP3    H2 4231   0.237   0.877   0.168 -0.7960 -0.0875  0.7079
 1409TIP3   OH2 4232   5.082   3.805   4.572  0.0373  0.0039  0.0830
 1409TIP3    H1 4233   5.104   3.718   4.604 -1.4406 -0.1780  0.6802
 1409TIP3    H2 4234   5.081   3.795   4.476  1.2597 -0.2611  0.0839
 1410TIP3   OH2 4235   1.127   0.032   3.000  0.0394  0.0098  0.4803
 1410TIP3    H1 4236   1.124   0.114   2.951  0.3101  0.2185  0.8112
 1410TIP3    H2 4237   1.119   0.057   3.091  0.8726 -0.2629  0.6390
 1411TIP3   OH2 4238   0.259   5.535   4.473  0.2865  0.0419 -0.5465
 1411TIP3    H1 4239   0.306   5.507   4.552  1.5739  0.0567 -1.2878
 1411TIP3    H2 4240   0.209   5.457   4.447  0.0244 -0.0307  0.1426
 1412TIP3   OH2 4241   0.080   0.167   0.417 -0.7946 -0.0843  0.2513
 1412TIP3    H1 4242   0.005   0.121   0.381 -1.5336  1.1877  0.1140
 1412TIP3    H2 4243   0.047   0.211   0.495 -1.0757  3.0818 -1.5136
 1413TIP3   OH2 4244   4.652   5.347   4.506 -0.2023 -0.0943 -0.1349
 1413TIP3    H1 4245   4.658   5.407   4.580 -1.2341 -0.7939  0.5451
 1413TIP3    H2 4246   4.736   5.301   4.505 -0.4258 -0.5571  1.0351
 1414TIP3   OH2 4247   4.162   2.577   3.628 -0.1434 -0.4054 -0.1460
 1414TIP3    H1 4248   4.095   2.547   3.689  0.9114 -1.4924  0.5309
 1414TIP3    H2 4249   4.179   2.502   3.572  1.2124 -0.5211  0.3625
 1415TIP3   OH2 4250   3.087   4.188   3.926 -0.3602  0.1406  0.3632
 1415TIP3    H1 4251   3.004   4.174   3.880  0.4250  0.9716 -1.4199
 1415TIP3    H2 4252   3.153   4.177   3.858  0.8458  2.0641  1.1634
 1416TIP3   OH2 4253   1.915   3.091   5.023  0.3229 -0.3786  0.0613
 1416TIP3    H1 4254   1.982   3.068   4.960  0.7091 -1.0136  0.6858
 1416TIP3    H2 4255   1.960   3.090   5.108 -0.1468  0.6035  0.3331
 1417TIP3   OH2 4256   2.966   2.209   3.047 -0.9272  0.3425  0.5351
 1417TIP3    H1 4257   2.917   2.262   2.985  1.9639 -0.2089 -2.5274
 1417TIP3    H2 4258   2.944   2.118   3.024 -0.3622  0.1340  0.7872
 1418TIP3   OH2 4259   1.490   5.059   3.238 -0.0885 -0.3030 -0.0474
 1418TIP3    H1 4260   1.441   5.077   3.157  1.3075 -0.6457 -1.0165
 1418TIP3    H2 4261   1.549   5.133   3.247 -1.9259  1.0330  2.1136
 1419TIP3   OH2 4262   3.303   1.875   3.929  0.3902  0.1180 -0.1484
 1419TIP3    H1 4263   3.341   1.952   3.972  0.6162 -1.3456  2.5182
 1419TIP3    H2 4264   3.216   1.904   3.901  0.1252  1.1553  1.5928
 1420TIP3   OH2 4265   1.842   5.621   3.089  0.0896  0.0182 -0.0415
 1420TIP3    H1 4266   1.803   5.663   3.166  0.2588 -1.6636  1.0055
 1420TIP3    H2 4267   1.830   5.527   3.104 -0.8794 -0.3447 -2.6261
 1421TIP3   OH2 4268   5.429   5.098   5.003  0.1527  0.1712  0.0607
 1421TIP3    H1 4269   5.511   5.081   5.049  0.8819  0.4930 -1.0652
 1421TIP3    H2 4270   5.446   5.070   4.913 -0.5115  1.4857 -0.5033
 1422TIP3   OH2 4271   0.480   4.900   1.649  0.1312  0.1141  1.2005
 1422TIP3    H1 4272   0.539   4.824   1.646 -1.1880 -1.0042  2.4837
 1422TIP3    H2 4273   0.394   4.863   1.666 -0.4981  1.9418  2.2132
 1423TIP3   OH2 4274   2.820   1.440   2.474  0.9890  0.0934 -0.1981
 1423TIP3    H1 4275   2.881   1.369   2.454  0.1710 -0.1615 -2.0291
 1423TIP3    H2 4276   2.734   1.401   2.464  0.4869  1.5931 -2.6576
 1424TIP3   OH2 4277   5.344   1.166   4.046  0.0139 -0.2122  0.5425
 1424TIP3    H1 4278   5.412   1.231   4.062  1.0711 -1.1757  0.1271
 1424TIP3    H2 4279   5.261   1.214   4.057  0.7528  1.1438  0.3971
 1425TIP3   OH2 4280   3.066   4.111   4.695 -0.5245 -0.5685  0.2128
 1425TIP3    H1 4281   2.977   4.106   4.658  0.2736  1.1576 -2.1320
 1425TIP3    H2 4282   3.116   4.047   4.644  0.0791  0.1378 -0.0920
 1426TIP3   OH2 4283   4.964   5.856   4.842 -0.0468  0.6686 -0.1510
 1426TIP3    H1 4284   4.896   5.922   4.848 -1.4526 -0.7766  0.7101
 1426TIP3    H2 4285   4.949   5.814   4.757 -1.0370 -0.4180  0.5235
 1427TIP3   OH2 4286   0.507   5.086   3.392  0.3194 -0.3289 -0.3430
 1427TIP3    H1 4287   0.585   5.061   3.342 -0.5640 -1.0112 -1.4079
 1427TIP3    H2 4288   0.460   5.004   3.406 -1.9989  0.4471 -2.7914
 1428TIP3   OH2 4289   5.941   1.171   5.156 -0.2190  0.0264 -0.5266
 1428TIP3    H1 4290   6.005   1.110   5.120 -0.6424 -1.0768  0.5403
 1428TIP3    H2 4291   5.875   1.116   5.197 -1.1531  1.1792 -0.4179
 1429TIP3   OH2 4292   2.101   2.071   4.253 -0.3060 -0.5859  0.0378
 1429TIP3    H1 4293   2.034   2.017   4.295 -0.4816 -0.6037 -0.2622
 1429TIP3    H2 4294   2.141   2.013   4.188 -1.0294 -0.1293 -0.8319
 1430TIP3   OH2 4295   4.147   2.631   2.494 -0.3311  0.4968  0.2194
 1430TIP3    H1 4296   4.129   2.611   2.586  1.7967 -0.3625  0.5216
 1430TIP3    H2 4297   4.124   2.723   2.483 -0.6077  0.6046  1.6187
 1431TIP3   OH2 4298   4.299   3.814   1.214  0.5844 -0.2759  0.0379
 1431TIP3    H1 4299   4.330   3.904   1.217  1.6761 -0.6734  1.7364
 1431TIP3    H2 4300   4.348   3.774   1.142  0.4094  0.3595 -0.4400
 1432TIP3   OH2 4301   3.604   4.053   2.954  0.4722 -0.1326 -0.8712
 1432TIP3    H1 4302   3.672   3.987   2.964  2.4982  1.6636 -1.9990
 1432TIP3    H2 4303   3.566   4.061   3.042 -0.2999 -3.1607 -0.8313
 1433TIP3   OH2 4304   0.121   4.129   2.899 -0.3376 -0.3037 -0.6476
 1433TIP3    H1 4305   0.105   4.193   2.829  0.8588  0.5569 -0.1783
 1433TIP3    H2 4306   0.168   4.057   2.855 -0.0495 -0.0061 -0.8311
 1434TIP3   OH2 4307   3.071   2.645   3.638 -0.7186  0.0602  0.4091
 1434TIP3    H1 4308   3.013   2.671   3.566 -1.7967  0.3722  1.3625
 1434TIP3    H2 4309   3.123   2.723   3.657 -0.8920  0.1751  0.4076
 1435TIP3   OH2 4310   6.323   3.406   3.226  0.0925 -0.1660  0.0156
 1435TIP3    H1 4311   6.268   3.484   3.216  0.1773 -0.1460 -0.2852
 1435TIP3    H2 4312   6.362   3.415   3.313  0.1928  0.1833 -0.0682
 1436TIP3   OH2 4313   2.561   2.316   0.456 -0.2965  0.0625  0.3356
 1436TIP3    H1 4314   2.534   2.248   0.518 -1.0866 -2.9436 -3.0331
 1436TIP3    H2 4315   2.656   2.321   0.466 -0.2293 -1.5111  0.6664
 1437TIP3   OH2 4316   4.826   5.371   4.015 -0.1467 -0.1086 -0.4286
 1437TIP3    H1 4317   4.733   5.394   4.015 -0.5272 -1.5012 -1.2005
 1437TIP3    H2 4318   4.827   5.275   4.008  1.3535 -0.0830 -0.9777
 1438TIP3   OH2 4319   2.200   4.598   1.556  0.0325  0.4001 -0.5154
 1438TIP3    H1 4320   2.151   4.680   1.561 -1.7345 -0.6709  2.2207
 1438TIP3    H2 4321   2.210   4.570   1.647  0.3628 -2.5328 -1.3319
 1439TIP3   OH2 4322   5.897   2.850   0.314 -0.3167  0.3023 -0.1940
 1439TIP3    H1 4323   5.922   2.769   0.360  1.3620 -1.3903 -3.6602
 1439TIP3    H2 4324   5.929   2.920   0.370  1.0602 -1.5445  1.4886
 1440TIP3   OH2 4325   0.581   3.631   2.985  0.1353  0.1187  0.1951
 1440TIP3    H1 4326   0.557   3.543   2.956  0.8825 -0.4117  1.1187
 1440TIP3    H2 4327   0.498   3.675   3.000 -0.2490 -0.2228 -0.8406
 1441TIP3   OH2 4328   6.225   0.244   4.190  0.6956 -0.3540  0.2292
 1441TIP3    H1 4329   6.134   0.215   4.192  0.6638 -0.2183  2.2302
 1441TIP3    H2 4330   6.273   0.176   4.237  1.6522 -0.4499 -0.8593
 1442TIP3   OH2 4331   0.987   1.046   0.275 -0.1995  0.4661 -0.6665
 1442TIP3    H1 4332   0.893   1.062   0.283  0.1724  1.8421  1.7224
 1442TIP3    H2 4333   1.025   1.133   0.260  0.7818  0.0790 -0.5151
 1443TIP3   OH2 4334   4.488   1.101   4.960  0.5780  0.1079  0.1634
 1443TIP3    H1 4335   4.561   1.040   4.972  1.1198  0.0543 -2.7446
 1443TIP3    H2 4336   4.469   1.097   4.866 -1.9568  1.5361  0.5398
 1444TIP3   OH2 4337   6.337   1.427   4.713 -0.4835 -0.1777  0.0320
 1444TIP3    H1 4338   6.374   1.506   4.752 -0.0434 -0.3397 -0.0556
 1444TIP3    H2 4339   6.266   1.459   4.657 -0.4505  0.1372  0.1688
 1445TIP3   OH2 4340   1.525   4.645   4.683  0.1467 -0.7781  0.4318
 1445TIP3    H1 4341   1.599   4.586   4.701 -0.3455 -1.8255 -0.8194
 1445TIP3    H2 4342   1.566   4.729   4.663  0.9331 -1.0085  0.9837
 1446TIP3   OH2 4343   1.480   5.323   4.492 -0.4301 -0.7144 -0.6657
 1446TIP3    H1 4344   1.491   5.331   4.397 -2.1023 -0.9541 -0.9172
 1446TIP3    H2 4345   1.410   5.385   4.513 -0.4273 -1.0373  0.3274
 1447TIP3   OH2 4346   2.344   4.720   3.372  0.0441  0.1577  0.0655
 1447TIP3    H1 4347   2.280   4.655   3.343  2.5625 -1.5495 -2.1824
 1447TIP3    H2 4348   2.346   4.785   3.301  1.3677 -0.3026 -0.3503
 1448TIP3   OH2 4349   4.164   5.678   4.634 -0.5825  0.2034 -0.0631
 1448TIP3    H1 4350   4.256   5.687   4.610 -0.6797  2.4889  0.2109
 1448TIP3    H2 4351   4.123   5.636   4.558  0.6233 -0.6127 -0.2848
 1449TIP3   OH2 4352   3.902   0.984   4.469  0.4498 -0.1426  0.4986
 1449TIP3    H1 4353   3.909   0.890   4.481 -1.1391 -0.1609  1.7776
 1449TIP3    H2 4354   3.983   1.010   4.426  1.4016 -1.9268  1.1399
 1450TIP3   OH2 4355   1.639   2.023   0.377 -0.2462 -0.4699  0.4931
 1450TIP3    H1 4356   1.677   2.111   0.371 -1.5040  0.0578  0.1145
 1450TIP3    H2 4357   1.708   1.966   0.342  0.6266  0.3361  0.8317
 1451TIP3   OH2 4358   0.732   3.932   1.034 -0.1400 -0.2377  0.5432
 1451TIP3    H1 4359   0.642   3.948   1.063 -0.0233 -1.1300  1.4436
 1451TIP3    H2 4360   0.738   3.837   1.026  0.4501 -0.1336 -0.4599
 1452TIP3   OH2 4361   1.458   2.339   0.660  0.1854 -0.4516 -0.3418
 1452TIP3    H1 4362   1.384   2.307   0.713  1.7239 -2.3862  0.7660
 1452TIP3    H2 4363   1.420   2.356   0.574 -2.1261  1.4194  0.9033
 1453TIP3   OH2 4364   1.763   4.595   5.009  0.0096  0.4256  0.6699
 1453TIP3    H1 4365   1.825   4.562   4.944  0.5143  2.4466  0.0781
 1453TIP3    H2 4366   1.688   4.536   5.001  1.1162 -0.9809  0.1483
 1454TIP3   OH2 4367   0.963   3.265   2.923 -0.5158  0.1794 -0.3007
 1454TIP3    H1 4368   1.043   3.287   2.876 -0.6041 -2.1166 -1.6854
 1454TIP3    H2 4369   0.964   3.320   3.000  1.3717  1.6485 -1.3023
 1455TIP3   OH2 4370   3.571   1.839   3.652 -0.2852  0.2503 -0.5068
 1455TIP3    H1 4371   3.539   1.753   3.678 -0.6438  0.8193  1.0791
 1455TIP3    H2 4372   3.491   1.892   3.644  0.0488  1.0003  0.8253
 1456TIP3   OH2 4373   6.244   1.800   1.276 -0.4362 -0.3676 -0.8868
 1456TIP3    H1 4374   6.172   1.861   1.268 -0.7552 -0.2271  1.9403
 1456TIP3    H2 4375   6.204   1.714   1.265 -0.6097 -0.1979 -1.5813
 1457TIP3   OH2 4376   0.250   3.687   0.257 -0.1088  0.4192  0.3507
 1457TIP3    H1 4377   0.321   3.704   0.195  1.9780 -1.8158  1.9245
 1457TIP3    H2 4378   0.253   3.760   0.319  0.1834  0.8051 -0.1172
 1458TIP3   OH2 4379   0.260   5.305   0.767 -0.3138  0.4644  0.1243
 1458TIP3    H1 4380   0.311   5.344   0.838  0.3982  3.2530 -1.7925
 1458TIP3    H2 4381   0.324   5.256   0.716 -0.6808 -0.8595  0.8891
 1459TIP3   OH2 4382   0.120   1.730   2.583  0.4231  0.2539 -0.0794
 1459TIP3    H1 4383   0.073   1.693   2.509  0.3814 -0.8727  0.4829
 1459TIP3    H2 4384   0.175   1.658   2.615  0.2920  0.6479  1.0947
 1460TIP3   OH2 4385   5.093   1.332   3.762 -0.2056  0.3477  0.3256
 1460TIP3    H1 4386   5.032   1.402   3.737 -0.1814  0.5641  0.8512
 1460TIP3    H2 4387   5.179   1.366   3.736 -0.3121  0.0055 -0.4948
 1461TIP3   OH2 4388   4.665   5.597   0.992  0.2469  0.1280  0.4795
 1461TIP3    H1 4389   4.613   5.621   1.069 -0.7516 -0.9204  0.1628
 1461TIP3    H2 4390   4.750   5.572   1.028 -0.2745 -0.5489  1.2739
 1462TIP3   OH2 4391   5.590   5.826   0.678 -0.1896 -0.1891 -1.1602
 1462TIP3    H1 4392   5.526   5.896   0.670 -0.1033  0.0054 -0.2596
 1462TIP3    H2 4393   5.548   5.750   0.638 -0.5547  0.2002 -1.5269
 1463TIP3   OH2 4394   5.938   0.911   0.492 -0.2203 -0.4101  0.5429
 1463TIP3    H1 4395   5.868   0.977   0.494 -0.4441 -0.6462  0.5934
 1463TIP3    H2 4396   6.018   0.961   0.477 -0.7217 -0.3971 -2.8489
 1464TIP3   OH2 4397   1.662   0.350   0.371 -0.2483 -0.6122  0.3903
 1464TIP3    H1 4398   1.568   0.358   0.354  0.1351  2.1876 -1.1155
 1464TIP3    H2 4399   1.699   0.319   0.289  0.4722  2.4810 -0.6144
 1465TIP3   OH2 4400   2.505   2.421   2.223 -0.1597  0.4844 -0.4150
 1465TIP3    H1 4401   2.522   2.514   2.211  0.4233  0.3054 -1.0225
 1465TIP3    H2 4402   2.525   2.381   2.139 -0.0680 -0.2402 -0.0624
 1466TIP3   OH2 4403   1.717   2.890   3.411  0.3274  0.6765 -0.2638
 1466TIP3    H1 4404   1.660   2.924   3.342 -0.1695  2.1254  0.8152
 1466TIP3    H2 4405   1.789   2.847   3.364 -1.3233 -0.7272 -1.6650
 1467TIP3   OH2 4406   3.876   2.823   4.736 -0.0239 -0.1523 -0.5048
 1467TIP3    H1 4407   3.949   2.813   4.796 -0.3900 -0.1669 -0.0616
 1467TIP3    H2 4408   3.869   2.738   4.693 -0.0032 -0.2599 -0.2976
 1468TIP3   OH2 4409   5.970   3.218   3.744  0.6990  0.1062 -0.1375
 1468TIP3    H1 4410   5.880   3.242   3.720  0.4159  1.8778  2.2568
 1468TIP3    H2 4411   6.024   3.253   3.673 -0.3836  0.7380 -0.6763
 1469TIP3   OH2 4412   0.326   0.219   1.812 -0.2069  0.0408 -0.0029
 1469TIP3    H1 4413   0.285   0.246   1.730  1.3944  2.0072 -0.2566
 1469TIP3    H2 4414   0.263   0.243   1.879 -0.7831  0.1009 -0.5603
 1470TIP3   OH2 4415   4.154   3.297   4.093  0.2490  0.3206  0.3747
 1470TIP3    H1 4416   4.060   3.303   4.080  0.3853 -1.3590 -2.4840
 1470TIP3    H2 4417   4.191   3.356   4.026  1.1649 -1.0377 -0.3717
 1471TIP3   OH2 4418   1.415   0.300   4.761  0.1421 -0.1068  0.3895
 1471TIP3    H1 4419   1.329   0.320   4.798 -0.9508 -1.0209 -1.4743
 1471TIP3    H2 4420   1.409   0.208   4.737  1.0567  0.2263 -1.2450
 1472TIP3   OH2 4421   0.051   0.250   3.955 -0.0226 -0.0170 -0.3985
 1472TIP3    H1 4422  -0.039   0.257   3.985  0.0985  0.5980 -0.1719
 1472TIP3    H2 4423   0.071   0.156   3.960 -0.5467 -0.1143 -0.1578
 1473TIP3   OH2 4424   2.244   5.926   1.320 -0.1353 -0.0367  0.1136
 1473TIP3    H1 4425   2.181   5.967   1.261  0.8537 -0.2700 -1.1284
 1473TIP3    H2 4426   2.222   5.833   1.316 -0.1338 -0.0410  0.2039
 1474TIP3   OH2 4427   5.304   1.540   1.159  0.3195 -0.0615 -0.3427
 1474TIP3    H1 4428   5.335   1.453   1.133 -0.6506 -0.4217 -0.3169
 1474TIP3    H2 4429   5.340   1.553   1.247  0.9914 -0.1603 -0.5948
 1475TIP3   OH2 4430   3.768   3.200   0.202 -0.1805 -0.1575 -0.0490
 1475TIP3    H1 4431   3.740   3.159   0.121  0.3202  0.7735 -0.7053
 1475TIP3    H2 4432   3.696   3.258   0.226  0.2681  0.6517 -0.6125
 1476TIP3   OH2 4433   5.026   5.726   5.194 -0.3273 -0.2749  0.5836
 1476TIP3    H1 4434   5.073   5.753   5.115 -0.0969  1.1123  1.1602
 1476TIP3    H2 4435   4.959   5.666   5.163 -0.2806  0.2972 -0.6737
 1477TIP3   OH2 4436   1.328   4.679   3.430  0.3968  0.0789 -0.0964
 1477TIP3    H1 4437   1.391   4.729   3.378 -0.5190  0.4216 -0.9061
 1477TIP3    H2 4438   1.289   4.743   3.489 -0.0573  0.1076 -0.4312
 1478TIP3   OH2 4439   1.809   3.985   1.462  0.1214  0.3646  0.0640
 1478TIP3    H1 4440   1.728   3.946   1.430  0.3944 -0.9005  0.8628
 1478TIP3    H2 4441   1.822   3.947   1.548  1.8533  0.1280 -0.2677
 1479TIP3   OH2 4442   4.301   5.274   3.991 -0.2843 -0.2813  0.2034
 1479TIP3    H1 4443   4.380   5.321   4.015 -0.6761  0.8955 -0.7300
 1479TIP3    H2 4444   4.313   5.186   4.029  1.2122  0.0334  0.5191
 1480TIP3   OH2 4445   0.706   0.170   4.271  0.0475 -0.1812  0.4380
 1480TIP3    H1 4446   0.699   0.188   4.177 -0.6548  0.7320  0.6584
 1480TIP3    H2 4447   0.798   0.148   4.284  0.6084  1.6863 -0.1244
 1481TIP3   OH2 4448   4.768   0.825   1.821  0.4945 -0.1065 -0.4198
 1481TIP3    H1 4449   4.759   0.820   1.726  1.8383 -0.7396 -0.5437
 1481TIP3    H2 4450   4.704   0.891   1.848 -1.5659 -1.5473 -1.4910
 1482TIP3   OH2 4451   4.129   0.855   4.105  0.1823 -0.0663 -0.0812
 1482TIP3    H1 4452   4.139   0.818   4.017  0.7695  1.7512 -0.8310
 1482TIP3    H2 4453   4.037   0.881   4.109 -0.1563 -1.2581  0.3359
 1483TIP3   OH2 4454   3.480   3.364   1.526 -0.1157 -0.0159  0.4238
 1483TIP3    H1 4455   3.455   3.317   1.446  0.8679  0.9956 -0.5156
 1483TIP3    H2 4456   3.439   3.315   1.597 -3.8354  0.9050 -0.8864
 1484TIP3   OH2 4457   3.521   4.895   0.027  0.0988  0.0390  0.8720
 1484TIP3    H1 4458   3.534   4.949   0.105  0.6792  0.1244  0.7188
 1484TIP3    H2 4459   3.430   4.913   0.001 -0.1232 -0.0469  1.5672
 1485TIP3   OH2 4460   1.672   2.889   0.579  0.5697  0.4460 -0.3405
 1485TIP3    H1 4461   1.735   2.868   0.510  0.8918  0.2529  0.0038
 1485TIP3    H2 4462   1.633   2.804   0.602  0.5549  0.4891 -0.2041
 1486TIP3   OH2 4463   6.083   2.617   4.347  0.4863  0.2018  0.0407
 1486TIP3    H1 4464   6.097   2.678   4.276 -0.8285 -0.3064 -0.6906
 1486TIP3    H2 4465   6.053   2.536   4.305 -0.5222 -0.0486  1.1598
 1487TIP3   OH2 4466   5.812   5.057   1.456  0.0186 -0.3946 -0.3565
 1487TIP3    H1 4467   5.834   4.969   1.488 -0.5824 -0.3292  0.2466
 1487TIP3    H2 4468   5.874   5.072   1.384  0.2319 -1.2453 -0.3621
 1488TIP3   OH2 4469   4.809   0.941   2.178  0.2163  0.4757 -0.4623
 1488TIP3    H1 4470   4.859   0.906   2.252 -0.7198  0.1794  0.0510
 1488TIP3    H2 4471   4.866   1.007   2.140  0.8321  0.4381  0.3570
 1489TIP3   OH2 4472   5.131   2.054   3.491  0.0245  0.0234 -0.1313
 1489TIP3    H1 4473   5.184   2.003   3.552  0.6539  0.5540 -0.2147
 1489TIP3    H2 4474   5.060   1.995   3.465  1.1393 -1.0793 -0.8040
 1490TIP3   OH2 4475   0.688   0.771   3.844 -0.4227 -0.2804  0.5843
 1490TIP3    H1 4476   0.651   0.856   3.867 -1.3407 -0.4575 -0.1666
 1490TIP3    H2 4477   0.617   0.709   3.860  0.8050 -1.1983  2.9152
 1491TIP3   OH2 4478   0.374   3.961   3.140 -0.3041  0.4291 -0.0400
 1491TIP3    H1 4479   0.373   3.887   3.201 -0.3233  0.4166 -0.0555
 1491TIP3    H2 4480   0.316   4.026   3.181  0.8481  1.0152  0.6981
 1492TIP3   OH2 4481   4.501   2.491   5.073 -0.3732 -0.3121  0.1985
 1492TIP3    H1 4482   4.516   2.524   4.985 -0.2156 -0.1262  0.2951
 1492TIP3    H2 4483   4.408   2.466   5.074 -0.0305 -1.6860 -0.4707
 1493TIP3   OH2 4484   3.876   0.958   1.644  0.1805  0.1436 -0.3104
 1493TIP3    H1 4485   3.782   0.945   1.641 -0.3307  3.1829 -2.2688
 1493TIP3    H2 4486   3.909   0.911   1.567  0.3942 -1.2672  0.6020
 1494TIP3   OH2 4487   0.241   4.715   2.118  0.1857  0.3021  0.5657
 1494TIP3    H1 4488   0.216   4.719   2.026  0.8880  2.1659  0.4208
 1494TIP3    H2 4489   0.213   4.799   2.155  1.1053  0.1218  1.7380
 1495TIP3   OH2 4490   5.944   0.864   0.038  0.3913 -0.3940 -0.2001
 1495TIP3    H1 4491   5.962   0.890  -0.052  0.1353 -0.9058 -0.4055
 1495TIP3    H2 4492   6.010   0.797   0.057  0.7702  0.0784  0.1723
 1496TIP3   OH2 4493   0.097   1.399   3.130  0.3908  0.0311  0.3381
 1496TIP3    H1 4494   0.169   1.452   3.165  2.3614 -2.7331  0.8196
 1496TIP3    H2 4495   0.077   1.336   3.200 -2.2625  0.4058  0.0318
 1497TIP3   OH2 4496   2.571   1.551   1.036 -0.1559  0.7369 -0.6832
 1497TIP3    H1 4497   2.552   1.473   1.088  1.4849  0.3301 -0.6356
 1497TIP3    H2 4498   2.502   1.554   0.970 -0.3196 -0.6886 -0.5995
 1498TIP3   OH2 4499   0.974   0.981   4.150  0.3463 -0.1485  0.6801
 1498TIP3    H1 4500   0.998   1.072   4.133 -1.0233  0.1082  0.0029
 1498TIP3    H2 4501   1.021   0.959   4.230 -0.1904  1.5267  1.5144
 1499TIP3   OH2 4502   4.561   5.840   2.196  0.0047  0.6661 -0.2848
 1499TIP3    H1 4503   4.616   5.761   2.188 -2.4479 -1.0417 -1.3403
 1499TIP3    H2 4504   4.593   5.898   2.127  0.5170 -0.2747 -0.8690
 1500TIP3   OH2 4505   3.088   0.794   0.061  0.0756 -0.2725 -0.5301
 1500TIP3    H1 4506   3.068   0.853  -0.012 -0.4464 -0.4054 -0.4978
 1500TIP3    H2 4507   3.052   0.710   0.033  0.3385 -0.4497 -0.3394
 1501TIP3   OH2 4508   3.276   5.180   0.978 -0.4521  0.0596 -0.2761
 1501TIP3    H1 4509   3.184   5.182   1.003  0.4920  0.8695  3.9420
 1501TIP3    H2 4510   3.304   5.090   0.994  0.3768  0.7826  3.2451
 1502TIP3   OH2 4511   5.374   3.126   2.866  0.3520 -0.2810  0.1532
 1502TIP3    H1 4512   5.307   3.174   2.916 -0.6117 -0.1396 -1.2090
 1502TIP3    H2 4513   5.457   3.158   2.901 -0.2534  2.1180 -0.3906
 1503TIP3   OH2 4514   4.729   4.672   5.124 -0.3886 -0.3290 -0.0897
 1503TIP3    H1 4515   4.791   4.601   5.109  0.4390  0.7985 -2.2484
 1503TIP3    H2 4516   4.652   4.628   5.161  0.4138 -2.2301 -0.5625
 1504TIP3   OH2 4517   5.222   5.851   3.291 -0.2261 -0.0671  0.0413
 1504TIP3    H1 4518   5.160   5.880   3.225 -0.5930 -0.5651  0.1624
 1504TIP3    H2 4519   5.274   5.929   3.311  0.4181 -0.0980 -1.3980
 1505TIP3   OH2 4520   0.774   3.577   4.083 -0.0718  0.3811 -0.2589
 1505TIP3    H1 4521   0.788   3.672   4.080  2.3309  0.0560 -2.4020
 1505TIP3    H2 4522   0.744   3.555   3.994  0.4154 -0.9840 -0.0976
 1506TIP3   OH2 4523   2.357   4.786   1.805 -0.1604 -0.0440 -0.3240
 1506TIP3    H1 4524   2.275   4.835   1.803 -0.4234 -0.4715 -0.0783
 1506TIP3    H2 4525   2.399   4.815   1.887 -0.5689 -0.6309  0.0996
 1507TIP3   OH2 4526   0.207   2.207   3.081 -0.0479  0.0212 -0.5020
 1507TIP3    H1 4527   0.194   2.273   3.149 -0.4580  0.2611 -0.8030
 1507TIP3    H2 4528   0.119   2.170   3.067  0.0493 -0.0887 -0.8346
 1508TIP3   OH2 4529   4.444   5.240   2.673 -0.6086 -0.6384 -0.4911
 1508TIP3    H1 4530   4.376   5.301   2.645 -0.3494 -0.2202 -0.2213
 1508TIP3    H2 4531   4.433   5.232   2.768  1.4460  1.6379  0.0355
 1509TIP3   OH2 4532   3.900   3.577   4.546 -0.3908  0.2544  0.1243
 1509TIP3    H1 4533   3.911   3.670   4.566  0.9295  0.2094 -0.2540
 1509TIP3    H2 4534   3.870   3.576   4.455 -1.0263  0.3162  0.3277
 1510TIP3   OH2 4535   0.831   4.146   1.860  0.2148 -0.2352 -0.7836
 1510TIP3    H1 4536   0.763   4.127   1.796 -1.0701  0.5887  0.3025
 1510TIP3    H2 4537   0.832   4.069   1.918  0.3198 -0.3203 -0.8994
 1511TIP3   OH2 4538   2.613   4.092   3.713 -0.0005 -0.0891  0.6171
 1511TIP3    H1 4539   2.609   4.007   3.757  2.2287 -1.2431 -1.1783
 1511TIP3    H2 4540   2.635   4.071   3.622  1.6180  2.4244  0.3291
 1512TIP3   OH2 4541   3.280  -0.009   4.158  0.5458 -0.0159 -0.0799
 1512TIP3    H1 4542   3.256   0.059   4.221  4.0121  0.9303  0.4560
 1512TIP3    H2 4543   3.230   0.012   4.079 -3.0779 -0.5868  1.8633
 1513TIP3   OH2 4544   0.550   3.789   4.943 -0.0753 -0.9046  0.1420
 1513TIP3    H1 4545   0.489   3.770   5.015  0.0629  0.6531  0.7125
 1513TIP3    H2 4546   0.637   3.776   4.982 -0.0106 -1.0637 -0.0550
 1514TIP3   OH2 4547   0.109   1.077   1.041 -0.6143  0.4566  0.5901
 1514TIP3    H1 4548   0.154   1.125   0.970 -0.1108  1.2222  1.4058
 1514TIP3    H2 4549   0.071   1.001   0.997  3.1757 -1.3947  0.1191
 1515TIP3   OH2 4550   1.758   4.250   0.304  0.3285  0.3457 -0.4208
 1515TIP3    H1 4551   1.790   4.174   0.256 -1.8559 -0.6658 -0.3739
 1515TIP3    H2 4552   1.837   4.290   0.340  1.5284 -2.3235  0.1751
 1516TIP3   OH2 4553   2.420   5.453   0.223 -0.1233  0.2224 -0.2217
 1516TIP3    H1 4554   2.334   5.493   0.239  0.4790  0.7819  1.9959
 1516TIP3    H2 4555   2.405   5.359   0.232 -0.5022  0.3205  0.2001
 1517TIP3   OH2 4556   1.296   1.699   0.179 -0.1697 -0.1551  0.3278
 1517TIP3    H1 4557   1.387   1.719   0.154 -0.0139 -1.4739 -0.2442
 1517TIP3    H2 4558   1.275   1.765   0.245  0.8814  0.7565 -0.1932
 1518TIP3   OH2 4559   0.816   3.001   1.156 -0.4562 -0.0323 -0.5423
 1518TIP3    H1 4560   0.905   3.003   1.122 -0.6767 -1.7560 -1.3169
 1518TIP3    H2 4561   0.788   2.910   1.146 -2.2275  0.4216 -0.1171
 1519TIP3   OH2 4562   1.556   5.779   0.385 -0.3754  1.1038 -0.0389
 1519TIP3    H1 4563   1.462   5.795   0.380 -0.3811  1.2097  0.3417
 1519TIP3    H2 4564   1.585   5.773   0.294 -1.2425 -1.9070 -0.2494
 1520TIP3   OH2 4565   4.237   3.095   3.251 -0.7791  0.2474 -0.3437
 1520TIP3    H1 4566   4.237   3.039   3.328 -1.8555 -0.7100 -0.9983
 1520TIP3    H2 4567   4.285   3.045   3.185 -0.7761  0.5875 -0.6058
 1521TIP3   OH2 4568   2.875   4.098   4.270  0.3606  0.0687 -0.0273
 1521TIP3    H1 4569   2.852   4.104   4.178  0.4197 -1.7884 -0.1935
 1521TIP3    H2 4570   2.792   4.111   4.317  0.0459 -0.5288 -0.4092
 1522TIP3   OH2 4571   4.712   3.389   2.334 -0.0990  0.0120  0.0198
 1522TIP3    H1 4572   4.691   3.309   2.286 -0.7175 -0.4707  1.0560
 1522TIP3    H2 4573   4.723   3.360   2.425 -0.5763  1.1428  0.4531
 1523TIP3   OH2 4574   1.603   5.313   2.089 -0.0270 -0.7255  0.0055
 1523TIP3    H1 4575   1.687   5.285   2.053  1.1304  0.3105  1.7795
 1523TIP3    H2 4576   1.600   5.408   2.073  0.9247 -0.0585  3.2135
 1524TIP3   OH2 4577   1.914   0.208   0.248  0.4307 -0.1356 -0.2787
 1524TIP3    H1 4578   1.958   0.177   0.327 -0.0081  0.9180  0.4058
 1524TIP3    H2 4579   1.840   0.149   0.236 -0.4961  0.6808  1.1036
 1525TIP3   OH2 4580   0.584   0.389   0.080 -0.4497  0.3264 -0.1174
 1525TIP3    H1 4581   0.616   0.355  -0.004 -0.1852 -2.0115  0.8570
 1525TIP3    H2 4582   0.638   0.467   0.096 -1.2256  1.4606 -2.5672
 1526TIP3   OH2 4583   1.208   5.370   3.105 -0.2866 -0.5082  0.4451
 1526TIP3    H1 4584   1.233   5.357   3.197 -1.6137  0.2425  0.9431
 1526TIP3    H2 4585   1.235   5.290   3.061 -0.2409 -1.1665  1.6304
 1527TIP3   OH2 4586   4.196   3.605   4.135 -0.3786  0.1097 -0.0447
 1527TIP3    H1 4587   4.277   3.554   4.127 -0.1387  0.7271 -2.9325
 1527TIP3    H2 4588   4.184   3.618   4.229  1.6467 -1.9058  0.5709
 1528TIP3   OH2 4589   5.393   5.574   3.325  0.3327  0.0675  0.4360
 1528TIP3    H1 4590   5.376   5.663   3.296 -1.5864 -0.3576  0.1516
 1528TIP3    H2 4591   5.488   5.571   3.337  0.6010  1.7449 -0.8497
 1529TIP3   OH2 4592   6.221   5.018   4.927 -0.1706  0.2396  0.4616
 1529TIP3    H1 4593   6.165   4.963   4.872 -0.4092  0.4737  0.4680
 1529TIP3    H2 4594   6.310   4.996   4.900 -0.3036  1.8901 -1.5131
 1530TIP3   OH2 4595   4.091   2.892   1.294  0.1915 -0.3268  0.4494
 1530TIP3    H1 4596   4.145   2.955   1.245  0.1502 -1.5028 -1.2083
 1530TIP3    H2 4597   4.119   2.807   1.260 -2.7487 -0.9934 -0.5777
 1531TIP3   OH2 4598   0.302   5.461   2.209 -0.1162 -0.3958 -0.0962
 1531TIP3    H1 4599   0.374   5.503   2.256  0.1740 -0.3272 -0.5884
 1531TIP3    H2 4600   0.235   5.530   2.202 -0.1647 -0.4115  0.2273
 1532TIP3   OH2 4601   2.894   3.123   3.210  0.2315 -0.2383  0.3625
 1532TIP3    H1 4602   2.977   3.153   3.248 -1.6560  1.5302  3.6124
 1532TIP3    H2 4603   2.865   3.196   3.156  0.6591 -0.7863 -0.6327
 1533TIP3   OH2 4604   4.146   5.486   4.102 -0.0078 -0.8299  0.3445
 1533TIP3    H1 4605   4.051   5.494   4.090  0.1858  2.2186 -0.0646
 1533TIP3    H2 4606   4.172   5.415   4.044 -1.8513 -0.6872 -0.7358
 1534TIP3   OH2 4607   5.155   4.039   3.275 -0.7913 -0.4273  0.1256
 1534TIP3    H1 4608   5.076   4.004   3.234 -0.5852  2.1006 -2.8321
 1534TIP3    H2 4609   5.138   4.133   3.284  1.7819  0.1998 -0.5864
 1535TIP3   OH2 4610   5.795   2.327   0.190 -0.2645  0.1340  0.3050
 1535TIP3    H1 4611   5.795   2.258   0.256  0.1895  0.8069  1.0263
 1535TIP3    H2 4612   5.860   2.390   0.221  0.5718  0.0663 -1.2126
 1536TIP3   OH2 4613   3.952   3.456   0.675  0.0040 -0.5680 -0.5702
 1536TIP3    H1 4614   4.041   3.474   0.705 -0.2484  1.9976 -1.0802
 1536TIP3    H2 4615   3.963   3.415   0.589  0.6584 -2.2588  0.2768
 1537TIP3   OH2 4616   1.254   0.343   4.162  0.1921  0.4443  0.0126
 1537TIP3    H1 4617   1.271   0.399   4.238  3.5883  1.1014 -1.0189
 1537TIP3    H2 4618   1.289   0.258   4.188 -3.5002 -0.9677  0.9774
 1538TIP3   OH2 4619   3.273   5.672   2.462 -0.3844  0.0089  0.1854
 1538TIP3    H1 4620   3.220   5.739   2.419 -1.5967 -0.2287  1.2403
 1538TIP3    H2 4621   3.264   5.595   2.406 -1.5485 -0.1575  0.5743
 1539TIP3   OH2 4622   2.171   4.144   1.424  0.2889  0.3257  0.4444
 1539TIP3    H1 4623   2.094   4.200   1.434 -1.5123 -1.9238  0.0102
 1539TIP3    H2 4624   2.228   4.167   1.498 -1.3274  1.2308  1.4541
 1540TIP3   OH2 4625   3.796   1.752   2.794 -0.0093  0.5607 -0.6024
 1540TIP3    H1 4626   3.781   1.660   2.771  1.6738  0.2100 -0.4273
 1540TIP3    H2 4627   3.759   1.760   2.883  0.2448 -0.0769 -0.4293
 1541TIP3   OH2 4628   1.924   2.078   0.596  0.1694 -0.0580  0.1708
 1541TIP3    H1 4629   1.901   1.987   0.577 -0.5822 -0.0123  0.8089
 1541TIP3    H2 4630   1.855   2.108   0.655  0.4213  0.9223 -0.0189
 1542TIP3   OH2 4631   4.959   5.365   0.445  0.7057  0.6768  0.5722
 1542TIP3    H1 4632   4.989   5.391   0.532 -1.1750  0.0252  1.4564
 1542TIP3    H2 4633   4.869   5.395   0.440 -1.6677 -4.9276  1.5900
 1543TIP3   OH2 4634   1.417   0.262   2.568  0.4003  0.7570  0.0261
 1543TIP3    H1 4635   1.411   0.240   2.661  0.7474  1.8381  0.3217
 1543TIP3    H2 4636   1.407   0.357   2.566 -0.0933  0.6873 -1.0974
 1544TIP3   OH2 4637   1.058   0.965   2.056  0.2074  0.0029  0.3946
 1544TIP3    H1 4638   1.010   1.036   2.100  1.9100  0.5851  1.3995
 1544TIP3    H2 4639   1.026   0.885   2.100  0.9761  0.4800  1.9048
 1545TIP3   OH2 4640   2.937   3.118   3.909 -0.5357  0.2825 -0.0145
 1545TIP3    H1 4641   2.905   3.087   3.994 -0.4237  2.0868  0.7289
 1545TIP3    H2 4642   2.873   3.086   3.846 -0.6696 -1.0126  0.7542
 1546TIP3   OH2 4643   2.516   5.168   2.682 -0.1358 -0.5284 -0.0085
 1546TIP3    H1 4644   2.461   5.160   2.760  0.0983  0.1693  0.2371
 1546TIP3    H2 4645   2.538   5.078   2.659 -0.3652 -0.7521  0.6204
 1547TIP3   OH2 4646   1.575   2.159   3.358 -0.0408  0.2065 -0.0176
 1547TIP3    H1 4647   1.587   2.215   3.435  0.6692  0.4219 -0.2725
 1547TIP3    H2 4648   1.664   2.147   3.324 -0.0850 -1.5827  0.3818
 1548TIP3   OH2 4649   5.984   3.714   1.716  0.3560  0.1073 -0.0131
 1548TIP3    H1 4650   6.072   3.698   1.684  0.6357  1.3115  0.1229
 1548TIP3    H2 4651   5.935   3.746   1.640  0.3436  0.5343  0.1722
 1549TIP3   OH2 4652   4.665   5.100   2.969 -0.2631 -0.4955 -0.0406
 1549TIP3    H1 4653   4.572   5.087   2.949 -0.8220 -0.3167  2.2360
 1549TIP3    H2 4654   4.670   5.099   3.064  2.2331 -1.4703 -0.1086
 1550TIP3   OH2 4655   3.267   1.636   3.788  0.2529  0.1382  0.2567
 1550TIP3    H1 4656   3.273   1.646   3.693 -0.8745 -0.1253  0.1389
 1550TIP3    H2 4657   3.301   1.718   3.824  2.7888 -0.5872 -0.2732
 1551TIP3   OH2 4658   5.478   1.070   1.891  0.0729 -0.5609  0.2396
 1551TIP3    H1 4659   5.545   1.002   1.882  1.1794  0.4052  0.8823
 1551TIP3    H2 4660   5.527   1.149   1.915 -1.1319  0.5885 -0.9503
 1552TIP3   OH2 4661   5.006   0.543   0.454  0.0448 -0.0840  0.3569
 1552TIP3    H1 4662   4.985   0.630   0.488  0.9436  1.0201 -1.7320
 1552TIP3    H2 4663   4.967   0.541   0.366  0.0579 -1.7910  0.3501
 1553TIP3   OH2 4664   4.713   2.621   1.631  0.4556  0.4008  0.2404
 1553TIP3    H1 4665   4.725   2.540   1.581  1.4741  0.8996 -0.3645
 1553TIP3    H2 4666   4.719   2.691   1.565  0.8466  1.0264  0.9220
 1554TIP3   OH2 4667   2.625  -0.020   3.338 -0.0328 -0.7027  0.1731
 1554TIP3    H1 4668   2.606   0.060   3.289 -3.0808 -1.7007 -0.5174
 1554TIP3    H2 4669   2.683   0.008   3.409  0.3352  1.7685 -0.9931
 1555TIP3   OH2 4670   3.641   5.224   4.845 -0.0838  0.4068 -0.4724
 1555TIP3    H1 4671   3.627   5.133   4.870 -1.5330  0.8330  0.4154
 1555TIP3    H2 4672   3.690   5.220   4.763 -0.8758 -1.1963 -0.9042
 1556TIP3   OH2 4673   4.357   4.519   0.780 -0.3165  0.5176 -0.1272
 1556TIP3    H1 4674   4.292   4.564   0.726  0.5615 -0.0245 -1.6703
 1556TIP3    H2 4675   4.382   4.442   0.730 -0.5052 -0.7870  1.7031
 1557TIP3   OH2 4676   3.766   3.080   3.882 -0.1653 -0.2327  0.6197
 1557TIP3    H1 4677   3.843   3.098   3.827 -0.6452  0.6165  0.2140
 1557TIP3    H2 4678   3.803   3.045   3.964  0.6985  0.8394  0.7104
 1558TIP3   OH2 4679   4.815   5.455   1.228  0.7902  0.5525 -0.8435
 1558TIP3    H1 4680   4.861   5.511   1.291 -0.8097 -1.4205  2.3061
 1558TIP3    H2 4681   4.880   5.388   1.205  0.6098 -0.3298  1.0154
 1559TIP3   OH2 4682   5.425   3.747   1.337 -0.3676 -0.1739  0.2170
 1559TIP3    H1 4683   5.366   3.672   1.339 -0.8794  0.2003 -0.3695
 1559TIP3    H2 4684   5.368   3.822   1.318  0.4281  0.0558 -1.4652
 1560TIP3   OH2 4685   3.490   0.797   3.064 -0.1583 -0.0710  0.0032
 1560TIP3    H1 4686   3.446   0.745   2.997  0.4003 -1.2896  0.5424
 1560TIP3    H2 4687   3.520   0.732   3.129 -0.3419  1.0314  1.2287
 1561TIP3   OH2 4688   0.973   5.073   1.042  0.3568 -0.3113  0.2537
 1561TIP3    H1 4689   0.914   5.044   0.973  0.9580 -3.9518  1.0666
 1561TIP3    H2 4690   0.916   5.101   1.113 -0.3348 -1.1770  0.0438
 1562TIP3   OH2 4691   0.397   0.679   2.544  0.0011  0.6088 -0.1721
 1562TIP3    H1 4692   0.431   0.598   2.506 -0.1006 -0.0481  1.0816
 1562TIP3    H2 4693   0.324   0.703   2.487  1.4186  1.0939 -1.8821
 1563TIP3   OH2 4694   5.970   0.167   0.584  0.4252  0.1042 -0.1103
 1563TIP3    H1 4695   6.040   0.174   0.519  0.9837 -0.5449  0.3988
 1563TIP3    H2 4696   5.918   0.246   0.572  0.6889  0.1353 -1.1442
 1564TIP3   OH2 4697   4.748   5.374   3.072  0.2138 -0.5844 -0.2803
 1564TIP3    H1 4698   4.764   5.324   3.152  2.7590  0.2596 -0.1752
 1564TIP3    H2 4699   4.724   5.309   3.006 -0.5335 -1.4388  0.8083
 1565TIP3   OH2 4700   4.334   2.344   2.467 -0.0165 -0.7179 -0.3588
 1565TIP3    H1 4701   4.362   2.429   2.500 -0.9424 -0.8568  0.8571
 1565TIP3    H2 4702   4.390   2.328   2.391  0.5980  0.6799 -0.2275
 1566TIP3   OH2 4703   5.462   1.817   1.126 -0.2673 -0.0903 -0.9635
 1566TIP3    H1 4704   5.430   1.839   1.213  0.6191  1.1052 -0.9111
 1566TIP3    H2 4705   5.396   1.756   1.090  0.1085 -1.8073  1.0753
 1567TIP3   OH2 4706   4.274   2.151   5.060  0.1536  0.2003  0.5056
 1567TIP3    H1 4707   4.282   2.066   5.103 -0.6123 -0.1954 -0.0942
 1567TIP3    H2 4708   4.181   2.156   5.036  0.5097  0.4891 -0.8999
 1568TIP3   OH2 4709   5.362   0.142   2.450 -0.3435  0.1095  0.7767
 1568TIP3    H1 4710   5.311   0.219   2.426 -0.6736  0.2868  1.9645
 1568TIP3    H2 4711   5.453   0.165   2.430 -0.3687  1.0497  1.6707
 1569TIP3   OH2 4712   4.223   3.496   0.447 -0.9052 -0.2039  0.2214
 1569TIP3    H1 4713   4.241   3.485   0.540 -0.6727 -2.9071 -0.0448
 1569TIP3    H2 4714   4.192   3.410   0.419 -0.4130  0.3704 -2.3240
 1570TIP3   OH2 4715   2.256   5.938   1.862  0.9506 -0.0089 -0.1103
 1570TIP3    H1 4716   2.285   5.936   1.771 -1.9873  0.8349 -1.2013
 1570TIP3    H2 4717   2.170   5.895   1.861  0.9636 -0.2597  2.3480
 1571TIP3   OH2 4718   5.675   4.582   4.878  0.2575 -0.1091 -0.5434
 1571TIP3    H1 4719   5.588   4.544   4.887  0.5240 -0.6020  0.0152
 1571TIP3    H2 4720   5.735   4.514   4.908  0.8329  0.2575 -0.8316
 1572TIP3   OH2 4721   4.029   5.223   4.678 -0.1715  0.0617  0.1865
 1572TIP3    H1 4722   4.008   5.133   4.705  0.1935  0.1679  0.8356
 1572TIP3    H2 4723   3.944   5.264   4.664 -0.3645 -0.0864  0.8965
 1573TIP3   OH2 4724   3.890   2.647   0.048 -0.7223  0.3598 -0.8221
 1573TIP3    H1 4725   3.873   2.675   0.138 -0.3529 -2.0027  0.0431
 1573TIP3    H2 4726   3.813   2.678  -0.001 -1.0997  1.3726  0.3597
 1574TIP3   OH2 4727   1.393   2.194   1.392 -0.2172 -0.0904  0.3854
 1574TIP3    H1 4728   1.377   2.285   1.366 -0.4392 -0.2170  0.0750
 1574TIP3    H2 4729   1.485   2.192   1.417 -0.5431  0.5445  1.7418
 1575TIP3   OH2 4730   4.894   5.038   4.257 -0.3363  0.4065 -0.0246
 1575TIP3    H1 4731   4.984   5.071   4.265 -0.2228 -0.0905  0.9035
 1575TIP3    H2 4732   4.875   5.044   4.164  1.0096 -0.3645 -0.3770
 1576TIP3   OH2 4733   1.809   5.429   3.553  0.0418 -0.5072  0.3548
 1576TIP3    H1 4734   1.856   5.357   3.595 -0.7238 -1.8432 -0.9727
 1576TIP3    H2 4735   1.878   5.484   3.515  0.6578 -0.2202  1.8201
 1577TIP3   OH2 4736   1.202   4.499   3.266  0.6769  0.0234 -0.0436
 1577TIP3    H1 4737   1.180   4.543   3.183 -0.2608 -2.2316 -1.0769
 1577TIP3    H2 4738   1.261   4.560   3.310  0.3806  1.7755 -1.8804
 1578TIP3   OH2 4739   1.781   5.535   1.105  0.6249 -0.6104 -0.5880
 1578TIP3    H1 4740   1.691   5.567   1.094  1.3555  2.0079  0.2147
 1578TIP3    H2 4741   1.809   5.512   1.017 -0.0674  0.8498 -1.2204
 1579TIP3   OH2 4742   5.868   3.783   1.480  0.0704  0.4052 -0.5400
 1579TIP3    H1 4743   5.811   3.755   1.408  0.7084  0.1872 -0.9685
 1579TIP3    H2 4744   5.824   3.860   1.516 -0.5318  0.1995 -0.8197
 1580TIP3   OH2 4745   1.483   3.925   2.470  0.8249 -0.7013 -0.6806
 1580TIP3    H1 4746   1.471   3.953   2.560  1.5484 -1.4734 -0.3303
 1580TIP3    H2 4747   1.464   4.003   2.417 -1.3373 -0.6798  0.0173
 1581TIP3   OH2 4748   4.139   5.065   1.978 -0.2462 -0.0475  0.6201
 1581TIP3    H1 4749   4.233   5.078   1.989 -0.5770  1.3522  2.2168
 1581TIP3    H2 4750   4.115   5.000   2.045 -0.4927 -0.0684  0.5149
 1582TIP3   OH2 4751   0.180   3.999   0.621 -0.3153 -0.0339  0.7057
 1582TIP3    H1 4752   0.136   3.990   0.536 -0.9004 -1.8400  1.1719
 1582TIP3    H2 4753   0.209   4.091   0.623  1.5468 -0.4168 -2.3188
 1583TIP3   OH2 4754   1.690   2.541   2.408  0.6933 -0.0175  0.2965
 1583TIP3    H1 4755   1.745   2.550   2.486 -0.1274 -0.3528  0.9372
 1583TIP3    H2 4756   1.600   2.551   2.441  0.2969 -0.8114 -0.4861
 1584TIP3   OH2 4757   1.826   4.880   1.165 -0.0691  0.0014 -0.1915
 1584TIP3    H1 4758   1.752   4.844   1.116 -0.5721  1.0937 -0.2746
 1584TIP3    H2 4759   1.787   4.918   1.243  0.3392  0.8970 -0.4077
 1585TIP3   OH2 4760   3.798   5.248   1.669 -0.8167  0.1973  0.5938
 1585TIP3    H1 4761   3.802   5.243   1.764  2.0632 -0.5498  0.5020
 1585TIP3    H2 4762   3.889   5.251   1.640 -1.5840 -0.0136 -2.1709
 1586TIP3   OH2 4763   0.349   3.389   4.740 -0.2454 -0.8668  0.5380
 1586TIP3    H1 4764   0.424   3.329   4.739 -0.4876 -1.1782  0.6725
 1586TIP3    H2 4765   0.305   3.371   4.823  0.0376 -0.0401  0.8767
 1587TIP3   OH2 4766   5.421   4.493   1.536 -0.0804  0.5052  0.4198
 1587TIP3    H1 4767   5.341   4.443   1.523 -0.5911  1.3558  0.2652
 1587TIP3    H2 4768   5.453   4.466   1.622  0.8855 -1.7799 -0.5871
 1588TIP3   OH2 4769   1.488   4.026   3.631  0.9177 -0.1759  0.4882
 1588TIP3    H1 4770   1.538   4.090   3.582 -1.3321  0.7172 -0.8157
 1588TIP3    H2 4771   1.417   4.077   3.672  1.1491 -1.3197  2.4326
 1589TIP3   OH2 4772   3.085   3.963   0.830  0.1158 -0.2848 -0.3304
 1589TIP3    H1 4773   3.035   4.043   0.842 -0.9615 -0.9454 -0.2501
 1589TIP3    H2 4774   3.171   3.982   0.868 -0.1922  0.7456 -0.1213
 1590TIP3   OH2 4775   4.544   0.651   1.642  0.4835  0.0347 -0.0140
 1590TIP3    H1 4776   4.635   0.634   1.620  0.1540 -0.3836 -1.1307
 1590TIP3    H2 4777   4.515   0.714   1.575  0.4584  1.6409  1.4376
 1591TIP3   OH2 4778   1.124   2.739   1.523 -0.1960 -0.2147 -0.5156
 1591TIP3    H1 4779   1.129   2.708   1.613 -0.5551 -0.2300 -0.4979
 1591TIP3    H2 4780   1.120   2.659   1.471 -0.2798 -0.2049 -0.5248
 1592TIP3   OH2 4781   4.333   3.473   1.692  0.5448  0.3188 -0.5369
 1592TIP3    H1 4782   4.377   3.475   1.607 -0.0510 -0.3135 -0.8690
 1592TIP3    H2 4783   4.242   3.494   1.672  0.2796 -0.4323 -0.1396
 1593TIP3   OH2 4784   3.322   2.461   3.813  0.2588 -0.0595  0.1930
 1593TIP3    H1 4785   3.238   2.506   3.802 -0.5522 -1.4686  0.3791
 1593TIP3    H2 4786   3.387   2.523   3.778 -1.0498  0.2326 -1.9005
 1594TIP3   OH2 4787   6.157   0.246   0.348  0.0254 -0.3108 -0.3407
 1594TIP3    H1 4788   6.082   0.297   0.319  0.0872  0.0586  0.1351
 1594TIP3    H2 4789   6.221   0.254   0.276  0.5659  1.4167  0.2803
 1595TIP3   OH2 4790   4.803   0.552   1.631 -0.0191  0.4935  0.0926
 1595TIP3    H1 4791   4.835   0.560   1.721 -0.4772  0.0597  0.3021
 1595TIP3    H2 4792   4.784   0.458   1.621 -0.5225  0.6270 -0.2616
 1596TIP3   OH2 4793   1.738   3.034   4.657 -0.3239 -0.2304  0.0918
 1596TIP3    H1 4794   1.699   3.040   4.569 -1.5436 -1.1358  0.5353
 1596TIP3    H2 4795   1.713   3.116   4.700  3.3461  1.9756 -1.4831
 1597TIP3   OH2 4796   0.307   5.530   2.624 -0.1021  0.7753 -0.2884
 1597TIP3    H1 4797   0.347   5.599   2.571  0.7963 -1.6181 -2.9725
 1597TIP3    H2 4798   0.380   5.488   2.669 -0.4193  0.4237 -0.0901
 1598TIP3   OH2 4799   5.271   4.562   3.986 -0.0372  0.3676  0.0582
 1598TIP3    H1 4800   5.245   4.653   3.998  0.0593  0.8133 -2.4642
 1598TIP3    H2 4801   5.367   4.565   3.981 -0.0885  0.6675 -2.7794
 1599TIP3   OH2 4802   3.437   5.843   3.724 -0.4238  0.0001  0.1068
 1599TIP3    H1 4803   3.406   5.782   3.791  1.7585 -0.8664  0.4184
 1599TIP3    H2 4804   3.367   5.843   3.658 -2.3940  0.4916  2.0674
 1600TIP3   OH2 4805   5.716   5.264   2.302 -0.3033 -0.3905  0.8372
 1600TIP3    H1 4806   5.762   5.199   2.249  0.0146 -0.3809  1.0964
 1600TIP3    H2 4807   5.778   5.288   2.370 -0.6342 -0.2515  1.0953
 1601TIP3   OH2 4808   0.767   5.960   1.246  0.4324 -0.1331  0.1298
 1601TIP3    H1 4809   0.720   5.936   1.166  0.4795  0.1253  0.0226
 1601TIP3    H2 4810   0.701   5.954   1.315 -0.2429  1.9110 -0.2590
 1602TIP3   OH2 4811   2.771   4.972   2.784  0.1733  0.4185  0.0796
 1602TIP3    H1 4812   2.815   4.983   2.699  0.1002  0.6766  0.0749
 1602TIP3    H2 4813   2.682   4.946   2.762 -0.0344  1.1215  0.0587
 1603TIP3   OH2 4814   0.740   3.081   2.620  0.6061 -0.6790 -0.1943
 1603TIP3    H1 4815   0.670   3.050   2.678 -0.3931  1.0316 -0.4152
 1603TIP3    H2 4816   0.753   3.172   2.645 -0.0288  0.2174 -2.7742
 1604TIP3   OH2 4817   5.501   5.989   4.432 -0.0212  0.4877  0.1265
 1604TIP3    H1 4818   5.435   5.928   4.398 -0.8507  1.8365 -0.7698
 1604TIP3    H2 4819   5.543   6.024   4.354  1.5119 -0.0317  0.6766
 1605TIP3   OH2 4820   5.067   3.139   2.586  0.3851 -0.2819 -0.6034
 1605TIP3    H1 4821   4.996   3.161   2.646  1.0873 -1.7578  0.8524
 1605TIP3    H2 4822   5.114   3.221   2.573  0.4508  0.0011  1.2088
 1606TIP3   OH2 4823   0.428   0.566   4.671  0.0231  0.3871 -0.4320
 1606TIP3    H1 4824   0.422   0.564   4.575 -2.3334 -1.8562 -0.3559
 1606TIP3    H2 4825   0.422   0.474   4.697  2.8492  0.7183  1.8628
 1607TIP3   OH2 4826   5.594   4.031   2.655  0.6725  0.3877  0.0100
 1607TIP3    H1 4827   5.567   4.017   2.745  0.7582 -1.3187 -0.1953
 1607TIP3    H2 4828   5.523   3.994   2.603  0.7142  1.1812 -0.6400
 1608TIP3   OH2 4829   3.859   1.387   4.847  0.0483 -0.4578 -0.0811
 1608TIP3    H1 4830   3.806   1.356   4.773 -0.6468 -0.7027  0.5040
 1608TIP3    H2 4831   3.899   1.308   4.883 -0.4267 -0.4851  0.4138
 1609TIP3   OH2 4832   1.729   4.399   4.506 -0.2380 -0.5325 -0.6300
 1609TIP3    H1 4833   1.697   4.463   4.443 -1.3575  0.7543  1.1738
 1609TIP3    H2 4834   1.652   4.348   4.530 -0.2397  0.1764  1.0024
 1610TIP3   OH2 4835   0.222   3.733   4.561 -0.2703  0.0688 -0.4972
 1610TIP3    H1 4836   0.219   3.647   4.521 -0.6409  0.7387 -1.9679
 1610TIP3    H2 4837   0.307   3.737   4.605 -0.4120 -1.1660 -0.0855
 1611TIP3   OH2 4838   4.813   4.629   1.691 -0.5169 -0.0501 -1.1693
 1611TIP3    H1 4839   4.906   4.651   1.694 -0.7705  1.2819 -2.4200
 1611TIP3    H2 4840   4.810   4.547   1.641 -0.0385 -0.0139 -1.2676
 1612TIP3   OH2 4841   0.223   5.387   0.183  0.1651  0.3310 -0.0965
 1612TIP3    H1 4842   0.207   5.404   0.276 -3.2633 -0.4870 -0.4202
 1612TIP3    H2 4843   0.252   5.471   0.148 -0.0824  1.0837  1.4162
 1613TIP3   OH2 4844   1.517   4.202   4.926  0.0544 -0.7264  0.2503
 1613TIP3    H1 4845   1.484   4.133   4.869  0.3836 -0.6167 -0.0768
 1613TIP3    H2 4846   1.612   4.195   4.919  0.1557 -1.7193  1.9706
 1614TIP3   OH2 4847   4.207   0.339   4.159 -0.1658  0.2657  0.0119
 1614TIP3    H1 4848   4.283   0.281   4.168 -0.1595  0.3276  0.3989
 1614TIP3    H2 4849   4.230   0.399   4.089 -0.2410 -0.3072 -0.5070
 1615TIP3   OH2 4850   2.280   0.649   4.291  0.1072  0.5040  0.6062
 1615TIP3    H1 4851   2.221   0.722   4.309  0.0591  1.0168 -1.3413
 1615TIP3    H2 4852   2.230   0.594   4.230  1.3304  0.5559 -0.4790
 1616TIP3   OH2 4853   5.134   5.126   1.907  0.5427 -0.3348  0.0167
 1616TIP3    H1 4854   5.160   5.034   1.910 -0.2105 -0.5929 -0.8844
 1616TIP3    H2 4855   5.140   5.149   1.814  2.0007  0.9124  0.3857
 1617TIP3   OH2 4856   4.056   0.555   1.226 -0.4156 -0.5795  0.1225
 1617TIP3    H1 4857   4.081   0.499   1.300 -0.0275  0.9177  1.1710
 1617TIP3    H2 4858   3.973   0.594   1.253  0.5013  1.1976  0.4980
 1618TIP3   OH2 4859   5.824   4.713   1.992 -0.0205 -0.4189 -0.0882
 1618TIP3    H1 4860   5.880   4.703   1.915 -0.7281 -1.2059 -0.5109
 1618TIP3    H2 4861   5.854   4.647   2.054  1.1339  0.7905  0.6987
 1619TIP3   OH2 4862   3.101   3.610   0.901  0.1993  0.4001 -0.1417
 1619TIP3    H1 4863   3.179   3.565   0.868 -0.2636 -1.0604  0.6521
 1619TIP3    H2 4864   3.134   3.694   0.933  1.3076  0.1392 -0.5347
 1620TIP3   OH2 4865   4.886   2.280   3.864 -0.1328 -0.7368 -0.1827
 1620TIP3    H1 4866   4.966   2.239   3.830  0.1162 -0.2897 -0.1410
 1620TIP3    H2 4867   4.815   2.231   3.823  0.1497 -1.6730  0.4105
 1621TIP3   OH2 4868   1.288   0.285   2.107  1.0118  0.4409  0.1635
 1621TIP3    H1 4869   1.313   0.234   2.184  2.0727 -0.0110 -0.4559
 1621TIP3    H2 4870   1.224   0.230   2.062 -0.0725  0.9716  1.0165
 1622TIP3   OH2 4871   4.500   4.942   5.023  0.3496 -0.0944  0.1258
 1622TIP3    H1 4872   4.566   4.874   5.036  1.8779  1.1963 -0.5658
 1622TIP3    H2 4873   4.493   4.986   5.107 -2.0024 -2.1676  1.1399
 1623TIP3   OH2 4874   6.243   4.561  -0.011  0.4363  0.3242 -0.3366
 1623TIP3    H1 4875   6.325   4.590  -0.051  0.3383  0.8474 -0.1611
 1623TIP3    H2 4876   6.243   4.601   0.076  0.3995 -0.3801 -0.0094
 1624TIP3   OH2 4877   4.167   1.097   1.434  0.7595 -0.3960 -0.7700
 1624TIP3    H1 4878   4.144   1.007   1.413  1.5728 -0.7990  0.0133
 1624TIP3    H2 4879   4.122   1.150   1.368 -0.2322 -1.3246 -0.8518
 1625TIP3   OH2 4880   5.654   5.845   0.301  0.3310 -0.2324  0.4029
 1625TIP3    H1 4881   5.578   5.788   0.317  1.1869 -2.1258 -1.7912
 1625TIP3    H2 4882   5.634   5.890   0.220  1.0206  0.2271  0.4788
 1626TIP3   OH2 4883   1.325   5.752   0.788 -0.9056  0.1233  0.3743
 1626TIP3    H1 4884   1.363   5.834   0.819  0.0652 -0.1761  0.0147
 1626TIP3    H2 4885   1.399   5.691   0.785 -1.3347 -0.3692 -0.7076
 1627TIP3   OH2 4886   2.096   4.623   3.803  0.1479  0.1259 -0.7436
 1627TIP3    H1 4887   2.130   4.564   3.736  0.6031 -1.5083  0.8538
 1627TIP3    H2 4888   2.070   4.566   3.875  1.1425  1.8777  1.1213
 1628TIP3   OH2 4889   3.162   3.214   2.670  0.2682  0.7509  0.1217
 1628TIP3    H1 4890   3.112   3.290   2.642  0.2344  0.4108 -0.7402
 1628TIP3    H2 4891   3.172   3.226   2.765 -1.4728  0.7936  0.3235
 1629TIP3   OH2 4892   6.320   4.842   4.017 -0.0192  0.0713  0.2769
 1629TIP3    H1 4893   6.338   4.929   4.051  1.3996 -0.1367  0.1208
 1629TIP3    H2 4894   6.330   4.784   4.093 -0.6333  0.0072  0.3112
 1630TIP3   OH2 4895   3.490   1.680   1.628 -0.8211  0.0545 -0.1196
 1630TIP3    H1 4896   3.444   1.750   1.674 -0.0873  0.1799  0.4234
 1630TIP3    H2 4897   3.579   1.712   1.616 -0.0264 -1.3943  1.5244
 1631TIP3   OH2 4898   1.357   1.618   3.578  0.3504 -0.0266 -0.5040
 1631TIP3    H1 4899   1.396   1.684   3.521  1.8279  0.4628  1.0096
 1631TIP3    H2 4900   1.302   1.668   3.638 -0.7887 -0.4916 -1.1263
 1632TIP3   OH2 4901   3.344   3.314   0.712  0.0292  0.0554 -0.0824
 1632TIP3    H1 4902   3.378   3.311   0.623 -0.4545 -0.2258 -0.2555
 1632TIP3    H2 4903   3.286   3.238   0.719  0.8430 -0.5110  0.7840
 1633TIP3   OH2 4904   1.409   3.211   3.197  0.7643 -0.1007  0.1817
 1633TIP3    H1 4905   1.464   3.270   3.248 -0.0579 -0.1262  1.1147
 1633TIP3    H2 4906   1.403   3.253   3.111  1.2267  0.5261  0.4486
 1634TIP3   OH2 4907   4.624   1.093   1.534 -0.0590 -0.2549 -0.3395
 1634TIP3    H1 4908   4.635   1.131   1.447 -0.5632 -1.2192 -0.8383
 1634TIP3    H2 4909   4.641   1.000   1.522  0.3182 -0.3345  0.6967
 1635TIP3   OH2 4910   2.502   3.387   2.195 -0.4668  0.3253 -0.1057
 1635TIP3    H1 4911   2.500   3.293   2.212  1.7129  0.4597  1.3044
 1635TIP3    H2 4912   2.462   3.426   2.273 -1.0086  0.6150 -0.5156
 1636TIP3   OH2 4913   4.275   1.856   1.042  0.1494  0.0341  0.3409
 1636TIP3    H1 4914   4.242   1.827   1.127 -1.2957  0.2836 -0.0993
 1636TIP3    H2 4915   4.326   1.781   1.010  0.6489 -0.0898  1.3773
 1637TIP3   OH2 4916   0.864   5.580   1.893 -0.0532  0.1531  0.0379
 1637TIP3    H1 4917   0.885   5.487   1.881  1.1799  0.5957 -1.5772
 1637TIP3    H2 4918   0.829   5.585   1.982  0.7653 -1.6969  0.5192
 1638TIP3   OH2 4919   3.122   5.171   0.239  0.4765  0.2332 -0.3316
 1638TIP3    H1 4920   3.211   5.160   0.274 -0.2303 -1.7149  1.0120
 1638TIP3    H2 4921   3.134   5.175   0.144  2.0641  0.9459 -0.1283
 1639TIP3   OH2 4922   3.093   3.957   4.078  0.6614  0.4435 -0.4706
 1639TIP3    H1 4923   3.095   4.049   4.051 -0.7561  0.8789  0.8206
 1639TIP3    H2 4924   3.165   3.949   4.141  0.4461  0.8050 -0.1768
 1640TIP3   OH2 4925   3.580   4.782   0.516 -0.2803 -0.1260  0.0772
 1640TIP3    H1 4926   3.653   4.733   0.553  0.2668  0.7443  0.1831
 1640TIP3    H2 4927   3.502   4.745   0.558  0.0152 -1.5380 -0.5420
 1641TIP3   OH2 4928   0.479   3.827   1.402  0.2614 -0.2235  0.0444
 1641TIP3    H1 4929   0.518   3.910   1.374 -0.5484 -0.0037 -0.4815
 1641TIP3    H2 4930   0.494   3.768   1.328 -0.9666  0.0543 -0.4410
 1642TIP3   OH2 4931   5.855   2.214   4.619 -0.0470  0.4799 -0.5565
 1642TIP3    H1 4932   5.923   2.147   4.613  0.3393  0.9641 -2.0963
 1642TIP3    H2 4933   5.848   2.234   4.712  1.3966 -0.1013 -0.3067
 1643TIP3   OH2 4934   3.548   4.308   2.890  0.0119  0.3494 -0.2514
 1643TIP3    H1 4935   3.560   4.220   2.926 -1.8156 -0.1167 -0.6854
 1643TIP3    H2 4936   3.502   4.294   2.807  1.5232  1.6016 -1.3714
 1644TIP3   OH2 4937   1.013   0.946   4.421  0.4217 -0.1669 -0.1850
 1644TIP3    H1 4938   1.046   1.035   4.437  1.5321 -0.1924 -1.9798
 1644TIP3    H2 4939   0.918   0.954   4.428  0.4849  1.2407 -0.5800
 1645TIP3   OH2 4940   4.413   2.875   4.921 -0.3747 -0.5239 -0.2864
 1645TIP3    H1 4941   4.460   2.832   4.850 -0.7574 -1.0729 -0.2126
 1645TIP3    H2 4942   4.482   2.905   4.980 -0.0862 -0.7864 -0.4869
 1646TIP3   OH2 4943   0.679   1.233   4.274 -0.3175 -0.2614 -0.3626
 1646TIP3    H1 4944   0.656   1.246   4.182 -1.7807 -0.1312 -0.0022
 1646TIP3    H2 4945   0.605   1.270   4.322  0.3347 -0.5210  0.8630
 1647TIP3   OH2 4946   2.273   5.921   4.968  0.2163 -0.4089 -0.0489
 1647TIP3    H1 4947   2.198   5.912   4.909 -0.1725  3.8270 -0.4576
 1647TIP3    H2 4948   2.234   5.918   5.056 -0.7257  2.4673 -0.2597
 1648TIP3   OH2 4949   4.588   4.562   3.111  0.3897  0.6392 -0.7031
 1648TIP3    H1 4950   4.636   4.480   3.097  0.4259  0.7594 -1.3314
 1648TIP3    H2 4951   4.557   4.587   3.024 -0.5663  0.7253 -0.3501
 1649TIP3   OH2 4952   0.966   2.979   2.484  0.2323 -0.1391 -0.2354
 1649TIP3    H1 4953   0.880   3.002   2.521  0.9189  0.7542  0.8965
 1649TIP3    H2 4954   0.983   2.890   2.515 -0.0616 -0.1197 -0.0180
 1650TIP3   OH2 4955   4.108   1.068   3.416  0.5197  0.2547  0.0759
 1650TIP3    H1 4956   4.051   1.017   3.359  1.1505 -1.4114  0.8724
 1650TIP3    H2 4957   4.049   1.109   3.479 -0.1060  1.5209 -1.2901
 1651TIP3   OH2 4958   5.313   4.041   4.433  0.1030 -0.5556  0.2946
 1651TIP3    H1 4959   5.275   3.961   4.470  1.1770 -1.8066 -1.2178
 1651TIP3    H2 4960   5.371   4.011   4.363  1.2626  1.4947  0.2888
 1652TIP3   OH2 4961   3.567   3.620   0.519 -0.1575  0.6654  0.2884
 1652TIP3    H1 4962   3.545   3.703   0.477 -1.0987  0.8343  1.0966
 1652TIP3    H2 4963   3.617   3.645   0.597  0.9618  0.3864 -0.3192
 1653TIP3   OH2 4964   3.821   1.612   1.302 -0.0159 -0.3622  0.3113
 1653TIP3    H1 4965   3.836   1.662   1.223  2.9609 -2.3805 -0.5722
 1653TIP3    H2 4966   3.735   1.573   1.289 -0.7482  1.4504 -0.6483
 1654TIP3   OH2 4967   4.169   5.844   3.119  0.4937  0.0549  0.1074
 1654TIP3    H1 4968   4.109   5.918   3.109  0.2972 -0.1045  0.1172
 1654TIP3    H2 4969   4.223   5.867   3.195  1.1052  0.6541 -0.4947
 1655TIP3   OH2 4970   5.713   2.891   2.056 -0.6208  0.6531 -0.0021
 1655TIP3    H1 4971   5.664   2.853   2.129 -1.7307 -0.6717 -1.3894
 1655TIP3    H2 4972   5.651   2.950   2.014  0.3971  2.3719  0.7885
 1656TIP3   OH2 4973   2.244   1.926   0.937  0.4984 -0.4144 -0.3624
 1656TIP3    H1 4974   2.242   1.847   0.884 -0.7273 -0.6648  0.0229
 1656TIP3    H2 4975   2.215   1.996   0.878 -0.2636 -0.5887 -0.2071
 1657TIP3   OH2 4976   1.992   0.138   5.075 -0.0479  0.0829 -0.1674
 1657TIP3    H1 4977   1.949   0.054   5.061 -1.2843  0.5770  0.5353
 1657TIP3    H2 4978   1.976   0.159   5.167  4.1451 -1.0205  1.0252
 1658TIP3   OH2 4979   4.759   3.824   1.937 -0.1341 -0.1496  0.5120
 1658TIP3    H1 4980   4.706   3.859   1.865 -0.4502  0.2146  0.9141
 1658TIP3    H2 4981   4.705   3.755   1.975 -0.9178  1.0804  1.7448
 1659TIP3   OH2 4982   6.096   1.256   1.570  0.0397 -0.1243  0.2650
 1659TIP3    H1 4983   6.084   1.341   1.527 -0.5345  0.1651  0.9954
 1659TIP3    H2 4984   6.068   1.270   1.660 -1.4159 -1.4636  0.0448
 1660TIP3   OH2 4985   3.610   5.519   4.580  0.4703 -0.4964  0.4334
 1660TIP3    H1 4986   3.586   5.608   4.605 -0.1170 -0.1007 -1.3907
 1660TIP3    H2 4987   3.543   5.463   4.620 -0.2644  0.0694  0.0035
 1661TIP3   OH2 4988   2.728   0.306   0.295  0.3350  0.3536 -0.2655
 1661TIP3    H1 4989   2.819   0.326   0.273  0.0350  1.0221 -0.9421
 1661TIP3    H2 4990   2.677   0.372   0.249 -0.4576  0.4675  0.7441
 1662TIP3   OH2 4991   0.257   1.776   3.149  0.8370  0.1828 -0.3665
 1662TIP3    H1 4992   0.305   1.826   3.083  1.2951 -1.1961 -1.1038
 1662TIP3    H2 4993   0.165   1.796   3.131  1.0146  0.8807 -0.5389
 1663TIP3   OH2 4994   5.122   0.439   3.777 -0.2601 -0.0630 -0.1031
 1663TIP3    H1 4995   5.121   0.501   3.705 -1.3031  0.2559  0.1786
 1663TIP3    H2 4996   5.090   0.357   3.739  0.5709 -0.2926 -0.3354
 1664TIP3   OH2 4997   2.463   1.912   4.501  0.2124  0.5460  0.5628
 1664TIP3    H1 4998   2.497   1.997   4.526  1.5015 -0.1934  1.4260
 1664TIP3    H2 4999   2.379   1.905   4.546 -1.0341  2.2450 -1.3047
 1665TIP3   OH2 5000   2.271   2.630   4.660  0.2486  0.1365  0.1293
 1665TIP3    H1 5001   2.196   2.574   4.638  0.0742  0.7625 -0.9168
 1665TIP3    H2 5002   2.269   2.635   4.756 -1.4867  0.7232  0.0971
 1666TIP3   OH2 5003   3.579   3.389   4.232  0.5419 -0.3148  0.0381
 1666TIP3    H1 5004   3.533   3.307   4.213  2.4324 -1.1187 -1.4268
 1666TIP3    H2 5005   3.646   3.365   4.296  1.4751 -0.0798 -0.8179
 1667TIP3   OH2 5006   5.196   4.543   0.591  0.0781 -0.1903 -0.0871
 1667TIP3    H1 5007   5.192   4.581   0.503 -2.3905  0.2292  0.1312
 1667TIP3    H2 5008   5.150   4.459   0.583 -0.5380  0.0393  0.8617
 1668TIP3   OH2 5009   2.794   2.441   0.187 -0.0162  0.5837  0.2422
 1668TIP3    H1 5010   2.808   2.440   0.281 -0.8295 -0.3437  0.3676
 1668TIP3    H2 5011   2.872   2.399   0.151 -0.9096 -1.5771  0.7097
 1669TIP3   OH2 5012   1.973   4.201   5.155  0.0778 -0.2184 -0.1907
 1669TIP3    H1 5013   1.995   4.108   5.161 -1.2532 -0.7022 -1.9442
 1669TIP3    H2 5014   2.029   4.243   5.221  0.7882 -2.2248  0.5708
 1670TIP3   OH2 5015   2.597   3.330   3.952 -0.7233 -0.1716 -0.5126
 1670TIP3    H1 5016   2.638   3.415   3.966  0.9163 -0.8611 -0.8982
 1670TIP3    H2 5017   2.597   3.288   4.038 -0.7822 -0.1054 -0.4803
 1671TIP3   OH2 5018   2.871   3.587   2.881 -0.2398  0.0713 -0.1532
 1671TIP3    H1 5019   2.791   3.582   2.830 -1.8543 -0.5231  2.2569
 1671TIP3    H2 5020   2.878   3.678   2.908  0.9362  0.5172 -1.8006
 1672TIP3   OH2 5021   5.417   0.270   4.148 -0.7441 -0.2266 -0.0892
 1672TIP3    H1 5022   5.358   0.252   4.075  1.1742 -1.5750 -1.4054
 1672TIP3    H2 5023   5.486   0.326   4.111 -0.0319 -0.4528  0.8333
 1673TIP3   OH2 5024   3.514   3.556   3.738  0.1598  0.3337 -0.3332
 1673TIP3    H1 5025   3.559   3.489   3.687 -0.2017 -1.3587  1.4882
 1673TIP3    H2 5026   3.449   3.509   3.788  0.2768  1.9595  1.4595
 1674TIP3   OH2 5027   1.129   5.721   4.326  0.4636 -0.1841 -0.4746
 1674TIP3    H1 5028   1.224   5.721   4.336  0.3001  0.6211  1.3969
 1674TIP3    H2 5029   1.106   5.814   4.315 -0.3102 -0.0136  1.9724
 1675TIP3   OH2 5030   5.680   3.928   2.267  0.2918 -0.0713  0.1429
 1675TIP3    H1 5031   5.710   3.884   2.346  1.4824  0.4696  0.0240
 1675TIP3    H2 5032   5.761   3.955   2.223 -0.3340 -0.5735 -1.3830
 1676TIP3   OH2 5033   4.900   1.814   0.247  0.9102  0.0916 -0.3622
 1676TIP3    H1 5034   4.828   1.866   0.282 -1.0255 -0.8534 -2.6726
 1676TIP3    H2 5035   4.950   1.876   0.194  1.2527  0.5182  0.4315
 1677TIP3   OH2 5036   0.717   3.405   4.567  0.3446 -0.0335  0.0944
 1677TIP3    H1 5037   0.672   3.338   4.516 -0.2617  1.1459 -0.9808
 1677TIP3    H2 5038   0.785   3.358   4.614 -3.4182 -2.4032  3.8613
 1678TIP3   OH2 5039   6.123   0.685   3.890  0.6387 -0.2519 -0.1589
 1678TIP3    H1 5040   6.148   0.638   3.969  0.2723  1.2029  0.8584
 1678TIP3    H2 5041   6.097   0.772   3.920 -0.3153  0.0787 -1.7827
 1679TIP3   OH2 5042   4.647   2.413   2.669  0.0863  0.4856 -0.6316
 1679TIP3    H1 5043   4.684   2.329   2.693 -2.5992 -0.9150 -1.0121
 1679TIP3    H2 5044   4.687   2.435   2.585 -0.3981 -1.2964 -1.3633
 1680TIP3   OH2 5045   4.097   4.842   1.118 -0.4371 -0.3204 -0.0031
 1680TIP3    H1 5046   4.111   4.935   1.097 -1.8484  0.2230  1.1906
 1680TIP3    H2 5047   4.164   4.822   1.183 -0.7415  0.1716  0.4744
 1681TIP3   OH2 5048   4.791   2.744   4.350 -0.5402  0.2024  0.0193
 1681TIP3    H1 5049   4.734   2.815   4.321 -0.4817  0.9716  1.6721
 1681TIP3    H2 5050   4.735   2.689   4.405 -0.4640 -0.8025 -0.8618
 1682TIP3   OH2 5051   2.282   5.297   2.528 -0.1482 -0.0481 -0.2808
 1682TIP3    H1 5052   2.298   5.335   2.441  0.2404  1.1914  0.3253
 1682TIP3    H2 5053   2.369   5.272   2.559 -0.4557 -2.1558 -0.9593
 1683TIP3   OH2 5054   3.785   3.842   2.986  0.6409 -0.5574  0.0625
 1683TIP3    H1 5055   3.808   3.809   3.073  2.0780 -0.1483 -0.1406
 1683TIP3    H2 5056   3.857   3.815   2.930  1.0942  1.4849 -0.4427
 1684TIP3   OH2 5057   6.268   5.794   2.819  0.6674  0.0467 -0.2202
 1684TIP3    H1 5058   6.327   5.724   2.792 -1.3559 -1.1918 -1.6610
 1684TIP3    H2 5059   6.233   5.766   2.903  0.7710 -0.0611 -0.2128
 1685TIP3   OH2 5060   2.449   0.978   4.479 -0.5242 -0.5304  0.3980
 1685TIP3    H1 5061   2.506   1.046   4.515 -0.3296 -0.4212 -0.1096
 1685TIP3    H2 5062   2.381   0.966   4.545 -0.7352  0.3689  0.3509
 1686TIP3   OH2 5063   1.160   3.261   4.673  0.5409 -0.2288 -0.1770
 1686TIP3    H1 5064   1.127   3.296   4.591 -1.5044  0.1598  0.7424
 1686TIP3    H2 5065   1.246   3.301   4.684  0.5838  0.1766 -1.8171
 1687TIP3   OH2 5066   4.102   2.437   2.942 -0.0843  0.4698 -0.0507
 1687TIP3    H1 5067   4.191   2.446   2.976  0.6129 -1.2850 -1.3055
 1687TIP3    H2 5068   4.084   2.344   2.946 -2.1907  0.8738  0.8963
 1688TIP3   OH2 5069   3.413   1.289   4.277 -0.0204 -0.1105 -0.1505
 1688TIP3    H1 5070   3.482   1.239   4.320 -0.0200 -0.8589 -0.9817
 1688TIP3    H2 5071   3.432   1.380   4.298  1.5284 -0.2547 -0.8060
 1689TIP3   OH2 5072   4.399   1.417   1.828  0.6168  0.3354  0.3799
 1689TIP3    H1 5073   4.491   1.396   1.841  0.4756 -1.0033 -0.5212
 1689TIP3    H2 5074   4.352   1.346   1.872  0.0626  0.1447 -0.4901
 1690TIP3   OH2 5075   2.934   2.317   2.043 -0.0630  0.3447  0.3383
 1690TIP3    H1 5076   2.912   2.393   2.098  1.2979  0.4527  0.7962
 1690TIP3    H2 5077   2.924   2.242   2.102 -3.0513 -0.0887 -0.5665
 1691TIP3   OH2 5078   0.693   4.552   4.052 -0.0327 -0.0588  0.5210
 1691TIP3    H1 5079   0.771   4.508   4.017 -0.3250 -0.2228  0.0734
 1691TIP3    H2 5080   0.676   4.623   3.990 -0.6411 -0.4431  0.2431
 1692TIP3   OH2 5081   1.115   3.742   4.039  0.2022  0.3667  0.0835
 1692TIP3    H1 5082   1.176   3.675   4.070  0.4544  0.0446 -1.0673
 1692TIP3    H2 5083   1.164   3.789   3.972 -0.4318  0.8494 -0.0438
 1693TIP3   OH2 5084   6.119   2.170   0.390 -0.4604  0.1477 -0.1190
 1693TIP3    H1 5085   6.172   2.139   0.463  0.5348  2.2749  0.1472
 1693TIP3    H2 5086   6.029   2.148   0.414  0.0223 -0.8486  0.8480
 1694TIP3   OH2 5087   2.328   3.077   2.051 -0.2000 -0.8460 -0.4094
 1694TIP3    H1 5088   2.326   3.036   1.965 -1.2881 -0.1984 -0.7221
 1694TIP3    H2 5089   2.237   3.104   2.067  0.2352  0.2866  0.3266
 1695TIP3   OH2 5090   0.217   3.336   3.933  0.5323 -0.6470 -0.0601
 1695TIP3    H1 5091   0.213   3.297   4.020 -0.5619  0.0942  0.2415
 1695TIP3    H2 5092   0.288   3.400   3.938  1.5717 -1.7620 -0.2212
 1696TIP3   OH2 5093   5.415   3.036   3.832 -0.3557 -0.6592 -0.2803
 1696TIP3    H1 5094   5.387   3.077   3.750 -0.5228 -0.8303 -0.3111
 1696TIP3    H2 5095   5.395   2.943   3.820 -0.2024 -0.7138 -0.1195
 1697TIP3   OH2 5096   2.080   5.321   1.550 -0.3196 -0.4407  0.3373
 1697TIP3    H1 5097   2.169   5.289   1.538 -0.9237 -1.7674 -1.0385
 1697TIP3    H2 5098   2.088   5.396   1.608  1.6332 -0.8060  0.5893
 1698TIP3   OH2 5099   4.616   3.276   1.437  0.2441  0.4889 -0.1686
 1698TIP3    H1 5100   4.616   3.301   1.344  0.1791 -0.9185 -0.5710
 1698TIP3    H2 5101   4.528   3.241   1.453  0.4676  0.1010  0.2425
 1699TIP3   OH2 5102   6.173   0.984   2.041 -0.0391  0.4331  0.2150
 1699TIP3    H1 5103   6.258   0.973   2.084 -0.0999  0.0891  0.2498
 1699TIP3    H2 5104   6.109   0.964   2.110 -0.1429  0.3331  0.0909
 1700TIP3   OH2 5105   1.487   0.505   0.697 -0.2112  0.2865  0.4988
 1700TIP3    H1 5106   1.560   0.529   0.754 -0.5505 -0.0639  1.1024
 1700TIP3    H2 5107   1.482   0.575   0.633 -0.6227  1.3756  1.6773
 1701TIP3   OH2 5108   3.290   0.375   4.377 -0.2076  0.2205 -0.1424
 1701TIP3    H1 5109   3.203   0.389   4.415 -0.4053  2.4643 -1.2760
 1701TIP3    H2 5110   3.345   0.352   4.452 -1.4061  0.5450  0.8706
 1702TIP3   OH2 5111   2.928   1.615   2.275 -0.6643 -0.4807  0.1868
 1702TIP3    H1 5112   2.874   1.573   2.342 -1.5286  0.6536  0.2336
 1702TIP3    H2 5113   2.960   1.696   2.317 -0.0290 -0.4697 -0.2966
 1703TIP3   OH2 5114   3.768   2.223   4.083 -0.0370  0.1833  0.2015
 1703TIP3    H1 5115   3.715   2.232   4.004 -0.9091  1.1137  0.8463
 1703TIP3    H2 5116   3.756   2.133   4.110  2.2462 -0.9069 -2.0131
 1704TIP3   OH2 5117   0.992   1.849   1.728 -0.2776 -0.2452 -0.1233
 1704TIP3    H1 5118   0.917   1.901   1.699 -0.4232 -1.2482 -1.6608
 1704TIP3    H2 5119   1.052   1.852   1.654  1.0314  0.1744  0.9186
 1705TIP3   OH2 5120   3.794   1.278   2.851 -0.5976 -1.0923  0.7747
 1705TIP3    H1 5121   3.860   1.292   2.919 -3.1093 -2.4436  3.7366
 1705TIP3    H2 5122   3.828   1.205   2.800  1.9313  0.7430 -0.3675
 1706TIP3   OH2 5123   1.369   2.700   0.328  0.1990  0.1913  0.7941
 1706TIP3    H1 5124   1.291   2.747   0.299  0.2271  0.3455  0.9642
 1706TIP3    H2 5125   1.334   2.625   0.377  0.1242 -0.7429 -0.6119
 1707TIP3   OH2 5126   4.453   5.266   0.114 -0.9635  0.7472  0.3035
 1707TIP3    H1 5127   4.362   5.243   0.097 -0.8162  0.1018  0.3726
 1707TIP3    H2 5128   4.503   5.189   0.089 -0.4049  1.2036 -0.0121
 1708TIP3   OH2 5129   2.140   0.692   2.316  0.0748 -0.0638  0.4525
 1708TIP3    H1 5130   2.163   0.648   2.398  2.6165  0.2830 -0.0045
 1708TIP3    H2 5131   2.178   0.637   2.247 -2.9547 -0.9579 -0.6756
 1709TIP3   OH2 5132   6.061   1.586   0.820  0.0666  0.0012 -0.4455
 1709TIP3    H1 5133   6.002   1.543   0.882 -1.0771  0.3028 -1.2811
 1709TIP3    H2 5134   6.007   1.601   0.742  1.4750 -0.4202 -1.5519
 1710TIP3   OH2 5135   2.506   0.705   4.026 -0.4828 -0.6340  0.7544
 1710TIP3    H1 5136   2.475   0.619   4.057 -0.5152 -0.1231  2.1969
 1710TIP3    H2 5137   2.529   0.753   4.106  0.8106  0.2373 -0.0989
 1711TIP3   OH2 5138   5.787   1.276   3.237 -0.1669 -0.1422  0.1519
 1711TIP3    H1 5139   5.719   1.212   3.259 -0.2471 -0.0192  0.2587
 1711TIP3    H2 5140   5.858   1.257   3.298 -0.4642  0.3244  0.6524
 1712TIP3   OH2 5141   0.658   1.579   4.534  0.0752  0.2660  0.2073
 1712TIP3    H1 5142   0.648   1.533   4.450  0.2179 -0.1734  0.4278
 1712TIP3    H2 5143   0.752   1.584   4.547  0.0499 -0.3358  0.6958
 1713TIP3   OH2 5144   1.763   1.372   0.805  0.2574 -0.2527 -0.6138
 1713TIP3    H1 5145   1.683   1.424   0.806 -0.3942 -1.2343 -0.7851
 1713TIP3    H2 5146   1.739   1.292   0.758  0.1398 -2.4357  2.8343
 1714TIP3   OH2 5147   4.555   5.103   3.216  0.5884  0.1566  0.2573
 1714TIP3    H1 5148   4.633   5.139   3.257  2.4988 -0.7279 -2.3536
 1714TIP3    H2 5149   4.546   5.016   3.254  2.0111 -0.4526 -0.7461
 1715TIP3   OH2 5150   2.155   2.287   3.584  0.3712  0.0805  0.0861
 1715TIP3    H1 5151   2.111   2.362   3.545  0.5378 -0.2976 -0.8601
 1715TIP3    H2 5152   2.114   2.211   3.543  1.4293 -0.2982 -0.3151
 1716TIP3   OH2 5153   4.877   0.165   2.645 -0.5292  0.3174 -0.7065
 1716TIP3    H1 5154   4.906   0.084   2.688  0.3859  0.2007 -1.5026
 1716TIP3    H2 5155   4.904   0.234   2.706  0.9532  0.1672 -1.1417
 1717TIP3   OH2 5156   4.165   3.760   0.450  0.0335 -0.2005 -0.1903
 1717TIP3    H1 5157   4.187   3.667   0.441  1.2049 -0.0429  0.7909
 1717TIP3    H2 5158   4.112   3.779   0.373  1.7739 -1.1248 -1.7069
 1718TIP3   OH2 5159   5.880   4.951   5.048  0.4376 -0.6894 -0.6184
 1718TIP3    H1 5160   5.849   4.881   5.106  1.7117 -1.6652 -1.0554
 1718TIP3    H2 5161   5.964   4.978   5.086  1.3974 -1.4921 -2.0922
 1719TIP3   OH2 5162   0.692   4.576   1.318 -0.3441 -0.1640  0.1849
 1719TIP3    H1 5163   0.637   4.499   1.308  0.9757 -1.1251  0.1353
 1719TIP3    H2 5164   0.760   4.567   1.251  1.7360 -0.6649  2.2533
 1720TIP3   OH2 5165   3.469   4.524   3.722 -0.7618  0.4471  0.5068
 1720TIP3    H1 5166   3.496   4.468   3.650 -1.6201 -1.2822  1.4813
 1720TIP3    H2 5167   3.506   4.484   3.800  0.0505  2.2208  1.0784
 1721TIP3   OH2 5168   3.144   3.811   0.585 -0.1645 -1.0014  0.0059
 1721TIP3    H1 5169   3.157   3.849   0.672 -1.1603 -0.3111 -0.1233
 1721TIP3    H2 5170   3.215   3.747   0.576  0.2131 -0.7776  1.1439
 1722TIP3   OH2 5171   4.076   4.073   3.016  0.3145  0.1244  0.2695
 1722TIP3    H1 5172   3.993   4.112   2.992  0.2046  0.2668  0.8525
 1722TIP3    H2 5173   4.078   3.990   2.968 -0.9663 -0.7074  1.5623
 1723TIP3   OH2 5174   3.483   5.668   4.927 -0.5282 -0.0946  0.0518
 1723TIP3    H1 5175   3.430   5.678   5.006 -1.0431  1.0574 -0.4152
 1723TIP3    H2 5176   3.489   5.574   4.914 -2.9059 -0.2683 -0.1485
 1724TIP3   OH2 5177   3.647   0.620   1.505  0.8702  0.1802 -0.3283
 1724TIP3    H1 5178   3.619   0.590   1.591  2.0623 -1.0291 -0.3339
 1724TIP3    H2 5179   3.570   0.664   1.468 -0.2292 -0.8933  0.6071
 1725TIP3   OH2 5180   1.538   1.822   0.057 -0.4738 -0.7299 -0.4901
 1725TIP3    H1 5181   1.558   1.911   0.088  2.0397 -1.3804 -0.0194
 1725TIP3    H2 5182   1.464   1.834  -0.003 -0.0335  1.7161 -0.6684
 1726TIP3   OH2 5183   4.578   1.231   2.969 -0.2503  0.6317  0.2293
 1726TIP3    H1 5184   4.664   1.240   2.927  0.4057  0.5144  1.5134
 1726TIP3    H2 5185   4.552   1.141   2.950  1.0284 -0.1322  1.8155
 1727TIP3   OH2 5186   5.235   1.576   3.998 -0.2430  0.2957  0.0415
 1727TIP3    H1 5187   5.318   1.604   4.038  0.0304  0.5732 -0.6912
 1727TIP3    H2 5188   5.200   1.511   4.058 -2.0019  3.6538  3.0654
 1728TIP3   OH2 5189   2.158   2.255   5.017 -1.1252  0.5522 -0.0945
 1728TIP3    H1 5190   2.156   2.337   5.065 -1.3716  1.3980 -1.4718
 1728TIP3    H2 5191   2.166   2.281   4.925 -1.8053 -0.9419 -0.6230
 1729TIP3   OH2 5192   0.921   4.510   1.135 -0.2386  0.3312 -0.6763
 1729TIP3    H1 5193   0.966   4.581   1.090  1.1544  0.4558  0.8009
 1729TIP3    H2 5194   0.990   4.445   1.152 -0.7619  0.1499  0.9238
 1730TIP3   OH2 5195   2.970   5.556   1.505  0.2192 -0.0343 -0.1789
 1730TIP3    H1 5196   2.940   5.646   1.516  0.8472  0.1702 -0.0648
 1730TIP3    H2 5197   2.894   5.508   1.473 -0.2146  0.4642  0.1052
 1731TIP3   OH2 5198   1.562   1.549   4.310  0.5233 -0.4577  0.1446
 1731TIP3    H1 5199   1.515   1.609   4.252 -1.4858 -1.7918  0.2879
 1731TIP3    H2 5200   1.651   1.547   4.275  0.1822  1.2032 -0.9289
 1732TIP3   OH2 5201   1.816   2.223   5.149  0.4313 -0.1404  0.1948
 1732TIP3    H1 5202   1.733   2.256   5.183 -0.5730 -0.0954 -2.1329
 1732TIP3    H2 5203   1.827   2.138   5.192 -0.7000 -0.0565  0.6918
 1733TIP3   OH2 5204   4.251   0.672   2.087 -0.1181  0.1450 -0.2644
 1733TIP3    H1 5205   4.161   0.644   2.066 -0.2794  0.8953 -0.5937
 1733TIP3    H2 5206   4.289   0.697   2.003  0.5066 -0.4476 -0.1671
 1734TIP3   OH2 5207   1.462   1.506   2.281 -0.3833  0.1165  0.3670
 1734TIP3    H1 5208   1.388   1.460   2.240  0.3018 -0.5861 -0.1338
 1734TIP3    H2 5209   1.462   1.592   2.240  1.1223 -0.9986 -2.3128
 1735TIP3   OH2 5210   3.292   1.627   2.258 -0.6040  0.5513  0.2463
 1735TIP3    H1 5211   3.267   1.537   2.277  0.6872  0.2200  0.4806
 1735TIP3    H2 5212   3.276   1.674   2.340 -1.7486  0.6716 -0.0197
 1736TIP3   OH2 5213   2.114   3.421   2.233 -0.5248  0.2219  0.5353
 1736TIP3    H1 5214   2.018   3.418   2.242 -0.7804 -0.3603 -1.7656
 1736TIP3    H2 5215   2.130   3.407   2.140  1.8428 -0.0945  0.9218
 1737TIP3   OH2 5216   1.886   2.521   4.822 -1.0668 -0.3066 -0.4509
 1737TIP3    H1 5217   1.832   2.577   4.766 -2.6189 -0.5330  0.7612
 1737TIP3    H2 5218   1.832   2.505   4.900  0.4679 -1.1579  0.4908
 1738TIP3   OH2 5219   5.390   2.260   4.072 -0.0474  0.1871  0.1865
 1738TIP3    H1 5220   5.473   2.306   4.064  0.0820 -0.1467 -0.4410
 1738TIP3    H2 5221   5.406   2.195   4.141 -0.2326  1.0589  1.0721
 1739TIP3   OH2 5222   1.144   0.816   0.882  0.0750  0.1369  0.7673
 1739TIP3    H1 5223   1.085   0.743   0.900  1.0338 -1.0559 -0.7618
 1739TIP3    H2 5224   1.117   0.884   0.944 -2.0247 -0.8393  1.0032
 1740TIP3   OH2 5225   3.692   5.660   2.943  0.3605  0.1133 -0.1862
 1740TIP3    H1 5226   3.678   5.582   2.998  0.1519 -0.7016 -1.3584
 1740TIP3    H2 5227   3.763   5.635   2.884  2.3052  1.8388  1.2472
 1741TIP3   OH2 5228   0.576   0.908   2.105 -0.7204  0.4148 -0.1081
 1741TIP3    H1 5229   0.631   0.854   2.048 -0.8195 -0.1940  0.3547
 1741TIP3    H2 5230   0.535   0.972   2.047  1.0367  1.3568 -0.3572
 1742TIP3   OH2 5231   3.880   1.559   3.579 -0.4346  0.1458 -0.1813
 1742TIP3    H1 5232   3.910   1.479   3.621  0.3518 -0.2441 -1.4413
 1742TIP3    H2 5233   3.799   1.533   3.533 -1.0092  0.4460  0.6487
 1743TIP3   OH2 5234   3.750   0.164   0.208 -0.3336 -0.0937  0.5429
 1743TIP3    H1 5235   3.768   0.070   0.217  0.5880  0.1296  1.1666
 1743TIP3    H2 5236   3.733   0.193   0.298 -0.5433  0.3417  0.3585
 1744TIP3   OH2 5237   5.387   5.110   2.711 -0.4700 -0.1739  0.0785
 1744TIP3    H1 5238   5.410   5.199   2.684 -0.5065 -0.1050  0.2791
 1744TIP3    H2 5239   5.389   5.112   2.806  0.2289 -0.5692  0.0815
 1745TIP3   OH2 5240   1.935   1.923   1.035 -0.5762 -0.4232 -0.8254
 1745TIP3    H1 5241   1.869   1.938   1.103  0.5520 -0.7246  0.3836
 1745TIP3    H2 5242   2.016   1.954   1.074  0.6192 -3.1455 -0.8915
 1746TIP3   OH2 5243   4.699   5.447   0.449  0.2847 -0.0498 -0.2085
 1746TIP3    H1 5244   4.622   5.422   0.397  1.5600 -1.9683 -1.2857
 1746TIP3    H2 5245   4.663   5.490   0.526 -1.7773  0.9147 -1.6126
 1747TIP3   OH2 5246   1.754   0.941   2.166 -0.2232 -0.3257  0.0425
 1747TIP3    H1 5247   1.755   0.966   2.074 -0.1185 -1.2698 -0.2198
 1747TIP3    H2 5248   1.669   0.899   2.179 -0.2784 -0.1067  0.4061
 1748TIP3   OH2 5249   4.985   2.454   2.098  0.1208 -0.1547 -0.2606
 1748TIP3    H1 5250   4.987   2.543   2.063 -0.6651 -0.7010 -1.7663
 1748TIP3    H2 5251   5.072   2.441   2.136  0.4162  1.0688 -0.4618
 1749TIP3   OH2 5252   4.438   0.422   1.127  0.8834  0.7180 -0.3757
 1749TIP3    H1 5253   4.397   0.344   1.089  0.0285  0.4691  0.9925
 1749TIP3    H2 5254   4.396   0.496   1.082  0.3031  0.4222 -0.3309
 1750TIP3   OH2 5255   0.580   2.512   2.382 -0.3633  0.0398 -0.7537
 1750TIP3    H1 5256   0.611   2.475   2.299 -0.8894  0.2594 -1.0492
 1750TIP3    H2 5257   0.497   2.467   2.399  0.2019 -0.7063  0.1504
 1751TIP3   OH2 5258   3.337   0.700   4.186  0.1271  0.0860  0.5578
 1751TIP3    H1 5259   3.334   0.712   4.281 -0.4439  0.3383  0.5109
 1751TIP3    H2 5260   3.257   0.742   4.154  0.8060  0.9172 -0.1236
 1752TIP3   OH2 5261   2.085   4.879   0.423  0.0387  0.1936 -0.0266
 1752TIP3    H1 5262   2.068   4.917   0.337  1.6014  0.8451 -0.0765
 1752TIP3    H2 5263   2.176   4.902   0.442  0.4718 -1.9509  0.7693
 1753TIP3   OH2 5264   0.571   4.557   3.596  0.1708 -0.0942 -0.1874
 1753TIP3    H1 5265   0.570   4.649   3.624 -0.2310 -0.5932  1.5363
 1753TIP3    H2 5266   0.613   4.559   3.510 -0.0817  1.7331 -0.3103
 1754TIP3   OH2 5267   1.870   5.971   3.817  0.2034  0.4025 -0.1889
 1754TIP3    H1 5268   1.915   5.889   3.795  2.3817  1.2366  0.8734
 1754TIP3    H2 5269   1.937   6.039   3.807 -1.3703  2.0023 -0.4144
 1755TIP3   OH2 5270   4.277   0.555   4.348 -0.2608  0.1226  0.0167
 1755TIP3    H1 5271   4.261   0.516   4.262  1.0137 -1.1584  0.3190
 1755TIP3    H2 5272   4.222   0.505   4.408  0.0028 -0.0242  0.1424
 1756TIP3   OH2 5273   1.245   2.960   2.649 -0.5121 -0.5551  0.2527
 1756TIP3    H1 5274   1.151   2.975   2.641 -0.2103  1.6147  0.0692
 1756TIP3    H2 5275   1.253   2.867   2.670 -2.7591 -0.4820  1.7414
 1757TIP3   OH2 5276   2.287   2.167   2.004 -0.7023  0.1906 -0.0063
 1757TIP3    H1 5277   2.295   2.095   2.067  0.6618 -0.1532 -0.5405
 1757TIP3    H2 5278   2.273   2.244   2.059 -2.7922 -0.5032  0.5584
 1758TIP3   OH2 5279   3.867   5.951   3.295 -0.0539  0.1167  0.1165
 1758TIP3    H1 5280   3.808   5.945   3.219 -1.9185 -1.3652  1.5810
 1758TIP3    H2 5281   3.910   6.036   3.285 -1.3437  0.6140 -1.8073
 1759TIP3   OH2 5282   0.394   4.924   3.766 -0.2252  0.0010  0.0630
 1759TIP3    H1 5283   0.460   4.873   3.814  0.2816  0.6977  0.1143
 1759TIP3    H2 5284   0.313   4.874   3.777 -0.4204  0.7398  2.7151
 1760TIP3   OH2 5285   2.923   4.878   1.226  0.3644  0.5735 -0.7050
 1760TIP3    H1 5286   2.895   4.849   1.139  1.9156  2.2490 -1.8614
 1760TIP3    H2 5287   2.909   4.803   1.283  0.1904 -0.9107 -2.6138
 1761TIP3   OH2 5288   4.872   1.787   3.392 -0.0451  0.3410 -0.0606
 1761TIP3    H1 5289   4.950   1.732   3.382 -0.5659 -0.7244  1.4298
 1761TIP3    H2 5290   4.868   1.807   3.485 -0.3703  2.2394 -0.4299
 1762TIP3   OH2 5291   6.209   3.948   0.825  0.3714 -0.3563  0.2828
 1762TIP3    H1 5292   6.223   3.855   0.843 -0.3793 -0.7669 -1.0768
 1762TIP3    H2 5293   6.120   3.966   0.856  0.8109  0.1445  1.3107
 1763TIP3   OH2 5294   2.356   2.801   4.455  0.1935  0.1453  0.1418
 1763TIP3    H1 5295   2.306   2.738   4.507 -0.6936  0.6841 -0.0313
 1763TIP3    H2 5296   2.444   2.799   4.492 -0.0438 -0.5644  0.6874
 1764TIP3   OH2 5297   2.493   1.271   1.984 -0.2212  0.3764  0.1529
 1764TIP3    H1 5298   2.486   1.356   1.940  3.3820  1.1039  0.6627
 1764TIP3    H2 5299   2.424   1.273   2.050 -1.9039  1.7365 -1.5324
 1765TIP3   OH2 5300   4.306   5.870   0.197  0.6072  0.4382 -0.5688
 1765TIP3    H1 5301   4.298   5.826   0.112 -1.5045 -1.7934  0.6491
 1765TIP3    H2 5302   4.387   5.834   0.235  0.8715  0.4667 -1.0918
 1766TIP3   OH2 5303   1.078   2.118   1.665 -0.2908  0.3944  0.3330
 1766TIP3    H1 5304   1.122   2.046   1.620 -0.0686  0.8640 -0.2033
 1766TIP3    H2 5305   0.986   2.108   1.641 -0.2860  0.2058  0.3839
 1767TIP3   OH2 5306   3.988   3.432   2.481 -0.3006  0.1642  0.3352
 1767TIP3    H1 5307   4.035   3.349   2.473  0.7776  0.8814 -0.9646
 1767TIP3    H2 5308   3.946   3.444   2.396 -3.5494 -0.7861  1.6112
 1768TIP3   OH2 5309   6.292   4.871   0.609 -0.1157 -0.1761 -0.4721
 1768TIP3    H1 5310   6.229   4.942   0.621 -0.4016 -0.5775  0.5449
 1768TIP3    H2 5311   6.376   4.907   0.639  0.1274  0.3135 -1.6956
 1769TIP3   OH2 5312   0.453   1.366   3.160  0.0715  0.1548  0.4278
 1769TIP3    H1 5313   0.400   1.424   3.214  0.0716 -1.1988  1.9490
 1769TIP3    H2 5314   0.417   1.278   3.176  1.0232 -0.4549 -0.6373
 1770TIP3   OH2 5315   6.159   4.266   1.200  0.0548  0.1041 -0.0303
 1770TIP3    H1 5316   6.151   4.336   1.265  1.2432 -0.8112  1.1677
 1770TIP3    H2 5317   6.184   4.189   1.252  0.1522 -0.8681 -1.4820
 1771TIP3   OH2 5318   2.711   0.179   1.397 -0.3394 -0.3264  0.1026
 1771TIP3    H1 5319   2.732   0.225   1.478  0.0985  1.0567 -0.7538
 1771TIP3    H2 5320   2.730   0.242   1.328 -2.9874 -0.5989 -0.9929
 1772TIP3   OH2 5321   5.895   4.814   1.525  0.6484  0.1768 -0.2174
 1772TIP3    H1 5322   5.889   4.767   1.441 -0.8273 -0.1679  0.0544
 1772TIP3    H2 5323   5.978   4.786   1.562  0.4574 -1.1296 -0.7241
 1773TIP3   OH2 5324   0.061   5.251   0.593 -0.2995  0.2651 -0.4084
 1773TIP3    H1 5325   0.050   5.331   0.542  0.5315  0.7823  0.1833
 1773TIP3    H2 5326   0.125   5.275   0.660  0.5201 -1.1041 -0.6660
 1774TIP3   OH2 5327   0.451   1.378   4.299  0.4617 -0.1807 -0.1666
 1774TIP3    H1 5328   0.501   1.439   4.245  0.3714  1.0629  1.0766
 1774TIP3    H2 5329   0.373   1.358   4.248  0.2663  1.1438 -0.4306
 1775TIP3   OH2 5330   4.419   4.777   3.185  0.5792 -0.3109  0.5063
 1775TIP3    H1 5331   4.407   4.805   3.095  2.9097  2.7791  1.0146
 1775TIP3    H2 5332   4.487   4.710   3.181  3.0242  2.0494  0.1136
 1776TIP3   OH2 5333   0.069   1.268   3.387 -0.0236 -0.4009 -0.2531
 1776TIP3    H1 5334   0.005   1.313   3.441 -0.8628 -1.1640 -0.5721
 1776TIP3    H2 5335   0.151   1.273   3.436 -0.3685  0.4345  0.2469
 1777TIP3   OH2 5336   1.103   0.174   1.921  0.0098  0.4444 -0.1154
 1777TIP3    H1 5337   1.018   0.218   1.918 -0.5920 -0.7181 -1.0112
 1777TIP3    H2 5338   1.134   0.177   1.830 -0.1290 -1.0977 -0.2375
 1778TIP3   OH2 5339   2.842   4.520   3.929 -0.1943  0.0906  0.2914
 1778TIP3    H1 5340   2.782   4.593   3.944 -0.3916  0.1857 -0.8566
 1778TIP3    H2 5341   2.923   4.546   3.973 -0.7104  0.3604  1.0918
 1779TIP3   OH2 5342   0.769   0.895   2.559  0.0869 -0.1670 -0.0471
 1779TIP3    H1 5343   0.758   0.862   2.469 -0.4471  0.6470 -0.2916
 1779TIP3    H2 5344   0.858   0.929   2.561 -0.2942  0.9153 -0.6540
 1780TIP3   OH2 5345   3.408   2.411   2.637 -0.7240  1.1126  0.0678
 1780TIP3    H1 5346   3.343   2.478   2.614  0.6601  2.3080 -0.4981
 1780TIP3    H2 5347   3.493   2.454   2.626  0.1811 -0.1716  1.5163
 1781TIP3   OH2 5348   3.925   4.983   2.431 -0.3605 -0.2887 -0.0792
 1781TIP3    H1 5349   3.919   4.980   2.526  1.6733  1.0513  0.1681
 1781TIP3    H2 5350   3.877   5.062   2.406 -0.2800 -0.2346 -0.0670
 1782TIP3   OH2 5351   2.653   2.410   4.658 -0.3179 -0.1147  0.1238
 1782TIP3    H1 5352   2.746   2.429   4.660  0.0248 -1.6899  2.1254
 1782TIP3    H2 5353   2.623   2.425   4.748 -1.5302 -1.6291  0.0189
 1783TIP3   OH2 5354   4.708   1.325   1.263  0.1153 -0.2199 -0.2378
 1783TIP3    H1 5355   4.723   1.235   1.234 -0.5671 -0.8658  1.3206
 1783TIP3    H2 5356   4.615   1.340   1.247  0.3218  0.3758 -0.9027
 1784TIP3   OH2 5357   5.340   2.682   1.944 -0.6313  0.0591  0.2834
 1784TIP3    H1 5358   5.303   2.755   1.995 -3.7003 -1.8732  1.0865
 1784TIP3    H2 5359   5.312   2.700   1.855  0.2975  0.8225  0.1348
 1785TIP3   OH2 5360   5.207   2.756   2.253  0.0354  0.1008  0.6926
 1785TIP3    H1 5361   5.226   2.827   2.314  0.8366  0.9201 -0.4607
 1785TIP3    H2 5362   5.280   2.694   2.264 -0.1105 -0.0256  0.9508
 1786TIP3   OH2 5363   5.604   1.951   3.693 -0.3519  0.2382 -0.0791
 1786TIP3    H1 5364   5.654   1.931   3.772  1.5731 -0.4801 -1.4013
 1786TIP3    H2 5365   5.574   2.041   3.705  0.1994  0.2574  1.2986
 1787TIP3   OH2 5366   3.111   3.918   1.838 -0.0090  0.0085  0.3892
 1787TIP3    H1 5367   3.156   3.906   1.754 -0.3240  0.6478  0.1246
 1787TIP3    H2 5368   3.020   3.894   1.820 -0.2753  1.0309  0.3004
 1788TIP3   OH2 5369   4.370   0.899   2.215 -0.3405  0.6858 -0.4641
 1788TIP3    H1 5370   4.426   0.945   2.153 -0.7089 -1.1176 -2.2075
 1788TIP3    H2 5371   4.331   0.828   2.165 -1.9063  0.1070  1.4510
 1789TIP3   OH2 5372   3.649   5.360   2.563  0.1837 -0.1193 -0.6373
 1789TIP3    H1 5373   3.726   5.369   2.506  0.3054  0.0544 -0.4451
 1789TIP3    H2 5374   3.601   5.442   2.551 -0.8674 -0.9013 -2.0665
 1790TIP3   OH2 5375   4.794   5.536   2.850 -0.6449  0.6705  0.1896
 1790TIP3    H1 5376   4.793   5.452   2.804 -1.6338  0.4368  0.6170
 1790TIP3    H2 5377   4.773   5.515   2.941 -0.4427  1.3283  0.3972
 1791TIP3   OH2 5378   5.800   0.924   2.124 -0.2009  0.5147 -0.4842
 1791TIP3    H1 5379   5.763   0.903   2.038  0.4427  2.4235 -1.2813
 1791TIP3    H2 5380   5.825   1.016   2.117  4.1628 -0.4156  0.1591
 1792TIP3   OH2 5381   6.008   3.942   2.408  0.1977 -0.0086  0.5276
 1792TIP3    H1 5382   5.931   3.905   2.450  0.3813  1.1325  1.9235
 1792TIP3    H2 5383   6.082   3.902   2.454  0.4946 -1.4561 -1.1106
 1793TIP3   OH2 5384   0.689   0.409   3.650 -0.4194  0.2244 -0.2958
 1793TIP3    H1 5385   0.614   0.456   3.685  0.7762  1.4044  0.7965
 1793TIP3    H2 5386   0.685   0.424   3.556  0.0073  2.7152  0.0352
 1794TIP3   OH2 5387   5.293   3.686   3.006  0.0047 -0.0403 -0.1085
 1794TIP3    H1 5388   5.351   3.756   3.036  0.2883  0.2555 -1.3158
 1794TIP3    H2 5389   5.314   3.612   3.063  0.4212  0.5436  0.5175
 1795TIP3   OH2 5390   0.546   5.345   3.302 -0.1574  0.5677  0.0754
 1795TIP3    H1 5391   0.575   5.389   3.382  0.4833 -0.9322  0.6977
 1795TIP3    H2 5392   0.509   5.262   3.332  0.3819 -0.1606 -1.1980
 1796TIP3   OH2 5393   5.203   5.759   4.990  0.1756 -0.3086 -0.5659
 1796TIP3    H1 5394   5.265   5.831   4.976  0.8059 -0.5787  0.6763
 1796TIP3    H2 5395   5.127   5.782   4.937  0.2083  1.4647  0.0806
 1797TIP3   OH2 5396   4.528   2.478   4.298 -0.0446 -0.5019  0.3697
 1797TIP3    H1 5397   4.594   2.419   4.332  1.0014 -0.2820 -1.1772
 1797TIP3    H2 5398   4.510   2.446   4.210  2.2469  2.6513 -1.4532
 1798TIP3   OH2 5399   4.191   3.467   0.031 -0.6880 -0.4500 -0.5555
 1798TIP3    H1 5400   4.165   3.382   0.066  1.6558 -0.8179  0.5074
 1798TIP3    H2 5401   4.284   3.475   0.053 -0.6819  2.1522 -1.1313
 1799TIP3   OH2 5402   2.589   4.399   4.830  0.4418 -0.0717 -0.7332
 1799TIP3    H1 5403   2.545   4.390   4.745 -0.8600  0.9211 -0.2054
 1799TIP3    H2 5404   2.590   4.493   4.846  1.7647 -0.1693 -0.1788
 1800TIP3   OH2 5405   4.492   4.676   0.554 -0.0455 -1.1195 -0.2066
 1800TIP3    H1 5406   4.413   4.723   0.529 -0.3782 -2.2741 -1.4338
 1800TIP3    H2 5407   4.472   4.639   0.640  0.2620  0.9834  0.8392
 1801TIP3   OH2 5408   1.749   3.541   4.403  0.2212 -0.4514  0.1559
 1801TIP3    H1 5409   1.695   3.616   4.381 -1.0446 -1.3319  0.1342
 1801TIP3    H2 5410   1.721   3.472   4.342  1.4829 -0.9016  0.0403
 1802TIP3   OH2 5411   6.151   5.860   0.194 -0.3749  0.1741 -0.6053
 1802TIP3    H1 5412   6.071   5.886   0.240 -0.4464 -1.6491  0.3707
 1802TIP3    H2 5413   6.121   5.823   0.112 -0.4648  0.3682 -0.6610
 1803TIP3   OH2 5414   3.985   1.729   2.171 -0.0015  0.3799  0.6027
 1803TIP3    H1 5415   4.003   1.641   2.205 -0.9257  0.2415  0.7556
 1803TIP3    H2 5416   3.919   1.765   2.231 -0.2920  0.8330  0.0179
 1804TIP3   OH2 5417   0.433   5.801   4.085  0.7959 -0.2006 -0.0152
 1804TIP3    H1 5418   0.437   5.832   4.176  1.2089 -1.7137  0.5028
 1804TIP3    H2 5419   0.357   5.743   4.083  1.1282 -0.6275 -0.4933
 1805TIP3   OH2 5420   4.240   2.435   5.066  0.0713 -0.4643 -0.1898
 1805TIP3    H1 5421   4.241   2.340   5.074 -1.8797 -0.4809  0.1595
 1805TIP3    H2 5422   4.154   2.462   5.098 -0.2516  1.2263 -2.2124
 1806TIP3   OH2 5423   5.292   0.637   4.175 -0.1520 -0.0591 -0.5718
 1806TIP3    H1 5424   5.376   0.602   4.147 -0.1654  0.4030 -1.2059
 1806TIP3    H2 5425   5.228   0.599   4.115 -0.3587 -0.1858 -0.2717
 1807TIP3   OH2 5426   2.923   5.815   1.609  0.2713  0.2020 -0.3970
 1807TIP3    H1 5427   2.974   5.848   1.535  0.4546  0.0177 -0.3539
 1807TIP3    H2 5428   2.953   5.867   1.684 -0.9240  1.3935 -0.6841
 1808TIP3   OH2 5429   5.236   4.188   3.871 -0.2571  0.5409  0.5634
 1808TIP3    H1 5430   5.276   4.256   3.817  0.3262  1.0451  1.6078
 1808TIP3    H2 5431   5.143   4.193   3.850  0.0605  0.0277 -1.1456
 1809TIP3   OH2 5432   5.215   4.585   4.901  0.4300  0.2027  0.0828
 1809TIP3    H1 5433   5.135   4.637   4.909  0.4523  0.4428 -1.0290
 1809TIP3    H2 5434   5.270   4.615   4.973 -1.4754 -1.9116  2.5934
 1810TIP3   OH2 5435   5.208   0.647   1.374  0.1766  0.4187 -0.0714
 1810TIP3    H1 5436   5.273   0.717   1.369 -0.9008  1.5175  0.5901
 1810TIP3    H2 5437   5.154   0.670   1.449  0.3815 -1.6903  0.7814
 1811TIP3   OH2 5438   3.561   0.854   2.564 -0.4118 -0.3839  0.2187
 1811TIP3    H1 5439   3.543   0.885   2.653 -0.8854  0.5174 -0.1752
 1811TIP3    H2 5440   3.640   0.901   2.539 -0.5156 -0.3244  0.0074
 1812TIP3   OH2 5441   0.789   3.222   0.708  0.1988  0.3302  0.0656
 1812TIP3    H1 5442   0.815   3.300   0.659  1.5754 -1.0780 -1.5878
 1812TIP3    H2 5443   0.738   3.171   0.646 -1.4938  0.2898  1.4214
 1813TIP3   OH2 5444   4.889   3.388   4.863  0.3494 -0.2476 -0.2296
 1813TIP3    H1 5445   4.905   3.438   4.944  2.8688 -2.4048  0.7426
 1813TIP3    H2 5446   4.854   3.305   4.893 -0.5984 -0.3477 -1.5533
 1814TIP3   OH2 5447   2.253   2.321   2.251  0.0603 -0.6754  0.4706
 1814TIP3    H1 5448   2.265   2.229   2.278  1.9833 -1.3168 -2.2071
 1814TIP3    H2 5449   2.341   2.356   2.248 -0.1967 -0.0672 -2.7143
 1815TIP3   OH2 5450   4.645   5.136   1.518 -0.2575 -0.0564 -0.4137
 1815TIP3    H1 5451   4.707   5.147   1.447  1.8166  0.1541  1.3405
 1815TIP3    H2 5452   4.656   5.046   1.547  0.2257  0.3484  0.7482
 1816TIP3   OH2 5453   5.779   0.919   2.624 -0.6382  0.0735  0.4386
 1816TIP3    H1 5454   5.693   0.940   2.661 -0.8944  1.9481 -1.0509
 1816TIP3    H2 5455   5.760   0.897   2.533  0.4430  0.5397  0.0911
 1817TIP3   OH2 5456   4.091   5.669   2.555  0.4513  0.1331  0.2341
 1817TIP3    H1 5457   3.999   5.688   2.570  0.9761  2.1964  1.2505
 1817TIP3    H2 5458   4.111   5.711   2.471  0.4909 -0.1863  0.0840
 1818TIP3   OH2 5459   0.706   0.974   4.375 -0.1399  0.2038  1.2599
 1818TIP3    H1 5460   0.620   0.940   4.399 -1.2380  0.8517 -1.4212
 1818TIP3    H2 5461   0.689   1.059   4.335  1.4617 -0.5699 -1.3146
 1819TIP3   OH2 5462   1.439   2.782   4.499  0.1314  0.0206 -0.0849
 1819TIP3    H1 5463   1.398   2.789   4.585 -0.0293 -0.1713 -0.1445
 1819TIP3    H2 5464   1.433   2.689   4.477  2.7125 -0.4624  0.9428
 1820TIP3   OH2 5465   4.287   5.257   0.898  0.7295  0.0483  0.1333
 1820TIP3    H1 5466   4.226   5.202   0.948 -0.6926 -0.2538 -1.8260
 1820TIP3    H2 5467   4.285   5.222   0.809  2.7731  0.8988 -0.3062
 1821TIP3   OH2 5468   0.227   3.219   3.692 -0.3753  0.4739 -0.3336
 1821TIP3    H1 5469   0.320   3.240   3.686 -0.3248  0.4645  0.3229
 1821TIP3    H2 5470   0.200   3.255   3.777 -0.9159  0.2743 -0.4167
 1822TIP3   OH2 5471   4.437   0.097   3.386  0.6286  0.0625 -0.0837
 1822TIP3    H1 5472   4.376   0.039   3.431  0.2325 -0.0969 -0.8006
 1822TIP3    H2 5473   4.392   0.182   3.382  0.4213 -0.0646 -0.6461
 1823TIP3   OH2 5474   1.842   3.465   2.877  0.4165 -0.1681 -0.3229
 1823TIP3    H1 5475   1.844   3.374   2.904  0.0259 -0.1036 -0.0618
 1823TIP3    H2 5476   1.775   3.505   2.933 -0.8931 -0.1727 -1.8091
 1824TIP3   OH2 5477   5.817   3.507   3.950  0.1575 -0.5814  0.1091
 1824TIP3    H1 5478   5.869   3.572   3.904  0.6466 -1.2077 -0.2459
 1824TIP3    H2 5479   5.743   3.488   3.893 -1.2952  1.3489  1.2256
 1825TIP3   OH2 5480   5.358   1.163   1.482  0.1889  0.0337  0.3290
 1825TIP3    H1 5481   5.432   1.224   1.486  0.5492 -0.4414  1.7983
 1825TIP3    H2 5482   5.368   1.109   1.561 -1.1048 -0.7730 -0.0308
 1826TIP3   OH2 5483   4.730   3.240   5.109 -0.0924 -0.2759  0.4755
 1826TIP3    H1 5484   4.697   3.261   5.196 -2.1898  2.6942 -0.8439
 1826TIP3    H2 5485   4.825   3.229   5.121 -0.4982 -1.4952  3.2785
 1827TIP3   OH2 5486   1.794   0.937   0.767 -0.4713  0.2645 -0.0176
 1827TIP3    H1 5487   1.798   0.871   0.698  0.7921  0.2726  0.0259
 1827TIP3    H2 5488   1.755   1.014   0.725  3.1949  1.4040 -1.7401
 1828TIP3   OH2 5489   0.456   3.745   3.600 -0.1510 -0.1567 -0.3923
 1828TIP3    H1 5490   0.431   3.744   3.507  0.5022 -0.6459 -0.5726
 1828TIP3    H2 5491   0.490   3.834   3.614  1.2877 -0.5718 -1.0644
 1829TIP3   OH2 5492   0.791   3.671   1.035  0.0382  0.1193  0.3027
 1829TIP3    H1 5493   0.886   3.671   1.028  0.0145 -1.4367 -0.3857
 1829TIP3    H2 5494   0.763   3.598   0.980 -1.4122 -0.7424  2.0914
 1830TIP3   OH2 5495   4.965   4.171   3.042 -0.3988 -0.3527  0.6347
 1830TIP3    H1 5496   4.961   4.198   2.950 -0.3140  1.0628  1.0202
 1830TIP3    H2 5497   5.000   4.082   3.040 -0.2908 -0.2952 -0.6938
 1831TIP3   OH2 5498   5.153   5.456   2.022 -0.4479 -0.0856 -0.3262
 1831TIP3    H1 5499   5.215   5.407   1.968  0.5554  0.7100  0.0825
 1831TIP3    H2 5500   5.202   5.477   2.101 -0.5781  2.2782 -0.8131
 1832TIP3   OH2 5501   4.972   1.119   3.849  0.3902 -0.0080  0.0378
 1832TIP3    H1 5502   5.024   1.196   3.825 -1.0524  0.9209 -0.2279
 1832TIP3    H2 5503   4.918   1.149   3.923 -1.1625 -0.3180 -0.9237
 1833TIP3   OH2 5504   3.331   0.766   1.678  0.2593  0.0452 -0.5124
 1833TIP3    H1 5505   3.315   0.679   1.714 -1.8283  0.6890  0.2315
 1833TIP3    H2 5506   3.268   0.775   1.606  0.6585  0.8295 -0.7836
 1834TIP3   OH2 5507   6.220   3.574   3.529  0.1125  0.3197  0.2811
 1834TIP3    H1 5508   6.254   3.560   3.440  0.6614 -1.4378  0.7160
 1834TIP3    H2 5509   6.296   3.561   3.585 -0.4081  0.5860  1.0496
 1835TIP3   OH2 5510   4.532   3.304   1.158 -0.6077 -0.3768  0.7092
 1835TIP3    H1 5511   4.444   3.267   1.156 -1.4662  1.5576 -1.2117
 1835TIP3    H2 5512   4.576   3.265   1.083 -1.4671  2.1356 -1.2335
 1836TIP3   OH2 5513   5.320   5.991   0.382  0.5306  0.1180  0.2154
 1836TIP3    H1 5514   5.406   6.002   0.423  1.2634 -1.0533 -0.9227
 1836TIP3    H2 5515   5.314   5.897   0.364 -0.8102  0.2494 -0.1140
 1837TIP3   OH2 5516   0.739   0.203   0.550  0.2729 -0.1216  0.0074
 1837TIP3    H1 5517   0.648   0.177   0.539  0.8133 -1.8196 -0.8950
 1837TIP3    H2 5518   0.783   0.172   0.471  1.5322  1.2238  0.1327
 1838TIP3   OH2 5519   3.086   4.678   1.627  0.5813  0.4453 -0.0110
 1838TIP3    H1 5520   3.170   4.635   1.611  0.8602  1.3784 -1.1924
 1838TIP3    H2 5521   3.072   4.668   1.721  1.6518 -0.3713  0.0826
 1839TIP3   OH2 5522   5.042   3.592   5.178 -0.0455 -0.0731 -0.0015
 1839TIP3    H1 5523   5.042   3.498   5.158 -0.6017 -0.3762  1.3219
 1839TIP3    H2 5524   4.968   3.627   5.128  0.5140 -0.2102 -0.9613
 1840TIP3   OH2 5525   5.896   1.661   4.388  0.4845 -0.1282 -0.0683
 1840TIP3    H1 5526   5.822   1.665   4.448  1.1470 -0.7184  0.8044
 1840TIP3    H2 5527   5.891   1.742   4.338 -1.3489 -0.6063 -0.7404
 1841TIP3   OH2 5528   3.140   2.896   3.320  0.8618  0.3767 -0.7537
 1841TIP3    H1 5529   3.209   2.836   3.291  1.7544  1.7981 -1.6685
 1841TIP3    H2 5530   3.136   2.963   3.252 -0.8328  0.8023 -0.2703
 1842TIP3   OH2 5531   1.145   2.468   3.118  0.0585 -0.9559  0.7356
 1842TIP3    H1 5532   1.103   2.462   3.032 -1.2965  1.4285  1.1479
 1842TIP3    H2 5533   1.236   2.492   3.099 -0.5888  1.0479 -0.0533
 1843TIP3   OH2 5534   1.101   0.135   3.260  0.3921  0.0459 -0.2707
 1843TIP3    H1 5535   1.031   0.200   3.271  1.1506  0.8299  0.0867
 1843TIP3    H2 5536   1.181   0.187   3.262  0.9447 -0.7037 -1.7963
 1844TIP3   OH2 5537   5.449   0.837   3.615 -0.1409  0.2513  0.4973
 1844TIP3    H1 5538   5.397   0.917   3.622 -0.8944  0.1375 -2.3734
 1844TIP3    H2 5539   5.507   0.854   3.540  2.3457 -0.5277  2.1345
 1845TIP3   OH2 5540   1.412   4.364   2.149 -0.0929  0.1486  0.0110
 1845TIP3    H1 5541   1.352   4.407   2.088 -1.4515  0.1021  1.2699
 1845TIP3    H2 5542   1.499   4.391   2.120 -0.7697  1.1666 -1.1536
 1846TIP3   OH2 5543   1.876   4.025   0.530 -0.4512  0.0918 -0.4335
 1846TIP3    H1 5544   1.797   3.987   0.567  0.0589 -0.9622 -0.3911
 1846TIP3    H2 5545   1.871   4.005   0.437  0.8231 -2.0118 -0.1148
 1847TIP3   OH2 5546   5.429   3.354   0.512  0.4739  0.6071  1.1098
 1847TIP3    H1 5547   5.428   3.427   0.575  0.1517  2.3608 -0.8415
 1847TIP3    H2 5548   5.514   3.362   0.469  0.1527  0.2323  0.4058
 1848TIP3   OH2 5549   5.810   2.834   1.269 -0.0115  0.1855  0.1415
 1848TIP3    H1 5550   5.760   2.912   1.294  0.6848  1.4289 -2.0565
 1848TIP3    H2 5551   5.839   2.852   1.180  0.0407 -2.6931 -0.5202
 1849TIP3   OH2 5552   1.458   5.081   2.674 -0.4554  0.5353 -0.0785
 1849TIP3    H1 5553   1.380   5.080   2.619 -0.4754  2.0690 -0.1230
 1849TIP3    H2 5554   1.448   5.158   2.729  1.4380  1.3268 -0.7199
 1850TIP3   OH2 5555   0.233   3.478   1.533  0.2759 -0.5081  0.4769
 1850TIP3    H1 5556   0.277   3.394   1.525 -2.5435 -2.0920  0.4356
 1850TIP3    H2 5557   0.187   3.474   1.617 -1.1366  0.3141 -0.2075
 1851TIP3   OH2 5558   3.104   3.749   5.106 -0.9479 -0.3107  0.1237
 1851TIP3    H1 5559   3.174   3.814   5.101 -0.6462 -0.7050 -1.5485
 1851TIP3    H2 5560   3.027   3.794   5.072 -1.4953  0.0760  1.8203
 1852TIP3   OH2 5561   5.669   4.671   2.673  0.1771 -0.0309  0.3682
 1852TIP3    H1 5562   5.580   4.681   2.641  0.9939  1.8545 -1.5960
 1852TIP3    H2 5563   5.662   4.675   2.768 -1.9647 -1.7855  0.3592
 1853TIP3   OH2 5564   4.183   0.052   2.134 -0.6717 -0.1298  1.2920
 1853TIP3    H1 5565   4.204  -0.033   2.173 -1.7713 -0.4520  1.2253
 1853TIP3    H2 5566   4.212   0.116   2.198  1.1399 -0.5016  0.8789
 1854TIP3   OH2 5567   4.538   5.326   0.903  0.6841  0.1689  0.5494
 1854TIP3    H1 5568   4.573   5.414   0.913 -0.0109  0.5074  0.0324
 1854TIP3    H2 5569   4.448   5.332   0.934 -0.3819  0.3994 -2.2728
 1855TIP3   OH2 5570   5.747   4.487   0.302 -0.1706  0.3180 -0.2682
 1855TIP3    H1 5571   5.794   4.508   0.383 -0.1310  1.9818 -0.6992
 1855TIP3    H2 5572   5.658   4.520   0.317 -0.0916  0.8725 -1.0019
 1856TIP3   OH2 5573   0.848   2.619   3.504  0.0222 -0.4101  0.0843
 1856TIP3    H1 5574   0.897   2.599   3.584 -0.7061  1.0957  0.9552
 1856TIP3    H2 5575   0.827   2.712   3.512 -0.3232 -0.2982 -1.7380
 1857TIP3   OH2 5576   0.839   2.820   2.896  0.6425  0.6110 -0.1279
 1857TIP3    H1 5577   0.771   2.815   2.830  0.5014 -3.2302  0.1188
 1857TIP3    H2 5578   0.913   2.862   2.852  0.0688 -0.5249 -2.2707
 1858TIP3   OH2 5579   0.854   5.589   3.168  0.3433 -0.0161 -0.3293
 1858TIP3    H1 5580   0.769   5.599   3.210  0.2582  0.8553 -0.6811
 1858TIP3    H2 5581   0.860   5.496   3.146 -0.7901  0.0329 -0.8838
 1859TIP3   OH2 5582   1.416   3.192   0.124 -0.1724  0.3135  1.2728
 1859TIP3    H1 5583   1.439   3.284   0.113  0.7774 -0.1152 -1.1788
 1859TIP3    H2 5584   1.323   3.187   0.102 -0.3301  0.7332  1.8348
 1860TIP3   OH2 5585   1.858   0.153   1.555  0.5137  0.1123  1.1556
 1860TIP3    H1 5586   1.942   0.198   1.562  0.3984  0.8656 -1.2554
 1860TIP3    H2 5587   1.793   0.220   1.574  0.3726  0.8248 -1.5111
 1861TIP3   OH2 5588   0.342   3.936   2.183  0.9679 -0.4555  0.2735
 1861TIP3    H1 5589   0.386   4.019   2.200  2.3992 -0.9356 -0.8737
 1861TIP3    H2 5590   0.298   3.949   2.099  1.4708 -0.9325 -0.0746
 1862TIP3   OH2 5591   4.295   0.241   0.991 -0.3087 -0.9110 -0.3675
 1862TIP3    H1 5592   4.246   0.286   0.922  0.4581 -0.3815 -0.5806
 1862TIP3    H2 5593   4.236   0.172   1.021 -2.0869  1.0553  0.9242
 1863TIP3   OH2 5594   2.048   1.094   0.680  0.3885  0.1777  0.2088
 1863TIP3    H1 5595   1.980   1.029   0.665  0.9856  0.0781 -2.4864
 1863TIP3    H2 5596   2.125   1.044   0.707  0.2304  0.0213  0.3715
 1864TIP3   OH2 5597   4.436   5.914   2.425 -0.2990 -0.0531  0.3764
 1864TIP3    H1 5598   4.472   6.002   2.437  0.5259 -0.2697 -0.4570
 1864TIP3    H2 5599   4.474   5.883   2.343 -2.3536 -0.3257 -0.5391
 1865TIP3   OH2 5600   1.524   2.047   4.867  0.4330  0.3773  0.3146
 1865TIP3    H1 5601   1.458   2.107   4.904  0.2684  0.2911  0.1632
 1865TIP3    H2 5602   1.489   2.025   4.781  0.3996 -0.0917  0.4476
 1866TIP3   OH2 5603   0.533   1.419   1.414 -0.3935  0.0820  0.4907
 1866TIP3    H1 5604   0.474   1.488   1.383 -1.4372 -1.3808 -0.9413
 1866TIP3    H2 5605   0.620   1.459   1.411 -0.8280  1.0253 -1.4017
 1867TIP3   OH2 5606   4.585   4.500   0.360 -0.2875 -0.5200  0.1352
 1867TIP3    H1 5607   4.506   4.492   0.308 -0.2803 -0.3658  0.0992
 1867TIP3    H2 5608   4.559   4.549   0.438 -0.6240 -1.9777  0.9820
 1868TIP3   OH2 5609   3.058   1.904   3.224  0.1696 -0.4437 -0.0692
 1868TIP3    H1 5610   3.146   1.937   3.242 -0.1300  0.2860  0.1063
 1868TIP3    H2 5611   3.053   1.898   3.129  0.2061  0.1258 -0.1133
 1869TIP3   OH2 5612   2.566   2.583   0.133 -0.2504  0.5319 -0.3443
 1869TIP3    H1 5613   2.656   2.552   0.125  0.0982  1.3672  0.1998
 1869TIP3    H2 5614   2.533   2.583   0.043 -0.2833 -1.3858 -0.3698
 1870TIP3   OH2 5615   6.291   3.024   0.372 -0.1097  0.7463 -0.1941
 1870TIP3    H1 5616   6.314   3.027   0.464  0.2378 -1.5166 -0.1461
 1870TIP3    H2 5617   6.374   3.012   0.326 -0.5025 -1.0626 -0.5257
 1871TIP3   OH2 5618   1.954   0.998   3.862  0.1135  0.1579 -0.4584
 1871TIP3    H1 5619   2.023   1.010   3.928 -1.1315  1.0537  0.7634
 1871TIP3    H2 5620   1.874   0.989   3.914 -1.0983  2.1710 -1.8379
 1872TIP3   OH2 5621   3.203   5.876   5.012 -0.0607 -0.0746  0.1510
 1872TIP3    H1 5622   3.242   5.803   5.059 -0.9799 -0.4720  0.3164
 1872TIP3    H2 5623   3.116   5.845   4.988  0.2680  0.2293 -1.5416
 1873TIP3   OH2 5624   4.718   4.865   2.852 -0.2251 -0.9033  0.1162
 1873TIP3    H1 5625   4.710   4.955   2.882 -1.2210 -1.2216  0.8758
 1873TIP3    H2 5626   4.793   4.865   2.792 -2.2315  1.1828 -2.6964
 1874TIP3   OH2 5627   3.530   3.996   1.171 -0.1442  0.4017  0.3122
 1874TIP3    H1 5628   3.457   3.950   1.212  0.8654 -1.5552  0.0147
 1874TIP3    H2 5629   3.532   3.963   1.081 -1.2589  3.3567 -0.9459
 1875TIP3   OH2 5630   2.934   4.370   1.571 -0.1563 -0.0109  0.1903
 1875TIP3    H1 5631   2.976   4.455   1.558  0.0583 -0.1527 -0.0425
 1875TIP3    H2 5632   2.847   4.391   1.606 -0.1112  0.3049  0.1124
 1876TIP3   OH2 5633   5.661   0.839   1.898 -0.0917 -0.0597 -0.3204
 1876TIP3    H1 5634   5.645   0.749   1.928 -0.5213  0.5204  1.3017
 1876TIP3    H2 5635   5.653   0.834   1.803 -1.9443 -1.3877 -0.1470
 1877TIP3   OH2 5636   3.512   0.778   4.577 -0.3265 -1.0243 -0.8253
 1877TIP3    H1 5637   3.590   0.722   4.569  1.6416  0.9027  2.6429
 1877TIP3    H2 5638   3.538   0.861   4.536 -0.7040 -0.5128 -0.0446
 1878TIP3   OH2 5639   0.863   0.445   4.765 -0.7885 -0.0860  0.4076
 1878TIP3    H1 5640   0.804   0.433   4.691  0.6349 -1.4148 -0.5712
 1878TIP3    H2 5641   0.841   0.374   4.825 -0.8901  0.0594  0.5449
 1879TIP3   OH2 5642   1.768   2.062   1.211 -0.1427 -0.4771  0.2629
 1879TIP3    H1 5643   1.803   2.150   1.220 -1.3058  0.1220 -0.8713
 1879TIP3    H2 5644   1.764   2.029   1.301  1.9269 -0.0611  0.5650
 1880TIP3   OH2 5645   3.044   2.368   0.090  0.3452  0.3793 -0.1197
 1880TIP3    H1 5646   3.073   2.451   0.052 -0.7149  0.5214 -0.6469
 1880TIP3    H2 5647   3.125   2.321   0.109  0.9340  0.8863 -1.2695
 1881TIP3   OH2 5648   4.417   1.753   3.558 -0.0837  0.0090 -0.0302
 1881TIP3    H1 5649   4.369   1.805   3.494  0.4293  1.3240  0.6317
 1881TIP3    H2 5650   4.370   1.767   3.641  0.3495 -0.1762  0.2518
 1882TIP3   OH2 5651   3.995   2.413   2.456  0.0949  0.3236  0.3309
 1882TIP3    H1 5652   4.055   2.485   2.471  2.1054 -1.4728  1.5508
 1882TIP3    H2 5653   3.968   2.385   2.544 -0.1430 -0.7700 -0.0652
 1883TIP3   OH2 5654   4.533   2.758   0.080 -0.2053 -0.3721  0.2910
 1883TIP3    H1 5655   4.489   2.684   0.123  0.9953 -0.1766  1.9495
 1883TIP3    H2 5656   4.611   2.719   0.040  0.1610 -0.1050  0.7311
 1884TIP3   OH2 5657   1.972   1.803   2.244 -0.1302  0.2064 -0.6598
 1884TIP3    H1 5658   1.903   1.857   2.205  0.8199  0.1570 -2.5571
 1884TIP3    H2 5659   1.951   1.714   2.218  0.0467  0.0630 -0.3142
 1885TIP3   OH2 5660   1.763   3.596   1.478 -0.4560 -0.2676  0.0443
 1885TIP3    H1 5661   1.792   3.634   1.395  2.4565  1.2466  1.5845
 1885TIP3    H2 5662   1.803   3.509   1.480 -2.0368 -1.0702 -0.8211
 1886TIP3   OH2 5663   6.156   3.819   1.428 -0.0972 -0.3075 -0.7148
 1886TIP3    H1 5664   6.183   3.772   1.507  0.1727 -1.7364 -1.6095
 1886TIP3    H2 5665   6.064   3.795   1.416 -0.4282  0.7199 -0.2883
 1887TIP3   OH2 5666   5.168   3.448   2.535 -0.3446  0.3627  0.3200
 1887TIP3    H1 5667   5.206   3.518   2.483  0.7227 -0.1809  0.3451
 1887TIP3    H2 5668   5.123   3.492   2.607 -2.2155  1.1656 -1.2277
 1888TIP3   OH2 5669   5.700   1.517   3.313 -0.2383  0.6126 -0.2880
 1888TIP3    H1 5670   5.728   1.426   3.305 -0.3855  0.4406  0.9775
 1888TIP3    H2 5671   5.782   1.566   3.323 -0.1019  0.7430 -1.7348
 1889TIP3   OH2 5672   3.008   0.177   1.473 -0.0861  0.5158  0.2340
 1889TIP3    H1 5673   2.968   0.146   1.392  1.0961 -0.9992  0.1866
 1889TIP3    H2 5674   2.950   0.147   1.543 -0.4618  0.7451  0.0201
 1890TIP3   OH2 5675   3.319   1.036   1.463 -0.3097 -0.1454  0.6888
 1890TIP3    H1 5676   3.259   1.012   1.392  1.3660 -1.2391 -0.4244
 1890TIP3    H2 5677   3.350   1.123   1.440  0.1216 -0.4393  0.1322
 1891TIP3   OH2 5678   3.481   2.680   4.025  0.3107  0.2499 -0.2162
 1891TIP3    H1 5679   3.513   2.714   4.109 -1.6282  0.5195  0.4580
 1891TIP3    H2 5680   3.489   2.753   3.965  2.4429 -0.1631 -0.5392
 1892TIP3   OH2 5681   3.884   5.441   1.310 -0.2751 -0.0677 -0.2908
 1892TIP3    H1 5682   3.958   5.382   1.324 -1.3838 -1.2041  0.8841
 1892TIP3    H2 5683   3.807   5.392   1.336 -1.2400  1.9241  0.8740
 1893TIP3   OH2 5684   0.699   2.976   3.209 -0.0809  0.4916  0.1949
 1893TIP3    H1 5685   0.711   3.042   3.140 -0.4442  2.2065  1.6888
 1893TIP3    H2 5686   0.787   2.944   3.226  0.1120  0.6060 -0.5449
 1894TIP3   OH2 5687   3.454   5.402   4.966 -0.1853 -1.1324 -0.1254
 1894TIP3    H1 5688   3.460   5.391   5.061  1.0894  0.8870  0.1001
 1894TIP3    H2 5689   3.522   5.344   4.931  0.0439 -1.1239  0.2950
 1895TIP3   OH2 5690   3.559   0.730   1.825 -0.5631 -0.1737 -0.3667
 1895TIP3    H1 5691   3.471   0.742   1.790  0.1717  0.2434 -2.1957
 1895TIP3    H2 5692   3.583   0.641   1.799 -0.2841 -0.1252 -0.2747
 1896TIP3   OH2 5693   5.417   5.149   0.660  0.7224  0.1693  0.0873
 1896TIP3    H1 5694   5.511   5.132   0.669  0.4825 -0.3162  2.5561
 1896TIP3    H2 5695   5.378   5.062   0.650  0.4459  0.2182  0.6610
 1897TIP3   OH2 5696   6.136   0.147   0.986 -0.6032 -0.1099  0.4686
 1897TIP3    H1 5697   6.048   0.131   0.950 -0.5388  1.4710 -0.4875
 1897TIP3    H2 5698   6.136   0.239   1.009  0.5255 -0.3095  1.3582
 1898TIP3   OH2 5699   4.536   0.967   3.746 -0.4609  0.6129  0.1926
 1898TIP3    H1 5700   4.460   0.997   3.695 -0.5201  1.1914  0.6137
 1898TIP3    H2 5701   4.605   0.957   3.681 -0.1461  2.6486  0.1522
 1899TIP3   OH2 5702   5.119   2.679   4.426 -0.5437  0.0142 -0.1364
 1899TIP3    H1 5703   5.094   2.767   4.454  0.9804  0.2165  0.7105
 1899TIP3    H2 5704   5.038   2.640   4.394 -1.3817  1.4895  0.0996
 1900TIP3   OH2 5705   1.275   3.363   1.838 -0.4711 -0.4480  0.4658
 1900TIP3    H1 5706   1.207   3.336   1.899 -0.6586 -2.2659 -0.4726
 1900TIP3    H2 5707   1.357   3.339   1.882 -0.5616 -0.7323  0.4844
 1901TIP3   OH2 5708   1.344   3.475   4.628  0.1034 -0.3705  0.0755
 1901TIP3    H1 5709   1.362   3.568   4.615  1.1660 -0.4481  0.8507
 1901TIP3    H2 5710   1.407   3.430   4.572 -0.3781 -0.6296 -0.2635
 1902TIP3   OH2 5711   6.045   1.138   4.427 -0.1127 -0.3164  0.6699
 1902TIP3    H1 5712   5.977   1.076   4.453  0.1167 -0.6041  0.5845
 1902TIP3    H2 5713   6.124   1.084   4.416 -0.8756 -0.9336 -4.0815
 1903TIP3   OH2 5714   0.382   0.295   4.707 -0.1984  0.0913 -0.1048
 1903TIP3    H1 5715   0.334   0.216   4.683  1.4495 -0.6093 -1.3214
 1903TIP3    H2 5716   0.346   0.320   4.793 -0.5443 -2.1680  0.4796
 1904TIP3   OH2 5717   1.758   0.663   2.718  0.3199 -0.0054 -0.1830
 1904TIP3    H1 5718   1.688   0.602   2.743  0.3296 -0.6119 -1.5596
 1904TIP3    H2 5719   1.804   0.619   2.646  1.8475  0.5859  0.4006
 1905TIP3   OH2 5720   4.052   5.499   4.875  0.0716 -0.2284 -0.8914
 1905TIP3    H1 5721   4.087   5.525   4.790  0.5394 -0.2884 -0.7223
 1905TIP3    H2 5722   4.093   5.560   4.937  0.4371 -0.7647 -0.6037
 1906TIP3   OH2 5723   2.688   3.299   0.109 -0.3408  0.0370 -0.2608
 1906TIP3    H1 5724   2.717   3.256   0.189 -0.1879  0.1779 -0.2405
 1906TIP3    H2 5725   2.766   3.344   0.076 -0.6513  0.8391  0.0718
 1907TIP3   OH2 5726   6.218   0.820   4.809 -0.3736 -0.0130  0.0694
 1907TIP3    H1 5727   6.271   0.769   4.869  1.6548  0.8884 -0.8605
 1907TIP3    H2 5728   6.281   0.865   4.753 -2.0271  2.6865  0.1528
 1908TIP3   OH2 5729   0.633   1.899   1.819 -0.1674 -0.6577  0.0533
 1908TIP3    H1 5730   0.653   1.925   1.908 -0.2025 -2.3825  0.5929
 1908TIP3    H2 5731   0.659   1.974   1.765  1.4897 -0.2595  1.3387
 1909TIP3   OH2 5732   0.800   2.149   4.890  0.0681  0.0363  0.0193
 1909TIP3    H1 5733   0.779   2.188   4.974 -0.0529  0.2778 -0.1227
 1909TIP3    H2 5734   0.774   2.057   4.899  1.3869 -0.2964  0.7379
 1910TIP3   OH2 5735   2.759   1.428   1.556  0.1715  0.1572 -0.0051
 1910TIP3    H1 5736   2.792   1.498   1.614 -1.0623 -0.4350  1.4879
 1910TIP3    H2 5737   2.712   1.369   1.615 -1.3699 -0.3543 -1.6723
 1911TIP3   OH2 5738   1.536   3.522   4.109  0.2427  0.3873  0.3277
 1911TIP3    H1 5739   1.617   3.470   4.101  0.1138  0.4778 -2.3256
 1911TIP3    H2 5740   1.475   3.464   4.154  0.8196 -0.9290 -0.5180
 1912TIP3   OH2 5741   2.601   5.919   2.216  0.3664 -0.1924 -0.6622
 1912TIP3    H1 5742   2.514   5.958   2.206  0.4913  0.2765 -0.0228
 1912TIP3    H2 5743   2.634   5.909   2.127 -0.0160  0.3775 -0.8704
 1913TIP3   OH2 5744   3.803   1.598   4.219  0.2740  0.0395 -0.7253
 1913TIP3    H1 5745   3.746   1.544   4.165  1.2281 -1.1830 -0.5394
 1913TIP3    H2 5746   3.832   1.540   4.289 -1.7317  1.8174  1.7925
 1914TIP3   OH2 5747   3.532   3.784   3.203  0.5415 -0.3041 -0.1254
 1914TIP3    H1 5748   3.611   3.748   3.164  1.8210 -0.2053  2.2102
 1914TIP3    H2 5749   3.562   3.833   3.280 -1.5185  2.3157 -0.8149
 1915TIP3   OH2 5750   0.299   0.896   3.666 -0.1721  0.4638 -0.5358
 1915TIP3    H1 5751   0.332   0.947   3.740  0.4388  0.9794 -1.1491
 1915TIP3    H2 5752   0.375   0.846   3.636 -0.3756  0.3736 -0.9052
 1916TIP3   OH2 5753   4.074   1.207   4.138  0.5544  0.1046 -0.4545
 1916TIP3    H1 5754   4.047   1.294   4.109  1.1530  0.0349 -1.2637
 1916TIP3    H2 5755   4.150   1.186   4.084  0.6538 -0.7654 -0.0039
 1917TIP3   OH2 5756   5.688   3.943   3.913 -0.0842 -0.2002  0.0992
 1917TIP3    H1 5757   5.688   3.983   3.825  2.4037  0.5637  0.3728
 1917TIP3    H2 5758   5.634   4.003   3.966  1.3755  1.3944 -0.1242
 1918TIP3   OH2 5759   1.437   0.357   3.677 -0.0367  0.1636 -0.2360
 1918TIP3    H1 5760   1.474   0.332   3.762  0.7789 -0.7217 -0.8304
 1918TIP3    H2 5761   1.506   0.408   3.635  0.1050 -0.5682 -0.9154
 1919TIP3   OH2 5762   0.019   3.925   4.506 -0.3901  0.1313  0.8109
 1919TIP3    H1 5763   0.033   3.991   4.574  0.4496  0.2651  0.5167
 1919TIP3    H2 5764   0.099   3.872   4.507 -1.7264 -2.0115  2.2400
 1920TIP3   OH2 5765   1.732   2.569   3.882  0.3933 -0.3205 -0.5124
 1920TIP3    H1 5766   1.750   2.662   3.866 -2.0285  0.3902  0.4258
 1920TIP3    H2 5767   1.708   2.565   3.975  0.9171 -1.9966 -0.4095
 1921TIP3   OH2 5768   6.175   1.178   3.167  0.1851  0.5045  0.4870
 1921TIP3    H1 5769   6.265   1.147   3.170  0.4208  1.2030  0.7964
 1921TIP3    H2 5770   6.167   1.237   3.242  0.0966  2.1449 -0.7610
 1922TIP3   OH2 5771   6.204   2.192   2.742  0.6695 -0.6702 -0.1951
 1922TIP3    H1 5772   6.111   2.170   2.733  0.1232  1.0370  0.8937
 1922TIP3    H2 5773   6.209   2.285   2.724  1.7678 -0.2253  1.9961
 1923TIP3   OH2 5774   4.715   2.711   0.813  0.4323  0.2587  0.6671
 1923TIP3    H1 5775   4.752   2.781   0.866  2.1029 -0.0005 -0.0961
 1923TIP3    H2 5776   4.735   2.631   0.862  0.1772  0.1703  0.6287
 1924TIP3   OH2 5777   2.233   2.993   1.148  0.0405 -0.1994 -0.6876
 1924TIP3    H1 5778   2.194   3.065   1.199 -0.5840 -1.0785  0.1048
 1924TIP3    H2 5779   2.159   2.936   1.128  0.7278 -1.2558 -0.2545
 1925TIP3   OH2 5780   3.685   2.486   1.109 -0.7416 -0.3208 -0.0371
 1925TIP3    H1 5781   3.727   2.564   1.146 -0.4258  1.7820 -4.2431
 1925TIP3    H2 5782   3.749   2.416   1.124  0.5658  0.9975  0.8395
 1926TIP3   OH2 5783   2.834   4.142   2.288  0.0207  0.1537  0.4147
 1926TIP3    H1 5784   2.894   4.076   2.323 -0.4041  0.3184  1.4933
 1926TIP3    H2 5785   2.878   4.226   2.304 -0.0416  0.2166  0.2618
 1927TIP3   OH2 5786   1.623   1.693   3.817  0.4804 -0.1937 -0.1750
 1927TIP3    H1 5787   1.568   1.629   3.863  1.4085 -1.3107 -0.5541
 1927TIP3    H2 5788   1.655   1.752   3.885 -2.1877  1.3093 -0.1050
 1928TIP3   OH2 5789   2.088   1.971   4.990 -0.1936  0.1422 -0.8916
 1928TIP3    H1 5790   2.067   2.064   4.990 -1.0070 -0.0275 -0.5795
 1928TIP3    H2 5791   2.002   1.927   4.985  0.1531 -0.5858 -0.6014
 1929TIP3   OH2 5792   2.989   3.362   2.415 -0.3284 -0.0861  0.0382
 1929TIP3    H1 5793   3.017   3.405   2.496  1.2871  1.5032 -1.2956
 1929TIP3    H2 5794   2.901   3.396   2.399 -0.0709  0.7487  0.3397
 1930TIP3   OH2 5795   3.201   4.046   3.726  0.4769  0.6296 -0.2436
 1930TIP3    H1 5796   3.270   4.061   3.661 -0.3821 -0.1632 -1.3723
 1930TIP3    H2 5797   3.235   3.975   3.781  0.3694 -0.1010 -1.0991
 1931TIP3   OH2 5798   4.051   0.845   1.453  0.4195 -0.4245 -0.0458
 1931TIP3    H1 5799   4.130   0.791   1.450 -0.5797 -2.1728  1.8143
 1931TIP3    H2 5800   3.991   0.803   1.391  0.8079  0.6998 -1.2106
 1932TIP3   OH2 5801   0.038   4.314   4.892  0.9098  0.2307  0.1285
 1932TIP3    H1 5802   0.004   4.234   4.933  0.4572  0.8307  0.9646
 1932TIP3    H2 5803   0.132   4.299   4.882  0.5751 -1.1407 -1.4580
 1933TIP3   OH2 5804   5.284   5.596   2.744 -0.4438 -0.1780 -0.0252
 1933TIP3    H1 5805   5.194   5.563   2.736 -0.9702  0.9299  1.0351
 1933TIP3    H2 5806   5.338   5.517   2.751 -1.2732 -0.8730 -1.1054
 1934TIP3   OH2 5807   3.021   1.433   0.039 -0.1263 -0.0187 -0.1027
 1934TIP3    H1 5808   3.065   1.350   0.021  1.3122  1.0375 -1.8371
 1934TIP3    H2 5809   2.975   1.454  -0.042 -3.0153 -0.5101  1.2896
 1935TIP3   OH2 5810   1.331   0.738   1.128 -0.0801 -0.0238 -0.2967
 1935TIP3    H1 5811   1.274   0.815   1.126  0.1834  0.1601 -1.0042
 1935TIP3    H2 5812   1.343   0.719   1.221  3.1167  3.1772  0.1404
 1936TIP3   OH2 5813   5.838   0.150   4.813 -0.3115  0.2189 -0.5542
 1936TIP3    H1 5814   5.751   0.168   4.775 -0.7434 -0.1694  0.2318
 1936TIP3    H2 5815   5.833   0.059   4.841  0.8826 -0.2838 -1.8712
 1937TIP3   OH2 5816   0.940   0.621   0.965 -0.1960 -0.0878  0.1377
 1937TIP3    H1 5817   0.968   0.576   0.886  0.5665  0.0026  0.3405
 1937TIP3    H2 5818   0.861   0.668   0.940 -0.0069 -0.1286 -0.5442
 1938TIP3   OH2 5819   0.923   2.572   1.301  0.1536 -0.2602  0.0351
 1938TIP3    H1 5820   0.850   2.526   1.342  0.4484 -0.5621  0.2259
 1938TIP3    H2 5821   1.000   2.544   1.351  0.5670 -0.8889 -0.9426
 1939TIP3   OH2 5822   4.201   3.366   4.369 -0.6104 -0.3265 -0.4988
 1939TIP3    H1 5823   4.213   3.341   4.277 -0.2752  0.5501 -0.6971
 1939TIP3    H2 5824   4.202   3.461   4.369 -0.2350 -0.3199  0.4631
 1940TIP3   OH2 5825   5.228   0.258   4.617  0.2480  0.6332 -0.0946
 1940TIP3    H1 5826   5.217   0.185   4.678 -1.4881 -0.2498 -1.3928
 1940TIP3    H2 5827   5.269   0.220   4.540 -1.9547  0.6535 -1.3506
 1941TIP3   OH2 5828   5.049   4.558   3.783  0.0517 -0.3842  0.1101
 1941TIP3    H1 5829   4.959   4.525   3.790  0.1504 -0.5014  0.9069
 1941TIP3    H2 5830   5.088   4.540   3.869  0.9892 -0.7892 -0.3866
 1942TIP3   OH2 5831   5.430   0.598   0.514  0.0349 -0.6069  0.0428
 1942TIP3    H1 5832   5.387   0.584   0.430  0.9170 -0.1050 -0.5041
 1942TIP3    H2 5833   5.478   0.680   0.504 -1.1896  0.3677  1.5925
 1943TIP3   OH2 5834   6.255   3.584   1.888  0.5812  0.9355  0.3371
 1943TIP3    H1 5835   6.227   3.625   1.970  2.5392  1.1238  0.9697
 1943TIP3    H2 5836   6.268   3.492   1.911 -0.0978  0.7194 -0.1115
 1944TIP3   OH2 5837   4.372   1.679   3.995 -0.4016  0.0488 -0.0826
 1944TIP3    H1 5838   4.427   1.649   4.067 -0.0764  2.4186  0.7653
 1944TIP3    H2 5839   4.283   1.658   4.021 -0.5260  2.6765  2.1567
 1945TIP3   OH2 5840   5.090   1.143   0.734 -0.6355  0.3484  1.1709
 1945TIP3    H1 5841   5.083   1.089   0.655 -0.0810  0.2111  1.2112
 1945TIP3    H2 5842   5.018   1.115   0.789 -0.9231  0.3195  0.7837
 1946TIP3   OH2 5843   5.581   4.751   1.122 -0.2149 -0.0150 -0.2128
 1946TIP3    H1 5844   5.631   4.814   1.175 -0.9980  0.8249 -0.4464
 1946TIP3    H2 5845   5.644   4.718   1.058  0.2841  0.2929  0.1081
 1947TIP3   OH2 5846   2.931   5.900   0.748 -0.1549  0.0591 -0.0053
 1947TIP3    H1 5847   2.922   5.921   0.655 -0.3657 -3.6175 -0.9601
 1947TIP3    H2 5848   3.025   5.894   0.762 -0.1276  0.4454 -0.0088
 1948TIP3   OH2 5849   4.149   0.168   1.832  0.1829  0.3604 -0.0304
 1948TIP3    H1 5850   4.225   0.128   1.875 -0.4005 -0.5100  0.2139
 1948TIP3    H2 5851   4.154   0.260   1.856 -0.2910 -0.1360  2.2217
 1949TIP3   OH2 5852   1.171   2.253   3.362 -0.1421  0.2539  0.3329
 1949TIP3    H1 5853   1.181   2.346   3.343  0.5930  0.3142  0.9979
 1949TIP3    H2 5854   1.095   2.249   3.421  0.3183  0.5180  0.9522
 1950TIP3   OH2 5855   5.447   2.859   5.043  0.1565 -0.1393  0.1533
 1950TIP3    H1 5856   5.436   2.799   5.117  2.3828  2.4831  2.9305
 1950TIP3    H2 5857   5.535   2.894   5.054 -0.4186  2.4257 -2.1951
 1951TIP3   OH2 5858   4.957   5.700   1.991  0.5626  0.2508  0.1224
 1951TIP3    H1 5859   5.001   5.622   1.958  1.7898  1.1639 -0.4796
 1951TIP3    H2 5860   5.022   5.742   2.048  0.4766  1.6058 -0.7329
 1952TIP3   OH2 5861   1.026   4.015   3.166 -0.1205  0.0763  0.1828
 1952TIP3    H1 5862   1.056   4.102   3.193 -0.8808  1.0867 -1.9137
 1952TIP3    H2 5863   1.060   4.006   3.077 -2.0691 -0.7015 -0.5305
 1953TIP3   OH2 5864   3.708   5.219   3.468 -0.0644  0.3593  0.2044
 1953TIP3    H1 5865   3.624   5.197   3.509  0.8059 -1.3770  1.1817
 1953TIP3    H2 5866   3.737   5.297   3.514 -0.6248  0.3260  0.6293
 1954TIP3   OH2 5867   5.827   1.254   2.175 -0.7925 -0.3291 -0.3683
 1954TIP3    H1 5868   5.798   1.344   2.191  0.1026 -0.1006  0.0594
 1954TIP3    H2 5869   5.810   1.209   2.258  1.6353  0.2536  0.5323
 1955TIP3   OH2 5870   1.269   1.607   3.993 -0.0244  0.0376  0.3491
 1955TIP3    H1 5871   1.282   1.650   3.909 -0.5645  0.6541  0.5731
 1955TIP3    H2 5872   1.197   1.546   3.979  0.6195 -0.6797  0.0807
 1956TIP3   OH2 5873   6.183   5.368   0.769  0.1145  0.1944 -0.3206
 1956TIP3    H1 5874   6.220   5.351   0.683  0.5640 -0.6260  0.0283
 1956TIP3    H2 5875   6.109   5.426   0.752  0.5394  0.4924 -1.1968
 1957TIP3   OH2 5876   1.984   1.310   2.960  0.0626 -0.1814  0.1609
 1957TIP3    H1 5877   2.080   1.309   2.968 -0.0020 -0.0006  0.9767
 1957TIP3    H2 5878   1.952   1.317   3.050 -0.7157  0.3842 -0.1512
 1958TIP3   OH2 5879   4.124   0.433   0.422 -0.0598 -0.6697 -0.0348
 1958TIP3    H1 5880   4.194   0.441   0.358 -1.0550  0.6729 -1.0087
 1958TIP3    H2 5881   4.108   0.338   0.428  0.0506 -0.8289 -1.8062
 1959TIP3   OH2 5882   4.962   4.320   1.406 -0.2403  0.5595 -0.5163
 1959TIP3    H1 5883   4.971   4.345   1.315 -0.8345 -0.6844 -0.9420
 1959TIP3    H2 5884   5.016   4.383   1.454 -0.0787  1.3447 -1.6973
 1960TIP3   OH2 5885   4.564   4.566   2.471 -0.7818 -0.0495  0.0255
 1960TIP3    H1 5886   4.642   4.611   2.504 -1.1196  0.7811 -0.2942
 1960TIP3    H2 5887   4.595   4.478   2.449 -0.3826 -0.4231  1.8647
 1961TIP3   OH2 5888   3.780   4.661   3.622 -0.3419  0.2537 -0.0326
 1961TIP3    H1 5889   3.868   4.659   3.584  0.3941  0.8730  1.5569
 1961TIP3    H2 5890   3.779   4.588   3.684 -0.2205  1.4693  1.4388
 1962TIP3   OH2 5891   1.457   0.723   3.802 -0.2010 -0.4483 -0.1691
 1962TIP3    H1 5892   1.422   0.650   3.852  1.0236 -0.8630  0.1091
 1962TIP3    H2 5893   1.485   0.685   3.719  1.8870 -0.6428  0.5683
 1963TIP3   OH2 5894   3.450   1.292   1.855 -0.2909  0.2356  0.2213
 1963TIP3    H1 5895   3.420   1.202   1.843  0.2802  0.2858 -2.1790
 1963TIP3    H2 5896   3.521   1.285   1.919  0.0060 -1.1080 -0.2112
 1964TIP3   OH2 5897   5.123   2.234   4.608 -0.0765 -0.7132  0.0917
 1964TIP3    H1 5898   5.094   2.211   4.697 -1.8035  0.6482 -0.0686
 1964TIP3    H2 5899   5.179   2.310   4.619 -1.9696  0.7766 -0.0870
 1965TIP3   OH2 5900   2.372   2.050   3.889 -0.0670  0.2325  0.2556
 1965TIP3    H1 5901   2.410   2.016   3.808 -0.0802 -0.2763  0.4654
 1965TIP3    H2 5902   2.313   2.120   3.860 -0.2380 -0.0965 -0.1892
 1966TIP3   OH2 5903   0.055   2.992   0.036 -0.2512 -0.0645 -0.1941
 1966TIP3    H1 5904   0.059   2.911   0.087  2.1931  0.1792  0.1083
 1966TIP3    H2 5905  -0.005   3.048   0.085  3.1275  0.7564  3.5381
 1967TIP3   OH2 5906   1.711   4.036   2.037 -0.1323  0.4025 -0.3281
 1967TIP3    H1 5907   1.669   3.963   1.991  1.5389  0.2879 -1.7651
 1967TIP3    H2 5908   1.723   4.004   2.127  1.8875 -1.7431 -1.2484
 1968TIP3   OH2 5909   0.283   4.233   3.097  0.8346 -0.8652 -0.3374
 1968TIP3    H1 5910   0.240   4.317   3.084  0.0768 -0.6154  2.8786
 1968TIP3    H2 5911   0.248   4.176   3.029 -1.5251  0.4509 -0.3085
 1969TIP3   OH2 5912   0.926   5.253   1.471 -0.1721 -0.1271 -0.1736
 1969TIP3    H1 5913   0.879   5.285   1.393  0.7200  0.5020 -0.4660
 1969TIP3    H2 5914   0.857   5.241   1.537 -0.9126 -0.4392 -0.9728
 1970TIP3   OH2 5915   1.936   1.041   4.694  0.2243 -0.0286  0.2048
 1970TIP3    H1 5916   1.945   1.112   4.630  1.9389  0.0837  0.5307
 1970TIP3    H2 5917   2.025   1.022   4.722 -0.3726 -1.0220  1.5485
 1971TIP3   OH2 5918   1.657   4.531   3.901 -0.1017 -0.3899  0.3327
 1971TIP3    H1 5919   1.681   4.439   3.903  0.5599 -0.2166  0.7510
 1971TIP3    H2 5920   1.627   4.546   3.812 -0.3214 -1.0345  0.2918
 1972TIP3   OH2 5921   6.296   4.155   1.548  0.2632 -0.4111  0.2123
 1972TIP3    H1 5922   6.381   4.159   1.590  0.4002 -0.1543 -0.0837
 1972TIP3    H2 5923   6.314   4.124   1.459  0.2241  0.9861 -0.3096
 1973TIP3   OH2 5924   5.664   4.637   2.965 -0.0266  1.0726  0.7402
 1973TIP3    H1 5925   5.594   4.675   3.018 -0.8697  0.2982  0.1983
 1973TIP3    H2 5926   5.714   4.584   3.027 -0.6678  0.6238  0.8772
 1974TIP3   OH2 5927   5.887   3.736   3.756  0.4090 -0.1538 -0.6489
 1974TIP3    H1 5928   5.806   3.782   3.734 -0.2663 -0.3867  1.1344
 1974TIP3    H2 5929   5.952   3.805   3.766  0.1862  0.1259 -1.1040
 1975TIP3   OH2 5930   0.343   4.848   4.066 -0.2808 -0.5285 -0.2169
 1975TIP3    H1 5931   0.320   4.932   4.026 -0.5762 -0.1630  0.6838
 1975TIP3    H2 5932   0.433   4.832   4.039 -0.2575  0.0258 -0.4831
 1976TIP3   OH2 5933   3.298   1.396   4.563  0.5675  0.0464  0.1516
 1976TIP3    H1 5934   3.264   1.485   4.571 -0.1997 -0.1860 -0.3994
 1976TIP3    H2 5935   3.221   1.340   4.572  0.9274 -0.5343 -0.2990
 1977TIP3   OH2 5936   4.545   2.218   5.088 -0.1424  0.3007 -0.5587
 1977TIP3    H1 5937   4.546   2.313   5.095  1.4726  0.2260  1.0487
 1977TIP3    H2 5938   4.453   2.195   5.081 -0.6963  1.8848  0.9270
 1978TIP3   OH2 5939   1.101   5.274   4.289  0.0027  0.0398 -0.2250
 1978TIP3    H1 5940   1.070   5.365   4.286 -1.0926 -0.3518 -2.0355
 1978TIP3    H2 5941   1.093   5.250   4.382 -1.8590  1.0898 -0.0453
 1979TIP3   OH2 5942   2.317   2.420   2.529  0.0978 -0.0809  0.2184
 1979TIP3    H1 5943   2.274   2.498   2.564 -1.1811 -1.4714  1.9618
 1979TIP3    H2 5944   2.265   2.395   2.453  0.7130  0.9249 -0.5481
 1980TIP3   OH2 5945   4.539   3.760   0.350 -0.1346 -0.4536 -0.3653
 1980TIP3    H1 5946   4.489   3.837   0.377  0.5774 -1.1267  3.6132
 1980TIP3    H2 5947   4.611   3.795   0.297 -0.2914  1.5414  0.6552
 1981TIP3   OH2 5948   1.081   2.667   4.056 -0.7426  0.2005 -0.1627
 1981TIP3    H1 5949   1.061   2.737   3.994 -1.2339 -0.3325 -0.6182
 1981TIP3    H2 5950   1.139   2.708   4.120 -1.6262  1.2325  0.0149
 1982TIP3   OH2 5951   1.422   4.793   0.249  0.1165 -0.3233  0.1982
 1982TIP3    H1 5952   1.472   4.808   0.170  1.6090  0.3083  1.2164
 1982TIP3    H2 5953   1.331   4.784   0.219  0.3294  1.9277 -1.3956
 1983TIP3   OH2 5954   4.995   0.340   4.363  0.6572  0.1015  0.5319
 1983TIP3    H1 5955   5.010   0.430   4.394 -0.1011  1.2536 -2.1082
 1983TIP3    H2 5956   5.046   0.334   4.282  1.3541 -2.1913  1.0704
 1984TIP3   OH2 5957   2.802   1.846   4.026  0.0047  0.0566 -0.1257
 1984TIP3    H1 5958   2.758   1.864   4.109  0.5212  0.0521  0.1563
 1984TIP3    H2 5959   2.738   1.797   3.974 -0.4843  0.4667  0.0936
 1985TIP3   OH2 5960   5.748   3.904   3.132 -0.1695 -0.4005  0.0615
 1985TIP3    H1 5961   5.686   3.932   3.066  0.0289  1.1948  0.5065
 1985TIP3    H2 5962   5.814   3.854   3.084  0.0189  0.8007 -0.9992
 1986TIP3   OH2 5963   4.998   5.066   0.886 -0.2964 -0.2594 -0.9135
 1986TIP3    H1 5964   5.009   5.068   0.791 -1.5764  0.5509 -1.0704
 1986TIP3    H2 5965   4.904   5.069   0.900 -0.1124  0.8363  0.3916
 1987TIP3   OH2 5966   0.856   2.407   0.449 -0.4393 -0.0956 -0.3353
 1987TIP3    H1 5967   0.923   2.452   0.398 -0.6156  1.4314  0.7187
 1987TIP3    H2 5968   0.903   2.370   0.524 -0.3407 -1.4666 -1.0551
 1988TIP3   OH2 5969   3.129   5.797   3.315  0.2029  0.6564 -0.3399
 1988TIP3    H1 5970   3.044   5.775   3.275 -0.3361  1.1193  0.5209
 1988TIP3    H2 5971   3.143   5.728   3.380 -0.0663  1.1856  0.2966
 1989TIP3   OH2 5972   2.888   3.926   0.572 -0.4524 -0.0296  0.3439
 1989TIP3    H1 5973   2.945   3.872   0.626 -1.5561 -0.5513  1.0238
 1989TIP3    H2 5974   2.914   4.016   0.592 -0.8226 -0.2102  1.7680
 1990TIP3   OH2 5975   3.206   5.523   3.525  0.1082 -0.5075 -0.4431
 1990TIP3    H1 5976   3.133   5.546   3.583  0.8956  0.8138  0.0593
 1990TIP3    H2 5977   3.164   5.489   3.446 -1.0339 -0.3714  0.0849
 1991TIP3   OH2 5978   5.682   2.075   1.834  0.3104  0.2801 -0.1463
 1991TIP3    H1 5979   5.750   2.142   1.828 -0.5191  1.1169 -0.4285
 1991TIP3    H2 5980   5.602   2.123   1.856 -0.4988 -0.4648 -1.3020
 1992TIP3   OH2 5981   1.565   3.254   0.942 -0.1078 -0.4206 -0.5483
 1992TIP3    H1 5982   1.650   3.240   0.984  0.0878 -1.0123 -1.1234
 1992TIP3    H2 5983   1.548   3.173   0.895 -0.5486  0.0401 -1.2016
 1993TIP3   OH2 5984   6.067   0.490   2.539 -0.8163 -0.0259  0.1710
 1993TIP3    H1 5985   6.129   0.454   2.476 -0.1183 -0.1843  0.9240
 1993TIP3    H2 5986   6.122   0.532   2.605 -1.5185 -0.1176  0.8272
 1994TIP3   OH2 5987   2.915   0.822   2.894 -0.5514  0.2330 -0.7969
 1994TIP3    H1 5988   2.993   0.823   2.838  0.0692  0.3846  0.0385
 1994TIP3    H2 5989   2.950   0.826   2.983 -1.4320 -1.7509 -0.3171
 1995TIP3   OH2 5990   1.944   2.463   2.229  0.0618 -0.3065  0.2423
 1995TIP3    H1 5991   1.877   2.459   2.297  1.2520 -1.4279  1.4079
 1995TIP3    H2 5992   2.021   2.421   2.268  2.2109  2.8194 -0.1971
 1996TIP3   OH2 5993   3.078   3.991   4.429 -0.0672  0.2314 -0.0975
 1996TIP3    H1 5994   3.014   4.056   4.399  0.9465  0.9602 -0.7198
 1996TIP3    H2 5995   3.039   3.907   4.406 -0.6350  0.6823 -0.8119
 1997TIP3   OH2 5996   2.441   2.811   1.633 -0.8345 -0.1768 -0.1134
 1997TIP3    H1 5997   2.367   2.784   1.579 -1.2156 -1.0044  0.7956
 1997TIP3    H2 5998   2.505   2.741   1.622 -1.1392 -0.6365  0.9232
 1998TIP3   OH2 5999   0.123   2.107   4.430  0.1923  0.6679  0.0508
 1998TIP3    H1 6000   0.101   2.041   4.496  1.2409  1.0093  0.7704
 1998TIP3    H2 6001   0.183   2.063   4.371  0.0708  0.6644 -0.0684
 1999TIP3   OH2 6002   5.096   4.497   2.654 -0.0774  0.1303 -0.0478
 1999TIP3    H1 6003   5.140   4.496   2.569  1.1235  0.5507  0.5420
 1999TIP3    H2 6004   5.130   4.420   2.700  1.2412  1.2535  0.9622
 2000TIP3   OH2 6005   5.627   4.871   2.093 -0.3914  0.1066 -0.0354
 2000TIP3    H1 6006   5.598   4.838   2.178 -0.5654  1.7824  0.6016
 2000TIP3    H2 6007   5.710   4.826   2.076 -1.0345 -1.2670  0.3500
 2001TIP3   OH2 6008   1.120   0.396   3.617 -0.4786  0.0201 -0.5241
 2001TIP3    H1 6009   1.083   0.314   3.584 -1.5300  0.4895 -0.5549
 2001TIP3    H2 6010   1.177   0.427   3.547  1.4397 -1.6137  0.2208
 2002TIP3   OH2 6011   4.305   4.056   3.785 -0.1419 -0.6447 -0.5657
 2002TIP3    H1 6012   4.354   3.977   3.809  1.1486  0.4812  0.6552
 2002TIP3    H2 6013   4.372   4.117   3.755 -1.1967 -0.2111 -2.1693
 2003TIP3   OH2 6014   3.786   1.494   0.317 -0.3648 -0.2568  0.1369
 2003TIP3    H1 6015   3.777   1.562   0.251  0.4755  0.6302  0.9092
 2003TIP3    H2 6016   3.871   1.511   0.358 -1.3527 -0.0770  2.2304
 2004TIP3   OH2 6017   4.077   2.694   3.970 -0.2069 -0.6494  0.1354
 2004TIP3    H1 6018   4.044   2.780   3.945 -0.6481 -0.6414  0.7067
 2004TIP3    H2 6019   3.999   2.641   3.983 -0.0599 -0.5339  1.8474
 2005TIP3   OH2 6020   4.960   2.319   0.416  0.0963  0.0676 -0.6649
 2005TIP3    H1 6021   4.965   2.414   0.418  0.6341  0.0397 -0.2533
 2005TIP3    H2 6022   5.049   2.291   0.394 -0.1330 -0.3285 -1.0984
 2006TIP3   OH2 6023   0.272   5.901   3.500  0.0211 -0.0523  0.3051
 2006TIP3    H1 6024   0.344   5.914   3.438 -1.0767 -0.0279 -1.0121
 2006TIP3    H2 6025   0.249   5.809   3.490 -0.2709 -0.0075  0.5725
 2007TIP3   OH2 6026   0.522   1.781   4.095  0.0493 -0.5320  0.8185
 2007TIP3    H1 6027   0.577   1.729   4.154 -0.1351 -0.2564  1.2401
 2007TIP3    H2 6028   0.433   1.763   4.125 -0.4468 -3.7023 -1.9843
 2008TIP3   OH2 6029   5.533   1.235   1.233  0.0870 -0.3017  0.2168
 2008TIP3    H1 6030   5.491   1.178   1.297  1.5740 -0.2437  1.2819
 2008TIP3    H2 6031   5.461   1.263   1.175 -1.1126 -1.1286  1.2578
 2009TIP3   OH2 6032   1.872   0.727   4.754  0.2612  0.1385  0.1270
 2009TIP3    H1 6033   1.837   0.651   4.707  1.0231 -0.3495  0.3241
 2009TIP3    H2 6034   1.958   0.698   4.785  0.6066  1.1188  0.1153
 2010TIP3   OH2 6035   4.925   3.306   0.428 -0.3064 -0.1828  0.5352
 2010TIP3    H1 6036   5.007   3.318   0.476  0.4333  0.4282 -0.8321
 2010TIP3    H2 6037   4.947   3.328   0.337 -1.7429 -0.9890 -0.0349
 2011TIP3   OH2 6038   2.233   5.581   1.905 -0.5069  0.0736  0.2463
 2011TIP3    H1 6039   2.165   5.644   1.931 -0.0555  0.8896 -0.4976
 2011TIP3    H2 6040   2.184   5.504   1.877 -1.1492  0.7080 -0.4270
 2012TIP3   OH2 6041   6.036   3.500   3.707 -0.0528  0.9770 -0.2735
 2012TIP3    H1 6042   6.087   3.528   3.631 -0.1004  0.7953 -0.3735
 2012TIP3    H2 6043   5.956   3.551   3.702 -2.1289 -2.1311 -2.9052
 2013TIP3   OH2 6044   5.945   5.512   0.745 -0.3207  0.3323  0.2923
 2013TIP3    H1 6045   5.880   5.494   0.677 -0.7287  0.4064  0.6636
 2013TIP3    H2 6046   5.898   5.499   0.827  0.9972 -3.1969  0.6853
 2014TIP3   OH2 6047   6.136   1.275   2.393  0.2718 -0.3030 -0.5521
 2014TIP3    H1 6048   6.164   1.213   2.460  0.3354  0.5219  0.2136
 2014TIP3    H2 6049   6.146   1.228   2.310 -0.9741 -1.7644  0.0922
 2015TIP3   OH2 6050   4.568   2.925   5.127  0.2458 -0.0747  0.1236
 2015TIP3    H1 6051   4.603   2.838   5.148  0.0641  0.0477  1.0010
 2015TIP3    H2 6052   4.595   2.979   5.201 -0.8295  0.2842  0.2604
 2016TIP3   OH2 6053   4.676   2.241   4.438 -0.0824 -0.8053 -0.8370
 2016TIP3    H1 6054   4.587   2.223   4.467 -0.0275  0.4216  0.1866
 2016TIP3    H2 6055   4.718   2.155   4.433 -1.1542 -1.3381 -0.7825
 2017TIP3   OH2 6056   2.947   0.195   0.492  0.1097  0.3317 -0.0541
 2017TIP3    H1 6057   2.993   0.261   0.439 -0.4140 -0.2603 -1.2703
 2017TIP3    H2 6058   2.995   0.114   0.475  0.0289  0.1674  0.5068
 2018TIP3   OH2 6059   4.841   0.655   0.935  0.3725 -0.4884 -0.3650
 2018TIP3    H1 6060   4.870   0.668   0.845  1.6367  0.2851  0.1261
 2018TIP3    H2 6061   4.746   0.670   0.932  0.5995  1.0278 -1.3028
 2019TIP3   OH2 6062   2.390   0.405   0.608 -0.3770  0.0896 -0.7897
 2019TIP3    H1 6063   2.435   0.385   0.690 -1.6787  0.4489  0.0566
 2019TIP3    H2 6064   2.456   0.447   0.553  1.4327 -3.0303 -1.2190
 2020TIP3   OH2 6065   2.874   4.111   1.991 -0.2554 -0.3035  0.4630
 2020TIP3    H1 6066   2.935   4.040   1.974 -0.2269  0.0898 -1.2047
 2020TIP3    H2 6067   2.861   4.110   2.086 -0.1863 -2.4652  0.4873
 2021TIP3   OH2 6068   5.029   0.244   1.641  0.0929  0.5156 -0.3413
 2021TIP3    H1 6069   4.936   0.244   1.621 -0.2821 -0.0637  1.2430
 2021TIP3    H2 6070   5.039   0.176   1.707  1.8597 -0.3242 -1.3954
 2022TIP3   OH2 6071   5.698   2.100   2.267  0.0493  0.0351  0.7522
 2022TIP3    H1 6072   5.716   2.041   2.194 -0.1522 -0.8800  1.4236
 2022TIP3    H2 6073   5.603   2.096   2.279 -0.1040  1.3476  0.1157
 2023TIP3   OH2 6074   4.749   5.228   0.758 -0.4436 -0.1765  0.5896
 2023TIP3    H1 6075   4.733   5.176   0.679  0.6005  0.6616 -0.2040
 2023TIP3    H2 6076   4.669   5.278   0.771 -0.9654 -0.9901  0.6062
 2024TIP3   OH2 6077   4.236   0.279   3.366  0.0085  0.0851 -0.7092
 2024TIP3    H1 6078   4.147   0.250   3.387 -1.1862  1.9613 -2.6948
 2024TIP3    H2 6079   4.245   0.362   3.413  0.4342  0.2242 -1.0294
 2025TIP3   OH2 6080   0.266   3.617   2.715  0.0005  0.3014  0.4225
 2025TIP3    H1 6081   0.278   3.711   2.703 -0.8076  0.2019 -1.5441
 2025TIP3    H2 6082   0.304   3.577   2.636 -0.6745 -0.9392  0.6949
 2026TIP3   OH2 6083   4.779   4.201   0.037  0.2767 -0.0188  0.2467
 2026TIP3    H1 6084   4.829   4.204   0.118 -1.1249  2.2075  1.1370
 2026TIP3    H2 6085   4.804   4.118  -0.004  3.8662  0.4917  1.0629
 2027TIP3   OH2 6086   2.114   1.252   4.573  0.4905 -0.4035  0.6066
 2027TIP3    H1 6087   2.051   1.263   4.644  0.8422  0.0852  0.8519
 2027TIP3    H2 6088   2.200   1.257   4.617  0.7093 -1.8382  0.3988
 2028TIP3   OH2 6089   0.669   0.520   1.863  0.4034  0.6890  1.2532
 2028TIP3    H1 6090   0.641   0.526   1.771  0.4867 -1.2036  1.0712
 2028TIP3    H2 6091   0.667   0.611   1.894 -1.7840  1.1518  0.0202
 2029TIP3   OH2 6092   3.052   5.201   4.474 -0.1103 -0.8417  0.2627
 2029TIP3    H1 6093   3.036   5.192   4.380  0.5381 -1.6364  0.2159
 2029TIP3    H2 6094   3.078   5.114   4.502 -0.5382 -0.6684  1.2387
 2030TIP3   OH2 6095   0.728   5.375   2.475  0.0682 -0.5657 -0.4877
 2030TIP3    H1 6096   0.667   5.302   2.460 -1.5216  0.3355  1.1773
 2030TIP3    H2 6097   0.686   5.428   2.542  0.5536  2.5878 -2.4591
 2031TIP3   OH2 6098   4.088   4.555   4.897  0.3070  0.8612 -0.3363
 2031TIP3    H1 6099   4.181   4.544   4.879  0.6663  2.3654  0.4723
 2031TIP3    H2 6100   4.084   4.627   4.960 -1.2275 -0.9132  1.7500
 2032TIP3   OH2 6101   0.347   4.297   1.995  0.4717 -0.3614 -0.2452
 2032TIP3    H1 6102   0.300   4.292   2.078  1.7133 -0.6848  0.4692
 2032TIP3    H2 6103   0.426   4.245   2.009  1.0338  0.1383 -1.4068
 2033TIP3   OH2 6104   4.686   2.888   3.299 -0.5870  0.2699 -0.3833
 2033TIP3    H1 6105   4.600   2.890   3.257 -0.4664 -0.8421 -0.7180
 2033TIP3    H2 6106   4.667   2.884   3.392 -0.8953  0.5155 -0.4353
 2034TIP3   OH2 6107   4.626   5.551   4.677 -0.1772 -0.4404 -0.3051
 2034TIP3    H1 6108   4.545   5.597   4.652 -0.7611 -1.2725  0.0228
 2034TIP3    H2 6109   4.603   5.502   4.755  0.8606 -0.1228  0.2148
 2035TIP3   OH2 6110   0.844   0.184   3.674  0.0529 -0.1315  0.1265
 2035TIP3    H1 6111   0.802   0.254   3.624 -0.9389 -1.2263 -0.6483
 2035TIP3    H2 6112   0.773   0.147   3.728  0.5730 -0.4885  0.5773
 2036TIP3   OH2 6113   3.075   1.480   1.718  0.0150  0.5887 -0.1290
 2036TIP3    H1 6114   3.156   1.478   1.666 -0.5540 -1.1576 -1.0158
 2036TIP3    H2 6115   3.091   1.417   1.788 -0.0010  1.4254  0.6459
 2037TIP3   OH2 6116   4.540   3.629   4.575  0.7186  0.5250 -0.1951
 2037TIP3    H1 6117   4.520   3.703   4.632  0.5359  1.1955 -1.0973
 2037TIP3    H2 6118   4.624   3.597   4.606  1.5954  2.1389 -0.7915
 2038TIP3   OH2 6119   5.056   5.581   1.383 -0.4900  0.0383  0.0332
 2038TIP3    H1 6120   5.067   5.622   1.468  1.2222 -1.0232  0.3706
 2038TIP3    H2 6121   5.131   5.521   1.375  0.3509  1.3145 -2.9092
 2039TIP3   OH2 6122   0.678   2.771   1.376 -0.0272 -0.2129  0.2077
 2039TIP3    H1 6123   0.738   2.832   1.417 -0.9972  0.3326  0.8475
 2039TIP3    H2 6124   0.713   2.759   1.288  2.0871 -1.4071  1.1344
 2040TIP3   OH2 6125   4.383   5.488   3.088 -0.0413 -0.3638 -0.7134
 2040TIP3    H1 6126   4.407   5.542   3.012  1.7429 -2.6582 -1.9170
 2040TIP3    H2 6127   4.443   5.516   3.157 -0.6124  0.6449 -0.6017
 2041TIP3   OH2 6128   1.960   3.774   4.855  0.1213 -0.0279 -0.0769
 2041TIP3    H1 6129   2.013   3.709   4.902  1.4150  0.4252 -0.8461
 2041TIP3    H2 6130   2.017   3.851   4.849 -0.7495  0.5907 -0.6777
 2042TIP3   OH2 6131   3.488   0.504   1.221 -0.3923 -0.2263  0.1387
 2042TIP3    H1 6132   3.444   0.501   1.306 -0.0002  1.6207  0.4535
 2042TIP3    H2 6133   3.448   0.579   1.177  0.6271 -0.1099 -0.6134
 2043TIP3   OH2 6134   5.586   2.589   4.215  0.0794  0.7330 -0.2107
 2043TIP3    H1 6135   5.498   2.621   4.233 -0.7422 -0.9167 -1.0715
 2043TIP3    H2 6136   5.640   2.627   4.285 -1.6610  0.2280  1.4925
 2044TIP3   OH2 6137   5.347   3.476   0.243 -0.4162  0.4673  0.4745
 2044TIP3    H1 6138   5.375   3.546   0.302 -1.7230  0.6092  0.9504
 2044TIP3    H2 6139   5.362   3.395   0.292 -2.1283  0.6207  1.2963
 2045TIP3   OH2 6140   1.928   2.342   1.960  0.1531 -0.2673  0.0145
 2045TIP3    H1 6141   1.968   2.256   1.977 -0.6521 -0.6047  0.2675
 2045TIP3    H2 6142   1.956   2.396   2.033  0.2340 -0.4705  0.1356
 2046TIP3   OH2 6143   2.824   0.414   3.213 -0.8264 -0.0503  0.8241
 2046TIP3    H1 6144   2.875   0.348   3.260 -0.7208 -0.6113 -0.0464
 2046TIP3    H2 6145   2.845   0.497   3.256  3.3118  0.2845 -1.3507
 2047TIP3   OH2 6146   1.311   0.241   0.253 -0.0084  0.7938 -0.2614
 2047TIP3    H1 6147   1.313   0.219   0.347 -2.5281 -1.6422 -0.6213
 2047TIP3    H2 6148   1.279   0.331   0.250 -1.9714  0.2348  1.2895
 2048TIP3   OH2 6149   3.340   5.140   0.587 -0.1643  0.1161 -0.3510
 2048TIP3    H1 6150   3.322   5.129   0.680  0.9054 -0.7416 -0.2397
 2048TIP3    H2 6151   3.263   5.103   0.544  0.0712 -1.0009  0.1665
 2049TIP3   OH2 6152   3.924   3.951   3.374  0.1046 -0.2602 -0.5546
 2049TIP3    H1 6153   3.887   4.035   3.401 -0.6515 -1.4199  2.4714
 2049TIP3    H2 6154   4.015   3.971   3.352 -0.0662  1.3644  0.0677
 2050TIP3   OH2 6155   3.923   5.548   2.838  0.1380  0.0309 -0.2330
 2050TIP3    H1 6156   3.889   5.584   2.757 -0.4324  2.1557  0.8782
 2050TIP3    H2 6157   4.015   5.575   2.841 -0.0549  0.6541  0.1910
 2051TIP3   OH2 6158   3.682   5.879   2.661  0.3467  0.5219 -0.6736
 2051TIP3    H1 6159   3.694   5.951   2.723 -0.3618  0.1854 -0.1341
 2051TIP3    H2 6160   3.587   5.876   2.645  0.2503 -0.9053  0.0611
 2052TIP3   OH2 6161   2.532   5.956   0.856 -0.2946  0.1590  0.3122
 2052TIP3    H1 6162   2.445   5.944   0.894 -0.8147  1.0842 -0.5604
 2052TIP3    H2 6163   2.537   5.888   0.788 -1.4020  1.7160 -1.4262
 2053TIP3   OH2 6164   0.449   3.379   2.918 -0.3413 -0.4303 -0.4655
 2053TIP3    H1 6165   0.381   3.313   2.909 -0.0544 -0.7817 -0.1124
 2053TIP3    H2 6166   0.461   3.389   3.012  0.1749 -0.4661 -0.5217
 2054TIP3   OH2 6167   5.841   1.838   2.996 -0.6489  0.5668  0.1968
 2054TIP3    H1 6168   5.904   1.859   2.926 -0.5833 -0.3858 -0.0529
 2054TIP3    H2 6169   5.784   1.772   2.957 -0.5189 -0.0929  1.0830
 2055TIP3   OH2 6170   3.215   1.790   4.494 -0.2162 -0.1593  0.0423
 2055TIP3    H1 6171   3.175   1.874   4.517 -0.0763 -0.1388  0.2143
 2055TIP3    H2 6172   3.194   1.732   4.567  0.0549 -0.1518  0.1287
 2056TIP3   OH2 6173   0.939   4.149   4.423  0.1055 -0.5411  0.0806
 2056TIP3    H1 6174   0.864   4.181   4.373 -1.3724 -0.1186  2.4190
 2056TIP3    H2 6175   0.914   4.061   4.450  0.0735 -0.1223  1.5014
 2057TIP3   OH2 6176   2.232   4.738   4.548 -0.4778  0.1371 -0.5138
 2057TIP3    H1 6177   2.136   4.745   4.546 -0.7763 -2.5797 -0.3570
 2057TIP3    H2 6178   2.253   4.734   4.642 -0.4638 -1.1336 -0.5474
 2058TIP3   OH2 6179   4.504   5.549   0.047 -0.7638  0.2274 -0.5080
 2058TIP3    H1 6180   4.456   5.572  -0.032 -1.6452  1.9362  0.4544
 2058TIP3    H2 6181   4.453   5.479   0.087 -0.2990 -0.6631 -1.4381
 2059TIP3   OH2 6182   2.691   0.045   4.545 -0.2308  0.0665 -0.0128
 2059TIP3    H1 6183   2.768  -0.012   4.551 -0.7795 -1.1215 -2.7516
 2059TIP3    H2 6184   2.700   0.088   4.459 -3.3153 -1.2943 -1.1668
 2060TIP3   OH2 6185   2.927   1.795   1.199  0.1853  0.1775 -0.4491
 2060TIP3    H1 6186   3.004   1.795   1.255  0.0465 -0.7184 -0.2467
 2060TIP3    H2 6187   2.905   1.887   1.188 -0.6765  0.3417  2.1806
 2061TIP3   OH2 6188   2.360   2.827   0.432  0.2675 -0.5048  0.2773
 2061TIP3    H1 6189   2.421   2.754   0.429 -1.4269 -2.0032  0.0537
 2061TIP3    H2 6190   2.308   2.810   0.512  0.3563  0.9066  0.6552
 2062TIP3   OH2 6191   0.807   2.224   0.173  0.6887 -0.3428  0.2507
 2062TIP3    H1 6192   0.867   2.258   0.239 -0.1685  0.8421  0.4534
 2062TIP3    H2 6193   0.817   2.284   0.099  1.5242 -1.5655 -0.6722
 2063TIP3   OH2 6194   1.949   4.620   1.206  0.1533  0.2919  0.9988
 2063TIP3    H1 6195   1.878   4.683   1.193  0.1979 -0.1173 -1.8337
 2063TIP3    H2 6196   2.028   4.674   1.210  0.2192  0.5243 -1.6542
 2064TIP3   OH2 6197   1.823   4.282   0.636 -0.2932  0.3829  0.3590
 2064TIP3    H1 6198   1.734   4.315   0.621  0.7991  3.3326 -0.3108
 2064TIP3    H2 6199   1.829   4.204   0.581 -3.5926 -2.3339  3.3076
 2065TIP3   OH2 6200   2.407   3.730   4.048  0.1501  0.3179  0.2268
 2065TIP3    H1 6201   2.439   3.798   4.108 -0.3357 -1.3693  2.5341
 2065TIP3    H2 6202   2.319   3.710   4.079  0.1721 -1.1767 -0.5697
 2066TIP3   OH2 6203   1.832   4.218   3.319 -0.4364 -0.0808  0.2179
 2066TIP3    H1 6204   1.887   4.160   3.267 -0.3971  0.9290 -0.8934
 2066TIP3    H2 6205   1.883   4.234   3.399  0.4656  0.0860 -0.3793
 2067TIP3   OH2 6206   2.037   3.128   1.303  0.7400  0.2890  0.4483
 2067TIP3    H1 6207   1.973   3.066   1.336 -0.5711  1.1033 -0.4484
 2067TIP3    H2 6208   1.989   3.180   1.238  2.6403  0.1125 -1.2096
 2068TIP3   OH2 6209   5.185   2.425   4.157  0.0687 -0.1563  0.8276
 2068TIP3    H1 6210   5.242   2.359   4.116 -0.3704  0.2015 -0.4167
 2068TIP3    H2 6211   5.126   2.374   4.213  0.4266 -0.7150  0.7104
 2069TIP3   OH2 6212   0.751   4.260   4.788 -0.2620  0.0832 -0.4905
 2069TIP3    H1 6213   0.842   4.249   4.762  0.4408  2.8060  0.5274
 2069TIP3    H2 6214   0.701   4.219   4.717  1.7061 -0.6952 -1.5016
 2070TIP3   OH2 6215   3.857   1.265   1.359  0.4172 -0.2864 -0.6967
 2070TIP3    H1 6216   3.931   1.322   1.379 -0.8946  0.8691  1.2975
 2070TIP3    H2 6217   3.785   1.300   1.412 -1.4933 -1.5212 -2.3226
 2071TIP3   OH2 6218   6.111   0.762   0.810  0.6613 -0.1452  0.2540
 2071TIP3    H1 6219   6.023   0.738   0.839  1.3633 -1.1477  1.6604
 2071TIP3    H2 6220   6.134   0.696   0.745  0.0646  0.6209 -0.7590
 2072TIP3   OH2 6221   4.991   2.391   3.041 -0.3648 -0.1978  0.3062
 2072TIP3    H1 6222   5.082   2.370   3.062 -0.1275 -0.0698 -0.5524
 2072TIP3    H2 6223   4.992   2.485   3.020 -0.8726  0.0229  1.1898
 2073TIP3   OH2 6224   6.167   2.710   2.866 -0.4503 -0.0201  0.2598
 2073TIP3    H1 6225   6.158   2.760   2.784  1.0061 -1.8457 -1.1045
 2073TIP3    H2 6226   6.189   2.775   2.932 -0.5131  1.3801 -1.0485
 2074TIP3   OH2 6227   4.685   1.639   0.075  0.2789  0.3820  0.4276
 2074TIP3    H1 6228   4.766   1.588   0.067 -1.4322 -3.0679  2.4697
 2074TIP3    H2 6229   4.661   1.629   0.168 -2.7327  0.7770 -0.2235
 2075TIP3   OH2 6230   5.245   4.069   4.755  0.1522  0.7938  0.0712
 2075TIP3    H1 6231   5.238   4.164   4.760 -0.5676  0.6982  1.5917
 2075TIP3    H2 6232   5.165   4.041   4.712 -0.9592  0.7528  2.0433
 2076TIP3   OH2 6233   2.133   1.330   0.994 -0.0138  0.7839 -0.1377
 2076TIP3    H1 6234   2.123   1.235   0.996 -0.9049  0.8407 -1.1267
 2076TIP3    H2 6235   2.092   1.357   0.912 -0.6102  2.1166  0.5677
 2077TIP3   OH2 6236   0.730   4.726   0.904 -0.2850 -0.0818 -0.2960
 2077TIP3    H1 6237   0.775   4.784   0.967  0.6382 -0.3448 -0.6877
 2077TIP3    H2 6238   0.643   4.713   0.941  1.1101 -2.5810  2.5088
 2078TIP3   OH2 6239   5.547   4.615   4.016  0.2637 -0.4057 -0.0557
 2078TIP3    H1 6240   5.551   4.623   4.112  2.6383 -0.9332 -0.0383
 2078TIP3    H2 6241   5.587   4.696   3.984 -1.3259  0.1687 -0.6569
 2079TIP3   OH2 6242   5.278   5.378   1.386  0.1697 -0.3173  0.0477
 2079TIP3    H1 6243   5.286   5.329   1.304  0.5600  0.4444 -0.3883
 2079TIP3    H2 6244   5.368   5.401   1.408 -0.0131  0.2640  0.1968
 2080TIP3   OH2 6245   1.421   0.945   4.975 -0.1873 -0.1575 -0.4803
 2080TIP3    H1 6246   1.504   0.942   4.927  0.0197  0.3547 -0.1695
 2080TIP3    H2 6247   1.381   1.028   4.949 -0.8769 -0.6528 -1.0562
 2081TIP3   OH2 6248   5.369   3.724   4.209 -0.3766  0.2603  0.4607
 2081TIP3    H1 6249   5.337   3.702   4.122 -1.1278 -0.7727  0.9711
 2081TIP3    H2 6250   5.290   3.747   4.258  0.1020  1.4106  0.7198
 2082TIP3   OH2 6251   4.952   4.015   4.212  0.1415  0.4324  0.2288
 2082TIP3    H1 6252   4.966   4.109   4.216  2.2130  0.1408  2.1974
 2082TIP3    H2 6253   4.907   3.994   4.295  0.0734 -0.3516  0.0035
 2083TIP3   OH2 6254   4.252   0.116   3.777  0.1068  0.1299 -0.6069
 2083TIP3    H1 6255   4.267   0.047   3.842 -0.0182  0.4371 -0.2485
 2083TIP3    H2 6256   4.329   0.113   3.720  0.7917  0.6506  0.2678
 2084TIP3   OH2 6257   5.343   2.513   0.919  0.5100  0.4868 -0.2992
 2084TIP3    H1 6258   5.282   2.450   0.959 -0.0045  1.6653  0.8236
 2084TIP3    H2 6259   5.304   2.533   0.834 -1.0190  1.6544  0.6324
 2085TIP3   OH2 6260   3.096   4.033   5.045  0.4195  0.1459 -0.3936
 2085TIP3    H1 6261   3.005   4.005   5.035  0.1031  0.8348  0.4464
 2085TIP3    H2 6262   3.095   4.126   5.024  0.9695  0.1325 -0.5085
 2086TIP3   OH2 6263   6.118   4.540   2.731 -0.0062  0.1549  0.3712
 2086TIP3    H1 6264   6.061   4.614   2.710 -0.9077 -1.0309 -1.7859
 2086TIP3    H2 6265   6.109   4.482   2.655  1.5075 -1.6483  1.4957
 2087TIP3   OH2 6266   2.897   3.792   4.278 -0.3704  0.6024  0.1738
 2087TIP3    H1 6267   2.957   3.722   4.253 -1.1378  0.1971 -0.5786
 2087TIP3    H2 6268   2.913   3.862   4.214  0.7333  1.3293  1.2101
 2088TIP3   OH2 6269   3.761   2.176   3.644 -0.1910 -0.0472 -0.1975
 2088TIP3    H1 6270   3.735   2.177   3.736 -0.5428 -0.1805 -0.2952
 2088TIP3    H2 6271   3.853   2.150   3.646  0.4901  2.1582  0.2784
 2089TIP3   OH2 6272   4.829   3.843   0.389  0.0051 -0.5047  0.6723
 2089TIP3    H1 6273   4.761   3.849   0.456 -0.7728 -2.1204  0.0812
 2089TIP3    H2 6274   4.877   3.762   0.410  1.2025  0.1459  0.5644
 2090TIP3   OH2 6275   5.172   4.785   3.666 -0.3449 -0.0285 -0.1523
 2090TIP3    H1 6276   5.150   4.699   3.700 -0.8214  0.7399  1.5713
 2090TIP3    H2 6277   5.265   4.795   3.685 -0.6393  0.4545  1.1335
 2091TIP3   OH2 6278   3.612   1.182   0.892  0.7672 -0.2705  0.1574
 2091TIP3    H1 6279   3.591   1.273   0.871  2.1081 -0.2402 -1.1677
 2091TIP3    H2 6280   3.646   1.185   0.982  0.7654  0.5320  0.1350
 2092TIP3   OH2 6281   2.118   0.262   1.605  0.1659 -0.7765  0.6289
 2092TIP3    H1 6282   2.177   0.304   1.668 -1.0156  1.6466  0.2312
 2092TIP3    H2 6283   2.124   0.317   1.527  0.3614 -2.7932 -0.8448
 2093TIP3   OH2 6284   1.623   3.652   1.053 -0.3956  0.0802  0.2660
 2093TIP3    H1 6285   1.628   3.668   1.148  0.4630  1.0871  0.0806
 2093TIP3    H2 6286   1.530   3.656   1.033 -0.5283  0.7738  0.9478
 2094TIP3   OH2 6287   2.039   1.578   1.908  0.3438  0.3741  0.2722
 2094TIP3    H1 6288   1.950   1.600   1.935  0.9566 -0.6004  3.5059
 2094TIP3    H2 6289   2.077   1.661   1.879 -0.9294  1.2591  1.0465
 2095TIP3   OH2 6290   0.521   4.280   4.604 -0.6669 -0.1689  0.2581
 2095TIP3    H1 6291   0.478   4.227   4.537 -4.0063  1.9340  0.5110
 2095TIP3    H2 6292   0.487   4.246   4.687  0.0673 -0.0102  0.6278
 2096TIP3   OH2 6293   4.503   1.263   2.208 -0.2215 -0.0661 -0.3157
 2096TIP3    H1 6294   4.453   1.223   2.280  1.0069 -0.1078  0.5356
 2096TIP3    H2 6295   4.594   1.254   2.234  0.1678  2.1128 -0.7165
 2097TIP3   OH2 6296   5.341   5.357   5.041 -0.1325  0.1119  0.1140
 2097TIP3    H1 6297   5.284   5.355   4.964 -0.9410  1.9528  0.6067
 2097TIP3    H2 6298   5.389   5.274   5.038  0.5475  0.5100 -2.8687
 2098TIP3   OH2 6299   4.362   0.451   1.557  0.2748 -0.4046  0.1036
 2098TIP3    H1 6300   4.435   0.429   1.500 -0.1724  1.2242 -1.1843
 2098TIP3    H2 6301   4.397   0.516   1.618  0.0002  0.1592 -0.3274
 2099TIP3   OH2 6302   3.038   2.326   2.437 -0.3713  0.5574  0.1629
 2099TIP3    H1 6303   3.011   2.262   2.371  1.5290  0.2621 -0.3852
 2099TIP3    H2 6304   2.990   2.301   2.516  1.1544 -2.3209  0.3070
 2100TIP3   OH2 6305   4.085   4.141   4.938 -0.3232  0.1885  0.2935
 2100TIP3    H1 6306   4.060   4.223   4.897 -0.8933  0.3506  0.9353
 2100TIP3    H2 6307   4.178   4.129   4.916 -0.6273  0.2170 -1.0885
 2101TIP3   OH2 6308   2.341   3.081   0.696  0.3228 -0.1512 -0.7712
 2101TIP3    H1 6309   2.402   3.077   0.623  2.0336 -0.2397  0.5787
 2101TIP3    H2 6310   2.384   3.030   0.765 -1.4471 -0.4799  0.1407
 2102TIP3   OH2 6311   5.482   1.806   4.059  0.1360  0.1400 -0.0427
 2102TIP3    H1 6312   5.473   1.769   3.972 -1.7669 -0.0161  0.1761
 2102TIP3    H2 6313   5.455   1.736   4.119  1.8789  0.0775  0.7382
 2103TIP3   OH2 6314   3.302   5.649   3.841  0.4956  0.0294  0.5315
 2103TIP3    H1 6315   3.346   5.613   3.918  0.7875 -1.0128 -0.1039
 2103TIP3    H2 6316   3.238   5.582   3.817  2.0622 -0.8148 -1.5525
 2104TIP3   OH2 6317   1.532   5.660   1.100 -0.0457 -0.5657 -0.3485
 2104TIP3    H1 6318   1.545   5.734   1.159  0.6329 -2.3486  1.8510
 2104TIP3    H2 6319   1.437   5.649   1.095 -0.1881  0.8906 -1.3313
 2105TIP3   OH2 6320   1.254   4.317   1.899  0.1458 -0.1476  0.2329
 2105TIP3    H1 6321   1.203   4.236   1.904  0.6713 -0.4252  1.6326
 2105TIP3    H2 6322   1.320   4.299   1.832 -0.5079 -0.4078 -0.3555
 2106TIP3   OH2 6323   4.209   2.958   3.530 -0.2469 -1.1032 -0.1441
 2106TIP3    H1 6324   4.294   2.964   3.574  0.4520  2.5283 -1.6528
 2106TIP3    H2 6325   4.145   2.952   3.601  1.1168 -2.2162  1.0571
 2107TIP3   OH2 6326   3.297   2.209   0.195 -0.2677  0.0097 -0.2130
 2107TIP3    H1 6327   3.384   2.233   0.227  0.6873 -1.3678 -1.6065
 2107TIP3    H2 6328   3.312   2.180   0.105 -2.4732  1.4941 -1.1530
 2108TIP3   OH2 6329   0.438   5.424   3.042  0.3904  0.3482  0.3249
 2108TIP3    H1 6330   0.456   5.515   3.018  3.5855 -0.3895 -0.5919
 2108TIP3    H2 6331   0.455   5.420   3.136  0.4460  0.6443  0.3294
 2109TIP3   OH2 6332   5.254   2.510   4.622 -0.2393  0.8298  0.1716
 2109TIP3    H1 6333   5.190   2.551   4.563  0.0063 -0.0506 -0.7378
 2109TIP3    H2 6334   5.294   2.583   4.669 -1.7345  1.4221  0.5832
 2110TIP3   OH2 6335   4.942   0.941   0.256 -0.2973  0.2765  0.8991
 2110TIP3    H1 6336   4.896   0.995   0.321 -1.4881  0.6934 -0.2352
 2110TIP3    H2 6337   4.918   0.981   0.172 -2.0867 -2.5730 -0.0809
 2111TIP3   OH2 6338   0.075   2.722   0.086  0.0918  0.6357  0.8918
 2111TIP3    H1 6339   0.139   2.661   0.049  0.4213  1.3122  0.3214
 2111TIP3    H2 6340  -0.003   2.669   0.103 -0.3229  0.3947 -1.4257
 2112TIP3   OH2 6341   3.515   5.340   0.482 -0.0108 -0.5141  0.0428
 2112TIP3    H1 6342   3.504   5.266   0.542 -1.0840 -0.6733 -0.3243
 2112TIP3    H2 6343   3.497   5.417   0.537 -2.9978 -0.7455 -0.4420
 2113TIP3   OH2 6344   1.401   4.888   0.513  0.1637  0.1286  0.1041
 2113TIP3    H1 6345   1.319   4.842   0.498 -0.2922  0.9447  0.0671
 2113TIP3    H2 6346   1.430   4.915   0.426 -0.1480  0.8803  0.2243
 2114TIP3   OH2 6347   3.295   0.305   1.097 -0.1657  0.4221  0.0887
 2114TIP3    H1 6348   3.277   0.264   1.182  0.2496 -1.6985 -0.7790
 2114TIP3    H2 6349   3.376   0.355   1.111  0.7548 -1.1351  0.6055
 2115TIP3   OH2 6350   1.277   2.416   3.807 -0.9187  0.0140  0.1385
 2115TIP3    H1 6351   1.210   2.403   3.874 -0.4430 -0.6369  0.5082
 2115TIP3    H2 6352   1.301   2.327   3.781  0.3129  0.2133  0.5435
 2116TIP3   OH2 6353   6.066   2.798   1.408 -0.1751 -0.0293  0.7097
 2116TIP3    H1 6354   5.985   2.817   1.360  0.9929  0.6255 -1.1381
 2116TIP3    H2 6355   6.051   2.712   1.447 -1.6607 -0.0381  0.1896
 2117TIP3   OH2 6356   4.060   0.130   0.439 -0.1853 -0.0082  0.2689
 2117TIP3    H1 6357   4.030   0.132   0.530 -0.4116 -1.5895  0.2661
 2117TIP3    H2 6358   4.124   0.059   0.436 -1.1764 -0.9159 -1.0668
 2118TIP3   OH2 6359   1.129   1.109   3.496 -0.1843  0.4659  0.5551
 2118TIP3    H1 6360   1.117   1.203   3.509  0.2553  0.2576  3.1153
 2118TIP3    H2 6361   1.066   1.085   3.429 -0.1255  2.6103 -0.3544
 2119TIP3   OH2 6362   1.134   2.475   1.473 -0.0422 -0.1099  0.0247
 2119TIP3    H1 6363   1.190   2.450   1.547 -0.9987  0.3079  0.9145
 2119TIP3    H2 6364   1.077   2.399   1.460  1.9345 -1.3418 -2.1513
 2120TIP3   OH2 6365   0.522   2.997   2.764 -0.6358 -0.1126 -0.4437
 2120TIP3    H1 6366   0.554   2.920   2.718 -2.4489 -1.0362 -0.2573
 2120TIP3    H2 6367   0.449   2.965   2.818 -1.4444  1.7110 -0.3554
 2121TIP3   OH2 6368   3.850   3.924   1.275 -0.2227  0.2885  0.2663
 2121TIP3    H1 6369   3.868   4.017   1.266  2.0457  0.2532  3.0380
 2121TIP3    H2 6370   3.764   3.919   1.315  0.1748  1.3050  1.2970
 2122TIP3   OH2 6371   1.702   5.123   3.517 -0.0969  0.2497  0.0310
 2122TIP3    H1 6372   1.677   5.205   3.475  0.7274  0.3365 -0.3106
 2122TIP3    H2 6373   1.788   5.140   3.555 -0.6890  0.0895  1.5350
 2123TIP3   OH2 6374   3.430   5.525   1.105 -0.1711 -0.2326  0.1883
 2123TIP3    H1 6375   3.432   5.558   1.015 -0.0150 -0.1451  0.2245
 2123TIP3    H2 6376   3.338   5.501   1.119 -0.3589  0.4987  0.2762
 2124TIP3   OH2 6377   1.245   3.178   1.367  0.4528 -0.2469  0.0724
 2124TIP3    H1 6378   1.296   3.225   1.433  0.2399  1.0416 -0.6616
 2124TIP3    H2 6379   1.182   3.127   1.418  2.0294 -1.3948  0.9664
 2125TIP3   OH2 6380   0.330   4.392   0.748  0.0821  0.6680 -0.0077
 2125TIP3    H1 6381   0.280   4.472   0.763 -1.3768 -0.0580 -0.8436
 2125TIP3    H2 6382   0.362   4.400   0.658 -0.6247  0.0320 -0.3242
 2126TIP3   OH2 6383   6.054   2.521   2.026  0.0580 -0.5237  0.2210
 2126TIP3    H1 6384   6.038   2.615   2.021  0.7798 -0.4397 -1.0537
 2126TIP3    H2 6385   5.995   2.490   2.095 -0.8651  0.7088  0.0250
 2127TIP3   OH2 6386   0.105   5.597   3.089  0.2602 -0.0443  0.6903
 2127TIP3    H1 6387   0.154   5.643   3.020 -1.7065  0.9411 -0.1171
 2127TIP3    H2 6388   0.079   5.515   3.047 -0.7194  0.4454  0.3019
 2128TIP3   OH2 6389   6.013   4.564   0.226 -1.0124  0.5370 -0.1235
 2128TIP3    H1 6390   6.054   4.649   0.239  0.0840 -0.0411  0.3141
 2128TIP3    H2 6391   5.978   4.568   0.137  0.9872  0.6889 -0.9635
 2129TIP3   OH2 6392   0.167   5.425   4.029 -0.2059 -0.0304 -0.2512
 2129TIP3    H1 6393   0.169   5.521   4.033 -0.2335 -0.0450  0.1434
 2129TIP3    H2 6394   0.075   5.402   4.041 -0.0049 -0.1640  1.2429
 2130TIP3   OH2 6395   4.491   2.952   1.517  0.6408 -0.2367 -0.0414
 2130TIP3    H1 6396   4.445   3.036   1.526  1.3637  0.1202  0.4214
 2130TIP3    H2 6397   4.582   2.973   1.537  0.8714 -1.0888 -0.1816
 2131TIP3   OH2 6398   0.942   3.094   0.929 -0.1101 -0.1567  0.3522
 2131TIP3    H1 6399   0.933   3.001   0.908  0.7050 -0.3571  0.8674
 2131TIP3    H2 6400   0.899   3.139   0.856 -0.3666 -0.9308  0.0166
 2132TIP3   OH2 6401   5.222   1.495   4.571 -0.3138 -0.1576  0.1052
 2132TIP3    H1 6402   5.171   1.416   4.583 -0.2587 -0.1041  0.7229
 2132TIP3    H2 6403   5.243   1.525   4.660  1.3269 -0.5204 -0.1220
 2133TIP3   OH2 6404   1.707   5.649   3.705 -0.6297  0.3569  0.4634
 2133TIP3    H1 6405   1.626   5.693   3.682 -0.3321 -0.1511 -1.9047
 2133TIP3    H2 6406   1.703   5.566   3.657  1.7979  0.8938 -0.8693
 2134TIP3   OH2 6407   4.850   2.856   1.006  0.3021 -0.7963  0.3735
 2134TIP3    H1 6408   4.887   2.936   0.966 -1.9642  0.4541  0.6173
 2134TIP3    H2 6409   4.923   2.818   1.055  1.2512  1.6020  0.9548
 2135TIP3   OH2 6410   5.594   1.659   2.877 -0.0081 -0.3782 -0.0181
 2135TIP3    H1 6411   5.567   1.576   2.914 -1.4053 -0.6414 -1.5305
 2135TIP3    H2 6412   5.656   1.636   2.808  2.2284  0.0794  1.7406
 2136TIP3   OH2 6413   1.229   2.699   2.750 -0.1554  0.1852 -0.0007
 2136TIP3    H1 6414   1.171   2.689   2.825  0.5431 -1.0349  0.4085
 2136TIP3    H2 6415   1.315   2.671   2.782  0.0790 -0.7405 -1.3270
 2137TIP3   OH2 6416   4.830   1.699   0.672 -0.2843 -0.4174 -0.5454
 2137TIP3    H1 6417   4.845   1.609   0.642  0.1431 -0.2897 -0.7229
 2137TIP3    H2 6418   4.735   1.703   0.687 -0.2888 -0.9389 -0.3974
 2138TIP3   OH2 6419   5.451   1.588   4.222  0.1091 -0.3954 -0.4918
 2138TIP3    H1 6420   5.359   1.559   4.224 -0.4064  1.0676 -1.5180
 2138TIP3    H2 6421   5.481   1.577   4.313 -2.3461  2.9082  0.9205
 2139TIP3   OH2 6422   0.928   1.478   0.037 -0.1216 -0.4398  0.0751
 2139TIP3    H1 6423   0.839   1.447   0.018 -0.3724  1.2348 -1.9167
 2139TIP3    H2 6424   0.960   1.420   0.106 -2.0288 -2.3341 -0.5293
 2140TIP3   OH2 6425   6.267   2.134   0.597 -0.6519 -0.3434  0.3438
 2140TIP3    H1 6426   6.277   2.188   0.675  0.3089 -1.0691  0.7419
 2140TIP3    H2 6427   6.289   2.045   0.626 -0.3504 -0.6345 -0.7286
 2141TIP3   OH2 6428   3.496   5.532   0.726  0.0761 -0.0828 -0.2254
 2141TIP3    H1 6429   3.420   5.578   0.762 -0.7924 -2.3058  1.0293
 2141TIP3    H2 6430   3.571   5.566   0.775 -0.4096  0.6217  0.0303
 2142TIP3   OH2 6431   4.996   4.904   0.169  0.3309  0.2418 -0.4820
 2142TIP3    H1 6432   5.069   4.859   0.212 -1.1331 -0.0268  1.8970
 2142TIP3    H2 6433   4.974   4.976   0.228 -1.2981  0.3500 -1.1794
 2143TIP3   OH2 6434   0.713   4.767   0.343  0.6580  0.2982 -0.0256
 2143TIP3    H1 6435   0.750   4.681   0.322  0.3770 -0.1248  1.1248
 2143TIP3    H2 6436   0.724   4.775   0.437  0.3729  1.3907 -0.0764
 2144TIP3   OH2 6437   3.130   4.766   3.104 -0.4118  0.4413 -0.8719
 2144TIP3    H1 6438   3.103   4.766   3.012  0.9266  1.3529 -1.2941
 2144TIP3    H2 6439   3.103   4.851   3.137  0.0040  0.5184 -0.7181
 2145TIP3   OH2 6440   5.563   2.824   2.272 -0.1568 -0.2019  0.7446
 2145TIP3    H1 6441   5.502   2.897   2.257  1.0805  0.7568  0.2258
 2145TIP3    H2 6442   5.591   2.835   2.362  1.3295  1.0277  0.1767
 2146TIP3   OH2 6443   5.925   0.849   5.130 -0.2830 -0.5959  0.4891
 2146TIP3    H1 6444   5.840   0.819   5.165  0.3583 -2.5210  0.5429
 2146TIP3    H2 6445   5.976   0.768   5.121  0.3236  0.0361 -2.9612
 2147TIP3   OH2 6446   4.770   5.270   2.749 -0.4434 -0.6029  0.0843
 2147TIP3    H1 6447   4.857   5.234   2.762  0.7862  2.5274  1.6269
 2147TIP3    H2 6448   4.712   5.210   2.795  0.7320 -3.0306 -1.4092
 2148TIP3   OH2 6449   1.857   0.125   4.342  0.0702  0.5303 -0.2767
 2148TIP3    H1 6450   1.944   0.087   4.356 -0.2578 -0.8665 -1.7194
 2148TIP3    H2 6451   1.856   0.149   4.249 -2.0625 -2.3801 -1.1617
 2149TIP3   OH2 6452   2.540   0.879   2.732  0.3667  0.3495 -0.3162
 2149TIP3    H1 6453   2.471   0.944   2.740  0.1485  0.3730 -2.0779
 2149TIP3    H2 6454   2.593   0.891   2.811 -1.2003  0.8211  0.7019
 2150TIP3   OH2 6455   5.575   3.499   3.833 -0.3128 -0.2476 -0.9332
 2150TIP3    H1 6456   5.543   3.473   3.920  0.1690 -0.1236 -0.7153
 2150TIP3    H2 6457   5.497   3.531   3.788 -0.5131  0.0199 -0.4143
 2151TIP3   OH2 6458   3.471   3.072   1.437  0.5102  0.2421 -0.2832
 2151TIP3    H1 6459   3.376   3.072   1.453  0.5046 -1.3764 -0.1647
 2151TIP3    H2 6460   3.481   3.124   1.357 -0.3268  1.4210  0.3411
 2152TIP3   OH2 6461   1.465   2.531   4.393 -0.0355 -0.1731 -0.4128
 2152TIP3    H1 6462   1.539   2.532   4.454 -0.2416 -1.9309 -0.0775
 2152TIP3    H2 6463   1.406   2.463   4.427 -1.4491  0.6601 -1.0991
 2153TIP3   OH2 6464   6.164   0.691   2.729 -0.3675 -0.4233  0.2744
 2153TIP3    H1 6465   6.111   0.768   2.747  1.6707  1.5675 -1.5796
 2153TIP3    H2 6466   6.245   0.704   2.778 -0.6647 -2.3359  1.3728
 2154TIP3   OH2 6467   3.602   4.000   0.906 -0.7666  0.0894  0.0844
 2154TIP3    H1 6468   3.569   4.090   0.909  1.1046  0.8319 -0.2920
 2154TIP3    H2 6469   3.695   4.008   0.926 -0.8265 -1.9568  1.5668
 2155TIP3   OH2 6470   3.128   0.869   0.323 -0.8329  0.1585  0.0766
 2155TIP3    H1 6471   3.107   0.847   0.233  0.0454  1.0631 -0.3690
 2155TIP3    H2 6472   3.103   0.792   0.374 -2.4621  0.0875 -0.7755
 2156TIP3   OH2 6473   5.046   2.151   1.914 -0.3122  0.1379 -0.3206
 2156TIP3    H1 6474   5.085   2.116   1.834 -3.0238 -0.4789 -1.5003
 2156TIP3    H2 6475   5.091   2.105   1.985  2.0389  0.5650 -1.4422
 2157TIP3   OH2 6476   3.598   2.380  -0.007 -0.1591  0.0492  0.0279
 2157TIP3    H1 6477   3.653   2.454  -0.033 -0.3690 -0.1343 -0.9603
 2157TIP3    H2 6478   3.593   2.387   0.089  0.3966  0.9012  0.0075
 2158TIP3   OH2 6479   1.840   5.152   2.249 -0.7851  0.1128  0.6121
 2158TIP3    H1 6480   1.907   5.218   2.231 -0.5575 -0.3253 -0.1669
 2158TIP3    H2 6481   1.771   5.201   2.295 -1.4772  1.3550 -1.5839
 2159TIP3   OH2 6482   2.578   4.655   5.015  0.3722  0.8438  0.3453
 2159TIP3    H1 6483   2.509   4.720   5.030 -1.2278 -0.3212 -1.4865
 2159TIP3    H2 6484   2.566   4.591   5.085 -2.3327 -0.8047 -1.4564
 2160TIP3   OH2 6485   2.005   1.804   4.422 -0.1076 -0.6380 -0.0801
 2160TIP3    H1 6486   1.935   1.815   4.357 -0.9479  0.3030  0.9371
 2160TIP3    H2 6487   2.069   1.746   4.380 -0.7350 -0.2323 -1.6381
 2161TIP3   OH2 6488   1.464   1.148   2.003  0.6241  0.0623  0.0587
 2161TIP3    H1 6489   1.534   1.173   1.943 -0.2824  4.2999  0.4519
 2161TIP3    H2 6490   1.419   1.076   1.959  2.6548  0.0535 -2.1781
 2162TIP3   OH2 6491   2.245   4.337   2.366  0.2923  0.3279  0.7147
 2162TIP3    H1 6492   2.203   4.340   2.279 -0.0513  1.0192  0.9005
 2162TIP3    H2 6493   2.285   4.250   2.370  1.1857  0.6534 -0.5458
 2163TIP3   OH2 6494   5.099   2.980   4.243 -0.4808  0.2596 -0.1440
 2163TIP3    H1 6495   5.098   2.927   4.322  0.9846  0.4109  0.0060
 2163TIP3    H2 6496   5.013   2.966   4.203 -1.5333  0.7478  1.8330
 2164TIP3   OH2 6497   1.856   4.787   2.693 -0.2012  0.5442  0.1933
 2164TIP3    H1 6498   1.848   4.784   2.788 -1.8256 -0.4818  0.0620
 2164TIP3    H2 6499   1.766   4.777   2.661  0.5288 -1.3099 -1.4775
 2165TIP3   OH2 6500   0.638   3.357   2.201 -0.2783  0.0651  0.8022
 2165TIP3    H1 6501   0.555   3.382   2.160  0.2306  0.8032  0.1907
 2165TIP3    H2 6502   0.705   3.395   2.145  0.4662  0.0924  1.6852
 2166TIP3   OH2 6503   6.147   1.102   2.626 -0.0450 -0.1337 -0.0858
 2166TIP3    H1 6504   6.072   1.050   2.653  0.2709 -0.2521  0.5769
 2166TIP3    H2 6505   6.153   1.173   2.690  0.4755 -0.1962 -0.0583
 2167TIP3   OH2 6506   3.146   1.798   4.207  0.0513  0.1260  0.9638
 2167TIP3    H1 6507   3.157   1.873   4.148 -0.4888 -0.4579  0.0896
 2167TIP3    H2 6508   3.231   1.787   4.248  0.0198  1.4952  1.4504
 2168TIP3   OH2 6509   0.824   5.467   3.645 -0.0138 -0.3069  0.5040
 2168TIP3    H1 6510   0.764   5.480   3.572  1.1048 -0.9518 -0.5863
 2168TIP3    H2 6511   0.884   5.399   3.614  0.9655 -0.0398  1.7285
 2169TIP3   OH2 6512   1.824   2.428   3.373 -0.4210  0.3608 -0.0369
 2169TIP3    H1 6513   1.824   2.423   3.469 -0.2507 -1.1087 -0.0915
 2169TIP3    H2 6514   1.882   2.501   3.353  0.9201 -0.3672  0.9663
 2170TIP3   OH2 6515   0.076   1.436   1.599  0.1118 -0.0405 -0.0445
 2170TIP3    H1 6516   0.024   1.457   1.677 -0.6491  0.7415 -0.7596
 2170TIP3    H2 6517   0.164   1.419   1.634  0.3145  2.3947  0.7869
 2171TIP3   OH2 6518   0.395   1.660   1.337  0.0580  0.3513 -0.2451
 2171TIP3    H1 6519   0.444   1.720   1.393 -0.3355 -0.9189  1.5594
 2171TIP3    H2 6520   0.305   1.692   1.341 -0.3598 -0.8933  1.6109
 2172TIP3   OH2 6521   4.671   1.348   3.211 -0.1663  0.5469 -0.3512
 2172TIP3    H1 6522   4.743   1.394   3.168 -0.0626  1.1950  0.4926
 2172TIP3    H2 6523   4.618   1.314   3.139  1.6205 -1.0030 -1.0197
 2173TIP3   OH2 6524   4.276   0.378   3.102 -0.4026  0.3679  0.0691
 2173TIP3    H1 6525   4.279   0.325   3.182 -0.7455 -1.8064 -1.2765
 2173TIP3    H2 6526   4.368   0.399   3.085 -0.1273 -0.7772  0.0405
 2174TIP3   OH2 6527   4.763   0.427   0.236  0.2493 -0.1271  0.2078
 2174TIP3    H1 6528   4.720   0.462   0.314  1.2498 -0.1933  0.8084
 2174TIP3    H2 6529   4.765   0.332   0.251  0.3785 -0.1476  0.0578
 2175TIP3   OH2 6530   3.841   5.518   4.112 -0.1531 -0.8500 -0.3326
 2175TIP3    H1 6531   3.806   5.486   4.029  0.9051 -0.2523 -1.0330
 2175TIP3    H2 6532   3.829   5.613   4.108 -2.3258 -0.9851  1.2804
 2176TIP3   OH2 6533   0.906   5.432   1.223  0.0300  0.3649 -0.9136
 2176TIP3    H1 6534   0.975   5.441   1.158  0.1648 -0.8956 -0.9631
 2176TIP3    H2 6535   0.905   5.516   1.269  1.5080  0.4395 -0.9900
 2177TIP3   OH2 6536   3.362   3.697   3.534  0.6730  0.1825  0.1244
 2177TIP3    H1 6537   3.401   3.732   3.613  0.2905 -1.1972  0.9541
 2177TIP3    H2 6538   3.422   3.627   3.505  0.0223 -0.3805  0.1007
 2178TIP3   OH2 6539   1.831   0.477   4.341  0.0597 -0.1559 -0.4913
 2178TIP3    H1 6540   1.775   0.532   4.286 -1.6979 -1.6769 -0.3323
 2178TIP3    H2 6541   1.837   0.394   4.294 -1.8918 -1.6771  1.7050
 2179TIP3   OH2 6542   5.289  -0.023   3.052  0.2986  0.6169  0.1929
 2179TIP3    H1 6543   5.208   0.026   3.041  0.6022  1.1796  0.4433
 2179TIP3    H2 6544   5.357   0.043   3.056  0.7365  0.1636  0.3294
 2180TIP3   OH2 6545   4.710   3.909   1.400  0.4016  0.2580  0.6014
 2180TIP3    H1 6546   4.676   3.878   1.316  0.5318  1.8251 -0.0592
 2180TIP3    H2 6547   4.718   4.003   1.389  0.7500  0.4459  2.2731
 2181TIP3   OH2 6548   0.007   5.191   0.897 -0.3452 -0.2597 -0.4306
 2181TIP3    H1 6549   0.048   5.257   0.953  1.2078 -0.6247 -1.0912
 2181TIP3    H2 6550  -0.038   5.242   0.830 -1.7552  0.1657  0.7862
 2182TIP3   OH2 6551   0.128   2.501   4.883  0.1712  0.0668 -0.6180
 2182TIP3    H1 6552   0.198   2.454   4.927 -0.6126 -1.3104 -0.7755
 2182TIP3    H2 6553   0.172   2.548   4.812  0.9972 -0.4278 -0.4494
 2183TIP3   OH2 6554   0.617   5.049   3.024  0.7662 -0.1985  0.0756
 2183TIP3    H1 6555   0.637   5.017   3.112 -0.9538  0.0943  0.6089
 2183TIP3    H2 6556   0.595   4.970   2.974  1.4456 -0.3316 -0.0255
 2184TIP3   OH2 6557   5.764   1.568   1.833 -0.2630  0.5798  0.7489
 2184TIP3    H1 6558   5.781   1.594   1.742  0.1545  0.7196  0.8646
 2184TIP3    H2 6559   5.832   1.613   1.884  0.8169 -1.1734  0.9069
 2185TIP3   OH2 6560   0.798   5.176   1.219 -0.2930 -0.2869 -0.1752
 2185TIP3    H1 6561   0.703   5.184   1.228 -0.2276  1.3577 -0.5544
 2185TIP3    H2 6562   0.830   5.267   1.224  1.2309 -0.7938 -0.2760
 2186TIP3   OH2 6563   2.877   1.230   2.871 -0.1986 -0.7376 -0.2783
 2186TIP3    H1 6564   2.909   1.193   2.953 -0.6588 -1.3753 -0.3803
 2186TIP3    H2 6565   2.957   1.252   2.822  0.1268  1.5352  1.1322
 2187TIP3   OH2 6566   5.404   2.891   4.446 -0.7534  0.2532 -0.5922
 2187TIP3    H1 6567   5.356   2.946   4.508  0.3347  0.2883  0.2560
 2187TIP3    H2 6568   5.444   2.953   4.385 -0.5994  0.3268 -0.4192
 2188TIP3   OH2 6569   5.046   4.754   1.789 -0.7364 -0.1197  0.2902
 2188TIP3    H1 6570   5.128   4.795   1.764  0.9327 -2.0317  2.2276
 2188TIP3    H2 6571   4.995   4.824   1.830  1.0684  0.5566  1.4693
 2189TIP3   OH2 6572   4.299   4.900   2.953  0.1556 -0.2468 -0.5745
 2189TIP3    H1 6573   4.216   4.856   2.936 -0.6499  0.7872  0.5443
 2189TIP3    H2 6574   4.343   4.902   2.868 -0.9180 -0.8655 -1.1671
 2190TIP3   OH2 6575   4.079   2.625   1.664  0.8252  0.2096  0.4186
 2190TIP3    H1 6576   4.169   2.639   1.633  0.2645  1.1960 -0.8888
 2190TIP3    H2 6577   4.051   2.711   1.695  0.3601 -0.1140  0.8965
 2191TIP3   OH2 6578   2.862   4.915   4.610 -0.1781 -0.2713  0.0598
 2191TIP3    H1 6579   2.807   4.902   4.687 -0.2083 -0.1993  0.0500
 2191TIP3    H2 6580   2.866   5.010   4.599  1.2970 -0.1886  1.0325
 2192TIP3   OH2 6581   3.872   2.432   1.711 -0.3728 -0.3515  0.0069
 2192TIP3    H1 6582   3.945   2.495   1.713 -0.9881  0.3587  0.6662
 2192TIP3    H2 6583   3.912   2.348   1.733  0.1386  0.1684  1.1794
 2193TIP3   OH2 6584   1.418   4.367   0.801  0.3705  0.1427  0.2537
 2193TIP3    H1 6585   1.323   4.381   0.804  0.5588  1.6506 -0.0881
 2193TIP3    H2 6586   1.452   4.415   0.877  1.1065  2.1842 -1.2781
 2194TIP3   OH2 6587   2.931   2.824   5.125 -0.1979 -0.1559  0.0033
 2194TIP3    H1 6588   2.911   2.915   5.103  0.5015  0.3090  1.1979
 2194TIP3    H2 6589   2.895   2.773   5.052  0.0683  1.1211 -1.0504
 2195TIP3   OH2 6590   3.087   5.123   3.634 -0.2396 -0.1485  0.2388
 2195TIP3    H1 6591   3.131   5.197   3.676 -1.6744  0.1182  1.3628
 2195TIP3    H2 6592   3.105   5.049   3.693 -0.3883 -0.2776  0.1218
 2196TIP3   OH2 6593   0.948   0.137   1.483 -0.1694 -0.0006  0.3354
 2196TIP3    H1 6594   0.926   0.056   1.436 -0.7453 -0.7061  1.7689
 2196TIP3    H2 6595   0.916   0.207   1.426 -1.4816 -0.8542 -0.0376
 2197TIP3   OH2 6596   2.608   4.673   3.348 -0.5104  0.2445 -0.4175
 2197TIP3    H1 6597   2.522   4.714   3.364 -0.8751 -0.8767  0.6678
 2197TIP3    H2 6598   2.595   4.581   3.369  1.1085  0.1482  0.3307
 2198TIP3   OH2 6599   0.228   3.488   3.170 -0.1772 -0.1948  0.4974
 2198TIP3    H1 6600   0.272   3.403   3.169 -0.2583 -0.2474  1.0039
 2198TIP3    H2 6601   0.144   3.471   3.213 -0.5757 -0.0342 -0.2095
 2199TIP3   OH2 6602   3.866   4.864   1.756 -0.1078  0.5659 -0.1051
 2199TIP3    H1 6603   3.875   4.821   1.841 -0.2575  0.1523 -0.2953
 2199TIP3    H2 6604   3.954   4.896   1.737 -0.0270  0.4808  0.1116
 2200TIP3   OH2 6605   0.532   2.628   0.955  0.2412  0.3491  0.0957
 2200TIP3    H1 6606   0.485   2.557   0.910  0.7735  0.2475 -0.3012
 2200TIP3    H2 6607   0.465   2.696   0.966  0.1837  0.5205 -1.1766
 2201TIP3   OH2 6608   6.109   3.710   2.130  0.3218  0.8673  0.2808
 2201TIP3    H1 6609   6.079   3.758   2.207 -0.2163 -1.6223  1.7458
 2201TIP3    H2 6610   6.149   3.631   2.166 -0.3798 -0.6135 -2.0099
 2202TIP3   OH2 6611   1.841   0.429   3.537  0.0128  0.0509  0.3245
 2202TIP3    H1 6612   1.871   0.434   3.446 -0.6891  0.2326  0.0979
 2202TIP3    H2 6613   1.828   0.336   3.554 -0.0106  0.0298  0.1865
 2203TIP3   OH2 6614   2.737   2.915   0.649  0.0370  0.1253 -0.3705
 2203TIP3    H1 6615   2.749   2.831   0.605 -0.0332 -0.4390  0.6428
 2203TIP3    H2 6616   2.722   2.891   0.741 -0.5932  1.2179 -0.1780
 2204TIP3   OH2 6617   0.188   0.439   3.461  0.0528 -0.0022  0.0887
 2204TIP3    H1 6618   0.136   0.442   3.542  1.1674  0.2550  0.8182
 2204TIP3    H2 6619   0.271   0.400   3.488  0.1007 -0.8062 -1.1504
 2205TIP3   OH2 6620   1.537   1.833   2.260  0.1704  0.3898 -0.1440
 2205TIP3    H1 6621   1.446   1.851   2.284 -0.1920 -2.4133  1.0149
 2205TIP3    H2 6622   1.564   1.762   2.319  2.4643 -0.1951 -1.7538
 2206TIP3   OH2 6623   5.429   5.743   2.587  0.2976 -0.1756 -0.7499
 2206TIP3    H1 6624   5.348   5.706   2.623 -0.0295 -0.3094 -1.5821
 2206TIP3    H2 6625   5.491   5.742   2.660 -0.1168 -1.1017 -0.3865
 2207TIP3   OH2 6626   3.061   3.475   1.601  0.1492 -0.0451  0.8015
 2207TIP3    H1 6627   3.016   3.391   1.617 -0.1300  0.1145  0.8623
 2207TIP3    H2 6628   3.095   3.500   1.687  1.7509 -0.9506  0.4801
 2208TIP3   OH2 6629   5.495   3.954   4.250 -0.4587 -0.1300  0.3339
 2208TIP3    H1 6630   5.461   3.996   4.171  1.3113  0.9334  0.0815
 2208TIP3    H2 6631   5.480   3.860   4.236  1.3237 -0.1460 -2.0842
 2209TIP3   OH2 6632   4.436   5.546   2.520 -0.0145  0.3181  0.1152
 2209TIP3    H1 6633   4.524   5.514   2.538 -0.5535 -0.3053  1.8716
 2209TIP3    H2 6634   4.417   5.516   2.431  1.1571 -0.4263  0.0927
 2210TIP3   OH2 6635   0.898   3.942   0.809 -0.2208 -0.0064 -0.1123
 2210TIP3    H1 6636   0.978   3.991   0.827 -0.2160  0.2728 -0.8521
 2210TIP3    H2 6637   0.856   3.933   0.894  0.6374 -0.2363  0.3045
 2211TIP3   OH2 6638   3.731   5.855   4.905  0.1982 -0.4256 -0.9432
 2211TIP3    H1 6639   3.694   5.771   4.932  1.4377 -1.7974 -3.1692
 2211TIP3    H2 6640   3.826   5.840   4.908  0.6012  1.8469  1.2463
 2212TIP3   OH2 6641   2.483   3.404   1.755 -0.6350 -0.2589 -0.0062
 2212TIP3    H1 6642   2.519   3.463   1.689  0.3763  1.0868  1.6653
 2212TIP3    H2 6643   2.518   3.318   1.733  3.6632  0.9145  1.3887
 2213TIP3   OH2 6644   2.171   2.658   2.490  0.1980 -0.2434 -0.1843
 2213TIP3    H1 6645   2.228   2.706   2.431 -0.9825  0.8497 -0.4892
 2213TIP3    H2 6646   2.082   2.686   2.467 -0.4829 -1.8180  0.3213
 2214TIP3   OH2 6647   5.590   1.967   1.507  0.3780  0.0626  0.1326
 2214TIP3    H1 6648   5.535   1.955   1.584  0.1320  0.7372  0.0714
 2214TIP3    H2 6649   5.665   2.017   1.538  0.7483 -0.4781  0.1249
 2215TIP3   OH2 6650   4.832   5.087   3.974 -0.2296  0.0185  0.2738
 2215TIP3    H1 6651   4.753   5.105   3.924  0.1902  0.1820 -0.3403
 2215TIP3    H2 6652   4.893   5.049   3.910  1.0657  2.1872  0.1477
 2216TIP3   OH2 6653   2.822   3.374   3.094  0.2738  0.0973 -0.0234
 2216TIP3    H1 6654   2.907   3.402   3.061  1.6178 -0.6188  2.5791
 2216TIP3    H2 6655   2.770   3.359   3.016  2.2658  1.3503 -1.6875
 2217TIP3   OH2 6656   3.012   5.743   4.094  0.3112  0.1853 -0.4965
 2217TIP3    H1 6657   3.074   5.702   4.154 -0.5228 -0.8839 -0.3268
 2217TIP3    H2 6658   3.005   5.834   4.123  0.1489 -0.2402  0.8539
 2218TIP3   OH2 6659   5.691   5.476   1.621  0.7989 -0.4797  0.6498
 2218TIP3    H1 6660   5.778   5.494   1.584  1.4226  0.3835  2.4428
 2218TIP3    H2 6661   5.650   5.562   1.629 -0.3213 -0.8961 -0.3236
 2219TIP3   OH2 6662   6.254   2.854   3.359 -0.0856 -0.1419  0.1421
 2219TIP3    H1 6663   6.325   2.917   3.361 -1.4188  1.5217 -1.5478
 2219TIP3    H2 6664   6.187   2.890   3.417 -1.6218  1.0997 -2.2362
 2220TIP3   OH2 6665   1.705   2.284   3.890  0.5731 -0.0975  0.2214
 2220TIP3    H1 6666   1.738   2.264   3.978 -2.2550  0.1347  1.4229
 2220TIP3    H2 6667   1.698   2.380   3.888  0.8622 -0.0824 -0.3670
 2221TIP3   OH2 6668   0.247   5.143   3.956  0.7964 -0.3234  0.1380
 2221TIP3    H1 6669   0.227   5.236   3.941 -0.4670 -0.6413 -0.2346
 2221TIP3    H2 6670   0.231   5.102   3.871  1.1650 -0.9172  0.3540
 2222TIP3   OH2 6671   0.864   5.101   5.036 -0.1329 -0.2280 -0.2928
 2222TIP3    H1 6672   0.957   5.101   5.014 -0.4568 -0.9364 -1.7642
 2222TIP3    H2 6673   0.824   5.163   4.976 -0.5214  0.6398  0.8388
 2223TIP3   OH2 6674   6.251   1.870   4.837 -0.1149  0.0613  0.3772
 2223TIP3    H1 6675   6.171   1.820   4.820  0.5539 -1.0115  0.2911
 2223TIP3    H2 6676   6.221   1.947   4.885 -1.2235 -0.2299  0.1818
 2224TIP3   OH2 6677   5.792   1.153   4.191  0.2191  0.8790  0.2664
 2224TIP3    H1 6678   5.785   1.241   4.227  0.7075  0.4073  1.5644
 2224TIP3    H2 6679   5.854   1.108   4.249 -0.3421 -0.4331 -0.1200
 2225TIP3   OH2 6680   0.391   5.632   0.061 -0.7152  0.6105 -0.2371
 2225TIP3    H1 6681   0.351   5.560   0.013 -0.6363  0.1465  0.3909
 2225TIP3    H2 6682   0.482   5.633   0.031 -0.3492 -0.4706  0.8170
 2226TIP3   OH2 6683   5.628   5.549   3.422 -0.4370  0.1675 -0.0504
 2226TIP3    H1 6684   5.596   5.481   3.481 -0.8277  0.0777 -0.3654
 2226TIP3    H2 6685   5.687   5.602   3.476 -1.1306  0.3517  0.5347
 2227TIP3   OH2 6686   0.927   5.335   2.748 -0.2604 -0.1073  0.0085
 2227TIP3    H1 6687   0.882   5.253   2.770 -0.7889 -0.3347 -1.7504
 2227TIP3    H2 6688   1.020   5.311   2.744 -0.4681 -0.8149 -1.1423
 2228TIP3   OH2 6689   0.640   5.590   0.952 -0.0739  0.2822  0.1116
 2228TIP3    H1 6690   0.628   5.581   1.047 -0.0158  1.2962  0.2303
 2228TIP3    H2 6691   0.707   5.526   0.930  0.1072  0.2219  0.8105
 2229TIP3   OH2 6692   0.721   5.878   0.644 -0.2114 -0.0309 -0.4137
 2229TIP3    H1 6693   0.796   5.911   0.594  0.8620 -1.0786  0.4500
 2229TIP3    H2 6694   0.740   5.785   0.657 -0.4306  0.1983  1.9411
 2230TIP3   OH2 6695   3.146   3.230   4.889 -0.2354 -0.5026  0.0180
 2230TIP3    H1 6696   3.100   3.266   4.965 -0.3106  2.0788 -1.1341
 2230TIP3    H2 6697   3.077   3.194   4.834 -0.6070  0.7323 -0.3603
 2231TIP3   OH2 6698   3.033   1.054   0.730 -0.1309  0.3245  0.1663
 2231TIP3    H1 6699   2.976   0.991   0.774 -1.2781  0.6519 -0.7853
 2231TIP3    H2 6700   2.973   1.117   0.690  0.9058  0.7598 -0.7776
 2232TIP3   OH2 6701   2.894   5.026   2.559 -0.0571  1.0692  0.4014
 2232TIP3    H1 6702   2.932   5.114   2.562 -0.6638  1.3680 -0.2723
 2232TIP3    H2 6703   2.970   4.967   2.557  0.4522  1.6847 -1.7626
 2233TIP3   OH2 6704   0.256   0.277   4.450  0.2349 -0.3102 -0.0505
 2233TIP3    H1 6705   0.303   0.321   4.520  0.0346 -1.5736  0.9003
 2233TIP3    H2 6706   0.319   0.215   4.414  0.0100 -0.3934 -0.3021
 2234TIP3   OH2 6707   1.752   0.286   2.669 -0.0628 -0.0251  0.3257
 2234TIP3    H1 6708   1.700   0.250   2.597  0.9127 -0.8203 -0.0087
 2234TIP3    H2 6709   1.689   0.332   2.724 -0.9118  0.0919 -0.7291
 2235TIP3   OH2 6710   3.225   0.867   3.259 -0.3074 -0.4227  0.0524
 2235TIP3    H1 6711   3.293   0.800   3.268 -1.2811 -1.6068 -1.0534
 2235TIP3    H2 6712   3.175   0.840   3.182 -0.3917  1.9014 -0.7826
 2236TIP3   OH2 6713   0.054   0.080   4.335  0.2017 -0.3396 -0.3602
 2236TIP3    H1 6714   0.112   0.149   4.370  0.9170 -0.8321 -0.5432
 2236TIP3    H2 6715  -0.020   0.078   4.395  0.7582 -0.2295  0.3433
 2237TIP3   OH2 6716   0.552   4.006   4.732  0.2450 -0.0156 -0.4225
 2237TIP3    H1 6717   0.558   3.922   4.777  2.8897  0.5604  0.4994
 2237TIP3    H2 6718   0.497   4.060   4.788  0.5133 -0.4262  0.2521
 2238TIP3   OH2 6719   1.433   0.293   5.140 -0.5078 -0.3512 -0.5434
 2238TIP3    H1 6720   1.525   0.273   5.130 -0.0662  2.0689 -2.2714
 2238TIP3    H2 6721   1.396   0.285   5.052 -1.5856  0.1886 -0.1733
 2239TIP3   OH2 6722   2.062   2.016   0.287 -0.1488 -0.0272  0.0431
 2239TIP3    H1 6723   2.114   1.947   0.246 -0.2702  0.3982 -0.8495
 2239TIP3    H2 6724   1.987   2.029   0.228 -0.7345  0.0760  0.7866
 2240TIP3   OH2 6725   3.381   4.335   0.519  0.1693  0.2865 -0.1829
 2240TIP3    H1 6726   3.382   4.427   0.545 -0.6017  0.0202  0.8507
 2240TIP3    H2 6727   3.312   4.296   0.573 -0.3757 -0.6365 -1.4947
 2241TIP3   OH2 6728   2.562   5.759   0.653 -0.2983 -0.4475  0.7146
 2241TIP3    H1 6729   2.631   5.707   0.695 -1.2009 -2.1269  0.2047
 2241TIP3    H2 6730   2.539   5.709   0.575 -1.2632  0.7061  0.2407
 2242TIP3   OH2 6731   3.425   3.168   4.154  0.3299 -0.0275 -0.2338
 2242TIP3    H1 6732   3.423   3.148   4.061  1.0005 -1.3911  0.0323
 2242TIP3    H2 6733   3.366   3.104   4.194 -1.0308  1.3999  0.1654
 2243TIP3   OH2 6734   5.979  -0.009   4.533 -0.4044 -0.6656 -0.7617
 2243TIP3    H1 6735   5.908   0.051   4.512 -0.3326 -0.6462 -0.9505
 2243TIP3    H2 6736   6.030  -0.015   4.452 -0.1812 -0.6639 -0.6212
 2244TIP3   OH2 6737   2.412   4.886   5.109  0.0289 -0.2948  0.6984
 2244TIP3    H1 6738   2.348   4.881   5.180 -0.3939 -0.9592  0.2902
 2244TIP3    H2 6739   2.463   4.964   5.127 -1.1782  0.4901  0.8159
 2245TIP3   OH2 6740   4.255   5.134   2.420  0.1426 -0.0809  0.3186
 2245TIP3    H1 6741   4.308   5.122   2.499 -0.7005 -1.5844  0.6802
 2245TIP3    H2 6742   4.195   5.060   2.419 -0.8525  0.6940 -0.9725
 2246TIP3   OH2 6743   2.857   5.655   3.852  0.2664 -0.5937 -0.2353
 2246TIP3    H1 6744   2.907   5.676   3.773  2.3087 -1.6821  0.7007
 2246TIP3    H2 6745   2.923   5.644   3.920 -1.4779  1.4626  1.9767
 2247TIP3   OH2 6746   0.367   3.710   3.345  0.3442  0.3319  0.3804
 2247TIP3    H1 6747   0.276   3.681   3.354  0.7532 -0.7980  1.2125
 2247TIP3    H2 6748   0.403   3.654   3.276  0.4885  0.5724  0.2614
 2248TIP3   OH2 6749   1.925  -0.015   3.782 -0.6947  0.3907 -0.0081
 2248TIP3    H1 6750   1.923   0.004   3.688  0.7948 -2.7055 -0.8175
 2248TIP3    H2 6751   2.009   0.020   3.812 -0.5193  0.1127 -0.1723
 2249TIP3   OH2 6752   4.789   3.618   5.017  0.2571 -0.3690 -0.1956
 2249TIP3    H1 6753   4.732   3.678   5.065 -0.0596 -0.7390 -0.1076
 2249TIP3    H2 6754   4.734   3.584   4.946  0.2596 -0.9872  0.0929
 2250TIP3   OH2 6755   1.332   0.045   0.496 -0.2536 -0.9872  0.3657
 2250TIP3    H1 6756   1.378  -0.022   0.445  2.0375  1.5957 -1.2660
 2250TIP3    H2 6757   1.401   0.094   0.540 -1.4796  2.0614 -0.8310
 2251TIP3   OH2 6758   4.814   0.207   0.835 -0.3705  0.8496  0.2543
 2251TIP3    H1 6759   4.775   0.120   0.845  1.3179  0.0706  0.3999
 2251TIP3    H2 6760   4.779   0.239   0.752 -1.3192  0.2180  0.3854
 2252TIP3   OH2 6761   5.840   2.180   0.518  0.6107 -0.4744 -0.7453
 2252TIP3    H1 6762   5.853   2.185   0.613 -1.1201  1.3823 -0.5368
 2252TIP3    H2 6763   5.870   2.093   0.494 -0.0316 -1.4572  1.7125
 2253TIP3   OH2 6764   2.578   5.410   1.625  0.1087 -0.2324  0.0050
 2253TIP3    H1 6765   2.592   5.429   1.532 -1.2257 -1.6687 -0.5327
 2253TIP3    H2 6766   2.510   5.471   1.652  0.5203  0.2086  0.0520
 2254TIP3   OH2 6767   5.763   5.913   2.740 -0.1273 -0.5617  0.0791
 2254TIP3    H1 6768   5.839   5.874   2.784 -0.1349 -1.5130 -0.7174
 2254TIP3    H2 6769   5.692   5.852   2.757 -1.3316  1.3205  2.6047
 2255TIP3   OH2 6770   3.408   5.940   0.210  0.0791 -0.0648  0.3365
 2255TIP3    H1 6771   3.326   5.960   0.256 -0.9884 -0.6194 -1.2423
 2255TIP3    H2 6772   3.399   5.986   0.126  0.7306 -1.3205 -0.4441
 2256TIP3   OH2 6773   0.043   0.781   2.853  0.0068 -0.4403 -1.1005
 2256TIP3    H1 6774   0.020   0.801   2.944  1.0244 -1.5046 -0.5795
 2256TIP3    H2 6775   0.089   0.859   2.823 -2.7606  1.0794 -1.6674
 2257TIP3   OH2 6776   6.162   0.498   2.207 -0.3458  0.2733  0.0925
 2257TIP3    H1 6777   6.203   0.577   2.243 -1.1656  0.2224  1.2081
 2257TIP3    H2 6778   6.191   0.495   2.116  1.7162  0.5031  0.6926
 2258TIP3   OH2 6779   5.703   1.826   1.315 -0.0785  0.1195 -0.0383
 2258TIP3    H1 6780   5.669   1.893   1.256 -0.1864 -0.0683 -0.1892
 2258TIP3    H2 6781   5.661   1.844   1.399 -2.1354 -1.3248 -0.6857
 2259TIP3   OH2 6782   2.857   3.166   0.342  0.5046 -0.2926  0.0776
 2259TIP3    H1 6783   2.878   3.074   0.357  1.1538 -0.3933 -1.2727
 2259TIP3    H2 6784   2.936   3.202   0.301  0.9578  1.3336  2.2144
 2260TIP3   OH2 6785   0.590   0.373   4.911  0.6962  0.4723  0.0195
 2260TIP3    H1 6786   0.511   0.369   4.964  1.3967  0.4437  1.1006
 2260TIP3    H2 6787   0.579   0.303   4.846 -0.5836  1.1173 -0.4921
 2261TIP3   OH2 6788   4.038   4.909   3.260  0.0421  0.0642  0.6159
 2261TIP3    H1 6789   4.112   4.958   3.223 -0.6403  1.0181  0.4615
 2261TIP3    H2 6790   3.961   4.955   3.227 -0.6053 -0.1697  1.7526
 2262TIP3   OH2 6791   0.579   4.317   0.416  0.5594 -0.4664 -0.2846
 2262TIP3    H1 6792   0.586   4.223   0.399 -1.1211 -0.7556  0.4807
 2262TIP3    H2 6793   0.486   4.333   0.428  0.4945  1.7187 -2.7128
 2263TIP3   OH2 6794   5.055   4.290   0.598 -0.1937  0.4619  0.3453
 2263TIP3    H1 6795   4.971   4.337   0.598 -0.8542 -0.6686  0.9735
 2263TIP3    H2 6796   5.076   4.278   0.691 -1.1520 -2.3087  0.3048
 2264TIP3   OH2 6797   5.229   1.102   0.376 -0.3529 -0.1129 -0.5533
 2264TIP3    H1 6798   5.250   1.178   0.429 -0.2780 -0.0548 -0.6671
 2264TIP3    H2 6799   5.133   1.095   0.381 -0.3370 -0.1877 -0.3020
 2265TIP3   OH2 6800   1.555   3.306   3.406 -0.1034 -0.1418 -0.4141
 2265TIP3    H1 6801   1.563   3.400   3.421 -0.9614 -0.3078  1.3975
 2265TIP3    H2 6802   1.640   3.279   3.372  0.0073  1.3479 -1.3801
 2266TIP3   OH2 6803   4.064   5.543   4.399 -0.0785 -0.6312 -0.7791
 2266TIP3    H1 6804   4.103   5.468   4.355  1.0870 -0.2405 -0.4400
 2266TIP3    H2 6805   3.999   5.505   4.459  0.4836 -1.3695 -0.6219
 2267TIP3   OH2 6806   4.104   4.791   3.816 -0.2262 -0.5471  0.2427
 2267TIP3    H1 6807   4.041   4.861   3.826 -0.8088 -0.9052 -0.7672
 2267TIP3    H2 6808   4.188   4.831   3.838 -0.6764  0.1686  0.7174
 2268TIP3   OH2 6809   0.727   5.773   2.876  0.1551 -0.3802  0.7185
 2268TIP3    H1 6810   0.754   5.682   2.885 -0.0025 -0.5436 -0.3349
 2268TIP3    H2 6811   0.764   5.802   2.793  0.0304  0.4542  0.9395
 2269TIP3   OH2 6812   4.804   1.999   4.699  0.3117  0.1927  0.4178
 2269TIP3    H1 6813   4.853   2.016   4.618  0.5534  0.5644  0.6396
 2269TIP3    H2 6814   4.755   1.920   4.680  2.4532 -1.3239  0.8378
 2270TIP3   OH2 6815   1.593   3.770   4.366  0.0810  0.8235 -0.0010
 2270TIP3    H1 6816   1.528   3.774   4.296 -0.9057 -1.0869  0.7320
 2270TIP3    H2 6817   1.542   3.779   4.446  0.7238 -0.3092  0.5686
 2271TIP3   OH2 6818   4.194   4.579   3.660  0.0847  0.2165 -0.3059
 2271TIP3    H1 6819   4.233   4.624   3.585  0.5311 -1.0816 -0.8850
 2271TIP3    H2 6820   4.163   4.650   3.717  0.9531  1.2465 -1.0621
 2272TIP3   OH2 6821   2.622   1.432   4.271 -0.2354  0.0838  0.1047
 2272TIP3    H1 6822   2.540   1.469   4.238  0.8360  0.1940 -2.7546
 2272TIP3    H2 6823   2.690   1.475   4.219  1.3163 -3.3157 -0.9464
 2273TIP3   OH2 6824   1.561   1.294   0.045 -0.2414 -0.2382  0.4340
 2273TIP3    H1 6825   1.624   1.290   0.117  0.1086  1.8262  0.2962
 2273TIP3    H2 6826   1.493   1.231   0.069  2.1399 -3.0949  0.2443
 2274TIP3   OH2 6827   4.469   3.772   2.559 -0.5911 -0.0413 -0.4594
 2274TIP3    H1 6828   4.444   3.851   2.608 -0.5658  1.9556 -3.3948
 2274TIP3    H2 6829   4.386   3.727   2.542 -0.8865  0.5454 -0.6102
 2275TIP3   OH2 6830   0.603   2.723   0.119  0.1307  0.3137  0.4840
 2275TIP3    H1 6831   0.640   2.659   0.058 -0.2297  1.4320 -0.9518
 2275TIP3    H2 6832   0.655   2.802   0.107 -1.2372  1.1900  0.1172
 2276TIP3   OH2 6833   1.572   5.130   4.084  0.1854 -0.0250  0.2388
 2276TIP3    H1 6834   1.647   5.086   4.124 -0.3188 -1.4598 -0.2987
 2276TIP3    H2 6835   1.497   5.072   4.104 -0.3368  0.0548 -1.3452
 2277TIP3   OH2 6836   5.634   2.629   1.373 -0.0290 -0.1029 -0.2972
 2277TIP3    H1 6837   5.698   2.697   1.351  0.4320 -0.6706 -0.7378
 2277TIP3    H2 6838   5.573   2.672   1.433  0.4081  0.6232 -0.3632
 2278TIP3   OH2 6839   2.586   1.831   3.146 -0.1263 -0.5227 -0.3916
 2278TIP3    H1 6840   2.609   1.913   3.189  0.0376 -0.6345 -0.2615
 2278TIP3    H2 6841   2.659   1.773   3.166  0.4566 -0.2701 -1.6918
 2279TIP3   OH2 6842   3.205   3.961   0.287  0.3773 -0.1230 -0.2163
 2279TIP3    H1 6843   3.222   4.053   0.265  0.2808 -0.2195 -0.7103
 2279TIP3    H2 6844   3.241   3.950   0.375  0.3101  0.4107 -0.1215
 2280TIP3   OH2 6845   2.693   4.442   1.351  0.0981 -0.0612  0.1376
 2280TIP3    H1 6846   2.750   4.514   1.376  0.8091 -0.1193 -1.2058
 2280TIP3    H2 6847   2.644   4.421   1.431 -0.9440  2.6124  0.2941
 2281TIP3   OH2 6848   4.771   2.160   3.210  0.7863  0.0347  0.1455
 2281TIP3    H1 6849   4.826   2.151   3.132  2.5959 -2.9483  1.5974
 2281TIP3    H2 6850   4.832   2.184   3.280 -0.6666  1.8451  0.8887
 2282TIP3   OH2 6851   5.361   3.889   3.168 -0.0445  0.1457  0.2061
 2282TIP3    H1 6852   5.410   3.958   3.124  0.0735 -0.4559 -0.6161
 2282TIP3    H2 6853   5.282   3.933   3.201  0.2782  0.7731  0.1430
 2283TIP3   OH2 6854   2.785   3.758   0.048 -0.0253 -0.1173 -0.2256
 2283TIP3    H1 6855   2.876   3.783   0.068  0.5581 -0.3469 -2.2911
 2283TIP3    H2 6856   2.792   3.711  -0.035 -1.4021 -4.7486  1.9715
 2284TIP3   OH2 6857   1.023   1.233   5.050  0.3885  0.4427 -0.4995
 2284TIP3    H1 6858   0.961   1.179   5.100  0.3126  1.5477  0.6404
 2284TIP3    H2 6859   0.973   1.311   5.026  1.1824  1.1178 -0.0061
 2285TIP3   OH2 6860   3.307   3.446   4.200  0.1747  0.0542  0.0238
 2285TIP3    H1 6861   3.267   3.359   4.192 -1.1948  0.7164 -0.8120
 2285TIP3    H2 6862   3.399   3.433   4.178  0.3192 -1.4239  1.3672
 2286TIP3   OH2 6863   5.394   5.017   1.527 -0.6240 -1.2526 -0.1929
 2286TIP3    H1 6864   5.368   5.014   1.435 -1.4685 -0.7415  0.0226
 2286TIP3    H2 6865   5.456   5.090   1.532  0.1422 -1.8638 -0.5208
 2287TIP3   OH2 6866   4.441   0.728   3.410  0.1623 -0.1681 -0.4189
 2287TIP3    H1 6867   4.429   0.635   3.429  1.0244 -0.1437  0.2494
 2287TIP3    H2 6868   4.372   0.771   3.460  1.3720 -0.2438  1.4023
 2288TIP3   OH2 6869   1.203   4.624   1.452 -0.1547 -0.0608  0.0640
 2288TIP3    H1 6870   1.170   4.684   1.386 -0.4364 -1.0142 -0.6857
 2288TIP3    H2 6871   1.270   4.572   1.407 -0.3451 -0.7155  0.5146
 2289TIP3   OH2 6872   6.087   2.530   3.173  0.0830 -0.2047 -0.0668
 2289TIP3    H1 6873   6.039   2.466   3.226 -0.0742 -1.1174 -1.2777
 2289TIP3    H2 6874   6.039   2.611   3.185  0.4474 -0.2141  1.7261
 2290TIP3   OH2 6875   2.808   4.762   3.578  0.2890  0.0089 -0.5334
 2290TIP3    H1 6876   2.897   4.778   3.548  0.5566 -1.7623 -0.7408
 2290TIP3    H2 6877   2.760   4.738   3.499  0.6422 -3.1552  0.0803
 2291TIP3   OH2 6878   0.539   5.524   3.527  0.1383 -0.0800 -0.3526
 2291TIP3    H1 6879   0.519   5.488   3.613 -0.2902 -0.4895 -0.6170
 2291TIP3    H2 6880   0.456   5.560   3.496 -0.0426 -1.1415 -1.1564
 2292TIP3   OH2 6881   2.992   0.898   2.442  0.5026 -0.4733  0.2857
 2292TIP3    H1 6882   2.961   0.817   2.402  0.9999  0.1110 -1.3407
 2292TIP3    H2 6883   2.941   0.905   2.523 -1.4586 -1.0556 -0.8359
 2293TIP3   OH2 6884   1.035   1.117   0.623  0.6929 -0.1428 -0.0458
 2293TIP3    H1 6885   0.943   1.141   0.625  0.3317 -1.2075 -1.8306
 2293TIP3    H2 6886   1.071   1.165   0.548  1.3958 -0.4158  0.1073
 2294TIP3   OH2 6887   3.413   2.080   4.057 -0.3664 -0.1408 -0.2227
 2294TIP3    H1 6888   3.447   2.103   4.143  1.4329  0.9343 -1.1790
 2294TIP3    H2 6889   3.365   2.158   4.028 -0.2942 -0.2071 -0.5232
 2295TIP3   OH2 6890   5.971   4.271   1.810 -0.4463 -0.2601 -0.8946
 2295TIP3    H1 6891   5.983   4.226   1.726 -1.1925 -0.6845 -0.7811
 2295TIP3    H2 6892   5.902   4.222   1.854  0.8465 -0.8222  0.5472
 2296TIP3   OH2 6893   4.635   3.936   3.076 -0.4445 -0.2998 -0.1304
 2296TIP3    H1 6894   4.679   3.979   3.149  0.4735  1.5828 -1.7064
 2296TIP3    H2 6895   4.543   3.935   3.101 -0.5524  2.7723 -0.0126
 2297TIP3   OH2 6896   0.491   2.791   0.651  0.4767 -0.2720  0.7411
 2297TIP3    H1 6897   0.463   2.758   0.565 -0.2130  0.9198  0.4879
 2297TIP3    H2 6898   0.567   2.737   0.673  0.3013 -1.0064 -0.3354
 2298TIP3   OH2 6899   0.910   0.219   0.763 -0.3300  0.4882  0.3246
 2298TIP3    H1 6900   0.859   0.196   0.840 -0.4510  0.3498  0.2027
 2298TIP3    H2 6901   0.850   0.208   0.689 -0.1350  0.3552  0.1847
 2299TIP3   OH2 6902   5.512   1.569   4.724 -0.1855  0.0854  0.2841
 2299TIP3    H1 6903   5.433   1.590   4.774  0.2572 -0.4008  1.2182
 2299TIP3    H2 6904   5.543   1.487   4.762 -0.2158 -0.6657 -1.2756
 2300TIP3   OH2 6905   0.251   3.733   0.637  0.5271 -0.3904  0.4532
 2300TIP3    H1 6906   0.250   3.829   0.635  0.6431 -0.3079  2.2393
 2300TIP3    H2 6907   0.161   3.707   0.616  0.7605  0.0334 -1.2000
 2301TIP3   OH2 6908   5.631   3.463   5.161 -0.4062  0.3035 -0.1473
 2301TIP3    H1 6909   5.634   3.466   5.066 -0.1834 -0.6150 -0.1750
 2301TIP3    H2 6910   5.543   3.492   5.183 -0.6678 -0.0763 -0.6680
 2302TIP3   OH2 6911   0.603   4.011   4.287 -0.6521  1.2372 -0.1288
 2302TIP3    H1 6912   0.647   4.036   4.368 -0.7425  2.5930 -0.4668
 2302TIP3    H2 6913   0.666   4.033   4.218 -0.1603 -0.8462 -0.4099
 2303TIP3   OH2 6914   1.974   1.704   3.800 -0.2386 -0.4111  0.6634
 2303TIP3    H1 6915   1.976   1.799   3.790  0.3657 -0.3074  1.5694
 2303TIP3    H2 6916   1.974   1.670   3.711  0.5229  0.4353  0.3226
 2304TIP3   OH2 6917   2.327   2.776   3.362 -0.0566  0.1106  0.0567
 2304TIP3    H1 6918   2.348   2.829   3.286  0.5884  1.4635  1.1306
 2304TIP3    H2 6919   2.398   2.793   3.424 -0.1306 -1.5763  0.6656
 2305TIP3   OH2 6920   5.418   4.651   2.559  0.3719 -0.3560 -0.0885
 2305TIP3    H1 6921   5.383   4.599   2.632 -0.0408 -0.8530 -0.6243
 2305TIP3    H2 6922   5.354   4.638   2.489  1.1823 -0.5464 -0.7982
 2306TIP3   OH2 6923   2.477   3.143   0.032  0.0166 -0.2686  0.4396
 2306TIP3    H1 6924   2.572   3.146   0.032 -0.0045  0.5369  0.9184
 2306TIP3    H2 6925   2.450   3.223   0.077 -0.9037  0.1596 -0.8265
 2307TIP3   OH2 6926   2.134   4.704   4.979  0.4000  0.1267 -0.0314
 2307TIP3    H1 6927   2.072   4.775   4.961 -0.4602 -0.6684 -0.2521
 2307TIP3    H2 6928   2.219   4.739   4.951  0.1786  1.4781  0.9138
 2308TIP3   OH2 6929   2.149   3.737   0.743  0.0972  0.2651 -0.0665
 2308TIP3    H1 6930   2.180   3.736   0.653  1.0283  0.3362  0.2431
 2308TIP3    H2 6931   2.097   3.656   0.751  2.7811 -1.5683  0.2460
 2309TIP3   OH2 6932   6.016   3.379   2.160 -0.5600 -0.2539  0.2223
 2309TIP3    H1 6933   6.108   3.392   2.183 -0.7080  1.0506  0.1637
 2309TIP3    H2 6934   6.013   3.393   2.065 -0.7595 -0.7057  0.1587
 2310TIP3   OH2 6935   6.296   1.593   4.278 -0.2410 -0.2729  0.1215
 2310TIP3    H1 6936   6.271   1.501   4.282  0.7100 -0.5925 -0.7740
 2310TIP3    H2 6937   6.322   1.606   4.186 -1.1833  1.1052  0.0189
 2311TIP3   OH2 6938   5.754   3.065   4.709  0.0448 -0.1414  0.1164
 2311TIP3    H1 6939   5.709   3.086   4.790 -0.7166 -0.5078 -0.2022
 2311TIP3    H2 6940   5.752   3.145   4.658  0.7201  0.1553  0.5362
 2312TIP3   OH2 6941   5.450   4.555   2.159 -0.6685 -0.2616  1.0255
 2312TIP3    H1 6942   5.359   4.559   2.129 -0.0074 -0.9964 -1.2939
 2312TIP3    H2 6943   5.494   4.626   2.112  0.2146 -0.7537  1.0840
 2313TIP3   OH2 6944   5.869   4.478   5.036  0.0102 -0.3460  0.2672
 2313TIP3    H1 6945   5.857   4.558   5.088  0.6150 -0.1473  0.1103
 2313TIP3    H2 6946   5.964   4.469   5.028 -0.0683 -0.7797 -0.1868
 2314TIP3   OH2 6947   2.540   2.410   4.941  0.2345  0.1222 -0.5287
 2314TIP3    H1 6948   2.543   2.316   4.956  0.8993  0.1691 -0.3024
 2314TIP3    H2 6949   2.579   2.448   5.020 -1.0742  0.6539 -0.1136
 2315TIP3   OH2 6950   2.700   3.914   0.974  0.9280  0.3833 -0.0747
 2315TIP3    H1 6951   2.704   3.968   0.895  1.6792 -0.3381 -0.5424
 2315TIP3    H2 6952   2.649   3.966   1.036  1.2382  1.4181 -0.6715
 2316TIP3   OH2 6953   0.670   1.952   1.137 -0.1128 -0.3796  0.0436
 2316TIP3    H1 6954   0.620   2.032   1.152  0.4655  0.1833 -0.9191
 2316TIP3    H2 6955   0.604   1.888   1.109 -0.2805  0.4740 -1.6251
 2317TIP3   OH2 6956   2.545   0.745   2.483 -0.4983  0.1473  0.0449
 2317TIP3    H1 6957   2.553   0.782   2.571  0.4425 -0.9923  0.4511
 2317TIP3    H2 6958   2.463   0.783   2.449 -2.1381 -1.1425  2.2661
 2318TIP3   OH2 6959   1.974   5.225   3.659  0.1742 -0.0494 -0.1355
 2318TIP3    H1 6960   1.938   5.262   3.739  1.7908  1.5887 -0.0885
 2318TIP3    H2 6961   1.970   5.130   3.671  0.3000  0.1635  1.8479
 2319TIP3   OH2 6962   2.066   0.702   3.301  0.1007 -0.0373  0.1284
 2319TIP3    H1 6963   2.154   0.706   3.263  0.9892 -1.4610  1.9097
 2319TIP3    H2 6964   2.075   0.648   3.379 -2.6425 -1.5067 -0.4100
 2320TIP3   OH2 6965   5.027   3.964   1.620 -0.0860  0.0963 -0.4202
 2320TIP3    H1 6966   5.046   3.888   1.565 -1.8498 -0.6204 -0.1212
 2320TIP3    H2 6967   5.111   3.985   1.662  1.0522  0.0150 -2.5408
 2321TIP3   OH2 6968   4.916   0.215   4.624 -0.0880 -0.2580 -0.5531
 2321TIP3    H1 6969   4.958   0.130   4.635 -0.4317 -0.4974 -1.0456
 2321TIP3    H2 6970   4.948   0.246   4.539 -0.3483 -0.1164 -0.5980
 2322TIP3   OH2 6971   1.832   3.165   1.999 -0.3302 -0.0340 -0.1062
 2322TIP3    H1 6972   1.801   3.074   2.001  0.4915 -0.3065  0.9417
 2322TIP3    H2 6973   1.925   3.159   2.020  0.1828  0.8894 -1.9743
 2323TIP3   OH2 6974   5.593   4.259   4.604  0.2718 -0.0466 -0.0502
 2323TIP3    H1 6975   5.591   4.190   4.538 -0.4835  1.1611 -1.3516
 2323TIP3    H2 6976   5.686   4.283   4.610  0.5688 -1.2481  0.5491
 2324TIP3   OH2 6977   3.898   4.647   3.038 -0.3474  0.2379  0.5340
 2324TIP3    H1 6978   3.842   4.593   2.982  0.6772 -0.8366  0.4960
 2324TIP3    H2 6979   3.838   4.711   3.076 -1.5588 -0.6885  0.2810
 2325TIP3   OH2 6980   1.306   4.841   4.970  0.2344 -0.5039 -0.2628
 2325TIP3    H1 6981   1.297   4.762   4.917 -1.2236 -0.3202 -0.3060
 2325TIP3    H2 6982   1.249   4.905   4.927 -0.1375 -0.0343  0.9144
 2326TIP3   OH2 6983   0.556   2.247   1.565  0.4756 -0.6008  0.4859
 2326TIP3    H1 6984   0.582   2.338   1.550 -1.1690  0.3502  2.8079
 2326TIP3    H2 6985   0.638   2.199   1.567  1.4789  1.0175  0.2736
 2327TIP3   OH2 6986   3.280   1.756   2.814 -0.1736  0.3755 -0.2692
 2327TIP3    H1 6987   3.320   1.812   2.747  1.3982 -0.0135  0.2827
 2327TIP3    H2 6988   3.354   1.707   2.851 -1.5257 -2.6046 -1.1922
 2328TIP3   OH2 6989   3.539   0.788   1.076  0.0559 -0.0144 -0.3078
 2328TIP3    H1 6990   3.521   0.740   0.996  0.4294 -1.5778  0.4981
 2328TIP3    H2 6991   3.632   0.812   1.070 -0.2885  1.2212 -0.9988
 2329TIP3   OH2 6992   5.393   4.184   3.129  0.1582  0.1139  0.9489
 2329TIP3    H1 6993   5.302   4.212   3.143  0.5166  1.4108  0.8202
 2329TIP3    H2 6994   5.439   4.212   3.208  0.3197 -1.2042  1.3413
 2330TIP3   OH2 6995   5.181   2.493   1.441 -0.1266  0.3233 -0.3827
 2330TIP3    H1 6996   5.249   2.430   1.417  0.2113  0.2349  0.7745
 2330TIP3    H2 6997   5.197   2.568   1.384  1.2412  0.4914  0.1812
 2331TIP3   OH2 6998   3.686   2.443   2.005 -0.2903  0.0706 -0.1892
 2331TIP3    H1 6999   3.758   2.488   1.960 -0.4408  0.5997  0.0922
 2331TIP3    H2 7000   3.725   2.412   2.087 -0.6553  1.3723  0.5069
 2332TIP3   OH2 7001   4.369   5.514   4.830 -0.0408  0.4756 -0.8714
 2332TIP3    H1 7002   4.370   5.448   4.900 -0.1952  0.7934 -0.5680
 2332TIP3    H2 7003   4.332   5.468   4.755 -1.2546  0.5347 -0.3372
 2333TIP3   OH2 7004   1.461   3.990   4.782 -0.4311 -0.0479 -0.4538
 2333TIP3    H1 7005   1.511   3.910   4.765 -1.1523 -0.7638  0.6523
 2333TIP3    H2 7006   1.388   3.961   4.837 -1.4819  1.1551 -1.1715
 2334TIP3   OH2 7007   3.756   2.889   1.740 -0.5055  0.3716 -0.7674
 2334TIP3    H1 7008   3.757   2.942   1.660  2.2866 -0.1347 -1.1998
 2334TIP3    H2 7009   3.697   2.816   1.720 -1.1440  1.1198 -1.7246
 2335TIP3   OH2 7010   2.101   3.128   2.303  0.1213  0.0271 -0.1582
 2335TIP3    H1 7011   2.154   3.207   2.291 -0.0793  0.4318  1.4419
 2335TIP3    H2 7012   2.085   3.124   2.397 -0.3684 -1.6108 -0.2824
 2336TIP3   OH2 7013   1.852   2.097   0.117 -0.2665 -0.0644  0.3430
 2336TIP3    H1 7014   1.768   2.063   0.085  0.2928 -1.5364  0.3865
 2336TIP3    H2 7015   1.883   2.151   0.044 -0.7804 -0.3254 -0.0878
 2337TIP3   OH2 7016   2.422   4.559   2.136  0.6534  0.3110 -0.2119
 2337TIP3    H1 7017   2.431   4.465   2.117  0.6620  0.5703 -1.5482
 2337TIP3    H2 7018   2.336   4.582   2.103  1.2674  1.0932 -1.3123
 2338TIP3   OH2 7019   3.440   3.288   0.463 -0.1293 -0.0539 -0.2562
 2338TIP3    H1 7020   3.534   3.298   0.480 -0.2371 -0.0188  0.3706
 2338TIP3    H2 7021   3.434   3.253   0.374  0.6258 -3.2129  0.8046
 2339TIP3   OH2 7022   1.486   2.548   1.796  0.1681 -0.0664  0.3400
 2339TIP3    H1 7023   1.463   2.455   1.793  0.5491 -0.1445 -1.8144
 2339TIP3    H2 7024   1.402   2.593   1.809  0.1080 -0.6958  2.5229
 2340TIP3   OH2 7025   1.815   5.694   2.410  0.2034  0.6157 -0.3006
 2340TIP3    H1 7026   1.740   5.743   2.441 -0.3774 -0.6106  0.2914
 2340TIP3    H2 7027   1.880   5.702   2.480  0.7208  1.8224 -0.8882
 2341TIP3   OH2 7028   2.577   5.063   3.105 -0.2271 -0.7616  0.0244
 2341TIP3    H1 7029   2.665   5.033   3.085  0.4665  0.0853  1.6048
 2341TIP3    H2 7030   2.551   5.116   3.030  2.8723  3.6491  1.6536
 2342TIP3   OH2 7031   4.032   5.686   1.428 -0.7539  0.0354 -0.6307
 2342TIP3    H1 7032   4.078   5.651   1.504 -1.9300  1.9266  1.0782
 2342TIP3    H2 7033   4.001   5.609   1.380  0.8053 -1.2130  0.2904
 2343TIP3   OH2 7034   3.772   0.520   0.024  0.1113  0.2528 -0.0558
 2343TIP3    H1 7035   3.795   0.606  -0.011  0.9679 -0.7128 -1.9912
 2343TIP3    H2 7036   3.680   0.508  -0.000  0.0616  0.5147 -0.0015
 2344TIP3   OH2 7037   5.088   3.585   2.790  0.1112  0.3444  0.2143
 2344TIP3    H1 7038   5.147   3.641   2.840  0.7880 -0.1203 -0.0493
 2344TIP3    H2 7039   5.016   3.642   2.766  1.0924  1.2805 -0.5918
 2345TIP3   OH2 7040   6.274   1.920   2.643 -0.7212 -0.2044 -0.1771
 2345TIP3    H1 7041   6.355   1.871   2.633 -0.8583 -0.3516 -0.5759
 2345TIP3    H2 7042   6.301   2.003   2.682 -0.5079 -0.6470  0.6279
 2346TIP3   OH2 7043   4.972   0.972   3.209  0.4904  0.4913  0.2299
 2346TIP3    H1 7044   4.880   0.982   3.184 -0.7479  0.5271  4.1676
 2346TIP3    H2 7045   4.995   0.883   3.182 -1.6394 -0.5438  1.5412
 2347TIP3   OH2 7046   2.562   3.007   3.865 -0.4874  0.1578  0.5525
 2347TIP3    H1 7047   2.477   2.966   3.851 -0.3906 -0.4421  1.5921
 2347TIP3    H2 7048   2.561   3.085   3.810 -1.4584 -0.1860  0.0662
 2348TIP3   OH2 7049   5.541   4.017   2.934  0.1587  0.1618 -0.2988
 2348TIP3    H1 7050   5.567   4.106   2.956 -0.3342 -0.1480  1.7534
 2348TIP3    H2 7051   5.451   4.024   2.904  0.0073  0.3267  0.1869
 2349TIP3   OH2 7052   1.243   2.206   0.822 -0.3022  0.5215  0.1849
 2349TIP3    H1 7053   1.171   2.206   0.885  0.5908  0.0538  1.2371
 2349TIP3    H2 7054   1.246   2.116   0.789  1.4368 -0.2317  2.1432
 2350TIP3   OH2 7055   2.033   3.271   3.460 -0.0288 -0.3909 -0.1844
 2350TIP3    H1 7056   2.083   3.284   3.379  1.0144 -1.8067  0.1857
 2350TIP3    H2 7057   2.078   3.199   3.504 -1.0550 -0.1721  1.2864
 2351TIP3   OH2 7058   2.951   2.991   2.846  0.1090 -0.4336  0.4004
 2351TIP3    H1 7059   3.014   2.943   2.901  0.0223  0.3904  1.2411
 2351TIP3    H2 7060   2.869   2.944   2.856  0.2399 -0.6425  0.4930
 2352TIP3   OH2 7061   1.108   4.020   1.233  0.2957 -0.3563  0.6477
 2352TIP3    H1 7062   1.044   4.086   1.206 -0.3507 -1.0103  0.5754
 2352TIP3    H2 7063   1.058   3.939   1.239  0.9629 -0.7226  1.3308
 2353TIP3   OH2 7064   3.523   1.395   4.928  0.1046 -0.1300  0.4260
 2353TIP3    H1 7065   3.513   1.310   4.971  1.0523 -1.1129 -1.1645
 2353TIP3    H2 7066   3.433   1.421   4.907 -0.1819 -0.9590  0.5468
 2354TIP3   OH2 7067   3.636   4.577   2.449  0.3150  0.2775  0.3671
 2354TIP3    H1 7068   3.553   4.618   2.471  1.3662  1.8434  1.6918
 2354TIP3    H2 7069   3.635   4.493   2.496 -0.3289  0.5070  0.7753
 2355TIP3   OH2 7070   1.312   1.674   2.826  0.2144 -0.3581 -0.8094
 2355TIP3    H1 7071   1.236   1.685   2.768 -1.7892 -0.7223  1.5595
 2355TIP3    H2 7072   1.371   1.617   2.778 -1.2026 -0.4359 -2.5835
 2356TIP3   OH2 7073   0.409   1.701   2.302 -0.1741  0.0770 -0.7585
 2356TIP3    H1 7074   0.460   1.778   2.279 -0.2954  0.2041 -0.6028
 2356TIP3    H2 7075   0.337   1.700   2.238  0.6121 -0.7050 -1.6674
 2357TIP3   OH2 7076   5.742   4.045   3.658 -0.0627  0.1037  0.0012
 2357TIP3    H1 7077   5.752   4.030   3.564  0.4446  0.1594  0.0442
 2357TIP3    H2 7078   5.831   4.058   3.690 -0.3501  1.8826  0.1825
 2358TIP3   OH2 7079   4.184   0.809   3.509  0.5963  0.5290 -0.1918
 2358TIP3    H1 7080   4.192   0.903   3.492 -1.0538  1.0737  1.7620
 2358TIP3    H2 7081   4.138   0.803   3.592 -1.0108 -2.0210 -1.1400
 2359TIP3   OH2 7082   4.352   3.223   1.498 -0.1900 -0.1828 -0.2279
 2359TIP3    H1 7083   4.325   3.267   1.578  1.0548 -2.1353  1.3625
 2359TIP3    H2 7084   4.276   3.170   1.472 -1.0095  1.3473 -1.0631
 2360TIP3   OH2 7085   1.030   0.764   4.606 -0.0364  0.1450  0.0240
 2360TIP3    H1 7086   0.965   0.694   4.611  1.3058 -1.1428  0.2132
 2360TIP3    H2 7087   1.003   0.816   4.530 -0.0406 -1.7004 -1.3132
 2361TIP3   OH2 7088   5.626   3.131   3.997  0.2515 -0.3133 -0.3627
 2361TIP3    H1 7089   5.679   3.069   4.047  1.2716 -1.1149 -2.3544
 2361TIP3    H2 7090   5.558   3.077   3.956  0.7407 -0.0450 -1.5680
 2362TIP3   OH2 7091   2.454   4.458   3.929  0.1049  0.2301  0.1168
 2362TIP3    H1 7092   2.492   4.545   3.942  0.6976  0.4801 -2.7029
 2362TIP3    H2 7093   2.439   4.452   3.835 -0.0749 -2.6731  0.2467
 2363TIP3   OH2 7094   4.188   4.851   4.476 -0.0744  0.0776  0.2908
 2363TIP3    H1 7095   4.235   4.870   4.395  0.4024 -1.8895  0.0440
 2363TIP3    H2 7096   4.099   4.830   4.447 -0.3279  0.9141  0.4505
 2364TIP3   OH2 7097   3.296   3.651   1.845 -0.2998 -0.1582  0.6645
 2364TIP3    H1 7098   3.383   3.644   1.886  0.1609 -1.6134 -0.4941
 2364TIP3    H2 7099   3.315   3.662   1.752 -1.3758  0.4713  0.5040
 2365TIP3   OH2 7100   0.464   4.876   0.290 -0.5445 -0.3769 -0.4470
 2365TIP3    H1 7101   0.455   4.923   0.208 -0.7831  1.3617  0.5304
 2365TIP3    H2 7102   0.558   4.859   0.297 -0.5278 -0.5609 -1.0845
 2366TIP3   OH2 7103   1.823   0.197   1.926 -0.5519  0.2084 -0.1695
 2366TIP3    H1 7104   1.782   0.110   1.934 -0.9581  0.3082 -1.0905
 2366TIP3    H2 7105   1.758   0.251   1.882 -0.1385  0.8770  0.0197
 2367TIP3   OH2 7106   2.384   2.199   1.163 -0.3790 -0.2038  0.5685
 2367TIP3    H1 7107   2.341   2.262   1.221 -1.0268  1.3642 -1.4674
 2367TIP3    H2 7108   2.335   2.205   1.081  1.1810 -1.4618 -0.5190
 2368TIP3   OH2 7109   2.628   5.180   0.289  0.2611 -0.3178  0.2099
 2368TIP3    H1 7110   2.642   5.100   0.340 -1.8573 -0.8646  0.0112
 2368TIP3    H2 7111   2.534   5.181   0.271  0.2703  2.1420  0.0396
 2369TIP3   OH2 7112   2.268   3.261   1.632  0.8993  0.2073 -0.4171
 2369TIP3    H1 7113   2.331   3.275   1.702  1.2443  0.2267 -0.7308
 2369TIP3    H2 7114   2.278   3.337   1.574 -0.4408  0.9622  0.2983
 2370TIP3   OH2 7115   5.911   1.938   4.323  0.3990  0.3807  0.0630
 2370TIP3    H1 7116   5.839   1.992   4.288  0.5645 -0.4254 -1.6126
 2370TIP3    H2 7117   5.979   2.002   4.347 -0.4683  1.0823  0.7330
 2371TIP3   OH2 7118   0.565   0.395   4.385 -0.0808  0.6508  0.1425
 2371TIP3    H1 7119   0.634   0.442   4.338  0.0000  0.1176 -0.2875
 2371TIP3    H2 7120   0.557   0.312   4.338 -2.7097  1.6415 -1.3307
 2372TIP3   OH2 7121   5.968   2.160   0.017  0.4813  0.2492 -0.2894
 2372TIP3    H1 7122   5.935   2.074   0.041  1.7358 -0.0152  0.6021
 2372TIP3    H2 7123   5.932   2.219   0.083  2.5052 -0.2031  1.3347
 2373TIP3   OH2 7124   1.590   3.234   1.750 -0.0649 -0.3642 -0.1672
 2373TIP3    H1 7125   1.548   3.277   1.676 -0.0836 -1.5433 -0.8726
 2373TIP3    H2 7126   1.683   3.254   1.739 -0.2299  0.7370  0.3690
 2374TIP3   OH2 7127   4.844   0.227   3.244 -0.5473 -0.4375  0.1820
 2374TIP3    H1 7128   4.765   0.272   3.213 -1.5112 -0.9620  1.7735
 2374TIP3    H2 7129   4.897   0.296   3.283 -1.6716 -0.4986  1.9182
 2375TIP3   OH2 7130   2.733   5.431   1.386 -0.5489 -0.5161 -0.6465
 2375TIP3    H1 7131   2.739   5.338   1.363  0.8833 -0.2478 -1.4839
 2375TIP3    H2 7132   2.753   5.477   1.305 -0.3353  0.5324 -0.0199
 2376TIP3   OH2 7133   4.225   1.579   1.678 -0.4029 -0.6698 -0.2446
 2376TIP3    H1 7134   4.153   1.521   1.703 -1.1247  0.5033  0.5065
 2376TIP3    H2 7135   4.304   1.529   1.698 -0.9953 -1.0338  1.3514
 2377TIP3   OH2 7136   1.004   5.900   2.310  0.2746  0.3466  0.3722
 2377TIP3    H1 7137   0.953   5.874   2.233  1.4484  1.7299 -0.9262
 2377TIP3    H2 7138   0.956   5.973   2.348  0.6974  0.9620 -0.2408
 2378TIP3   OH2 7139   3.007   4.746   5.096  0.1805  0.0955 -0.0119
 2378TIP3    H1 7140   2.913   4.764   5.092  0.3218  0.7417 -0.6517
 2378TIP3    H2 7141   3.014   4.663   5.143 -0.6934  0.1767  0.2685
 2379TIP3   OH2 7142   4.395   4.364   0.570 -0.2999  0.0886 -0.0801
 2379TIP3    H1 7143   4.360   4.292   0.517  0.0690 -1.5910  1.8216
 2379TIP3    H2 7144   4.484   4.336   0.591  1.1647  2.7773 -2.1362
 2380TIP3   OH2 7145   4.766   1.333   2.746  0.1776 -0.0500  0.2046
 2380TIP3    H1 7146   4.832   1.401   2.735  1.0007 -0.8387  0.1278
 2380TIP3    H2 7147   4.816   1.256   2.772 -0.8511 -0.3594  1.3232
 2381TIP3   OH2 7148   5.306   3.991   2.761  0.1517 -0.1491 -0.1811
 2381TIP3    H1 7149   5.213   3.996   2.782  0.0191  0.0097 -0.7861
 2381TIP3    H2 7150   5.315   3.911   2.710  0.3271 -0.1033 -0.2233
 2382TIP3   OH2 7151   5.022   0.736   2.260  0.0041 -0.3731 -0.1572
 2382TIP3    H1 7152   4.929   0.725   2.241 -0.0202  0.5277 -0.5846
 2382TIP3    H2 7153   5.025   0.793   2.336  0.2191  1.1294 -1.2432
 2383TIP3   OH2 7154   2.490   1.120   2.980  0.8017 -0.1678 -1.2207
 2383TIP3    H1 7155   2.557   1.172   2.938  0.5424  0.7112 -0.5702
 2383TIP3    H2 7156   2.516   1.118   3.073 -0.3087  0.5663 -0.8858
 2384TIP3   OH2 7157   5.346   5.517   2.220  0.5008  0.3539 -0.1016
 2384TIP3    H1 7158   5.411   5.464   2.175 -1.2109 -1.4963 -0.5673
 2384TIP3    H2 7159   5.349   5.487   2.311  0.9981  1.0086  0.1021
 2385TIP3   OH2 7160   2.780   1.488   0.204  0.0925  0.0643 -0.2428
 2385TIP3    H1 7161   2.842   1.452   0.141  0.6153 -0.8291  0.7549
 2385TIP3    H2 7162   2.834   1.537   0.266 -0.1583 -0.8859  0.7522
 2386TIP3   OH2 7163   2.988   5.440   0.115  0.0486  1.0405  0.1779
 2386TIP3    H1 7164   2.991   5.536   0.117 -0.8982  1.1964 -2.3987
 2386TIP3    H2 7165   2.922   5.417   0.180 -0.7748  2.2496 -0.1947
 2387TIP3   OH2 7166   4.973   2.253   3.368 -0.4635  0.4017  0.0949
 2387TIP3    H1 7167   4.987   2.343   3.399 -2.1328  0.8291 -0.2701
 2387TIP3    H2 7168   5.055   2.208   3.388  0.2892  1.9098  0.6125
 2388TIP3   OH2 7169   1.426   1.279   2.458  0.0055 -0.1408  0.1731
 2388TIP3    H1 7170   1.433   1.186   2.436  0.5628 -0.2154  0.6512
 2388TIP3    H2 7171   1.454   1.324   2.379  2.2539 -0.4109  0.7461
 2389TIP3   OH2 7172   2.860   0.539   4.407 -0.2419  0.1806 -0.2609
 2389TIP3    H1 7173   2.770   0.552   4.437 -0.7481  0.3936 -1.7921
 2389TIP3    H2 7174   2.872   0.604   4.338  0.6144 -0.8026 -1.0725
 2390TIP3   OH2 7175   4.786   5.062   0.514 -0.0475  0.0460 -0.1660
 2390TIP3    H1 7176   4.709   5.012   0.487 -0.2756  0.0417  0.4868
 2390TIP3    H2 7177   4.820   5.099   0.432  0.2307 -1.3206 -0.6863
 2391TIP3   OH2 7178   1.092   1.785   0.715 -0.2472  0.1949  0.2048
 2391TIP3    H1 7179   1.114   1.771   0.623 -0.1473  0.0937  0.2436
 2391TIP3    H2 7180   1.166   1.836   0.750 -0.7301  1.0642 -0.0003
 2392TIP3   OH2 7181   1.212   1.755   0.458  0.0418  0.0941 -0.5205
 2392TIP3    H1 7182   1.268   1.823   0.421  0.8668 -1.1293 -1.6268
 2392TIP3    H2 7183   1.274   1.687   0.487 -0.8233 -1.1288 -1.4247
 2393TIP3   OH2 7184   2.083   0.529   3.516 -0.0924 -0.2217 -0.0396
 2393TIP3    H1 7185   2.125   0.578   3.587  0.8886  0.5683 -1.1366
 2393TIP3    H2 7186   1.995   0.511   3.548 -0.6392  2.6290  0.2591
 2394TIP3   OH2 7187   4.991   2.368   4.949  0.0481  0.5001  0.4422
 2394TIP3    H1 7188   4.906   2.324   4.940 -0.0844  0.8102  0.1925
 2394TIP3    H2 7189   5.055   2.300   4.931 -0.1715  0.6576 -0.9854
 2395TIP3   OH2 7190   4.522   1.707   4.937  0.1583 -0.0140 -0.0132
 2395TIP3    H1 7191   4.567   1.639   4.887 -1.5504 -0.9021 -0.4163
 2395TIP3    H2 7192   4.592   1.754   4.982  1.4643 -1.3797 -0.5385
 2396TIP3   OH2 7193   2.744   4.603   2.184  0.8833 -0.2716  0.2278
 2396TIP3    H1 7194   2.811   4.671   2.182  1.4611 -0.8170  0.3665
 2396TIP3    H2 7195   2.671   4.642   2.231  1.6439 -0.1234  1.3337
 2397TIP3   OH2 7196   4.628   2.736   2.021  0.6891  0.6294 -0.0356
 2397TIP3    H1 7197   4.636   2.646   1.988 -0.0854  0.9751 -1.2145
 2397TIP3    H2 7198   4.642   2.728   2.116 -0.0462 -0.8381 -0.0187
 2398TIP3   OH2 7199   0.975   1.260   1.761  0.0280 -0.1611 -0.2232
 2398TIP3    H1 7200   1.034   1.313   1.707 -0.6946  0.1910 -0.6771
 2398TIP3    H2 7201   1.010   1.270   1.850  0.6221  0.0837 -0.4764
 2399TIP3   OH2 7202   1.693   3.097   4.403 -0.4899 -0.2439 -0.2638
 2399TIP3    H1 7203   1.779   3.137   4.386 -1.5785  1.7656 -1.4605
 2399TIP3    H2 7204   1.683   3.032   4.334  0.1261 -0.5889 -0.0321
 2400TIP3   OH2 7205   4.383   4.360   2.075 -0.5699 -0.1628 -0.4022
 2400TIP3    H1 7206   4.341   4.274   2.068  1.6791 -1.4040  0.3573
 2400TIP3    H2 7207   4.461   4.353   2.019  1.0251  0.4242  1.6065
 2401TIP3   OH2 7208   4.848   1.223   4.071 -0.3230 -0.1391  0.8900
 2401TIP3    H1 7209   4.791   1.278   4.018  0.3644 -0.5183 -0.2780
 2401TIP3    H2 7210   4.879   1.281   4.141 -0.9030  0.4978  0.6293
 2402TIP3   OH2 7211   2.013   3.694   2.718 -0.1640  0.3910  0.1707
 2402TIP3    H1 7212   2.044   3.784   2.709  0.0514  0.1391 -2.2052
 2402TIP3    H2 7213   1.940   3.688   2.657  1.2480 -1.6282 -1.4553
 2403TIP3   OH2 7214   2.204   1.613   4.364 -0.0773  0.6557  0.1032
 2403TIP3    H1 7215   2.233   1.540   4.308 -0.9301  0.9026 -0.6938
 2403TIP3    H2 7216   2.263   1.611   4.439 -0.5657 -1.3567  0.4915
 2404TIP3   OH2 7217   5.565   0.562   4.146 -0.0742  0.3130 -0.8012
 2404TIP3    H1 7218   5.574   0.642   4.095  1.0002  1.6457  1.3250
 2404TIP3    H2 7219   5.651   0.550   4.187 -0.8186 -0.7691  0.5347
 2405TIP3   OH2 7220   0.999   0.183   5.114  0.1620 -0.1111 -0.4443
 2405TIP3    H1 7221   0.964   0.248   5.174 -0.1518 -0.4432 -0.2633
 2405TIP3    H2 7222   0.961   0.206   5.029 -0.6010 -0.5383 -0.2279
 2406TIP3   OH2 7223   4.968   4.807   4.461 -0.0920  0.1844 -0.1671
 2406TIP3    H1 7224   4.931   4.886   4.421  1.9735  1.8835  1.0592
 2406TIP3    H2 7225   4.928   4.735   4.412 -3.2986  1.8640 -0.2925
 2407TIP3   OH2 7226   4.137   2.734   0.197 -0.3882 -0.0759  0.0844
 2407TIP3    H1 7227   4.196   2.662   0.215 -1.3595 -1.0484 -0.5190
 2407TIP3    H2 7228   4.061   2.694   0.156 -2.4520  0.8116  2.7585
 2408TIP3   OH2 7229   0.010   3.261   4.843  0.0950  0.5670  0.5279
 2408TIP3    H1 7230   0.069   3.297   4.910  0.6511 -2.2794  1.7092
 2408TIP3    H2 7231   0.066   3.246   4.767  0.2950  0.4546  0.6938
 2409TIP3   OH2 7232   3.695   4.451   1.207 -0.2656 -0.7100 -0.1816
 2409TIP3    H1 7233   3.633   4.523   1.215  0.0388 -0.3294 -1.0525
 2409TIP3    H2 7234   3.773   4.481   1.254 -0.1482 -0.4805 -0.5227
 2410TIP3   OH2 7235   3.821   0.755   1.026  0.5657  0.7086 -0.1482
 2410TIP3    H1 7236   3.843   0.742   1.118 -0.1286  0.4580 -0.0072
 2410TIP3    H2 7237   3.849   0.845   1.007 -0.1549  1.1067  0.5828
 2411TIP3   OH2 7238   0.159   1.751   0.261 -0.4538 -0.1441 -0.3767
 2411TIP3    H1 7239   0.111   1.759   0.343 -1.2054  0.2634 -0.8500
 2411TIP3    H2 7240   0.130   1.825   0.208 -0.2627 -0.6183 -1.1589
 2412TIP3   OH2 7241   5.301   0.831   0.769 -0.0118 -0.4978 -0.0348
 2412TIP3    H1 7242   5.302   0.870   0.857 -1.8323  1.5373 -0.8173
 2412TIP3    H2 7243   5.383   0.782   0.764  0.7270  0.3261  2.3636
 2413TIP3   OH2 7244   0.386   0.101   2.071  0.1201 -0.5313 -0.0240
 2413TIP3    H1 7245   0.453   0.169   2.066 -0.0498 -0.4328 -1.2970
 2413TIP3    H2 7246   0.365   0.081   1.980  1.3474 -3.4991  0.2264
 2414TIP3   OH2 7247   1.297   1.100   0.253 -0.1377  0.3436  0.0188
 2414TIP3    H1 7248   1.243   1.084   0.175  0.3754  0.0706 -0.2923
 2414TIP3    H2 7249   1.295   1.195   0.264 -1.9634  0.2340  0.9610
 2415TIP3   OH2 7250   4.055   0.768   4.400 -0.0318  0.5869  0.2652
 2415TIP3    H1 7251   4.115   0.703   4.436  0.2659  1.2820  1.0546
 2415TIP3    H2 7252   4.047   0.744   4.307  1.0611  0.1820  0.2577
 2416TIP3   OH2 7253   5.398   4.468   3.259 -0.6719 -0.8935  0.2147
 2416TIP3    H1 7254   5.434   4.537   3.204 -1.3796 -0.4734  0.2745
 2416TIP3    H2 7255   5.473   4.410   3.275  0.3538  0.6857  1.4893
 2417TIP3   OH2 7256   5.598   4.294   2.955  0.0004  0.5301  0.6296
 2417TIP3    H1 7257   5.546   4.268   3.031  1.5402  0.3416  1.6768
 2417TIP3    H2 7258   5.668   4.348   2.991 -0.4758  2.3095 -0.9594
 2418TIP3   OH2 7259   1.114   3.438   0.511 -0.7705 -0.0040 -0.5998
 2418TIP3    H1 7260   1.169   3.439   0.432 -1.5815 -0.3492 -1.1883
 2418TIP3    H2 7261   1.035   3.485   0.485 -1.1645 -0.3755 -0.0868
 2419TIP3   OH2 7262   5.060   0.727   3.129 -0.2272  0.0322 -0.2229
 2419TIP3    H1 7263   5.132   0.665   3.124 -0.9839 -0.8721 -0.2624
 2419TIP3    H2 7264   4.981   0.673   3.126 -0.9062  0.9267  0.6038
 2420TIP3   OH2 7265   5.105   4.483   1.896 -0.3064 -0.1328 -0.1418
 2420TIP3    H1 7266   5.184   4.522   1.859 -0.0584  1.8004  2.2405
 2420TIP3    H2 7267   5.033   4.536   1.860 -0.2685  0.0919  0.1118
 2421TIP3   OH2 7268   0.139   0.603   1.563 -0.0215  0.0039  0.2742
 2421TIP3    H1 7269   0.228   0.631   1.585 -0.0416 -0.1835  0.6100
 2421TIP3    H2 7270   0.102   0.677   1.515  0.1691  0.2616  0.5158
 2422TIP3   OH2 7271   4.493   2.122   1.345  0.0876 -0.2129 -0.2812
 2422TIP3    H1 7272   4.576   2.136   1.390 -0.3184  0.7122  0.2029
 2422TIP3    H2 7273   4.515   2.062   1.274  1.0969 -0.2682  0.0528
 2423TIP3   OH2 7274   3.757   5.897   0.543  0.4194 -0.1909 -0.3136
 2423TIP3    H1 7275   3.786   5.983   0.574 -0.1237  0.4611 -1.5237
 2423TIP3    H2 7276   3.817   5.835   0.584 -1.3404  0.3569  3.5606
 2424TIP3   OH2 7277   3.215   4.491   1.374  0.0264  0.1313 -0.1267
 2424TIP3    H1 7278   3.285   4.512   1.435 -0.2441  0.0652  0.2158
 2424TIP3    H2 7279   3.230   4.400   1.350 -0.4474 -0.1693  0.6539
 2425TIP3   OH2 7280   3.681   5.826   0.036 -0.0926 -0.0520 -0.2892
 2425TIP3    H1 7281   3.676   5.916   0.068 -1.5907 -0.9928  2.4206
 2425TIP3    H2 7282   3.603   5.815  -0.019 -1.4973 -0.4542  1.7044
 2426TIP3   OH2 7283   4.660   2.730   2.995 -0.3795  0.3790  0.5632
 2426TIP3    H1 7284   4.615   2.800   3.041 -1.2248 -0.9251  1.8263
 2426TIP3    H2 7285   4.639   2.651   3.046 -3.7325 -1.7511 -3.4744
 2427TIP3   OH2 7286   5.585   0.076   0.788 -0.3791  0.2864  0.6982
 2427TIP3    H1 7287   5.590   0.044   0.698 -0.1791 -0.3217  0.9242
 2427TIP3    H2 7288   5.496   0.112   0.796 -0.3208  0.5550  0.1933
 2428TIP3   OH2 7289   3.445   5.798   2.923  0.3980 -0.0757  0.1757
 2428TIP3    H1 7290   3.415   5.837   2.841  1.2638 -0.3180 -0.2730
 2428TIP3    H2 7291   3.529   5.758   2.901 -0.4444 -2.1857  0.6386
 2429TIP3   OH2 7292   5.272   2.004   0.200  0.6885  0.0179  0.2878
 2429TIP3    H1 7293   5.309   2.047   0.122 -0.3293 -1.3229 -0.9915
 2429TIP3    H2 7294   5.329   1.928   0.214 -0.0655 -0.6342 -0.1394
 2430TIP3   OH2 7295   0.651   1.978   5.058  0.4633  0.3365  0.1927
 2430TIP3    H1 7296   0.621   1.888   5.070  2.3391 -0.4459 -0.5465
 2430TIP3    H2 7297   0.703   1.996   5.136 -0.4723  1.0686  0.6703
 2431TIP3   OH2 7298   3.391   1.068   0.071 -0.4803 -0.2268 -0.1035
 2431TIP3    H1 7299   3.429   1.114  -0.003 -3.0472  1.2757 -0.6298
 2431TIP3    H2 7300   3.448   0.992   0.085  1.9812  1.2707 -1.4063
 2432TIP3   OH2 7301   0.961   5.188   2.485  0.1920  0.3611  0.7520
 2432TIP3    H1 7302   0.926   5.100   2.468 -1.2678  1.2735 -1.4406
 2432TIP3    H2 7303   0.883   5.243   2.490  1.1383  1.8219 -0.0080
 2433TIP3   OH2 7304   4.200   0.795   0.743 -0.2246 -0.1733 -0.2294
 2433TIP3    H1 7305   4.177   0.781   0.835 -0.5616  0.3093 -0.2344
 2433TIP3    H2 7306   4.195   0.709   0.703  0.7818 -0.5409  0.3872
 2434TIP3   OH2 7307   3.340   3.267   1.742 -0.1274 -0.0569 -0.4599
 2434TIP3    H1 7308   3.393   3.203   1.790  1.7713  1.6975 -0.0699
 2434TIP3    H2 7309   3.268   3.288   1.802 -0.2248 -1.0940 -0.2022
 2435TIP3   OH2 7310   0.886   3.168   4.034 -0.2402  0.0483 -0.3109
 2435TIP3    H1 7311   0.892   3.134   3.944 -1.3231 -0.7015 -0.1183
 2435TIP3    H2 7312   0.900   3.091   4.089 -2.7274 -0.1679  0.1384
 2436TIP3   OH2 7313   5.400   2.872   2.755 -0.2301 -0.2194  0.3265
 2436TIP3    H1 7314   5.382   2.948   2.810 -0.5085 -1.3758  1.9204
 2436TIP3    H2 7315   5.363   2.798   2.804  0.3750 -1.4290 -0.9731
 2437TIP3   OH2 7316   1.143   4.613   4.370  0.3046  0.5827  0.2146
 2437TIP3    H1 7317   1.160   4.534   4.319  0.8026 -0.1630  1.4804
 2437TIP3    H2 7318   1.049   4.610   4.389  0.2849  0.3882  0.0905
 2438TIP3   OH2 7319   5.245   1.669   3.051 -0.4567 -0.0377  0.1641
 2438TIP3    H1 7320   5.335   1.665   3.082 -0.7660  1.3605  1.3267
 2438TIP3    H2 7321   5.253   1.668   2.955  0.7743 -0.0636  0.2518
 2439TIP3   OH2 7322   4.403   2.360   0.980 -0.5920 -0.5914 -0.0834
 2439TIP3    H1 7323   4.436   2.438   0.936  0.9739 -1.5150 -0.6300
 2439TIP3    H2 7324   4.430   2.370   1.071 -1.5749  0.1181  0.1385
 2440TIP3   OH2 7325   4.000   0.063   0.747 -0.0661 -0.1677  0.0770
 2440TIP3    H1 7326   3.916   0.104   0.766 -0.5933 -0.1486 -2.0522
 2440TIP3    H2 7327   4.004  -0.012   0.807 -0.8082  0.7873  1.3709
 2441TIP3   OH2 7328   0.240   3.744   4.131  0.6083  0.1000  0.3997
 2441TIP3    H1 7329   0.173   3.682   4.161 -1.4100  2.5191  1.2163
 2441TIP3    H2 7330   0.200   3.830   4.141  3.7429  1.6880  0.5469
 2442TIP3   OH2 7331   2.571   0.076   1.785 -0.4805  0.4677  0.0422
 2442TIP3    H1 7332   2.597   0.100   1.874 -0.5545 -0.4625  0.3324
 2442TIP3    H2 7333   2.641   0.108   1.729 -0.5571  1.2914  0.3991
 2443TIP3   OH2 7334   0.234   4.202   2.621 -0.0213  0.5456  0.2300
 2443TIP3    H1 7335   0.186   4.126   2.588  1.1822  0.4215 -1.3251
 2443TIP3    H2 7336   0.184   4.277   2.588  0.4290  0.4176 -0.7699
 2444TIP3   OH2 7337   5.060   1.579   0.212 -0.0916  0.4339 -0.5893
 2444TIP3    H1 7338   5.033   1.531   0.133  3.2424  1.0777 -2.3194
 2444TIP3    H2 7339   5.000   1.653   0.217 -1.3398 -0.4556 -1.5868
 2445TIP3   OH2 7340   5.005   5.847   3.108 -0.6159  0.0934 -0.1922
 2445TIP3    H1 7341   5.065   5.787   3.063  1.4897  1.5838  0.4713
 2445TIP3    H2 7342   4.928   5.851   3.051  0.6771 -0.4697 -2.0598
 2446TIP3   OH2 7343   2.024   3.154   1.688  0.4570  0.5100  0.3819
 2446TIP3    H1 7344   2.105   3.191   1.651  0.4138 -1.4728 -1.9755
 2446TIP3    H2 7345   2.034   3.060   1.678 -2.9177  0.2121 -1.9106
 2447TIP3   OH2 7346   0.995   0.760   1.369 -0.1297 -0.1638 -0.1119
 2447TIP3    H1 7347   1.050   0.807   1.306  0.3307 -1.0897 -0.4164
 2447TIP3    H2 7348   0.914   0.811   1.372  0.2798  0.5320 -0.5843
 2448TIP3   OH2 7349   1.912   4.243   1.414 -0.4376 -0.7065  0.0304
 2448TIP3    H1 7350   1.886   4.151   1.418  2.2169 -1.5083  0.3181
 2448TIP3    H2 7351   1.897   4.267   1.323 -0.7383 -1.5467 -0.1579
 2449TIP3   OH2 7352   2.015   5.813   0.904  0.1605  0.3477 -0.2698
 2449TIP3    H1 7353   1.974   5.773   0.981  2.0558 -2.8260 -0.6940
 2449TIP3    H2 7354   1.986   5.758   0.831 -1.3178  3.0714 -1.8751
 2450TIP3   OH2 7355   3.277   4.326   2.220  0.1680  0.4064  0.2263
 2450TIP3    H1 7356   3.336   4.301   2.150 -0.5925  2.9229 -1.4512
 2450TIP3    H2 7357   3.256   4.244   2.265  0.7182 -1.2973 -2.4494
 2451TIP3   OH2 7358   2.084   5.016   3.011  0.3786 -0.3055 -0.2200
 2451TIP3    H1 7359   2.027   5.018   3.088  0.2542  2.8361 -0.2409
 2451TIP3    H2 7360   2.024   5.011   2.936  0.3303 -0.3144 -0.1805
 2452TIP3   OH2 7361   2.613   4.273   2.739 -0.3830 -0.0320  0.5558
 2452TIP3    H1 7362   2.620   4.325   2.820  1.4945  0.9635 -0.1725
 2452TIP3    H2 7363   2.704   4.249   2.718 -0.9755 -1.5086 -0.4970
 2453TIP3   OH2 7364   5.099   2.388   0.731  0.0816 -0.0199 -0.0960
 2453TIP3    H1 7365   5.107   2.361   0.823 -0.3511  1.9610  0.5672
 2453TIP3    H2 7366   5.112   2.307   0.681 -0.4097 -1.2745  1.7188
 2454TIP3   OH2 7367   3.566   1.045   3.237 -0.8338 -0.0057  0.2384
 2454TIP3    H1 7368   3.599   1.116   3.183 -0.8037  0.2275  0.5619
 2454TIP3    H2 7369   3.561   0.970   3.177  1.5090 -0.4147  0.4272
 2455TIP3   OH2 7370   1.533   5.577   0.764 -1.0535 -0.1092 -0.6188
 2455TIP3    H1 7371   1.559   5.561   0.673 -0.7279  2.1177 -0.9625
 2455TIP3    H2 7372   1.616   5.575   0.813 -1.1686 -0.7430 -0.4317
 2456TIP3   OH2 7373   2.167   1.889   1.876  0.0680  0.1684 -0.3792
 2456TIP3    H1 7374   2.126   1.886   1.789 -1.7409 -0.5796  0.4513
 2456TIP3    H2 7375   2.144   1.976   1.910  2.3671  1.2295 -1.3148
 2457TIP3   OH2 7376   4.799   5.650   2.529 -0.2374  0.4358  0.0812
 2457TIP3    H1 7377   4.800   5.736   2.571  0.8779  0.0824  0.8283
 2457TIP3    H2 7378   4.830   5.667   2.440 -2.4165  1.1579 -0.6081
 2458TIP3   OH2 7379   1.243   3.922   4.936  0.1496  0.2027 -0.1613
 2458TIP3    H1 7380   1.172   3.987   4.930  0.4135  0.5027 -0.0763
 2458TIP3    H2 7381   1.205   3.849   4.983 -0.2601  0.1511 -0.5697
 2459TIP3   OH2 7382   2.587   5.067   1.846 -0.2724 -0.0455 -0.6944
 2459TIP3    H1 7383   2.498   5.038   1.869 -0.3688  1.2284  0.7193
 2459TIP3    H2 7384   2.643   5.026   1.912  0.5230 -2.4342 -2.7141
 2460TIP3   OH2 7385   2.962   5.639   3.583 -0.1233 -1.0530 -0.1568
 2460TIP3    H1 7386   2.901   5.598   3.521 -1.8623  2.3135 -0.8875
 2460TIP3    H2 7387   2.946   5.733   3.574  1.9482 -0.2394  3.0472
 2461TIP3   OH2 7388   2.308   5.939   1.602  0.3207 -0.2525  0.2522
 2461TIP3    H1 7389   2.311   5.927   1.508  0.8563 -1.2559  0.3883
 2461TIP3    H2 7390   2.329   6.032   1.615 -0.4137  0.0470 -0.6403
 2462TIP3   OH2 7391   1.596   4.088   0.494  0.8644 -0.0713  0.0981
 2462TIP3    H1 7392   1.559   4.168   0.533  3.3561  0.7592  0.9548
 2462TIP3    H2 7393   1.629   4.116   0.409 -1.5095 -1.1176 -1.2723
 2463TIP3   OH2 7394   2.918   2.450   4.730 -0.2168  0.2419 -0.0458
 2463TIP3    H1 7395   2.936   2.357   4.743 -1.5362  0.1083  1.0460
 2463TIP3    H2 7396   2.962   2.471   4.647  2.0126 -0.7791  0.7881
 2464TIP3   OH2 7397   4.945   4.108   4.580 -0.3015  0.6330 -0.5540
 2464TIP3    H1 7398   5.035   4.118   4.549  0.6001 -1.8090  0.9923
 2464TIP3    H2 7399   4.913   4.029   4.536 -1.1362  0.5894  0.0953
 2465TIP3   OH2 7400   1.314   1.615   3.112  0.2161 -0.2580  0.1080
 2465TIP3    H1 7401   1.317   1.646   3.021  1.3182  0.6095  0.4119
 2465TIP3    H2 7402   1.220   1.606   3.131 -0.0973  1.0916 -0.6264
 2466TIP3   OH2 7403   1.304   4.147   0.315  0.1615  0.1680  0.3572
 2466TIP3    H1 7404   1.231   4.160   0.375  0.6043 -1.0662  1.2216
 2466TIP3    H2 7405   1.325   4.234   0.283 -1.8210  0.5295 -0.0969
 2467TIP3   OH2 7406   4.960   0.309   3.598 -0.0328  0.2877 -0.5686
 2467TIP3    H1 7407   4.888   0.323   3.536 -0.5539 -0.1670 -0.0766
 2467TIP3    H2 7408   4.922   0.328   3.683  0.3661 -0.1895 -0.2821
 2468TIP3   OH2 7409   3.994   5.930   4.293 -0.7107  0.0064  0.0303
 2468TIP3    H1 7410   4.052   5.854   4.298  1.1261  1.0681 -2.9030
 2468TIP3    H2 7411   3.964   5.933   4.202 -0.2457  3.0629 -0.1337
 2469TIP3   OH2 7412   3.135   2.019   4.595 -0.3448 -1.0913  0.1432
 2469TIP3    H1 7413   3.137   2.088   4.529  1.7725  0.1091  1.3686
 2469TIP3    H2 7414   3.057   2.039   4.648  0.9028  1.2069  1.2515
 2470TIP3   OH2 7415   2.512   0.926   5.184  0.4034 -0.4230 -0.4991
 2470TIP3    H1 7416   2.494   0.832   5.177  0.9949 -0.5820  0.0821
 2470TIP3    H2 7417   2.606   0.934   5.165  0.5134 -0.0338  0.1973
 2471TIP3   OH2 7418   4.323   2.003   1.950  0.2637  0.3105  0.0451
 2471TIP3    H1 7419   4.252   1.996   2.014 -1.3146  0.3112 -1.6371
 2471TIP3    H2 7420   4.307   1.932   1.888  1.9515  0.1060 -0.2093
 2472TIP3   OH2 7421   6.365   2.012   1.928  0.1134  0.1805  0.3255
 2472TIP3    H1 7422   6.276   2.042   1.909  0.2625 -0.3513 -1.3580
 2472TIP3    H2 7423   6.354   1.947   1.997 -0.5146  1.8739  1.9238
 2473TIP3   OH2 7424   0.460   1.772   4.448 -0.4372 -0.0365 -0.6768
 2473TIP3    H1 7425   0.445   1.827   4.525 -1.0734  1.7278 -2.0053
 2473TIP3    H2 7426   0.553   1.747   4.455 -0.8011 -1.0366  1.3130
 2474TIP3   OH2 7427   1.594   0.083   2.501  0.2412 -0.1111  0.0185
 2474TIP3    H1 7428   1.581   0.016   2.568  1.0486  1.1876  1.5362
 2474TIP3    H2 7429   1.536   0.155   2.528  0.0544  0.1659 -1.0886
 2475TIP3   OH2 7430   1.895   2.300   1.241 -0.2617  0.0108  0.3509
 2475TIP3    H1 7431   1.845   2.379   1.261 -3.1082 -1.7674  0.8497
 2475TIP3    H2 7432   1.892   2.293   1.146  1.1049  1.0952  0.1940
 2476TIP3   OH2 7433   5.221   3.214   4.349  0.4206 -0.2195 -0.0362
 2476TIP3    H1 7434   5.311   3.182   4.346  0.3122 -0.4401 -1.8027
 2476TIP3    H2 7435   5.169   3.141   4.315 -0.2624  0.4093 -0.3478
 2477TIP3   OH2 7436   5.624   4.611   4.301  0.1316 -0.3078  0.9106
 2477TIP3    H1 7437   5.600   4.522   4.327 -0.7938  0.3305  2.3468
 2477TIP3    H2 7438   5.691   4.637   4.365 -0.2030  0.3157  1.0092
 2478TIP3   OH2 7439   1.228   2.108   1.890 -0.2092 -0.3020 -0.0625
 2478TIP3    H1 7440   1.223   2.018   1.923 -0.4818 -0.9740 -1.8640
 2478TIP3    H2 7441   1.173   2.108   1.812  0.5735  1.1935 -0.6430
 2479TIP3   OH2 7442   4.244   4.373   3.050 -0.1902 -0.2070 -0.8426
 2479TIP3    H1 7443   4.316   4.425   3.014  0.8276 -0.9790  0.0237
 2479TIP3    H2 7444   4.224   4.309   2.982 -0.0578  0.0067 -1.0833
 2480TIP3   OH2 7445   0.158   0.448   2.569  0.2513  0.3739 -0.3008
 2480TIP3    H1 7446   0.139   0.472   2.660  1.0249 -0.6952  0.1619
 2480TIP3    H2 7447   0.157   0.531   2.522  0.8939  1.0774  0.8835
 2481TIP3   OH2 7448   2.119   4.858   3.930  0.1417  0.0185  0.0714
 2481TIP3    H1 7449   2.099   4.775   3.887  1.3939 -0.1900 -0.1453
 2481TIP3    H2 7450   2.112   4.838   4.024 -0.6796 -0.0224  0.0135
 2482TIP3   OH2 7451   6.182   3.175   2.341  0.1961  0.1561 -0.1768
 2482TIP3    H1 7452   6.094   3.156   2.307 -0.2922  0.1990  1.0081
 2482TIP3    H2 7453   6.238   3.177   2.263 -0.8470  0.1120 -0.9525
 2483TIP3   OH2 7454   2.438   0.102   0.569 -0.2365 -0.3686  0.9409
 2483TIP3    H1 7455   2.497   0.043   0.523 -0.7693 -0.1625 -0.0274
 2483TIP3    H2 7456   2.480   0.188   0.563 -0.4964 -0.2680  0.4677
 2484TIP3   OH2 7457   3.986   1.402   2.633 -0.8834 -0.1517  0.6130
 2484TIP3    H1 7458   3.902   1.362   2.653 -1.7477  0.9574 -0.6263
 2484TIP3    H2 7459   3.972   1.449   2.550  0.5780  1.1420  1.0361
 2485TIP3   OH2 7460   3.623   2.727   0.671 -0.0868  0.1122  0.0866
 2485TIP3    H1 7461   3.693   2.759   0.729  1.0511 -1.5946 -0.2544
 2485TIP3    H2 7462   3.584   2.654   0.720 -1.6016  0.9798  0.2248
 2486TIP3   OH2 7463   5.534   0.618   1.983 -0.4954  0.3157 -0.1740
 2486TIP3    H1 7464   5.523   0.630   2.078  1.0518 -1.4699  0.2959
 2486TIP3    H2 7465   5.455   0.573   1.955 -0.3575 -0.4060  0.5593
 2487TIP3   OH2 7466   6.124   1.528   4.591  0.0410 -0.7554  0.2380
 2487TIP3    H1 7467   6.040   1.518   4.636 -0.4111  0.9241 -0.1805
 2487TIP3    H2 7468   6.113   1.605   4.535  1.8746 -0.4721  0.2021
 2488TIP3   OH2 7469   4.042   2.889   2.683  0.4407 -0.0275 -0.2398
 2488TIP3    H1 7470   3.956   2.899   2.724  0.5367  0.8730 -0.2227
 2488TIP3    H2 7471   4.065   2.798   2.696 -0.4069 -0.2187 -0.0288
 2489TIP3   OH2 7472   4.452   0.851   1.457 -0.4032  0.4762 -0.4344
 2489TIP3    H1 7473   4.514   0.858   1.385 -0.7210  1.6545 -0.6053
 2489TIP3    H2 7474   4.384   0.791   1.423  2.0619 -3.4135  0.8556
 2490TIP3   OH2 7475   0.144   1.250   1.951 -0.3798  0.4220  0.3082
 2490TIP3    H1 7476   0.158   1.155   1.944  1.3707  0.7539 -2.2550
 2490TIP3    H2 7477   0.232   1.287   1.949 -1.0554  2.1469  0.7275
 2491TIP3   OH2 7478   5.425   5.031   4.514 -0.0001  0.1930  0.1721
 2491TIP3    H1 7479   5.383   4.989   4.590 -1.1283  1.2826  0.1886
 2491TIP3    H2 7480   5.485   4.964   4.480 -0.7510 -0.9445  0.9786
 2492TIP3   OH2 7481   5.802   3.010   0.099 -0.5719  1.0065 -0.1149
 2492TIP3    H1 7482   5.801   2.968   0.185 -1.4132  1.3783  0.0686
 2492TIP3    H2 7483   5.774   2.941   0.038  0.8169  0.5086 -0.2195
 2493TIP3   OH2 7484   2.887   3.520   3.489  0.3073  0.4249  0.0929
 2493TIP3    H1 7485   2.928   3.555   3.410  0.3813  1.2426  0.4860
 2493TIP3    H2 7486   2.844   3.440   3.460  0.0312  0.9052 -0.8599
 2494TIP3   OH2 7487   6.250   5.278   3.439  0.1307  0.0550  0.1959
 2494TIP3    H1 7488   6.281   5.195   3.476 -1.2222 -0.2609  0.6783
 2494TIP3    H2 7489   6.316   5.342   3.465  1.6279 -1.0035 -0.8980
 2495TIP3   OH2 7490   1.474   5.502   3.025 -0.4553  0.1868 -0.5290
 2495TIP3    H1 7491   1.401   5.460   3.070  2.0495  0.0177  3.8624
 2495TIP3    H2 7492   1.506   5.435   2.964 -1.1340 -1.4766  0.8730
 2496TIP3   OH2 7493   3.392   1.700   0.616 -0.0135  0.0214  0.2647
 2496TIP3    H1 7494   3.471   1.653   0.643  1.2124  0.8977 -1.6051
 2496TIP3    H2 7495   3.343   1.637   0.563  0.6783  0.2106 -0.6278
 2497TIP3   OH2 7496   3.304   3.460   3.898  0.4424 -0.0217 -0.4484
 2497TIP3    H1 7497   3.267   3.506   3.974  0.6753 -0.7884  0.1436
 2497TIP3    H2 7498   3.247   3.385   3.886  0.1771  0.3087 -1.2912
 2498TIP3   OH2 7499   0.215   0.220   0.172 -0.5750  0.0252  0.0541
 2498TIP3    H1 7500   0.180   0.216   0.261 -0.4801 -0.9352  0.0495
 2498TIP3    H2 7501   0.310   0.218   0.183 -0.5479  0.5978 -0.0401
 2499TIP3   OH2 7502   2.605   4.206   4.344  0.0774  0.8397  0.5527
 2499TIP3    H1 7503   2.605   4.258   4.264  0.3010  0.5323  0.3484
 2499TIP3    H2 7504   2.635   4.266   4.412 -0.5674  1.2289  0.4931
 2500TIP3   OH2 7505   4.170   4.406   2.328 -0.3360 -0.7509 -0.0829
 2500TIP3    H1 7506   4.238   4.394   2.262 -0.4308 -4.5632  0.3025
 2500TIP3    H2 7507   4.089   4.417   2.277  0.1399  1.1909 -0.5139
 2501TIP3   OH2 7508   5.461   2.180   3.788 -0.2176  0.4779 -0.4867
 2501TIP3    H1 7509   5.382   2.233   3.782 -0.2994  0.4170  0.0001
 2501TIP3    H2 7510   5.528   2.239   3.821 -0.5428  0.0666  1.0020
 2502TIP3   OH2 7511   3.544   4.684   1.247 -0.1554 -0.2049 -0.5033
 2502TIP3    H1 7512   3.478   4.725   1.191 -0.7346 -0.5181 -0.0495
 2502TIP3    H2 7513   3.594   4.757   1.283  1.1350 -0.0219 -2.5019
 2503TIP3   OH2 7514   5.564   0.350   2.802 -0.2197 -0.3162  0.9528
 2503TIP3    H1 7515   5.624   0.418   2.833 -0.4912 -0.2488  1.3332
 2503TIP3    H2 7516   5.501   0.397   2.747 -1.4844  0.0542  2.6501
 2504TIP3   OH2 7517   3.638   4.179   3.704 -0.1941 -0.4010 -0.4513
 2504TIP3    H1 7518   3.710   4.218   3.754 -1.7026  2.0991 -0.0368
 2504TIP3    H2 7519   3.592   4.124   3.767 -2.3911  3.1199  1.3792
 2505TIP3   OH2 7520   0.452   5.440   4.064  0.3505 -0.8349 -0.0103
 2505TIP3    H1 7521   0.363   5.470   4.080  0.9327  1.3474 -0.5846
 2505TIP3    H2 7522   0.483   5.494   3.991  2.0576 -1.7303  0.0052
 2506TIP3   OH2 7523   2.771   2.917   0.172  0.0087  0.3198  0.4920
 2506TIP3    H1 7524   2.679   2.933   0.153  0.1236  1.7881  1.0633
 2506TIP3    H2 7525   2.797   2.851   0.108 -1.5164 -0.3809  0.5613
 2507TIP3   OH2 7526   4.712   3.709   4.081 -0.2020  0.1214 -0.1671
 2507TIP3    H1 7527   4.728   3.717   4.175  0.6873  0.5521 -0.3434
 2507TIP3    H2 7528   4.799   3.709   4.041 -0.4252 -2.5656 -0.8401
 2508TIP3   OH2 7529   3.382   3.968   4.604  0.2333 -0.2877  0.3622
 2508TIP3    H1 7530   3.414   3.958   4.693  2.1080  2.6369  0.1680
 2508TIP3    H2 7531   3.454   3.937   4.549  0.8396  1.7514 -0.0768
 2509TIP3   OH2 7532   2.352   4.018   1.801  0.2346  0.0887  0.0697
 2509TIP3    H1 7533   2.440   3.995   1.770  0.3555  0.6926 -0.0386
 2509TIP3    H2 7534   2.325   3.942   1.853  1.4083  0.5008  1.3453
 2510TIP3   OH2 7535   3.129   4.656   2.494 -0.0527  0.4613  0.0117
 2510TIP3    H1 7536   3.035   4.654   2.509 -0.1835  2.3669 -0.2774
 2510TIP3    H2 7537   3.144   4.592   2.424 -1.0925  0.0025  0.1956
 2511TIP3   OH2 7538   3.822   4.176   0.372  0.3744 -0.1354 -0.2880
 2511TIP3    H1 7539   3.876   4.105   0.338  1.3592 -0.5393  1.9384
 2511TIP3    H2 7540   3.733   4.138   0.375 -0.0799  0.3774 -3.5050
 2512TIP3   OH2 7541   6.052   3.392   0.950  0.1800 -0.0735  0.1990
 2512TIP3    H1 7542   5.977   3.443   0.980 -0.2579  0.3951 -1.5243
 2512TIP3    H2 7543   6.112   3.389   1.024 -0.6156  1.3772  0.9321
 2513TIP3   OH2 7544   5.553   0.141   4.816  0.8406 -0.2550  0.6920
 2513TIP3    H1 7545   5.501   0.062   4.801 -0.1400  0.3229  0.9691
 2513TIP3    H2 7546   5.540   0.162   4.908  0.9448  0.3380  0.5738
 2514TIP3   OH2 7547   3.261   5.168   1.888 -0.5942 -0.2205 -0.4261
 2514TIP3    H1 7548   3.177   5.129   1.861  0.0819 -0.6263 -2.1235
 2514TIP3    H2 7549   3.314   5.093   1.917 -0.6200 -0.0459  0.0699
 2515TIP3   OH2 7550   2.259   1.241   1.366  0.1958  0.0174  0.2452
 2515TIP3    H1 7551   2.292   1.331   1.368 -0.6954  0.3583  0.0124
 2515TIP3    H2 7552   2.279   1.211   1.277  1.6005 -0.4507  0.7026
 2516TIP3   OH2 7553   0.290   2.331   4.622 -0.1279  0.2831 -0.0067
 2516TIP3    H1 7554   0.357   2.341   4.690  0.2319 -0.1570 -0.2892
 2516TIP3    H2 7555   0.302   2.407   4.565  0.2549  0.1183 -0.1550
 2517TIP3   OH2 7556   6.359   2.579   3.328  0.3351  0.6752 -0.1981
 2517TIP3    H1 7557   6.277   2.628   3.340 -0.2369  0.1587 -1.6887
 2517TIP3    H2 7558   6.363   2.520   3.403 -1.5011 -0.4015 -0.8729
 2518TIP3   OH2 7559   5.127   5.900   3.635 -0.0649  0.2535  0.0159
 2518TIP3    H1 7560   5.163   5.896   3.546 -0.9161  0.1552 -0.3337
 2518TIP3    H2 7561   5.087   5.987   3.641  0.2640  0.3798  0.4163
 2519TIP3   OH2 7562   1.761   5.824   1.813  0.3791 -0.6493 -0.3885
 2519TIP3    H1 7563   1.728   5.802   1.726  1.1547  0.3579 -0.9636
 2519TIP3    H2 7564   1.855   5.837   1.800  0.5284 -0.6148  0.6288
 2520TIP3   OH2 7565   3.446   0.770   1.354  0.1620 -0.0426  0.3934
 2520TIP3    H1 7566   3.352   0.763   1.337  0.0166 -0.8359  1.4280
 2520TIP3    H2 7567   3.484   0.787   1.268 -0.9425  0.5767 -0.0056
 2521TIP3   OH2 7568   4.450   4.391   2.633 -0.0747 -0.8333 -0.0075
 2521TIP3    H1 7569   4.392   4.325   2.595 -0.6273 -0.5657  0.3502
 2521TIP3    H2 7570   4.444   4.466   2.574  1.3371 -1.4444 -0.9645
 2522TIP3   OH2 7571   1.287   3.517   3.036  0.1710  0.2670  0.1515
 2522TIP3    H1 7572   1.281   3.515   2.940  0.4109  0.3500  0.1357
 2522TIP3    H2 7573   1.364   3.570   3.054 -0.6784  1.4644  0.4044
 2523TIP3   OH2 7574   4.185   0.600   4.967  0.1588 -0.0695  0.2022
 2523TIP3    H1 7575   4.145   0.685   4.985  0.5697  0.3530 -0.8012
 2523TIP3    H2 7576   4.211   0.605   4.875  3.1324 -0.0454  0.9261
 2524TIP3   OH2 7577   2.626   5.241   0.022  0.3847  0.1220 -0.3218
 2524TIP3    H1 7578   2.575   5.171  -0.019 -0.3289 -0.2550  1.1162
 2524TIP3    H2 7579   2.631   5.215   0.114  3.1503  0.1949 -0.3934
 2525TIP3   OH2 7580   4.936   5.766   3.359  0.5267 -0.1624  0.5443
 2525TIP3    H1 7581   4.977   5.791   3.277  0.7652  0.9522  0.9888
 2525TIP3    H2 7582   4.870   5.701   3.334 -0.1459  0.9281 -0.6718
 2526TIP3   OH2 7583   5.386   1.501   1.787  0.2777  0.2097 -0.5846
 2526TIP3    H1 7584   5.387   1.409   1.760 -0.0012  0.4465 -1.4153
 2526TIP3    H2 7585   5.318   1.541   1.732  0.7237  1.0155 -0.5532
 2527TIP3   OH2 7586   2.284  -0.011   4.702 -0.6278  0.3098  0.7324
 2527TIP3    H1 7587   2.346   0.062   4.712  1.9965 -1.8238  1.3215
 2527TIP3    H2 7588   2.235  -0.012   4.784 -0.7414  1.4272  0.6921
 2528TIP3   OH2 7589   2.598   0.602   3.762 -0.3729 -0.9688 -0.0518
 2528TIP3    H1 7590   2.620   0.650   3.842 -0.4352 -0.1682 -0.5022
 2528TIP3    H2 7591   2.628   0.513   3.778 -1.5254 -1.1274  1.3608
 2529TIP3   OH2 7592   1.631   3.861   1.293 -0.1204  0.3436  0.5337
 2529TIP3    H1 7593   1.712   3.825   1.255 -1.2016 -1.7187  0.0283
 2529TIP3    H2 7594   1.579   3.888   1.217 -0.5225  0.2395  0.7713
 2530TIP3   OH2 7595   4.190   3.203   2.990 -0.0585  0.6874 -0.1715
 2530TIP3    H1 7596   4.284   3.218   2.996 -0.3877  3.4427 -0.4412
 2530TIP3    H2 7597   4.180   3.108   2.988  2.6741  0.3315  0.1929
 2531TIP3   OH2 7598   5.305   3.300   1.310  0.2460  0.4702 -0.0764
 2531TIP3    H1 7599   5.254   3.314   1.390 -0.6623  0.4869 -0.6420
 2531TIP3    H2 7600   5.293   3.207   1.290 -0.3097  0.6578 -0.6872
 2532TIP3   OH2 7601   0.207   1.359   4.125  0.1140  0.2679  0.8429
 2532TIP3    H1 7602   0.157   1.433   4.091  0.2731  0.3151  0.7066
 2532TIP3    H2 7603   0.263   1.333   4.051 -0.8723 -0.8220  0.4593
 2533TIP3   OH2 7604   1.778   5.295   0.723 -0.3045  0.1526  0.1894
 2533TIP3    H1 7605   1.805   5.206   0.746  2.4712  0.9769  0.4605
 2533TIP3    H2 7606   1.772   5.294   0.627  0.7437 -0.0835  0.1137
 2534TIP3   OH2 7607   1.790   1.317   2.556 -0.6158  0.2590 -0.3791
 2534TIP3    H1 7608   1.708   1.345   2.516 -0.5943  0.1962 -0.4684
 2534TIP3    H2 7609   1.823   1.248   2.498 -0.8366 -0.1909  0.0261
 2535TIP3   OH2 7610   3.207   2.116   4.322  0.4777  0.0871 -0.2956
 2535TIP3    H1 7611   3.269   2.053   4.358 -0.0646 -0.4330 -0.2385
 2535TIP3    H2 7612   3.219   2.195   4.374  0.3314 -0.3665  0.4387
 2536TIP3   OH2 7613   5.715   5.587   0.078 -0.1133  0.7172 -0.0971
 2536TIP3    H1 7614   5.714   5.587   0.173 -1.8965  0.0484 -0.0918
 2536TIP3    H2 7615   5.699   5.496   0.053  1.7883  0.5904 -1.0754
 2537TIP3   OH2 7616   6.304   2.920   1.518 -0.4454 -0.1359  0.6698
 2537TIP3    H1 7617   6.371   2.852   1.511  1.0047  1.4149 -1.7572
 2537TIP3    H2 7618   6.223   2.877   1.489  0.9641 -0.2592 -3.6850
 2538TIP3   OH2 7619   3.120   3.462   4.687 -0.7476 -0.2761 -0.2526
 2538TIP3    H1 7620   3.102   3.554   4.665  1.7377  0.4403  0.3818
 2538TIP3    H2 7621   3.165   3.467   4.772 -0.1797 -2.0383 -0.4177
 2539TIP3   OH2 7622   2.299   3.353   2.596 -0.5467 -0.1907  0.5798
 2539TIP3    H1 7623   2.209   3.382   2.613 -0.6211 -0.1427  0.1243
 2539TIP3    H2 7624   2.323   3.303   2.674 -0.6565  0.5239  1.0795
 2540TIP3   OH2 7625   1.821   5.656   4.932  0.0769  0.2032  0.1251
 2540TIP3    H1 7626   1.746   5.676   4.876  0.2990  0.9548  0.0825
 2540TIP3    H2 7627   1.813   5.717   5.005  0.3779 -0.0491  0.3730
 2541TIP3   OH2 7628   0.019   1.110   4.493  0.7757  0.5973  0.0411
 2541TIP3    H1 7629   0.013   1.036   4.554  0.7259 -1.1138 -1.9139
 2541TIP3    H2 7630   0.092   1.163   4.526  0.7803 -0.2898  1.5371
 2542TIP3   OH2 7631   4.188   4.173   4.206 -0.0524  0.2979  0.1622
 2542TIP3    H1 7632   4.106   4.212   4.235  1.1302  3.4124 -0.3446
 2542TIP3    H2 7633   4.247   4.183   4.281  0.4377 -0.0856 -0.1620
 2543TIP3   OH2 7634   6.152   3.021   4.402  0.2197 -0.1887  0.5061
 2543TIP3    H1 7635   6.214   3.000   4.331 -0.4026 -0.8846  0.1546
 2543TIP3    H2 7636   6.066   3.016   4.361 -0.3518 -2.9614  1.7637
 2544TIP3   OH2 7637   1.079   0.601   2.728 -0.2263 -0.2391  0.3908
 2544TIP3    H1 7638   1.038   0.582   2.812 -1.9698  0.2445 -0.3029
 2544TIP3    H2 7639   1.031   0.677   2.695  0.8600 -0.0160 -0.7591
 2545TIP3   OH2 7640   3.790   1.721   5.004  0.1485 -0.9013 -0.3675
 2545TIP3    H1 7641   3.774   1.639   5.049  1.1683 -1.2322 -0.6024
 2545TIP3    H2 7642   3.743   1.712   4.920 -1.0766 -0.5954  0.2588
 2546TIP3   OH2 7643   2.053   4.842   4.229  0.2667 -0.3066  0.3314
 2546TIP3    H1 7644   2.106   4.921   4.245  1.3690 -1.4904  3.1108
 2546TIP3    H2 7645   2.114   4.770   4.243 -1.3440 -1.6924  0.4171
 2547TIP3   OH2 7646   5.702   4.812   3.653  0.4544  0.4838 -0.0472
 2547TIP3    H1 7647   5.764   4.884   3.649 -0.1053  1.0898  1.4955
 2547TIP3    H2 7648   5.719   4.770   3.738  0.2391 -0.7103 -0.5734
 2548TIP3   OH2 7649   6.025   3.816   4.517  0.0220  0.1570 -0.1858
 2548TIP3    H1 7650   5.945   3.795   4.468 -0.5971  1.3680  0.2602
 2548TIP3    H2 7651   6.086   3.846   4.450  0.6588 -2.1336 -0.7288
 2549TIP3   OH2 7652   2.481   1.425   3.225  0.2393 -0.4078  0.1344
 2549TIP3    H1 7653   2.470   1.470   3.141  2.4848 -3.4422 -1.9822
 2549TIP3    H2 7654   2.547   1.477   3.271 -0.2197  0.7039 -0.4221
 2550TIP3   OH2 7655   4.915   4.792   4.047 -0.3496 -0.3525 -0.1222
 2550TIP3    H1 7656   4.892   4.739   4.124  0.3567 -0.6777 -0.1289
 2550TIP3    H2 7657   5.006   4.815   4.061 -0.2980 -0.1789 -0.7311
 2551TIP3   OH2 7658   3.881   5.100   0.461 -0.2945 -0.1951 -0.4662
 2551TIP3    H1 7659   3.895   5.011   0.430 -2.6904 -0.0763 -2.2234
 2551TIP3    H2 7660   3.800   5.094   0.513  0.8627  0.5614  1.5174
 2552TIP3   OH2 7661   5.142   3.267   1.942 -0.4103  0.3304 -0.6904
 2552TIP3    H1 7662   5.103   3.272   1.854  0.7300  0.8296 -1.1868
 2552TIP3    H2 7663   5.067   3.275   2.001 -1.0888  1.0283 -1.6061
 2553TIP3   OH2 7664   4.455   0.941   2.844  0.3297  0.0281 -0.3197
 2553TIP3    H1 7665   4.490   0.858   2.875 -0.7082 -0.9987 -1.7615
 2553TIP3    H2 7666   4.392   0.967   2.911  1.1316  0.0008  0.4593
 2554TIP3   OH2 7667   4.262   4.920   2.673 -0.2045  0.3749 -0.4389
 2554TIP3    H1 7668   4.312   4.848   2.636  1.0073 -0.5682  2.7164
 2554TIP3    H2 7669   4.175   4.883   2.691  0.2070 -0.1384  0.5516
 2555TIP3   OH2 7670   4.339   4.422   4.843  0.4151  0.2431 -0.4492
 2555TIP3    H1 7671   4.427   4.458   4.831  0.6635 -0.2965 -0.3079
 2555TIP3    H2 7672   4.351   4.327   4.834 -0.2515  0.2083 -1.0066
 2556TIP3   OH2 7673   6.288   1.894   4.173 -0.1780  0.2423 -0.2358
 2556TIP3    H1 7674   6.298   1.812   4.222  0.4106  0.5444  0.1642
 2556TIP3    H2 7675   6.298   1.868   4.081 -0.7487 -0.2470 -0.1615
 2557TIP3   OH2 7676   4.843   5.531   5.091 -0.1139  0.1327 -0.0527
 2557TIP3    H1 7677   4.867   5.440   5.072 -2.1174 -0.2657 -0.9079
 2557TIP3    H2 7678   4.760   5.544   5.046 -0.2882  2.1558  0.7486
 2558TIP3   OH2 7679   2.826   3.397   5.021 -0.6239 -0.2005  0.3074
 2558TIP3    H1 7680   2.815   3.440   4.936 -0.5996  0.5004  0.6510
 2558TIP3    H2 7681   2.912   3.426   5.051  0.3540 -2.1723 -0.3971
 2559TIP3   OH2 7682   0.938   3.569   0.304  0.3155 -0.2457  0.1620
 2559TIP3    H1 7683   0.890   3.497   0.345 -0.3409 -0.3737 -0.7976
 2559TIP3    H2 7684   0.940   3.546   0.211  1.1437  0.3939  0.0151
 2560TIP3   OH2 7685   1.784   4.749   3.984 -0.0556 -0.4943 -0.5017
 2560TIP3    H1 7686   1.857   4.714   4.035 -0.8855  1.8366  2.6385
 2560TIP3    H2 7687   1.720   4.678   3.982  0.3115 -0.9200  1.1798
 2561TIP3   OH2 7688   1.647   4.506   2.480  0.4358 -0.0100 -0.5206
 2561TIP3    H1 7689   1.552   4.507   2.488  0.5538  1.9438  1.3263
 2561TIP3    H2 7690   1.665   4.433   2.420 -2.1275 -1.0861 -0.0922
 2562TIP3   OH2 7691   0.062   2.407   0.406  0.2632 -0.0367 -0.2342
 2562TIP3    H1 7692   0.018   2.450   0.479  1.9355  0.8314  0.2924
 2562TIP3    H2 7693   0.045   2.314   0.419 -1.6505  0.2715 -0.2355
 2563TIP3   OH2 7694   1.961   0.241   2.305 -0.4172 -0.0580 -0.0414
 2563TIP3    H1 7695   1.874   0.220   2.273 -0.2313  0.3247 -0.8258
 2563TIP3    H2 7696   2.018   0.174   2.268 -0.2976 -0.0096  0.0517
 2564TIP3   OH2 7697   6.072   1.869   0.617  0.3700  0.0274 -0.5826
 2564TIP3    H1 7698   5.980   1.878   0.592  0.2041  1.2356  0.3105
 2564TIP3    H2 7699   6.077   1.911   0.703  1.5521 -0.9829 -0.1243
 2565TIP3   OH2 7700   5.929   3.124   1.936 -0.5745 -0.0403  0.1746
 2565TIP3    H1 7701   5.849   3.124   1.990 -2.2884  0.9070 -2.1798
 2565TIP3    H2 7702   5.902   3.085   1.853  1.6974 -0.5350 -0.3981
 2566TIP3   OH2 7703   4.034   3.898   2.804 -0.7130  0.6591 -0.0865
 2566TIP3    H1 7704   4.029   3.807   2.776 -1.2932  0.3411  0.9929
 2566TIP3    H2 7705   4.028   3.949   2.723  1.2366 -0.2766 -0.8743
 2567TIP3   OH2 7706   5.515   1.545   3.495 -0.3457 -0.2765  0.3793
 2567TIP3    H1 7707   5.570   1.567   3.419  0.7440  1.5519  1.6121
 2567TIP3    H2 7708   5.555   1.593   3.568 -1.1994 -2.1813  2.1849
 2568TIP3   OH2 7709   0.635   0.426   3.372 -0.6224 -0.0358 -0.7985
 2568TIP3    H1 7710   0.564   0.483   3.341  0.8677  2.5314  0.1460
 2568TIP3    H2 7711   0.708   0.445   3.313  0.9753  1.8268  1.5714
 2569TIP3   OH2 7712   2.294   1.713   3.715  0.1575 -0.0616  0.5298
 2569TIP3    H1 7713   2.237   1.639   3.737 -1.7602  1.6340  1.5603
 2569TIP3    H2 7714   2.257   1.749   3.634  0.3151  0.5221  0.7123
 2570TIP3   OH2 7715   1.045   0.433   2.223  0.0762  0.2687 -0.0099
 2570TIP3    H1 7716   1.072   0.417   2.313 -0.8622  0.6559  0.3490
 2570TIP3    H2 7717   1.011   0.348   2.193  2.2084 -0.4285 -0.7021
 2571TIP3   OH2 7718   4.594   3.770   4.336 -0.0709 -0.3521  0.3161
 2571TIP3    H1 7719   4.580   3.694   4.392  0.5220 -0.8558 -0.2026
 2571TIP3    H2 7720   4.510   3.815   4.334 -0.0484 -0.1965  1.7911
 2572TIP3   OH2 7721   4.028   5.243   4.990 -0.5623  0.8660  0.0891
 2572TIP3    H1 7722   4.115   5.211   5.017 -0.4786 -0.3146 -1.4670
 2572TIP3    H2 7723   4.045   5.330   4.954 -0.0482  0.7061 -0.0602
 2573TIP3   OH2 7724   0.834   1.535   1.784  0.5716  0.5541 -0.1101
 2573TIP3    H1 7725   0.879   1.547   1.700 -1.9003  2.0688 -1.3474
 2573TIP3    H2 7726   0.820   1.624   1.816 -2.1890  0.2475 -0.2474
 2574TIP3   OH2 7727   1.480   0.542   2.521  0.2088  0.4513 -0.1009
 2574TIP3    H1 7728   1.417   0.613   2.507  1.2200  1.4550  0.3074
 2574TIP3    H2 7729   1.549   0.558   2.457  0.8741  0.3424  0.5770
 2575TIP3   OH2 7730   6.193   2.380   5.150 -0.5815 -0.5397  0.7426
 2575TIP3    H1 7731   6.199   2.457   5.094 -0.1129 -0.8320  0.3756
 2575TIP3    H2 7732   6.105   2.345   5.134 -0.1802 -1.0673 -0.4311
 2576TIP3   OH2 7733   2.330   2.228   4.257  0.6413 -0.2720 -0.0459
 2576TIP3    H1 7734   2.253   2.176   4.279  0.8780 -1.0850 -1.0427
 2576TIP3    H2 7735   2.355   2.270   4.339  0.0246 -1.1846  0.6351
 2577TIP3   OH2 7736   2.438   0.912   1.752  0.5235  0.0831 -0.3950
 2577TIP3    H1 7737   2.388   0.942   1.676  0.5394  3.0085  0.6172
 2577TIP3    H2 7738   2.377   0.921   1.826  1.0518 -1.0069  0.1966
 2578TIP3   OH2 7739   2.986   4.206   0.301  0.2709 -0.5957 -0.3094
 2578TIP3    H1 7740   3.082   4.202   0.304  0.2681 -0.5832 -0.2068
 2578TIP3    H2 7741   2.959   4.197   0.392  0.1857 -0.2745 -0.3019
 2579TIP3   OH2 7742   4.882   3.212   1.156  0.2561 -0.4999 -0.3247
 2579TIP3    H1 7743   4.891   3.305   1.176 -2.3023 -0.2813  0.3046
 2579TIP3    H2 7744   4.820   3.209   1.083  2.3620 -1.6820 -2.1869
 2580TIP3   OH2 7745   5.044   0.480   2.128  0.5156 -0.4224  0.9697
 2580TIP3    H1 7746   5.054   0.575   2.136 -1.8743 -0.1624  1.5811
 2580TIP3    H2 7747   5.005   0.453   2.211  0.0936 -1.7825  0.3607
 2581TIP3   OH2 7748   3.221   4.916   0.037  0.4603 -0.0407  0.1478
 2581TIP3    H1 7749   3.181   4.988  -0.013  0.9688  0.7748  0.9003
 2581TIP3    H2 7750   3.146   4.868   0.072  0.1169  0.2753 -0.1345
 2582TIP3   OH2 7751   0.962   4.983   0.723  0.5256  0.1374  0.1613
 2582TIP3    H1 7752   0.912   4.924   0.666 -1.1167  0.9602  0.6984
 2582TIP3    H2 7753   1.047   4.941   0.731 -0.2186 -1.5754 -0.4092
 2583TIP3   OH2 7754   1.091   5.113   2.906 -0.7447  0.2977  0.3142
 2583TIP3    H1 7755   1.052   5.058   2.838  0.1240 -0.2480  0.2480
 2583TIP3    H2 7756   1.052   5.082   2.988  1.2208 -1.8515  0.5311
 2584TIP3   OH2 7757   2.179   1.248   0.489 -0.3754  0.2501 -0.1393
 2584TIP3    H1 7758   2.126   1.226   0.566  1.1046  0.3591  0.9387
 2584TIP3    H2 7759   2.216   1.334   0.509  2.0277 -0.7886  0.1792
 2585TIP3   OH2 7760   5.690   2.026   1.115 -0.6433  0.5231 -0.1542
 2585TIP3    H1 7761   5.648   1.951   1.073  1.2002 -0.0316 -1.1237
 2585TIP3    H2 7762   5.635   2.100   1.090 -1.3102 -0.2162 -0.9970
 2586TIP3   OH2 7763   3.081   5.402   3.236  0.4784  0.0610  0.6029
 2586TIP3    H1 7764   3.159   5.348   3.243  0.9778  0.6209 -0.3522
 2586TIP3    H2 7765   3.013   5.343   3.204  0.4610 -0.4660  1.6001
 2587TIP3   OH2 7766   1.710   0.663   3.181  0.2133 -0.2020  0.3715
 2587TIP3    H1 7767   1.692   0.724   3.252 -0.9462 -0.0454 -0.0263
 2587TIP3    H2 7768   1.777   0.706   3.128 -0.4523  0.6428  0.2014
 2588TIP3   OH2 7769   0.654   1.455   0.043 -0.3540 -0.5010 -0.7657
 2588TIP3    H1 7770   0.659   1.439   0.137  0.8957  0.8669 -0.5783
 2588TIP3    H2 7771   0.565   1.428   0.019 -0.3739 -1.7749  0.6096
 2589TIP3   OH2 7772   3.507   3.083   1.860  0.5330 -0.0903  0.5790
 2589TIP3    H1 7773   3.565   3.139   1.912  1.6609 -1.8166  1.2640
 2589TIP3    H2 7774   3.565   3.015   1.826 -0.5990 -0.2580 -1.1436
 2590TIP3   OH2 7775   2.661   2.733   1.189  0.6025  0.0481  0.3184
 2590TIP3    H1 7776   2.599   2.782   1.243  1.6477  1.4141  0.3250
 2590TIP3    H2 7777   2.747   2.757   1.223  1.2396  0.1185 -1.2521
 2591TIP3   OH2 7778   1.392   1.448   2.693  0.1402 -0.4829 -0.1502
 2591TIP3    H1 7779   1.453   1.413   2.758 -0.6515 -1.4187  0.1170
 2591TIP3    H2 7780   1.395   1.385   2.621 -2.4551 -2.0936  0.9834
 2592TIP3   OH2 7781   5.229   1.326   4.894 -0.3784  0.1930 -0.3426
 2592TIP3    H1 7782   5.164   1.389   4.925 -0.0006  0.1946  0.4718
 2592TIP3    H2 7783   5.188   1.240   4.907 -0.5019  0.2261 -0.5140
 2593TIP3   OH2 7784   1.186   4.669   3.050  0.7171  0.4159  0.3830
 2593TIP3    H1 7785   1.148   4.667   2.962  0.2139 -0.1457  0.6111
 2593TIP3    H2 7786   1.275   4.700   3.036  0.3840  1.1543 -0.2303
 2594TIP3   OH2 7787   5.410   3.566   4.820  0.2308  0.3096  0.2269
 2594TIP3    H1 7788   5.502   3.558   4.845  0.4363  0.1453 -0.5659
 2594TIP3    H2 7789   5.388   3.658   4.836 -0.2259 -0.1869  2.9334
 2595TIP3   OH2 7790   2.481   3.712   2.486 -0.4403  0.8743  0.0377
 2595TIP3    H1 7791   2.423   3.649   2.445 -1.3860  0.7935  1.4150
 2595TIP3    H2 7792   2.435   3.796   2.479 -0.4646  0.9160  0.5940
 2596TIP3   OH2 7793   5.963   3.084   0.452  0.1771  0.8107 -0.3221
 2596TIP3    H1 7794   5.895   3.137   0.411  0.6736  1.0172 -0.9018
 2596TIP3    H2 7795   6.040   3.141   0.454  0.1147  0.8718  1.0942
 2597TIP3   OH2 7796   3.589   4.166   0.078  0.1682 -0.4520 -0.0183
 2597TIP3    H1 7797   3.516   4.222   0.052  0.6356  0.2026  0.0668
 2597TIP3    H2 7798   3.650   4.225   0.121 -0.1353 -1.3354  1.7078
 2598TIP3   OH2 7799   2.481   4.209   1.376  0.4692  0.3459 -0.1240
 2598TIP3    H1 7800   2.475   4.303   1.362 -0.4801  0.5619  1.4583
 2598TIP3    H2 7801   2.438   4.195   1.461  1.3175 -1.4048  0.0549
 2599TIP3   OH2 7802   2.541   3.043   0.469  0.5321  0.0085 -0.6981
 2599TIP3    H1 7803   2.483   2.975   0.434  1.5110 -1.6557  0.7395
 2599TIP3    H2 7804   2.621   2.997   0.492  1.4800  1.7957 -0.2477
 2600TIP3   OH2 7805   6.073   4.773   1.852 -0.5946 -0.2571 -0.7802
 2600TIP3    H1 7806   6.091   4.681   1.870 -0.0228  0.2380  1.5330
 2600TIP3    H2 7807   6.086   4.782   1.757 -0.4955 -2.4876 -1.0342
 2601TIP3   OH2 7808   5.898   1.856   5.086 -0.4129 -0.2093  0.5459
 2601TIP3    H1 7809   5.925   1.854   4.994  0.3409  1.1173  0.7185
 2601TIP3    H2 7810   5.840   1.780   5.095  0.8216 -1.3630 -0.6116
 2602TIP3   OH2 7811   1.667   4.575   4.321  0.1910 -0.2840  0.0215
 2602TIP3    H1 7812   1.600   4.584   4.253  1.1223  0.8658 -0.7942
 2602TIP3    H2 7813   1.669   4.660   4.364  0.6666 -0.5197  0.4716
 2603TIP3   OH2 7814   2.696   1.792   4.547 -0.4360  0.5077 -0.5616
 2603TIP3    H1 7815   2.609   1.830   4.536 -0.7498 -0.0892 -0.1614
 2603TIP3    H2 7816   2.750   1.835   4.480 -1.1156  0.6381 -1.0271
 2604TIP3   OH2 7817   2.874   3.852   2.950  0.5630 -0.4923 -0.1715
 2604TIP3    H1 7818   2.916   3.911   3.012 -0.9198  0.4848 -0.0596
 2604TIP3    H2 7819   2.836   3.910   2.883  1.0666 -1.4527 -1.3291
 2605TIP3   OH2 7820   6.155   1.381   4.343 -0.2835  0.0131 -0.3582
 2605TIP3    H1 7821   6.129   1.432   4.420  1.4899  0.0674  0.2454
 2605TIP3    H2 7822   6.148   1.290   4.371  1.0820  0.0403  0.1674
 2606TIP3   OH2 7823   6.051   2.408   0.269 -0.2025  0.0185  0.6351
 2606TIP3    H1 7824   6.094   2.340   0.320  0.6183  1.3605  1.8082
 2606TIP3    H2 7825   6.026   2.474   0.334 -0.8496  0.8923 -0.4741
 2607TIP3   OH2 7826   4.089   1.605   4.305 -0.3703  0.5842 -0.2715
 2607TIP3    H1 7827   4.178   1.611   4.339 -0.9344 -0.3566  1.5222
 2607TIP3    H2 7828   4.034   1.602   4.384 -1.9077  0.0857 -1.3235
 2608TIP3   OH2 7829   1.542   5.135   1.140 -0.1392  0.0864  0.2659
 2608TIP3    H1 7830   1.635   5.135   1.114 -0.5552 -0.3839 -1.3586
 2608TIP3    H2 7831   1.514   5.044   1.127 -0.1082 -0.5320  3.6962
 2609TIP3   OH2 7832   2.377   4.893   1.500 -0.2447  0.2900 -0.7199
 2609TIP3    H1 7833   2.375   4.863   1.590 -2.0731 -1.3493 -1.2506
 2609TIP3    H2 7834   2.417   4.821   1.451  1.5279  1.4960 -1.1595
 2610TIP3   OH2 7835   0.156   1.400   3.770 -0.4410  0.3862 -0.3071
 2610TIP3    H1 7836   0.236   1.388   3.822 -1.3094 -1.2607  0.7250
 2610TIP3    H2 7837   0.112   1.474   3.811  0.4351  1.2075 -0.7854
 2611TIP3   OH2 7838   0.460   2.844   3.086 -0.2403  0.4779 -0.7421
 2611TIP3    H1 7839   0.494   2.755   3.077  0.5894  0.8050 -0.9931
 2611TIP3    H2 7840   0.528   2.891   3.135 -1.2222  0.6720  0.4748
 2612TIP3   OH2 7841   6.245   1.705   0.445 -1.0195  0.0271  0.0548
 2612TIP3    H1 7842   6.237   1.624   0.496  0.6859 -0.0240  0.2981
 2612TIP3    H2 7843   6.191   1.769   0.491 -1.2166 -0.5874  0.6816
 2613TIP3   OH2 7844   6.336   2.103   2.973  0.0202 -0.4140 -0.4495
 2613TIP3    H1 7845   6.270   2.153   3.020  0.9872  0.2520  0.2539
 2613TIP3    H2 7846   6.311   2.110   2.881 -0.2809  0.7381 -0.2878
 2614TIP3   OH2 7847   0.233   3.203   2.832 -0.0601  0.3431 -0.1365
 2614TIP3    H1 7848   0.248   3.169   2.920 -0.4513  2.3820  0.7739
 2614TIP3    H2 7849   0.164   3.148   2.796 -0.9069  0.3769  1.3872
 2615TIP3   OH2 7850   1.700   2.605   1.563  0.0882 -0.8096 -0.1870
 2615TIP3    H1 7851   1.673   2.554   1.639  1.4930 -0.9929  0.2175
 2615TIP3    H2 7852   1.625   2.662   1.544 -0.0683 -0.3395  1.6904
 2616TIP3   OH2 7853   2.792   1.025   3.539  1.0819 -0.0347  0.6490
 2616TIP3    H1 7854   2.874   1.074   3.537  1.1857 -0.2481 -0.8845
 2616TIP3    H2 7855   2.724   1.092   3.539  1.2343  0.1276 -0.4287
 2617TIP3   OH2 7856   3.412   2.979   4.931 -0.0574  0.8608 -0.2623
 2617TIP3    H1 7857   3.469   2.930   4.991  0.2762  2.2758  0.6115
 2617TIP3    H2 7858   3.325   2.975   4.970  0.0413  1.2711  0.0005
 2618TIP3   OH2 7859   5.246   2.942   1.970 -0.2345  0.1015 -0.0696
 2618TIP3    H1 7860   5.173   2.971   2.024 -0.1209  0.5586 -0.1566
 2618TIP3    H2 7861   5.231   2.983   1.885 -0.5065 -0.7547 -0.4464
 2619TIP3   OH2 7862   0.040   4.483   0.237  0.1522  0.0239 -0.6409
 2619TIP3    H1 7863   0.092   4.465   0.315  1.0870 -0.5873 -1.3860
 2619TIP3    H2 7864   0.046   4.578   0.226  0.6329  0.0243 -0.3868
 2620TIP3   OH2 7865   5.449   2.023   2.286  0.3299  0.1290  0.2814
 2620TIP3    H1 7866   5.394   1.984   2.218  0.0378  1.3790 -0.2277
 2620TIP3    H2 7867   5.396   2.020   2.365 -0.5075  1.3459 -0.2091
 2621TIP3   OH2 7868   3.164   2.902   3.671 -0.0648 -0.3657  1.0170
 2621TIP3    H1 7869   3.236   2.939   3.619 -0.7066 -0.0390  0.3466
 2621TIP3    H2 7870   3.091   2.963   3.657 -0.8444 -1.3563  0.6779
 2622TIP3   OH2 7871   2.817   1.216   0.673  0.5027  0.4554  0.2289
 2622TIP3    H1 7872   2.788   1.212   0.582  0.7182  0.1268  0.1712
 2622TIP3    H2 7873   2.804   1.307   0.699 -1.0447  0.2253  0.3676
 2623TIP3   OH2 7874   3.739   3.087   1.547 -0.2778  0.3045  0.0305
 2623TIP3    H1 7875   3.656   3.069   1.504 -1.8466  0.1467  2.9096
 2623TIP3    H2 7876   3.730   3.175   1.582  1.7381  1.2202 -1.5170
 2624TIP3   OH2 7877   3.749   5.390   3.895 -0.0411  0.1935  0.1627
 2624TIP3    H1 7878   3.723   5.302   3.866 -2.2553  0.9814 -0.4050
 2624TIP3    H2 7879   3.781   5.433   3.816 -0.9234  0.5422 -0.0236
 2625TIP3   OH2 7880   4.999   1.523   2.796  0.3027  0.0732  0.4791
 2625TIP3    H1 7881   5.003   1.599   2.739 -0.9418 -0.7986 -0.8180
 2625TIP3    H2 7882   5.010   1.559   2.884 -0.5342  1.7942 -0.0738
 2626TIP3   OH2 7883   5.877   2.253   0.810  0.1857 -0.0664  0.9361
 2626TIP3    H1 7884   5.803   2.310   0.788  0.5533 -0.1472 -0.5770
 2626TIP3    H2 7885   5.869   2.239   0.905 -2.6499 -1.3792  0.5889
 2627TIP3   OH2 7886   1.880   5.764   1.234  0.2495  0.0085  0.4477
 2627TIP3    H1 7887   1.963   5.756   1.282 -0.7590 -0.5135  2.1956
 2627TIP3    H2 7888   1.853   5.674   1.217  0.6315  0.1874 -1.2435
 2628TIP3   OH2 7889   4.130   1.609   3.514 -0.4528  0.1771  0.0263
 2628TIP3    H1 7890   4.179   1.529   3.534  0.8951  0.8199 -0.5774
 2628TIP3    H2 7891   4.039   1.586   3.531 -0.0845 -1.4721 -0.0726
 2629TIP3   OH2 7892   2.472   5.575   2.050 -1.4689  0.1169  0.5119
 2629TIP3    H1 7893   2.506   5.494   2.011 -0.7454  0.4458  0.4459
 2629TIP3    H2 7894   2.386   5.585   2.011 -0.9880  0.1344 -0.5853
 2630TIP3   OH2 7895   5.610   1.250   1.552 -0.4339 -0.0255 -0.0041
 2630TIP3    H1 7896   5.616   1.224   1.644 -1.0457  1.5089  0.4971
 2630TIP3    H2 7897   5.663   1.329   1.546 -2.2647  1.2283 -0.4003
 2631TIP3   OH2 7898   3.305   2.147   2.629 -0.2377  0.0471  0.5213
 2631TIP3    H1 7899   3.344   2.235   2.627  0.0553 -0.0579  1.3721
 2631TIP3    H2 7900   3.231   2.156   2.689 -0.2635 -0.2632  0.5333
 2632TIP3   OH2 7901   3.139   1.397   3.697 -0.5164  0.0874 -0.1639
 2632TIP3    H1 7902   3.200   1.456   3.742 -0.1569 -0.0983 -0.4004
 2632TIP3    H2 7903   3.195   1.328   3.662 -0.7891  0.2490 -0.9323
 2633TIP3   OH2 7904   2.004   3.578   1.711 -0.3944  0.4913 -0.7715
 2633TIP3    H1 7905   2.031   3.574   1.619 -1.3951 -0.0988 -1.0632
 2633TIP3    H2 7906   1.928   3.519   1.716 -1.0467  1.3725  0.1860
 2634TIP3   OH2 7907   4.405   5.659   4.514 -0.2115 -0.6491  0.0569
 2634TIP3    H1 7908   4.412   5.747   4.476 -0.7710 -1.3515 -1.7613
 2634TIP3    H2 7909   4.426   5.600   4.442  1.4429 -2.0185  1.5538
 2635TIP3   OH2 7910   2.493   3.125   2.275  0.2461  0.0599 -0.5429
 2635TIP3    H1 7911   2.434   3.107   2.202 -0.9664 -0.9999  0.6570
 2635TIP3    H2 7912   2.468   3.063   2.343  2.5176 -0.1753  0.1744
 2636TIP3   OH2 7913   5.246   3.567   1.257 -0.7920  0.2314 -0.0194
 2636TIP3    H1 7914   5.239   3.579   1.162  1.4398  0.5567 -0.2118
 2636TIP3    H2 7915   5.260   3.472   1.268 -1.2861  0.1606  0.0125
 2637TIP3   OH2 7916   1.298   2.421   0.080  0.2178 -0.1578  0.2554
 2637TIP3    H1 7917   1.216   2.441   0.126  0.7121  1.9580  0.3358
 2637TIP3    H2 7918   1.366   2.454   0.138  0.9693  0.4517 -0.9283
 2638TIP3   OH2 7919   2.402   2.083   2.998  0.3386  0.5990 -0.4811
 2638TIP3    H1 7920   2.332   2.137   2.961 -0.4341 -1.5956 -2.4777
 2638TIP3    H2 7921   2.481   2.111   2.952  0.3333  1.3814 -0.0298
 2639TIP3   OH2 7922   1.838   2.177   3.276  0.6063  0.2780  0.4071
 2639TIP3    H1 7923   1.928   2.151   3.296  1.0467  0.7038 -0.9173
 2639TIP3    H2 7924   1.829   2.264   3.316  0.3371 -0.3117  1.6656
 2640TIP3   OH2 7925   0.368   1.316   1.651 -0.0464 -0.1772  0.4209
 2640TIP3    H1 7926   0.315   1.243   1.618  0.6098 -1.3145  1.8090
 2640TIP3    H2 7927   0.425   1.339   1.578  2.5547 -3.7267  1.0697
 2641TIP3   OH2 7928   0.714   3.724   2.513 -0.0397  0.1015 -0.0797
 2641TIP3    H1 7929   0.720   3.756   2.603 -1.3436 -0.6309  0.2957
 2641TIP3    H2 7930   0.798   3.681   2.497  0.2407  0.3356  0.7523
 2642TIP3   OH2 7931   3.978   1.404   1.882 -0.2610  0.2109 -0.0559
 2642TIP3    H1 7932   4.057   1.383   1.833 -0.0390 -0.1845  0.4722
 2642TIP3    H2 7933   3.918   1.332   1.861 -0.4603  0.4734 -0.3995
 2643TIP3   OH2 7934   1.851   3.674   3.621 -0.0530 -0.1166 -0.3596
 2643TIP3    H1 7935   1.769   3.720   3.637 -0.8778 -1.8205  0.5930
 2643TIP3    H2 7936   1.888   3.660   3.708  0.8468 -0.1145 -0.7264
 2644TIP3   OH2 7937   2.703   4.881   4.817  0.2013  0.6454  0.0022
 2644TIP3    H1 7938   2.678   4.820   4.887  1.4621  0.0228 -0.0438
 2644TIP3    H2 7939   2.725   4.962   4.862  1.1654  0.1964  0.3834
 2645TIP3   OH2 7940   5.903   3.187   2.314 -0.4070  0.3071 -0.1473
 2645TIP3    H1 7941   5.951   3.259   2.275  0.9075 -2.2177 -3.7638
 2645TIP3    H2 7942   5.816   3.190   2.273 -0.9906  0.8309  1.0805
 2646TIP3   OH2 7943   1.847   4.601   1.960  0.8843  0.0463  0.0010
 2646TIP3    H1 7944   1.790   4.676   1.943  0.8974  0.2403  0.7588
 2646TIP3    H2 7945   1.825   4.574   2.049  0.2242 -1.4461 -0.5858
 2647TIP3   OH2 7946   3.448   5.331   3.582  0.2062 -0.4701 -0.6761
 2647TIP3    H1 7947   3.428   5.423   3.567 -1.3492 -0.7324 -0.4333
 2647TIP3    H2 7948   3.419   5.315   3.672  3.9427 -0.3171  0.7240
 2648TIP3   OH2 7949   4.515   0.953   3.266 -0.1056 -0.1496 -0.7645
 2648TIP3    H1 7950   4.484   0.877   3.315 -0.3502 -1.1644 -2.3920
 2648TIP3    H2 7951   4.574   0.998   3.326 -0.3429 -1.3437  0.4210
 2649TIP3   OH2 7952   4.020   5.860   1.795 -0.0510 -0.1399 -0.2082
 2649TIP3    H1 7953   4.115   5.873   1.799 -0.1184  0.2831  0.0300
 2649TIP3    H2 7954   3.983   5.941   1.831 -0.4754 -1.0621  1.5432
 2650TIP3   OH2 7955   3.751   0.584   4.537  0.1336 -0.0999  0.3328
 2650TIP3    H1 7956   3.732   0.495   4.566 -1.1232  0.1987  0.5058
 2650TIP3    H2 7957   3.838   0.603   4.571  0.4905 -1.3243  0.1328
 2651TIP3   OH2 7958   5.645   1.638   0.067  0.2028 -0.2801 -0.3903
 2651TIP3    H1 7959   5.559   1.619   0.031  0.0794 -1.7818  0.5986
 2651TIP3    H2 7960   5.703   1.644  -0.009 -0.5427 -0.5691 -0.9903
 2652TIP3   OH2 7961   0.857   1.777   1.260  0.3961  0.3525 -0.3869
 2652TIP3    H1 7962   0.793   1.840   1.228 -2.4731 -0.6428  2.7704
 2652TIP3    H2 7963   0.923   1.771   1.190 -1.5968  3.3387 -2.7552
 2653TIP3   OH2 7964   2.077   4.823   1.455 -0.4527 -0.6399  0.2470
 2653TIP3    H1 7965   2.133   4.823   1.378 -1.3839 -0.8453 -0.4474
 2653TIP3    H2 7966   2.046   4.914   1.462  1.7843  0.0767  2.0266
 2654TIP3   OH2 7967   3.263   5.526   1.467 -0.4437  0.2495  0.6591
 2654TIP3    H1 7968   3.241   5.434   1.484  0.4665 -0.1292 -0.0714
 2654TIP3    H2 7969   3.179   5.570   1.459 -0.9229 -0.7477 -0.0738
 2655TIP3   OH2 7970   4.038   4.146   2.102 -1.0305 -0.0770  0.1849
 2655TIP3    H1 7971   4.038   4.241   2.115  0.5419 -0.1579  1.0031
 2655TIP3    H2 7972   3.967   4.131   2.040 -0.7900  1.7264 -0.6054
 2656TIP3   OH2 7973   3.741   2.108   1.037 -0.6882 -0.2697  0.4794
 2656TIP3    H1 7974   3.780   2.195   1.049 -0.8335  0.0269 -1.0406
 2656TIP3    H2 7975   3.647   2.123   1.042 -0.7052 -0.3746  0.4713
 2657TIP3   OH2 7976   1.119   5.472   1.050 -0.7504 -0.0347 -0.2227
 2657TIP3    H1 7977   1.161   5.393   1.016 -0.9956  0.3063 -1.3618
 2657TIP3    H2 7978   1.080   5.514   0.973  1.1971  2.3138 -0.0710
 2658TIP3   OH2 7979   0.860   1.776   4.825  0.4451 -0.3381  0.1487
 2658TIP3    H1 7980   0.835   1.694   4.784  0.8667  0.4634 -1.8376
 2658TIP3    H2 7981   0.779   1.828   4.827  0.2776 -0.6104  0.9955
 2659TIP3   OH2 7982   3.156   1.322   2.761  0.8083  0.2627 -1.0532
 2659TIP3    H1 7983   3.184   1.369   2.839 -0.9178  0.6118 -0.6043
 2659TIP3    H2 7984   3.104   1.385   2.711 -1.7720 -1.1371 -0.3091
 2660TIP3   OH2 7985   0.627   5.722   4.980 -0.3020 -0.2094 -0.2550
 2660TIP3    H1 7986   0.666   5.635   4.996  1.3643  0.4464 -0.4980
 2660TIP3    H2 7987   0.648   5.741   4.889 -0.8928  0.3456 -0.2815
 2661TIP3   OH2 7988   1.794   0.971   5.139  0.5946  0.4822  0.7076
 2661TIP3    H1 7989   1.753   1.028   5.073  0.5593  0.8671  1.0594
 2661TIP3    H2 7990   1.721   0.921   5.175  0.7045 -0.2053 -0.0061
 2662TIP3   OH2 7991   5.649   0.794   0.458  0.3992  0.0010 -0.0924
 2662TIP3    H1 7992   5.624   0.881   0.490  1.4447 -0.0723  1.0002
 2662TIP3    H2 7993   5.698   0.811   0.378 -0.4948  0.3287 -0.5827
 2663TIP3   OH2 7994   3.685   4.838   3.175  0.4621 -0.6108  0.6972
 2663TIP3    H1 7995   3.711   4.929   3.165  0.2848 -0.5922  0.3649
 2663TIP3    H2 7996   3.677   4.825   3.269 -0.9476  0.1278  0.7047
 2664TIP3   OH2 7997   5.698   2.116   4.210 -0.1353  0.0295 -0.0524
 2664TIP3    H1 7998   5.662   2.172   4.142 -3.8525 -0.1324  1.5747
 2664TIP3    H2 7999   5.722   2.176   4.280 -2.4126 -0.1801  0.9696
 2665TIP3   OH2 8000   0.408   4.754   0.742 -0.6580  0.6322  0.3227
 2665TIP3    H1 8001   0.317   4.739   0.716 -0.4613  0.0394 -0.0527
 2665TIP3    H2 8002   0.458   4.690   0.692 -0.0711  0.6789  0.8331
 2666TIP3   OH2 8003   0.087   0.187   1.930  0.2044 -0.4252 -0.2178
 2666TIP3    H1 8004   0.001   0.175   1.891 -0.3064  0.4682  0.5921
 2666TIP3    H2 8005   0.077   0.262   1.989  2.0002  0.8567 -1.4415
 2667TIP3   OH2 8006   3.459   5.187   3.124  0.5652  0.8346  0.4127
 2667TIP3    H1 8007   3.402   5.247   3.076  0.9610  1.0754  0.2440
 2667TIP3    H2 8008   3.547   5.220   3.110  0.7233  0.6701  0.9664
 2668TIP3   OH2 8009   5.768   3.440   2.506 -0.2003  0.1604  0.2091
 2668TIP3    H1 8010   5.851   3.393   2.499 -0.2180  0.2980 -1.1022
 2668TIP3    H2 8011   5.736   3.447   2.416 -2.5405 -1.4900  0.8007
 2669TIP3   OH2 8012   4.930   1.457   0.574 -0.2306  0.4064  0.2634
 2669TIP3    H1 8013   4.952   1.457   0.481 -0.5152  0.5759  0.1953
 2669TIP3    H2 8014   5.009   1.425   0.617 -0.1033  0.3112 -0.0376
 2670TIP3   OH2 8015   6.203   4.029   4.311  0.1591  0.3965 -0.3445
 2670TIP3    H1 8016   6.213   3.964   4.242 -0.8127 -0.5803  0.4063
 2670TIP3    H2 8017   6.285   4.026   4.360  0.0367 -0.4481 -0.1745
 2671TIP3   OH2 8018   0.370   4.175   4.834  0.0216  0.0121 -0.7700
 2671TIP3    H1 8019   0.354   4.268   4.850 -0.5975 -0.2842  0.5089
 2671TIP3    H2 8020   0.307   4.151   4.766  0.1439  0.5068 -1.0605
 2672TIP3   OH2 8021   5.210   2.177   2.400  0.4824  0.1079 -0.0942
 2672TIP3    H1 8022   5.266   2.129   2.462  0.4810  0.8640  0.5035
 2672TIP3    H2 8023   5.172   2.248   2.452  1.3882  1.4698 -1.2290
 2673TIP3   OH2 8024   4.288   1.903   0.123 -0.2697 -0.0732  0.3661
 2673TIP3    H1 8025   4.361   1.948   0.166  0.9427 -0.8474 -0.8352
 2673TIP3    H2 8026   4.317   1.890   0.033 -0.9116 -2.5064  0.4405
 2674TIP3   OH2 8027   4.812   0.227   2.007  0.1026  0.1675  0.3224
 2674TIP3    H1 8028   4.745   0.242   2.074 -0.3953  0.6085 -0.2657
 2674TIP3    H2 8029   4.868   0.305   2.011  0.8098 -0.3603  1.0596
 2675TIP3   OH2 8030   2.986   1.610   0.360 -0.1566  0.3754 -0.2297
 2675TIP3    H1 8031   3.036   1.633   0.281 -1.3534  0.3064 -1.0199
 2675TIP3    H2 8032   3.054   1.588   0.425  0.8402 -0.1046 -1.3877
 2676TIP3   OH2 8033   4.352   3.550   2.850  0.1326 -0.1531 -0.4898
 2676TIP3    H1 8034   4.279   3.539   2.789  0.3067 -2.5809 -0.3414
 2676TIP3    H2 8035   4.428   3.519   2.802  1.6307  4.3159 -1.4360
 2677TIP3   OH2 8036   1.789   1.225   1.652 -0.1988 -0.1125  0.1235
 2677TIP3    H1 8037   1.745   1.155   1.604 -2.5509  1.6326 -0.4547
 2677TIP3    H2 8038   1.878   1.194   1.662 -0.4690 -2.0759 -2.3628
 2678TIP3   OH2 8039   1.009   3.119   2.247  0.4746 -0.2092 -0.6495
 2678TIP3    H1 8040   0.969   3.050   2.194 -0.3059 -0.6240  0.4354
 2678TIP3    H2 8041   1.033   3.075   2.329 -2.3050  1.2070  1.1137
 2679TIP3   OH2 8042   1.967   1.611   3.029 -0.1999 -0.0227  0.4228
 2679TIP3    H1 8043   1.991   1.531   3.075 -0.3248  1.0383  2.4173
 2679TIP3    H2 8044   1.908   1.657   3.089 -1.0110  1.0622 -1.1313
 2680TIP3   OH2 8045   2.032   1.530   3.549 -0.0808 -0.3222  0.2606
 2680TIP3    H1 8046   2.092   1.456   3.539  0.6134 -0.1898  2.7971
 2680TIP3    H2 8047   1.946   1.490   3.558 -0.0960 -0.6381 -1.0867
 2681TIP3   OH2 8048   2.545   3.152   3.042  0.2641  0.0877 -0.0202
 2681TIP3    H1 8049   2.606   3.085   3.010  1.4699  0.9322  0.4141
 2681TIP3    H2 8050   2.556   3.151   3.137 -2.5129 -1.6660  0.3923
 2682TIP3   OH2 8051   2.956   3.207   1.655 -0.5091  0.4238 -0.3082
 2682TIP3    H1 8052   2.888   3.208   1.722 -1.5398 -0.6513 -1.2990
 2682TIP3    H2 8053   2.962   3.115   1.628  0.4088  0.7165 -1.1686
 2683TIP3   OH2 8054   2.608   4.514   4.377 -0.2440  0.6367 -0.4611
 2683TIP3    H1 8055   2.538   4.551   4.322 -0.7255  0.7380  0.2127
 2683TIP3    H2 8056   2.666   4.588   4.394 -1.4997  1.2658  1.3442
 2684TIP3   OH2 8057   4.925   5.876   0.830  0.0362  0.3197  0.1667
 2684TIP3    H1 8058   4.866   5.843   0.762  0.8931 -2.1908  0.5166
 2684TIP3    H2 8059   4.921   5.810   0.899  1.3856  1.3392  1.2761
 2685TIP3   OH2 8060   4.371   0.515   0.170  0.0518  0.5070  0.3246
 2685TIP3    H1 8061   4.360   0.566   0.089  0.4809  1.4912  0.8674
 2685TIP3    H2 8062   4.414   0.434   0.142  1.1026  1.2557 -0.3193
 2686TIP3   OH2 8063   5.809   0.821   0.963 -0.2457 -0.4239 -0.0771
 2686TIP3    H1 8064   5.744   0.877   1.004  0.2313 -0.5691  0.8939
 2686TIP3    H2 8065   5.780   0.813   0.872 -0.3256  1.4016 -0.2483
 2687TIP3   OH2 8066   4.677   3.903   1.133 -0.1113  0.6073 -0.0564
 2687TIP3    H1 8067   4.595   3.940   1.102  0.2541  0.0923 -1.7208
 2687TIP3    H2 8068   4.744   3.965   1.104  0.0391  2.1058  3.0223
 2688TIP3   OH2 8069   1.239   3.159   0.475  0.0539 -0.0437 -0.1292
 2688TIP3    H1 8070   1.215   3.251   0.465 -3.0292 -0.5557  1.1685
 2688TIP3    H2 8071   1.334   3.157   0.464  0.2522  3.2844 -0.0467
 2689TIP3   OH2 8072   1.699   2.745   1.885 -0.5105  0.1359 -0.3135
 2689TIP3    H1 8073   1.631   2.681   1.866 -0.5732  0.6009 -1.8029
 2689TIP3    H2 8074   1.716   2.787   1.801  1.1080  0.5263  0.1678
 2690TIP3   OH2 8075   5.903   2.156   3.819  0.2800  0.0925  0.0347
 2690TIP3    H1 8076   5.881   2.067   3.846  0.4824 -0.4531 -1.5092
 2690TIP3    H2 8077   5.977   2.180   3.875  1.1010 -1.2372 -0.4394
 2691TIP3   OH2 8078   4.734   0.421   2.825 -0.2110 -0.0242  0.1323
 2691TIP3    H1 8079   4.803   0.358   2.847  0.4017  0.6776  0.2293
 2691TIP3    H2 8080   4.669   0.411   2.895 -0.5871 -1.2128 -0.3490
 2692TIP3   OH2 8081   4.351   3.015   4.402  0.4423  0.3126  0.0412
 2692TIP3    H1 8082   4.297   3.059   4.468 -0.6760 -0.4348 -0.3375
 2692TIP3    H2 8083   4.288   2.985   4.336  1.4619  0.3769 -0.9800
 2693TIP3   OH2 8084   2.935   4.573   3.236  0.3911  0.0436 -0.0277
 2693TIP3    H1 8085   3.016   4.609   3.200  1.9941 -2.8253  0.3782
 2693TIP3    H2 8086   2.866   4.604   3.176  1.9554  1.4280 -1.2058
 2694TIP3   OH2 8087   5.019   3.052   2.134 -0.2501  0.1094  0.0979
 2694TIP3    H1 8088   4.981   3.031   2.219  1.9525 -0.4881  0.9997
 2694TIP3    H2 8089   5.072   3.131   2.150  1.5350 -0.9520 -0.2350
 2695TIP3   OH2 8090   6.157   5.603   2.384 -0.0115 -0.4200  0.0200
 2695TIP3    H1 8091   6.099   5.643   2.449 -2.6512 -3.0889 -0.4811
 2695TIP3    H2 8092   6.166   5.669   2.316 -2.3163  0.2441  0.2677
 2696TIP3   OH2 8093   4.540   3.087   2.444 -0.1541 -0.8205 -0.2394
 2696TIP3    H1 8094   4.529   3.007   2.392 -4.3631 -0.0864 -0.8754
 2696TIP3    H2 8095   4.458   3.095   2.493  1.1443  1.8431  1.7440
 2697TIP3   OH2 8096   3.348   3.270   4.689  0.3161 -0.2154 -0.4755
 2697TIP3    H1 8097   3.319   3.291   4.600  1.7180  2.6021 -0.3661
 2697TIP3    H2 8098   3.267   3.267   4.740 -0.3559 -0.0984 -1.5024
 2698TIP3   OH2 8099   3.517   0.488   3.001 -0.1263 -0.4326  1.0211
 2698TIP3    H1 8100   3.433   0.513   2.964  0.6803  0.1251 -0.5198
 2698TIP3    H2 8101   3.581   0.512   2.934  1.4095  0.5179  2.7418
 2699TIP3   OH2 8102   6.177   0.312   3.686  0.1502 -0.0682 -0.0230
 2699TIP3    H1 8103   6.114   0.383   3.673 -0.5284 -0.8175 -0.9353
 2699TIP3    H2 8104   6.260   0.356   3.703 -0.5694  0.9450  1.0726
 2700TIP3   OH2 8105   2.481   5.201   4.459 -0.1492 -0.5362 -0.5260
 2700TIP3    H1 8106   2.575   5.187   4.448 -0.3586 -0.2002 -3.3618
 2700TIP3    H2 8107   2.449   5.119   4.496  1.1290 -0.9196 -0.2199
 2701TIP3   OH2 8108   2.877   4.279   2.646  0.3309 -0.2902 -0.4637
 2701TIP3    H1 8109   2.925   4.359   2.666  1.1945 -0.9409  0.0981
 2701TIP3    H2 8110   2.940   4.223   2.600 -0.1852 -0.7517 -0.6290
 2702TIP3   OH2 8111   5.267   2.880   0.835 -0.2966 -0.1339 -0.1547
 2702TIP3    H1 8112   5.256   2.786   0.824 -0.4788 -0.2643  1.0065
 2702TIP3    H2 8113   5.178   2.912   0.852 -0.0850  0.0682  0.6172
 2703TIP3   OH2 8114   5.239   4.931   1.741  0.1842  0.4470  0.1144
 2703TIP3    H1 8115   5.271   4.953   1.653  0.6543 -1.8909 -0.3720
 2703TIP3    H2 8116   5.316   4.898   1.787 -0.0697  1.6215  1.4244
 2704TIP3   OH2 8117   3.320   5.138   4.674 -0.3158 -0.4079  0.4518
 2704TIP3    H1 8118   3.330   5.197   4.600 -1.6550 -0.7167 -0.0056
 2704TIP3    H2 8119   3.403   5.090   4.678 -0.2779 -0.5052 -0.9648
 2705TIP3   OH2 8120   3.779   2.542   4.945 -0.4894  0.6292  0.0259
 2705TIP3    H1 8121   3.732   2.621   4.971  0.5084  1.4574 -0.6274
 2705TIP3    H2 8122   3.850   2.533   5.009 -0.6980  0.1466  0.2016
 2706TIP3   OH2 8123   0.756   2.919   0.011  0.0836 -0.2428  0.1804
 2706TIP3    H1 8124   0.748   2.995   0.069  0.7047 -0.2609  0.3046
 2706TIP3    H2 8125   0.841   2.881   0.035  1.3296  0.8984 -2.1251
 2707TIP3   OH2 8126   6.009   0.949   3.960 -0.5589 -0.2657 -0.0262
 2707TIP3    H1 8127   6.078   1.013   3.975 -0.9473 -0.0527  0.9570
 2707TIP3    H2 8128   5.941   0.997   3.912 -0.8698  0.0894  0.7521
 2708TIP3   OH2 8129   3.740   4.556   4.712 -0.0418 -0.0986  0.0930
 2708TIP3    H1 8130   3.761   4.639   4.755 -0.4217  0.1510 -0.1926
 2708TIP3    H2 8131   3.652   4.534   4.743  0.8396 -1.4763  1.8069
 2709TIP3   OH2 8132   2.027   0.853   1.265  0.3403 -0.1336  0.0704
 2709TIP3    H1 8133   1.998   0.938   1.297 -0.3130 -0.3304  0.0101
 2709TIP3    H2 8134   1.998   0.849   1.174  1.3820  0.0432 -0.2866
 2710TIP3   OH2 8135   3.734   1.045   2.459 -0.6199 -0.2255 -0.4312
 2710TIP3    H1 8136   3.783   0.978   2.411 -0.4195  1.2950 -2.5171
 2710TIP3    H2 8137   3.673   1.081   2.394 -1.7964  0.5735  1.0507
 2711TIP3   OH2 8138   0.449   0.416   0.845 -0.9482  0.3129 -0.0070
 2711TIP3    H1 8139   0.513   0.377   0.905 -1.5544  1.0046  1.1128
 2711TIP3    H2 8140   0.379   0.350   0.839  0.2724 -0.9173 -2.0594
 2712TIP3   OH2 8141   0.839   0.363   2.623  0.8914 -0.6395 -0.2070
 2712TIP3    H1 8142   0.787   0.443   2.627  0.4337 -0.9188 -0.5052
 2712TIP3    H2 8143   0.869   0.349   2.713  0.1467 -0.6753  0.0394
 2713TIP3   OH2 8144   1.538   5.407   4.187  0.5562  0.0202  0.4214
 2713TIP3    H1 8145   1.501   5.325   4.155 -0.0061  0.1711  0.6739
 2713TIP3    H2 8146   1.622   5.415   4.142 -0.7762  0.9368 -2.1487
 2714TIP3   OH2 8147   0.331   4.168   1.729  0.0746 -1.0403 -0.7722
 2714TIP3    H1 8148   0.237   4.155   1.724 -0.0742 -0.0423 -0.7725
 2714TIP3    H2 8149   0.344   4.227   1.802  0.6653 -0.8425 -1.0255
 2715TIP3   OH2 8150   3.135   5.899   1.491 -0.0115 -0.2199 -0.1800
 2715TIP3    H1 8151   3.208   5.850   1.452  1.4961  1.2646  0.6537
 2715TIP3    H2 8152   3.130   5.979   1.439  0.2883  0.5823  0.9998
 2716TIP3   OH2 8153   3.902   4.779   4.704 -0.4230 -0.0443  0.6376
 2716TIP3    H1 8154   3.919   4.865   4.741 -3.5576  0.6684  0.6664
 2716TIP3    H2 8155   3.957   4.719   4.755 -1.3682  1.4348  3.5888
 2717TIP3   OH2 8156   6.000   2.366   4.294  0.4916 -0.1213 -0.1262
 2717TIP3    H1 8157   5.939   2.342   4.365  0.4052 -0.8399 -0.4341
 2717TIP3    H2 8158   5.943   2.395   4.223  0.4057 -2.0376 -0.8878
 2718TIP3   OH2 8159   0.869   1.991   2.929  0.1560 -0.3375 -0.2262
 2718TIP3    H1 8160   0.918   1.915   2.958 -0.1047  0.0726  1.3550
 2718TIP3    H2 8161   0.926   2.033   2.864  0.7801 -1.2473 -0.2820
 2719TIP3   OH2 8162   4.389   1.760   4.617  0.1340 -0.1038 -0.3586
 2719TIP3    H1 8163   4.361   1.828   4.677  1.8130  1.5774 -1.3717
 2719TIP3    H2 8164   4.483   1.752   4.631 -0.0040 -2.2400 -0.2943
 2720TIP3   OH2 8165   2.279   4.027   3.684 -0.2797 -0.2338  0.4617
 2720TIP3    H1 8166   2.310   4.102   3.632  0.7827 -0.9850 -0.0277
 2720TIP3    H2 8167   2.207   4.062   3.736  0.7180  1.3359  0.8536
 2721TIP3   OH2 8168   2.765   4.087   4.630  0.2566  0.3825 -0.1764
 2721TIP3    H1 8169   2.736   4.172   4.597 -0.0674  0.3149 -0.0687
 2721TIP3    H2 8170   2.738   4.086   4.722  2.8513  1.3528  0.6804
 2722TIP3   OH2 8171   5.385   2.140   5.040  1.0425  0.5871  0.6044
 2722TIP3    H1 8172   5.433   2.219   5.016  1.7113 -0.6100 -2.4843
 2722TIP3    H2 8173   5.329   2.122   4.964  0.1696 -1.3322  1.6387
 2723TIP3   OH2 8174   3.075   1.292   5.118 -0.0495  0.0820 -0.0913
 2723TIP3    H1 8175   3.119   1.231   5.177 -1.9150 -0.0707  1.2353
 2723TIP3    H2 8176   3.040   1.360   5.175  0.2565  1.3209 -1.3259
 2724TIP3   OH2 8177   1.501   4.641   4.095  0.2218  0.0354  0.4377
 2724TIP3    H1 8178   1.556   4.596   4.031  3.0982 -0.0210  2.7392
 2724TIP3    H2 8179   1.468   4.717   4.049 -0.0289 -1.3685 -1.8452
 2725TIP3   OH2 8180   0.199   2.032   2.765  0.2061 -0.8147  0.4696
 2725TIP3    H1 8181   0.154   2.026   2.850  0.4515  0.1023  0.6752
 2725TIP3    H2 8182   0.252   1.952   2.761  1.1390 -0.2983  1.7464
 2726TIP3   OH2 8183   2.662   0.326   3.806 -0.2062 -0.2076  0.3497
 2726TIP3    H1 8184   2.606   0.249   3.822  0.1052 -0.7400 -1.0275
 2726TIP3    H2 8185   2.717   0.332   3.885 -1.0728 -0.6428  1.0105
 2727TIP3   OH2 8186   6.083   5.071   3.258  0.2311  0.1656 -1.0787
 2727TIP3    H1 8187   6.101   5.149   3.310 -0.1133  0.6040 -1.5981
 2727TIP3    H2 8188   6.058   5.004   3.322 -0.6557  0.8279 -0.7056
 2728TIP3   OH2 8189   1.361   0.042   1.536  0.3811 -0.4364  0.2659
 2728TIP3    H1 8190   1.398   0.129   1.554  1.5419 -1.1088  1.2661
 2728TIP3    H2 8191   1.280   0.041   1.587 -1.1421  1.0593 -1.9650
 2729TIP3   OH2 8192   6.068   1.869   3.745 -0.4305 -0.0598  0.0296
 2729TIP3    H1 8193   6.101   1.883   3.657 -0.5415 -0.6055 -0.1029
 2729TIP3    H2 8194   6.042   1.777   3.747  0.1305 -0.2137  0.8147
 2730TIP3   OH2 8195   2.111   0.445   4.118  0.7992 -0.2817  0.3735
 2730TIP3    H1 8196   2.144   0.368   4.164  1.0670 -0.5174 -0.1930
 2730TIP3    H2 8197   2.169   0.453   4.042  0.4985  0.2200  0.1930
 2731TIP3   OH2 8198   4.009   0.580   2.361 -0.3710 -0.3180  0.0158
 2731TIP3    H1 8199   4.041   0.512   2.300  0.3115  0.7241 -0.8216
 2731TIP3    H2 8200   4.088   0.611   2.405 -0.5639  0.5204 -0.2238
 2732TIP3   OH2 8201   2.308   5.318   3.809  0.0826 -0.0411  0.6295
 2732TIP3    H1 8202   2.326   5.224   3.806 -0.5846 -0.1915  1.0826
 2732TIP3    H2 8203   2.323   5.348   3.719  0.7478 -0.4889  0.5804
 2733TIP3   OH2 8204   5.505   2.238   0.999 -0.8837  0.1069 -0.2436
 2733TIP3    H1 8205   5.414   2.258   0.974 -0.7605 -0.3483 -1.0946
 2733TIP3    H2 8206   5.556   2.308   0.957 -0.7361 -0.3088 -0.7734
 2734TIP3   OH2 8207   3.144   0.436   2.509 -0.2422  0.5505  0.3189
 2734TIP3    H1 8208   3.056   0.456   2.540 -0.7770  0.2143 -0.9287
 2734TIP3    H2 8209   3.131   0.382   2.431  1.0605  0.6487  0.0027
 2735TIP3   OH2 8210   4.530   2.686   2.280 -0.6254  0.0419 -0.0297
 2735TIP3    H1 8211   4.575   2.694   2.364 -2.6650  0.2065  1.1152
 2735TIP3    H2 8212   4.529   2.592   2.263  1.5128  0.1312 -0.9107
 2736TIP3   OH2 8213   1.106   3.587   4.846  0.1398 -0.1284  0.6793
 2736TIP3    H1 8214   1.184   3.539   4.820  0.1763  0.2363  0.0898
 2736TIP3    H2 8215   1.035   3.524   4.840  0.1468 -0.0580 -0.3341
 2737TIP3   OH2 8216   6.251   0.434   1.630  0.4531 -0.1036 -0.2457
 2737TIP3    H1 8217   6.169   0.465   1.592 -0.7865 -2.0823  0.6445
 2737TIP3    H2 8218   6.314   0.504   1.613 -1.5548  1.7511 -0.3970
 2738TIP3   OH2 8219   5.221   5.496   0.152  0.9029  0.1560 -0.3328
 2738TIP3    H1 8220   5.239   5.502   0.059 -0.1136  1.9739 -0.4624
 2738TIP3    H2 8221   5.174   5.577   0.173  1.0132 -0.2463  1.7358
 2739TIP3   OH2 8222   3.689   0.696   0.654  0.0239 -0.0941 -0.6441
 2739TIP3    H1 8223   3.633   0.618   0.654  0.0710 -0.1282 -0.6149
 2739TIP3    H2 8224   3.666   0.743   0.734  0.7165 -0.6000 -0.1341
 2740TIP3   OH2 8225   0.106   1.062   4.198  0.1633  0.7510 -0.1678
 2740TIP3    H1 8226   0.058   1.087   4.276 -1.1313  0.1940 -0.7515
 2740TIP3    H2 8227   0.156   1.140   4.174 -1.2894  1.7342 -0.1291
 2741TIP3   OH2 8228   5.689   2.669   1.874 -0.3553  0.0254 -0.2318
 2741TIP3    H1 8229   5.736   2.725   1.935  2.4300 -2.8421  0.5340
 2741TIP3    H2 8230   5.644   2.605   1.929  0.2945 -1.2164 -1.0965
 2742TIP3   OH2 8231   4.608   3.630   0.752  0.3123 -0.2444 -0.2830
 2742TIP3    H1 8232   4.665   3.707   0.754 -0.0730  0.0406  0.0863
 2742TIP3    H2 8233   4.611   3.599   0.662 -0.1835  0.7010 -0.6382
 2743TIP3   OH2 8234   1.684   0.498   1.322  0.4980  0.4474 -0.1285
 2743TIP3    H1 8235   1.596   0.460   1.321  0.1098  1.3149 -0.9857
 2743TIP3    H2 8236   1.731   0.452   1.253  0.1548  1.1958 -0.8829
 2744TIP3   OH2 8237   3.348   5.465   4.687  0.7765  0.0143  0.3500
 2744TIP3    H1 8238   3.381   5.436   4.772 -0.5068 -0.7186  0.6289
 2744TIP3    H2 8239   3.258   5.493   4.706 -0.1594 -1.8463 -1.0619
 2745TIP3   OH2 8240   1.349   0.422   1.430 -0.3506 -0.5663  0.0226
 2745TIP3    H1 8241   1.389   0.372   1.500 -2.1382 -0.2477  1.3388
 2745TIP3    H2 8242   1.262   0.385   1.420 -0.5229  0.1217 -1.2789
 2746TIP3   OH2 8243   4.096   2.270   1.508 -0.5035  0.3927 -0.3305
 2746TIP3    H1 8244   4.071   2.294   1.598 -0.3941  1.3949 -0.5532
 2746TIP3    H2 8245   4.017   2.232   1.470 -0.7839  0.6931 -0.0538
 2747TIP3   OH2 8246   6.122   0.900   1.250 -0.5583 -0.0902 -0.4354
 2747TIP3    H1 8247   6.083   0.971   1.199  1.7771  0.1504 -2.0582
 2747TIP3    H2 8248   6.123   0.933   1.340 -2.8651  0.3513 -0.5240
 2748TIP3   OH2 8249   3.754   4.765   1.423 -0.3907 -0.2389 -0.2514
 2748TIP3    H1 8250   3.811   4.705   1.375 -0.2733 -0.5473  0.2714
 2748TIP3    H2 8251   3.753   4.845   1.370 -0.6534 -0.7373 -1.0215
 2749TIP3   OH2 8252   4.408   1.299   1.529  0.5946 -0.3472 -0.2946
 2749TIP3    H1 8253   4.460   1.223   1.554  0.0816 -0.3747  0.7351
 2749TIP3    H2 8254   4.336   1.301   1.592 -0.9293 -0.5826 -1.9570
 2750TIP3   OH2 8255   4.484   1.771   0.524 -0.0716  0.5735 -0.0247
 2750TIP3    H1 8256   4.469   1.694   0.580 -0.4060  0.3955 -0.3514
 2750TIP3    H2 8257   4.399   1.816   0.522  0.3527  1.4429  0.8793
 2751TIP3   OH2 8258   2.842   2.484   4.340 -0.6532 -0.4361  0.2515
 2751TIP3    H1 8259   2.814   2.576   4.338 -1.7401 -0.7644 -0.1024
 2751TIP3    H2 8260   2.842   2.457   4.248 -2.0984 -1.2951  0.4765
 2752TIP3   OH2 8261   5.337   0.913   1.680  0.3753  0.0196 -0.3142
 2752TIP3    H1 8262   5.356   0.959   1.762  0.1345  1.9987 -1.3212
 2752TIP3    H2 8263   5.260   0.860   1.701 -0.6130  1.6512  0.3720
 2753TIP3   OH2 8264   1.841   1.802   5.066 -0.2039  0.0246  0.4086
 2753TIP3    H1 8265   1.772   1.776   5.006  0.9472 -0.1108 -0.9026
 2753TIP3    H2 8266   1.846   1.731   5.130 -0.4663 -0.5379 -0.1932
 2754TIP3   OH2 8267   5.087   0.568   4.035  0.3502  0.1788  0.0980
 2754TIP3    H1 8268   5.004   0.616   4.030 -0.1761 -0.6380  0.5855
 2754TIP3    H2 8269   5.106   0.543   3.944  0.2405  0.6705 -0.0589
 2755TIP3   OH2 8270   6.076   1.487   1.443 -0.3063  0.1110  0.1243
 2755TIP3    H1 8271   6.156   1.472   1.394 -0.1372  1.2424  0.0180
 2755TIP3    H2 8272   6.023   1.543   1.385 -0.4321  0.8030  0.8911
 2756TIP3   OH2 8273   1.347   3.994   3.114 -0.0309  0.2093 -0.4621
 2756TIP3    H1 8274   1.332   3.928   3.182  0.0207 -1.0875 -1.6814
 2756TIP3    H2 8275   1.276   4.058   3.127 -1.1688 -1.0320 -0.3715
 2757TIP3   OH2 8276   4.067   1.169   1.170  0.6823  0.1993  0.3138
 2757TIP3    H1 8277   4.068   1.259   1.137  0.7169 -0.0360 -0.3449
 2757TIP3    H2 8278   3.980   1.158   1.209  0.5130  0.3733 -0.0163
 2758TIP3   OH2 8279   5.760   0.283   3.649  0.1453 -0.6338 -0.2151
 2758TIP3    H1 8280   5.776   0.332   3.730 -1.2222 -2.6143  1.3413
 2758TIP3    H2 8281   5.665   0.279   3.642  0.1911 -3.3159 -0.0692
 2759TIP3   OH2 8282   2.432   2.547   1.953 -0.4686  0.7105 -0.0409
 2759TIP3    H1 8283   2.342   2.543   1.919 -0.5127  1.3755 -0.0082
 2759TIP3    H2 8284   2.457   2.455   1.964 -2.3897  0.4386  3.2977
 2760TIP3   OH2 8285   5.663   0.913   4.166  0.0441 -0.2549 -0.0386
 2760TIP3    H1 8286   5.685   1.005   4.152  2.0993 -0.7523 -0.4583
 2760TIP3    H2 8287   5.685   0.897   4.258  0.4703 -0.5150 -0.1842
 2761TIP3   OH2 8288   2.667   0.434   1.295 -0.0814 -0.0143  0.7699
 2761TIP3    H1 8289   2.581   0.426   1.337 -1.0658  1.1272 -0.9360
 2761TIP3    H2 8290   2.703   0.516   1.329  0.1908 -0.3069  1.2008
 2762TIP3   OH2 8291   5.466   1.062   2.828  0.0989 -0.0014  0.0602
 2762TIP3    H1 8292   5.426   1.070   2.914 -0.7284 -0.1097 -0.3029
 2762TIP3    H2 8293   5.556   1.035   2.845  0.0221  0.2499  0.8943
 2763TIP3   OH2 8294   1.272   1.186   4.922  0.1993  0.7860  0.2532
 2763TIP3    H1 8295   1.202   1.182   4.987  0.8735 -0.1840  0.9479
 2763TIP3    H2 8296   1.295   1.279   4.918 -1.2221  1.1484 -0.1139
 2764TIP3   OH2 8297   3.559   4.256   0.939  0.1243 -0.1166  0.6510
 2764TIP3    H1 8298   3.651   4.261   0.964  1.1541 -1.5848 -2.3656
 2764TIP3    H2 8299   3.559   4.262   0.844 -2.9252 -0.3596  0.5186
 2765TIP3   OH2 8300   3.852   2.304   4.786 -0.2388  0.4093  0.8179
 2765TIP3    H1 8301   3.803   2.378   4.822 -0.4634  0.1163  1.1168
 2765TIP3    H2 8302   3.790   2.260   4.728  0.7685  2.1987 -1.8076
 2766TIP3   OH2 8303   1.243   5.902   1.166  0.0707  0.2957 -0.6475
 2766TIP3    H1 8304   1.282   5.930   1.249  0.1868  0.3546 -0.7209
 2766TIP3    H2 8305   1.151   5.888   1.186 -0.0506  0.9993 -0.6654
 2767TIP3   OH2 8306   3.297   4.354   3.234 -0.0625 -0.4138 -0.7127
 2767TIP3    H1 8307   3.328   4.444   3.250 -0.8843 -0.0841 -0.8909
 2767TIP3    H2 8308   3.371   4.299   3.256  0.2906  0.2855 -0.0957
 2768TIP3   OH2 8309   2.156   5.648   1.216  0.5042 -0.4861  0.2957
 2768TIP3    H1 8310   2.250   5.632   1.206  0.5256  0.4432 -1.2855
 2768TIP3    H2 8311   2.114   5.574   1.172  0.5826  0.9417 -2.4405
 2769TIP3   OH2 8312   3.864   3.318   2.824  0.0770 -0.2014  0.2088
 2769TIP3    H1 8313   3.917   3.245   2.793  0.8511 -0.2106  1.4730
 2769TIP3    H2 8314   3.910   3.350   2.902 -0.0473  1.8664 -0.5008
 2770TIP3   OH2 8315   0.330   5.265   1.832  0.1752 -0.0304 -0.1597
 2770TIP3    H1 8316   0.242   5.304   1.828  0.0523 -0.3043 -0.1630
 2770TIP3    H2 8317   0.324   5.201   1.903  0.7854  0.9644  0.8091
 2771TIP3   OH2 8318   3.862   0.906   4.159  0.0923  0.3025  0.1855
 2771TIP3    H1 8319   3.813   0.979   4.197  0.5843  0.0569  1.3011
 2771TIP3    H2 8320   3.834   0.829   4.209  1.5906  0.1509  0.8354
 2772TIP3   OH2 8321   5.960   2.204   5.080 -0.4261 -0.1356 -0.0962
 2772TIP3    H1 8322   6.039   2.155   5.058 -0.1007  0.0322  0.6906
 2772TIP3    H2 8323   5.944   2.185   5.172 -0.6249  0.7770  0.0670
 2773TIP3   OH2 8324   5.968   5.209   0.797 -0.4564  0.3279 -0.5741
 2773TIP3    H1 8325   6.043   5.262   0.824 -0.8503 -0.0458  1.3843
 2773TIP3    H2 8326   5.961   5.224   0.703 -0.2173  3.3373 -0.2129
 2774TIP3   OH2 8327   0.205   5.837   1.527  0.0675 -0.4196  0.1353
 2774TIP3    H1 8328   0.122   5.881   1.510  0.2498 -0.6104 -1.4158
 2774TIP3    H2 8329   0.272   5.901   1.503  0.3770 -0.3666  1.1047
 2775TIP3   OH2 8330   2.376   1.506   4.172  0.1108  0.4669 -0.7120
 2775TIP3    H1 8331   2.335   1.444   4.111 -1.1180  1.6690 -1.1625
 2775TIP3    H2 8332   2.384   1.588   4.122  2.5244  0.4947 -0.4274
 2776TIP3   OH2 8333   1.087   1.625   4.230 -0.4731 -1.2105  0.2866
 2776TIP3    H1 8334   1.023   1.587   4.170 -0.6990 -0.1287 -0.1988
 2776TIP3    H2 8335   1.163   1.645   4.174 -0.9379  0.4238  0.1859
 2777TIP3   OH2 8336   1.427   4.484   4.488 -0.1134  0.2393 -0.4095
 2777TIP3    H1 8337   1.475   4.536   4.552 -1.5353  1.5829 -0.3854
 2777TIP3    H2 8338   1.392   4.410   4.538 -0.0266  0.5178  0.0670
 2778TIP3   OH2 8339   0.124   4.560   1.181  0.7382  0.6995 -0.3081
 2778TIP3    H1 8340   0.099   4.478   1.139 -1.3224 -0.6598  3.1096
 2778TIP3    H2 8341   0.219   4.564   1.171  0.7571 -1.4675 -1.6727
 2779TIP3   OH2 8342   2.551   2.132   0.671  0.1295 -0.1373 -0.1254
 2779TIP3    H1 8343   2.591   2.045   0.668  0.3072 -0.0784  0.3743
 2779TIP3    H2 8344   2.459   2.115   0.691 -0.0365 -0.2547 -0.9504
 2780TIP3   OH2 8345   2.745   3.588   2.390  0.3893  0.0768 -0.4953
 2780TIP3    H1 8346   2.682   3.656   2.415  0.0367 -0.8208  1.2406
 2780TIP3    H2 8347   2.700   3.505   2.410  1.4418 -0.6326 -0.9604
 2781TIP3   OH2 8348   1.729   5.659   3.969  0.2085  0.1633  0.3177
 2781TIP3    H1 8349   1.740   5.664   3.874 -0.7099 -0.3112  0.1745
 2781TIP3    H2 8350   1.724   5.751   3.998  1.8434  0.3452  0.0982
 2782TIP3   OH2 8351   2.152   3.016   0.337  0.1886  0.3749 -0.2904
 2782TIP3    H1 8352   2.223   2.961   0.305  1.0337  1.4376 -0.2929
 2782TIP3    H2 8353   2.081   3.003   0.273 -0.4933 -2.3878  0.8836
 2783TIP3   OH2 8354   0.825   4.628   3.734 -0.5076 -0.1660 -0.1653
 2783TIP3    H1 8355   0.793   4.619   3.645  0.1497  0.0377 -0.4313
 2783TIP3    H2 8356   0.835   4.538   3.766 -0.2094 -0.2513 -0.4976
 2784TIP3   OH2 8357   4.749   3.184   3.529 -0.2535 -0.0927  0.1271
 2784TIP3    H1 8358   4.724   3.268   3.490 -0.3678 -0.8468 -1.5198
 2784TIP3    H2 8359   4.671   3.130   3.522  0.0284 -0.5657  0.5344
 2785TIP3   OH2 8360   2.639   5.519   0.063  0.2580 -0.2183 -0.8805
 2785TIP3    H1 8361   2.663   5.428   0.043 -1.2994 -1.2009  1.2423
 2785TIP3    H2 8362   2.570   5.511   0.129 -0.7014  2.5253 -1.4251
 2786TIP3   OH2 8363   4.173   2.245   4.526  0.1424 -0.2049  0.2404
 2786TIP3    H1 8364   4.111   2.214   4.593 -0.1887  0.4371  0.2419
 2786TIP3    H2 8365   4.137   2.213   4.444  0.1875 -0.4296  0.3077
 2787TIP3   OH2 8366   3.621   2.548   4.278  0.1966  0.4416  0.1933
 2787TIP3    H1 8367   3.566   2.608   4.328  0.3023  0.5322  0.2003
 2787TIP3    H2 8368   3.711   2.575   4.298  0.2417  0.3537  0.1081
 2788TIP3   OH2 8369   4.094   3.576   4.738 -0.5000 -0.3891 -0.2322
 2788TIP3    H1 8370   4.100   3.664   4.775 -0.6359 -0.4561 -0.0481
 2788TIP3    H2 8371   4.019   3.580   4.678 -0.7932 -0.5022  0.1234
 2789TIP3   OH2 8372   3.315   3.592   1.565 -0.2244  0.0382 -0.2928
 2789TIP3    H1 8373   3.225   3.564   1.548 -0.2070  1.0936 -2.4850
 2789TIP3    H2 8374   3.366   3.510   1.566 -1.1543 -0.5626  0.9204
 2790TIP3   OH2 8375   4.275   5.206   3.381  0.1744 -0.4336  0.0811
 2790TIP3    H1 8376   4.361   5.164   3.379 -0.1850 -1.1768 -1.1622
 2790TIP3    H2 8377   4.237   5.185   3.296 -1.0904  0.2048  0.4717
 2791TIP3   OH2 8378   2.394   2.126   3.632 -0.0666  0.1833  0.2903
 2791TIP3    H1 8379   2.444   2.105   3.553  0.9711  4.5808 -0.4738
 2791TIP3    H2 8380   2.308   2.153   3.599  0.8010  3.3483  0.3623
 2792TIP3   OH2 8381   0.778   5.502   2.889  0.0507 -0.9040 -0.6140
 2792TIP3    H1 8382   0.730   5.454   2.956  0.4629  0.0352  0.4004
 2792TIP3    H2 8383   0.831   5.436   2.845 -0.0841 -1.5184  0.1182
 2793TIP3   OH2 8384   5.290   0.267   0.238 -0.3861 -0.3783 -0.1404
 2793TIP3    H1 8385   5.222   0.297   0.178  0.2405  0.2242 -0.5614
 2793TIP3    H2 8386   5.363   0.242   0.181 -0.5266 -1.7875  0.2542
 2794TIP3   OH2 8387   3.028   1.291   3.939 -0.1808  0.2940 -0.5358
 2794TIP3    H1 8388   3.055   1.200   3.934 -1.2353 -0.0389 -0.5203
 2794TIP3    H2 8389   3.054   1.329   3.855  1.2076  0.2737 -0.1409
 2795TIP3   OH2 8390   2.146   5.034   2.681 -0.0896  0.7862 -0.1678
 2795TIP3    H1 8391   2.058   5.043   2.646 -0.4129  0.7536  0.6250
 2795TIP3    H2 8392   2.197   5.102   2.636 -0.2593  0.1434 -1.3928
 2796TIP3   OH2 8393   3.583   0.530   4.886  0.4770 -0.2254 -0.5251
 2796TIP3    H1 8394   3.601   0.605   4.943  0.7705 -0.9926  0.4412
 2796TIP3    H2 8395   3.491   0.509   4.901  0.5184 -0.3436 -0.4328
 2797TIP3   OH2 8396   1.662   0.777   4.944 -0.6451 -0.0298 -0.0081
 2797TIP3    H1 8397   1.743   0.728   4.935 -0.2221  0.7812 -0.6728
 2797TIP3    H2 8398   1.660   0.836   4.869 -1.3649  0.6549  0.5318
 2798TIP3   OH2 8399   3.931   4.357   4.795  0.3171 -0.0756 -0.0688
 2798TIP3    H1 8400   3.861   4.418   4.771  0.5178  0.1853  0.0040
 2798TIP3    H2 8401   4.003   4.413   4.824 -0.2392 -0.3875  2.1096
 2799TIP3   OH2 8402   0.097   3.130   1.562 -0.5048 -0.6042 -0.2162
 2799TIP3    H1 8403   0.064   3.040   1.555 -0.6381 -0.5210 -0.7283
 2799TIP3    H2 8404   0.018   3.184   1.560 -0.4502 -0.4916  0.4868
 2800TIP3   OH2 8405   1.878   4.324   1.777  0.5885 -0.0891 -0.1257
 2800TIP3    H1 8406   1.952   4.267   1.755  0.6987  0.2268 -0.6123
 2800TIP3    H2 8407   1.808   4.265   1.803  1.0690 -0.3851  0.5156
 2801TIP3   OH2 8408   1.422   4.436   2.975  0.2671 -0.8147  0.0198
 2801TIP3    H1 8409   1.496   4.393   2.933 -0.0439 -0.4457 -0.9224
 2801TIP3    H2 8410   1.461   4.486   3.047  0.8867 -0.9097 -0.2430
 2802TIP3   OH2 8411   6.149   2.114   4.404 -0.1334  0.0882  0.5328
 2802TIP3    H1 8412   6.142   2.190   4.348 -0.6168  0.4729  1.1105
 2802TIP3    H2 8413   6.233   2.074   4.379  0.0034  0.6591  0.0550
 2803TIP3   OH2 8414   4.354   2.634   2.868  0.7458  0.4234 -0.1108
 2803TIP3    H1 8415   4.396   2.549   2.855  2.3511  1.3545 -1.5440
 2803TIP3    H2 8416   4.425   2.698   2.857 -0.2450  1.9479  1.6877
 2804TIP3   OH2 8417   4.490   0.204   1.617 -0.4399 -0.3030  0.2391
 2804TIP3    H1 8418   4.471   0.250   1.700 -0.9253 -1.7000  0.9333
 2804TIP3    H2 8419   4.439   0.253   1.552  0.5235  1.2720  0.6033
 2805TIP3   OH2 8420   0.793   5.192   2.137 -0.2453  0.4624 -0.3457
 2805TIP3    H1 8421   0.837   5.137   2.072  1.0878  0.7513  0.2923
 2805TIP3    H2 8422   0.700   5.180   2.118  0.0724 -0.5409 -1.4168
 2806TIP3   OH2 8423   5.140   4.222   2.017  0.0924  0.3006  0.6632
 2806TIP3    H1 8424   5.146   4.314   1.992  0.9735 -0.0478 -0.5210
 2806TIP3    H2 8425   5.148   4.174   1.935 -1.6563 -0.8225  1.1058
 2807TIP3   OH2 8426   1.030   2.722   2.525  0.0149  0.6247  0.2702
 2807TIP3    H1 8427   0.986   2.638   2.539  0.3117 -0.1262 -2.6916
 2807TIP3    H2 8428   1.094   2.727   2.595 -0.5052 -1.2747  0.9481
 2808TIP3   OH2 8429   5.325   3.867   3.500 -0.1818 -0.4253 -0.2539
 2808TIP3    H1 8430   5.304   3.947   3.452  0.9784  1.0866  1.6342
 2808TIP3    H2 8431   5.412   3.842   3.467  1.0872  1.1993  1.6436
 2809TIP3   OH2 8432   5.690   4.214   2.419  0.0996  0.1571  0.3667
 2809TIP3    H1 8433   5.620   4.197   2.355  1.0345  0.9799 -0.9092
 2809TIP3    H2 8434   5.648   4.199   2.504 -0.6942 -2.8675 -0.4156
 2810TIP3   OH2 8435   3.186   0.051   4.969 -0.2233  0.0748 -0.4278
 2810TIP3    H1 8436   3.224   0.115   4.910  1.3393 -1.9808 -1.7931
 2810TIP3    H2 8437   3.253   0.036   5.036  0.2046 -1.3801 -1.1346
 2811TIP3   OH2 8438   5.792   1.346   1.239  0.3569  0.3827  0.2839
 2811TIP3    H1 8439   5.705   1.307   1.234  0.1679  0.7028  0.9550
 2811TIP3    H2 8440   5.791   1.397   1.319  1.2840  0.1109  0.4838
 2812TIP3   OH2 8441   1.728   2.931   1.690 -0.0423  0.4119  0.2762
 2812TIP3    H1 8442   1.675   3.008   1.671 -0.4137 -0.4943 -3.0340
 2812TIP3    H2 8443   1.818   2.964   1.694 -0.2931  1.1670 -0.0972
 2813TIP3   OH2 8444   3.999   4.260   1.809 -0.1933 -0.0058  0.2537
 2813TIP3    H1 8445   4.082   4.274   1.765 -0.4053 -2.6600 -1.2563
 2813TIP3    H2 8446   4.017   4.277   1.902  2.2117 -1.0805  0.0567
 2814TIP3   OH2 8447   0.058   0.710   4.548 -0.0752  0.3579 -0.0029
 2814TIP3    H1 8448   0.081   0.780   4.609  0.6790  0.1913 -0.0888
 2814TIP3    H2 8449   0.100   0.735   4.466  0.0308 -0.0890 -0.0889
 2815TIP3   OH2 8450   2.990   2.857   4.694 -0.1325 -0.0243  0.2393
 2815TIP3    H1 8451   3.078   2.871   4.659 -0.6643  1.1919 -0.7371
 2815TIP3    H2 8452   2.933   2.900   4.630 -1.5563 -2.0146  0.1015
 2816TIP3   OH2 8453   2.356   3.389   4.168 -0.0275 -0.0231  0.0491
 2816TIP3    H1 8454   2.354   3.481   4.192  0.1434 -0.0287  0.0870
 2816TIP3    H2 8455   2.422   3.350   4.225 -0.5955 -0.3119  0.5193
 2817TIP3   OH2 8456   0.152   0.665   1.004 -0.3422  0.6853 -0.0345
 2817TIP3    H1 8457   0.083   0.726   1.030  0.7607  0.7202  3.2343
 2817TIP3    H2 8458   0.114   0.578   1.020  0.4252  0.7094  2.2507
 2818TIP3   OH2 8459   3.455   4.799   1.511 -0.5387 -0.1065 -0.5500
 2818TIP3    H1 8460   3.398   4.769   1.441 -2.2470  2.6521 -0.4687
 2818TIP3    H2 8461   3.438   4.892   1.518  0.9208  0.0614  2.3390
 2819TIP3   OH2 8462   3.976   4.690   3.423  0.1423  0.0750 -0.7657
 2819TIP3    H1 8463   3.978   4.655   3.334 -1.8529  1.5324 -1.4601
 2819TIP3    H2 8464   3.993   4.783   3.413 -4.5030  1.2517 -0.3793
 2820TIP3   OH2 8465   5.649   5.110   5.183  0.0974  0.2744 -0.4850
 2820TIP3    H1 8466   5.670   5.199   5.212 -0.6187  0.0005  1.0043
 2820TIP3    H2 8467   5.727   5.080   5.137  1.6087  0.5580  1.7519
 2821TIP3   OH2 8468   5.538   3.346   4.510 -0.2315  0.5168  0.0082
 2821TIP3    H1 8469   5.632   3.329   4.520 -0.5955 -1.1066  1.0317
 2821TIP3    H2 8470   5.533   3.407   4.437  1.5414 -0.3083 -0.8748
 2822TIP3   OH2 8471   3.946   0.136   1.635  0.2842 -0.0993 -0.2451
 2822TIP3    H1 8472   3.995   0.151   1.715  0.4149  1.1507 -0.5393
 2822TIP3    H2 8473   4.009   0.152   1.564 -0.4960  1.5892 -0.6271
 2823TIP3   OH2 8474   2.050   1.131   2.020  0.1059  0.4455 -0.0909
 2823TIP3    H1 8475   2.059   1.155   2.112  0.1916  1.6184 -0.3956
 2823TIP3    H2 8476   2.132   1.085   1.999  0.7615  1.5359  0.0234
 2824TIP3   OH2 8477   0.581   4.897   2.615  0.0055  0.1566 -0.1922
 2824TIP3    H1 8478   0.546   4.862   2.697  1.4981 -1.0715 -0.0304
 2824TIP3    H2 8479   0.507   4.893   2.554 -0.2672 -2.1742  0.1856
 2825TIP3   OH2 8480   4.830   4.729   3.251 -0.4174  0.0589 -0.7403
 2825TIP3    H1 8481   4.764   4.667   3.221  1.0979 -1.4477 -1.0812
 2825TIP3    H2 8482   4.858   4.775   3.172  0.0660 -0.4381 -0.8644
 2826TIP3   OH2 8483   0.671   1.081   2.724 -0.0814 -0.3559 -0.1069
 2826TIP3    H1 8484   0.751   1.130   2.744 -0.9304  1.2085 -0.3605
 2826TIP3    H2 8485   0.699   1.014   2.662  1.5577 -1.7317  1.9659
 2827TIP3   OH2 8486   5.135   0.779   2.654 -0.0369 -0.2441 -0.1130
 2827TIP3    H1 8487   5.140   0.688   2.624 -1.4356 -0.8331  1.2605
 2827TIP3    H2 8488   5.176   0.830   2.585  0.0132 -1.8500 -1.3169
 2828TIP3   OH2 8489   1.215   3.240   5.188 -0.2182 -0.7178 -0.6733
 2828TIP3    H1 8490   1.189   3.323   5.148 -0.7700 -1.1107 -1.1316
 2828TIP3    H2 8491   1.290   3.212   5.136  0.7990  0.1116  0.2747
 2829TIP3   OH2 8492   2.907   4.382   2.364  0.1339 -0.3735 -0.4378
 2829TIP3    H1 8493   2.855   4.412   2.439  0.0663  0.2198 -0.7104
 2829TIP3    H2 8494   2.929   4.463   2.317  0.8243 -0.6708 -0.6360
 2830TIP3   OH2 8495   5.386   0.889   4.925 -0.4950 -0.3106 -0.3031
 2830TIP3    H1 8496   5.343   0.815   4.883 -1.0533 -0.0911 -0.1168
 2830TIP3    H2 8497   5.390   0.957   4.858 -0.2067 -0.4166 -0.3966
 2831TIP3   OH2 8498   3.698   3.390   1.349 -0.0235  0.2935  0.0268
 2831TIP3    H1 8499   3.640   3.353   1.416  0.0888  1.2414  0.6579
 2831TIP3    H2 8500   3.785   3.357   1.372  0.0919  1.0098  0.6433
 2832TIP3   OH2 8501   2.822   5.633   2.954  0.6189 -0.1741 -0.4277
 2832TIP3    H1 8502   2.753   5.569   2.974  0.5417 -1.1818 -3.3134
 2832TIP3    H2 8503   2.776   5.716   2.943  0.8755  0.9372  4.7255
 2833TIP3   OH2 8504   1.491   5.757   2.450  0.1027 -0.2059 -0.3313
 2833TIP3    H1 8505   1.425   5.789   2.511  0.6727 -1.3832  0.9437
 2833TIP3    H2 8506   1.504   5.830   2.389 -0.3102  1.1010  1.0789
 2834TIP3   OH2 8507   2.682   3.727   0.703  0.2052 -0.0405 -0.5120
 2834TIP3    H1 8508   2.658   3.809   0.661 -1.3857  0.3987  1.1070
 2834TIP3    H2 8509   2.725   3.676   0.634 -0.8598  1.2342 -2.1920
 2835TIP3   OH2 8510   3.013   3.982   3.151 -0.5568 -0.0222  0.1082
 2835TIP3    H1 8511   3.005   4.067   3.193  0.6346  0.0771  0.1421
 2835TIP3    H2 8512   3.107   3.968   3.140 -0.7686 -0.8894 -0.7990
 2836TIP3   OH2 8513   4.306   0.259   2.814 -0.4626  0.0046  0.3375
 2836TIP3    H1 8514   4.373   0.195   2.840 -1.0695 -0.5657  0.5464
 2836TIP3    H2 8515   4.341   0.343   2.841  0.6585 -0.1569 -0.5388
 2837TIP3   OH2 8516   4.381   3.291   3.410 -0.2636 -0.2451 -0.5311
 2837TIP3    H1 8517   4.473   3.314   3.393 -0.2728 -0.5040 -0.9563
 2837TIP3    H2 8518   4.361   3.224   3.344 -0.4137 -1.0356  0.3083
 2838TIP3   OH2 8519   4.833   2.322   0.118  0.4728  0.7342  0.2004
 2838TIP3    H1 8520   4.873   2.320   0.204 -0.3311  0.7066  0.5820
 2838TIP3    H2 8521   4.772   2.248   0.118 -0.0085  1.1220 -0.1483
 2839TIP3   OH2 8522   1.528   0.925   4.575 -0.1921  0.2234  0.4247
 2839TIP3    H1 8523   1.534   0.956   4.485  1.4218 -0.2714  0.3231
 2839TIP3    H2 8524   1.444   0.958   4.607 -1.0565 -0.0665 -1.4347
 2840TIP3   OH2 8525   1.674   1.003   4.777  0.3921 -0.2504  0.5091
 2840TIP3    H1 8526   1.764   1.009   4.744  0.3195  0.2880  0.4002
 2840TIP3    H2 8527   1.622   0.977   4.701  0.4653 -0.6422  0.5909
 2841TIP3   OH2 8528   2.948   2.973   2.269 -0.1219  0.2572 -0.4809
 2841TIP3    H1 8529   2.955   2.893   2.216  0.9342  0.0127  0.0119
 2841TIP3    H2 8530   2.952   2.942   2.359 -0.2972  0.8299 -0.2771
 2842TIP3   OH2 8531   5.183   0.484   0.926 -0.0385  0.1468  0.3289
 2842TIP3    H1 8532   5.181   0.508   0.833 -0.3823 -1.8804 -0.2241
 2842TIP3    H2 8533   5.268   0.516   0.957  0.4094  0.1641 -0.8824
 2843TIP3   OH2 8534   2.475   3.666   0.395  0.3955 -0.4881 -0.1044
 2843TIP3    H1 8535   2.553   3.709   0.430  0.7731 -1.9535  0.9430
 2843TIP3    H2 8536   2.488   3.665   0.300  0.5787  1.2524 -0.1288
 2844TIP3   OH2 8537   0.708   1.100   0.337  0.2126 -0.0699  0.3299
 2844TIP3    H1 8538   0.713   1.175   0.397 -0.5785  0.4533 -0.2381
 2844TIP3    H2 8539   0.621   1.107   0.297  0.5443 -0.6893 -0.5180
 2845TIP3   OH2 8540   1.557   0.083   1.777  0.2658 -0.2631 -0.0480
 2845TIP3    H1 8541   1.480   0.026   1.777 -0.2284  0.3967  0.2945
 2845TIP3    H2 8542   1.631   0.023   1.763  0.0115 -1.3787  2.6643
 2846TIP3   OH2 8543   1.060   2.164   1.035  0.2150 -0.3872  0.1290
 2846TIP3    H1 8544   1.097   2.116   1.110 -1.7140 -0.5354  1.0559
 2846TIP3    H2 8545   0.986   2.110   1.007  0.1487  0.3141 -1.0836
 2847TIP3   OH2 8546   5.503   5.559   4.169 -0.4250 -0.5357  0.5691
 2847TIP3    H1 8547   5.583   5.516   4.140 -0.7137 -1.4552  1.0860
 2847TIP3    H2 8548   5.478   5.512   4.249 -1.7703 -0.6347  0.1260
 2848TIP3   OH2 8549   4.957   2.433   4.388 -0.1825 -0.3549 -0.2672
 2848TIP3    H1 8550   4.904   2.402   4.315  1.4025 -3.3219 -0.3045
 2848TIP3    H2 8551   4.935   2.376   4.461  2.1982 -1.0956 -0.0360
 2849TIP3   OH2 8552   3.299   2.821   1.793  0.7254 -0.4782 -0.2488
 2849TIP3    H1 8553   3.301   2.745   1.734  1.1972 -2.2671  1.9616
 2849TIP3    H2 8554   3.383   2.819   1.838  0.2561  0.6507  0.7173
 2850TIP3   OH2 8555   0.367   3.484   0.049  0.2897  0.3805 -0.9615
 2850TIP3    H1 8556   0.295   3.426   0.076 -0.1702  1.8794  1.3519
 2850TIP3    H2 8557   0.446   3.437   0.075 -0.1030  1.1291  1.9395
 2851TIP3   OH2 8558   6.157   4.210   3.292  0.7968  0.0890 -0.1939
 2851TIP3    H1 8559   6.241   4.216   3.337  0.8620  4.0824 -0.4680
 2851TIP3    H2 8560   6.180   4.198   3.200  0.8427 -2.4452  0.0842
 2852TIP3   OH2 8561   2.091   4.009   4.816  0.4538  0.1181 -0.1645
 2852TIP3    H1 8562   2.185   4.019   4.807  0.8399 -2.1228  0.6935
 2852TIP3    H2 8563   2.054   4.088   4.776  2.5861  0.0026 -2.5941
 2853TIP3   OH2 8564   0.899   0.562   1.554  0.1835  0.0386 -0.0199
 2853TIP3    H1 8565   0.949   0.602   1.624  0.4347  2.1644 -1.3248
 2853TIP3    H2 8566   0.907   0.623   1.481 -1.7046 -1.1076 -1.2699
 2854TIP3   OH2 8567   3.328   3.934   4.246  0.0447  0.3456  0.3857
 2854TIP3    H1 8568   3.388   3.993   4.199 -1.3349  0.1457 -1.7580
 2854TIP3    H2 8569   3.291   3.989   4.315 -1.2122  2.0941 -1.5518
 2855TIP3   OH2 8570   4.485   4.581   1.001 -0.1610 -0.4242 -0.5204
 2855TIP3    H1 8571   4.456   4.564   0.911  1.9118 -0.0349 -1.3305
 2855TIP3    H2 8572   4.572   4.621   0.990  1.3305 -2.7542  1.6814
 2856TIP3   OH2 8573   3.630   3.623   4.626  0.1436 -0.6922 -0.2078
 2856TIP3    H1 8574   3.599   3.553   4.684  1.2690 -0.3182  0.8865
 2856TIP3    H2 8575   3.710   3.589   4.588 -0.1687 -0.6192 -0.9520
 2857TIP3   OH2 8576   5.933   3.866   0.831  0.1733 -0.3892  0.2878
 2857TIP3    H1 8577   5.868   3.893   0.896  0.1135 -1.6491  0.7867
 2857TIP3    H2 8578   5.882   3.845   0.753 -0.0886 -1.6971  0.7834
 2858TIP3   OH2 8579   1.314   1.175   3.036 -0.0186  0.0119 -0.0170
 2858TIP3    H1 8580   1.343   1.254   3.081 -0.6369  0.1740  0.1171
 2858TIP3    H2 8581   1.393   1.122   3.025  0.5106  0.9190 -0.6636
 2859TIP3   OH2 8582   4.577   4.168   0.453 -0.3353 -0.7258  0.6567
 2859TIP3    H1 8583   4.556   4.140   0.364 -2.6965  0.0589  0.8924
 2859TIP3    H2 8584   4.532   4.105   0.510  0.3551 -0.6685  1.2833
 2860TIP3   OH2 8585   4.175   1.659   0.779 -0.0136  0.2639 -0.3187
 2860TIP3    H1 8586   4.084   1.664   0.808  0.5364  0.3915  1.4743
 2860TIP3    H2 8587   4.177   1.581   0.722 -0.9085 -0.7148  0.9334
 2861TIP3   OH2 8588   1.383   4.793   4.366 -0.4032  0.8081 -0.3895
 2861TIP3    H1 8589   1.329   4.721   4.397  0.4382  0.3617  0.0797
 2861TIP3    H2 8590   1.327   4.870   4.375 -1.0141  0.3350 -0.0613
 2862TIP3   OH2 8591   1.804   5.824   5.149  0.4702 -0.0314 -0.3688
 2862TIP3    H1 8592   1.811   5.919   5.135  0.7803  0.1241  0.7700
 2862TIP3    H2 8593   1.815   5.812   5.243 -3.7742 -0.8186  0.2211
 2863TIP3   OH2 8594   3.162   3.216   0.337  0.1387 -0.5089  0.0136
 2863TIP3    H1 8595   3.118   3.215   0.422 -2.2539  0.4311 -1.1076
 2863TIP3    H2 8596   3.146   3.129   0.300  0.3570 -0.5985  0.1274
 2864TIP3   OH2 8597   4.709   0.353   4.382 -0.0796  0.1445 -0.0708
 2864TIP3    H1 8598   4.668   0.273   4.348  1.4280 -0.6059 -0.2164
 2864TIP3    H2 8599   4.803   0.332   4.384  0.0717  0.7752  2.9470
 2865TIP3   OH2 8600   1.932   1.364   1.286 -0.5167 -0.2777  0.1719
 2865TIP3    H1 8601   2.020   1.359   1.248 -0.4414 -2.8363  0.5192
 2865TIP3    H2 8602   1.874   1.345   1.212 -0.6464 -0.4999  0.3302
 2866TIP3   OH2 8603   3.051   2.199   1.441 -0.0637  0.9343 -0.4832
 2866TIP3    H1 8604   3.088   2.246   1.366  0.3626  0.5444 -0.5247
 2866TIP3    H2 8605   2.998   2.264   1.486 -0.2179  1.2122 -1.0500
 2867TIP3   OH2 8606   3.175   4.382   1.042  0.4215 -0.1340 -0.9403
 2867TIP3    H1 8607   3.105   4.331   1.003  0.5053  0.2110 -1.5515
 2867TIP3    H2 8608   3.199   4.333   1.121  0.4831 -1.0330 -1.4939
 2868TIP3   OH2 8609   2.819   3.489   4.748  0.0479  0.5148  0.0893
 2868TIP3    H1 8610   2.851   3.544   4.677  0.6167 -0.4668 -0.4319
 2868TIP3    H2 8611   2.868   3.407   4.739 -0.3773  0.1200  1.1863
 2869TIP3   OH2 8612   2.881   4.387   1.976 -0.6009 -0.8850  0.0477
 2869TIP3    H1 8613   2.856   4.432   2.057  0.9836 -1.3298  0.8105
 2869TIP3    H2 8614   2.825   4.310   1.973 -1.3818 -0.3370  0.1700
 2870TIP3   OH2 8615   5.543   4.140   0.883 -0.1706  0.3253  0.1308
 2870TIP3    H1 8616   5.629   4.131   0.843  0.4042  1.8426  0.9424
 2870TIP3    H2 8617   5.517   4.230   0.864 -0.6522  0.5290  1.6517
 2871TIP3   OH2 8618   0.284   5.605   0.927  0.3368 -0.1228  0.8705
 2871TIP3    H1 8619   0.313   5.646   1.009 -0.6258  1.7729  0.3175
 2871TIP3    H2 8620   0.335   5.649   0.859  0.1342 -0.6938  0.3402
 2872TIP3   OH2 8621   3.913   1.586   0.891  0.3262  0.3491 -0.2496
 2872TIP3    H1 8622   3.876   1.652   0.950 -0.0835  1.8132 -2.0840
 2872TIP3    H2 8623   3.883   1.611   0.804  0.3824 -2.1202 -1.0684
 2873TIP3   OH2 8624   2.777   2.328   1.822 -0.0589 -0.2118  0.1683
 2873TIP3    H1 8625   2.834   2.324   1.899 -0.0867 -0.3659  0.1809
 2873TIP3    H2 8626   2.769   2.421   1.803 -0.9357 -0.0962  1.0113
 2874TIP3   OH2 8627   2.281   5.137   1.004  0.2081  0.4245 -0.3516
 2874TIP3    H1 8628   2.201   5.112   1.049  0.0226  3.0713  0.9693
 2874TIP3    H2 8629   2.351   5.119   1.067  0.8103 -2.1147 -1.5897
 2875TIP3   OH2 8630   3.595   4.437   4.474 -0.0245 -0.0533 -0.1812
 2875TIP3    H1 8631   3.544   4.356   4.477 -0.0067 -0.0544  0.1334
 2875TIP3    H2 8632   3.622   4.451   4.565 -0.8143  0.8097 -0.0672
 2876TIP3   OH2 8633   4.468   0.306   1.887 -0.4114  0.3049  0.7497
 2876TIP3    H1 8634   4.380   0.341   1.894  0.2948  2.4637 -0.2837
 2876TIP3    H2 8635   4.517   0.351   1.956  0.2298  0.3627  0.2643
 2877TIP3   OH2 8636   4.828   3.351   3.178  0.4552  0.0073 -0.3997
 2877TIP3    H1 8637   4.864   3.437   3.157  1.9785 -0.9858 -2.1857
 2877TIP3    H2 8638   4.901   3.303   3.217 -0.1208 -0.7515 -0.2149
 2878TIP3   OH2 8639   3.915   2.517   3.750 -0.2652  0.0038  0.5017
 2878TIP3    H1 8640   3.848   2.513   3.682  1.1993  0.2277 -1.0368
 2878TIP3    H2 8641   3.873   2.563   3.823 -1.7354  0.1892 -0.4169
 2879TIP3   OH2 8642   2.189   5.077   4.271 -0.4035 -0.2532  0.1927
 2879TIP3    H1 8643   2.248   5.101   4.342  0.9735  0.5464 -1.1514
 2879TIP3    H2 8644   2.173   5.159   4.224 -0.2978 -0.9387 -1.1116
 2880TIP3   OH2 8645   2.257   4.055   2.247 -0.5098  0.3182 -0.3836
 2880TIP3    H1 8646   2.200   4.009   2.186 -0.0078 -0.7827 -0.0654
 2880TIP3    H2 8647   2.209   4.055   2.330  0.4145 -1.8413  0.2597
 2881TIP3   OH2 8648   5.130   5.551   3.417 -0.1951 -0.1320 -0.3387
 2881TIP3    H1 8649   5.093   5.633   3.384 -1.3479 -0.6652 -0.4061
 2881TIP3    H2 8650   5.223   5.555   3.392 -0.4070  0.7897 -1.0289
 2882TIP3   OH2 8651   6.220   2.324   3.589 -0.0209  0.0807 -0.3797
 2882TIP3    H1 8652   6.243   2.300   3.679 -1.5762 -1.9978 -0.4657
 2882TIP3    H2 8653   6.181   2.411   3.597  1.5275  0.7108  0.6782
 2883TIP3   OH2 8654   1.828   2.894   2.770 -0.2173  0.5964  0.1356
 2883TIP3    H1 8655   1.766   2.864   2.837  0.0998 -0.4148  0.0000
 2883TIP3    H2 8656   1.799   2.982   2.748 -0.8525  0.6161  0.9769
 2884TIP3   OH2 8657   1.707   5.419   1.681  0.2267  0.8390 -0.5018
 2884TIP3    H1 8658   1.612   5.421   1.697  0.5836  0.8874  1.9470
 2884TIP3    H2 8659   1.731   5.510   1.664 -0.4205  0.5766 -3.4985
 2885TIP3   OH2 8660   5.917   1.033   2.995 -0.2516 -0.5071 -0.1794
 2885TIP3    H1 8661   5.891   1.124   2.984  1.0142  0.0956  1.4352
 2885TIP3    H2 8662   5.925   1.021   3.090 -0.6335 -2.3798 -0.3443
 2886TIP3   OH2 8663   5.462   3.012   3.151  0.2957  0.3608  0.0524
 2886TIP3    H1 8664   5.539   3.014   3.094  1.6301 -0.6136  1.7049
 2886TIP3    H2 8665   5.487   3.067   3.226 -1.0767  0.9486  0.0960
 2887TIP3   OH2 8666   4.700   5.618   3.202  0.3549 -0.3741  0.0610
 2887TIP3    H1 8667   4.728   5.534   3.166 -0.0840 -0.5507  0.1352
 2887TIP3    H2 8668   4.630   5.596   3.264 -0.3499  0.1165 -0.5494
 2888TIP3   OH2 8669   5.045   3.442   0.190  0.1018 -0.5042 -0.5720
 2888TIP3    H1 8670   5.010   3.494   0.118  0.4268 -1.9417 -1.8033
 2888TIP3    H2 8671   5.140   3.445   0.179  0.0995 -2.0089 -1.1579
 2889TIP3   OH2 8672   0.355   3.424   2.085 -0.7819 -0.5634  0.0318
 2889TIP3    H1 8673   0.327   3.333   2.086 -1.3735 -0.3947 -0.5966
 2889TIP3    H2 8674   0.386   3.440   1.996 -1.6529  0.1275 -0.1623
 2890TIP3   OH2 8675   1.087   0.676   3.323 -0.0706  0.9379 -0.0538
 2890TIP3    H1 8676   1.181   0.663   3.334 -0.2243  0.0306  0.2708
 2890TIP3    H2 8677   1.077   0.706   3.233  0.2587 -2.2765 -1.3029
 2891TIP3   OH2 8678   2.878   3.868   4.962  0.5758 -0.6706  0.2499
 2891TIP3    H1 8679   2.791   3.842   4.993  0.2438 -0.4086 -0.4564
 2891TIP3    H2 8680   2.871   3.869   4.867  0.6058  1.7590  0.1995
 2892TIP3   OH2 8681   0.556   5.337   0.653  0.7146 -1.0811  0.2245
 2892TIP3    H1 8682   0.537   5.339   0.559 -1.3640 -1.1164  0.6083
 2892TIP3    H2 8683   0.623   5.270   0.663 -1.2353 -3.3206 -0.9004
 2893TIP3   OH2 8684   3.878   1.365   4.340  0.0992 -0.1023 -0.0982
 2893TIP3    H1 8685   3.898   1.399   4.428 -0.6471 -0.7758  0.3405
 2893TIP3    H2 8686   3.962   1.331   4.309 -0.0008 -1.6844  1.1885
 2894TIP3   OH2 8687   3.091   5.480   2.060  0.2548 -0.1028  0.1200
 2894TIP3    H1 8688   3.085   5.479   1.964  0.6758 -0.0217  0.0914
 2894TIP3    H2 8689   3.033   5.551   2.087  0.3283  0.0375 -0.0903
 2895TIP3   OH2 8690   5.984   5.355   2.126  0.1652  0.2603 -0.2029
 2895TIP3    H1 8691   5.956   5.267   2.152  3.1106 -0.8226 -0.3767
 2895TIP3    H2 8692   5.947   5.367   2.038  0.0361 -0.9391 -0.3229
 2896TIP3   OH2 8693   6.278   0.331   2.461  0.0498  0.1533 -0.4209
 2896TIP3    H1 8694   6.321   0.325   2.376 -0.1506  1.4752 -0.6407
 2896TIP3    H2 8695   6.348   0.353   2.523  0.5447 -2.6375  0.1416
 2897TIP3   OH2 8696   4.084   1.043   2.974 -0.3769 -0.1178  0.2003
 2897TIP3    H1 8697   4.068   1.137   2.976  0.5371  0.0952 -1.0409
 2897TIP3    H2 8698   4.170   1.033   3.015 -0.4809 -0.4166  0.3443
 2898TIP3   OH2 8699   4.125   3.037   1.527 -0.4304 -0.2192  0.5471
 2898TIP3    H1 8700   4.138   2.968   1.461 -1.8370 -0.0506  0.0693
 2898TIP3    H2 8701   4.110   2.990   1.609 -0.5338 -0.4572  0.3902
 2899TIP3   OH2 8702   4.104   1.193   2.418 -0.3747  0.1794 -0.2471
 2899TIP3    H1 8703   4.199   1.201   2.419 -0.3052 -0.4050 -1.1320
 2899TIP3    H2 8704   4.074   1.257   2.483  0.6275  0.1217  0.2947
 2900TIP3   OH2 8705   3.825   4.296   0.798 -0.1833 -0.2107  0.1640
 2900TIP3    H1 8706   3.881   4.372   0.813  0.4733 -0.7468  0.4945
 2900TIP3    H2 8707   3.799   4.303   0.706  1.2323 -0.4624 -0.2868
 2901TIP3   OH2 8708   1.675   5.250   2.473 -0.9777 -0.3667  0.7158
 2901TIP3    H1 8709   1.613   5.202   2.418 -0.7980 -0.2965  0.4521
 2901TIP3    H2 8710   1.643   5.340   2.472  0.6636  0.2856 -1.7047
 2902TIP3   OH2 8711   0.399   5.570   0.673  0.1202 -0.3077  0.0297
 2902TIP3    H1 8712   0.431   5.651   0.713 -0.2319 -0.7641  1.2961
 2902TIP3    H2 8713   0.473   5.510   0.679  1.0295  0.3947 -2.5827
 2903TIP3   OH2 8714   4.283   1.006   4.756 -0.4204 -0.3915  0.1235
 2903TIP3    H1 8715   4.299   1.084   4.809  2.9254 -0.4531 -0.5381
 2903TIP3    H2 8716   4.318   1.028   4.670  2.4222 -3.1214  0.3905
 2904TIP3   OH2 8717   0.174   2.713   5.084 -0.3044  0.7974  0.2908
 2904TIP3    H1 8718   0.130   2.659   5.151  0.7487  0.0264  0.3860
 2904TIP3    H2 8719   0.133   2.687   5.002  1.3716 -1.5673  0.0720
 2905TIP3   OH2 8720   2.487   4.130   1.066 -0.0503 -0.0460  0.0180
 2905TIP3    H1 8721   2.485   4.224   1.085 -1.7052  0.1081 -0.7363
 2905TIP3    H2 8722   2.528   4.091   1.143  1.6819  1.3700 -0.1141
 2906TIP3   OH2 8723   3.619   4.559   2.167 -0.3247  0.2447  0.3003
 2906TIP3    H1 8724   3.709   4.546   2.138 -0.7278 -1.8254 -0.2244
 2906TIP3    H2 8725   3.626   4.571   2.262  0.4128 -2.6468  0.7344
 2907TIP3   OH2 8726   5.810   1.665   2.736  0.5339  0.1778  0.0717
 2907TIP3    H1 8727   5.858   1.716   2.671  0.2235 -0.4740 -0.6932
 2907TIP3    H2 8728   5.852   1.579   2.734  0.8606  0.2946  1.1262
 2908TIP3   OH2 8729   5.936   4.528   1.788  0.2683  0.7930  0.2545
 2908TIP3    H1 8730   5.949   4.438   1.819  0.5648  1.1828  1.3178
 2908TIP3    H2 8731   5.964   4.527   1.697  0.8248 -0.0594  0.4282
 2909TIP3   OH2 8732   0.737   2.730   1.115  0.1595 -0.1538 -0.1892
 2909TIP3    H1 8733   0.821   2.683   1.111  1.0577  1.4635 -1.8285
 2909TIP3    H2 8734   0.682   2.687   1.049  0.5202  0.2483 -0.7574
 2910TIP3   OH2 8735   5.532   2.256   0.556  0.7848  0.0286 -0.6038
 2910TIP3    H1 8736   5.486   2.339   0.570 -1.2384 -1.0219 -0.6681
 2910TIP3    H2 8737   5.602   2.278   0.495 -0.2944  1.5280 -1.3913
 2911TIP3   OH2 8738   3.806   2.420   0.275  0.1847 -0.3589  0.2164
 2911TIP3    H1 8739   3.756   2.494   0.309  0.2949 -0.7136  1.1884
 2911TIP3    H2 8740   3.897   2.439   0.299  0.2402 -0.7120  0.2956
 2912TIP3   OH2 8741   2.357   5.614   4.446  0.0059  0.1979  0.0719
 2912TIP3    H1 8742   2.274   5.582   4.483  0.8560 -0.1698  1.7189
 2912TIP3    H2 8743   2.388   5.541   4.392 -1.1939  0.7006 -1.3665
 2913TIP3   OH2 8744   1.915   1.096   2.671  0.0285  0.0854  0.1701
 2913TIP3    H1 8745   1.959   1.026   2.720  0.2174 -0.4363 -0.7252
 2913TIP3    H2 8746   1.896   1.057   2.585 -1.4375  0.5740  0.2506
 2914TIP3   OH2 8747   3.168   5.701   1.733 -0.0091 -0.7090 -0.2086
 2914TIP3    H1 8748   3.102   5.740   1.675 -1.0408 -0.2666  1.2014
 2914TIP3    H2 8749   3.156   5.607   1.723  0.1109 -0.6470 -1.0078
 2915TIP3   OH2 8750   0.590   0.073   3.763  0.2227  0.1791 -0.5840
 2915TIP3    H1 8751   0.595   0.046   3.671 -2.1799 -1.6858 -0.2621
 2915TIP3    H2 8752   0.547  -0.001   3.807  1.5769  0.8860  2.1217
 2916TIP3   OH2 8753   4.275   4.668   3.407 -0.1157 -0.6324  0.5821
 2916TIP3    H1 8754   4.192   4.631   3.378  0.4451 -3.3696  2.1573
 2916TIP3    H2 8755   4.307   4.717   3.331 -2.4042 -0.8286 -0.5870
 2917TIP3   OH2 8756   5.609   3.741   3.697  0.3417  0.4076 -0.1658
 2917TIP3    H1 8757   5.622   3.682   3.771 -0.4468  0.1359 -0.2260
 2917TIP3    H2 8758   5.550   3.809   3.730  0.8262  0.8758 -0.2478
 2918TIP3   OH2 8759   5.848   3.929   0.551 -0.6678  0.3286  0.2443
 2918TIP3    H1 8760   5.755   3.934   0.573 -0.5752 -0.8620  1.0342
 2918TIP3    H2 8761   5.864   4.005   0.495 -2.8469 -1.1293 -2.6115
 2919TIP3   OH2 8762   0.117   5.642   1.729  0.1824  0.5646  0.6134
 2919TIP3    H1 8763   0.135   5.718   1.672  1.2470  1.5096  2.1358
 2919TIP3    H2 8764   0.023   5.647   1.745 -0.2386 -0.0082 -1.4038
 2920TIP3   OH2 8765   3.647   5.526   0.094  0.2438  0.4000  0.3900
 2920TIP3    H1 8766   3.618   5.613   0.122  2.4114  0.4228  3.0283
 2920TIP3    H2 8767   3.704   5.496   0.165  0.2598 -2.8479 -0.8274
 2921TIP3   OH2 8768   1.359   5.343   1.180  0.2601 -0.1557  0.4738
 2921TIP3    H1 8769   1.267   5.327   1.159  0.7172 -2.3757 -0.1247
 2921TIP3    H2 8770   1.406   5.277   1.130  2.4478  2.6521 -1.4045
 2922TIP3   OH2 8771   2.569   5.532   0.463  0.2766  0.4190  0.0185
 2922TIP3    H1 8772   2.535   5.526   0.373  0.9127  0.4016 -0.2237
 2922TIP3    H2 8773   2.518   5.467   0.512  0.4870 -0.1576 -0.5095
 2923TIP3   OH2 8774   2.745   1.833   1.618 -0.5152  0.1638 -0.0520
 2923TIP3    H1 8775   2.753   1.888   1.695 -0.7332 -1.1099  0.9193
 2923TIP3    H2 8776   2.765   1.745   1.649  0.2556 -0.2667 -1.6404
 2924TIP3   OH2 8777   2.939   4.614   1.412  0.1239 -0.4722 -0.3974
 2924TIP3    H1 8778   2.963   4.644   1.500 -0.1656  1.9621 -1.0780
 2924TIP3    H2 8779   3.022   4.586   1.373  0.7284  0.9353 -0.2075
 2925TIP3   OH2 8780   0.430   4.769   3.167  0.3707 -0.2967 -0.1871
 2925TIP3    H1 8781   0.363   4.771   3.098  0.7816  0.5304 -0.5732
 2925TIP3    H2 8782   0.477   4.687   3.152  0.1542 -0.3491 -0.5943
 2926TIP3   OH2 8783   5.446   4.217   0.484 -0.1059 -0.0195 -0.1617
 2926TIP3    H1 8784   5.505   4.289   0.509 -1.0828  0.9382 -0.5783
 2926TIP3    H2 8785   5.372   4.260   0.443 -0.4570 -1.3207 -0.9177
 2927TIP3   OH2 8786   3.326   4.036   0.550 -0.8625  0.1401 -0.4341
 2927TIP3    H1 8787   3.259   4.100   0.573 -0.3141  0.7048 -0.3852
 2927TIP3    H2 8788   3.307   3.960   0.605  0.6729  1.5931  2.3147
 2928TIP3   OH2 8789   3.353   1.814   1.842  0.1167 -0.2108 -0.1246
 2928TIP3    H1 8790   3.390   1.883   1.897  0.3779 -0.0933 -0.4462
 2928TIP3    H2 8791   3.312   1.753   1.904 -1.1082  0.8084  0.0897
 2929TIP3   OH2 8792   2.780   2.567   2.136  0.3831 -0.5210  0.2055
 2929TIP3    H1 8793   2.814   2.582   2.224  0.3938 -1.1579  0.3089
 2929TIP3    H2 8794   2.760   2.655   2.103 -1.3806 -0.3781  1.5381
 2930TIP3   OH2 8795   0.650   2.371   1.042  0.1358  0.4354 -0.1795
 2930TIP3    H1 8796   0.741   2.382   1.013  0.4475  0.1108  0.6087
 2930TIP3    H2 8797   0.597   2.382   0.964  0.7592  2.0244 -0.4106
 2931TIP3   OH2 8798   4.457   1.307   0.706  0.4388 -0.1269  0.0090
 2931TIP3    H1 8799   4.458   1.223   0.753  0.0869 -0.1178  0.0321
 2931TIP3    H2 8800   4.546   1.316   0.671  0.1446 -1.0860 -1.0360
 2932TIP3   OH2 8801   5.520   1.418   4.426 -0.3280 -0.3890 -0.0817
 2932TIP3    H1 8802   5.526   1.459   4.512  0.8239  0.2779 -0.4540
 2932TIP3    H2 8803   5.610   1.396   4.403 -0.8032 -2.1424 -0.3819
 2933TIP3   OH2 8804   3.480   4.973   1.005 -0.1645  0.2978  0.6064
 2933TIP3    H1 8805   3.506   4.883   0.985 -2.1553 -0.3429  0.5951
 2933TIP3    H2 8806   3.550   5.027   0.970  0.7135 -1.2130 -0.0799
 2934TIP3   OH2 8807   0.193   0.075   4.694 -0.4548 -0.1493 -0.0245
 2934TIP3    H1 8808   0.104   0.109   4.682 -0.3485  0.6283  1.2074
 2934TIP3    H2 8809   0.196  -0.004   4.639 -2.1163 -0.5811  0.4456
 2935TIP3   OH2 8810   4.425   2.846   0.637 -1.0764 -0.0168  0.2749
 2935TIP3    H1 8811   4.388   2.767   0.597 -1.6399  0.5335 -0.3091
 2935TIP3    H2 8812   4.501   2.866   0.583 -0.5326 -0.5340  0.8302
 2936TIP3   OH2 8813   0.674   4.436   5.175  0.3671  0.0789  0.1831
 2936TIP3    H1 8814   0.753   4.410   5.126  0.5785 -0.3577  0.7454
 2936TIP3    H2 8815   0.607   4.376   5.144 -0.0231  1.1121 -1.0579
 2937TIP3   OH2 8816   1.853   0.692   1.462  0.0614 -0.2238  0.1213
 2937TIP3    H1 8817   1.781   0.635   1.437  1.0831 -1.5878  0.2010
 2937TIP3    H2 8818   1.860   0.755   1.389 -0.3602 -0.8948 -0.5152
 2938TIP3   OH2 8819   1.317   3.662   0.012  0.0014  0.1098 -0.4247
 2938TIP3    H1 8820   1.227   3.643  -0.015 -0.3753  0.6165  0.4314
 2938TIP3    H2 8821   1.313   3.749   0.051  0.3918 -0.7732  1.7446
 2939TIP3   OH2 8822   4.988   4.923   0.629 -0.7310 -0.2993  0.4393
 2939TIP3    H1 8823   4.921   4.968   0.578 -1.5130 -0.8195  0.9897
 2939TIP3    H2 8824   4.957   4.833   0.636  0.9517 -1.0385 -0.8877
 2940TIP3   OH2 8825   2.285   1.315   5.041  0.5045 -0.5185  0.2493
 2940TIP3    H1 8826   2.340   1.337   5.116  0.4794  0.0982  0.0926
 2940TIP3    H2 8827   2.251   1.228   5.061  0.8931 -0.5672  0.7212
 2941TIP3   OH2 8828   3.045   4.348   3.061 -0.2291 -0.4802 -0.0517
 2941TIP3    H1 8829   3.091   4.387   3.135 -0.3961  0.7082 -0.5429
 2941TIP3    H2 8830   3.085   4.390   2.984  1.8890 -3.6716 -0.8731
 2942TIP3   OH2 8831   0.418   2.540   1.630 -0.1324 -0.4720  0.6654
 2942TIP3    H1 8832   0.504   2.526   1.670  0.0156  0.7030  0.7960
 2942TIP3    H2 8833   0.436   2.602   1.558 -0.6543 -1.2764 -0.1790
 2943TIP3   OH2 8834   2.619   4.458   2.983 -0.1218  0.2491 -0.0273
 2943TIP3    H1 8835   2.669   4.522   3.033  1.8518 -0.1505 -1.3719
 2943TIP3    H2 8836   2.613   4.382   3.040  0.3607  0.4883  0.3509
 2944TIP3   OH2 8837   3.479   5.247   0.800 -0.3749  0.9820  0.8042
 2944TIP3    H1 8838   3.443   5.333   0.778 -1.3468  0.2851 -0.4970
 2944TIP3    H2 8839   3.412   5.207   0.855 -0.6520  0.4748  0.1083
 2945TIP3   OH2 8840   4.887   3.868   3.312 -0.2069  0.0405  0.4430
 2945TIP3    H1 8841   4.849   3.956   3.308 -1.7524 -0.6150  0.1641
 2945TIP3    H2 8842   4.822   3.816   3.359  0.1797 -1.2254 -0.3837
 2946TIP3   OH2 8843   2.582   1.327   4.725  0.7773  0.3909 -0.2397
 2946TIP3    H1 8844   2.601   1.421   4.720 -0.1747  0.5779 -0.6953
 2946TIP3    H2 8845   2.597   1.304   4.817  1.8922  0.7789 -0.3078
 2947TIP3   OH2 8846   3.436   0.060   0.533  0.0564  0.6774 -0.1293
 2947TIP3    H1 8847   3.392   0.044   0.617 -1.2582 -0.1220 -0.9333
 2947TIP3    H2 8848   3.379   0.018   0.468  1.2982  0.8662 -1.3748
 2948TIP3   OH2 8849   4.434   3.365   4.505  0.1010 -0.0078 -0.0418
 2948TIP3    H1 8850   4.347   3.357   4.466  0.2301 -1.3692 -0.0977
 2948TIP3    H2 8851   4.446   3.460   4.517 -1.2201  0.2281 -0.3819
 2949TIP3   OH2 8852   0.366   2.372   4.240  0.0294 -0.1486  0.1920
 2949TIP3    H1 8853   0.302   2.356   4.309 -0.5960  1.4421  0.0271
 2949TIP3    H2 8854   0.444   2.402   4.287 -1.0852  3.1281  0.2316
 2950TIP3   OH2 8855   2.690   2.015   4.790  0.0609  0.5923  0.6705
 2950TIP3    H1 8856   2.754   1.951   4.761 -0.8296  0.1640 -0.4196
 2950TIP3    H2 8857   2.649   2.047   4.710 -2.1675 -0.3087  1.3509
 2951TIP3   OH2 8858   5.052   5.425   4.427  0.1397  0.3741 -0.1913
 2951TIP3    H1 8859   5.100   5.348   4.397  0.0046 -0.5574  1.8158
 2951TIP3    H2 8860   5.014   5.399   4.511 -0.9139  2.2506 -0.0136
 2952TIP3   OH2 8861   1.704   1.155   3.634 -0.1074  0.3303 -0.0071
 2952TIP3    H1 8862   1.695   1.238   3.681  0.8669  0.5317 -0.1459
 2952TIP3    H2 8863   1.650   1.093   3.683  0.6198  0.6135  1.1871
 2953TIP3   OH2 8864   2.524   1.670   4.983  0.2025 -0.0571 -0.6363
 2953TIP3    H1 8865   2.553   1.693   5.072 -1.1259 -0.9696  0.0738
 2953TIP3    H2 8866   2.487   1.751   4.949 -0.8025 -0.0928  0.3066
 2954TIP3   OH2 8867   6.197   2.003   1.070  0.8358  0.0280 -0.5834
 2954TIP3    H1 8868   6.215   2.097   1.065  0.5287  0.1314  0.1360
 2954TIP3    H2 8869   6.121   1.997   1.128 -0.0318 -0.5585 -1.7210
 2955TIP3   OH2 8870   0.641   1.522   4.184 -0.0143 -0.9037 -0.1990
 2955TIP3    H1 8871   0.685   1.502   4.101  0.7359 -1.4392  0.3089
 2955TIP3    H2 8872   0.698   1.586   4.226 -0.9311  0.1654 -0.5385
 2956TIP3   OH2 8873   1.508   3.355   1.992  0.4850  0.0971 -0.2403
 2956TIP3    H1 8874   1.446   3.380   2.061 -1.4947 -0.8536 -1.5572
 2956TIP3    H2 8875   1.554   3.279   2.027  0.6546  0.5798  0.6177
 2957TIP3   OH2 8876   3.113   0.679   3.618  0.1730 -0.1923 -0.1863
 2957TIP3    H1 8877   3.139   0.640   3.702  0.9963  0.7282  0.0078
 2957TIP3    H2 8878   3.115   0.607   3.556 -0.2119 -0.8391  0.5434
 2958TIP3   OH2 8879   1.366   4.780   3.821  0.4015  0.0712 -0.3441
 2958TIP3    H1 8880   1.422   4.715   3.779  1.8596  1.4945 -0.6985
 2958TIP3    H2 8881   1.322   4.825   3.749 -1.1662 -0.9445 -0.0740
 2959TIP3   OH2 8882   0.954   0.326   2.884 -0.3870 -0.2352 -0.0558
 2959TIP3    H1 8883   1.048   0.309   2.880 -0.2704  0.3748 -0.0011
 2959TIP3    H2 8884   0.947   0.412   2.926 -1.0430 -1.0086  1.4898
 2960TIP3   OH2 8885   3.202   1.926   0.549 -0.0718 -0.1836 -0.4887
 2960TIP3    H1 8886   3.254   1.853   0.582  0.9341  0.1762 -1.2430
 2960TIP3    H2 8887   3.247   1.953   0.469 -0.9036  0.7339 -0.6610
 2961TIP3   OH2 8888   3.848   2.374   2.690  1.0424 -0.0458  0.4229
 2961TIP3    H1 8889   3.773   2.431   2.673  1.2584  0.3076  0.6365
 2961TIP3    H2 8890   3.813   2.305   2.747  1.0544  0.5595  1.1788
 2962TIP3   OH2 8891   6.201   3.328   0.698  0.2999 -0.5803  0.1513
 2962TIP3    H1 8892   6.127   3.366   0.746  0.5756 -0.4884  0.5060
 2962TIP3    H2 8893   6.204   3.376   0.616  2.4550  2.2998  1.7369
 2963TIP3   OH2 8894   5.878   4.118   2.249 -0.3796 -0.2969 -0.3046
 2963TIP3    H1 8895   5.924   4.074   2.321 -0.7984  0.4353  0.4236
 2963TIP3    H2 8896   5.802   4.160   2.291 -0.2796  0.6724 -1.0578
 2964TIP3   OH2 8897   5.293   5.289   1.126  0.4825 -0.6773  0.1197
 2964TIP3    H1 8898   5.381   5.265   1.156  0.8502 -0.4650 -0.7872
 2964TIP3    H2 8899   5.304   5.312   1.034 -0.3210  0.4980  0.3062
 2965TIP3   OH2 8900   5.060   3.866   3.040  0.0140  0.6840  0.2764
 2965TIP3    H1 8901   5.014   3.844   2.959  1.9471  1.6563 -1.1575
 2965TIP3    H2 8902   5.122   3.794   3.052 -1.1888 -0.1647  1.7010
 2966TIP3   OH2 8903   2.644   5.692   2.329  0.2066  0.2041  0.5940
 2966TIP3    H1 8904   2.620   5.616   2.277  0.0131  0.7280 -0.0954
 2966TIP3    H2 8905   2.618   5.767   2.276 -0.4192  0.7541  1.6507
 2967TIP3   OH2 8906   5.183   3.543   4.546  1.1618  0.5220 -0.0840
 2967TIP3    H1 8907   5.175   3.533   4.452  1.9728  0.8467 -0.1998
 2967TIP3    H2 8908   5.205   3.455   4.578  1.3985  0.5160 -0.2622
 2968TIP3   OH2 8909   0.532   5.703   1.669  0.2172  0.3554 -0.4296
 2968TIP3    H1 8910   0.548   5.611   1.692 -3.4558 -0.8384 -2.0359
 2968TIP3    H2 8911   0.470   5.734   1.734  1.4359  1.8149  0.1123
 2969TIP3   OH2 8912   5.259   1.631   2.763  0.3951 -0.3663 -0.1835
 2969TIP3    H1 8913   5.300   1.635   2.677  1.0095  0.0935  0.1222
 2969TIP3    H2 8914   5.263   1.539   2.787  1.3984 -0.3154 -0.1017
 2970TIP3   OH2 8915   1.481   5.759   3.143  0.1238  0.0589  0.4691
 2970TIP3    H1 8916   1.502   5.668   3.119  0.6236  0.4218 -0.5348
 2970TIP3    H2 8917   1.399   5.752   3.191  1.0782 -1.1063  2.0189
 2971TIP3   OH2 8918   2.563   2.122   5.010 -0.2103 -0.3142 -0.2304
 2971TIP3    H1 8919   2.612   2.073   4.944 -0.6222  0.0637 -0.8329
 2971TIP3    H2 8920   2.479   2.076   5.016 -0.0463 -0.5542  0.2939
 2972TIP3   OH2 8921   3.111   0.817   4.083 -0.1631 -0.1716  0.0331
 2972TIP3    H1 8922   3.042   0.785   4.024 -1.4296 -1.7338  2.2396
 2972TIP3    H2 8923   3.067   0.828   4.167  2.2903 -1.3118  1.5483
 2973TIP3   OH2 8924   4.945   0.456   2.372  0.2502  0.0314  0.3533
 2973TIP3    H1 8925   4.899   0.513   2.434 -0.4741  0.7012 -0.7487
 2973TIP3    H2 8926   4.902   0.371   2.381 -0.3560  0.3166  0.2578
 2974TIP3   OH2 8927   1.448   0.693   4.294 -0.1633 -0.2970 -0.0785
 2974TIP3    H1 8928   1.443   0.784   4.265 -1.0670 -0.4157 -0.3321
 2974TIP3    H2 8929   1.532   0.662   4.262 -0.7983 -0.2084 -1.9434
 2975TIP3   OH2 8930   0.021   2.517   2.849 -0.5603  0.3697 -0.3921
 2975TIP3    H1 8931   0.108   2.556   2.842 -0.1474 -0.0996  1.4711
 2975TIP3    H2 8932  -0.037   2.592   2.863 -0.7024  0.8081 -2.8554
 2976TIP3   OH2 8933   1.962   2.642   1.506 -0.5584 -0.0118  0.0638
 2976TIP3    H1 8934   2.012   2.595   1.573 -0.6121  1.4108  1.1467
 2976TIP3    H2 8935   1.871   2.634   1.534 -0.5438  0.9570  0.4312
 2977TIP3   OH2 8936   1.810   3.262   0.389 -0.5827 -0.8847 -0.2812
 2977TIP3    H1 8937   1.904   3.280   0.386 -0.7724  0.0157 -1.4706
 2977TIP3    H2 8938   1.783   3.290   0.476  0.3427 -1.6766  0.2779
 2978TIP3   OH2 8939   6.288   1.814   2.128  0.4740  0.4515  0.5192
 2978TIP3    H1 8940   6.211   1.759   2.112  0.8230  0.3329 -0.8621
 2978TIP3    H2 8941   6.317   1.788   2.215 -0.8200  0.2364  0.9181
 2979TIP3   OH2 8942   6.308   4.646   0.469 -0.3339  0.2415  0.0856
 2979TIP3    H1 8943   6.278   4.725   0.515 -1.7575  0.4348 -1.0905
 2979TIP3    H2 8944   6.269   4.574   0.518  1.0991  0.2139  1.2588
 2980TIP3   OH2 8945   3.912   4.925   2.717 -0.0231  0.1720 -0.3626
 2980TIP3    H1 8946   3.925   4.833   2.739 -1.6148  0.2845  1.3051
 2980TIP3    H2 8947   3.824   4.945   2.748  0.5627  2.4575  0.0135
 2981TIP3   OH2 8948   4.749   3.237   4.008  0.0327 -0.6878 -0.5193
 2981TIP3    H1 8949   4.771   3.144   4.001  1.2074 -0.4390 -0.3139
 2981TIP3    H2 8950   4.802   3.269   4.081  0.7227  0.4402 -1.4774
 2982TIP3   OH2 8951   2.044   0.065   2.100  0.2723 -0.3238 -0.3787
 2982TIP3    H1 8952   2.000   0.118   2.034 -4.5154 -1.4824  1.4343
 2982TIP3    H2 8953   2.087  -0.005   2.051 -0.8696  0.2943 -2.3470
 2983TIP3   OH2 8954   0.857   0.140   0.305  0.0610 -0.2490  0.0990
 2983TIP3    H1 8955   0.898   0.169   0.224 -0.0348  0.6530  0.3597
 2983TIP3    H2 8956   0.929   0.110   0.360  0.0939 -1.1682 -0.4330
 2984TIP3   OH2 8957   1.309   3.591   4.332  0.1686  0.5171 -0.5311
 2984TIP3    H1 8958   1.233   3.557   4.284 -3.1141  1.2028  3.6634
 2984TIP3    H2 8959   1.363   3.513   4.349  0.3616 -0.0512 -3.1746
 2985TIP3   OH2 8960   1.628   1.393   1.807  0.3377 -0.0828 -0.0485
 2985TIP3    H1 8961   1.574   1.429   1.738  1.6091  2.8371  0.3542
 2985TIP3    H2 8962   1.684   1.330   1.763 -1.0073 -0.6343 -1.0512
 2986TIP3   OH2 8963   3.741   1.605   3.047  0.1725  0.9043  0.3828
 2986TIP3    H1 8964   3.688   1.556   3.110 -0.5646  2.2902  0.8937
 2986TIP3    H2 8965   3.831   1.580   3.067 -0.0911  0.8343  1.5690
 2987TIP3   OH2 8966   5.486   1.696   3.805  0.0938  0.5745 -0.3027
 2987TIP3    H1 8967   5.521   1.612   3.834 -0.3089  0.7492  0.7551
 2987TIP3    H2 8968   5.552   1.731   3.746  0.8102  0.0428  0.1704
 2988TIP3   OH2 8969   3.052   5.180   0.517 -0.0800  0.2632 -0.2359
 2988TIP3    H1 8970   3.039   5.274   0.529 -1.6998  0.0758 -0.2594
 2988TIP3    H2 8971   3.073   5.170   0.424  0.8664  0.6620 -0.0706
 2989TIP3   OH2 8972   4.219   1.589   3.255 -0.1104 -0.7853  0.2048
 2989TIP3    H1 8973   4.314   1.584   3.240 -0.1350  0.8073 -0.7230
 2989TIP3    H2 8974   4.211   1.596   3.350  0.7395 -0.4965  0.2682
 2990TIP3   OH2 8975   4.412   4.931   2.288 -0.3128  0.1191  0.3668
 2990TIP3    H1 8976   4.452   4.971   2.364 -0.8770 -0.5555  1.0367
 2990TIP3    H2 8977   4.319   4.952   2.295 -0.1723  1.4030 -1.0008
 2991TIP3   OH2 8978   1.100   5.024   4.890  0.3062 -0.3127 -0.3332
 2991TIP3    H1 8979   1.161   5.090   4.855 -0.6299  1.3118  0.9784
 2991TIP3    H2 8980   1.046   4.999   4.815 -0.7855  2.1109 -0.4417
 2992TIP3   OH2 8981   1.651   4.345   3.146  0.3830 -0.1519 -0.5851
 2992TIP3    H1 8982   1.699   4.288   3.207  0.8707  1.2549  0.3861
 2992TIP3    H2 8983   1.617   4.285   3.080  1.2852 -1.5193  0.1346
 2993TIP3   OH2 8984   0.011   5.166   2.567 -0.3360  0.0175 -0.1446
 2993TIP3    H1 8985   0.079   5.220   2.527  0.5147  0.3339  1.5881
 2993TIP3    H2 8986  -0.052   5.229   2.602  0.4390 -0.0615  1.5084
 2994TIP3   OH2 8987   3.596   1.430   3.212  0.3856  0.1782  0.7888
 2994TIP3    H1 8988   3.618   1.400   3.301 -0.0601 -1.5992  0.3384
 2994TIP3    H2 8989   3.502   1.414   3.203  0.2053  1.3796  0.3558
 2995TIP3   OH2 8990   4.407   3.431   4.140 -0.3181 -0.2134 -0.0286
 2995TIP3    H1 8991   4.479   3.440   4.202 -0.0812  0.8439 -0.4452
 2995TIP3    H2 8992   4.384   3.338   4.145  0.9164 -0.5293  0.2784
 2996TIP3   OH2 8993   0.049   5.395   1.612 -0.5761  0.1235  0.1644
 2996TIP3    H1 8994   0.125   5.450   1.630  1.3592 -1.7803 -1.6071
 2996TIP3    H2 8995  -0.010   5.410   1.686  1.6639  1.4386  1.7989
 2997TIP3   OH2 8996   4.244   2.308   0.760 -0.1630 -0.4776  0.0062
 2997TIP3    H1 8997   4.282   2.348   0.838  0.5345  1.2110 -1.1326
 2997TIP3    H2 8998   4.195   2.378   0.718  0.8609 -0.8605 -1.9402
 2998TIP3   OH2 8999   6.336   0.797   1.454 -0.0236  0.4642  0.0511
 2998TIP3    H1 9000   6.372   0.880   1.424  1.0853 -0.2436 -0.6831
 2998TIP3    H2 9001   6.247   0.794   1.419  0.3323  0.8423 -0.8900
 2999TIP3   OH2 9002   3.852   4.583   0.076  0.1492 -0.1498 -0.1133
 2999TIP3    H1 9003   3.875   4.491   0.063  1.5303  0.4679 -2.5258
 2999TIP3    H2 9004   3.774   4.597   0.023 -1.1065 -0.2628  1.5994
 3000TIP3   OH2 9005   3.863   5.390   3.623  0.1439  0.3991  0.4183
 3000TIP3    H1 9006   3.855   5.450   3.549  0.6475  1.1190  0.9330
 3000TIP3    H2 9007   3.938   5.423   3.673  0.3257 -0.5632  0.8060
 3001TIP3   OH2 9008   2.164   4.653   2.161  0.3736  0.4601 -0.3477
 3001TIP3    H1 9009   2.130   4.681   2.246  0.5255  1.5869 -0.6425
 3001TIP3    H2 9010   2.119   4.708   2.097  2.3641  1.7181 -0.7815
 3002TIP3   OH2 9011   0.525   1.522   3.600  0.0077  0.1073  0.0567
 3002TIP3    H1 9012   0.563   1.546   3.515  1.1105 -2.1887 -0.1973
 3002TIP3    H2 9013   0.432   1.539   3.591  0.2817  1.0875 -1.1583
 3003TIP3   OH2 9014   5.931   2.764   4.506 -0.3420 -0.1789  0.1656
 3003TIP3    H1 9015   5.948   2.679   4.548  0.3457 -0.3672 -0.4793
 3003TIP3    H2 9016   5.982   2.761   4.425  1.6013  1.7568  1.2249
 3004TIP3   OH2 9017   0.726   3.958   2.378  0.0609  0.0904  0.1261
 3004TIP3    H1 9018   0.659   3.995   2.435 -0.5118 -0.5528 -0.1117
 3004TIP3    H2 9019   0.752   3.876   2.420 -0.7343 -0.6431 -0.7755
 3005TIP3   OH2 9020   0.263   1.717   4.190  0.1336 -0.2962 -0.3137
 3005TIP3    H1 9021   0.246   1.665   4.268 -1.0067  0.7499  0.1682
 3005TIP3    H2 9022   0.184   1.705   4.137 -1.1437  2.5726  0.7632
 3006TIP3   OH2 9023   3.513   0.198   2.759  0.3879  0.1616  0.5920
 3006TIP3    H1 9024   3.498   0.292   2.765 -0.4215  0.1231 -0.4134
 3006TIP3    H2 9025   3.600   0.190   2.722 -0.5642  0.6125 -1.9693
 3007TIP3   OH2 9026   0.619   4.042   0.398 -0.4685 -0.1462  0.0182
 3007TIP3    H1 9027   0.602   3.996   0.480  1.3101 -0.3619  0.3008
 3007TIP3    H2 9028   0.659   3.977   0.341  1.8624  0.9270  0.3366
 3008TIP3   OH2 9029   3.797   2.928   4.106 -0.5502  0.5176  0.0645
 3008TIP3    H1 9030   3.860   2.880   4.159 -1.3811 -2.0060 -1.0840
 3008TIP3    H2 9031   3.711   2.896   4.134 -1.0369 -0.4345 -2.2227
 3009TIP3   OH2 9032   4.475   3.468   3.096  0.2397 -0.3075 -0.1041
 3009TIP3    H1 9033   4.539   3.526   3.137 -2.1089  1.1602  1.7291
 3009TIP3    H2 9034   4.459   3.507   3.010 -0.8447  1.5500  0.8620
 3010TIP3   OH2 9035   6.290   0.862   1.000 -0.8932 -0.0041 -0.1862
 3010TIP3    H1 9036   6.237   0.869   1.079 -1.3067  2.8978 -0.6144
 3010TIP3    H2 9037   6.227   0.842   0.930 -0.8086 -0.5062 -0.1287
 3011TIP3   OH2 9038   4.523   3.827   2.283 -0.0200  0.6539 -0.0778
 3011TIP3    H1 9039   4.485   3.841   2.370 -1.0771 -0.4008 -0.3406
 3011TIP3    H2 9040   4.582   3.753   2.295 -2.4532 -1.5837 -0.7907
 3012TIP3   OH2 9041   5.521   1.013   0.561  0.2991  0.0529  0.5750
 3012TIP3    H1 9042   5.473   1.085   0.521  0.0501 -0.6843 -0.5253
 3012TIP3    H2 9043   5.472   0.991   0.640 -1.7190 -1.2116 -0.9299
 3013TIP3   OH2 9044   3.486   3.577   0.040 -0.0686  0.1242 -0.1668
 3013TIP3    H1 9045   3.467   3.509  -0.025  2.3290 -0.3758 -0.4047
 3013TIP3    H2 9046   3.399   3.603   0.071 -1.1120 -2.9116 -0.1476
 3014TIP3   OH2 9047   0.233   0.991   2.652  0.2351  0.1719  0.4140
 3014TIP3    H1 9048   0.176   1.020   2.580  1.2455  4.5209  1.0392
 3014TIP3    H2 9049   0.321   0.993   2.614  0.4350 -2.5847  0.5330
 3015TIP3   OH2 9050   6.163   3.392   2.977  0.1214  0.1976 -0.2399
 3015TIP3    H1 9051   6.118   3.440   2.908  2.2813  1.0308 -1.1691
 3015TIP3    H2 9052   6.256   3.398   2.954  0.6474 -3.5811  0.1397
 3016TIP3   OH2 9053   1.020   3.440   3.132 -0.2689  0.4045 -0.4653
 3016TIP3    H1 9054   1.113   3.461   3.121 -0.4386  0.9414 -0.8918
 3016TIP3    H2 9055   0.974   3.522   3.114 -0.7238  0.7335  1.8636
 3017TIP3   OH2 9056   3.025   3.395   1.087  0.4134  0.4999 -0.0114
 3017TIP3    H1 9057   3.063   3.423   1.170  0.4832 -0.0758  0.1532
 3017TIP3    H2 9058   3.009   3.477   1.040 -0.0791  0.8593  0.7570
 3018TIP3   OH2 9059   0.173   0.885   0.752 -0.3575  0.3700  0.4017
 3018TIP3    H1 9060   0.243   0.883   0.817 -0.8977 -1.0930  0.9841
 3018TIP3    H2 9061   0.215   0.914   0.672  0.8856 -0.2652  0.7960
 3019TIP3   OH2 9062   3.345   2.417   3.000 -0.2356  0.0024 -1.0445
 3019TIP3    H1 9063   3.406   2.471   2.949 -0.6835  2.0854  0.4724
 3019TIP3    H2 9064   3.401   2.368   3.060  0.0735  1.9494  0.3853
 3020TIP3   OH2 9065   3.362   4.323   0.050  0.3244 -0.1219  0.1578
 3020TIP3    H1 9066   3.290   4.301  -0.008  0.9670 -0.9516 -0.3488
 3020TIP3    H2 9067   3.359   4.418   0.058 -0.0714 -0.0396 -0.8528
 3021TIP3   OH2 9068   0.560   0.119   1.480 -0.3559 -0.3532 -0.0706
 3021TIP3    H1 9069   0.588   0.130   1.571  0.0059 -2.2546  0.0988
 3021TIP3    H2 9070   0.473   0.158   1.476 -0.1189  0.3212  0.9185
 3022TIP3   OH2 9071   4.377   4.550   1.886  0.1827  0.3894  0.0794
 3022TIP3    H1 9072   4.411   4.505   1.809  1.1405 -0.6222  1.0473
 3022TIP3    H2 9073   4.362   4.480   1.950  1.7597  1.4021  1.6431
 3023TIP3   OH2 9074   0.511   1.582   1.089  0.0823 -0.2864 -0.3062
 3023TIP3    H1 9075   0.574   1.519   1.124  1.4312  0.7371 -0.7803
 3023TIP3    H2 9076   0.469   1.619   1.166  1.1584  0.0703  0.1401
 3024TIP3   OH2 9077   5.280   0.684   5.135 -0.3091 -0.5665  0.0721
 3024TIP3    H1 9078   5.259   0.672   5.043 -0.6184  0.2405  0.0258
 3024TIP3    H2 9079   5.249   0.605   5.178 -2.2003 -0.0132 -0.1976
 3025TIP3   OH2 9080   1.572   4.019   1.055 -0.1589  0.0786  0.2669
 3025TIP3    H1 9081   1.659   4.028   1.016 -0.5563  0.1381 -0.6234
 3025TIP3    H2 9082   1.519   3.981   0.986 -0.4819 -1.4132  1.2959
 3026TIP3   OH2 9083   2.091   3.321   0.449 -0.3174  0.2812 -0.4170
 3026TIP3    H1 9084   2.178   3.310   0.410  0.6644  0.9537  1.4709
 3026TIP3    H2 9085   2.082   3.247   0.509  0.2117  1.7287  1.5309
 3027TIP3   OH2 9086   0.522   4.131   2.957  0.4997  0.1154  0.4035
 3027TIP3    H1 9087   0.494   4.215   2.992 -1.6992  0.1036 -1.0770
 3027TIP3    H2 9088   0.462   4.067   2.996  1.2999 -0.5914  0.5074
 3028TIP3   OH2 9089   4.850   2.339   4.149  0.8683  0.2393 -0.2371
 3028TIP3    H1 9090   4.768   2.294   4.165  1.7195 -1.8119 -1.2525
 3028TIP3    H2 9091   4.861   2.336   4.054  1.8339  0.9971 -0.1697
 3029TIP3   OH2 9092   0.600   1.579   3.855  0.0425  0.3067  0.1839
 3029TIP3    H1 9093   0.686   1.547   3.881 -0.2014  0.9392  1.8734
 3029TIP3    H2 9094   0.603   1.581   3.759  1.4861 -0.7767  0.1721
 3030TIP3   OH2 9095   6.218   3.923   1.777  0.1007 -0.3399  0.0146
 3030TIP3    H1 9096   6.191   3.961   1.693 -3.4490  0.7769  1.4794
 3030TIP3    H2 9097   6.137   3.888   1.815  1.3868 -0.1132  3.3039
 3031TIP3   OH2 9098   3.910   5.903   4.021 -0.4167  0.0379  0.1478
 3031TIP3    H1 9099   3.937   5.975   3.965  0.8354  0.4919  1.2890
 3031TIP3    H2 9100   3.898   5.829   3.961  0.5658  0.5868 -0.7573
 3032TIP3   OH2 9101   2.231   5.361   0.456 -0.0904  0.1838 -0.1543
 3032TIP3    H1 9102   2.269   5.309   0.385 -0.8954  1.3897 -1.5305
 3032TIP3    H2 9103   2.141   5.331   0.462  0.2121 -0.5310  0.9906
 3033TIP3   OH2 9104   1.172   4.234   3.241 -0.0158 -0.0724  0.0932
 3033TIP3    H1 9105   1.177   4.328   3.223  2.6800 -0.4054 -1.3080
 3033TIP3    H2 9106   1.214   4.223   3.326 -0.9707  0.0234  0.5959
 3034TIP3   OH2 9107   3.705   1.816   4.512 -0.4370  0.1492 -0.3860
 3034TIP3    H1 9108   3.791   1.857   4.518 -0.6748  0.7244 -0.7522
 3034TIP3    H2 9109   3.696   1.795   4.419  0.1236 -1.7410 -0.0459
 3035TIP3   OH2 9110   0.188   1.836   1.272  0.3797 -0.3726  0.0043
 3035TIP3    H1 9111   0.094   1.826   1.257  0.5195 -0.6540 -0.7440
 3035TIP3    H2 9112   0.196   1.918   1.321 -0.3525 -1.1028  1.4008
 3036TIP3   OH2 9113   0.669   1.648   3.190 -0.0210 -0.0165  0.0375
 3036TIP3    H1 9114   0.749   1.611   3.226  0.6166  1.4358  0.1810
 3036TIP3    H2 9115   0.619   1.676   3.267  0.2052  0.8070 -0.1085
 3037TIP3   OH2 9116   0.279   5.044   4.375  0.2284  0.5057 -0.6067
 3037TIP3    H1 9117   0.184   5.044   4.377  0.1945  2.1142 -0.2914
 3037TIP3    H2 9118   0.302   4.996   4.296 -0.7270 -2.2126  0.6609
 3038TIP3   OH2 9119   1.017   2.348   0.670  0.1055 -0.1114 -0.4268
 3038TIP3    H1 9120   1.028   2.258   0.699  0.2911  0.6744  2.2756
 3038TIP3    H2 9121   1.099   2.392   0.695 -1.2311  1.4810  1.4809
 3039TIP3   OH2 9122   1.621   0.213   1.166 -0.7644  0.5465 -0.3697
 3039TIP3    H1 9123   1.649   0.140   1.221 -0.7536  0.9652  0.1892
 3039TIP3    H2 9124   1.526   0.217   1.177 -0.7980  0.4482 -0.6157
 3040TIP3   OH2 9125   1.526   1.173   3.404  0.6513  0.1104 -0.5158
 3040TIP3    H1 9126   1.609   1.202   3.441  0.0032  1.1375  0.1902
 3040TIP3    H2 9127   1.469   1.250   3.410 -1.3078 -1.3445  1.8924
 3041TIP3   OH2 9128   3.022   0.893   4.335 -0.7285  0.2228  0.5845
 3041TIP3    H1 9129   2.998   0.867   4.424 -1.3541 -1.5010 -0.0428
 3041TIP3    H2 9130   2.946   0.942   4.304 -1.2113 -0.5938  0.4503
 3042TIP3   OH2 9131   2.366   0.313   1.031 -0.1906  0.3850 -0.2660
 3042TIP3    H1 9132   2.376   0.367   1.110  1.2194  1.3934 -1.0829
 3042TIP3    H2 9133   2.444   0.333   0.978  0.3610 -2.4159 -0.6637
 3043TIP3   OH2 9134   5.731   1.216   0.245 -0.0685 -0.4913 -0.0095
 3043TIP3    H1 9135   5.650   1.263   0.224 -0.6393 -0.4553  2.0794
 3043TIP3    H2 9136   5.752   1.168   0.165 -0.9107  1.2404 -1.3371
 3044TIP3   OH2 9137   5.600   0.472   2.262  0.5235 -0.6837 -0.2824
 3044TIP3    H1 9138   5.556   0.517   2.334  1.4782  1.2565 -0.8499
 3044TIP3    H2 9139   5.691   0.498   2.269  0.5803 -0.1418 -2.3947
 3045TIP3   OH2 9140   3.480   3.384   3.214  0.0749  0.7050 -0.4592
 3045TIP3    H1 9141   3.470   3.402   3.121 -0.1420  1.4365 -0.2999
 3045TIP3    H2 9142   3.550   3.319   3.218  1.3696  2.0213 -1.0218
 3046TIP3   OH2 9143   3.941   0.242   3.379 -0.1850  0.1621 -0.5270
 3046TIP3    H1 9144   3.967   0.255   3.288  2.2312  0.7266  0.1704
 3046TIP3    H2 9145   3.921   0.329   3.411 -1.5319 -0.0936 -0.6082
 3047TIP3   OH2 9146   0.588   3.055   1.555  0.0262  0.4299  0.0204
 3047TIP3    H1 9147   0.673   3.034   1.515 -0.9421 -1.5600 -1.1411
 3047TIP3    H2 9148   0.598   3.030   1.646  0.4833 -0.4387 -0.2566
 3048TIP3   OH2 9149   3.002   0.553   4.952 -0.2673 -0.8506  0.4705
 3048TIP3    H1 9150   2.949   0.521   5.026 -4.3110  1.5679 -1.0111
 3048TIP3    H2 9151   2.991   0.648   4.955  2.9244 -0.3201 -0.9415
 3049TIP3   OH2 9152   2.676   2.469   1.176 -0.1162  0.1327 -0.5692
 3049TIP3    H1 9153   2.654   2.557   1.144  1.6166  1.3253  1.2452
 3049TIP3    H2 9154   2.634   2.464   1.262 -0.8707 -1.1697 -0.9936
 3050TIP3   OH2 9155   3.772   0.965   3.912 -0.4454 -0.3436 -0.4418
 3050TIP3    H1 9156   3.831   0.913   3.857 -0.7119 -1.8377  0.6269
 3050TIP3    H2 9157   3.797   0.942   4.001 -0.5466  1.4377  0.0752
 3051TIP3   OH2 9158   2.527   0.702   3.246 -0.6332  0.1130 -0.3225
 3051TIP3    H1 9159   2.518   0.608   3.263 -1.8121  0.3322  0.3546
 3051TIP3    H2 9160   2.571   0.706   3.160  2.7782 -1.0315  1.1690
 3052TIP3   OH2 9161   1.209   2.058   1.248 -0.0553 -0.1639 -0.4628
 3052TIP3    H1 9162   1.258   1.998   1.193 -0.8678 -1.3167  0.0319
 3052TIP3    H2 9163   1.272   2.091   1.311  0.0999 -1.6706  0.2035
 3053TIP3   OH2 9164   3.467   3.173   3.853 -0.0080 -0.4453  0.0693
 3053TIP3    H1 9165   3.538   3.109   3.858 -0.0630 -0.4961  0.1959
 3053TIP3    H2 9166   3.496   3.235   3.787  0.7279  0.2422  1.0183
 3054TIP3   OH2 9167   3.754   1.216   5.183 -0.1302 -0.5255 -0.0409
 3054TIP3    H1 9168   3.806   1.203   5.103  0.2234  1.0893 -0.1105
 3054TIP3    H2 9169   3.668   1.181   5.161  0.2510 -1.0393 -0.7713
 3055TIP3   OH2 9170   5.359   0.471   3.512 -0.3942 -0.1417  0.0314
 3055TIP3    H1 9171   5.264   0.477   3.518 -0.3304 -0.7132  2.4381
 3055TIP3    H2 9172   5.391   0.550   3.555  0.2268 -0.3455 -0.0482
 3056TIP3   OH2 9173   0.230   2.908   0.381 -0.8857 -0.0729 -0.0597
 3056TIP3    H1 9174   0.200   2.817   0.374 -0.5698 -0.3440  1.6173
 3056TIP3    H2 9175   0.232   2.925   0.475  1.3263  0.9052 -0.2228
 3057TIP3   OH2 9176   2.128   1.448   0.306  0.5722  0.5049 -0.0932
 3057TIP3    H1 9177   2.137   1.362   0.348 -0.8316 -0.5558 -1.8324
 3057TIP3    H2 9178   2.160   1.433   0.216 -3.1281  0.7159 -1.5988
 3058TIP3   OH2 9179   0.125   5.064   0.396 -0.4203  0.1946  0.1552
 3058TIP3    H1 9180   0.063   5.100   0.460  0.2226  0.4942  0.6222
 3058TIP3    H2 9181   0.211   5.096   0.425  0.0283 -0.7118 -0.1316
 3059TIP3   OH2 9182   5.068   1.773   0.491 -0.1734  0.1136 -0.3608
 3059TIP3    H1 9183   5.028   1.725   0.564  0.5650 -2.7888 -1.7106
 3059TIP3    H2 9184   4.994   1.802   0.438 -0.6425  0.1095  0.2831
 3060TIP3   OH2 9185   2.075   0.253   3.698  0.4577 -0.0712 -0.1590
 3060TIP3    H1 9186   2.067   0.345   3.673  1.1131 -0.4123 -1.7163
 3060TIP3    H2 9187   2.155   0.224   3.656  0.2053 -1.3932  0.2405
 3061TIP3   OH2 9188   3.961   1.898   4.581 -0.1292  0.6164 -0.0681
 3061TIP3    H1 9189   3.955   1.825   4.641 -1.7441  0.4673 -0.3633
 3061TIP3    H2 9190   4.017   1.962   4.625  0.0254 -0.1512  0.8644
 3062TIP3   OH2 9191   3.878   0.435   2.874 -0.6400  0.4182  0.5565
 3062TIP3    H1 9192   3.863   0.506   2.936 -0.1074 -0.3907  1.6565
 3062TIP3    H2 9193   3.900   0.478   2.792 -2.0611  1.5313  0.7272
 3063TIP3   OH2 9194   0.046   5.797   2.031 -0.1313 -0.1506  0.7844
 3063TIP3    H1 9195   0.128   5.812   1.984  0.0403  1.2585  1.4972
 3063TIP3    H2 9196  -0.012   5.760   1.964  0.3904  0.9559 -0.3348
 3064TIP3   OH2 9197   5.701   5.653   2.017 -0.7801 -0.2475  0.3923
 3064TIP3    H1 9198   5.734   5.594   2.085 -0.2627 -0.8144 -0.3366
 3064TIP3    H2 9199   5.614   5.619   1.996 -0.4288 -0.8565 -0.1240
 3065TIP3   OH2 9200   3.695   4.032   5.032 -0.5653  0.4029 -0.7077
 3065TIP3    H1 9201   3.744   3.956   5.061 -0.5280 -0.6354 -3.2174
 3065TIP3    H2 9202   3.703   4.095   5.103  2.7821 -0.4360 -0.1954
 3066TIP3   OH2 9203   4.818   5.229   0.044 -0.4680  0.1493 -0.0787
 3066TIP3    H1 9204   4.811   5.323   0.024 -1.6778  0.4543  1.5324
 3066TIP3    H2 9205   4.760   5.187  -0.019 -1.1582  0.6544  0.2069
 3067TIP3   OH2 9206   4.399   5.057   3.648  0.3423  0.0420 -0.2568
 3067TIP3    H1 9207   4.324   5.069   3.590 -0.1656 -1.8723 -0.0609
 3067TIP3    H2 9208   4.474   5.047   3.588  0.0449 -0.4983 -0.5464
 3068TIP3   OH2 9209   1.919   0.648   1.076  0.1289  0.2410  0.5907
 3068TIP3    H1 9210   1.952   0.696   1.000  0.5737 -0.5598  0.2602
 3068TIP3    H2 9211   1.932   0.556   1.053 -2.9504 -0.2001  0.1376
 3069TIP3   OH2 9212   6.021   1.887   2.781 -0.0369 -0.4731  0.7132
 3069TIP3    H1 9213   6.088   1.933   2.730  0.3792  1.1494  2.6057
 3069TIP3    H2 9214   6.071   1.824   2.833 -0.1739 -0.4830  0.8329
 3070TIP3   OH2 9215   3.695   4.956   4.034  0.1593  0.3462 -0.3788
 3070TIP3    H1 9216   3.615   4.979   4.081  0.8809  0.1247  0.9862
 3070TIP3    H2 9217   3.664   4.921   3.950 -1.1368  0.9789 -0.1874
 3071TIP3   OH2 9218   1.870   4.032   2.985 -0.2316 -0.3053 -0.3739
 3071TIP3    H1 9219   1.841   4.017   2.895 -0.8790 -0.1683 -0.1934
 3071TIP3    H2 9220   1.798   3.998   3.039  0.6781 -1.5282  0.1196
 3072TIP3   OH2 9221   5.965   2.361   4.844 -0.5289 -0.0841  0.8823
 3072TIP3    H1 9222   6.060   2.363   4.843 -0.5035  0.7459  2.0836
 3072TIP3    H2 9223   5.943   2.285   4.899 -0.5279  0.3893  1.5490
 3073TIP3   OH2 9224   3.432   5.001   2.030  0.0502 -0.1520 -0.0584
 3073TIP3    H1 9225   3.522   4.990   2.061 -0.4543 -0.9916  1.1653
 3073TIP3    H2 9226   3.413   4.920   1.981  0.3995  0.6123 -1.5306
 3074TIP3   OH2 9227   6.072   2.197   1.319 -0.4786 -0.4153 -0.2894
 3074TIP3    H1 9228   6.059   2.105   1.343  0.7940 -0.3115  0.9969
 3074TIP3    H2 9229   6.143   2.226   1.377 -0.7716  1.3438 -0.7660
 3075TIP3   OH2 9230   1.018   3.536   1.092 -0.1661  0.4404  0.2122
 3075TIP3    H1 9231   1.010   3.444   1.118 -1.3835  0.3339 -0.4735
 3075TIP3    H2 9232   1.079   3.536   1.019 -2.6935 -0.3278 -2.0426
 3076TIP3   OH2 9233   1.920   3.691   3.363 -0.0096  0.2705  0.2366
 3076TIP3    H1 9234   1.840   3.717   3.317  0.9924  2.0464 -0.5978
 3076TIP3    H2 9235   1.894   3.683   3.454 -1.2136  0.4309 -0.0790
 3077TIP3   OH2 9236   0.094   0.266   5.107 -0.5032  0.3337  0.4110
 3077TIP3    H1 9237   0.050   0.194   5.153 -1.0691  0.8086  0.6327
 3077TIP3    H2 9238   0.157   0.300   5.171  1.4079 -1.3830 -0.4466
 3078TIP3   OH2 9239   2.161   2.519   3.345  0.4699 -0.3324 -0.0454
 3078TIP3    H1 9240   2.239   2.571   3.324  0.1446  0.4861  0.6979
 3078TIP3    H2 9241   2.089   2.581   3.335  0.1593 -0.3588  1.8096
 3079TIP3   OH2 9242   4.148   5.534   3.266  0.2690 -0.3124  0.0198
 3079TIP3    H1 9243   4.182   5.571   3.348  2.2587 -1.7448 -0.0796
 3079TIP3    H2 9244   4.226   5.513   3.215 -0.8903 -1.0426 -1.5386
 3080TIP3   OH2 9245   1.141   0.017   0.728  0.8242  0.4311 -0.2795
 3080TIP3    H1 9246   1.103   0.105   0.735 -1.2498 -0.4660  0.3536
 3080TIP3    H2 9247   1.107  -0.017   0.646  0.3861 -0.3506  0.2262
 3081TIP3   OH2 9248   5.214   4.300   0.340  0.3936  0.0976 -0.2063
 3081TIP3    H1 9249   5.169   4.329   0.260  0.3666 -0.7596 -0.5120
 3081TIP3    H2 9250   5.143   4.283   0.402  0.4377  1.4004  0.2499
 3082TIP3   OH2 9251   2.846   4.227   3.193 -0.1944  0.2974  0.2877
 3082TIP3    H1 9252   2.903   4.278   3.136  0.8131 -0.4163  0.6287
 3082TIP3    H2 9253   2.832   4.283   3.270 -1.0762  1.0188 -0.3766
 3083TIP3   OH2 9254   1.594   2.722   4.885 -0.2555 -0.1759  0.0228
 3083TIP3    H1 9255   1.590   2.647   4.944  1.5334 -0.2539  0.1001
 3083TIP3    H2 9256   1.530   2.703   4.817  0.8706 -2.3168 -0.5308
 3084TIP3   OH2 9257   2.570   3.389   4.854  0.2421  0.0003  0.0966
 3084TIP3    H1 9258   2.535   3.454   4.915 -0.7195  0.1474 -0.5851
 3084TIP3    H2 9259   2.660   3.417   4.839 -0.1408  1.1783 -0.1455
 3085TIP3   OH2 9260   5.779   3.518   2.994 -0.1666 -0.7678  0.1523
 3085TIP3    H1 9261   5.792   3.443   3.052  0.1857  1.1649  2.7635
 3085TIP3    H2 9262   5.858   3.571   3.007 -0.8490  0.5344 -0.8560
 3086TIP3   OH2 9263   3.890   3.955   3.644 -0.5324  0.4017  0.1544
 3086TIP3    H1 9264   3.916   3.983   3.556 -1.4049  1.2436  0.1490
 3086TIP3    H2 9265   3.844   4.030   3.681 -0.5022 -0.0712  1.2039
 3087TIP3   OH2 9266   0.463   2.976   0.835  0.1228  0.0117  0.5353
 3087TIP3    H1 9267   0.482   3.042   0.769  1.3386 -0.7437  0.1060
 3087TIP3    H2 9268   0.494   2.894   0.796  0.9535 -0.4322  2.0800
 3088TIP3   OH2 9269   3.707   1.358   3.470 -0.6652 -0.2310  0.4028
 3088TIP3    H1 9270   3.785   1.303   3.479 -1.3397 -1.2943 -0.0464
 3088TIP3    H2 9271   3.648   1.329   3.539 -0.5158  0.8676  1.0161
 3089TIP3   OH2 9272   0.166   4.615   0.719 -0.0919 -0.4656  0.6913
 3089TIP3    H1 9273   0.109   4.661   0.657 -0.4156 -0.4641  0.9853
 3089TIP3    H2 9274   0.136   4.645   0.805  0.1503 -0.7026  0.8575
 3090TIP3   OH2 9275   0.070   4.943   2.422  0.2363 -0.3725  0.3971
 3090TIP3    H1 9276   0.025   5.010   2.473 -1.1841 -0.8787 -0.1354
 3090TIP3    H2 9277   0.052   4.861   2.467  0.2650 -0.6383 -0.0658
 3091TIP3   OH2 9278   5.287   2.257   2.699 -0.1543 -0.2845 -0.4613
 3091TIP3    H1 9279   5.282   2.235   2.792  0.1885 -1.5302 -0.7243
 3091TIP3    H2 9280   5.381   2.267   2.682 -0.2729  1.0336 -0.4494
 3092TIP3   OH2 9281   6.230   1.665   0.163  0.0848  0.3083  0.1771
 3092TIP3    H1 9282   6.320   1.688   0.138  0.1284 -0.8533 -0.8449
 3092TIP3    H2 9283   6.232   1.662   0.259  1.6489 -1.5506  0.1432
 3093TIP3   OH2 9284   0.131   2.349   2.186  0.3330 -0.3239  0.2140
 3093TIP3    H1 9285   0.184   2.274   2.211  1.2092  0.2178  0.0230
 3093TIP3    H2 9286   0.059   2.349   2.249  0.2282 -1.4085  0.1166
 3094TIP3   OH2 9287   2.827   4.981   3.378 -0.3432  0.6206  0.3700
 3094TIP3    H1 9288   2.903   4.933   3.412 -0.7062  1.2480  2.1519
 3094TIP3    H2 9289   2.765   4.982   3.451 -1.6599  1.0119 -0.7190
 3095TIP3   OH2 9290   1.522   4.174   2.660 -0.1439  0.1976  0.5288
 3095TIP3    H1 9291   1.554   4.265   2.661  1.8157 -0.4286  0.2250
 3095TIP3    H2 9292   1.433   4.180   2.627 -0.5416  2.1380  1.7817
 3096TIP3   OH2 9293   3.114   2.485   3.150  0.4948  0.1315  0.0648
 3096TIP3    H1 9294   3.146   2.569   3.183  2.0208 -0.2103 -0.4954
 3096TIP3    H2 9295   3.183   2.454   3.092 -0.3947 -1.1588 -0.3379
 3097TIP3   OH2 9296   5.070   2.843   4.962 -0.1832 -0.1680 -0.3827
 3097TIP3    H1 9297   5.141   2.907   4.971 -2.2703  2.1838  0.2550
 3097TIP3    H2 9298   5.020   2.873   4.887  0.0804 -2.4911 -1.5800
 3098TIP3   OH2 9299   4.197   2.958   0.724  0.8173  1.1254  0.2785
 3098TIP3    H1 9300   4.276   2.916   0.689  0.5339 -0.1380  1.0487
 3098TIP3    H2 9301   4.170   3.020   0.657  1.4942  0.3307 -0.7620
 3099TIP3   OH2 9302   3.389   2.659   4.473 -0.2861  0.2710  0.2973
 3099TIP3    H1 9303   3.440   2.733   4.506  0.4213  0.1129 -0.4221
 3099TIP3    H2 9304   3.436   2.582   4.504 -0.0465  0.1230 -0.4173
 3100TIP3   OH2 9305   3.594   1.986   0.377  0.0830 -0.1007  0.3529
 3100TIP3    H1 9306   3.514   1.937   0.358  0.2709 -0.9710  1.6477
 3100TIP3    H2 9307   3.664   1.921   0.371  0.8050  0.7961 -1.4422
 3101TIP3   OH2 9308   1.421   3.278   2.899  0.2768  0.7071  0.3168
 3101TIP3    H1 9309   1.474   3.285   2.820  1.0750  0.3868  0.8036
 3101TIP3    H2 9310   1.388   3.188   2.898  0.1695  0.7468  0.2767
 3102TIP3   OH2 9311   4.903   0.570   1.903  0.1650  1.0002 -0.2127
 3102TIP3    H1 9312   4.901   0.664   1.920  0.5337  0.7000  1.6660
 3102TIP3    H2 9313   4.935   0.532   1.984  1.4910 -0.6378 -1.4347
 3103TIP3   OH2 9314   1.162   5.738   2.739 -0.4309 -0.5204 -0.3555
 3103TIP3    H1 9315   1.178   5.686   2.818  3.0475 -0.4241 -0.8009
 3103TIP3    H2 9316   1.104   5.684   2.686 -0.9119 -1.6668  1.2574
 3104TIP3   OH2 9317   3.280   5.162   2.290 -0.0817 -0.3847  0.1827
 3104TIP3    H1 9318   3.243   5.077   2.310  2.1291 -1.3700  0.4242
 3104TIP3    H2 9319   3.305   5.198   2.375 -0.6921  0.3844  0.0544
 3105TIP3   OH2 9320   0.981   1.912   3.339  0.1060 -0.0951  0.5077
 3105TIP3    H1 9321   0.912   1.904   3.406 -0.1268  0.7907  0.3795
 3105TIP3    H2 9322   1.047   1.848   3.366 -1.8723 -2.9230 -0.7681
 3106TIP3   OH2 9323   5.735   1.006   3.493  0.1162 -0.6612 -0.2386
 3106TIP3    H1 9324   5.731   1.067   3.567  1.0198 -2.4833  1.4177
 3106TIP3    H2 9325   5.646   1.006   3.458  0.0116  1.3242 -0.1124
 3107TIP3   OH2 9326   1.424   2.571   2.489  0.1961  0.3352 -0.1832
 3107TIP3    H1 9327   1.414   2.621   2.570 -0.3569 -0.1073  0.0213
 3107TIP3    H2 9328   1.392   2.484   2.510  1.8250 -0.3320 -0.3252
 3108TIP3   OH2 9329   5.118   3.446   4.263  0.1735  0.2134 -0.2186
 3108TIP3    H1 9330   5.160   3.367   4.296  0.5836  0.0315 -1.1275
 3108TIP3    H2 9331   5.177   3.477   4.194 -0.8980  0.2460 -1.1523
 3109TIP3   OH2 9332   2.420   0.642   1.599  0.0083  0.2925  0.2970
 3109TIP3    H1 9333   2.358   0.713   1.581  0.2543  1.3853  3.2542
 3109TIP3    H2 9334   2.365   0.564   1.610 -0.6916  0.8991  1.1920
 3110TIP3   OH2 9335   1.435   2.497   5.023  0.2184  0.4593 -0.2006
 3110TIP3    H1 9336   1.447   2.499   5.118  0.9951 -0.0215 -0.2840
 3110TIP3    H2 9337   1.401   2.584   5.002  1.0243  0.9276  0.3850
 3111TIP3   OH2 9338   3.010   2.662   1.568 -0.1869  0.9018 -0.2795
 3111TIP3    H1 9339   2.989   2.643   1.477 -1.7024 -0.0414  0.2190
 3111TIP3    H2 9340   3.101   2.633   1.579 -0.2455  0.2931 -1.2918
 3112TIP3   OH2 9341   3.094   4.641   1.031  0.1026 -0.8079 -0.0186
 3112TIP3    H1 9342   3.019   4.618   0.977 -0.2973 -2.1352  1.0330
 3112TIP3    H2 9343   3.146   4.560   1.036  2.7818  0.5861 -2.4346
 3113TIP3   OH2 9344   2.364   3.935   4.731  0.3350  0.1151 -0.0848
 3113TIP3    H1 9345   2.404   3.983   4.658  1.8176 -1.2434 -0.2149
 3113TIP3    H2 9346   2.391   3.845   4.718 -3.0138 -0.9897 -0.2838
 3114TIP3   OH2 9347   5.658   3.496   4.861 -0.5889  1.0172  0.7004
 3114TIP3    H1 9348   5.689   3.406   4.868  0.4046  1.4732  6.0319
 3114TIP3    H2 9349   5.737   3.547   4.840 -0.5623  0.9128  0.5464
 3115TIP3   OH2 9350   2.137   3.939   2.731 -0.5726  0.3995  0.7045
 3115TIP3    H1 9351   2.229   3.921   2.748 -0.6852 -0.0299  0.8773
 3115TIP3    H2 9352   2.115   4.011   2.791  0.2262  2.0699 -0.9312
 3116TIP3   OH2 9353   6.143   5.171   2.015 -0.2707 -0.2807 -0.4104
 3116TIP3    H1 9354   6.143   5.255   2.061  1.6873 -0.3789 -0.1181
 3116TIP3    H2 9355   6.137   5.106   2.085 -0.9312 -0.3947 -0.5723
 3117TIP3   OH2 9356   4.591   2.242   4.150  0.4197 -0.2857  0.0743
 3117TIP3    H1 9357   4.543   2.220   4.070  0.2681  0.1600  0.0380
 3117TIP3    H2 9358   4.589   2.162   4.202  0.7630 -0.6687 -0.4884
 3118TIP3   OH2 9359   5.154   3.100   1.074 -0.1839 -0.0601  0.7177
 3118TIP3    H1 9360   5.140   3.111   0.980  0.2511  0.1278  0.6722
 3118TIP3    H2 9361   5.078   3.141   1.114 -0.4933 -0.3606  0.4421
 3119TIP3   OH2 9362   2.930   3.792   3.901 -0.0853  0.2654 -0.2163
 3119TIP3    H1 9363   2.969   3.827   3.821  0.0654 -1.8675 -1.1741
 3119TIP3    H2 9364   2.976   3.836   3.972 -1.0919  3.1806 -1.2210
 3120TIP3   OH2 9365   3.552   3.802   4.442  0.6056  0.1468  0.3361
 3120TIP3    H1 9366   3.469   3.767   4.410 -0.2400  1.4052  1.0773
 3120TIP3    H2 9367   3.570   3.750   4.521 -0.3772  0.9591  1.1345
 3121TIP3   OH2 9368   0.314   0.381   2.984 -0.4396  0.3717 -0.2740
 3121TIP3    H1 9369   0.327   0.324   3.060 -0.9082  1.0703  0.3357
 3121TIP3    H2 9370   0.403   0.410   2.961 -0.2964  0.1574  0.0027
 3122TIP3   OH2 9371   5.274   0.839   0.009  0.4295  0.1068  0.0266
 3122TIP3    H1 9372   5.217   0.773   0.049  0.2411 -0.5789 -1.3159
 3122TIP3    H2 9373   5.318   0.881   0.083  1.3235 -2.2246  0.9154
 3123TIP3   OH2 9374   3.332   2.996   3.502  0.8018 -0.1499 -0.2384
 3123TIP3    H1 9375   3.369   3.080   3.473 -0.4124  0.6302  0.3929
 3123TIP3    H2 9376   3.252   2.986   3.450  0.5035 -0.5041  0.2790
 3124TIP3   OH2 9377   1.959   4.922   4.926  0.2204  0.1794 -0.2527
 3124TIP3    H1 9378   1.897   4.930   4.854 -1.1705  0.0079  0.8766
 3124TIP3    H2 9379   1.905   4.898   5.002  1.8199 -1.2967  0.5034
 3125TIP3   OH2 9380   5.168   3.275   0.535  0.1576 -0.3500 -0.0267
 3125TIP3    H1 9381   5.176   3.195   0.587  1.2954 -0.3807 -0.2241
 3125TIP3    H2 9382   5.258   3.301   0.517 -0.2081 -0.3189 -1.9642
 3126TIP3   OH2 9383   4.874   0.675   4.325  0.1783  0.1343 -0.2935
 3126TIP3    H1 9384   4.845   0.598   4.277  1.9215 -0.4468 -0.4584
 3126TIP3    H2 9385   4.795   0.730   4.333 -0.3627 -0.1464 -3.0246
 3127TIP3   OH2 9386   0.649   4.810   4.808 -0.5948  0.0221  0.5686
 3127TIP3    H1 9387   0.739   4.787   4.788 -0.7755  0.0579 -0.3288
 3127TIP3    H2 9388   0.597   4.762   4.743 -1.3092 -0.9124  1.7835
 3128TIP3   OH2 9389   2.343   4.941   3.204 -0.1459 -0.2717 -0.3905
 3128TIP3    H1 9390   2.286   4.976   3.136  0.1831  1.5149  0.1965
 3128TIP3    H2 9391   2.430   4.972   3.180  0.3639 -1.7062 -0.4683
 3129TIP3   OH2 9392   3.530   2.682   1.956  0.3566 -0.1467  0.2468
 3129TIP3    H1 9393   3.542   2.674   1.861  1.4846 -0.6125  0.4092
 3129TIP3    H2 9394   3.580   2.608   1.992  0.2171  0.2274  1.2193
 3130TIP3   OH2 9395   5.825   4.094   1.992  1.0276  0.8401  0.3495
 3130TIP3    H1 9396   5.811   4.123   2.082  1.2816 -0.8963  0.9848
 3130TIP3    H2 9397   5.841   4.000   1.999  0.0472  0.4692 -1.6064
 3131TIP3   OH2 9398   6.103   1.270   4.086  0.2405 -0.3285  0.2897
 3131TIP3    H1 9399   6.175   1.221   4.047  0.6697  1.3631 -1.2060
 3131TIP3    H2 9400   6.134   1.295   4.172  1.0109 -0.5315  0.0800
 3132TIP3   OH2 9401   2.184   1.933   4.584  0.4956  0.4423 -0.3628
 3132TIP3    H1 9402   2.121   1.984   4.635  0.0422 -0.9111  0.4856
 3132TIP3    H2 9403   2.130   1.880   4.525  0.7932 -0.8740  0.5041
 3133TIP3   OH2 9404   2.262   0.850   3.965 -0.0764  0.2568  0.2463
 3133TIP3    H1 9405   2.331   0.790   3.996  1.8598  2.5948  0.7633
 3133TIP3    H2 9406   2.291   0.877   3.879 -0.6823  0.8329  0.2184
 3134TIP3   OH2 9407   0.915   0.809   2.215  0.6117  0.1658 -0.1933
 3134TIP3    H1 9408   0.937   0.722   2.181  2.3480 -0.0279  1.2610
 3134TIP3    H2 9409   0.836   0.795   2.266  1.2726 -0.7530  0.6285
 3135TIP3   OH2 9410   4.227   3.435   1.004 -0.0520  0.0424 -0.6091
 3135TIP3    H1 9411   4.185   3.457   1.087  1.1255 -1.3756  0.4122
 3135TIP3    H2 9412   4.245   3.341   1.010 -2.7427 -0.8867 -3.7678
 3136TIP3   OH2 9413   6.131   4.564   3.334  0.7381 -0.7654  0.2179
 3136TIP3    H1 9414   6.207   4.542   3.280  1.0133 -1.3546  0.8298
 3136TIP3    H2 9415   6.058   4.519   3.292  0.6015  0.2852 -0.7157
 3137TIP3   OH2 9416   0.870   2.553   3.206 -0.4379  0.2551  0.1047
 3137TIP3    H1 9417   0.959   2.543   3.173 -0.2811 -0.5356  0.7343
 3137TIP3    H2 9418   0.879   2.550   3.301 -1.1700 -0.1497  0.1702
 3138TIP3   OH2 9419   2.747   3.251   0.564 -0.2592 -0.1018 -0.5325
 3138TIP3    H1 9420   2.793   3.239   0.481  0.8633 -0.7086  0.1590
 3138TIP3    H2 9421   2.691   3.174   0.572 -1.6282  0.7437 -1.4813
 3139TIP3   OH2 9422   3.110   5.882   2.382  0.2352  0.2084 -0.1130
 3139TIP3    H1 9423   3.121   5.966   2.425 -2.0107  0.0293  0.9884
 3139TIP3    H2 9424   3.116   5.901   2.289  2.3200  1.1038  0.1540
 3140TIP3   OH2 9425   3.784   0.460   4.176  0.4367 -0.7312  0.0809
 3140TIP3    H1 9426   3.793   0.437   4.084 -0.2608 -2.7571  0.4720
 3140TIP3    H2 9427   3.696   0.429   4.199  0.4474  0.1147  1.3347
 3141TIP3   OH2 9428   5.890   2.803   3.934 -0.1130  0.3190 -0.0147
 3141TIP3    H1 9429   5.957   2.863   3.900  0.0531 -0.3113 -0.8281
 3141TIP3    H2 9430   5.812   2.821   3.882 -0.0789 -0.1301 -0.2259
 3142TIP3   OH2 9431   3.397   4.634   4.457  0.3375  0.0378 -0.3692
 3142TIP3    H1 9432   3.390   4.640   4.362 -0.3143 -2.6604 -0.5620
 3142TIP3    H2 9433   3.472   4.575   4.472 -0.1560 -0.3445  0.7357
 3143TIP3   OH2 9434   2.140   3.604   1.455 -0.2166  0.0261 -0.1272
 3143TIP3    H1 9435   2.123   3.544   1.383 -0.2694  0.2432 -0.2972
 3143TIP3    H2 9436   2.121   3.691   1.419 -1.7644  0.0171  0.5944
 3144TIP3   OH2 9437   3.578   2.178   3.859 -0.8764 -0.1524 -0.3568
 3144TIP3    H1 9438   3.514   2.240   3.825 -1.1925 -0.9723 -1.3064
 3144TIP3    H2 9439   3.532   2.133   3.931 -0.6900  0.5963  0.2442
 3145TIP3   OH2 9440   2.772   1.668   2.053 -0.5596  0.4711  0.4411
 3145TIP3    H1 9441   2.839   1.643   2.117 -1.2891  0.9067  1.3982
 3145TIP3    H2 9442   2.690   1.638   2.092 -0.9378 -0.0119 -0.6946
 3146TIP3   OH2 9443   1.931   3.341   4.492 -0.4515 -0.4826 -0.0108
 3146TIP3    H1 9444   1.923   3.268   4.430 -1.1708 -0.8612  0.5208
 3146TIP3    H2 9445   1.893   3.416   4.445  2.5686  0.2626 -1.5981
 3147TIP3   OH2 9446   2.042   1.974   3.715 -0.7462  0.1663 -0.1771
 3147TIP3    H1 9447   2.084   2.056   3.740  0.5359 -0.4873 -0.0771
 3147TIP3    H2 9448   2.084   1.949   3.632 -0.2896 -0.9298  0.3555
 3148TIP3   OH2 9449   6.024   1.090   0.971  0.0076  0.2606  0.0433
 3148TIP3    H1 9450   5.968   1.083   1.048 -0.6007 -0.4108 -0.4571
 3148TIP3    H2 9451   5.970   1.062   0.898  0.9319 -0.2376 -0.4777
 3149TIP3   OH2 9452   1.107   1.634   1.428 -0.4166  0.4474 -0.2892
 3149TIP3    H1 9453   1.080   1.726   1.432  1.6196  1.0679  0.4342
 3149TIP3    H2 9454   1.189   1.636   1.379 -0.3979 -1.0079 -0.3367
 3150TIP3   OH2 9455   3.701   2.403   3.474  0.1180 -0.2221 -0.2324
 3150TIP3    H1 9456   3.769   2.373   3.413 -0.9283 -2.1427 -0.5267
 3150TIP3    H2 9457   3.695   2.333   3.539 -0.7580  0.4808  0.4699
 3151TIP3   OH2 9458   3.040   1.422   0.558  0.1998 -0.2600  0.0629
 3151TIP3    H1 9459   3.072   1.490   0.617 -1.5328  1.3262 -0.7196
 3151TIP3    H2 9460   2.952   1.403   0.589 -0.0017 -0.8286 -0.8231
 3152TIP3   OH2 9461   4.405   3.739   0.933 -0.0463  0.2800 -0.1393
 3152TIP3    H1 9462   4.437   3.825   0.905 -3.6404  1.6306 -0.5504
 3152TIP3    H2 9463   4.426   3.681   0.860  2.3989  0.7160  0.1275
 3153TIP3   OH2 9464   3.562   2.429   4.539 -0.4845 -0.4542 -0.4703
 3153TIP3    H1 9465   3.587   2.352   4.591 -2.0415 -1.6898 -1.4748
 3153TIP3    H2 9466   3.618   2.425   4.462 -2.5612 -2.3778 -1.9971
 3154TIP3   OH2 9467   1.057   5.501   4.520  0.5137 -0.2343  0.1808
 3154TIP3    H1 9468   0.980   5.536   4.475 -0.3137 -0.0979  1.6612
 3154TIP3    H2 9469   1.127   5.563   4.500  0.5906 -0.9823 -2.1630
 3155TIP3   OH2 9470   6.000   1.277   1.855  0.2604 -0.1842 -0.0005
 3155TIP3    H1 9471   6.056   1.353   1.871  0.5498 -0.7972  2.1678
 3155TIP3    H2 9472   6.038   1.207   1.908 -1.9260 -0.9042  0.7299
 3156TIP3   OH2 9473   3.540   5.591   4.211  0.6963 -0.3944 -1.1011
 3156TIP3    H1 9474   3.615   5.613   4.266 -0.4451 -3.1103  1.8496
 3156TIP3    H2 9475   3.503   5.676   4.186  2.4460  0.9774  0.6556
 3157TIP3   OH2 9476   0.646   2.363   2.167  0.1759  0.1183 -0.1208
 3157TIP3    H1 9477   0.718   2.388   2.109  0.5392  0.5843  0.5251
 3157TIP3    H2 9478   0.567   2.387   2.118  0.4897  1.1945 -0.1313
 3158TIP3   OH2 9479   3.429   2.695   3.697 -0.4328 -0.0647 -0.1218
 3158TIP3    H1 9480   3.351   2.744   3.673  0.5673  1.9217  0.4039
 3158TIP3    H2 9481   3.483   2.759   3.744  1.7747 -1.1864 -1.0064
 3159TIP3   OH2 9482   2.443   4.930   4.480 -0.0184 -0.2718 -0.1911
 3159TIP3    H1 9483   2.515   4.900   4.536  1.4985 -1.4292 -2.5744
 3159TIP3    H2 9484   2.368   4.876   4.506 -0.1636  0.9818  2.3715
 3160TIP3   OH2 9485   1.681   1.819   4.507  0.0448  0.1989 -0.4947
 3160TIP3    H1 9486   1.620   1.847   4.575  0.8554  3.1596 -0.8463
 3160TIP3    H2 9487   1.754   1.779   4.554 -0.9160 -0.9339  0.0884
 3161TIP3   OH2 9488   2.535   2.281   1.990  0.1581 -0.2871  0.2105
 3161TIP3    H1 9489   2.472   2.220   1.952 -0.2104 -0.0770  0.4776
 3161TIP3    H2 9490   2.618   2.233   1.990 -0.0716 -0.6868  0.1708
 3162TIP3   OH2 9491   5.913   1.461   3.990 -0.2870 -0.1642  0.1573
 3162TIP3    H1 9492   5.951   1.388   4.037 -1.5222 -1.1308 -0.2766
 3162TIP3    H2 9493   5.931   1.442   3.898  0.8360  0.9538  0.1247
 3163TIP3   OH2 9494   2.115   2.811   0.118  0.4218  0.0546  0.5082
 3163TIP3    H1 9495   2.202   2.825   0.081  1.1538 -1.0373  1.7438
 3163TIP3    H2 9496   2.070   2.756   0.054  0.1064  1.7463 -0.8005
 3164TIP3   OH2 9497   2.250   0.638   3.718 -0.2667 -0.0798  0.7119
 3164TIP3    H1 9498   2.226   0.730   3.703  1.9503  0.1911 -1.9835
 3164TIP3    H2 9499   2.345   0.636   3.705 -0.4757 -3.0817 -1.3315
 3165TIP3   OH2 9500   5.014   0.045   3.013 -0.5049  0.0336  0.9275
 3165TIP3    H1 9501   4.978   0.133   3.018 -0.5138  0.0527  0.5548
 3165TIP3    H2 9502   4.961   0.000   2.947 -0.8987 -0.4482  1.5520
 3166TIP3   OH2 9503   5.754   2.135   4.898 -0.6137  0.2213 -0.0620
 3166TIP3    H1 9504   5.784   2.136   4.989 -1.4394  0.5411  0.2148
 3166TIP3    H2 9505   5.778   2.048   4.866 -0.0679  0.2056  0.3742
 3167TIP3   OH2 9506   0.361   2.808   2.114  0.4943  0.2685  0.0386
 3167TIP3    H1 9507   0.400   2.843   2.194  1.4456 -0.7159  0.0367
 3167TIP3    H2 9508   0.307   2.735   2.143  0.7161  0.0087 -0.1946
 3168TIP3   OH2 9509   0.731   1.402   0.334  0.3147  0.5128 -0.5835
 3168TIP3    H1 9510   0.654   1.395   0.391 -0.5216 -2.3428 -1.8976
 3168TIP3    H2 9511   0.806   1.392   0.394 -0.3412  1.8109  0.5077
 3169TIP3   OH2 9512   3.489   4.042   4.862  0.4438  0.5086  0.3918
 3169TIP3    H1 9513   3.472   4.136   4.865 -0.0349  0.4773 -0.9743
 3169TIP3    H2 9514   3.554   4.027   4.931  0.3686  1.8002  0.7614
 3170TIP3   OH2 9515   3.480   5.566   1.871 -0.3100  0.5774 -0.1203
 3170TIP3    H1 9516   3.393   5.531   1.851 -0.4223  0.6071  0.3031
 3170TIP3    H2 9517   3.494   5.544   1.963  0.7325 -0.7048 -0.5500
 3171TIP3   OH2 9518   5.725   2.924   4.146  0.0893  0.1784 -0.3723
 3171TIP3    H1 9519   5.768   2.846   4.109 -0.6314  0.0140 -0.8870
 3171TIP3    H2 9520   5.740   2.917   4.240 -0.5649 -0.9746 -0.3316
 3172TIP3   OH2 9521   0.148   2.323   3.316 -0.3544  0.7841 -0.2172
 3172TIP3    H1 9522   0.094   2.386   3.268 -0.9736  1.3800  1.1886
 3172TIP3    H2 9523   0.086   2.275   3.371  0.3168  0.0727 -0.0586
 3173TIP3   OH2 9524   4.159   3.063   4.630  0.1585 -0.2754  0.4290
 3173TIP3    H1 9525   4.119   3.149   4.627 -0.7362 -0.6822  0.1885
 3173TIP3    H2 9526   4.187   3.052   4.721  0.8074  0.4863  0.3303
 3174TIP3   OH2 9527   1.262   0.479   0.414  0.1438  0.2514  0.0462
 3174TIP3    H1 9528   1.283   0.571   0.427 -0.7918  0.7774 -1.7938
 3174TIP3    H2 9529   1.250   0.444   0.503  2.5263  1.3567  0.8703
 3175TIP3   OH2 9530   0.105   4.823   3.777 -0.1446  0.3747  0.0522
 3175TIP3    H1 9531   0.045   4.799   3.706  0.8045 -1.3006 -0.2458
 3175TIP3    H2 9532   0.048   4.839   3.852 -0.9833 -2.1510  0.0458
 3176TIP3   OH2 9533   1.859   1.785   4.702 -0.1128  0.2583 -0.2580
 3176TIP3    H1 9534   1.907   1.713   4.742 -1.1029 -1.0800 -1.3807
 3176TIP3    H2 9535   1.920   1.823   4.639 -0.2041 -0.8906 -1.0693
 3177TIP3   OH2 9536   4.107   5.391   1.078  0.1600  0.2651  0.0419
 3177TIP3    H1 9537   4.176   5.415   1.016  0.2888 -0.3637 -0.0663
 3177TIP3    H2 9538   4.027   5.426   1.040  0.2886  0.1779 -0.3140
 3178TIP3   OH2 9539   0.963   1.232   2.038  0.3934  0.1089  0.3383
 3178TIP3    H1 9540   0.875   1.238   2.000 -1.2691 -0.4287  3.6936
 3178TIP3    H2 9541   0.989   1.323   2.053  0.3304  0.2655 -0.4651
 3179TIP3   OH2 9542   2.661   2.765   0.909 -0.0407  0.1768 -0.2030
 3179TIP3    H1 9543   2.592   2.831   0.900  0.6210  0.7147 -1.5414
 3179TIP3    H2 9544   2.684   2.768   1.002 -2.3203 -0.5641  0.4675
 3180TIP3   OH2 9545   1.851   5.530   0.839 -0.1086 -0.1437  0.5479
 3180TIP3    H1 9546   1.875   5.590   0.768 -1.3567 -0.6144 -0.3009
 3180TIP3    H2 9547   1.834   5.447   0.795 -1.4242 -0.3062  1.3170
 3181TIP3   OH2 9548   5.834   1.054   0.766  0.2867  0.1197 -0.2087
 3181TIP3    H1 9549   5.893   0.995   0.720  0.1299 -0.1992 -0.0043
 3181TIP3    H2 9550   5.775   1.087   0.698 -0.1440 -0.5910 -0.1912
 3182TIP3   OH2 9551   3.044   3.230   2.187  0.3680 -0.9751  0.1193
 3182TIP3    H1 9552   3.039   3.291   2.260 -2.3432 -0.4030 -0.4372
 3182TIP3    H2 9553   3.009   3.148   2.222 -0.4911 -0.8314 -0.3688
 3183TIP3   OH2 9554   3.588   3.104   1.047  0.2401  0.2570  0.5283
 3183TIP3    H1 9555   3.626   3.138   0.966  1.4523  0.6717  1.2459
 3183TIP3    H2 9556   3.661   3.062   1.093 -0.3110  0.4545  1.6318
 3184TIP3   OH2 9557   0.326   4.623   0.317  0.6831 -0.5617 -0.4277
 3184TIP3    H1 9558   0.309   4.610   0.224 -1.2115  2.1359 -0.5511
 3184TIP3    H2 9559   0.366   4.709   0.323 -0.6261 -0.0152  1.3363
 3185TIP3   OH2 9560   0.278   1.981   4.254 -0.5536  0.7990  0.3034
 3185TIP3    H1 9561   0.255   1.888   4.249 -0.4187  0.7138  1.1087
 3185TIP3    H2 9562   0.374   1.983   4.255 -0.5170  0.7596  2.7065
 3186TIP3   OH2 9563   1.370   3.327   1.557 -0.4564 -0.2178 -0.1543
 3186TIP3    H1 9564   1.417   3.409   1.542 -2.4550  0.7970 -1.2716
 3186TIP3    H2 9565   1.316   3.345   1.634  0.0702 -0.9490  0.3896
 3187TIP3   OH2 9566   3.763   3.557   1.119  0.2686 -0.6758  0.3348
 3187TIP3    H1 9567   3.741   3.508   1.039 -2.0034  0.6404  0.0728
 3187TIP3    H2 9568   3.728   3.503   1.190 -1.3886  0.0344  0.1085
 3188TIP3   OH2 9569   0.542   3.743   2.263  0.1556 -0.6272  0.1831
 3188TIP3    H1 9570   0.592   3.758   2.344  0.8830 -0.6751 -0.2541
 3188TIP3    H2 9571   0.478   3.815   2.262  0.2131 -0.5593  0.7425
 3189TIP3   OH2 9572   1.024   3.785   2.031  0.2960 -0.2666 -0.1200
 3189TIP3    H1 9573   0.942   3.812   2.072  0.4415 -0.6340  0.4209
 3189TIP3    H2 9574   0.996   3.741   1.950  0.0485  1.2299 -0.8945
 3190TIP3   OH2 9575   2.511   2.526   4.227  0.0480 -0.2429 -0.2710
 3190TIP3    H1 9576   2.592   2.573   4.246  0.8593 -1.8156  0.3130
 3190TIP3    H2 9577   2.490   2.480   4.308 -0.3244 -1.4453 -1.0234
 3191TIP3   OH2 9578   5.869   5.002   1.917  0.3911  0.1266 -0.0164
 3191TIP3    H1 9579   5.892   4.910   1.934 -1.1787 -0.2893  0.0445
 3191TIP3    H2 9580   5.834   5.033   2.000  1.6162  1.0307  0.1795
 3192TIP3   OH2 9581   4.427   3.599   3.427  0.1286  0.2339 -0.0924
 3192TIP3    H1 9582   4.426   3.651   3.347 -1.9720 -0.2174 -0.4312
 3192TIP3    H2 9583   4.495   3.534   3.414 -0.9603 -0.5818 -2.0597
 3193TIP3   OH2 9584   2.968   5.264   2.447 -0.0723  0.0040  0.4752
 3193TIP3    H1 9585   2.932   5.352   2.459  0.8199  0.4121  0.2097
 3193TIP3    H2 9586   2.985   5.258   2.353  1.3304  0.1367  0.7041
 3194TIP3   OH2 9587   5.335   2.598   4.303 -0.0215 -0.0531 -0.0727
 3194TIP3    H1 9588   5.280   2.637   4.370 -0.6135 -0.1503 -0.4930
 3194TIP3    H2 9589   5.280   2.531   4.262 -0.0646  0.7268 -1.3664
 3195TIP3   OH2 9590   0.957   3.416   1.395 -0.0018  0.4358 -0.6510
 3195TIP3    H1 9591   0.982   3.370   1.315 -2.6282  1.7488 -2.3683
 3195TIP3    H2 9592   0.880   3.467   1.370 -1.0433  0.7878  2.7711
 3196TIP3   OH2 9593   2.990   4.205   0.921  0.4873  0.6772  0.1110
 3196TIP3    H1 9594   2.965   4.231   0.832  0.6378 -1.1780 -0.5002
 3196TIP3    H2 9595   2.916   4.234   0.975 -0.0790  0.9050 -0.7581
 3197TIP3   OH2 9596   2.047   2.961   4.649 -0.0252  0.0466 -0.2018
 3197TIP3    H1 9597   1.957   2.993   4.655  0.6708  2.2048 -0.4560
 3197TIP3    H2 9598   2.081   2.999   4.568  1.5326  0.4796  0.6120
 3198TIP3   OH2 9599   2.768   0.724   0.795  0.7627  0.4768 -0.2721
 3198TIP3    H1 9600   2.772   0.665   0.720 -3.1891  0.0564 -0.3400
 3198TIP3    H2 9601   2.777   0.667   0.872  0.7894  0.3474 -0.3715
 3199TIP3   OH2 9602   1.837   4.937   1.844 -0.0616  0.4423  0.4962
 3199TIP3    H1 9603   1.818   4.924   1.936 -0.3481  3.1354  0.9153
 3199TIP3    H2 9604   1.771   5.000   1.814  0.8458  0.6701 -1.1737
 3200TIP3   OH2 9605   2.043   1.415   5.155 -0.5775 -0.0304 -0.0678
 3200TIP3    H1 9606   2.136   1.439   5.155 -0.4645 -0.4347 -0.5783
 3200TIP3    H2 9607   2.043   1.320   5.163 -1.0555  0.1346  3.2758
 3201TIP3   OH2 9608   2.063   2.563   0.596  0.4961  0.3544 -0.5333
 3201TIP3    H1 9609   2.129   2.632   0.602 -0.4570  1.4319 -2.0588
 3201TIP3    H2 9610   2.071   2.529   0.507 -0.3186 -0.2092 -0.4032
 3202TIP3   OH2 9611   1.301   0.751   2.557 -0.2294 -0.3576 -0.4720
 3202TIP3    H1 9612   1.265   0.819   2.500  0.7822  0.2813 -0.3757
 3202TIP3    H2 9613   1.230   0.732   2.618  0.2159  2.3998  1.0752
 3203TIP3   OH2 9614   0.467   5.259   2.390 -0.5915 -0.3214  0.5026
 3203TIP3    H1 9615   0.413   5.215   2.454 -0.7053  0.5289  1.0074
 3203TIP3    H2 9616   0.429   5.347   2.382 -0.1532 -0.1829 -0.1913
 3204TIP3   OH2 9617   0.499   5.178   1.628 -0.2372 -0.0166  0.3254
 3204TIP3    H1 9618   0.501   5.083   1.613  0.1350 -0.0851  0.7965
 3204TIP3    H2 9619   0.453   5.189   1.711 -0.0426  0.1946  0.4071
 3205TIP3   OH2 9620   1.960   3.645   3.870 -0.4496 -1.1734 -0.3448
 3205TIP3    H1 9621   2.052   3.625   3.884 -0.5839 -2.8707 -1.5402
 3205TIP3    H2 9622   1.931   3.687   3.951  1.6420  0.5477 -0.4250
 3206TIP3   OH2 9623   4.194   0.716   3.005 -0.5336 -0.2347 -0.1777
 3206TIP3    H1 9624   4.235   0.631   3.020  0.1746  0.0768 -0.2895
 3206TIP3    H2 9625   4.107   0.708   3.043 -0.8345 -1.3282 -1.0430
 3207TIP3   OH2 9626   4.770   4.363   1.728  0.0540  0.3289  0.1584
 3207TIP3    H1 9627   4.762   4.299   1.657 -3.7395  2.0287 -1.2381
 3207TIP3    H2 9628   4.725   4.321   1.802 -0.0114  0.3297  0.1193
 3208TIP3   OH2 9629   6.183   4.987   2.774  0.4248 -0.2894  0.3965
 3208TIP3    H1 9630   6.225   4.925   2.714 -1.5151 -1.1752 -0.1383
 3208TIP3    H2 9631   6.208   4.957   2.861  2.4980  0.4360  0.1088
 3209TIP3   OH2 9632   1.717   3.327   4.155  0.1410  0.2242 -0.2776
 3209TIP3    H1 9633   1.789   3.360   4.101  0.3056  0.0817 -0.1449
 3209TIP3    H2 9634   1.686   3.249   4.109  0.4646 -0.0579 -0.0203
 3210TIP3   OH2 9635   5.955   1.539   4.861  0.0752 -0.3549  0.0656
 3210TIP3    H1 9636   5.929   1.447   4.859  0.8783 -0.5784 -0.3687
 3210TIP3    H2 9637   6.030   1.541   4.920 -0.8578  0.2769  1.2715
 3211TIP3   OH2 9638   2.057   3.471   0.692 -0.7956 -0.1715  0.3693
 3211TIP3    H1 9639   1.962   3.480   0.692 -0.7845 -0.0476 -0.0311
 3211TIP3    H2 9640   2.077   3.427   0.609 -0.4728  0.1178  0.2940
 3212TIP3   OH2 9641   0.729   3.416   0.943 -0.0131 -0.3137 -0.0651
 3212TIP3    H1 9642   0.691   3.372   1.019  0.7304 -1.1792 -0.1706
 3212TIP3    H2 9643   0.745   3.345   0.881 -0.7876  0.4055 -1.1138
 3213TIP3   OH2 9644   1.496   5.996   1.957  0.1927  0.0239  0.7996
 3213TIP3    H1 9645   1.500   6.034   1.869 -0.9422  0.7394  1.0366
 3213TIP3    H2 9646   1.491   5.901   1.942  1.6034  0.0237  0.1569
 3214TIP3   OH2 9647   2.966   2.691   2.694  0.1209  0.3791 -0.0961
 3214TIP3    H1 9648   3.000   2.679   2.783  0.3224  0.7466 -0.1205
 3214TIP3    H2 9649   2.885   2.640   2.692  0.3396  0.0141  0.1605
 3215TIP3   OH2 9650   0.951   4.351   0.207  0.5186 -0.7856 -0.7252
 3215TIP3    H1 9651   1.006   4.378   0.133  0.1679 -2.0679 -1.4813
 3215TIP3    H2 9652   0.908   4.271   0.177  1.0911 -1.8958  1.2146
 3216TIP3   OH2 9653   2.270   4.492   3.605  0.2506  0.4680 -0.2507
 3216TIP3    H1 9654   2.315   4.418   3.645 -0.5894  0.5784  0.9521
 3216TIP3    H2 9655   2.299   4.492   3.514  2.2191  0.1833  0.3277
 3217TIP3   OH2 9656   2.887   2.241   4.455 -0.1137 -0.1143 -0.1636
 3217TIP3    H1 9657   2.878   2.195   4.372 -1.2991 -0.8114  0.3217
 3217TIP3    H2 9658   2.877   2.334   4.432  0.3712 -0.2330 -0.8932
 3218TIP3   OH2 9659   4.288   2.667   0.485  0.0586  0.4397  0.1852
 3218TIP3    H1 9660   4.307   2.633   0.398  0.1539  0.4156  0.2148
 3218TIP3    H2 9661   4.216   2.612   0.517  1.6489 -1.2242  1.1125
 3219TIP3   OH2 9662   5.254   2.882   2.517  0.3112 -0.2536 -0.0988
 3219TIP3    H1 9663   5.315   2.873   2.591  0.9516  2.2558 -0.2544
 3219TIP3    H2 9664   5.172   2.909   2.557  0.4609  0.4159 -0.2406
 3220TIP3   OH2 9665   3.816   0.174   2.097  0.3855 -0.3584 -0.0363
 3220TIP3    H1 9666   3.854   0.107   2.153 -0.4162 -0.3685  0.5090
 3220TIP3    H2 9667   3.737   0.135   2.061 -0.6085  0.5900  1.0356
 3221TIP3   OH2 9668   2.046   0.052   0.466 -0.2077  0.1396  0.2081
 3221TIP3    H1 9669   1.983   0.014   0.527 -1.2015  1.8982  0.3418
 3221TIP3    H2 9670   2.099  -0.022   0.436 -1.8653 -1.2667  0.6414
 3222TIP3   OH2 9671   0.604   5.046   0.738 -0.0667 -0.1415  0.4923
 3222TIP3    H1 9672   0.637   4.971   0.690  1.0193  0.3286  0.4599
 3222TIP3    H2 9673   0.524   5.072   0.692  0.6703 -0.0093 -0.7705
 3223TIP3   OH2 9674   3.780   1.131   0.100 -0.2926  0.1137  0.1296
 3223TIP3    H1 9675   3.722   1.199   0.065  0.3645 -0.7083 -2.8359
 3223TIP3    H2 9676   3.742   1.049   0.068 -0.0341 -0.8211  2.0779
 3224TIP3   OH2 9677   3.269   3.408   2.378  0.0044 -0.0142  0.9011
 3224TIP3    H1 9678   3.181   3.381   2.353 -0.0992  1.5515 -0.6468
 3224TIP3    H2 9679   3.327   3.349   2.330 -0.2289  0.7513 -0.3818
 3225TIP3   OH2 9680   5.599   2.068   0.737  0.1874 -0.1825  0.2120
 3225TIP3    H1 9681   5.575   2.152   0.697  1.0475  0.7859  1.6493
 3225TIP3    H2 9682   5.533   2.055   0.806 -0.0244 -0.7671 -0.0948
 3226TIP3   OH2 9683   0.197   3.043   3.987 -0.5343 -0.2720 -0.4421
 3226TIP3    H1 9684   0.149   3.063   4.067 -0.4973 -1.6710 -0.0464
 3226TIP3    H2 9685   0.242   3.125   3.964 -1.7697  0.5886  0.0947
 3227TIP3   OH2 9686   5.774   3.736   2.762  0.6218  0.4122 -0.6082
 3227TIP3    H1 9687   5.696   3.690   2.731  0.0567  1.3856 -0.6498
 3227TIP3    H2 9688   5.784   3.709   2.853 -1.0871  1.9808  0.1051
 3228TIP3   OH2 9689   5.665   0.839   4.973  0.0123  0.0746 -0.1599
 3228TIP3    H1 9690   5.571   0.859   4.970  0.2661  1.3534 -0.3848
 3228TIP3    H2 9691   5.670   0.745   4.985 -1.3089  0.0289  0.1330
 3229TIP3   OH2 9692   0.995   4.087   4.936  0.4908  0.4289  0.3673
 3229TIP3    H1 9693   0.987   4.110   4.843 -0.2902 -2.3084 -0.3122
 3229TIP3    H2 9694   0.943   4.007   4.946  0.4643  0.6983  3.2142
 3230TIP3   OH2 9695   6.265   1.043   5.100  0.2544  0.1664  0.3174
 3230TIP3    H1 9696   6.317   1.123   5.088  0.6689 -0.3205 -1.5555
 3230TIP3    H2 9697   6.194   1.051   5.036 -0.9979  0.0211  1.6508
 3231TIP3   OH2 9698   2.152   1.773   3.486 -0.2468 -0.0249 -0.3421
 3231TIP3    H1 9699   2.067   1.729   3.490 -0.0464 -0.4187 -0.2727
 3231TIP3    H2 9700   2.201   1.723   3.421  0.6305 -1.0791  1.0596
 3232TIP3   OH2 9701   5.096   4.252   0.870  0.3223  0.1364  0.1939
 3232TIP3    H1 9702   5.184   4.216   0.857  0.5550  0.1731  1.4758
 3232TIP3    H2 9703   5.098   4.285   0.960  0.1942  3.6285 -0.9604
 3233TIP3   OH2 9704   5.440   5.252   4.771 -0.3323  0.1232  0.1422
 3233TIP3    H1 9705   5.507   5.208   4.823 -0.4214  1.9005  1.9031
 3233TIP3    H2 9706   5.456   5.224   4.681  2.1851 -0.2248  0.6349
 3234TIP3   OH2 9707   3.287   1.732   3.454  0.2334 -0.1499 -0.3182
 3234TIP3    H1 9708   3.353   1.681   3.407  0.5065 -0.9536  0.8775
 3234TIP3    H2 9709   3.313   1.823   3.441  1.1717 -0.4255 -0.4407
 3235TIP3   OH2 9710   3.133   1.128   1.940 -0.1563 -0.2640  0.0937
 3235TIP3    H1 9711   3.038   1.132   1.956 -0.3413  1.7755 -1.0917
 3235TIP3    H2 9712   3.140   1.088   1.854 -0.0875  1.0530 -0.5391
 3236TIP3   OH2 9713   2.054   3.389   2.696 -0.4408 -0.0355 -0.1809
 3236TIP3    H1 9714   1.996   3.331   2.745 -1.8347  1.9413  0.6405
 3236TIP3    H2 9715   1.996   3.434   2.634  0.3513  1.3586  0.0507
 3237TIP3   OH2 9716   5.386   2.542   2.436  0.3999  0.2180  0.0474
 3237TIP3    H1 9717   5.333   2.553   2.515 -1.0503 -0.1017 -0.8482
 3237TIP3    H2 9718   5.476   2.546   2.467 -0.1392 -0.2378  1.7613
 3238TIP3   OH2 9719   0.651   2.039   0.056  0.3504  0.5452  0.0681
 3238TIP3    H1 9720   0.727   2.076   0.102 -1.5354  2.4814  1.8258
 3238TIP3    H2 9721   0.651   1.947   0.081  0.8331  1.0142  1.9598
 3239TIP3   OH2 9722   3.553   0.918   0.791  0.2399  0.3582 -0.4373
 3239TIP3    H1 9723   3.585   1.004   0.816 -1.6286  0.7013  1.0348
 3239TIP3    H2 9724   3.509   0.931   0.707  1.3898  0.4683 -1.0336
 3240TIP3   OH2 9725   4.197   2.335   3.794 -0.1394 -0.2378  0.4460
 3240TIP3    H1 9726   4.168   2.296   3.876  0.9915  0.2371  1.0901
 3240TIP3    H2 9727   4.116   2.361   3.750 -0.8549 -2.0091  0.6221
 3241TIP3   OH2 9728   4.136   5.323   1.363  0.3435  0.1831  0.0991
 3241TIP3    H1 9729   4.226   5.304   1.390  0.6610  2.4581  0.8522
 3241TIP3    H2 9730   4.143   5.350   1.271  0.1729 -1.1556 -0.3314
 3242TIP3   OH2 9731   3.323   3.595   0.643  0.5943 -0.0799  0.2010
 3242TIP3    H1 9732   3.417   3.594   0.623  0.7225 -2.2536  0.6521
 3242TIP3    H2 9733   3.305   3.508   0.678 -1.8945 -0.2817 -1.3048
 3243TIP3   OH2 9734   3.909   3.996   4.091 -0.2456 -0.0472 -0.3224
 3243TIP3    H1 9735   3.819   3.964   4.086 -0.9544  1.5582  0.9610
 3243TIP3    H2 9736   3.960   3.933   4.041 -1.6891 -2.4487  1.0224
 3244TIP3   OH2 9737   3.649   3.266   4.957 -0.3864  0.2588 -0.9191
 3244TIP3    H1 9738   3.688   3.203   5.017  2.7566  0.9546 -2.0388
 3244TIP3    H2 9739   3.643   3.219   4.874 -0.5349  0.6454 -1.1320
 3245TIP3   OH2 9740   0.719   3.802   2.772 -0.0019 -0.6797 -0.1555
 3245TIP3    H1 9741   0.660   3.876   2.784  1.9005  0.7787  0.6611
 3245TIP3    H2 9742   0.687   3.736   2.833 -2.3197 -1.0063 -1.5920
 3246TIP3   OH2 9743   5.608   0.552   4.712  0.2648  0.0438 -0.3146
 3246TIP3    H1 9744   5.582   0.470   4.670  1.8640 -0.6046 -0.1060
 3246TIP3    H2 9745   5.677   0.587   4.654  0.4010  0.6419  0.2048
 3247TIP3   OH2 9746   5.992   3.430   1.636 -0.7513 -0.0155  0.1720
 3247TIP3    H1 9747   6.048   3.400   1.707  0.0328  1.1855  0.0881
 3247TIP3    H2 9748   5.981   3.524   1.652  1.0413  0.7040 -2.3149
 3248TIP3   OH2 9749   1.808   3.477   3.272 -0.0824 -0.0830  0.3872
 3248TIP3    H1 9750   1.893   3.514   3.295  0.2713 -0.9873  0.5962
 3248TIP3    H2 9751   1.819   3.383   3.283 -1.1935 -0.1990  0.6659
 3249TIP3   OH2 9752   0.985   3.888   3.809  0.3518 -0.3745 -0.4527
 3249TIP3    H1 9753   1.033   3.807   3.796  1.0580 -0.1242  0.4417
 3249TIP3    H2 9754   0.917   3.866   3.873 -0.4878 -0.6335 -1.4185
 3250TIP3   OH2 9755   4.271   5.370   4.616  0.0042  0.0653 -0.3872
 3250TIP3    H1 9756   4.283   5.343   4.525  1.5042  2.2055 -0.9024
 3250TIP3    H2 9757   4.187   5.332   4.641  0.2206 -1.8030 -2.1575
 3251TIP3   OH2 9758   0.627   1.546   5.102 -0.2010  0.3398  0.8825
 3251TIP3    H1 9759   0.574   1.626   5.105 -0.0343  0.6396 -1.6811
 3251TIP3    H2 9760   0.705   1.570   5.053  1.0017 -0.8397  2.1189
 3252TIP3   OH2 9761   5.751   0.051   4.301  0.2052  0.0409  0.4535
 3252TIP3    H1 9762   5.723   0.141   4.316 -1.1781 -0.6009  2.0013
 3252TIP3    H2 9763   5.810   0.056   4.226 -1.2893  1.9692 -0.6690
 3253TIP3   OH2 9764   3.210   1.694   2.023 -0.0195 -0.1401 -0.3761
 3253TIP3    H1 9765   3.239   1.658   2.106 -0.4018  0.2966 -0.0503
 3253TIP3    H2 9766   3.154   1.625   1.985 -1.8365  0.5796  0.8547
 3254TIP3   OH2 9767   4.918   1.706   3.932  0.2546  0.3268  0.0513
 3254TIP3    H1 9768   4.874   1.671   4.010  0.9300  1.2991  0.9022
 3254TIP3    H2 9769   4.920   1.633   3.870 -0.3535 -0.4491  0.9225
 3255TIP3   OH2 9770   2.479   4.235   0.633  0.0541 -0.3285 -0.3744
 3255TIP3    H1 9771   2.499   4.268   0.546  0.2318 -1.2668 -0.6989
 3255TIP3    H2 9772   2.410   4.293   0.665  0.7391  0.7034 -0.6893
 3256TIP3   OH2 9773   0.674   3.239   1.193  0.5689  0.9939 -0.0080
 3256TIP3    H1 9774   0.760   3.274   1.214  0.6656  0.4535  0.5082
 3256TIP3    H2 9775   0.690   3.150   1.162  0.2769  1.2151 -0.8414
 3257TIP3   OH2 9776   2.928   1.357   2.185 -0.2759 -0.0702  0.2582
 3257TIP3    H1 9777   2.837   1.334   2.207 -0.5002  0.0867 -0.4592
 3257TIP3    H2 9778   2.935   1.449   2.209 -0.2130 -0.1643  0.6005
 3258TIP3   OH2 9779   4.218   1.835   1.746  0.4843  0.1891 -0.2855
 3258TIP3    H1 9780   4.247   1.875   1.664  0.2706 -0.7164 -0.8172
 3258TIP3    H2 9781   4.218   1.741   1.728  1.6109 -0.1221  1.1339
 3259TIP3   OH2 9782   2.116   5.356   4.160 -0.3073  0.3982 -0.3362
 3259TIP3    H1 9783   2.164   5.394   4.234 -1.0860  2.0752 -0.6451
 3259TIP3    H2 9784   2.168   5.377   4.083 -0.4508  0.3181 -0.4569
 3260TIP3   OH2 9785   5.999   2.782   3.213 -0.7913 -0.1311  0.2954
 3260TIP3    H1 9786   6.068   2.816   3.270  0.4236 -1.4107 -0.3435
 3260TIP3    H2 9787   6.016   2.822   3.128 -1.3699  0.2190  0.3438
 3261TIP3   OH2 9788   2.379   0.053   4.283  0.3279 -0.1809 -0.0812
 3261TIP3    H1 9789   2.440  -0.007   4.324  1.4845  0.4762 -0.7980
 3261TIP3    H2 9790   2.427   0.091   4.210 -0.5721  1.1423 -0.0298
 3262TIP3   OH2 9791   0.191   4.221   0.896  0.2172 -0.0137  0.3099
 3262TIP3    H1 9792   0.244   4.276   0.839  1.1967 -0.1934  1.0254
 3262TIP3    H2 9793   0.116   4.276   0.919 -0.2279  0.0455 -1.1515
 3263TIP3   OH2 9794   6.318   1.346   0.204  0.2513 -0.0721 -0.0384
 3263TIP3    H1 9795   6.244   1.372   0.261  0.9189 -0.8492  1.2256
 3263TIP3    H2 9796   6.355   1.429   0.175 -0.9680  0.3383 -0.5089
 3264TIP3   OH2 9797   5.473   1.633   0.649  0.2930  0.5813 -0.0392
 3264TIP3    H1 9798   5.443   1.704   0.705 -0.6904  1.2581 -1.3777
 3264TIP3    H2 9799   5.533   1.675   0.587  0.3963  0.0906 -0.2761
 3265TIP3   OH2 9800   0.913   2.306   1.492  0.4413 -0.3314 -0.3156
 3265TIP3    H1 9801   0.891   2.213   1.500 -0.1113 -0.1641  0.1194
 3265TIP3    H2 9802   0.829   2.352   1.499  0.8254  0.2661  0.5857
 3266TIP3   OH2 9803   1.600   4.275   1.916  0.6746  0.1817  0.1461
 3266TIP3    H1 9804   1.533   4.240   1.858  0.2892  0.4703  0.4087
 3266TIP3    H2 9805   1.642   4.198   1.953  0.2219 -0.0059  0.2825
 3267TIP3   OH2 9806   0.914   5.267   4.788 -0.1112  0.3296  0.1272
 3267TIP3    H1 9807   0.967   5.213   4.729 -0.5633 -1.6595  1.4662
 3267TIP3    H2 9808   0.858   5.318   4.730  0.2754 -0.7039 -1.2025
 3268TIP3   OH2 9809   2.810   0.069   2.977 -0.2426 -0.3417  0.2311
 3268TIP3    H1 9810   2.803  -0.025   2.990  0.0225 -0.4194 -0.1730
 3268TIP3    H2 9811   2.904   0.086   2.970 -0.2607  0.0233  0.7881
 3269TIP3   OH2 9812   1.256   5.403   0.472 -0.5139 -0.0161 -0.0393
 3269TIP3    H1 9813   1.328   5.463   0.492  1.4532 -2.0733 -0.5151
 3269TIP3    H2 9814   1.207   5.398   0.554  2.0246 -1.2425  1.5696
 3270TIP3   OH2 9815   0.779   2.396   0.793 -0.0108  0.1959  0.1282
 3270TIP3    H1 9816   0.754   2.486   0.773 -1.1306  0.2371  1.5419
 3270TIP3    H2 9817   0.864   2.385   0.751 -1.3347  0.7758 -3.0002
 3271TIP3   OH2 9818   4.072   1.855   2.972  0.7161 -0.1848 -0.7033
 3271TIP3    H1 9819   4.022   1.815   3.043  0.7689  2.2710  0.8268
 3271TIP3    H2 9820   4.163   1.836   2.993  0.6752 -0.5406 -0.8341
 3272TIP3   OH2 9821   3.363   3.291   1.279 -0.1815 -0.3666  0.5272
 3272TIP3    H1 9822   3.410   3.341   1.212  0.0225  1.3311  1.8667
 3272TIP3    H2 9823   3.273   3.325   1.276 -0.0997 -0.0430  1.2787
 3273TIP3   OH2 9824   4.093   4.907   2.226 -0.4197 -0.1379 -0.0862
 3273TIP3    H1 9825   4.065   4.823   2.190  2.3301 -1.5246  0.7261
 3273TIP3    H2 9826   4.034   4.924   2.300  0.5774 -2.7521  1.4142
 3274TIP3   OH2 9827   5.412   3.277   2.027  0.3003  0.6775  0.1166
 3274TIP3    H1 9828   5.326   3.286   1.988  0.2142  2.5998  0.6372
 3274TIP3    H2 9829   5.410   3.333   2.104  0.6087 -2.5639  2.7307
 3275TIP3   OH2 9830   4.344   3.087   0.182  0.2388 -0.1726 -0.0991
 3275TIP3    H1 9831   4.316   3.009   0.135  0.6804 -0.8591  0.7641
 3275TIP3    H2 9832   4.329   3.068   0.274  1.6910  0.1695  0.2485
 3276TIP3   OH2 9833   0.241   3.353   4.994 -0.6804  0.2900  0.0184
 3276TIP3    H1 9834   0.256   3.292   5.066  0.1650  0.7217  0.2214
 3276TIP3    H2 9835   0.253   3.440   5.034 -0.4952  0.5436 -0.5807
 3277TIP3   OH2 9836   4.711   5.049   4.690  0.6023  0.3593 -0.8238
 3277TIP3    H1 9837   4.768   5.097   4.630  0.6339  0.6348 -0.5758
 3277TIP3    H2 9838   4.750   5.062   4.776 -0.8524  2.1415 -0.3679
 3278TIP3   OH2 9839   4.206   2.395   3.432  0.2340 -0.2526  0.0992
 3278TIP3    H1 9840   4.264   2.411   3.357 -1.0269  1.1144 -0.6297
 3278TIP3    H2 9841   4.219   2.302   3.452  0.4671 -0.7165 -1.9357
 3279TIP3   OH2 9842   2.843   3.884   1.450 -0.0692  0.0630 -0.0241
 3279TIP3    H1 9843   2.845   3.798   1.493 -1.1578 -0.1939 -0.4366
 3279TIP3    H2 9844   2.811   3.944   1.518  0.9352  0.2075  0.3403
 3280TIP3   OH2 9845   5.168   5.263   1.629  0.5249 -0.5765 -0.1462
 3280TIP3    H1 9846   5.077   5.279   1.603  1.4215  0.9552 -2.7453
 3280TIP3    H2 9847   5.220   5.305   1.561  3.2371  0.0910  2.1503
 3281TIP3   OH2 9848   5.930   1.452   2.459 -0.8021 -0.4820  0.0250
 3281TIP3    H1 9849   5.913   1.443   2.552 -0.2236  2.0410  0.4549
 3281TIP3    H2 9850   5.988   1.379   2.437 -0.2205 -0.5984  1.8514
 3282TIP3   OH2 9851   3.523   0.443   4.187  0.1198  0.2226 -0.6353
 3282TIP3    H1 9852   3.473   0.423   4.266 -1.1239 -2.2720 -1.9286
 3282TIP3    H2 9853   3.476   0.516   4.146 -0.3922  0.2310 -0.0414
 3283TIP3   OH2 9854   1.042   0.040   4.078 -0.9807 -0.0505 -0.0346
 3283TIP3    H1 9855   1.064   0.119   4.028  3.5934 -0.5205  0.8374
 3283TIP3    H2 9856   1.043   0.069   4.169  1.5255 -1.1152  0.3508
 3284TIP3   OH2 9857   5.797   1.299   2.963 -0.0311 -0.2838 -0.5015
 3284TIP3    H1 9858   5.703   1.285   2.947  0.1927 -2.3039 -0.3625
 3284TIP3    H2 9859   5.801   1.325   3.055 -0.5554  1.3787 -0.9256
 3285TIP3   OH2 9860   1.791   3.045   3.092  0.2902 -0.1865  0.0811
 3285TIP3    H1 9861   1.844   2.976   3.132  1.7154  1.8497  1.9595
 3285TIP3    H2 9862   1.703   3.007   3.087  0.8026 -1.8282  1.9047
 3286TIP3   OH2 9863   1.195   3.302   2.077  0.3481 -0.4361 -0.2022
 3286TIP3    H1 9864   1.234   3.389   2.074 -1.5792  0.4560 -1.6100
 3286TIP3    H2 9865   1.153   3.297   2.163  0.8528 -0.1689  0.0602
 3287TIP3   OH2 9866   2.145   1.344   1.767 -0.1743  0.0280 -0.3296
 3287TIP3    H1 9867   2.089   1.422   1.775 -0.4647 -0.2646  0.7260
 3287TIP3    H2 9868   2.104   1.280   1.825  1.7995  0.1217  1.2533
 3288TIP3   OH2 9869   5.658   2.102   0.302 -0.0782 -0.0054  0.4145
 3288TIP3    H1 9870   5.650   2.010   0.273 -1.9775 -0.1530  1.2329
 3288TIP3    H2 9871   5.657   2.097   0.397 -0.1119  0.8581  0.4635
 3289TIP3   OH2 9872   1.089   1.423   3.489  0.5261  0.1840 -0.3051
 3289TIP3    H1 9873   1.034   1.445   3.413  1.0072  2.5305 -0.0312
 3289TIP3    H2 9874   1.030   1.429   3.564  1.1983  3.7248  0.1150
 3290TIP3   OH2 9875   5.198   1.525   4.294 -0.0221 -0.5560 -0.0734
 3290TIP3    H1 9876   5.232   1.511   4.382  1.0260  0.8174 -0.2160
 3290TIP3    H2 9877   5.154   1.610   4.298 -0.8301 -0.9322 -0.6442
 3291TIP3   OH2 9878   0.753   0.991   4.875  0.2489 -0.1049  0.5066
 3291TIP3    H1 9879   0.752   1.062   4.939  0.3987  0.4762 -0.1260
 3291TIP3    H2 9880   0.689   0.928   4.908 -0.7747  0.8851  0.4592
 3292TIP3   OH2 9881   2.616   1.631   0.481  0.0119 -0.0135 -0.3537
 3292TIP3    H1 9882   2.597   1.649   0.388  0.4540  0.2957 -0.3853
 3292TIP3    H2 9883   2.555   1.561   0.504  0.5583 -0.7616 -1.1390
 3293TIP3   OH2 9884   4.309   0.626   4.713  0.1223  0.3498  0.0200
 3293TIP3    H1 9885   4.394   0.654   4.746  1.2482 -0.9311 -1.5992
 3293TIP3    H2 9886   4.313   0.641   4.618 -1.5694  0.5237 -0.0561
 3294TIP3   OH2 9887   2.330   0.503   2.259  0.1522 -0.7634  0.3115
 3294TIP3    H1 9888   2.377   0.427   2.224  0.3179 -0.4935 -0.0605
 3294TIP3    H2 9889   2.274   0.467   2.327 -0.2402 -1.3149 -0.2887
 3295TIP3   OH2 9890   3.419   5.658   0.473 -0.0638 -0.3568  0.6960
 3295TIP3    H1 9891   3.455   5.637   0.559  0.7146  0.1079  0.4983
 3295TIP3    H2 9892   3.482   5.719   0.435  0.8212 -2.2524 -1.1018
 3296TIP3   OH2 9893   0.332   3.161   0.636  0.2565 -0.0805 -0.6506
 3296TIP3    H1 9894   0.254   3.211   0.661  0.1534  0.6144 -2.2321
 3296TIP3    H2 9895   0.300   3.072   0.622 -0.3732  0.2946 -1.7282
 3297TIP3   OH2 9896   1.347   3.759   4.600  0.0306 -0.0697 -0.1733
 3297TIP3    H1 9897   1.295   3.811   4.662 -2.8536 -2.7676 -0.0669
 3297TIP3    H2 9898   1.286   3.736   4.531  2.0986 -0.5542 -1.9465
 3298TIP3   OH2 9899   4.280   1.606   4.878  0.1262 -0.1207 -0.6852
 3298TIP3    H1 9900   4.345   1.674   4.896 -0.3761  0.6479 -1.6886
 3298TIP3    H2 9901   4.327   1.524   4.894  1.6800  0.3708 -2.2968
 3299TIP3   OH2 9902   4.353   3.494   1.976 -0.3467  0.3713  0.2711
 3299TIP3    H1 9903   4.369   3.483   1.882  0.8003  1.8187  0.2492
 3299TIP3    H2 9904   4.258   3.504   1.983 -0.3407  1.8844 -0.9835
 3300TIP3   OH2 9905   5.116   4.500   0.132  0.2559  0.1912 -0.0197
 3300TIP3    H1 9906   5.146   4.568   0.192 -1.5584  0.9871  0.0417
 3300TIP3    H2 9907   5.023   4.493   0.149  0.0935 -1.0596 -1.2960
 3301TIP3   OH2 9908   2.490   0.823   0.478 -0.1333  0.0525  0.1841
 3301TIP3    H1 9909   2.533   0.893   0.429 -0.8915  0.9683  0.7781
 3301TIP3    H2 9910   2.420   0.793   0.420 -0.8235  0.9118  0.5432
 3302TIP3   OH2 9911   5.847   5.050   3.700  0.2229  0.6544 -0.0975
 3302TIP3    H1 9912   5.759   5.068   3.733  0.9183  0.9536  1.7156
 3302TIP3    H2 9913   5.892   5.134   3.706  0.7463  0.4183 -0.6671
 3303TIP3   OH2 9914   1.197   0.918   5.174 -0.1525  0.1315  0.2366
 3303TIP3    H1 9915   1.245   0.935   5.255  0.4364  0.0373 -0.0907
 3303TIP3    H2 9916   1.264   0.916   5.106 -0.6556  0.3237 -0.2720
 3304TIP3   OH2 9917   5.086   3.704   3.417  0.4988 -0.5351 -0.8047
 3304TIP3    H1 9918   5.177   3.735   3.417  1.3341 -2.8016 -0.8754
 3304TIP3    H2 9919   5.035   3.780   3.387  2.4077  0.6465 -1.2483
 3305TIP3   OH2 9920   6.260   5.426   4.088  0.2426 -0.0312  0.2875
 3305TIP3    H1 9921   6.184   5.407   4.033  0.3476 -1.3885  0.5869
 3305TIP3    H2 9922   6.241   5.385   4.172  1.0699  0.0712  0.5397
 3306TIP3   OH2 9923   4.425   4.975   0.894  0.2300 -0.0543 -0.2195
 3306TIP3    H1 9924   4.388   4.922   0.824 -3.6345 -0.5236  1.9226
 3306TIP3    H2 9925   4.399   5.065   0.872 -1.2057 -0.2308  0.6284
 3307TIP3   OH2 9926   2.202   5.655   0.444  0.1191 -0.1221  0.1379
 3307TIP3    H1 9927   2.251   5.660   0.526  0.3853 -0.6308  0.0137
 3307TIP3    H2 9928   2.189   5.561   0.429  1.3107 -0.1175 -1.1291
 3308TIP3   OH2 9929   4.624   1.319   1.968 -0.3593 -0.1119 -0.1459
 3308TIP3    H1 9930   4.572   1.275   2.035  0.1773  0.7260  0.8560
 3308TIP3    H2 9931   4.700   1.352   2.015  0.0635  0.4500 -1.1894
 3309TIP3   OH2 9932   0.384   2.096   1.413  0.8714 -0.4929  0.1072
 3309TIP3    H1 9933   0.433   2.111   1.332  0.7778 -0.5257  0.0448
 3309TIP3    H2 9934   0.409   2.169   1.470  0.2191  0.0564 -0.2896
 3310TIP3   OH2 9935   5.602   5.902   5.046 -0.2559  0.2618 -0.1375
 3310TIP3    H1 9936   5.562   5.989   5.054 -0.5677  0.3346 -2.0090
 3310TIP3    H2 9937   5.568   5.868   4.964  0.8635 -1.1165 -0.0601
 3311TIP3   OH2 9938   4.037   0.433   0.012 -0.9369  0.0254  0.3900
 3311TIP3    H1 9939   3.956   0.474   0.041  0.2593  0.2712  3.9080
 3311TIP3    H2 9940   4.031   0.343   0.044 -0.2015 -0.2314 -0.1640
 3312TIP3   OH2 9941   3.796   4.036   2.002 -0.1396  0.0399  0.3080
 3312TIP3    H1 9942   3.758   3.951   1.978  1.2270 -0.4042 -0.3534
 3312TIP3    H2 9943   3.796   4.086   1.920 -1.1861  0.7990  0.7482
 3313TIP3   OH2 9944   3.360   5.482   2.643 -0.3207  0.3379 -0.3240
 3313TIP3    H1 9945   3.357   5.391   2.614 -1.5686  0.2959 -0.1024
 3313TIP3    H2 9946   3.335   5.533   2.566  0.2413  0.4921 -0.4097
 3314TIP3   OH2 9947   1.508   4.364   0.260 -0.2008  0.0895  0.3185
 3314TIP3    H1 9948   1.536   4.453   0.281  1.4867  0.6956 -3.6327
 3314TIP3    H2 9949   1.588   4.312   0.264 -0.2644 -0.2456 -1.5682
 3315TIP3   OH2 9950   3.704   1.197   3.797 -0.0426  0.1481  0.5044
 3315TIP3    H1 9951   3.708   1.105   3.824 -0.3753 -0.4768 -1.3952
 3315TIP3    H2 9952   3.787   1.234   3.825  0.8204 -1.1883 -0.1655
 3316TIP3   OH2 9953   5.135   5.529   0.940 -0.2232  0.0878  0.0760
 3316TIP3    H1 9954   5.203   5.461   0.939 -0.4952 -0.1971  0.5172
 3316TIP3    H2 9955   5.182   5.610   0.918  0.5014  0.1035  1.5437
 3317TIP3   OH2 9956   2.572   2.569   1.683 -0.1991  0.1342 -0.3009
 3317TIP3    H1 9957   2.648   2.610   1.726  0.7640 -2.3454  0.5557
 3317TIP3    H2 9958   2.525   2.526   1.755 -1.4006  0.0696 -1.0992
 3318TIP3   OH2 9959   3.900   1.001   3.193  0.2223 -0.8106  0.3641
 3318TIP3    H1 9960   3.926   0.980   3.103  2.9748 -1.8508  1.2899
 3318TIP3    H2 9961   3.890   1.096   3.194  3.5355 -0.3403 -0.3594
 3319TIP3   OH2 9962   1.014   1.901   4.085 -0.1358 -0.0282  0.0796
 3319TIP3    H1 9963   1.078   1.972   4.078 -0.3514  0.2587  0.9251
 3319TIP3    H2 9964   0.963   1.922   4.163 -0.4258 -0.9380  0.1464
 3320TIP3   OH2 9965   3.665   3.899   0.091  0.0450 -0.0437  0.3689
 3320TIP3    H1 9966   3.617   3.978   0.068 -1.4219 -0.9251  0.2651
 3320TIP3    H2 9967   3.684   3.908   0.185  0.2597  0.5997  0.2692
 3321TIP3   OH2 9968   6.056   5.768   2.563  0.0318  0.0799 -0.1206
 3321TIP3    H1 9969   6.091   5.843   2.609 -0.1380 -0.0399  0.2058
 3321TIP3    H2 9970   6.031   5.802   2.477 -0.2084  0.4346  0.0859
 3322TIP3   OH2 9971   1.729   4.453   1.201  0.3568 -0.2517 -0.1115
 3322TIP3    H1 9972   1.684   4.490   1.277 -0.7286  0.1970 -0.9431
 3322TIP3    H2 9973   1.816   4.492   1.204 -0.2220  1.0999 -0.0258
 3323TIP3   OH2 9974   3.904   0.526   1.550 -0.2647 -1.0237 -0.3688
 3323TIP3    H1 9975   3.820   0.554   1.511  0.4723  2.1706  0.0552
 3323TIP3    H2 9976   3.880   0.491   1.635 -1.1906  0.8765  0.2259
 3324TIP3   OH2 9977   1.205   1.869   2.020 -0.6362  0.4163  0.3877
 3324TIP3    H1 9978   1.214   1.918   2.102  0.5698 -0.7751  1.0057
 3324TIP3    H2 9979   1.203   1.777   2.046 -0.2615  0.0112 -0.9071
 3325TIP3   OH2 9980   5.322   3.844   1.628 -0.2768  0.0515  0.6356
 3325TIP3    H1 9981   5.291   3.814   1.713 -0.6558  0.7741  0.7603
 3325TIP3    H2 9982   5.375   3.772   1.595 -2.9441 -1.7595 -0.0752
 3326TIP3   OH2 9983   0.992   3.714   2.562  0.4496  0.1588 -0.0126
 3326TIP3    H1 9984   1.045   3.677   2.492 -0.8009 -0.6933 -0.5529
 3326TIP3    H2 9985   0.961   3.637   2.612 -2.2366  0.3792 -1.1819
 3327TIP3   OH2 9986   5.836   0.391   0.563 -0.0314  0.0593  0.6074
 3327TIP3    H1 9987   5.868   0.481   0.551  0.1536 -0.1568 -0.6376
 3327TIP3    H2 9988   5.758   0.401   0.617  0.8280  0.8186  1.7537
 3328TIP3   OH2 9989   3.191   4.203   1.625 -0.0578 -0.0291 -0.5006
 3328TIP3    H1 9990   3.145   4.232   1.545 -0.2330 -0.2985 -0.5001
 3328TIP3    H2 9991   3.127   4.216   1.695 -0.6261 -1.6173 -0.6725
 3329TIP3   OH2 9992   1.971   3.082   2.552 -0.2691  0.3181 -0.7746
 3329TIP3    H1 9993   1.932   2.996   2.533 -0.3134 -0.4018  2.0317
 3329TIP3    H2 9994   1.897   3.134   2.585 -0.0159  1.0686 -1.3776
 3330TIP3   OH2 9995   1.686   5.377   5.027  0.0508 -0.3678 -0.2860
 3330TIP3    H1 9996   1.737   5.313   5.077 -0.1309 -0.4574 -0.2129
 3330TIP3    H2 9997   1.748   5.447   5.007 -0.3639  0.7149  1.8884
 3331TIP3   OH2 9998   0.882   4.636   4.784 -0.3482 -0.1337  0.5343
 3331TIP3    H1 9999   0.946   4.691   4.741  0.5926 -1.8000 -0.2885
 3331TIP3    H210000   0.921   4.615   4.869  0.2985 -1.2715 -0.0273
 3332TIP3   OH210001   5.002   2.542   1.085  0.5749 -0.5917 -0.7586
 3332TIP3    H110002   4.918   2.571   1.121  0.0723 -1.2972 -1.3489
 3332TIP3    H210003   5.067   2.591   1.136 -0.2185  1.9964 -2.0624
 3333TIP3   OH210004   4.962   1.922   1.141  0.0889  0.2929  0.5270
 3333TIP3    H110005   5.036   1.863   1.132  0.3420  0.4820  1.2865
 3333TIP3    H210006   4.906   1.904   1.066 -0.1786 -1.3936  1.0947
 3334TIP3   OH210007   1.389   0.703   3.285  0.1690 -0.2388 -0.1572
 3334TIP3    H110008   1.394   0.720   3.191 -0.0573  2.0449  0.2042
 3334TIP3    H210009   1.398   0.789   3.326  0.5790 -1.2168  1.9398
 3335TIP3   OH210010   3.977   2.523   1.418 -0.0092  0.1456  0.5376
 3335TIP3    H110011   4.014   2.436   1.430 -2.2087 -0.6925  1.7517
 3335TIP3    H210012   4.002   2.570   1.498  2.4867  1.2229 -0.7691
 3336TIP3   OH210013   3.905   3.575   4.046 -0.1403 -0.4144  0.2128
 3336TIP3    H110014   3.872   3.626   3.972  0.9705  1.6902  1.0783
 3336TIP3    H210015   3.999   3.567   4.029  0.0540 -0.2860  1.1701
 3337TIP3   OH210016   2.161   3.638   4.161  0.0876  0.3653  0.6505
 3337TIP3    H110017   2.077   3.684   4.151  0.6226  1.5889  1.5817
 3337TIP3    H210018   2.151   3.587   4.241 -0.0910 -0.2735  0.2347
 3338TIP3   OH210019   4.835   1.161   0.856  0.7767 -0.5123  0.1121
 3338TIP3    H110020   4.745   1.138   0.879  0.9526  0.5534  2.0919
 3338TIP3    H210021   4.868   1.207   0.932  2.3182  1.0549 -1.4092
 3339TIP3   OH210022   4.245   5.466   3.528 -0.2704 -0.8283 -0.4443
 3339TIP3    H110023   4.280   5.383   3.498  0.0051 -1.2722  1.0499
 3339TIP3    H210024   4.199   5.445   3.609 -0.2470  0.4627 -0.0726
 3340TIP3   OH210025   0.133   1.931   3.821 -0.1142 -0.2648  0.0324
 3340TIP3    H110026   0.121   2.005   3.881  1.3245 -0.3501  0.4557
 3340TIP3    H210027   0.178   1.865   3.873 -1.2530 -1.4142 -0.3861
 3341TIP3   OH210028   4.775   2.947   1.563 -0.5429 -0.0916 -0.0223
 3341TIP3    H110029   4.822   2.944   1.646 -0.3315 -0.1614 -0.1454
 3341TIP3    H210030   4.814   3.021   1.515 -0.1154 -0.5515 -0.3890
 3342TIP3   OH210031   4.652   1.773   1.733  0.0709 -0.3750  0.3869
 3342TIP3    H110032   4.579   1.714   1.713  0.0105  0.5111 -2.3437
 3342TIP3    H210033   4.611   1.849   1.774 -0.1311 -1.0862  1.5783
 3343TIP3   OH210034   5.662   3.186   2.208 -0.4564 -0.1857  0.5594
 3343TIP3    H110035   5.594   3.132   2.249  0.7028 -1.6710  0.5792
 3343TIP3    H210036   5.637   3.276   2.232 -1.9522 -0.7393  1.2527
 3344TIP3   OH210037   2.977   2.710   0.329 -0.2574 -0.0114 -0.1793
 3344TIP3    H110038   2.960   2.711   0.235  0.1862  0.0093 -0.2634
 3344TIP3    H210039   3.072   2.726   0.336 -0.1705 -0.6990  0.2422
 3345TIP3   OH210040   3.699   1.481   2.216  0.4361  0.2562 -0.1522
 3345TIP3    H110041   3.656   1.552   2.169 -1.8074 -0.8723  0.0532
 3345TIP3    H210042   3.713   1.414   2.148 -0.5954 -0.4191  0.2794
 3346TIP3   OH210043   4.208   5.727   4.237 -0.4832  0.0499  0.0288
 3346TIP3    H110044   4.183   5.678   4.316  3.2996 -0.4134  1.1565
 3346TIP3    H210045   4.210   5.661   4.168  0.2987 -0.4800  0.5406
 3347TIP3   OH210046   3.867   0.663   2.669 -0.0807 -0.0238 -0.1249
 3347TIP3    H110047   3.780   0.629   2.689 -0.0952 -0.1572 -0.4119
 3347TIP3    H210048   3.853   0.728   2.600  0.1748 -0.9211 -1.0556
 3348TIP3   OH210049   0.494   1.357   2.636 -0.3498 -0.1738  0.1482
 3348TIP3    H110050   0.537   1.278   2.667  1.3545  0.8915  0.6495
 3348TIP3    H210051   0.490   1.415   2.712 -1.9297  0.1165 -0.1041
 3349TIP3   OH210052   1.550   1.354   1.398 -0.0710  0.4357 -0.0346
 3349TIP3    H110053   1.630   1.406   1.406 -1.3038  2.5876 -0.8355
 3349TIP3    H210054   1.498   1.378   1.474 -0.0792 -0.8084  0.3815
 3350TIP3   OH210055   2.523   4.665   3.697  0.2629  0.3612  0.1492
 3350TIP3    H110056   2.590   4.667   3.629 -0.0636  0.5241 -0.1679
 3350TIP3    H210057   2.445   4.700   3.655  0.1676  0.8619  0.7290
 3351TIP3   OH210058   1.583   2.344   3.561 -0.7295 -0.0179 -0.1658
 3351TIP3    H110059   1.665   2.388   3.583 -0.9797  0.3498  0.0408
 3351TIP3    H210060   1.567   2.284   3.634 -0.3511 -0.5086 -0.4823
 3352TIP3   OH210061   0.191   5.730   3.933 -0.5771  0.2646  0.2860
 3352TIP3    H110062   0.097   5.746   3.942 -0.4182  0.2972  2.3565
 3352TIP3    H210063   0.224   5.808   3.889 -1.1531  1.5432  1.9992
 3353TIP3   OH210064   4.474   2.358   2.881  0.1007  0.7209 -0.0034
 3353TIP3    H110065   4.543   2.399   2.829 -0.0703  0.8863 -0.0979
 3353TIP3    H210066   4.510   2.272   2.903  1.4777  1.7937  2.2455
 3354TIP3   OH210067   6.291   4.707   1.325 -0.3006 -0.5430  0.1564
 3354TIP3    H110068   6.365   4.650   1.303  0.0883 -0.4350  1.1274
 3354TIP3    H210069   6.305   4.786   1.272  0.6168 -0.2861  0.7516
 3355TIP3   OH210070   2.098   1.142   4.323  0.1674 -0.2525  0.0637
 3355TIP3    H110071   2.092   1.189   4.406  0.0848  2.0783 -1.1865
 3355TIP3    H210072   2.192   1.127   4.311  0.5473  2.2843 -0.8391
 3356TIP3   OH210073   2.254   1.064   1.570  0.0364  0.4533 -0.3092
 3356TIP3    H110074   2.222   1.115   1.496 -2.0290 -0.8201 -0.3561
 3356TIP3    H210075   2.202   1.094   1.644 -0.7314 -1.0577 -0.2022
 3357TIP3   OH210076   0.560   0.536   2.344 -0.2637 -0.3128 -0.1777
 3357TIP3    H110077   0.485   0.479   2.362 -0.0876 -0.4406  0.1668
 3357TIP3    H210078   0.600   0.500   2.265  0.3054 -1.1506  0.4761
 3358TIP3   OH210079   5.023   4.172   2.475  0.3445  0.0085 -0.3501
 3358TIP3    H110080   4.972   4.236   2.425  0.2957 -0.4304 -0.8662
 3358TIP3    H210081   5.109   4.214   2.486  0.5020 -0.0772 -1.2010
 3359TIP3   OH210082   3.021   0.467   1.439  0.4317 -0.1100 -0.0802
 3359TIP3    H110083   2.990   0.439   1.353  1.1545 -0.1885 -0.3241
 3359TIP3    H210084   2.992   0.399   1.499 -0.6264  0.2564 -0.1515
 3360TIP3   OH210085   4.072   5.122   1.047 -0.7130 -0.0095 -0.0587
 3360TIP3    H110086   3.989   5.125   0.999 -0.8088  0.6049  0.1352
 3360TIP3    H210087   4.093   5.214   1.064  0.4936 -0.1010 -0.9320
 3361TIP3   OH210088   2.218   3.650   4.437 -0.4254  0.6233  0.1354
 3361TIP3    H110089   2.125   3.658   4.457 -0.4517  1.8930 -0.3873
 3361TIP3    H210090   2.255   3.605   4.512 -1.4057  0.4260  0.5141
 3362TIP3   OH210091   3.263   4.232   0.290 -0.4964 -0.1641  0.0945
 3362TIP3    H110092   3.283   4.304   0.230 -1.2053  2.6650  2.9877
 3362TIP3    H210093   3.304   4.257   0.372 -2.5513 -2.0295  1.8060
 3363TIP3   OH210094   2.593   0.280   3.513 -0.0008 -0.6540  0.4315
 3363TIP3    H110095   2.620   0.300   3.602  1.8098  2.5633 -0.6817
 3363TIP3    H210096   2.670   0.240   3.472 -0.3110 -0.7170 -0.1084
 3364TIP3   OH210097   3.520   2.809   3.188 -0.3068  0.1026  0.0829
 3364TIP3    H110098   3.512   2.834   3.280 -0.8149 -0.3812  0.1797
 3364TIP3    H210099   3.502   2.890   3.140 -0.1754  0.3280  0.4082
 3365TIP3   OH210100   0.258   2.789   1.184  0.0533  0.7244  0.1568
 3365TIP3    H110101   0.282   2.742   1.103  1.1918 -1.1297  1.4932
 3365TIP3    H210102   0.255   2.881   1.158  2.3649  0.3949 -1.5818
 3366TIP3   OH210103   0.383   0.713   2.821 -0.2489  0.0058  0.0978
 3366TIP3    H110104   0.377   0.702   2.726  2.5807 -1.9927  0.0237
 3366TIP3    H210105   0.415   0.802   2.833  1.6163 -0.4589 -1.0191
 3367TIP3   OH210106   1.430   3.791   2.248  0.3030  0.7932 -0.1553
 3367TIP3    H110107   1.434   3.842   2.329  1.5892 -0.5858  0.6912
 3367TIP3    H210108   1.366   3.838   2.194 -0.5197  1.8048  1.6006
 3368TIP3   OH210109   4.933   0.179   2.382 -0.3900  0.0925  0.8292
 3368TIP3    H110110   4.920   0.090   2.347  1.5118 -0.2632  0.9554
 3368TIP3    H210111   4.931   0.167   2.477  0.4268  0.0934  0.8470
 3369TIP3   OH210112   0.443   3.763   1.061 -0.4903  0.1205 -0.5395
 3369TIP3    H110113   0.381   3.808   1.119 -0.3667  0.2209 -0.4858
 3369TIP3    H210114   0.409   3.778   0.973 -0.7259 -0.1034 -0.4891
 3370TIP3   OH210115   4.175   5.644   2.929 -0.0580 -0.6352 -0.3924
 3370TIP3    H110116   4.152   5.726   2.972  2.9934  1.2619 -1.9555
 3370TIP3    H210117   4.164   5.578   2.996  0.4073  1.5535  2.0149
 3371TIP3   OH210118   0.083   2.109   0.379 -0.3798 -0.5721 -0.7875
 3371TIP3    H110119   0.021   2.113   0.452 -0.2731 -1.7704 -0.6017
 3371TIP3    H210120   0.153   2.052   0.411  0.4619  0.1841 -1.2564
 3372TIP3   OH210121   0.800   4.826   2.040  0.2658 -0.3928  0.0959
 3372TIP3    H110122   0.756   4.895   1.991 -0.8355  1.0934  2.9717
 3372TIP3    H210123   0.729   4.776   2.081  1.1177 -2.0409 -0.3311
 3373TIP3   OH210124   1.518   4.478   1.028  0.0639 -0.0935  0.0791
 3373TIP3    H110125   1.610   4.498   1.047  0.3319 -1.1612 -0.0066
 3373TIP3    H210126   1.505   4.391   1.066 -1.0181  0.1911  0.3992
 3374TIP3   OH210127   5.048   1.415   2.437  0.3924  0.2846  0.5552
 3374TIP3    H110128   4.967   1.464   2.428 -0.7816 -1.4297  1.2695
 3374TIP3    H210129   5.092   1.425   2.353 -1.2381  0.1260 -0.3495
 3375TIP3   OH210130   0.974   4.958   1.618 -0.0571  0.1164  0.9476
 3375TIP3    H110131   0.921   4.886   1.652 -0.6685  0.9095  1.7167
 3375TIP3    H210132   0.913   5.031   1.608  0.5582  0.5491  0.2289
 3376TIP3   OH210133   0.200   4.606   4.567 -0.3093 -0.0348 -0.1412
 3376TIP3    H110134   0.188   4.624   4.474 -2.5021 -0.6450 -0.0173
 3376TIP3    H210135   0.149   4.527   4.583  3.6897 -2.7735  0.6714
 3377TIP3   OH210136   4.467   4.280   3.646  0.6369 -0.3063 -0.1607
 3377TIP3    H110137   4.502   4.360   3.608  2.2873 -1.5448 -1.3512
 3377TIP3    H210138   4.441   4.227   3.571  1.0593 -1.5472  0.5460
 3378TIP3   OH210139   0.934   5.882   4.795  0.4188 -0.2450  0.2357
 3378TIP3    H110140   1.005   5.895   4.731  0.7099 -2.0933  0.1124
 3378TIP3    H210141   0.972   5.911   4.878  0.7419  0.3236 -0.1036
 3379TIP3   OH210142   3.106   4.270   4.925 -0.1833 -0.0460 -0.2755
 3379TIP3    H110143   3.089   4.261   4.831 -1.1452  0.3784 -0.1545
 3379TIP3    H210144   3.041   4.333   4.955  1.0051  0.8929  0.4305
 3380TIP3   OH210145   5.850   2.227   2.060 -0.0026  0.2838 -0.9292
 3380TIP3    H110146   5.850   2.316   2.096  0.4282  0.1212 -0.5157
 3380TIP3    H210147   5.808   2.173   2.126  2.0812 -0.2718  0.0489
 3381TIP3   OH210148   4.185   2.676   1.160 -0.1718  0.1734 -0.6788
 3381TIP3    H110149   4.231   2.592   1.167  0.7722  0.6662 -0.8610
 3381TIP3    H210150   4.224   2.719   1.084  0.5113  1.4570  0.3458
 3382TIP3   OH210151   5.184   0.394   1.271  0.3084  0.3004 -0.5037
 3382TIP3    H110152   5.197   0.470   1.327  0.4179 -0.4722  0.5477
 3382TIP3    H210153   5.113   0.419   1.212  1.1041  1.6237 -0.9368
 3383TIP3   OH210154   0.742   5.385   4.603 -0.1796 -0.0899 -0.3652
 3383TIP3    H110155   0.780   5.414   4.520  2.1992 -2.1575 -0.1263
 3383TIP3    H210156   0.687   5.310   4.579  1.8511 -1.7844 -0.0099
 3384TIP3   OH210157   4.704   3.855   0.631 -0.2685 -0.5590 -0.3929
 3384TIP3    H110158   4.617   3.892   0.616  0.5629  1.1996 -1.2056
 3384TIP3    H210159   4.759   3.931   0.652  0.9380 -1.7066  0.8756
 3385TIP3   OH210160   6.168   3.324   4.287 -0.3552 -0.0708 -0.2481
 3385TIP3    H110161   6.259   3.347   4.309 -0.3612 -0.0647 -0.2304
 3385TIP3    H210162   6.173   3.295   4.196 -0.6279  1.6285 -0.8378
 3386TIP3   OH210163   1.039   2.812   3.824 -0.5677 -0.0769  0.0557
 3386TIP3    H110164   1.021   2.906   3.826 -0.3147  0.0029 -0.9626
 3386TIP3    H210165   1.099   2.800   3.750  1.5148 -0.6927  1.7466
 3387TIP3   OH210166   3.284   2.956   4.637  0.0238 -0.0181  0.3525
 3387TIP3    H110167   3.358   2.935   4.581  0.5247 -1.2466  1.4151
 3387TIP3    H210168   3.304   2.912   4.720 -2.4133 -1.3376  0.3138
 3388TIP3   OH210169   3.418   1.623   2.572  0.1052  0.8775 -0.1389
 3388TIP3    H110170   3.472   1.557   2.529 -0.0943  1.4353 -1.2901
 3388TIP3    H210171   3.476   1.699   2.580  0.1557  0.7650  0.6503
 3389TIP3   OH210172   3.919   0.268   1.033 -0.3254  0.0422  0.0528
 3389TIP3    H110173   3.882   0.355   1.039  0.8812  0.6066 -0.3577
 3389TIP3    H210174   3.861   0.222   0.971 -0.4179  0.8516 -0.4808
 3390TIP3   OH210175   5.555   2.513   3.278 -0.1897  0.2924 -0.5745
 3390TIP3    H110176   5.611   2.583   3.245  0.5891 -0.1554 -0.2412
 3390TIP3    H210177   5.599   2.432   3.251 -1.8378 -0.0989 -2.2210
 3391TIP3   OH210178   0.287   5.947   3.782 -0.2572  0.5329 -0.1594
 3391TIP3    H110179   0.270   5.924   3.691  0.2251 -1.2579  0.1664
 3391TIP3    H210180   0.380   5.929   3.794 -0.1107  1.6142  0.4612
 3392TIP3   OH210181   0.425   0.585   3.331  0.6754 -0.3965  0.6478
 3392TIP3    H110182   0.432   0.639   3.252  0.9424  0.5469  1.3057
 3392TIP3    H210183   0.335   0.552   3.329  1.0256 -1.3821 -0.6702
 3393TIP3   OH210184   1.347   2.685   4.732 -0.1607 -0.1109  0.2443
 3393TIP3    H110185   1.264   2.723   4.760 -0.7382 -1.9083  1.1114
 3393TIP3    H210186   1.323   2.603   4.689  1.0526  0.3122 -1.3476
 3394TIP3   OH210187   3.735   3.904   2.263  0.3185  0.1444 -0.0674
 3394TIP3    H110188   3.645   3.872   2.269  0.1193 -0.0315 -2.6661
 3394TIP3    H210189   3.771   3.861   2.185  2.1049  1.4599 -0.0465
 3395TIP3   OH210190   0.670   2.589   4.601 -0.2352  0.0655  0.4326
 3395TIP3    H110191   0.605   2.546   4.657  1.0522 -1.3827  0.8923
 3395TIP3    H210192   0.746   2.529   4.602  0.7034  1.1645 -0.9484
 3396TIP3   OH210193   5.993   1.603   3.711  0.2831  0.1792  0.3423
 3396TIP3    H110194   6.066   1.552   3.747 -0.9552 -2.4413 -0.5886
 3396TIP3    H210195   5.986   1.574   3.620 -1.6224  0.6926  0.2872
 3397TIP3   OH210196   1.751   1.429   2.189 -0.0939  0.3855  0.2675
 3397TIP3    H110197   1.667   1.470   2.208 -0.6423  0.2618 -1.6599
 3397TIP3    H210198   1.774   1.459   2.101  0.1244 -2.2998 -0.7039
 3398TIP3   OH210199   5.815   4.071   1.348 -0.4305 -0.8856  0.0843
 3398TIP3    H110200   5.727   4.036   1.363  0.1314 -1.7652  1.5367
 3398TIP3    H210201   5.807   4.164   1.369 -0.9347 -1.0313  0.5702
 3399TIP3   OH210202   4.642   5.798   2.877  0.1634  0.4905 -0.1876
 3399TIP3    H110203   4.665   5.885   2.911 -0.3362  0.7726 -0.5581
 3399TIP3    H210204   4.694   5.789   2.797  1.2462 -0.1230  0.5708
 3400TIP3   OH210205   4.460   0.631   0.680  0.3875  0.2783 -0.0034
 3400TIP3    H110206   4.450   0.724   0.701 -0.1495  0.1955  0.1107
 3400TIP3    H210207   4.374   0.603   0.652  0.3807 -0.3457  0.6074
 3401TIP3   OH210208   5.348   5.311   3.223 -0.0004  0.0538 -0.1000
 3401TIP3    H110209   5.305   5.279   3.302  0.2644  0.5980  0.2657
 3401TIP3    H210210   5.374   5.400   3.244  0.6033  0.0010 -0.5947
 3402TIP3   OH210211   1.025   4.480   0.444  0.2030 -0.1268 -0.2650
 3402TIP3    H110212   1.021   4.434   0.360 -3.2693  1.5822 -1.2647
 3402TIP3    H210213   1.006   4.572   0.422  1.0715  0.7310  2.2136
 3403TIP3   OH210214   5.002   0.432   3.316  0.4318 -0.0306  0.2322
 3403TIP3    H110215   4.957   0.495   3.260  0.9314  0.7428  0.6771
 3403TIP3    H210216   5.081   0.410   3.269  0.6058  0.2323  0.3974
 3404TIP3   OH210217   3.856   1.152   0.747  0.1537  0.0862  0.1077
 3404TIP3    H110218   3.765   1.171   0.771 -0.4389 -2.5916  0.3775
 3404TIP3    H210219   3.848   1.088   0.676  1.7604 -1.7290  1.4737
 3405TIP3   OH210220   5.852   4.556   2.500  0.4406 -0.1519  0.5479
 3405TIP3    H110221   5.825   4.627   2.558 -0.3837 -0.3518  0.4319
 3405TIP3    H210222   5.782   4.491   2.508  1.3516 -1.1091  0.9181
 3406TIP3   OH210223   0.171   4.589   1.571  0.0283  0.2363  0.1511
 3406TIP3    H110224   0.225   4.534   1.514  0.3957  0.5945  0.1493
 3406TIP3    H210225   0.095   4.535   1.592 -0.2220  0.1795 -0.8613
 3407TIP3   OH210226   1.862   4.087   4.232 -0.0716 -0.3094  0.7264
 3407TIP3    H110227   1.944   4.057   4.193  0.7066  1.2126  1.1101
 3407TIP3    H210228   1.836   4.016   4.291 -0.8302 -2.2799 -1.8340
 3408TIP3   OH210229   0.660   5.471   1.440  0.0971 -0.0382 -0.0166
 3408TIP3    H110230   0.663   5.474   1.536 -2.5040  1.1615  0.1135
 3408TIP3    H210231   0.595   5.403   1.420  0.8795 -0.5332 -0.9539
 3409TIP3   OH210232   0.372   2.136   0.359 -0.2722 -0.1874  0.2810
 3409TIP3    H110233   0.467   2.129   0.358 -0.2061  0.5788  0.4664
 3409TIP3    H210234   0.345   2.085   0.436 -0.0746 -0.9530 -0.1408
 3410TIP3   OH210235   1.817   4.578   4.691  0.2976  0.5988 -0.3837
 3410TIP3    H110236   1.823   4.488   4.659  2.0959  0.4468  0.3278
 3410TIP3    H210237   1.883   4.626   4.641  1.9248  0.7311  1.7871
 3411TIP3   OH210238   2.223  -0.019   3.252 -0.1604  0.0738  0.3012
 3411TIP3    H110239   2.267   0.048   3.200 -0.7553  0.8816  0.8173
 3411TIP3    H210240   2.258  -0.007   3.341  1.8276 -2.1314 -0.0751
 3412TIP3   OH210241   4.891   2.694   3.381 -0.3234  0.4112 -0.2841
 3412TIP3    H110242   4.805   2.708   3.344 -1.3204  0.1787  1.7789
 3412TIP3    H210243   4.887   2.735   3.468  1.8326  0.9031 -0.3439
 3413TIP3   OH210244   1.013   4.775   1.080  0.1875  0.1388  0.3771
 3413TIP3    H110245   0.947   4.790   1.147 -1.7753 -1.5340 -1.0481
 3413TIP3    H210246   1.035   4.863   1.049 -1.6592  0.7529  0.6690
 3414TIP3   OH210247   1.253   0.915   3.914 -0.5945 -0.5536  0.1864
 3414TIP3    H110248   1.174   0.864   3.932  0.0858 -1.5383  0.4830
 3414TIP3    H210249   1.324   0.851   3.922  0.4099  0.6900  1.8492
 3415TIP3   OH210250   0.966   1.758   3.874  0.7440  0.1313 -0.0111
 3415TIP3    H110251   0.996   1.775   3.964  0.8720 -2.7271  0.5801
 3415TIP3    H210252   0.940   1.666   3.875 -1.1466  0.5623 -2.4362
 3416TIP3   OH210253   0.136   0.716   2.500  0.3630 -0.0992  0.1863
 3416TIP3    H110254   0.135   0.805   2.536  0.3438 -0.9298  2.4513
 3416TIP3    H210255   0.044   0.693   2.492  0.3399 -0.5244  1.3913
 3417TIP3   OH210256   2.950   4.629   4.771  0.1608  0.2219 -0.0598
 3417TIP3    H110257   2.961   4.724   4.778  0.7992  0.1242  0.2732
 3417TIP3    H210258   2.911   4.604   4.855  1.9597 -0.0853  0.7355
 3418TIP3   OH210259   2.529   1.846   2.259 -0.0840  0.4036  0.0835
 3418TIP3    H110260   2.555   1.816   2.346  0.4691  0.5415 -0.0294
 3418TIP3    H210261   2.517   1.766   2.208  2.4080  0.3342 -0.5154
 3419TIP3   OH210262   3.906   4.611   2.410  0.3894  0.2777  1.2224
 3419TIP3    H110263   3.897   4.550   2.337 -0.8849  1.5525  0.2713
 3419TIP3    H210264   3.816   4.633   2.435  0.8135  1.4042  1.8461
 3420TIP3   OH210265   2.549   5.732   4.191 -0.3166  0.0409  0.4046
 3420TIP3    H110266   2.628   5.765   4.148  0.0395 -1.2621  0.0088
 3420TIP3    H210267   2.580   5.703   4.277  0.1664 -2.5610 -0.5522
 3421TIP3   OH210268   2.810   2.036   1.809  0.2969  0.0558 -0.4683
 3421TIP3    H110269   2.780   2.015   1.898 -0.5927 -0.2234 -0.8206
 3421TIP3    H210270   2.805   2.131   1.804 -0.1421  0.0406 -0.3777
 3422TIP3   OH210271   2.487   1.401   0.599  0.4139  0.1379  0.4148
 3422TIP3    H110272   2.396   1.378   0.583  0.4542  0.5614 -0.4736
 3422TIP3    H210273   2.513   1.346   0.673 -0.3990 -0.3841  0.3207
 3423TIP3   OH210274   3.891   1.124   4.906  0.3493 -0.6236  0.2717
 3423TIP3    H110275   3.954   1.147   4.838  0.2506 -0.0625  0.3642
 3423TIP3    H210276   3.836   1.056   4.866  0.9987 -1.1041  0.1864
 3424TIP3   OH210277   2.214   2.768   0.668 -0.3055 -0.1124  0.0496
 3424TIP3    H110278   2.284   2.749   0.730 -0.5037 -0.2516  0.2351
 3424TIP3    H210279   2.136   2.779   0.722 -0.8962 -2.1693 -0.2681
 3425TIP3   OH210280   0.465   4.340   2.666 -0.5207  0.9685 -0.7682
 3425TIP3    H110281   0.529   4.272   2.645  0.4906  1.2323  1.2288
 3425TIP3    H210282   0.384   4.293   2.683  0.5398 -0.0179  2.1631
 3426TIP3   OH210283   5.072   0.727   0.129  0.5429 -0.1981 -0.3282
 3426TIP3    H110284   5.008   0.707   0.060  0.5544 -0.6769 -0.2072
 3426TIP3    H210285   5.034   0.800   0.177  0.3634 -0.0987 -0.6252
 3427TIP3   OH210286   2.387   0.754   1.053  0.2520 -0.2346 -0.1188
 3427TIP3    H110287   2.398   0.793   0.966  2.4470 -0.7057 -0.1008
 3427TIP3    H210288   2.340   0.673   1.037  1.4126 -0.7573 -1.0143
 3428TIP3   OH210289   0.014   2.830   2.539 -0.1761 -0.8433 -0.4114
 3428TIP3    H110290   0.061   2.883   2.475  0.9207 -0.1399  0.9071
 3428TIP3    H210291   0.048   2.742   2.527 -0.0820 -0.7451 -0.8874
 3429TIP3   OH210292   3.685   1.168   4.242 -0.3850 -0.9016  0.0556
 3429TIP3    H110293   3.698   1.212   4.158  0.8820 -3.0214 -0.9498
 3429TIP3    H210294   3.758   1.198   4.297 -1.9427  1.5209  0.9736
 3430TIP3   OH210295   1.916   4.480   2.258 -0.3346 -0.9440  0.2568
 3430TIP3    H110296   1.903   4.418   2.329 -1.4793 -0.4948  0.4654
 3430TIP3    H210297   1.978   4.544   2.292 -0.4600 -1.0326  0.6538
 3431TIP3   OH210298   5.094   2.782   1.220 -0.4968  0.5075 -0.0453
 3431TIP3    H110299   5.101   2.818   1.308 -1.6908  0.4585  0.0935
 3431TIP3    H210300   5.179   2.800   1.179  0.3919 -0.2596  1.3897
 3432TIP3   OH210301   0.204   2.955   1.943  0.8122 -0.9049 -0.5096
 3432TIP3    H110302   0.245   2.969   1.858  3.0022 -0.6043  0.5477
 3432TIP3    H210303   0.267   2.902   1.993 -0.6623 -1.5652  0.7599
 3433TIP3   OH210304   5.925   0.415   5.054  0.0135  0.2749  0.0786
 3433TIP3    H110305   5.925   0.461   5.138 -0.9542  0.0679  0.2036
 3433TIP3    H210306   6.005   0.444   5.010  0.2412  0.8116  0.8386
 3434TIP3   OH210307   6.214   4.434   0.644 -0.4425  0.7824  0.0981
 3434TIP3    H110308   6.247   4.426   0.734 -1.0444  2.3695  0.4894
 3434TIP3    H210309   6.241   4.352   0.602  0.6779  0.4054  1.4495
 3435TIP3   OH210310   1.152   1.531   4.752  0.3423 -0.1432  0.4340
 3435TIP3    H110311   1.102   1.559   4.828  0.2124  0.6028  0.0775
 3435TIP3    H210312   1.226   1.482   4.789 -0.9195 -1.7737  0.9476
 3436TIP3   OH210313   3.657   0.046   3.214 -0.2098  0.2044 -0.0095
 3436TIP3    H110314   3.642   0.138   3.191 -0.5065  0.4626  1.1609
 3436TIP3    H210315   3.607  -0.003   3.149  1.3756  0.7941 -1.7397
 3437TIP3   OH210316   0.390   3.251   0.370  0.0141 -0.1319  0.6026
 3437TIP3    H110317   0.390   3.226   0.462 -1.3432 -2.8305 -0.0298
 3437TIP3    H210318   0.344   3.335   0.367 -0.2111 -0.1734  2.3288
 3438TIP3   OH210319   2.917   4.792   2.198 -0.4885 -0.3078  0.4906
 3438TIP3    H110320   2.973   4.843   2.256 -0.3447  2.4239 -1.8237
 3438TIP3    H210321   2.975   4.763   2.127 -0.9748 -2.1554  0.7867
 3439TIP3   OH210322   4.133   0.399   4.520  0.1771 -0.2293  0.0477
 3439TIP3    H110323   4.057   0.369   4.470  0.3007  0.8611 -0.8485
 3439TIP3    H210324   4.184   0.320   4.535  0.6517 -0.5060 -2.4783
 3440TIP3   OH210325   4.342   2.687   1.630 -0.1636  0.3742  0.3454
 3440TIP3    H110326   4.355   2.724   1.717 -0.7855  1.4010  0.0249
 3440TIP3    H210327   4.391   2.745   1.572 -0.1158 -0.0419 -0.0355
 3441TIP3   OH210328   1.042   2.324   2.346  0.2065 -0.1157 -0.1932
 3441TIP3    H110329   1.108   2.256   2.331  1.7304  1.0034  1.1170
 3441TIP3    H210330   0.965   2.276   2.376  0.8571 -1.3578 -0.4318
 3442TIP3   OH210331   5.860   5.398   1.891  0.1582  0.5107  0.0309
 3442TIP3    H110332   5.861   5.344   1.812 -0.3026  1.0194 -0.3340
 3442TIP3    H210333   5.774   5.440   1.890  0.4959  1.2235  0.3245
 3443TIP3   OH210334   0.688   4.376   3.121  0.3685 -0.0782  0.2397
 3443TIP3    H110335   0.754   4.328   3.071 -0.0340 -0.1009 -0.2744
 3443TIP3    H210336   0.725   4.463   3.132  0.0451  0.2273 -0.9522
 3444TIP3   OH210337   5.538   5.078   4.187 -0.3584 -0.1999 -0.5961
 3444TIP3    H110338   5.514   4.996   4.229 -1.3031  0.2439 -0.2448
 3444TIP3    H210339   5.492   5.146   4.237  1.7415  0.7266  0.2037
 3445TIP3   OH210340   6.287   5.261   5.058 -0.1868  0.4918  0.0188
 3445TIP3    H110341   6.239   5.186   5.022 -0.2787  1.3765 -1.8135
 3445TIP3    H210342   6.338   5.294   4.984  1.7496  0.7766  1.4201
 3446TIP3   OH210343   5.108   1.875   4.030  0.0256  0.0079  0.4382
 3446TIP3    H110344   5.066   1.793   4.009  0.1113 -0.0602  0.5295
 3446TIP3    H210345   5.151   1.902   3.949  0.4696 -0.3216  0.5548
 3447TIP3   OH210346   1.839   4.889   2.138 -0.1469  0.6159  0.2592
 3447TIP3    H110347   1.777   4.860   2.205  0.9061 -0.0265  0.9836
 3447TIP3    H210348   1.862   4.979   2.162 -1.0234  0.9834 -0.2072
 3448TIP3   OH210349   3.816   0.150   2.898 -0.0219 -0.7610  0.2813
 3448TIP3    H110350   3.769   0.233   2.907  0.5005 -0.5394  1.0357
 3448TIP3    H210351   3.904   0.176   2.870  0.0275 -1.0843  0.1427
 3449TIP3   OH210352   1.219   1.208   1.049  0.2916 -0.0500  0.1392
 3449TIP3    H110353   1.256   1.188   0.962 -0.0790 -0.1331 -0.0029
 3449TIP3    H210354   1.130   1.238   1.030  0.0522 -0.5146  0.5234
 3450TIP3   OH210355   0.089   2.074   4.047  0.6436  0.0707  0.5197
 3450TIP3    H110356   0.012   2.041   4.094  0.5675 -0.7172 -0.1260
 3450TIP3    H210357   0.161   2.066   4.110  0.9056 -2.6621  0.0233
 3451TIP3   OH210358   3.595   0.261   5.175  0.2515  0.1076 -0.0842
 3451TIP3    H110359   3.631   0.183   5.218  1.9292  2.0090  2.1895
 3451TIP3    H210360   3.672   0.314   5.153 -0.8320  1.0783 -1.7551
 3452TIP3   OH210361   3.155   3.244   1.940  0.0169  0.7544 -0.1123
 3452TIP3    H110362   3.153   3.229   2.035 -0.7689 -1.5829 -0.4230
 3452TIP3    H210363   3.113   3.328   1.928 -1.2069  0.4293  1.5369
 3453TIP3   OH210364   5.342   0.662   3.792  0.7336 -0.0817 -0.0847
 3453TIP3    H110365   5.383   0.723   3.730 -1.2005  1.1893 -0.1900
 3453TIP3    H210366   5.323   0.716   3.869 -0.2446 -0.7390  0.1465
 3454TIP3   OH210367   2.662   5.609   4.493 -0.1163 -0.1174 -0.0731
 3454TIP3    H110368   2.687   5.699   4.515  2.3611 -1.1387  1.7878
 3454TIP3    H210369   2.567   5.608   4.502 -0.0868  2.0072  1.2137
 3455TIP3   OH210370   5.253   0.521   2.567  0.1299  0.6156  0.1418
 3455TIP3    H110371   5.239   0.507   2.474 -0.6881 -0.3020  0.3810
 3455TIP3    H210372   5.344   0.549   2.574  0.2124  0.6467 -0.9250
 3456TIP3   OH210373   5.886   2.139   3.538  0.0547 -0.2489 -0.4418
 3456TIP3    H110374   5.888   2.168   3.629  2.8633  1.4542 -0.8958
 3456TIP3    H210375   5.948   2.066   3.535 -0.0909 -0.3542 -0.9798
 3457TIP3   OH210376   3.877   4.163   3.851  0.0603 -0.4629 -0.0901
 3457TIP3    H110377   3.906   4.119   3.931  0.6297  1.7263  0.9691
 3457TIP3    H210378   3.958   4.198   3.812 -0.4441  0.2802 -0.4910
 3458TIP3   OH210379  -0.008   4.771   2.650 -0.2437 -0.3491  0.2594
 3458TIP3    H110380  -0.026   4.686   2.691 -0.2759 -0.8990 -0.8676
 3458TIP3    H210381   0.087   4.782   2.658 -0.2366 -0.4987  0.3878
 3459TIP3   OH210382   0.277   1.173   4.943  0.2965 -0.2866 -0.0842
 3459TIP3    H110383   0.277   1.153   4.850 -0.7007 -0.1115 -0.1363
 3459TIP3    H210384   0.330   1.252   4.950 -0.0698  0.0122 -0.5846
 3460TIP3   OH210385   4.818   0.262   5.196  0.0816  0.0427 -0.3257
 3460TIP3    H110386   4.757   0.235   5.128 -0.9137  1.0642  0.1192
 3460TIP3    H210387   4.872   0.330   5.155  1.5800 -1.4931 -0.9952
 3461TIP3   OH210388   2.159   5.068   1.838  0.2831  0.8955 -0.4884
 3461TIP3    H110389   2.099   5.074   1.764 -1.0198 -0.5562  0.3935
 3461TIP3    H210390   2.159   5.155   1.877 -1.1910  0.9516 -0.5673
 3462TIP3   OH210391   4.940   5.138   0.294  0.1253 -0.3092 -0.2047
 3462TIP3    H110392   4.968   5.215   0.344  1.3613 -0.3256 -0.8254
 3462TIP3    H210393   4.930   5.171   0.205  1.4988 -1.0131 -0.6516
 3463TIP3   OH210394   1.517   5.904   2.836  0.7819  0.5596 -0.2272
 3463TIP3    H110395   1.521   5.998   2.855 -0.9336  0.1392  2.9612
 3463TIP3    H210396   1.536   5.862   2.920  1.0901 -1.9777 -1.4704
 3464TIP3   OH210397   3.838   1.886   0.449  0.3794  0.4949  0.2289
 3464TIP3    H110398   3.889   1.858   0.373 -0.3030  2.2001 -0.9299
 3464TIP3    H210399   3.849   1.981   0.452 -0.3901  0.5776  1.6952
 3465TIP3   OH210400   2.380   1.351   1.625  0.1029  0.3472 -0.3722
 3465TIP3    H110401   2.295   1.338   1.668  1.3219 -2.0459  1.5495
 3465TIP3    H210402   2.391   1.273   1.570  1.3703  0.1939  0.0559
 3466TIP3   OH210403   2.476   3.683   4.687 -0.3667  0.8151  0.4219
 3466TIP3    H110404   2.520   3.710   4.606 -1.0124  1.8643  0.3966
 3466TIP3    H210405   2.435   3.600   4.665  0.6156  0.4055  0.0971
 3467TIP3   OH210406   0.208   4.308   5.161 -0.0426  0.3130  0.5332
 3467TIP3    H110407   0.215   4.398   5.128 -2.0627 -0.0546 -1.1172
 3467TIP3    H210408   0.117   4.301   5.191 -0.6017 -1.7473 -1.3502
 3468TIP3   OH210409   1.106   3.012   1.541 -0.2558  0.0164  0.0503
 3468TIP3    H110410   1.125   3.019   1.635  0.4288 -0.1046 -0.0731
 3468TIP3    H210411   1.122   2.920   1.520 -0.1249  0.1011 -0.2377
 3469TIP3   OH210412   6.197   1.978   1.501  0.2182 -0.4676  0.2641
 3469TIP3    H110413   6.291   1.966   1.491  0.3552 -0.5497  1.4999
 3469TIP3    H210414   6.158   1.896   1.472  0.3721  0.1801 -1.9676
 3470TIP3   OH210415   1.945   3.113   4.007 -0.0503  0.4336  0.2198
 3470TIP3    H110416   1.901   3.198   4.015 -0.0507  0.3592  1.1602
 3470TIP3    H210417   1.879   3.050   4.037  0.5636  0.2844  1.3001
 3471TIP3   OH210418   4.936   0.491   5.107  0.1195 -0.1558 -0.1430
 3471TIP3    H110419   4.932   0.483   5.012 -0.5292 -1.1730 -0.0467
 3471TIP3    H210420   4.904   0.580   5.125  1.1456  0.3941 -0.9112
 3472TIP3   OH210421   5.991   0.820   4.204 -0.1263  0.0011  0.2045
 3472TIP3    H110422   6.074   0.773   4.217 -0.8027 -1.9468 -1.8760
 3472TIP3    H210423   6.009   0.879   4.131 -0.0979  0.9489  0.9558
 3473TIP3   OH210424   5.742   5.650   5.131  0.3314 -1.1299  0.0671
 3473TIP3    H110425   5.701   5.611   5.053  0.3725 -2.4083  0.6643
 3473TIP3    H210426   5.695   5.733   5.143 -0.2599 -1.3167 -0.8168
 3474TIP3   OH210427   0.299   1.945   2.488  0.5873  0.9721  0.0330
 3474TIP3    H110428   0.296   1.999   2.567  1.2176  0.2776  0.5521
 3474TIP3    H210429   0.250   1.866   2.512  3.4225 -0.6915  0.9249
 3475TIP3   OH210430   0.241   3.928   1.177  0.0200 -0.1879 -0.0258
 3475TIP3    H110431   0.171   3.974   1.130 -0.3336 -0.9010 -0.1974
 3475TIP3    H210432   0.197   3.853   1.218  0.8713 -1.2454 -1.0040
 3476TIP3   OH210433   5.416   4.411   1.071 -0.0952  0.0605  0.2527
 3476TIP3    H110434   5.325   4.422   1.099 -0.2498 -1.3031  0.3892
 3476TIP3    H210435   5.468   4.429   1.149 -0.3296 -0.3370  0.5068
 3477TIP3   OH210436   5.411   0.922   0.245  0.2693 -0.2048 -0.0696
 3477TIP3    H110437   5.485   0.982   0.255 -0.5750  0.7281  0.6931
 3477TIP3    H210438   5.336   0.969   0.281 -1.3000 -0.0278 -3.2005
 3478TIP3   OH210439   4.178   1.303   5.095 -0.1518  0.0241  0.2858
 3478TIP3    H110440   4.134   1.384   5.120  0.0712 -0.0674  1.0091
 3478TIP3    H210441   4.270   1.318   5.117  0.1037  0.0210 -0.7261
 3479TIP3   OH210442   5.275   5.833   4.715  0.1184 -0.2702 -0.1658
 3479TIP3    H110443   5.321   5.914   4.692  0.0281 -0.9085 -2.9068
 3479TIP3    H210444   5.187   5.845   4.680 -0.6281 -0.6650  1.4903
 3480TIP3   OH210445   2.857   4.452   4.954  0.5115  1.1130 -0.3260
 3480TIP3    H110446   2.813   4.447   5.039  0.0404  3.2310 -0.3900
 3480TIP3    H210447   2.798   4.407   4.894  0.0880  0.9714  0.1907
 3481TIP3   OH210448   5.821   3.226   4.236  0.6320 -0.2751 -0.3548
 3481TIP3    H110449   5.864   3.307   4.263  2.6395 -0.8005 -1.7398
 3481TIP3    H210450   5.791   3.244   4.147  0.1949 -0.7209 -0.2966
 3482TIP3   OH210451   0.308   1.089   2.880 -0.0548 -0.3285 -0.3275
 3482TIP3    H110452   0.266   1.045   2.806  1.1487  0.6416 -1.6611
 3482TIP3    H210453   0.396   1.051   2.884 -0.2665 -0.7377  0.9733
 3483TIP3   OH210454   0.263   4.171   3.798 -0.4082  0.0668  0.0166
 3483TIP3    H110455   0.314   4.237   3.751  1.1632 -0.4996  0.8435
 3483TIP3    H210456   0.192   4.221   3.838  0.2682  1.1444 -0.0688
 3484TIP3   OH210457   0.195   2.300   2.621 -0.5071 -0.1147  0.8056
 3484TIP3    H110458   0.210   2.213   2.659  0.4784  0.5979  2.1243
 3484TIP3    H210459   0.103   2.300   2.596 -1.0862 -0.8134  2.7477
 3485TIP3   OH210460   1.918   1.012   3.538 -0.2488  0.4809  0.1576
 3485TIP3    H110461   1.830   1.044   3.557 -0.4060  0.6967 -0.8739
 3485TIP3    H210462   1.917   0.994   3.444 -0.3626 -3.2177  0.7471
 3486TIP3   OH210463   5.793   3.308   4.556  0.0757  0.0066 -0.2826
 3486TIP3    H110464   5.833   3.343   4.635  0.2322 -1.2176  0.1967
 3486TIP3    H210465   5.857   3.326   4.487 -0.4038  1.7848 -0.3168
 3487TIP3   OH210466   4.774   2.227   1.937 -0.0507 -0.5424 -0.0256
 3487TIP3    H110467   4.783   2.233   2.032  0.9887  2.0239 -0.2104
 3487TIP3    H210468   4.850   2.176   1.909  0.2234 -0.3942  0.4343
 3488TIP3   OH210469   5.319   0.857   3.993  0.5167  0.2086 -0.7744
 3488TIP3    H110470   5.320   0.953   3.983 -1.1302  0.4120  0.5446
 3488TIP3    H210471   5.298   0.843   4.085  0.1767 -1.4369 -1.0825
 3489TIP3   OH210472   4.688   0.927   4.986 -0.4074  0.6014 -0.5483
 3489TIP3    H110473   4.685   0.884   5.071  0.2453  1.4980 -0.0573
 3489TIP3    H210474   4.781   0.930   4.963 -0.3740  2.1128 -0.3545
 3490TIP3   OH210475   3.404   5.225   2.547 -0.2875  0.2968 -0.0786
 3490TIP3    H110476   3.497   5.243   2.553 -0.4312  0.6492  1.5901
 3490TIP3    H210477   3.389   5.153   2.609 -1.1610  0.4456 -0.0942
 3491TIP3   OH210478   4.148   4.602   1.049  0.1527  0.3523 -0.5321
 3491TIP3    H110479   4.232   4.586   1.092 -0.6488  0.2575  1.0490
 3491TIP3    H210480   4.136   4.696   1.053 -0.8775  0.1751  1.3763
 3492TIP3   OH210481   1.007   3.091   3.810  0.4602  0.4721  0.0485
 3492TIP3    H110482   1.001   3.076   3.716  2.6602 -0.9372  0.0496
 3492TIP3    H210483   1.029   3.184   3.818  0.2811  0.6015 -0.8285
 3493TIP3   OH210484   1.593   1.015   1.789  0.1312  0.2573  0.0574
 3493TIP3    H110485   1.683   1.045   1.798  0.6339 -1.4962  1.5051
 3493TIP3    H210486   1.600   0.923   1.764 -1.3207  0.5886 -1.8781
 3494TIP3   OH210487   2.694   3.020   1.121  0.2846  0.1287 -0.2865
 3494TIP3    H110488   2.677   2.962   1.195 -1.2584  0.9390  0.0423
 3494TIP3    H210489   2.770   2.982   1.077  2.0650  0.3090  2.4096
 3495TIP3   OH210490   3.349   3.638   4.436 -0.1049 -0.1190  0.0428
 3495TIP3    H110491   3.318   3.600   4.519 -0.2087  1.0597  0.5786
 3495TIP3    H210492   3.365   3.563   4.379 -0.2828 -0.9480  1.0480
 3496TIP3   OH210493   2.702   1.036   2.317 -0.1094 -0.0265 -0.1600
 3496TIP3    H110494   2.625   1.041   2.374 -0.4201 -0.0609 -0.5622
 3496TIP3    H210495   2.711   1.124   2.281  0.7075  0.2599  0.7266
 3497TIP3   OH210496   5.325   5.439   2.487  0.0307 -0.2634 -0.1873
 3497TIP3    H110497   5.271   5.373   2.531  0.6154 -0.0487  0.8632
 3497TIP3    H210498   5.415   5.414   2.506  0.3536 -0.8101 -2.2207
 3498TIP3   OH210499   1.461   3.443   0.078  0.3035  0.1641  0.3208
 3498TIP3    H110500   1.433   3.522   0.031 -0.9569 -0.4871 -0.0967
 3498TIP3    H210501   1.548   3.463   0.111  0.3550  1.4108 -0.5215
 3499TIP3   OH210502   4.020   0.283   3.093  0.1875  0.5626  0.7437
 3499TIP3    H110503   3.971   0.296   3.012  0.5693 -0.3249  0.3458
 3499TIP3    H210504   4.109   0.312   3.072  0.6199 -0.9215  0.3917
 3500TIP3   OH210505   0.097   5.427   1.026 -0.5022  0.0958 -0.0774
 3500TIP3    H110506   0.084   5.476   1.107 -0.6875  0.2731 -0.2146
 3500TIP3    H210507   0.176   5.465   0.987 -1.1953  0.9453 -0.6701
 3501TIP3   OH210508   4.750   1.322   0.257  0.4614  0.7630 -0.8765
 3501TIP3    H110509   4.735   1.415   0.276  0.8134  1.1400 -2.3300
 3501TIP3    H210510   4.804   1.322   0.178 -0.2358 -0.6847 -1.3884
 3502TIP3   OH210511   3.074   0.166   3.314  0.1035  0.1370 -0.2512
 3502TIP3    H110512   3.164   0.133   3.324 -0.2786 -0.7711  0.2645
 3502TIP3    H210513   3.055   0.156   3.221  0.8527  1.2103 -0.5452
 3503TIP3   OH210514   3.996   2.856   3.669  0.0656 -0.1541  0.0080
 3503TIP3    H110515   3.909   2.853   3.630 -0.4539  0.8226  1.0343
 3503TIP3    H210516   4.041   2.780   3.633 -0.4705  0.5343 -2.2471
 3504TIP3   OH210517   1.604   3.107   1.502 -0.4335 -0.0113 -0.1127
 3504TIP3    H110518   1.517   3.143   1.520  0.4074  2.5221 -0.6636
 3504TIP3    H210519   1.620   3.127   1.410  1.0235  0.3005  0.1754
 3505TIP3   OH210520   4.445   2.173   4.541 -0.1019  0.5235  0.4117
 3505TIP3    H110521   4.369   2.230   4.527  0.4378  1.0481 -0.5312
 3505TIP3    H210522   4.473   2.192   4.630 -1.3831 -0.0707  0.9637
 3506TIP3   OH210523   0.990   3.813   0.377  0.4855 -0.6610  0.2568
 3506TIP3    H110524   0.979   3.788   0.469  2.0470  0.1316  0.6990
 3506TIP3    H210525   0.985   3.730   0.330 -0.3186 -1.0858  1.0524
 3507TIP3   OH210526   3.062   5.478   4.772  0.7370  0.1888 -0.1077
 3507TIP3    H110527   3.020   5.394   4.792  0.4658  0.7993  2.1538
 3507TIP3    H210528   2.999   5.523   4.715 -1.2074  0.5435  2.1336
 3508TIP3   OH210529   4.207   0.538   0.654  0.2948  0.4279 -0.1814
 3508TIP3    H110530   4.202   0.468   0.720  2.3273  0.7757  0.4178
 3508TIP3    H210531   4.178   0.497   0.573  1.2589 -1.0652  0.1997
 3509TIP3   OH210532   0.042   1.915   0.074 -0.3116 -0.1245 -0.2032
 3509TIP3    H110533  -0.013   1.861   0.017 -0.1562 -0.8408  0.3085
 3509TIP3    H210534  -0.004   2.000   0.079  1.4682  1.2901 -4.2710
 3510TIP3   OH210535   0.609   2.773   2.376 -0.1755 -0.2664 -0.9193
 3510TIP3    H110536   0.676   2.783   2.309 -0.0939  0.6261 -0.7115
 3510TIP3    H210537   0.598   2.678   2.385  0.0257 -0.3955 -1.9732
 3511TIP3   OH210538   2.491   5.468   4.786  0.2785  0.1540  1.0614
 3511TIP3    H110539   2.463   5.394   4.732  2.3446  0.0069  0.0790
 3511TIP3    H210540   2.410   5.508   4.816 -1.1226  1.1649 -3.3544
 3512TIP3   OH210541   2.959   1.890   0.432 -0.0790  0.0273  0.5993
 3512TIP3    H110542   3.044   1.901   0.475  0.4555  0.0269 -0.4319
 3512TIP3    H210543   2.952   1.795   0.418  1.2304  0.2444 -2.1548
 3513TIP3   OH210544   1.098   5.380   0.689  0.0321  0.2771  0.4276
 3513TIP3    H110545   1.097   5.475   0.703  1.7604  0.4347 -0.2733
 3513TIP3    H210546   1.141   5.345   0.767 -2.8457 -0.2517  1.9177
 3514TIP3   OH210547   2.261   1.825   0.220 -0.6456 -0.4561 -0.7407
 3514TIP3    H110548   2.341   1.826   0.273 -1.3291 -0.7330  0.3251
 3514TIP3    H210549   2.275   1.753   0.158  0.5705  0.4891 -1.6344
 3515TIP3   OH210550   2.627   5.253   2.201  0.6649 -0.0566  0.1139
 3515TIP3    H110551   2.669   5.175   2.166  1.2944 -0.1191  0.9835
 3515TIP3    H210552   2.691   5.323   2.188  1.5513 -0.3648  2.4510
 3516TIP3   OH210553   0.396   2.028   3.014 -0.5570  0.0955  0.2097
 3516TIP3    H110554   0.327   2.090   3.036  0.7968  2.0546 -0.7911
 3516TIP3    H210555   0.466   2.048   3.076  0.1704  0.0839 -0.5985
 3517TIP3   OH210556   1.273   3.395   0.280  0.1257 -0.0251  0.3342
 3517TIP3    H110557   1.302   3.458   0.213  1.6435  0.2715  1.2177
 3517TIP3    H210558   1.326   3.317   0.263 -0.2189 -0.3100  0.5606
 3518TIP3   OH210559   1.025   1.194   2.311  0.8527 -0.1687 -0.0305
 3518TIP3    H110560   0.985   1.221   2.229 -1.3526 -2.3051  0.2162
 3518TIP3    H210561   1.000   1.261   2.374 -0.0692 -0.0662 -0.4873
 3519TIP3   OH210562   1.972   0.423   2.796 -0.6603  0.0883  0.3941
 3519TIP3    H110563   2.051   0.381   2.763 -0.3658  0.5955  0.4522
 3519TIP3    H210564   1.900   0.374   2.754 -0.3040  0.2662 -0.4441
 3520TIP3   OH210565   1.729   1.379   1.097  0.4340  0.1427 -0.4307
 3520TIP3    H110566   1.683   1.296   1.105  0.1849 -0.0539 -3.0553
 3520TIP3    H210567   1.751   1.386   1.004  1.5888  2.4203 -0.0739
 3521TIP3   OH210568   1.841   4.963   0.073 -0.2126 -0.3269 -0.0052
 3521TIP3    H110569   1.763   4.944   0.022  0.0113  1.0110 -0.8951
 3521TIP3    H210570   1.913   4.962   0.009  0.7623 -2.7850  0.9729
 3522TIP3   OH210571   3.446   1.663   4.045  0.1468 -0.0003  0.3306
 3522TIP3    H110572   3.444   1.674   4.140  0.2115 -1.1235  0.4701
 3522TIP3    H210573   3.380   1.725   4.013 -0.6343 -0.3533  1.1928
 3523TIP3   OH210574   3.815   4.188   3.403  0.3729  0.2642  0.2571
 3523TIP3    H110575   3.884   4.222   3.460 -0.1235  0.2837  0.8520
 3523TIP3    H210576   3.793   4.262   3.345 -0.1950  0.7427  1.0636
 3524TIP3   OH210577   3.127   5.426   1.194  0.6637 -0.2191  0.3500
 3524TIP3    H110578   3.064   5.375   1.144 -0.0047  1.2007 -0.3238
 3524TIP3    H210579   3.110   5.404   1.286  0.0359 -0.7757  0.1006
 3525TIP3   OH210580   2.723   3.245   3.699  0.3006  0.1404  0.6074
 3525TIP3    H110581   2.803   3.298   3.705 -0.6741  1.6764  0.4644
 3525TIP3    H210582   2.695   3.234   3.790  1.3355 -1.5048  0.7658
 3526TIP3   OH210583   3.006   5.035   1.862  0.1809 -0.4195 -0.3802
 3526TIP3    H110584   2.930   5.033   1.919  0.4198  1.7317  0.0972
 3526TIP3    H210585   2.970   5.025   1.774 -0.7592  1.0679 -0.2031
 3527TIP3   OH210586   0.266   2.953   4.833 -0.4116 -0.2903  0.2527
 3527TIP3    H110587   0.352   2.989   4.855  0.1709 -1.8281  0.6377
 3527TIP3    H210588   0.210   2.974   4.908 -0.2542  0.2707  0.2216
 3528TIP3   OH210589   5.514   3.662   2.227  0.0960  0.3142  0.3953
 3528TIP3    H110590   5.552   3.749   2.228  0.3852  0.2442 -1.1229
 3528TIP3    H210591   5.558   3.618   2.154  0.4560 -1.3359  1.5583
 3529TIP3   OH210592   3.744   2.967   2.358 -0.3451  0.2171 -0.3644
 3529TIP3    H110593   3.798   2.913   2.301  0.1952 -1.5478  1.7184
 3529TIP3    H210594   3.671   2.994   2.302  0.4506 -0.9332 -2.0439
 3530TIP3   OH210595   1.583   4.822   2.716  0.1049 -0.1968  0.4952
 3530TIP3    H110596   1.510   4.766   2.743 -0.1557  0.7226  1.7933
 3530TIP3    H210597   1.543   4.906   2.695  0.3461 -0.7061 -2.5341
 3531TIP3   OH210598   1.979   2.111   1.636 -0.4942  0.5925  0.0012
 3531TIP3    H110599   2.026   2.163   1.570  0.6174  0.1678  0.4348
 3531TIP3    H210600   1.897   2.158   1.649  0.6059  2.4751  0.6266
 3532TIP3   OH210601   0.486   5.310   4.892 -0.9099  0.7811 -0.3717
 3532TIP3    H110602   0.453   5.273   4.975  0.1709  2.9349  1.1086
 3532TIP3    H210603   0.523   5.235   4.846 -2.2112 -0.6174  0.7313
 3533TIP3   OH210604   2.314   4.458   1.343 -0.9283  0.2482 -0.2474
 3533TIP3    H110605   2.274   4.510   1.413  1.3654  1.1440  0.5159
 3533TIP3    H210606   2.245   4.446   1.279 -2.5263  1.2407  1.2013
 3534TIP3   OH210607   2.582   1.003   1.441  1.0208  0.1438 -0.0348
 3534TIP3    H110608   2.503   0.954   1.420  1.0570 -0.0338  0.2365
 3534TIP3    H210609   2.594   1.062   1.367  1.1263 -0.4335 -0.4815
 3535TIP3   OH210610   0.912   3.349   4.898  0.8166  0.2398  0.0448
 3535TIP3    H110611   0.828   3.332   4.940  0.7253  1.1296  0.2482
 3535TIP3    H210612   0.945   3.263   4.874  0.4295 -0.2153  1.0964
 3536TIP3   OH210613   4.527   4.521   3.490  0.5055  0.0434  0.0007
 3536TIP3    H110614   4.561   4.593   3.544 -0.5907  0.0685  0.6804
 3536TIP3    H210615   4.432   4.537   3.486  0.4289 -0.5958 -0.9954
 3537TIP3   OH210616   4.321   5.820   2.074  0.2626  0.5384  0.0416
 3537TIP3    H110617   4.410   5.813   2.108  0.5921  2.0907 -0.4565
 3537TIP3    H210618   4.328   5.792   1.983 -0.3913 -2.3926  0.7803
 3538TIP3   OH210619   2.251   1.381   3.627  0.5767  0.1652  0.0136
 3538TIP3    H110620   2.264   1.324   3.552  0.8129  0.4818 -0.1855
 3538TIP3    H210621   2.183   1.337   3.678  0.6760 -0.2359 -0.1945
 3539TIP3   OH210622   4.361   2.726   1.911 -0.2185 -0.0737 -0.4849
 3539TIP3    H110623   4.320   2.695   1.992  1.4244  1.8337  1.1983
 3539TIP3    H210624   4.453   2.739   1.934 -0.2406  3.3327 -1.7260
 3540TIP3   OH210625   3.429   5.901   2.251 -0.5373  0.1574 -0.2398
 3540TIP3    H110626   3.350   5.923   2.202  0.7138 -0.6785 -2.8324
 3540TIP3    H210627   3.464   5.986   2.279 -0.9078  0.7603 -1.5114
 3541TIP3   OH210628   2.039   0.781   0.341  0.0642 -0.1646 -0.2196
 3541TIP3    H110629   2.132   0.759   0.334  0.1717  0.6481 -1.8377
 3541TIP3    H210630   1.998   0.740   0.265 -0.5327  1.1332 -0.6390
 3542TIP3   OH210631   1.955   3.844   1.798 -0.2406  0.1603 -0.3456
 3542TIP3    H110632   1.987   3.755   1.815  2.0875  0.6527 -1.7035
 3542TIP3    H210633   1.881   3.832   1.739 -0.9130 -0.9059  0.6532
 3543TIP3   OH210634   4.924   4.513   4.965 -0.1882  0.2092  0.2191
 3543TIP3    H110635   4.891   4.494   4.877  0.7057 -0.1597 -0.0460
 3543TIP3    H210636   4.927   4.428   5.009  0.5496  0.2089  0.1823
 3544TIP3   OH210637   1.319   3.239   3.876 -0.3488 -0.0933 -0.3504
 3544TIP3    H110638   1.377   3.304   3.836  0.0226 -0.2170 -0.0190
 3544TIP3    H210639   1.288   3.186   3.802 -0.8604  0.6168 -0.6522
 3545TIP3   OH210640   0.571   0.121   4.794 -0.3778  0.0116  0.5813
 3545TIP3    H110641   0.501   0.118   4.859 -0.9554 -0.5401 -0.0459
 3545TIP3    H210642   0.545   0.055   4.729  0.3551  0.3173 -0.0261
 3546TIP3   OH210643   6.224   3.610   1.615 -0.1879  0.3913 -0.0284
 3546TIP3    H110644   6.246   3.538   1.556  1.4763  0.5704  0.3113
 3546TIP3    H210645   6.234   3.573   1.703 -2.1486  0.2712  0.1810
 3547TIP3   OH210646   6.028   4.982   4.023  0.1362  0.4480 -0.0737
 3547TIP3    H110647   6.073   4.934   4.092  1.7752 -0.3103 -1.5640
 3547TIP3    H210648   5.950   5.018   4.065  1.7147  1.1653  2.4803
 3548TIP3   OH210649   4.952   1.750   2.265  0.2793  0.6668 -0.3217
 3548TIP3    H110650   4.890   1.821   2.247  1.3283  1.2794 -1.6629
 3548TIP3    H210651   5.025   1.765   2.205  1.6908 -0.1184  1.0995
 3549TIP3   OH210652   4.718   0.966   0.612  0.7759  0.1929 -0.0298
 3549TIP3    H110653   4.668   0.942   0.534  2.1423 -0.2697 -0.8077
 3549TIP3    H210654   4.724   1.061   0.608  0.5429  0.1975 -0.3074
 3550TIP3   OH210655   1.348   0.960   4.277 -0.7356 -0.2043  0.1301
 3550TIP3    H110656   1.428   1.004   4.249 -1.1840 -0.4092 -1.5544
 3550TIP3    H210657   1.293   1.031   4.312  0.2481 -0.1003  1.5677
 3551TIP3   OH210658   2.560   2.790   5.006 -0.0653  0.0389 -0.5570
 3551TIP3    H110659   2.639   2.810   4.955 -0.2296  0.0389 -0.8126
 3551TIP3    H210660   2.587   2.803   5.097  0.1149  0.4417 -0.6636
 3552TIP3   OH210661   2.908   5.212   1.619 -0.2398  0.4101  0.6315
 3552TIP3    H110662   2.963   5.145   1.580  0.1002  0.6464  0.6974
 3552TIP3    H210663   2.820   5.174   1.620 -0.4570  0.7655 -1.2738
 3553TIP3   OH210664   1.390   0.026   0.079  0.2186 -0.0820  0.1876
 3553TIP3    H110665   1.368   0.099   0.137 -3.0418  0.2659 -1.2339
 3553TIP3    H210666   1.372   0.060  -0.009  0.3189 -2.0742 -0.6448
 3554TIP3   OH210667   0.870   0.356   1.347  0.1271 -0.0035  0.3772
 3554TIP3    H110668   0.856   0.414   1.422 -3.5481 -0.2114  0.0566
 3554TIP3    H210669   0.855   0.411   1.270 -3.5143 -1.1528  0.0729
 3555TIP3   OH210670   2.205   1.534   3.166  0.5199  0.4667  0.6377
 3555TIP3    H110671   2.195   1.446   3.204  0.0007  0.7345  1.1416
 3555TIP3    H210672   2.256   1.582   3.231 -0.0610  0.8208  0.8435
 3556TIP3   OH210673   4.214   1.333   3.632  0.5719 -0.3513 -0.1613
 3556TIP3    H110674   4.283   1.378   3.682 -0.9277  1.0088  0.7835
 3556TIP3    H210675   4.246   1.333   3.542  0.7132  2.6353 -0.2225
 3557TIP3   OH210676   6.227   0.282   2.797  0.4734  0.0428  0.1214
 3557TIP3    H110677   6.320   0.285   2.820  1.0256 -0.4449 -1.8861
 3557TIP3    H210678   6.218   0.203   2.745 -0.8190  0.7236 -0.7260
 3558TIP3   OH210679   2.029   0.857   5.069  0.5197 -0.0618  0.2391
 3558TIP3    H110680   2.019   0.767   5.038  0.6461  0.0773 -0.2232
 3558TIP3    H210681   1.940   0.892   5.071  0.4211 -0.3423  0.8794
 3559TIP3   OH210682   2.545   1.799   0.194  0.0582  0.6937 -0.0137
 3559TIP3    H110683   2.602   1.869   0.226 -0.1023  0.6821  0.3061
 3559TIP3    H210684   2.578   1.778   0.107  1.3932 -0.2475  0.6823
 3560TIP3   OH210685   1.357   2.238   4.984 -0.6982 -0.2226  0.0483
 3560TIP3    H110686   1.391   2.326   4.974  1.9133 -1.2407 -0.8630
 3560TIP3    H210687   1.368   2.218   5.077  1.0817 -0.4256 -0.1766
 3561TIP3   OH210688   6.304   1.954   3.557  0.6490 -0.1975  0.2875
 3561TIP3    H110689   6.288   2.033   3.506  2.2303 -0.3596 -0.5307
 3561TIP3    H210690   6.364   1.982   3.627  1.6183 -0.7237 -0.2957
 3562TIP3   OH210691   2.312   1.169   4.743 -0.1633  0.0229 -0.3619
 3562TIP3    H110692   2.382   1.234   4.739 -1.4840  1.5051 -0.9855
 3562TIP3    H210693   2.300   1.152   4.836 -0.4359  1.4880 -0.0927
 3563TIP3   OH210694   3.522   2.048   1.981  0.0055 -0.2650 -0.0260
 3563TIP3    H110695   3.521   2.137   1.947  1.2402 -0.2530 -0.0760
 3563TIP3    H210696   3.456   2.048   2.051 -1.5775  0.0813 -1.4592
 3564TIP3   OH210697   2.103   0.584   1.569  0.1756 -0.0568  0.3482
 3564TIP3    H110698   2.018   0.615   1.537 -0.3309 -2.1179 -0.4155
 3564TIP3    H210699   2.167   0.632   1.516 -0.4597  1.6013  1.0075
 3565TIP3   OH210700   5.628   4.475   1.931  0.1632 -0.8309 -0.2715
 3565TIP3    H110701   5.691   4.538   1.895 -1.6401  1.2894  0.1089
 3565TIP3    H210702   5.654   4.466   2.023 -1.3607  1.8486  0.5079
 3566TIP3   OH210703   4.091   3.175   2.740  0.1191 -0.3352 -0.0306
 3566TIP3    H110704   4.123   3.094   2.700  2.3493 -0.3097  1.5417
 3566TIP3    H210705   4.137   3.181   2.823 -1.1557  1.7934  0.6032
 3567TIP3   OH210706   1.352   0.570   4.014  0.0819  0.4478 -0.0574
 3567TIP3    H110707   1.330   0.481   4.043  0.6348  0.4116  0.2822
 3567TIP3    H210708   1.291   0.626   4.061 -0.3246  0.2406 -0.3375
 3568TIP3   OH210709   1.129   0.434   2.508  0.2975  0.1856  0.1405
 3568TIP3    H110710   1.070   0.372   2.550  1.5118 -1.5943 -0.6584
 3568TIP3    H210711   1.118   0.515   2.557 -2.9194  0.0159 -0.0830
 3569TIP3   OH210712   5.413   2.149   1.965  0.1586  0.2612 -0.0742
 3569TIP3    H110713   5.327   2.113   1.983  1.0186 -2.0196 -0.1666
 3569TIP3    H210714   5.402   2.244   1.972 -2.4034  0.0500 -0.4390
 3570TIP3   OH210715   0.536   2.828   4.523  0.3431  0.0045 -0.1321
 3570TIP3    H110716   0.587   2.751   4.549  0.1861 -0.5515 -1.3853
 3570TIP3    H210717   0.586   2.867   4.452 -0.7516 -0.3166 -1.1030
 3571TIP3   OH210718   0.699   3.857   3.713  0.2297 -0.4667  0.2835
 3571TIP3    H110719   0.707   3.792   3.643 -0.9536 -0.6047  0.2650
 3571TIP3    H210720   0.742   3.935   3.678  1.3766 -1.1167  0.1771
 3572TIP3   OH210721   2.467   5.091   4.070 -0.2633 -0.2332 -0.5983
 3572TIP3    H110722   2.404   5.089   3.998 -1.5168  2.3024  0.2962
 3572TIP3    H210723   2.448   5.013   4.122 -0.6140 -1.0782 -1.9736
 3573TIP3   OH210724   0.404   3.536   4.030 -0.1216 -0.6398  0.3757
 3573TIP3    H110725   0.351   3.615   4.046  0.8486  0.4831 -1.5253
 3573TIP3    H210726   0.481   3.547   4.085 -0.0376 -0.2763  0.1930
 3574TIP3   OH210727   0.084   5.806   0.460  0.4713  0.0750  0.3384
 3574TIP3    H110728   0.110   5.773   0.546 -0.9033  1.5378  1.3650
 3574TIP3    H210729   0.166   5.811   0.410  1.5149  0.5413  2.0312
 3575TIP3   OH210730   5.823   5.183   0.204  0.3407  0.9237 -0.2486
 3575TIP3    H110731   5.792   5.160   0.116 -0.2606 -2.9046  0.7755
 3575TIP3    H210732   5.902   5.131   0.216 -1.7246 -1.9388  2.7228
 3576TIP3   OH210733   4.826   3.076   4.442 -0.0857  0.1342 -0.1234
 3576TIP3    H110734   4.775   3.120   4.510 -0.0118 -1.4760  1.0390
 3576TIP3    H210735   4.762   3.018   4.398  0.0081  0.6895 -1.0149
 3577TIP3   OH210736   4.328   0.792   3.874 -1.0170 -0.5916  0.1651
 3577TIP3    H110737   4.396   0.848   3.837  0.5765 -3.3614 -1.4472
 3577TIP3    H210738   4.248   0.818   3.828 -0.6802  1.2981  0.5551
 3578TIP3   OH210739   4.422   1.114   3.968  0.4600 -0.2729  0.2307
 3578TIP3    H110740   4.337   1.085   3.934 -0.1461  1.2863  0.3397
 3578TIP3    H210741   4.486   1.078   3.907 -0.3912 -0.1531 -0.7606
 3579TIP3   OH210742   5.524   5.266   1.270 -0.1813  0.4410 -0.0860
 3579TIP3    H110743   5.610   5.307   1.258 -1.5476  3.0470 -2.2420
 3579TIP3    H210744   5.516   5.253   1.364  3.3422 -1.9130  0.0538
 3580TIP3   OH210745   1.911   4.676   0.058 -0.4242  0.4133  0.5531
 3580TIP3    H110746   1.873   4.588   0.058 -1.0171  0.6635  0.5202
 3580TIP3    H210747   1.836   4.734   0.046 -0.1491  0.9758  1.4894
 3581TIP3   OH210748   3.432   5.967   1.465  0.3359  0.3783 -0.0641
 3581TIP3    H110749   3.520   5.998   1.489  0.9402  0.4774 -2.1481
 3581TIP3    H210750   3.431   5.974   1.369 -2.8492  2.8221  0.0053
 3582TIP3   OH210751   1.659   4.968   3.855 -0.1700  0.1493  0.4196
 3582TIP3    H110752   1.659   5.043   3.914  1.3809 -1.2023  2.2738
 3582TIP3    H210753   1.717   4.904   3.897 -0.9825 -1.8857 -1.3444
 3583TIP3   OH210754   3.641   2.574   2.616 -0.3082  0.3669 -0.3761
 3583TIP3    H110755   3.663   2.554   2.525  1.9509  2.1499 -0.3103
 3583TIP3    H210756   3.601   2.661   2.612 -0.1228  0.4863  0.3198
 3584TIP3   OH210757   1.646   0.952   3.238 -0.1299  0.1935  0.2711
 3584TIP3    H110758   1.620   1.041   3.259 -0.7726  0.5695 -1.9049
 3584TIP3    H210759   1.741   0.952   3.249 -0.1032  1.2036  0.1596
 3585TIP3   OH210760   2.041   4.265   4.733  0.1144 -0.0247 -0.5253
 3585TIP3    H110761   2.080   4.306   4.811  1.7318  0.3402 -1.4731
 3585TIP3    H210762   2.078   4.314   4.660  0.0609 -1.5187 -1.5948
 3586TIP3   OH210763   5.420   4.125   3.495  0.3165 -0.6199  0.3243
 3586TIP3    H110764   5.336   4.172   3.494  1.2251  1.0781 -0.2352
 3586TIP3    H210765   5.413   4.066   3.570 -1.8401 -1.4663 -0.4469
 3587TIP3   OH210766   3.204   2.087   1.013  0.4428 -0.2986  0.5776
 3587TIP3    H110767   3.129   2.028   1.010  1.2116 -1.3666  1.5677
 3587TIP3    H210768   3.223   2.106   0.921 -1.6283  0.8168  0.3190
 3588TIP3   OH210769   1.338   1.397   3.433 -0.7305  0.0645  0.1680
 3588TIP3    H110770   1.368   1.473   3.482 -0.2812  1.1604 -1.7036
 3588TIP3    H210771   1.245   1.389   3.455 -1.2805  2.3494 -0.9786
 3589TIP3   OH210772   1.637   0.521   0.930 -0.6255 -0.3663 -0.1686
 3589TIP3    H110773   1.561   0.481   0.974 -1.3000  0.6723 -0.3615
 3589TIP3    H210774   1.673   0.581   0.995  1.3177 -2.3104  0.6828
 3590TIP3   OH210775   3.212   0.283   3.755  0.4394 -0.1687  1.0382
 3590TIP3    H110776   3.204   0.281   3.660  0.3317 -2.9254  1.0351
 3590TIP3    H210777   3.298   0.322   3.771  0.9232 -0.6543 -0.2414
 3591TIP3   OH210778   5.997   3.084   4.044 -0.1042 -0.1092  0.8353
 3591TIP3    H110779   6.001   3.128   3.960 -0.7540 -1.0854  0.2816
 3591TIP3    H210780   5.967   3.151   4.105  1.1773  0.8365  0.4777
 3592TIP3   OH210781   0.697   0.288   4.596 -0.0647  0.1006 -0.4714
 3592TIP3    H110782   0.613   0.280   4.640 -0.5639  2.4702 -0.8470
 3592TIP3    H210783   0.675   0.292   4.503  0.4331  0.8311 -0.5683
 3593TIP3   OH210784   4.300   3.423   4.923 -0.1717 -0.4364 -0.3093
 3593TIP3    H110785   4.251   3.454   4.847 -1.3128 -1.3940  0.0224
 3593TIP3    H210786   4.279   3.330   4.930 -0.5594 -0.2478  1.5231
 3594TIP3   OH210787   4.141   4.544   4.209  0.3459  0.4716  0.0304
 3594TIP3    H110788   4.125   4.620   4.264 -0.7621  1.9665 -2.2477
 3594TIP3    H210789   4.113   4.570   4.122  1.9094 -1.8403 -1.2739
 3595TIP3   OH210790   5.098   4.652   0.907  0.1034 -0.7828 -0.3971
 3595TIP3    H110791   5.118   4.608   0.990 -0.2171 -0.1184  0.0413
 3595TIP3    H210792   5.183   4.683   0.876 -0.0825  1.5738  1.1949
 3596TIP3   OH210793   6.213   2.845   1.900 -0.1300 -0.0674  0.5741
 3596TIP3    H110794   6.274   2.802   1.960  2.8424  0.8346 -1.5908
 3596TIP3    H210795   6.208   2.786   1.825 -0.6202  0.6539  0.0286
 3597TIP3   OH210796   1.544   1.117   2.746 -0.1257  0.1019 -0.0175
 3597TIP3    H110797   1.531   1.057   2.819  0.8854  0.1979  0.2587
 3597TIP3    H210798   1.495   1.077   2.673  0.5167 -1.0533  0.1583
 3598TIP3   OH210799   4.565   2.246   3.372 -0.5316 -0.2649  0.2185
 3598TIP3    H110800   4.497   2.258   3.306  0.2708 -1.4453 -0.8730
 3598TIP3    H210801   4.639   2.210   3.324  1.8267  3.2032  0.8527
 3599TIP3   OH210802   3.422   5.291   0.240  0.0393  0.0151 -0.0350
 3599TIP3    H110803   3.459   5.308   0.327 -0.1118  1.6496 -0.2479
 3599TIP3    H210804   3.417   5.378   0.199  2.2975 -0.9070 -2.5959
 3600TIP3   OH210805   3.327   0.478   1.472 -0.2032 -0.5335  0.4043
 3600TIP3    H110806   3.255   0.430   1.431 -0.5480 -2.0189  2.6003
 3600TIP3    H210807   3.284   0.550   1.518  0.0383  0.2587 -0.5734
 3601TIP3   OH210808   4.736   1.862   2.845  0.2339 -0.2112  0.3083
 3601TIP3    H110809   4.768   1.853   2.935  0.2387 -0.0341  0.3244
 3601TIP3    H210810   4.733   1.956   2.830  2.1416 -0.2248 -0.5499
 3602TIP3   OH210811   4.020   1.697   4.787 -0.4308 -0.1312 -0.0620
 3602TIP3    H110812   4.096   1.700   4.845 -0.2247 -1.7685 -0.1955
 3602TIP3    H210813   3.956   1.644   4.834 -0.7617 -0.3742 -0.7711
 3603TIP3   OH210814   4.280   4.520   0.266 -0.0186 -0.0607  0.2396
 3603TIP3    H110815   4.201   4.570   0.287  0.4888  0.5714  0.6997
 3603TIP3    H210816   4.249   4.430   0.257 -0.7825  0.1623  0.4855
 3604TIP3   OH210817   2.766   0.699   4.201 -0.4182  0.3762  0.4445
 3604TIP3    H110818   2.767   0.771   4.137  0.7123  0.6798  0.7965
 3604TIP3    H210819   2.693   0.720   4.259 -0.3002  1.0722  0.3487
 3605TIP3   OH210820   0.792   3.478   0.610 -0.0975  0.1342  0.1091
 3605TIP3    H110821   0.823   3.567   0.630  0.0886 -0.0049  0.4524
 3605TIP3    H210822   0.696   3.486   0.609 -0.0711  0.4460 -0.3861
 3606TIP3   OH210823   4.556   4.396   0.064  0.2373 -0.0135  0.1073
 3606TIP3    H110824   4.645   4.420   0.088  0.6638 -1.1596 -0.2445
 3606TIP3    H210825   4.514   4.478   0.040  1.9610  0.2989 -2.2246
 3607TIP3   OH210826   5.044   0.165   3.838  0.0140  0.0143  0.5537
 3607TIP3    H110827   5.101   0.094   3.866  0.3452 -0.5455 -1.3819
 3607TIP3    H210828   4.970   0.121   3.796 -1.2008  0.7703  1.8215
 3608TIP3   OH210829   3.866   0.326   3.944 -0.2174 -0.0634  0.2250
 3608TIP3    H110830   3.874   0.312   3.850 -2.2389  1.8200 -0.3019
 3608TIP3    H210831   3.795   0.268   3.971 -0.6315  0.4570  0.2803
 3609TIP3   OH210832   3.887   1.715   1.903  0.6491 -0.1560  0.5652
 3609TIP3    H110833   3.917   1.694   1.991  0.7820 -1.7014  0.1803
 3609TIP3    H210834   3.888   1.632   1.856 -0.3927  0.4507 -0.6195
 3610TIP3   OH210835   5.787   0.725   0.687  0.8543 -0.5180 -0.5437
 3610TIP3    H110836   5.849   0.697   0.619 -1.8133 -1.1130 -2.9433
 3610TIP3    H210837   5.714   0.762   0.638 -0.9934 -0.4414  2.0831
 3611TIP3   OH210838   3.313   1.045   2.104 -0.3136  0.3094 -0.3005
 3611TIP3    H110839   3.312   0.950   2.088 -0.7593  0.3922 -0.7786
 3611TIP3    H210840   3.261   1.082   2.033 -0.6559  0.8660  0.2340
 3612TIP3   OH210841   4.992   0.301   2.850  0.9812  0.4662 -0.1094
 3612TIP3    H110842   5.063   0.247   2.815  1.6359  0.8394  0.6177
 3612TIP3    H210843   5.032   0.387   2.865 -0.0088  1.1211 -1.1085
 3613TIP3   OH210844   2.884   2.927   1.645 -0.1757 -0.3948  0.2096
 3613TIP3    H110845   2.918   2.853   1.595  0.3648  0.1002 -0.1827
 3613TIP3    H210846   2.945   2.935   1.719  0.4704  0.3802 -0.3930
 3614TIP3   OH210847   0.384   4.154   4.381 -0.2531 -0.2177  0.0142
 3614TIP3    H110848   0.327   4.200   4.319 -1.3962 -1.0071  0.4398
 3614TIP3    H210849   0.439   4.098   4.326 -0.0096  0.4220 -0.3983
 3615TIP3   OH210850   1.332   2.780   5.112 -0.2356 -0.3456  0.2342
 3615TIP3    H110851   1.252   2.821   5.076  0.2737  1.8087  1.4058
 3615TIP3    H210852   1.299   2.711   5.170 -1.1400 -1.3851 -1.4221
 3616TIP3   OH210853   1.625   3.016   4.089 -0.6537 -0.3163 -0.3224
 3616TIP3    H110854   1.534   3.041   4.069 -0.9038 -0.1847  0.9413
 3616TIP3    H210855   1.618   2.939   4.145 -0.1723  1.8647  3.0023
 3617TIP3   OH210856   3.788   5.147   3.752  0.0697  0.3175 -0.6301
 3617TIP3    H110857   3.824   5.194   3.677 -0.2299 -0.8446 -1.5362
 3617TIP3    H210858   3.863   5.105   3.793  0.7368  3.3315  1.5991
 3618TIP3   OH210859   1.439   4.088   0.795 -0.6943  0.1317 -0.8298
 3618TIP3    H110860   1.465   4.178   0.816 -0.7911 -0.2329  1.0308
 3618TIP3    H210861   1.344   4.094   0.781 -0.9477  0.1483  0.6509
 3619TIP3   OH210862   3.049   5.362   2.687  0.1233  0.4433 -0.3730
 3619TIP3    H110863   2.994   5.440   2.682 -0.6663 -0.0231  0.7309
 3619TIP3    H210864   3.044   5.324   2.599 -1.5507  0.2871 -0.2555
 3620TIP3   OH210865   5.104   3.267   2.234 -0.8501  0.1768  0.0638
 3620TIP3    H110866   5.148   3.205   2.292 -0.8634 -1.2591 -1.3681
 3620TIP3    H210867   5.170   3.333   2.213  0.2312 -1.1523 -0.9013
 3621TIP3   OH210868   0.699   5.088   4.260  0.1283 -0.2862  0.0181
 3621TIP3    H110869   0.623   5.088   4.202 -0.2005 -1.5571  0.4023
 3621TIP3    H210870   0.773   5.110   4.203 -0.5673  1.5232 -0.2476
 3622TIP3   OH210871   1.738   2.482   5.043 -0.1890  0.1993  0.1180
 3622TIP3    H110872   1.784   2.403   5.072 -1.2979 -1.2760 -1.8589
 3622TIP3    H210873   1.653   2.478   5.087  0.3059  1.1734  1.2199
 3623TIP3   OH210874   5.114   1.955   1.403 -0.1666  0.1284 -0.2328
 3623TIP3    H110875   5.159   2.038   1.417  2.6838 -1.6235  1.9075
 3623TIP3    H210876   5.081   1.960   1.313  2.0996  2.5829 -1.0342
 3624TIP3   OH210877   5.936   1.415   2.729 -0.2618  0.1104 -0.2998
 3624TIP3    H110878   5.905   1.380   2.813  1.1043  1.2076  0.7075
 3624TIP3    H210879   6.030   1.395   2.728 -0.4675 -0.9387 -2.1336
 3625TIP3   OH210880   5.353   0.614   2.870  0.1158 -0.1773 -0.0633
 3625TIP3    H110881   5.346   0.693   2.816  1.6487 -0.5286 -0.8601
 3625TIP3    H210882   5.390   0.645   2.953  2.6587 -0.2534 -1.0869
 3626TIP3   OH210883   4.008   0.871   0.348 -0.5705 -0.0804  0.2063
 3626TIP3    H110884   3.997   0.783   0.384  1.3602 -0.6845 -0.5454
 3626TIP3    H210885   4.030   0.925   0.424 -1.2861 -0.3146  0.5992
 3627TIP3   OH210886   1.215   0.279   2.914  0.3456  0.4757 -0.3600
 3627TIP3    H110887   1.241   0.359   2.959  1.7349  0.3462 -0.8682
 3627TIP3    H210888   1.298   0.234   2.896 -0.4507 -1.4579  0.5885
 3628TIP3   OH210889   2.774   3.016   3.574 -0.4935 -0.3983 -0.1382
 3628TIP3    H110890   2.737   3.091   3.620  0.8724  0.7930 -0.8991
 3628TIP3    H210891   2.869   3.030   3.578 -0.1755 -2.3553  0.1282
 3629TIP3   OH210892   3.997   5.571   0.186 -0.2966 -0.6047 -0.1552
 3629TIP3    H110893   3.994   5.480   0.215  2.6653 -1.1367 -1.1484
 3629TIP3    H210894   4.000   5.622   0.267  2.2477 -1.7132  0.5437
 3630TIP3   OH210895   4.260   3.170   1.166 -0.2197 -0.2988 -0.5529
 3630TIP3    H110896   4.211   3.103   1.118 -1.6826 -0.5508  1.1957
 3630TIP3    H210897   4.193   3.232   1.197  0.6092 -0.2840  1.3425
 3631TIP3   OH210898   5.570   2.843   4.670 -0.4530  0.1097 -0.0108
 3631TIP3    H110899   5.536   2.849   4.581  0.7802 -1.0592 -0.6085
 3631TIP3    H210900   5.648   2.899   4.670 -0.9851  0.8635  0.6251
 3632TIP3   OH210901   6.196   1.529   5.031 -0.0507 -0.2993  0.2418
 3632TIP3    H110902   6.238   1.451   4.995  0.6476  0.0777  0.2124
 3632TIP3    H210903   6.234   1.538   5.118 -2.9111 -2.1317  1.8240
 3633TIP3   OH210904   5.670   5.589   3.731  0.3448 -0.2910 -0.2537
 3633TIP3    H110905   5.582   5.625   3.743  0.7822  0.2821  1.6911
 3633TIP3    H210906   5.715   5.653   3.676 -0.2830 -0.3291 -0.8275
 3634TIP3   OH210907   4.915   3.323   1.761 -0.0768 -0.4849 -0.0375
 3634TIP3    H110908   4.875   3.253   1.812 -1.1741  0.1666  0.0221
 3634TIP3    H210909   4.842   3.375   1.728  0.5577 -1.0631 -2.6023
 3635TIP3   OH210910   0.526   1.957   2.318  0.3036  0.2185 -0.4165
 3635TIP3    H110911   0.448   1.972   2.371  0.8258  0.5235  0.2830
 3635TIP3    H210912   0.595   2.006   2.362  0.7503  0.5061 -1.4035
 3636TIP3   OH210913   5.329   2.401   1.978 -0.1786  0.0975 -0.4967
 3636TIP3    H110914   5.334   2.494   1.959  1.7604 -0.0287 -0.7257
 3636TIP3    H210915   5.325   2.396   2.074  2.6060  0.3986 -0.2805
 3637TIP3   OH210916   1.662   2.368   2.000 -0.0438  0.0843  0.0573
 3637TIP3    H110917   1.751   2.365   1.965 -0.3596  0.3278 -0.7860
 3637TIP3    H210918   1.648   2.461   2.021 -1.2103  0.6680 -2.8376
 3638TIP3   OH210919   0.213   4.471   3.021  0.2278 -0.0179 -0.2013
 3638TIP3    H110920   0.296   4.506   2.990  0.3940 -2.3251 -2.7670
 3638TIP3    H210921   0.148   4.506   2.961 -0.0825 -1.1139 -0.5377
 3639TIP3   OH210922   5.628   0.021   0.512 -0.0386 -0.3587  0.3650
 3639TIP3    H110923   5.718  -0.013   0.519  0.0873 -0.4748 -1.3321
 3639TIP3    H210924   5.632   0.084   0.440 -1.8085 -2.1851 -1.4599
 3640TIP3   OH210925   4.145   1.327   2.901  0.4353 -0.1933 -0.0020
 3640TIP3    H110926   4.079   1.341   2.833 -0.5789 -0.7041  0.8407
 3640TIP3    H210927   4.204   1.262   2.865  0.6427  0.4733 -0.8822
 3641TIP3   OH210928   1.390   0.620   4.935  0.7567 -0.1864 -0.3544
 3641TIP3    H110929   1.318   0.562   4.911  1.3420 -0.7209 -0.8517
 3641TIP3    H210930   1.387   0.690   4.869  0.1786  0.2578  0.1261
 3642TIP3   OH210931   1.230   5.562   1.280 -0.7464  0.1462 -0.6515
 3642TIP3    H110932   1.170   5.572   1.206  0.8280 -0.7523 -2.1390
 3642TIP3    H210933   1.280   5.482   1.259 -0.7899 -0.5856  1.7906
 3643TIP3   OH210934   0.227   2.084   3.599 -0.1023  0.1025  0.4227
 3643TIP3    H110935   0.240   2.033   3.519 -0.2470  0.9733 -0.1643
 3643TIP3    H210936   0.223   2.019   3.669 -1.0348 -0.7361 -0.3972
 3644TIP3   OH210937   4.353   1.062   1.881  0.1867  0.7686  0.4703
 3644TIP3    H110938   4.336   0.998   1.812  1.9448  0.4939  0.2512
 3644TIP3    H210939   4.441   1.041   1.913 -0.4612  1.0494  2.6341
 3645TIP3   OH210940   6.133   3.056   0.966 -0.7123  0.1666  0.7849
 3645TIP3    H110941   6.100   3.134   0.922  0.8632  0.6734  0.4443
 3645TIP3    H210942   6.174   3.089   1.046 -0.5820 -0.3828  0.9502
 3646TIP3   OH210943   0.397   4.507   1.216 -0.0034  0.1503  0.2389
 3646TIP3    H110944   0.423   4.568   1.147  1.3781 -0.4805  0.1644
 3646TIP3    H210945   0.474   4.452   1.230 -1.1105 -1.4204  0.4722
 3647TIP3   OH210946   0.002   2.675   1.130 -0.0471  0.3097 -0.1895
 3647TIP3    H110947   0.076   2.717   1.174 -0.0837 -1.5069  1.7649
 3647TIP3    H210948  -0.023   2.603   1.189 -2.8257  0.3385 -1.2134
 3648TIP3   OH210949   6.339   4.043   2.521  0.3214 -0.1482  0.1218
 3648TIP3    H110950   6.267   4.063   2.582 -1.3332 -0.4653 -1.6264
 3648TIP3    H210951   6.358   3.950   2.537 -0.3599 -0.3299 -0.0825
 3649TIP3   OH210952   1.329   0.903   1.399 -0.0268 -0.6780 -1.0105
 3649TIP3    H110953   1.425   0.898   1.400 -0.1061 -2.8027  0.0014
 3649TIP3    H210954   1.308   0.980   1.452  1.1070 -0.0389 -1.4556
 3650TIP3   OH210955   1.836   1.561   4.214 -0.7072 -0.2545  0.3815
 3650TIP3    H110956   1.871   1.647   4.189 -0.5253 -0.2355  0.6889
 3650TIP3    H210957   1.895   1.498   4.173 -0.7195 -0.2296  0.3262
 3651TIP3   OH210958   1.993   1.482   2.283  0.0946  0.0650 -0.3933
 3651TIP3    H110959   1.915   1.427   2.274 -0.5266  0.9904 -0.7859
 3651TIP3    H210960   2.032   1.484   2.196  0.7067 -0.5849 -0.1480
 3652TIP3   OH210961   1.139   5.448   3.931  0.4267 -0.4547  0.4950
 3652TIP3    H110962   1.143   5.413   3.842 -1.0418  0.3579  0.0813
 3652TIP3    H210963   1.179   5.380   3.985 -1.0682 -2.1535 -0.4438
 3653TIP3   OH210964   4.273   1.996   1.515  0.5295 -0.3438 -0.5551
 3653TIP3    H110965   4.238   2.084   1.532  1.5954  0.0378 -0.2881
 3653TIP3    H210966   4.357   2.011   1.473  1.1854 -1.2227  0.4060
 3654TIP3   OH210967   4.413   1.755   2.545  0.1158  0.1330 -0.3870
 3654TIP3    H110968   4.364   1.684   2.503  0.3543  0.9547 -2.1764
 3654TIP3    H210969   4.488   1.713   2.585 -0.3716 -0.7556 -0.3826
 3655TIP3   OH210970   0.321   5.547   1.430 -0.3568 -0.1779 -0.2348
 3655TIP3    H110971   0.305   5.628   1.480  1.0198 -0.8184  1.3556
 3655TIP3    H210972   0.415   5.550   1.410 -0.6120 -0.6418 -1.5836
 3656TIP3   OH210973   3.062   1.249   4.531 -0.3898  0.1366  0.8124
 3656TIP3    H110974   3.009   1.316   4.488  0.7154  1.0482  0.8190
 3656TIP3    H210975   3.096   1.196   4.459 -1.2879 -0.4614  0.8085
 3657TIP3   OH210976   2.098   5.221   4.653  0.4679 -0.0699 -0.0858
 3657TIP3    H110977   2.021   5.243   4.599  0.0408 -1.7386 -0.1974
 3657TIP3    H210978   2.065   5.219   4.742  0.3795 -0.7318 -0.1280
 3658TIP3   OH210979   3.989   3.216   3.290  0.3509  0.1828  0.4883
 3658TIP3    H110980   3.937   3.176   3.220 -0.3452  1.9319 -0.0624
 3658TIP3    H210981   4.068   3.162   3.295 -0.1531 -0.7273 -0.7850
 3659TIP3   OH210982   5.167   1.756   1.081  0.3758  0.6867 -0.5051
 3659TIP3    H110983   5.197   1.684   1.137 -0.4631 -0.3378 -1.3368
 3659TIP3    H210984   5.154   1.715   0.995  0.5315  1.9857 -1.1695
 3660TIP3   OH210985   5.960   4.039   4.041 -0.0191  0.3831  0.0644
 3660TIP3    H110986   5.995   4.124   4.013  1.1535  0.4063  1.4585
 3660TIP3    H210987   5.893   4.018   3.976  0.7524  1.6288 -1.1948
 3661TIP3   OH210988   1.910   0.702   2.926 -0.6491  0.5650  0.2637
 3661TIP3    H110989   1.949   0.616   2.912 -1.0798  0.4766 -0.4735
 3661TIP3    H210990   1.843   0.709   2.858 -0.6872  1.4398  0.3791
 3662TIP3   OH210991   0.528   0.937   2.906  0.2181  0.3211  0.6092
 3662TIP3    H110992   0.586   1.000   2.863  0.0069  0.9331  1.1869
 3662TIP3    H210993   0.565   0.928   2.994 -1.2991  1.7776  1.4527
 3663TIP3   OH210994   0.085   2.924   2.299  0.1196  0.3983  0.3019
 3663TIP3    H110995   0.178   2.911   2.287  0.1800  1.5236 -0.6711
 3663TIP3    H210996   0.043   2.874   2.230 -0.0886 -1.0323  1.4189
 3664TIP3   OH210997   5.304   5.757   0.579  0.1295  0.0879 -0.1579
 3664TIP3    H110998   5.255   5.710   0.513  1.0698  0.1331 -0.9150
 3664TIP3    H210999   5.252   5.748   0.659 -1.2473  0.4071 -0.9839
 3665TIP3   OH211000   2.229   0.907   0.753 -0.4541  0.0571  0.2449
 3665TIP3    H111001   2.224   0.844   0.682  0.2571 -0.4293  0.6256
 3665TIP3    H211002   2.321   0.908   0.779 -0.4754  1.1533  0.3322
 3666TIP3   OH211003   1.384   4.227   4.643 -0.0671 -0.3083 -0.5495
 3666TIP3    H111004   1.368   4.140   4.678  0.0380  0.4225  1.4210
 3666TIP3    H211005   1.432   4.273   4.711 -0.5287  1.4509 -1.3365
 3667TIP3   OH211006   2.911   5.936   3.603  0.4142 -0.9998 -0.1753
 3667TIP3    H111007   2.871   5.983   3.529  1.2781 -1.4440 -0.9503
 3667TIP3    H211008   2.998   5.973   3.611  0.1961 -0.6873  0.8949
 3668TIP3   OH211009   0.863   4.700   4.225  0.1234 -0.1342 -0.3205
 3668TIP3    H111010   0.847   4.652   4.306  0.4608 -1.3493 -0.9535
 3668TIP3    H211011   0.813   4.654   4.158  1.2686 -0.2481 -1.1363
 3669TIP3   OH211012   2.745   2.939   3.109  0.1735 -0.3723 -0.4171
 3669TIP3    H111013   2.796   3.013   3.140 -1.8480  0.8506  0.2242
 3669TIP3    H211014   2.691   2.914   3.185 -0.6030 -1.2223 -1.2211
 3670TIP3   OH211015   3.247   2.784   0.216  0.0725  0.0881  0.4562
 3670TIP3    H111016   3.265   2.708   0.161  0.3473 -0.9777  1.9414
 3670TIP3    H211017   3.324   2.840   0.206  1.5374 -1.5162  1.9928
 3671TIP3   OH211018   1.058   0.192   0.076  0.4223  0.3740 -0.0388
 3671TIP3    H111019   1.118   0.177   0.149  0.2139  0.1984  0.0988
 3671TIP3    H211020   1.114   0.198  -0.001  0.5510 -0.7331 -0.0505
 3672TIP3   OH211021   0.908   4.265   2.994  0.4569 -0.3266  0.5653
 3672TIP3    H111022   0.972   4.326   2.957 -0.3264  0.0690 -0.1712
 3672TIP3    H211023   0.961   4.193   3.029  1.2590 -0.7102 -1.3104
 3673TIP3   OH211024   3.005   2.063   3.457 -0.0541  0.1845 -0.0436
 3673TIP3    H111025   3.014   2.152   3.424  0.2929  0.2333  0.1734
 3673TIP3    H211026   3.031   2.007   3.384 -1.3697  0.2101 -0.5674
 3674TIP3   OH211027   3.208   1.380   1.941  1.0621  0.4334  0.0980
 3674TIP3    H111028   3.183   1.288   1.938  0.7400  0.4898  0.9018
 3674TIP3    H211029   3.302   1.379   1.923  0.7338  0.1382 -1.9300
 3675TIP3   OH211030   0.553   3.164   4.833  0.1210  0.5273  0.0314
 3675TIP3    H111031   0.574   3.071   4.843  1.5758  0.9729  1.5608
 3675TIP3    H211032   0.561   3.180   4.739  0.4766 -0.7578 -0.1823
 3676TIP3   OH211033   1.648   1.108   1.044 -0.7732 -0.0433 -0.6210
 3676TIP3    H111034   1.614   1.095   0.956 -0.8455 -0.9003 -0.4788
 3676TIP3    H211035   1.571   1.116   1.099 -0.7276  0.5250 -0.6356
 3677TIP3   OH211036   1.593   5.649   4.542  0.7168  0.0203 -0.2742
 3677TIP3    H111037   1.531   5.616   4.477 -0.6916 -0.0379  1.0484
 3677TIP3    H211038   1.578   5.743   4.544  0.3823 -0.0441  0.3389
 3678TIP3   OH211039   3.227   5.917   3.540 -0.0097 -0.4477 -0.2864
 3678TIP3    H111040   3.199   5.875   3.459 -0.3545 -1.6538  0.4380
 3678TIP3    H211041   3.198   6.008   3.531 -0.2494 -0.6223 -1.4082
 3679TIP3   OH211042   2.343   1.633   4.587  0.1500  0.2473  0.5779
 3679TIP3    H111043   2.330   1.582   4.667 -0.9756  0.1917  0.3703
 3679TIP3    H211044   2.427   1.677   4.601  1.5157 -2.1182  0.5074
 3680TIP3   OH211045   1.104   0.817   3.563  0.5626  0.2542 -0.0143
 3680TIP3    H111046   1.199   0.828   3.575  0.6449 -0.6795  0.2469
 3680TIP3    H211047   1.093   0.810   3.468  0.8330 -0.2202 -0.0177
 3681TIP3   OH211048   6.033   0.541   3.681  0.3651  0.5872  0.4975
 3681TIP3    H111049   6.077   0.603   3.739  0.6414 -1.2235  2.3250
 3681TIP3    H211050   5.959   0.508   3.732  0.9188 -1.4648  0.0814
 3682TIP3   OH211051   2.305   0.704   0.298  0.5059  0.1823  0.1602
 3682TIP3    H111052   2.333   0.779   0.245  1.1138 -0.6815 -0.7902
 3682TIP3    H211053   2.280   0.637   0.233 -0.8153 -0.1644  0.9807
 3683TIP3   OH211054   0.633   2.210   0.381 -0.4807 -0.0118  0.1166
 3683TIP3    H111055   0.606   2.294   0.416 -1.5306  0.2384 -1.2020
 3683TIP3    H211056   0.682   2.231   0.301 -1.8004 -0.6467 -0.9013
 3684TIP3   OH211057   6.273   2.158   3.366  0.4051 -0.3919  0.1056
 3684TIP3    H111058   6.236   2.217   3.431  1.5002  0.9135 -0.4001
 3684TIP3    H211059   6.199   2.132   3.312 -0.0735  0.6882  0.2228
 3685TIP3   OH211060   2.463   2.883   1.299  0.2161  0.8318 -0.1817
 3685TIP3    H111061   2.403   2.929   1.240  0.8402  2.0515  0.1092
 3685TIP3    H211062   2.452   2.927   1.383  1.7697  1.3283 -0.2062
 3686TIP3   OH211063   6.301   0.491   0.324  0.0276 -0.5186 -0.2112
 3686TIP3    H111064   6.312   0.411   0.377 -0.1535  0.5639  1.5464
 3686TIP3    H211065   6.210   0.487   0.294  0.2632 -1.3739 -0.8411
 3687TIP3   OH211066   4.605   0.981   2.014  0.0379  0.2258 -0.3869
 3687TIP3    H111067   4.634   1.049   1.954  0.2912  0.9079  0.4944
 3687TIP3    H211068   4.682   0.963   2.068  0.4982 -1.8851 -1.5840
 3688TIP3   OH211069   5.877   0.290   0.241  0.0754 -0.0110 -0.5244
 3688TIP3    H111070   5.824   0.324   0.313 -0.4555  2.3486 -1.9297
 3688TIP3    H211071   5.814   0.264   0.175  0.5995  0.6238 -1.2926
 3689TIP3   OH211072   1.612   3.353   0.631 -0.0397 -0.2223 -0.8046
 3689TIP3    H111073   1.589   3.326   0.720  0.7326 -0.7043 -0.7449
 3689TIP3    H211074   1.567   3.291   0.574 -0.4207  0.0021 -0.7573
 3690TIP3   OH211075   2.777   3.403   4.436 -0.6263 -0.5694  0.6743
 3690TIP3    H111076   2.776   3.488   4.480 -2.0348  0.1850 -0.7405
 3690TIP3    H211077   2.867   3.372   4.448  0.2176  1.5639  0.4045
 3691TIP3   OH211078   0.935   0.727   4.864 -0.2074  0.0659  0.1474
 3691TIP3    H111079   0.898   0.658   4.809  0.0652 -0.7891  1.0095
 3691TIP3    H211080   0.973   0.790   4.802  0.0990 -0.8759 -0.6341
 3692TIP3   OH211081   5.223   1.966   1.777  0.1080  0.2011  0.0554
 3692TIP3    H111082   5.303   1.970   1.829  0.4592 -1.1542 -0.3328
 3692TIP3    H211083   5.252   1.942   1.689 -0.6917 -0.1440 -0.1272
 3693TIP3   OH211084   0.896   3.362   2.344  0.6127  0.3273  0.0540
 3693TIP3    H111085   0.802   3.348   2.333 -0.0188  2.3435  2.0546
 3693TIP3    H211086   0.937   3.280   2.316 -1.7597 -0.7492 -0.4534
 3694TIP3   OH211087   5.565   1.934   4.659 -1.0079  0.3445  0.3467
 3694TIP3    H111088   5.511   1.945   4.580 -0.3902  0.9306 -0.0034
 3694TIP3    H211089   5.565   2.020   4.700  0.1552  0.5268  0.0068
 3695TIP3   OH211090   5.428   0.726   4.603 -0.0014 -0.2842  0.2475
 3695TIP3    H111091   5.499   0.679   4.647  0.2373 -1.4736 -1.3323
 3695TIP3    H211092   5.349   0.695   4.646  0.0153 -3.3478 -1.6458
 3696TIP3   OH211093   4.572   0.594   0.935 -0.2647 -0.3124  0.4427
 3696TIP3    H111094   4.549   0.513   0.980 -0.5763 -0.4728  0.0009
 3696TIP3    H211095   4.548   0.579   0.843  0.0603  0.1273  0.2790
 3697TIP3   OH211096   0.841   2.710   4.943  0.3714 -0.0144  0.1689
 3697TIP3    H111097   0.845   2.758   4.860  0.3338 -0.7844 -0.2874
 3697TIP3    H211098   0.811   2.622   4.918 -2.6264  0.5428  1.3236
 3698TIP3   OH211099   2.183   5.507   2.701 -0.3691 -0.0088 -0.0593
 3698TIP3    H111100   2.126   5.464   2.766  0.8779  0.7795  1.6140
 3698TIP3    H211101   2.213   5.435   2.645 -1.0739 -0.7853  0.5233
 3699TIP3   OH211102   1.232   5.747   3.239  0.4005  0.7836 -0.5887
 3699TIP3    H111103   1.158   5.763   3.298  0.6617  0.4886 -0.1763
 3699TIP3    H211104   1.193   5.700   3.165  0.3027 -0.0939  0.0010
 3700TIP3   OH211105   6.086   4.521   1.288  0.1119  0.1889 -0.2620
 3700TIP3    H111106   6.165   4.575   1.293 -1.2794  2.3569 -0.3694
 3700TIP3    H211107   6.053   4.535   1.199 -0.9061  0.0913  0.0859
 3701TIP3   OH211108   3.312   0.523   1.813 -0.0288  0.3195 -0.2937
 3701TIP3    H111109   3.302   0.549   1.905  0.1534  1.2045 -0.5101
 3701TIP3    H211110   3.259   0.444   1.804  1.1581 -0.6624  0.9332
 3702TIP3   OH211111   3.774   3.945   0.629  0.5211 -0.3325 -0.6263
 3702TIP3    H111112   3.856   3.993   0.635 -0.1811  0.9343 -0.7534
 3702TIP3    H211113   3.789   3.864   0.679  1.1731  0.8147  1.1362
 3703TIP3   OH211114   2.045   0.368   3.093  0.2185 -0.9709  0.3577
 3703TIP3    H111115   2.131   0.408   3.082 -0.0462  0.4972  2.8984
 3703TIP3    H211116   2.024   0.331   3.007  2.7541 -0.1619 -0.6813
 3704TIP3   OH211117   0.908   0.637   0.615 -0.3758 -0.0791  0.2844
 3704TIP3    H111118   0.960   0.564   0.649  0.2414  0.3168  0.2138
 3704TIP3    H211119   0.970   0.710   0.610 -1.1050  0.5926  0.8425
 3705TIP3   OH211120   5.079   1.743   2.023  0.2077  0.2678 -0.1176
 3705TIP3    H111121   5.104   1.750   1.931 -0.9004 -0.3270 -0.4821
 3705TIP3    H211122   4.999   1.691   2.022  1.5159 -1.9357  1.4086
 3706TIP3   OH211123   0.833   0.160   4.902  0.5098 -0.5603 -0.0327
 3706TIP3    H111124   0.740   0.181   4.899  0.5931 -0.1458  0.2035
 3706TIP3    H211125   0.847   0.103   4.826 -0.2998 -2.1897  0.9711
 3707TIP3   OH211126   5.421   5.705   3.044 -0.2111 -0.7693 -0.5149
 3707TIP3    H111127   5.344   5.661   3.007 -0.2031 -0.9828 -0.2779
 3707TIP3    H211128   5.393   5.796   3.057 -0.2351 -0.7039 -0.9874
 3708TIP3   OH211129   0.841   1.840   0.251 -0.2459 -0.1166  0.4549
 3708TIP3    H111130   0.809   1.781   0.319  1.5996 -3.4719 -1.2865
 3708TIP3    H211131   0.795   1.814   0.172 -1.1737  2.5998 -0.0157
 3709TIP3   OH211132   4.728   0.136   3.005 -0.3303 -0.2076 -0.2350
 3709TIP3    H111133   4.710   0.084   3.083 -0.7533  1.0205  0.5072
 3709TIP3    H211134   4.680   0.218   3.019  0.1612  0.3110 -1.4617
 3710TIP3   OH211135   3.394   1.395   4.014  0.2075  0.5359  0.0884
 3710TIP3    H111136   3.385   1.385   4.109 -2.0634  1.7557  0.0651
 3710TIP3    H211137   3.370   1.486   3.998  1.1516  0.5247 -1.6298
 3711TIP3   OH211138   5.739   2.558   5.174 -0.7017 -0.1824  0.0601
 3711TIP3    H111139   5.740   2.515   5.088 -0.4618 -0.7890  0.3677
 3711TIP3    H211140   5.816   2.615   5.173 -2.4124  2.3440 -1.3866
 3712TIP3   OH211141   6.062   0.125   1.474  0.5643  0.3050 -0.3333
 3712TIP3    H111142   6.080   0.193   1.409  0.3030  0.6892 -0.0057
 3712TIP3    H211143   6.137   0.126   1.532 -0.1560  1.4170  0.6116
 3713TIP3   OH211144   5.185   5.809   1.216  0.1121 -0.5342  0.2716
 3713TIP3    H111145   5.234   5.890   1.224 -0.2389 -0.4371  1.6821
 3713TIP3    H211146   5.107   5.823   1.269 -1.7206 -0.5163 -2.2422
 3714TIP3   OH211147   6.210   1.786   3.366 -0.4459 -0.3354 -0.2275
 3714TIP3    H111148   6.245   1.841   3.436  0.8825 -0.9499 -0.3684
 3714TIP3    H211149   6.164   1.847   3.308  3.2359  1.2082 -1.8382
 3715TIP3   OH211150   3.486   2.979   2.799 -0.2087  0.1961  0.0706
 3715TIP3    H111151   3.438   2.898   2.812  1.1464 -0.7491 -0.5948
 3715TIP3    H211152   3.452   3.014   2.716  0.9225 -0.9922 -0.9268
 3716TIP3   OH211153   2.021   4.770   3.534 -0.3232  0.2181 -0.0735
 3716TIP3    H111154   2.103   4.735   3.570 -0.0505 -0.1432 -1.0189
 3716TIP3    H211155   1.993   4.835   3.598 -0.8534 -1.6963  1.7749
 3717TIP3   OH211156   4.829   3.201   0.028 -0.1016 -0.1818  0.0373
 3717TIP3    H111157   4.772   3.126   0.042 -0.0327 -0.5161 -1.3074
 3717TIP3    H211158   4.903   3.166  -0.021 -0.8444  1.0096 -2.0692
 3718TIP3   OH211159   5.769   5.063   2.828 -0.0907  0.1398 -0.0259
 3718TIP3    H111160   5.712   5.017   2.766 -1.9646  0.3416  1.4647
 3718TIP3    H211161   5.793   4.996   2.892  0.4963  0.3178 -0.0542
 3719TIP3   OH211162   3.899   5.946   2.492  0.4520 -0.3741 -0.2924
 3719TIP3    H111163   3.881   5.934   2.399 -2.0384 -0.6251  0.1681
 3719TIP3    H211164   3.826   5.903   2.537  0.4170  1.6071  1.7395
 3720TIP3   OH211165   1.198   0.925   2.380 -0.1909 -0.1212 -0.0521
 3720TIP3    H111166   1.177   0.909   2.288 -0.7864 -0.3339  0.1163
 3720TIP3    H211167   1.181   1.018   2.393  1.0775  0.1856 -0.4590
 3721TIP3   OH211168   3.518   1.752   0.856  0.2095 -0.0424 -0.5056
 3721TIP3    H111169   3.587   1.817   0.849 -1.5715  1.9483 -0.5144
 3721TIP3    H211170   3.458   1.772   0.784 -2.9951  1.6653  2.3876
 3722TIP3   OH211171   0.792   1.039   3.917 -0.0686  0.0759 -0.2269
 3722TIP3    H111172   0.847   1.044   3.839  0.7099 -2.0013  0.1246
 3722TIP3    H211173   0.850   1.006   3.985 -1.4550 -1.1900  0.4117
 3723TIP3   OH211174   1.443   1.752   4.137 -0.7445  0.9413 -0.2244
 3723TIP3    H111175   1.431   1.827   4.080 -2.7021  1.2181  0.4604
 3723TIP3    H211176   1.388   1.683   4.098 -1.6336  0.9484  0.9539
 3724TIP3   OH211177   3.179   5.398   5.048  0.7574 -0.1122  0.2857
 3724TIP3    H111178   3.134   5.385   4.964  2.3149  0.7543 -0.7335
 3724TIP3    H211179   3.271   5.383   5.028  1.4668  2.3691  1.2543
 3725TIP3   OH211180   5.212   0.184   3.525  0.0693 -0.9402 -0.1186
 3725TIP3    H111181   5.206   0.171   3.431 -0.4135 -0.5288 -0.1512
 3725TIP3    H211182   5.136   0.237   3.547  0.5556 -0.4356  0.3961
 3726TIP3   OH211183   1.358   0.267   3.302 -0.6364  0.1582  0.7041
 3726TIP3    H111184   1.341   0.341   3.361  0.5991  0.2596  0.9563
 3726TIP3    H211185   1.411   0.305   3.232  1.3062 -0.7473  1.5974
 3727TIP3   OH211186   5.423   3.185   0.190  0.1019  0.2354 -0.2586
 3727TIP3    H111187   5.447   3.137   0.110  0.0414  0.4403 -0.3998
 3727TIP3    H211188   5.337   3.150   0.214 -0.1271  0.5576 -0.5898
 3728TIP3   OH211189   6.304   4.649   3.565 -0.0106  0.8200 -0.6748
 3728TIP3    H111190   6.217   4.616   3.589 -0.1644  0.1404 -2.0339
 3728TIP3    H211191   6.363   4.577   3.588  0.2200  1.3246  0.3491
 3729TIP3   OH211192   3.158   5.649   0.453  0.1157  0.1003 -0.3112
 3729TIP3    H111193   3.242   5.623   0.415 -0.0063  0.0355 -0.5351
 3729TIP3    H211194   3.181   5.713   0.521  0.3791 -0.2119 -0.1005
 3730TIP3   OH211195   0.235   5.153   4.927  0.3413 -0.2703  0.3672
 3730TIP3    H111196   0.303   5.110   4.978  0.2963 -1.9382 -0.8652
 3730TIP3    H211197   0.259   5.136   4.836 -0.2171  1.5645 -0.1635
 3731TIP3   OH211198   3.680   4.549   0.306  0.6643 -0.1552 -0.6668
 3731TIP3    H111199   3.595   4.558   0.263  0.8617 -0.0377 -1.0332
 3731TIP3    H211200   3.743   4.578   0.241  0.8927  1.0472  0.0629
 3732TIP3   OH211201   2.180   1.732   2.884  0.2215 -0.0322 -0.3185
 3732TIP3    H111202   2.252   1.767   2.936 -0.7959  0.0848  1.0681
 3732TIP3    H211203   2.118   1.699   2.949 -0.9616 -0.1498 -1.4776
 3733TIP3   OH211204   1.527   1.515   0.845 -0.5468  0.3612  0.4046
 3733TIP3    H111205   1.476   1.484   0.920 -1.6778 -0.3073 -0.6087
 3733TIP3    H211206   1.572   1.593   0.877 -0.5320 -0.2559  1.9444
 3734TIP3   OH211207   5.551   0.189   1.902 -0.2762  0.5454  0.3578
 3734TIP3    H111208   5.481   0.131   1.871  1.0174 -0.8297 -0.0706
 3734TIP3    H211209   5.579   0.236   1.823 -0.6860  1.0803  0.5256
 3735TIP3   OH211210   0.131   5.623   4.838 -0.3561  0.0881  0.4800
 3735TIP3    H111211   0.206   5.594   4.785  0.0167  1.5155  0.1761
 3735TIP3    H211212   0.165   5.697   4.888 -1.5643  0.7743  0.3174
 3736TIP3   OH211213   4.913   2.976   0.306  0.2739 -0.2892  0.2984
 3736TIP3    H111214   4.922   2.932   0.221 -1.2993  1.2660 -0.7337
 3736TIP3    H211215   4.825   3.013   0.305  1.2540  2.3059  1.3541
 3737TIP3   OH211216   2.285   4.674   4.274 -0.6210  0.1272 -0.7161
 3737TIP3    H111217   2.298   4.703   4.364  0.0194 -0.9375 -0.4468
 3737TIP3    H211218   2.322   4.744   4.220  1.1188 -0.2520 -0.0839
 3738TIP3   OH211219   1.619   2.576   2.146 -0.1056 -0.2541  0.5299
 3738TIP3    H111220   1.525   2.591   2.155  0.0075  0.4158  0.6007
 3738TIP3    H211221   1.653   2.580   2.235 -0.0602 -0.8759  0.5460
 3739TIP3   OH211222   6.027   4.072   4.686  0.0626 -0.0721 -0.1853
 3739TIP3    H111223   6.052   4.043   4.774 -1.9955  1.8866  1.1737
 3739TIP3    H211224   6.003   3.992   4.640 -1.6539 -0.9774  2.0862
 3740TIP3   OH211225   2.831   3.242   2.817 -0.0932  0.3382  0.2265
 3740TIP3    H111226   2.794   3.245   2.729 -0.2704  0.5248  0.3080
 3740TIP3    H211227   2.872   3.155   2.823  1.4788  0.9878 -0.6634
 3741TIP3   OH211228   2.136   1.031   0.984  0.0374 -0.3327 -0.0685
 3741TIP3    H111229   2.166   0.972   0.915  0.8233 -1.8963  1.5382
 3741TIP3    H211230   2.045   1.004   1.000 -0.0932 -0.0786 -0.3834
 3742TIP3   OH211231   5.107   1.787   4.309 -0.1230  0.4753  0.0006
 3742TIP3    H111232   5.109   1.800   4.214  0.9320  0.0080 -0.0550
 3742TIP3    H211233   5.158   1.860   4.345  0.2986  0.1253  0.1293
 3743TIP3   OH211234   4.221   5.956   3.383 -0.2010 -0.1346 -0.2231
 3743TIP3    H111235   4.314   5.942   3.397 -0.8631 -3.9989  1.7334
 3743TIP3    H211236   4.192   6.006   3.460  0.0347 -0.3839  0.0320
 3744TIP3   OH211237   5.699   1.048   5.169  0.2120  0.3308  0.1169
 3744TIP3    H111238   5.669   0.993   5.241  1.0473 -0.3898 -0.0632
 3744TIP3    H211239   5.723   0.986   5.100 -0.2280  0.9909 -0.6555
 3745TIP3   OH211240   6.289   4.235   0.233  0.2115  0.4216  0.4462
 3745TIP3    H111241   6.198   4.229   0.204  0.1113  0.6165  0.7186
 3745TIP3    H211242   6.311   4.328   0.227 -0.2608  0.6932  2.3265
 3746TIP3   OH211243   4.157   4.075   3.282 -0.3987 -0.0449  0.8794
 3746TIP3    H111244   4.136   4.155   3.329 -1.0080  0.1279  0.3141
 3746TIP3    H211245   4.139   4.094   3.191 -0.2915 -0.7391  0.7027
 3747TIP3   OH211246   5.639   5.264   2.937  0.4233 -0.0420 -0.1973
 3747TIP3    H111247   5.562   5.224   2.976  0.1917  0.5885  0.0010
 3747TIP3    H211248   5.698   5.191   2.919 -0.6291 -0.6637 -1.2938
 3748TIP3   OH211249   4.851   1.820   3.082 -0.1403  0.3453  0.1719
 3748TIP3    H111250   4.854   1.802   3.176 -1.8487 -0.0902  0.1806
 3748TIP3    H211251   4.921   1.884   3.068 -0.0962  0.7156  1.8048
 3749TIP3   OH211252   2.533   0.908   3.791  0.2567 -0.0567  0.2938
 3749TIP3    H111253   2.557   0.874   3.705  0.8633 -0.0698  0.4660
 3749TIP3    H211254   2.529   0.830   3.847 -1.7910 -0.2797 -0.0718
 3750TIP3   OH211255   5.812   2.645   3.443  0.0214  0.4657  0.0002
 3750TIP3    H111256   5.825   2.551   3.430 -0.3571  0.4703 -0.4554
 3750TIP3    H211257   5.895   2.676   3.476  0.2490  0.0187 -0.1349
 3751TIP3   OH211258   1.174   5.216   0.947 -0.1595  0.1671 -0.1939
 3751TIP3    H111259   1.110   5.147   0.964  0.5676 -0.5590 -0.3183
 3751TIP3    H211260   1.250   5.170   0.912  1.0140  0.8171  1.3644
 3752TIP3   OH211261   2.145   3.356   2.960  0.6039  0.4619 -0.1647
 3752TIP3    H111262   2.103   3.284   2.912 -0.3104  1.0378 -0.2445
 3752TIP3    H211263   2.232   3.364   2.919 -0.2252  1.0962 -1.9008
 3753TIP3   OH211264   4.934   1.183   0.401 -0.1769 -0.5656  0.0415
 3753TIP3    H111265   4.854   1.216   0.359  0.3324 -0.6786 -1.0472
 3753TIP3    H211266   4.998   1.252   0.387  0.0403 -0.6722  0.5102
 3754TIP3   OH211267   4.932   1.424   1.437  0.1422  0.4478 -0.0603
 3754TIP3    H111268   4.858   1.406   1.379  0.1120  1.4337 -0.3533
 3754TIP3    H211269   4.944   1.519   1.431 -0.1840  0.6605  1.9239
 3755TIP3   OH211270   4.053   5.816   0.319 -0.2729  0.3537 -0.0717
 3755TIP3    H111271   4.126   5.875   0.302 -0.2265 -0.0018 -1.2065
 3755TIP3    H211272   3.993   5.829   0.245  0.1648 -1.6333 -0.8690
 3756TIP3   OH211273   0.989   3.724   3.122 -0.0590  0.1201 -0.1978
 3756TIP3    H111274   1.013   3.808   3.162  0.3799 -0.5863  1.1166
 3756TIP3    H211275   0.933   3.682   3.187  0.0608 -0.7709 -0.6577
 3757TIP3   OH211276   5.676   2.411   4.952  0.2451 -0.5035 -0.2038
 3757TIP3    H111277   5.686   2.319   4.929  0.2979 -0.5294 -0.0780
 3757TIP3    H211278   5.657   2.455   4.869 -1.7856 -0.9100  0.0068
 3758TIP3   OH211279   5.914   5.247   4.551 -0.1827 -0.0479 -0.2437
 3758TIP3    H111280   5.905   5.339   4.576  1.7919  0.1295 -0.0381
 3758TIP3    H211281   5.989   5.216   4.600 -0.5665 -1.6853 -0.6253
 3759TIP3   OH211282   5.952   4.771   4.464  0.4644 -0.0293 -0.0699
 3759TIP3    H111283   5.870   4.818   4.451  0.7065  0.0189 -1.6836
 3759TIP3    H211284   5.932   4.704   4.529 -0.1601  1.5820  1.4886
 3760TIP3   OH211285   1.504   1.668   5.112  0.1472  0.4643 -0.7902
 3760TIP3    H111286   1.552   1.685   5.031  0.6761  1.7381 -0.2332
 3760TIP3    H211287   1.489   1.755   5.149  0.4756 -0.1338  0.8016
 3761TIP3   OH211288   5.127   0.579   4.409 -0.0671  0.6593 -0.6168
 3761TIP3    H111289   5.057   0.633   4.372 -0.1038  0.9014 -0.1958
 3761TIP3    H211290   5.202   0.595   4.352  0.4287  2.4776  0.4665
 3762TIP3   OH211291   0.174   4.839   1.666 -0.1115 -0.2066 -0.3968
 3762TIP3    H111292   0.118   4.836   1.744  0.1866 -2.2554 -0.2047
 3762TIP3    H211293   0.170   4.750   1.630  1.1908  0.2184 -1.7059
 3763TIP3   OH211294   4.655   1.722   1.321 -0.0531  0.1589 -0.3175
 3763TIP3    H111295   4.691   1.803   1.357 -2.1024 -0.0862  2.6547
 3763TIP3    H211296   4.577   1.750   1.272 -1.8724  0.0343  2.2707
 3764TIP3   OH211297   0.338   3.699   1.963 -0.9138 -0.1940  0.4056
 3764TIP3    H111298   0.343   3.617   2.013  0.8044 -1.1777 -1.2267
 3764TIP3    H211299   0.248   3.702   1.931 -0.6730 -2.2068 -0.6189
 3765TIP3   OH211300   2.171   2.527   2.030  0.0395  0.4433  0.8295
 3765TIP3    H111301   2.210   2.470   2.096  0.7372  0.2986  0.3018
 3765TIP3    H211302   2.138   2.602   2.079  1.7028  0.9574  1.2129
 3766TIP3   OH211303   3.591   2.925   4.497  0.0335 -0.0628  0.1842
 3766TIP3    H111304   3.675   2.890   4.528 -0.9628 -0.9567  2.0590
 3766TIP3    H211305   3.584   3.010   4.540 -0.2093 -0.1959  0.4149
 3767TIP3   OH211306   6.120   2.797   0.815 -0.1373 -0.2308 -1.0992
 3767TIP3    H111307   6.036   2.804   0.769  0.3956  2.5194 -1.7988
 3767TIP3    H211308   6.137   2.885   0.849  1.5400 -1.1798  0.7811
 3768TIP3   OH211309   5.553  -0.017   3.229  0.0441  0.4211  0.3306
 3768TIP3    H111310   5.576  -0.006   3.322  0.5293 -0.2620  0.3000
 3768TIP3    H211311   5.557   0.072   3.193 -1.5835  0.9100  1.2741
 3769TIP3   OH211312   2.049   5.310   3.342  0.1431  0.2799 -0.2477
 3769TIP3    H111313   2.049   5.393   3.391  0.2991  2.4866 -3.6579
 3769TIP3    H211314   1.961   5.305   3.305  0.3923 -0.6685 -0.7301
 3770TIP3   OH211315   3.382   5.369   4.163 -0.2172  0.1505 -0.3919
 3770TIP3    H111316   3.305   5.424   4.146 -0.1670 -0.1705 -1.7939
 3770TIP3    H211317   3.440   5.425   4.215 -0.7187  0.9685 -0.6863
 3771TIP3   OH211318   3.366   1.189   4.776  0.2445  0.0014  0.1722
 3771TIP3    H111319   3.452   1.168   4.810  1.2147 -0.2328 -2.2170
 3771TIP3    H211320   3.381   1.263   4.717 -0.9508 -0.7888 -1.1989
 3772TIP3   OH211321   4.712   5.031   0.931  0.8905  0.3094  0.5754
 3772TIP3    H111322   4.626   4.991   0.923  0.6269  0.9810  0.0090
 3772TIP3    H211323   4.711   5.104   0.871  1.1694  1.5290  1.9905
 3773TIP3   OH211324   5.358   5.887   1.928 -0.2243  0.1305  0.2087
 3773TIP3    H111325   5.314   5.861   2.009  0.1646  0.4668  0.5311
 3773TIP3    H211326   5.350   5.983   1.926 -1.2237  0.0573 -0.7257
 3774TIP3   OH211327   3.803   0.421   5.100 -0.1940 -0.4687  0.0672
 3774TIP3    H111328   3.880   0.407   5.045  0.5683 -1.4612  1.3374
 3774TIP3    H211329   3.745   0.475   5.046  1.6730  0.9386 -0.6718
 3775TIP3   OH211330   3.974   5.335   3.224  0.8457  0.3774 -0.2768
 3775TIP3    H111331   4.038   5.404   3.204  1.4481 -0.1127 -0.0969
 3775TIP3    H211332   4.011   5.290   3.300  0.2110  0.1646 -0.0923
 3776TIP3   OH211333   2.080   5.886   0.403  0.3180  0.0256  0.0075
 3776TIP3    H111334   2.123   5.801   0.397  0.3096  0.0803 -0.9989
 3776TIP3    H211335   2.010   5.882   0.338  0.4295  0.8619 -0.1814
 3777TIP3   OH211336   2.574   3.289   0.993 -0.2964  0.3526 -0.3601
 3777TIP3    H111337   2.600   3.214   1.047  0.9174  0.6699 -0.4565
 3777TIP3    H211338   2.644   3.296   0.927  1.1438  3.1522  1.2584
 3778TIP3   OH211339   6.127   3.708   1.108 -0.5227 -0.1334  0.0061
 3778TIP3    H111340   6.087   3.647   1.169 -1.2386  0.5405  0.2205
 3778TIP3    H211341   6.068   3.783   1.106 -0.5619 -0.1678 -1.5792
 3779TIP3   OH211342   5.535   3.519   4.301  0.3663  0.1989  0.3332
 3779TIP3    H111343   5.541   3.458   4.228 -0.0407  0.0851  0.3929
 3779TIP3    H211344   5.511   3.603   4.261 -2.3935 -0.3883  0.5364
 3780TIP3   OH211345   1.251   5.238   3.341  0.4258 -0.2008  0.0846
 3780TIP3    H111346   1.238   5.157   3.293  1.2702 -0.8042  0.8558
 3780TIP3    H211347   1.321   5.219   3.404  0.4941  1.0530  0.4220
 3781TIP3   OH211348   5.826   4.478   1.118 -0.8486 -0.7414 -0.0792
 3781TIP3    H111349   5.868   4.414   1.061 -1.4594 -1.6813  0.5114
 3781TIP3    H211350   5.737   4.487   1.084 -0.4875  0.5574 -0.7626
 3782TIP3   OH211351   1.448   5.604   3.419 -0.3842  0.3011  0.7213
 3782TIP3    H111352   1.415   5.636   3.335  0.5204 -1.3075 -0.3017
 3782TIP3    H211353   1.380   5.629   3.483 -0.4492  2.7534 -0.2214
 3783TIP3   OH211354   2.055   0.520   0.751 -0.1044 -0.1966  0.4557
 3783TIP3    H111355   2.093   0.451   0.696  0.8022  0.6361  0.0059
 3783TIP3    H211356   1.972   0.542   0.709  0.8749  0.8859 -1.0144
 3784TIP3   OH211357   1.301   4.205   3.716  0.0421  0.0033  0.1864
 3784TIP3    H111358   1.291   4.293   3.679 -1.9782 -0.3066 -0.1508
 3784TIP3    H211359   1.309   4.220   3.811 -0.2506  0.5560  0.1299
 3785TIP3   OH211360   0.341   2.381   2.406  0.3063  0.2446  0.4422
 3785TIP3    H111361   0.330   2.297   2.363 -1.4625  1.1072 -0.9265
 3785TIP3    H211362   0.302   2.369   2.493  0.8449 -0.5518  0.5881
 3786TIP3   OH211363   3.262   2.313   4.494  0.1569 -0.3480 -0.1357
 3786TIP3    H111364   3.313   2.289   4.572 -1.1221 -2.6403  0.0906
 3786TIP3    H211365   3.194   2.372   4.527 -0.9397 -2.0163  0.7242
 3787TIP3   OH211366   4.719   1.593   3.067  0.0241  0.8422 -0.0986
 3787TIP3    H111367   4.765   1.676   3.083 -0.6184  0.9711  1.1964
 3787TIP3    H211368   4.788   1.530   3.049  0.6718  1.1920  1.1022
 3788TIP3   OH211369   6.284   2.591   0.877 -0.0764 -0.0958 -0.0380
 3788TIP3    H111370   6.234   2.668   0.851  1.2933  0.2494 -1.8865
 3788TIP3    H211371   6.322   2.615   0.962  0.6167  1.4610 -0.7429
 3789TIP3   OH211372   4.502   5.158   4.839 -0.1101  0.2358 -0.0821
 3789TIP3    H111373   4.525   5.098   4.910 -0.2636  1.7540  1.3046
 3789TIP3    H211374   4.458   5.102   4.774 -1.6273 -0.9192  1.8326
 3790TIP3   OH211375   6.333   5.911   4.923  0.1733 -0.2263 -0.0042
 3790TIP3    H111376   6.269   5.846   4.893 -0.2052  0.2130 -0.1602
 3790TIP3    H211377   6.347   5.890   5.016 -1.1686  0.4530  0.3750
 3791TIP3   OH211378   0.148   3.794   2.328  0.3410 -0.1536 -0.4039
 3791TIP3    H111379   0.177   3.703   2.320  0.9937 -0.1793  1.6666
 3791TIP3    H211380   0.205   3.843   2.269  0.6971 -0.9477 -0.7324
 3792TIP3   OH211381   1.572   5.955   0.640  0.1418 -0.4196  0.1442
 3792TIP3    H111382   1.488   5.984   0.604  0.8107 -0.1882 -1.3348
 3792TIP3    H211383   1.611   5.902   0.570  0.2605 -2.4564  1.6552
 3793TIP3   OH211384   3.045   3.776   1.277  0.5666  0.4539 -1.0269
 3793TIP3    H111385   3.004   3.789   1.192 -1.5775 -0.1240 -0.1490
 3793TIP3    H211386   2.990   3.826   1.338 -1.2979 -3.3754  0.7896
 3794TIP3   OH211387   5.386   3.030   1.612  0.3000  0.3252  0.0151
 3794TIP3    H111388   5.396   3.125   1.607 -3.0352  0.7576 -0.3366
 3794TIP3    H211389   5.389   3.001   1.521  1.1065  0.0800  0.1101
 3795TIP3   OH211390   5.351   1.864   0.745 -0.2398  0.0739 -0.2517
 3795TIP3    H111391   5.324   1.926   0.813 -0.3415  0.0849 -0.3016
 3795TIP3    H211392   5.320   1.904   0.663 -2.1384 -1.0333 -0.1241
 3796TIP3   OH211393   2.607   4.706   3.988  0.3685 -0.0468 -0.0966
 3796TIP3    H111394   2.592   4.787   4.035  0.9671 -0.9004  1.6812
 3796TIP3    H211395   2.587   4.726   3.897 -0.1261  1.8907  0.4007
 3797TIP3   OH211396   2.135   2.544   1.712  0.5937 -0.3314  0.4233
 3797TIP3    H111397   2.210   2.486   1.698 -0.7577 -2.0606 -0.0075
 3797TIP3    H211398   2.097   2.515   1.794  0.8687  1.1413  1.1162
 3798TIP3   OH211399   5.248   1.109   2.105 -0.0497 -0.0619 -0.2475
 3798TIP3    H111400   5.272   1.199   2.124 -1.0868  0.5263 -1.6112
 3798TIP3    H211401   5.324   1.073   2.059 -0.5331  0.8723 -1.8523
 3799TIP3   OH211402   3.892   5.549   3.419  0.1861  0.4238  0.2978
 3799TIP3    H111403   3.936   5.516   3.340 -0.1464 -0.1443  0.3484
 3799TIP3    H211404   3.945   5.624   3.446 -0.5994  1.6685 -1.4025
 3800TIP3   OH211405   4.767   0.126   4.204 -0.2148  0.4169  0.1449
 3800TIP3    H111406   4.757   0.036   4.173 -1.5444 -0.3991  2.6782
 3800TIP3    H211407   4.855   0.128   4.243 -0.5886 -0.1411  1.0493
 3801TIP3   OH211408   2.614   3.953   1.868  0.6231 -0.1137 -0.2558
 3801TIP3    H111409   2.704   3.920   1.868  0.5172 -0.4278  0.4371
 3801TIP3    H211410   2.573   3.909   1.942  0.3032  1.1058  0.3193
 3802TIP3   OH211411   1.546   4.813   3.309  0.0154  0.5810  0.5128
 3802TIP3    H111412   1.550   4.824   3.404 -1.2330  2.1474  0.4167
 3802TIP3    H211413   1.529   4.901   3.275 -0.5986 -0.1188 -1.0906
 3803TIP3   OH211414   3.321   5.336   2.927  0.7256  0.0224  0.3610
 3803TIP3    H111415   3.270   5.365   2.852 -0.4162 -1.4382  0.5314
 3803TIP3    H211416   3.411   5.334   2.895  0.6253  1.9444 -0.1482
 3804TIP3   OH211417   4.858   3.431   2.027 -0.2078  0.3133 -0.2607
 3804TIP3    H111418   4.873   3.454   1.936  0.5996  1.4114  0.1316
 3804TIP3    H211419   4.769   3.461   2.045 -0.0585  0.8844 -0.4504
 3805TIP3   OH211420   4.793   5.994   3.467 -0.0678 -0.3914  0.1242
 3805TIP3    H111421   4.823   5.908   3.437  0.0745 -0.1720 -0.3694
 3805TIP3    H211422   4.787   6.047   3.388  1.5024  0.5570  0.5767
 3806TIP3   OH211423   0.601   2.957   3.805  0.1889  0.4582  0.1947
 3806TIP3    H111424   0.525   2.900   3.796  0.3142  0.4242 -0.7811
 3806TIP3    H211425   0.571   3.043   3.778 -0.2050  1.0664  2.4058
 3807TIP3   OH211426   5.401   3.712   0.340  0.2168 -0.5197 -0.1632
 3807TIP3    H111427   5.473   3.736   0.398  0.0493 -1.6754  0.5623
 3807TIP3    H211428   5.327   3.764   0.372  0.1105 -1.1864  0.7275
 3808TIP3   OH211429   0.048   4.374   4.595  0.2975  0.3345 -0.5352
 3808TIP3    H111430  -0.037   4.351   4.557  0.2258  0.1649 -0.2694
 3808TIP3    H211431   0.028   4.402   4.684  0.5567 -0.0198 -0.3626
 3809TIP3   OH211432   2.017   1.770   0.025 -0.1799 -0.1443 -0.9996
 3809TIP3    H111433   2.101   1.728   0.010 -0.0681 -1.0653  1.7997
 3809TIP3    H211434   1.965   1.704   0.070 -1.1875  1.5815  0.4740
 3810TIP3   OH211435   5.891   3.509   4.321  0.5723 -0.0164  0.1808
 3810TIP3    H111436   5.854   3.588   4.361 -0.5887  0.1350 -1.1387
 3810TIP3    H211437   5.981   3.533   4.299 -0.5006  1.8748 -2.5657
 3811TIP3   OH211438   3.989   4.423   0.424  0.5581  1.1362  0.9255
 3811TIP3    H111439   3.918   4.362   0.443  2.5676 -2.0063 -0.7245
 3811TIP3    H211440   3.949   4.492   0.372 -1.4975  0.2194  1.2112
 3812TIP3   OH211441   4.686   5.997   1.140  0.6382  0.4275 -0.1057
 3812TIP3    H111442   4.720   5.917   1.181  1.8581  2.0286  2.2911
 3812TIP3    H211443   4.655   6.049   1.214  1.3912  2.8340 -1.3886
 3813TIP3   OH211444   2.785   1.998   2.964  0.6206 -0.2704  0.0735
 3813TIP3    H111445   2.802   1.908   2.937  1.7970 -0.2166  0.5697
 3813TIP3    H211446   2.724   2.032   2.898 -0.5831 -1.7028  0.3919
 3814TIP3   OH211447   3.281   0.966   4.366 -0.0132 -0.4650  0.6031
 3814TIP3    H111448   3.199   0.964   4.318 -1.0513 -0.9484  2.3020
 3814TIP3    H211449   3.287   0.880   4.407  1.0939 -0.2548  0.9271
 3815TIP3   OH211450   2.545   5.397   2.410 -0.3577  0.8928  0.7379
 3815TIP3    H111451   2.456   5.415   2.381 -0.2831  0.3837  0.1657
 3815TIP3    H211452   2.576   5.328   2.351  0.2545  0.7437  1.2224
 3816TIP3   OH211453   4.416   4.456   4.164  0.6863  0.4304 -0.7719
 3816TIP3    H111454   4.424   4.398   4.088  1.2051  0.0115 -0.4054
 3816TIP3    H211455   4.322   4.468   4.175  0.6184  1.5928 -2.3029
 3817TIP3   OH211456   4.101   4.744   2.854 -0.0264  0.4831  0.1822
 3817TIP3    H111457   4.094   4.671   2.792  1.9531 -0.1129  0.5752
 3817TIP3    H211458   4.037   4.724   2.922 -2.0539  1.0082 -1.4785
 3818TIP3   OH211459   3.756   2.106   2.201 -0.2946 -0.1442  0.3717
 3818TIP3    H111460   3.789   2.195   2.190  1.7170 -0.8875  0.0907
 3818TIP3    H211461   3.707   2.089   2.120 -0.8804  0.7470  0.5158
 3819TIP3   OH211462   5.032   3.642   3.679  0.4588 -0.2136  0.3944
 3819TIP3    H111463   4.961   3.590   3.717 -1.0239 -0.1434 -2.0474
 3819TIP3    H211464   5.015   3.640   3.585  2.0177  2.2951 -0.0278
 3820TIP3   OH211465   0.977   2.219   3.545 -0.5734  0.1610 -0.0793
 3820TIP3    H111466   0.907   2.222   3.480 -1.2628  0.2543  0.6572
 3820TIP3    H211467   0.932   2.229   3.629  0.0609 -2.0207  0.5855
 3821TIP3   OH211468   5.674   4.287   3.737  0.4462 -0.2993 -0.5055
 3821TIP3    H111469   5.689   4.194   3.720 -0.8003 -0.6444  0.1548
 3821TIP3    H211470   5.626   4.289   3.820  2.1895  1.0540  0.5260
 3822TIP3   OH211471   5.448   4.426   4.920  0.1058  0.0994  0.2996
 3822TIP3    H111472   5.462   4.392   5.008 -0.5371  1.0691  0.7974
 3822TIP3    H211473   5.360   4.463   4.923  0.7822  1.8422 -0.1806
 3823TIP3   OH211474   4.812   1.847   0.920  0.0331 -0.6266 -0.1705
 3823TIP3    H111475   4.837   1.810   0.835  1.9630 -2.6475  1.1413
 3823TIP3    H211476   4.788   1.770   0.973  0.1914  0.4311  1.5073
 3824TIP3   OH211477   1.600   2.161   4.123 -0.0574  0.9192 -0.7120
 3824TIP3    H111478   1.609   2.096   4.192  1.1803  2.8585  1.1001
 3824TIP3    H211479   1.515   2.144   4.084 -1.3413  0.3951  2.0795
 3825TIP3   OH211480   4.655   5.898   4.680  0.2275  0.0470  0.6931
 3825TIP3    H111481   4.677   5.806   4.665 -0.7457  0.2368 -2.4608
 3825TIP3    H211482   4.600   5.897   4.759  0.8001 -1.9392  1.1236
 3826TIP3   OH211483   1.233   1.662   2.191 -0.5219  0.0130  0.0031
 3826TIP3    H111484   1.232   1.742   2.244  0.7003 -0.3489  0.5961
 3826TIP3    H211485   1.220   1.592   2.254  0.1375 -0.3671 -0.2741
 3827TIP3   OH211486   0.589   4.330   1.309 -0.3064  0.3979  0.0310
 3827TIP3    H111487   0.592   4.338   1.404 -1.2940 -1.0454  0.2200
 3827TIP3    H211488   0.620   4.241   1.291  1.0011  1.0330 -1.1141
 3828TIP3   OH211489   1.477   1.982   3.707  0.1010 -0.0618  0.3672
 3828TIP3    H111490   1.452   1.921   3.637 -1.5678  1.4346 -0.4308
 3828TIP3    H211491   1.572   1.976   3.711  0.0507 -2.0841 -0.2452
 3829TIP3   OH211492   5.978   3.125   2.874 -0.2219  0.7612 -0.7465
 3829TIP3    H111493   5.932   3.201   2.838  1.9011  1.5543 -1.9468
 3829TIP3    H211494   6.059   3.161   2.911  1.5585 -1.0062 -2.6559
 3830TIP3   OH211495   0.865   4.914   4.395  0.0328 -0.3291 -0.5875
 3830TIP3    H111496   0.877   4.854   4.322  1.8175 -0.8879  0.1165
 3830TIP3    H211497   0.805   4.981   4.362  0.5822 -0.7234 -2.4667
 3831TIP3   OH211498   3.749   0.148   2.587 -0.0511  0.2923  0.1539
 3831TIP3    H111499   3.798   0.066   2.583  1.2079  0.9832  0.7432
 3831TIP3    H211500   3.816   0.216   2.576 -0.7239  1.3036  1.9190
 3832TIP3   OH211501   2.695   1.287   3.869  0.1772  0.0448  0.2961
 3832TIP3    H111502   2.699   1.193   3.851  0.0561 -0.2737  1.8366
 3832TIP3    H211503   2.779   1.308   3.909 -0.3735  0.2781  1.3611
 3833TIP3   OH211504   2.527   0.010   2.591  0.2168 -0.5959 -0.3820
 3833TIP3    H111505   2.541   0.025   2.497 -1.4050 -0.8916 -0.7104
 3833TIP3    H211506   2.432   0.013   2.601  0.3862 -0.1431  1.3430
 3834TIP3   OH211507   2.828   1.560   4.123  0.1246  0.3148  0.3790
 3834TIP3    H111508   2.792   1.572   4.035  1.6370 -1.0360 -0.4909
 3834TIP3    H211509   2.858   1.646   4.150 -0.0915  0.6884 -0.5621
 3835TIP3   OH211510   1.162   5.148   2.218  0.2036 -0.0092 -0.1378
 3835TIP3    H111511   1.224   5.076   2.233  0.9905  0.4668 -0.9901
 3835TIP3    H211512   1.080   5.118   2.257  1.4154  0.1159  2.7674
 3836TIP3   OH211513   5.608   4.230   1.781 -0.0128  0.2550  0.2391
 3836TIP3    H111514   5.625   4.187   1.865 -2.6653  0.6175  1.0714
 3836TIP3    H211515   5.586   4.320   1.804  0.3328  0.6693 -0.9710
 3837TIP3   OH211516   2.643   1.332   2.215  0.1296 -0.2777  0.1624
 3837TIP3    H111517   2.606   1.281   2.143  1.2889  0.6594 -1.1327
 3837TIP3    H211518   2.614   1.422   2.199  0.3889 -0.0605  0.8761
 3838TIP3   OH211519   4.554   2.468   1.213 -0.2921 -0.0515  0.1090
 3838TIP3    H111520   4.584   2.548   1.256 -1.0059 -0.2049  0.9404
 3838TIP3    H211521   4.495   2.428   1.277 -1.6948 -0.1049 -1.1565
 3839TIP3   OH211522   2.481   1.374   2.616 -0.0601 -0.0141 -0.1830
 3839TIP3    H111523   2.532   1.328   2.682 -0.2289 -2.8671 -1.8870
 3839TIP3    H211524   2.438   1.445   2.664  2.9825  0.5715  1.9026
 3840TIP3   OH211525   5.608   2.794   3.552  0.8785 -0.4061 -0.4888
 3840TIP3    H111526   5.533   2.777   3.495  0.4400  1.2031 -0.4508
 3840TIP3    H211527   5.676   2.735   3.520  0.0514 -0.8692 -1.4639
 3841TIP3   OH211528   2.251   2.582   3.907  0.2135 -0.4664 -0.8136
 3841TIP3    H111529   2.192   2.536   3.967  1.4014 -1.0252 -0.0515
 3841TIP3    H211530   2.338   2.567   3.943  0.9730 -0.9380 -2.7847
 3842TIP3   OH211531   4.607   2.946   1.842  0.6950  0.0608 -0.6994
 3842TIP3    H111532   4.677   2.927   1.781 -0.0761 -1.3476 -1.1865
 3842TIP3    H211533   4.600   2.867   1.896 -1.5428 -0.4967 -1.7036
 3843TIP3   OH211534   5.945   5.559   1.547  0.0670 -0.1698  0.3289
 3843TIP3    H111535   6.013   5.625   1.539 -0.7690  0.5577 -1.2160
 3843TIP3    H211536   5.990   5.475   1.538  1.1045  0.1540  2.0795
 3844TIP3   OH211537   2.043   1.780   2.634 -0.1509 -0.3081 -0.3930
 3844TIP3    H111538   2.096   1.757   2.710  0.8920 -1.6012 -1.4623
 3844TIP3    H211539   2.031   1.875   2.641  0.8345 -0.2421  0.7890
 3845TIP3   OH211540   1.268   3.026   4.314  0.3884 -0.3524  0.1470
 3845TIP3    H111541   1.312   3.049   4.232 -2.1668 -2.1288 -1.8938
 3845TIP3    H211542   1.338   3.026   4.380  2.4584  1.6538 -1.8840
 3846TIP3   OH211543   4.128   1.431   4.732  0.3328  0.1872 -0.2809
 3846TIP3    H111544   4.189   1.484   4.784  0.3867 -0.1893  0.0483
 3846TIP3    H211545   4.054   1.415   4.792  0.5011 -0.4508 -0.2345
 3847TIP3   OH211546   2.331   2.936   4.931  0.3425  0.6955  0.5099
 3847TIP3    H111547   2.259   2.874   4.924  0.9946 -0.1500  1.1974
 3847TIP3    H211548   2.410   2.883   4.929  0.8941  1.4086  1.9673
 3848TIP3   OH211549   0.724   3.041   4.403 -0.4445 -0.3522  0.6465
 3848TIP3    H111550   0.819   3.051   4.397 -0.2789 -0.5608  2.3920
 3848TIP3    H211551   0.696   3.025   4.313  1.3340 -1.5907  0.2598
 3849TIP3   OH211552   4.042   3.370   1.973 -0.1658 -0.0984 -0.4117
 3849TIP3    H111553   4.076   3.287   2.006 -0.0209  0.5725  1.2417
 3849TIP3    H211554   4.034   3.357   1.879 -2.2030 -2.7124  0.0106
 3850TIP3   OH211555   3.658   4.335   2.573  0.7069  0.4234 -0.0197
 3850TIP3    H111556   3.645   4.249   2.614  1.3443  0.9672  1.4323
 3850TIP3    H211557   3.680   4.316   2.482 -0.9977 -0.8460 -0.2093
 3851TIP3   OH211558   4.277   2.469   4.613  0.0839 -0.1280  0.4686
 3851TIP3    H111559   4.205   2.412   4.584 -0.2884  0.4877  0.1583
 3851TIP3    H211560   4.346   2.456   4.548 -0.2087  0.1796  0.0930
 3852TIP3   OH211561   1.111   4.054   3.565 -0.1314  0.1759 -0.0847
 3852TIP3    H111562   1.134   4.131   3.618  1.2689  0.9484 -1.7185
 3852TIP3    H211563   1.075   3.992   3.628  1.2223  1.1377  1.7514
 3853TIP3   OH211564   2.705   3.481   2.053 -0.5115  0.1131  0.5738
 3853TIP3    H111565   2.631   3.450   2.106 -1.6143  1.5443 -0.0742
 3853TIP3    H211566   2.734   3.402   2.006 -0.9314 -0.7013  1.6313
 3854TIP3   OH211567   4.282   1.287   3.384 -0.4586 -0.0475 -0.4812
 3854TIP3    H111568   4.226   1.210   3.388 -0.1235 -0.3070 -0.8521
 3854TIP3    H211569   4.293   1.305   3.291 -0.8487  0.6846 -0.4023
 3855TIP3   OH211570   3.152   0.471   3.448  0.1761 -0.0057  0.4934
 3855TIP3    H111571   3.102   0.392   3.427  0.5815 -0.1711  0.1433
 3855TIP3    H211572   3.240   0.440   3.468 -0.1389  0.1649  2.3201
 3856TIP3   OH211573   3.894   2.767   2.196 -0.2726  0.2709 -0.2731
 3856TIP3    H111574   3.815   2.719   2.224 -0.2781 -0.7462 -1.8881
 3856TIP3    H211575   3.964   2.702   2.201 -0.0440  0.4233 -1.3708
 3857TIP3   OH211576   6.118   2.407   4.005 -0.3238 -0.5258 -0.1372
 3857TIP3    H111577   6.162   2.362   3.933 -0.0706  1.2867 -1.1883
 3857TIP3    H211578   6.133   2.352   4.081  1.5465 -1.2717 -0.9874
 3858TIP3   OH211579   4.059   2.980   0.241 -0.0646 -0.3507  0.2673
 3858TIP3    H111580   4.084   2.888   0.254  0.7461 -0.5257 -1.9938
 3858TIP3    H211581   3.967   2.984   0.267 -0.2763 -1.9560 -0.1235
 3859TIP3   OH211582   4.722   2.134   2.405 -0.2511  0.2925 -0.1724
 3859TIP3    H111583   4.734   2.196   2.333  1.9566 -0.2095 -0.2968
 3859TIP3    H211584   4.653   2.075   2.374  0.7160  0.0297 -1.9673
 3860TIP3   OH211585   1.288   1.025   4.652 -0.9398 -0.2713  0.2313
 3860TIP3    H111586   1.277   1.093   4.719  0.5131  1.4267 -1.1295
 3860TIP3    H211587   1.238   1.058   4.577  0.1435 -0.4397 -0.5949
 3861TIP3   OH211588   0.543   5.921   3.890  0.3371 -0.2597 -0.3958
 3861TIP3    H111589   0.589   5.990   3.938 -0.0944  0.0948 -0.4805
 3861TIP3    H211590   0.510   5.863   3.958  1.1052 -0.6501 -0.3441
 3862TIP3   OH211591   0.260   4.781   2.905 -0.4165 -0.1286  0.7633
 3862TIP3    H111592   0.231   4.864   2.867  1.0767  0.1543  0.1523
 3862TIP3    H211593   0.296   4.732   2.831  0.4768 -0.5161  1.4349
 3863TIP3   OH211594   3.890   5.888   1.321  0.8745  0.0638  0.3956
 3863TIP3    H111595   3.931   5.957   1.373 -0.4355 -0.3139  2.0249
 3863TIP3    H211596   3.931   5.807   1.353  0.7207 -0.1003  0.1790
 3864TIP3   OH211597   1.922   2.762   0.749  0.2776  0.2993 -0.1768
 3864TIP3    H111598   1.826   2.763   0.743  0.2740  2.1356 -0.4674
 3864TIP3    H211599   1.948   2.681   0.706 -1.1209  0.0812 -0.6722
 3865TIP3   OH211600   4.427   5.091   4.475 -0.4163  0.2175  0.0567
 3865TIP3    H111601   4.485   5.154   4.518 -1.6339  1.6850 -0.3739
 3865TIP3    H211602   4.478   5.060   4.399 -0.0590  1.2321 -0.1364
 3866TIP3   OH211603   1.788   3.212   3.313 -0.2500  0.3831 -0.6765
 3866TIP3    H111604   1.797   3.140   3.250 -0.4146 -0.5930  0.3919
 3866TIP3    H211605   1.863   3.203   3.371 -0.6417  0.6627 -0.1210
 3867TIP3   OH211606   6.216   1.216   1.111 -0.2634  0.2250  0.0852
 3867TIP3    H111607   6.306   1.188   1.096  0.0713 -0.1051  2.3859
 3867TIP3    H211608   6.164   1.158   1.054  0.9534  0.7440 -1.6469
 3868TIP3   OH211609   4.042   0.206   1.264 -0.4614  0.1018 -0.2335
 3868TIP3    H111610   4.006   0.242   1.183 -0.5966  0.4883 -0.0005
 3868TIP3    H211611   4.073   0.282   1.313 -0.1377 -0.1517 -0.0380
 3869TIP3   OH211612   3.974   1.942   1.736 -0.3093  0.2176  0.1109
 3869TIP3    H111613   4.068   1.925   1.736  0.0237  1.5426  2.7800
 3869TIP3    H211614   3.934   1.863   1.773 -0.3870 -0.6586 -1.7424
 3870TIP3   OH211615   3.847   3.025   1.154  0.7296  0.0363  0.6079
 3870TIP3    H111616   3.900   3.069   1.219  2.3459 -0.7977 -0.0944
 3870TIP3    H211617   3.895   2.944   1.134 -0.6126 -0.5705 -0.3336
 3871TIP3   OH211618   4.448   2.773   4.508  0.0910 -0.1465  0.2181
 3871TIP3    H111619   4.429   2.838   4.440 -1.9097  0.2160  1.0358
 3871TIP3    H211620   4.376   2.710   4.502 -0.0124 -0.2332  1.8274
 3872TIP3   OH211621   0.034   1.043   3.284  0.5856 -0.0339 -0.1361
 3872TIP3    H111622   0.050   1.119   3.341 -2.8612  0.4971  0.2968
 3872TIP3    H211623   0.064   0.968   3.335 -0.8889  0.5943  1.7645
 3873TIP3   OH211624   4.523   0.088   2.799  0.3281  0.4786  0.8265
 3873TIP3    H111625   4.601   0.107   2.851 -0.7328  0.6797  2.3933
 3873TIP3    H211626   4.554   0.093   2.708  2.5426 -1.2380  1.3964
 3874TIP3   OH211627   1.448   4.513   4.962  0.0164  0.3277  0.2133
 3874TIP3    H111628   1.399   4.438   4.996 -1.4664  1.0889 -0.1491
 3874TIP3    H211629   1.389   4.553   4.898  2.4937 -0.8749 -3.1702
 3875TIP3   OH211630   5.352   2.756   3.880 -0.0130  0.3092 -0.0799
 3875TIP3    H111631   5.322   2.769   3.970 -0.5609 -3.0826  0.3914
 3875TIP3    H211632   5.436   2.711   3.889 -0.0027  0.0522 -1.2721
 3876TIP3   OH211633   4.125   0.617   1.701  0.5410 -0.2529 -0.7591
 3876TIP3    H111634   4.050   0.613   1.641 -0.7195  0.0006  0.7320
 3876TIP3    H211635   4.100   0.682   1.767  1.2085 -1.5661  0.8748
 3877TIP3   OH211636   4.180   3.924   1.971  0.0605  0.5635 -0.1260
 3877TIP3    H111637   4.150   4.002   2.018 -1.0305  0.1090 -0.0362
 3877TIP3    H211638   4.185   3.856   2.038 -0.7148  0.1190 -0.4940
 3878TIP3   OH211639   5.224   4.319   4.112 -0.0627  0.5129 -0.5080
 3878TIP3    H111640   5.211   4.403   4.067 -0.6788  0.1657 -0.9941
 3878TIP3    H211641   5.209   4.253   4.044 -0.6216 -0.0164  0.1177
 3879TIP3   OH211642   4.593   4.714   1.351  0.2344 -0.3364  0.1905
 3879TIP3    H111643   4.584   4.771   1.428 -1.6630  0.5144 -0.6110
 3879TIP3    H211644   4.642   4.767   1.288 -3.1385  1.3817 -1.2843
 3880TIP3   OH211645   1.269   0.787   4.762 -0.4363  0.2938  0.2559
 3880TIP3    H111646   1.291   0.875   4.734  1.5515 -0.9249 -2.4304
 3880TIP3    H211647   1.185   0.769   4.718 -1.5098  1.1984  1.8298
 3881TIP3   OH211648   3.456   2.621   1.434 -0.4025  0.2578  0.4227
 3881TIP3    H111649   3.435   2.552   1.371  0.3548  0.1104  0.3300
 3881TIP3    H211650   3.477   2.697   1.380 -0.4814  0.3446  0.5135
 3882TIP3   OH211651   0.296   2.676   4.745  0.0018 -0.0589  0.2644
 3882TIP3    H111652   0.361   2.670   4.815  0.7722 -0.0753 -0.4443
 3882TIP3    H211653   0.259   2.764   4.754  1.2069  0.5271 -0.2595
 3883TIP3   OH211654   4.211   3.629   2.490  0.1526  0.7948 -0.1299
 3883TIP3    H111655   4.224   3.588   2.404  1.1658 -1.0679  0.8356
 3883TIP3    H211656   4.125   3.596   2.519  0.0802  0.9391 -0.1817
 3884TIP3   OH211657   0.208   1.635   1.038  0.1686  0.0901 -0.0610
 3884TIP3    H111658   0.223   1.685   1.118  0.2081  1.1168 -0.6821
 3884TIP3    H211659   0.119   1.658   1.012 -0.4163 -1.4259  0.4825
 3885TIP3   OH211660   3.759   3.684   0.699 -0.2062 -1.1434 -0.6044
 3885TIP3    H111661   3.716   3.641   0.772  0.6251  0.4526  0.9038
 3885TIP3    H211662   3.836   3.630   0.681  0.9353 -0.2896  1.3857
 3886TIP3   OH211663   5.524   0.945   4.479  0.2036  0.2983 -0.0315
 3886TIP3    H111664   5.480   1.023   4.512 -2.3504  0.5853 -3.5254
 3886TIP3    H211665   5.484   0.872   4.526  0.9395  0.9211  1.6088
 3887TIP3   OH211666   4.858   4.626   4.248  0.3296 -0.1851  0.2792
 3887TIP3    H111667   4.943   4.583   4.257 -0.6021 -2.3332 -0.5791
 3887TIP3    H211668   4.797   4.566   4.291 -0.6778  1.7853  1.7625
 3888TIP3   OH211669   4.024   2.905   1.737  0.2223  0.1668 -0.3619
 3888TIP3    H111670   3.929   2.916   1.735  0.2950  0.8310 -0.2042
 3888TIP3    H211671   4.050   2.933   1.825  0.5445 -0.2319 -0.3206
 3889TIP3   OH211672   0.236   4.470   3.304 -0.4838 -0.5281  0.0393
 3889TIP3    H111673   0.235   4.470   3.208 -2.6527 -1.8037 -0.0045
 3889TIP3    H211674   0.202   4.556   3.328 -2.7266 -1.1976 -0.4564
 3890TIP3   OH211675   4.388   2.074   0.339  0.8116  0.1851  0.1634
 3890TIP3    H111676   4.332   2.016   0.392 -0.9135 -1.7183 -3.3441
 3890TIP3    H211677   4.371   2.161   0.373 -0.0407 -0.9008  2.7727
 3891TIP3   OH211678   1.840   4.793   5.170 -0.0152  0.1403  0.0443
 3891TIP3    H111679   1.890   4.739   5.232 -1.9693 -0.7482  0.9243
 3891TIP3    H211680   1.802   4.731   5.109  0.4988  0.8713 -1.0523
 3892TIP3   OH211681   4.124   0.379   1.447  0.5518  0.0577 -0.4283
 3892TIP3    H111682   4.197   0.392   1.507  0.1878  0.4406 -0.0655
 3892TIP3    H211683   4.048   0.415   1.493  0.0517 -0.7289 -0.6228
 3893TIP3   OH211684   0.012   2.991   2.795  0.1429  0.2341  0.2333
 3893TIP3    H111685   0.010   2.905   2.752  1.1517  1.2476 -2.0239
 3893TIP3    H211686   0.027   3.053   2.724 -1.3600  2.4047  1.6798
 3894TIP3   OH211687   5.494   3.370   4.090  0.1720  0.2852 -0.7075
 3894TIP3    H111688   5.405   3.340   4.069 -0.9105  2.3966  0.5467
 3894TIP3    H211689   5.550   3.296   4.065 -1.7249 -0.4838 -3.1458
 3895TIP3   OH211690   4.789   2.904   2.224  0.1990  0.6789 -0.2703
 3895TIP3    H111691   4.723   2.858   2.275  1.6822 -1.2174  0.0708
 3895TIP3    H211692   4.819   2.975   2.281 -0.6230  0.7508  0.0799
 3896TIP3   OH211693   1.052   0.068   1.153  0.2263 -0.2344 -0.6072
 3896TIP3    H111694   1.122   0.004   1.166 -0.3236 -0.4780  1.6568
 3896TIP3    H211695   1.087   0.148   1.192 -1.0464 -0.6194  1.4768
 3897TIP3   OH211696   3.638   4.944   4.890 -0.2919 -0.6422 -0.1323
 3897TIP3    H111697   3.727   4.912   4.905 -0.0163  0.7156  1.4106
 3897TIP3    H211698   3.590   4.919   4.969 -1.0866 -0.6950 -0.6249
 3898TIP3   OH211699   4.678   1.935   0.416  0.3338 -0.0432  0.3518
 3898TIP3    H111700   4.605   1.889   0.456  0.3506  1.2339  1.9594
 3898TIP3    H211701   4.658   2.028   0.428  0.4528  0.4391 -2.4860
 3899TIP3   OH211702   5.896   4.391   3.571 -0.4907 -0.0459 -0.6735
 3899TIP3    H111703   5.825   4.360   3.628 -0.6809  1.4771 -0.0291
 3899TIP3    H211704   5.966   4.415   3.632  1.4106 -3.2348 -1.3466
 3900TIP3   OH211705   0.759   1.190   3.580  0.3857  0.0896 -0.1950
 3900TIP3    H111706   0.760   1.227   3.492  3.9660  1.8005  0.4130
 3900TIP3    H211707   0.752   1.095   3.566 -0.4671  0.3992 -2.1847
 3901TIP3   OH211708   1.329   0.547   2.821  0.5070  0.3500  0.0570
 3901TIP3    H111709   1.357   0.560   2.731 -0.1771 -0.8298 -0.3496
 3901TIP3    H211710   1.234   0.559   2.819  0.7902  4.0680  1.3695
 3902TIP3   OH211711   0.962   5.886   0.854  0.3887 -0.2266  0.5773
 3902TIP3    H111712   0.897   5.910   0.788 -0.4512 -3.6184 -0.0398
 3902TIP3    H211713   0.912   5.881   0.936  0.4940 -0.0869  0.6502
 3903TIP3   OH211714   6.224   3.259   1.152 -0.0947 -0.3048 -0.6677
 3903TIP3    H111715   6.166   3.212   1.211 -1.1190  1.2291 -0.3792
 3903TIP3    H211716   6.310   3.252   1.192 -0.8697  1.3005  1.4937
 3904TIP3   OH211717   5.612   4.403   0.601  0.1556  0.3207 -0.5726
 3904TIP3    H111718   5.559   4.417   0.679 -0.4553 -0.3372 -0.8646
 3904TIP3    H211719   5.644   4.490   0.578 -0.0341  0.5858  0.1386
 3905TIP3   OH211720   5.885   2.332   2.954  0.2516 -0.0766  0.4311
 3905TIP3    H111721   5.846   2.418   2.971 -0.6926 -0.6637  1.3953
 3905TIP3    H211722   5.900   2.330   2.859 -2.0229  0.2367  0.0143
 3906TIP3   OH211723   3.969   0.347   2.544  0.5017 -0.2667  0.0840
 3906TIP3    H111724   3.909   0.414   2.512 -0.1624  0.1643  2.0458
 3906TIP3    H211725   4.056   0.388   2.539  0.0400  1.0503  1.8201
 3907TIP3   OH211726   1.532   1.960   0.620  0.3211 -0.3457  0.5053
 3907TIP3    H111727   1.564   1.976   0.532  0.2283 -0.4626  0.4508
 3907TIP3    H211728   1.610   1.969   0.676  0.4595 -0.6712  0.3673
 3908TIP3   OH211729   5.148   3.395   3.904  0.8576 -0.1522  0.3837
 3908TIP3    H111730   5.167   3.308   3.939 -0.5329 -0.6953 -0.1628
 3908TIP3    H211731   5.087   3.380   3.832 -0.7127  1.3991  1.3236
 3909TIP3   OH211732   0.668   0.781   2.342 -0.1542  0.2434 -0.1100
 3909TIP3    H111733   0.633   0.822   2.263 -0.6205 -1.0681 -0.6075
 3909TIP3    H211734   0.620   0.698   2.349 -0.2674  0.4264  1.6671
 3910TIP3   OH211735   1.491   3.997   1.784  0.4630  0.3425 -0.8950
 3910TIP3    H111736   1.485   3.943   1.863 -4.6970  1.3414 -0.1901
 3910TIP3    H211737   1.497   3.934   1.712 -1.0650 -1.0081  0.0947
 3911TIP3   OH211738   4.614   5.231   1.789  0.2063  0.3977 -0.6885
 3911TIP3    H111739   4.688   5.201   1.843  0.9004 -0.5878 -2.1286
 3911TIP3    H211740   4.641   5.212   1.699 -1.5566  0.5963 -1.2929
 3912TIP3   OH211741   3.333   0.688   5.074  0.3800  0.3728  0.1699
 3912TIP3    H111742   3.336   0.693   4.979 -1.4154 -1.4878 -0.0426
 3912TIP3    H211743   3.321   0.595   5.094 -1.1893  0.9219  2.1199
 3913TIP3   OH211744   2.455   3.949   0.602  0.3169 -0.4577 -0.1373
 3913TIP3    H111745   2.449   3.945   0.507  0.1304  0.2748 -0.1596
 3913TIP3    H211746   2.470   4.042   0.622 -2.2898 -0.1515  0.6943
 3914TIP3   OH211747   2.036   0.682   1.973 -0.1790 -0.2030 -0.0956
 3914TIP3    H111748   2.127   0.662   1.996 -0.8605 -2.6502  0.7906
 3914TIP3    H211749   2.041   0.761   1.920  2.5510 -0.7282 -0.7431
 3915TIP3   OH211750   2.667   0.349   2.359  0.0846 -0.2310 -0.3079
 3915TIP3    H111751   2.602   0.280   2.345 -0.1721 -0.0774  0.1183
 3915TIP3    H211752   2.629   0.426   2.316 -0.5092  0.1316  0.8221
 3916TIP3   OH211753   5.220   5.903   2.758  0.6866 -0.2493  0.4284
 3916TIP3    H111754   5.268   5.943   2.831  3.5018 -2.7760  0.1489
 3916TIP3    H211755   5.211   5.811   2.782  0.3031 -0.8329 -1.7111
 3917TIP3   OH211756   2.893   5.502   2.375  0.6495 -0.6762  0.1560
 3917TIP3    H111757   2.971   5.553   2.351  0.6146 -0.1261  1.1342
 3917TIP3    H211758   2.847   5.487   2.293  0.7539  0.7513 -0.1878
 3918TIP3   OH211759   1.348   2.848   3.287 -0.5536 -0.1600  0.2130
 3918TIP3    H111760   1.264   2.816   3.321  0.1901 -1.1381  1.1954
 3918TIP3    H211761   1.407   2.846   3.362  1.1753 -2.4878 -1.0645
 3919TIP3   OH211762   0.345   4.919   1.123 -0.5451 -0.1109  0.3718
 3919TIP3    H111763   0.340   5.014   1.129 -1.0310 -0.1652  0.9192
 3919TIP3    H211764   0.413   4.894   1.186  1.1769  0.0201 -1.3436
 3920TIP3   OH211765   0.540   0.028   2.972 -0.0799  0.4351 -0.2794
 3920TIP3    H111766   0.632   0.049   2.955  0.0035 -0.2702 -0.7596
 3920TIP3    H211767   0.492   0.074   2.904  0.1276 -1.1270 -1.5298
 3921TIP3   OH211768   5.870   0.325   3.384  0.0788 -0.3607 -0.0656
 3921TIP3    H111769   5.852   0.307   3.476  1.1921  1.6157  0.5989
 3921TIP3    H211770   5.964   0.313   3.374 -0.1670 -1.5610 -1.2252
 3922TIP3   OH211771   0.189   1.255   4.649 -0.0425  0.5699 -0.2392
 3922TIP3    H111772   0.125   1.319   4.681  0.2689  1.5885 -1.5313
 3922TIP3    H211773   0.270   1.305   4.642  0.4318 -0.2151 -0.4355
 3923TIP3   OH211774   4.314   3.337   2.526 -0.2371 -0.2504 -0.0001
 3923TIP3    H111775   4.266   3.380   2.597  0.6537 -0.7946  0.9666
 3923TIP3    H211776   4.307   3.243   2.545 -1.3594 -0.5208 -1.5595
 3924TIP3   OH211777   2.743   5.220   4.405 -0.1416 -0.3264 -0.5978
 3924TIP3    H111778   2.833   5.189   4.400 -0.1528 -0.5875  0.4602
 3924TIP3    H211779   2.745   5.307   4.366  0.6886 -0.0966 -0.0597
 3925TIP3   OH211780   0.594   0.139   1.769 -0.1467 -0.4329  0.1735
 3925TIP3    H111781   0.511   0.183   1.787  0.6187  0.3397  1.9897
 3925TIP3    H211782   0.609   0.083   1.845  0.9770 -0.5711 -0.1305
 3926TIP3   OH211783   1.411   4.179   4.247 -0.6142 -0.5384 -0.0814
 3926TIP3    H111784   1.491   4.179   4.194 -0.9484 -0.7889 -0.5935
 3926TIP3    H211785   1.417   4.259   4.299  1.0159 -1.6280  1.4960
 3927TIP3   OH211786   1.843   4.833   2.958 -0.7233  0.5969 -0.0648
 3927TIP3    H111787   1.770   4.773   2.973 -0.4774  0.5960  1.2563
 3927TIP3    H211788   1.920   4.784   2.987 -0.4788  1.4019  0.7081
 3928TIP3   OH211789   4.355   1.896   5.131  0.3276 -0.5493 -0.3246
 3928TIP3    H111790   4.431   1.840   5.120 -0.5527 -1.6556 -1.0416
 3928TIP3    H211791   4.328   1.884   5.222  1.5516  0.5995  0.2142
 3929TIP3   OH211792   3.326   5.908   1.188  0.0373  0.7530 -0.3765
 3929TIP3    H111793   3.256   5.972   1.172 -0.2916  0.3091 -0.7264
 3929TIP3    H211794   3.283   5.823   1.181 -0.2202  0.4462  3.0038
 3930TIP3   OH211795   0.801   2.680   0.691  0.5851 -0.5746 -0.0013
 3930TIP3    H111796   0.793   2.727   0.608  0.4538  0.2165  0.4412
 3930TIP3    H211797   0.881   2.715   0.730 -0.0466  0.0389  0.7873
 3931TIP3   OH211798   1.079   4.711   2.794 -0.3653  0.4876  0.1934
 3931TIP3    H111799   0.997   4.661   2.789 -0.1177 -0.0859  1.5178
 3931TIP3    H211800   1.056   4.797   2.759 -1.5028  0.2925  0.4183
 3932TIP3   OH211801   0.387   3.939   0.861  0.3636  0.0174 -0.2409
 3932TIP3    H111802   0.422   4.027   0.877  1.4786 -0.7067  1.6904
 3932TIP3    H211803   0.305   3.954   0.814  1.8182  1.9448 -2.3804
 3933TIP3   OH211804   3.418   4.054   3.582 -0.4826  0.0124 -0.2255
 3933TIP3    H111805   3.496   4.079   3.631  0.0365 -0.1516 -0.9544
 3933TIP3    H211806   3.449   3.988   3.520 -1.1606  0.0910 -0.6597
 3934TIP3   OH211807   5.140   1.470   2.145  0.1147  0.4853  0.0568
 3934TIP3    H111808   5.148   1.559   2.112  1.5222  0.7601  1.0409
 3934TIP3    H211809   5.230   1.437   2.148 -0.3586 -0.9013 -0.0792
 3935TIP3   OH211810   4.297   1.952   3.900 -0.2789 -0.6434  0.3896
 3935TIP3    H111811   4.333   1.866   3.922 -0.5137 -0.6393  0.7920
 3935TIP3    H211812   4.215   1.933   3.855 -0.4600 -0.6298  0.7078
 3936TIP3   OH211813   3.099   5.454   4.194  0.0628  0.6650 -0.4278
 3936TIP3    H111814   3.019   5.432   4.146 -0.3479  1.1297  0.0400
 3936TIP3    H211815   3.074   5.449   4.286  0.4195  1.3786 -0.2867
 3937TIP3   OH211816   2.407   3.201   3.450 -0.0322 -0.0856  0.1765
 3937TIP3    H111817   2.352   3.131   3.484  0.3600  0.8183  2.9187
 3937TIP3    H211818   2.475   3.157   3.399 -2.0253 -1.3467 -1.5422
 3938TIP3   OH211819   0.169   2.448   0.750 -0.1576  0.3737  0.5163
 3938TIP3    H111820   0.120   2.515   0.702 -0.6261  1.1449  2.0123
 3938TIP3    H211821   0.102   2.389   0.785  0.2700 -1.2410 -1.2042
 3939TIP3   OH211822   4.311   0.175   4.534  0.3697 -0.2482  0.0700
 3939TIP3    H111823   4.274   0.099   4.488  0.4075 -0.6524  0.6933
 3939TIP3    H211824   4.405   0.168   4.520  0.5472 -1.2557  1.4692
 3940TIP3   OH211825   1.889   2.252   2.432 -0.0339 -0.1039  0.3488
 3940TIP3    H111826   1.836   2.226   2.508 -1.0175 -2.2643 -0.9822
 3940TIP3    H211827   1.826   2.269   2.363  0.8287  2.4474  0.1099
 3941TIP3   OH211828   3.529   5.256   2.164  0.7022 -0.3038 -0.1216
 3941TIP3    H111829   3.450   5.210   2.192 -0.2133  1.0561 -0.3640
 3941TIP3    H211830   3.534   5.240   2.070 -0.2965  1.0209 -0.4294
 3942TIP3   OH211831   2.735   3.333   3.340  0.0965 -0.6632 -0.2701
 3942TIP3    H111832   2.650   3.376   3.344 -1.0191 -2.4750 -2.3906
 3942TIP3    H211833   2.769   3.354   3.253  1.2694 -0.9816  0.0782
 3943TIP3   OH211834   0.235   4.566   5.066  0.1756  0.1016  0.4431
 3943TIP3    H111835   0.192   4.648   5.042 -0.7407 -0.6902 -0.7447
 3943TIP3    H211836   0.313   4.593   5.116 -0.2161  1.6652  0.2515
 3944TIP3   OH211837   4.558   2.952   3.538  0.1601 -0.3224 -0.2357
 3944TIP3    H111838   4.521   3.016   3.599  1.7252  1.2979 -0.8897
 3944TIP3    H211839   4.545   2.867   3.581 -0.3650  0.5925  1.5121
 3945TIP3   OH211840   0.385   2.839   4.107  0.5527 -0.2964  0.2281
 3945TIP3    H111841   0.308   2.864   4.158  0.5551 -1.5679  0.9024
 3945TIP3    H211842   0.437   2.919   4.102  0.0147  0.1444  1.2894
 3946TIP3   OH211843   0.037   4.032   1.028  0.4767  0.1054  0.1605
 3946TIP3    H111844  -0.015   3.996   0.957  0.4492 -1.4792  0.9352
 3946TIP3    H211845   0.095   4.096   0.986 -0.2729 -0.0156 -1.0968
 3947TIP3   OH211846   5.555   5.706   1.600 -0.2432 -0.2137  0.1956
 3947TIP3    H111847   5.463   5.707   1.625  0.0871 -1.0855  1.5876
 3947TIP3    H211848   5.596   5.772   1.656  0.3852 -1.6780  1.5545
 3948TIP3   OH211849   1.576   2.614   0.585  0.3303  0.0280  0.0043
 3948TIP3    H111850   1.578   2.525   0.621  0.4473 -0.0984 -0.3103
 3948TIP3    H211851   1.598   2.603   0.492 -0.4587  0.2938 -0.2197
 3949TIP3   OH211852   2.007   2.267   0.406  0.2027 -0.1420  0.0602
 3949TIP3    H111853   1.983   2.216   0.484 -0.3530 -1.6149 -1.0443
 3949TIP3    H211854   2.013   2.203   0.336  2.6981  0.8670 -0.7536
 3950TIP3   OH211855   4.821   5.634   0.264 -0.2383  0.0737 -0.2825
 3950TIP3    H111856   4.759   5.692   0.309 -1.7839 -0.0315 -2.1111
 3950TIP3    H211857   4.810   5.549   0.307 -0.1521  0.4545  0.4909
 3951TIP3   OH211858   3.010   1.730   3.432 -0.0518  0.0615  0.1385
 3951TIP3    H111859   3.005   1.790   3.358 -0.4973 -0.6537 -0.4183
 3951TIP3    H211860   3.104   1.723   3.450  0.0113  0.8977  0.2014
 3952TIP3   OH211861   5.853   4.228   0.481  0.1477 -0.6414 -0.1410
 3952TIP3    H111862   5.774   4.282   0.484  0.8684  0.4312  0.0342
 3952TIP3    H211863   5.908   4.269   0.414  1.6699  0.2532  1.5687
 3953TIP3   OH211864   1.878   1.424   4.451 -0.3744 -0.2009  0.3015
 3953TIP3    H111865   1.887   1.493   4.385 -0.3331  0.9034  1.4250
 3953TIP3    H211866   1.968   1.399   4.473 -0.2528 -3.7406 -3.1411
 3954TIP3   OH211867   3.769   0.957   0.559 -0.4253 -0.0870  0.4085
 3954TIP3    H111868   3.683   0.998   0.561 -1.2444 -1.7419  1.8447
 3954TIP3    H211869   3.751   0.864   0.565  1.4595 -0.5208 -0.0795
 3955TIP3   OH211870   4.673   4.720   3.904  0.9122  0.2331  0.0381
 3955TIP3    H111871   4.606   4.725   3.972  0.4409  2.2627 -0.5054
 3955TIP3    H211872   4.742   4.779   3.935  1.0524  0.5566 -0.8637
 3956TIP3   OH211873   0.521   4.591   0.098  0.2991  0.6342 -0.5444
 3956TIP3    H111874   0.580   4.584   0.174  0.1302  1.0549 -0.3747
 3956TIP3    H211875   0.513   4.501   0.066  0.1236  0.4094  0.1246
 3957TIP3   OH211876   0.482   0.885   1.783  0.4215  0.1783  0.6951
 3957TIP3    H111877   0.516   0.954   1.839  1.9394 -0.4249  0.5529
 3957TIP3    H211878   0.548   0.873   1.715  0.0711 -1.2410  0.5729
 3958TIP3   OH211879   5.418   4.422   2.745  0.0538 -0.0510 -0.5817
 3958TIP3    H111880   5.387   4.346   2.696 -1.4415  0.4758 -0.4982
 3958TIP3    H211881   5.457   4.385   2.824 -0.4588 -0.7569 -0.6489
 3959TIP3   OH211882   1.586   3.788   1.959 -0.1942  0.6504  0.1791
 3959TIP3    H111883   1.627   3.704   1.936 -0.3260  0.1972  1.4989
 3959TIP3    H211884   1.501   3.763   1.995 -0.9905  1.4816 -1.0525
 3960TIP3   OH211885   4.122   3.033   0.997  0.4738 -0.0801 -0.2971
 3960TIP3    H111886   4.152   2.951   0.959  0.6768 -0.4305  0.5817
 3960TIP3    H211887   4.067   3.073   0.930  0.5262 -0.8479 -0.8017
 3961TIP3   OH211888   5.876   5.786   0.655  0.4734  0.2903  0.4509
 3961TIP3    H111889   5.828   5.755   0.579  0.2990  0.4879  0.4796
 3961TIP3    H211890   5.888   5.708   0.710  0.9372  0.0705  0.0437
 3962TIP3   OH211891   3.621   1.339   0.061  0.0481 -0.3823  0.1846
 3962TIP3    H111892   3.590   1.392   0.135 -0.5613  1.3428 -1.2382
 3962TIP3    H211893   3.642   1.402  -0.007 -0.7414 -1.9581 -1.6303
 3963TIP3   OH211894   1.761   5.390   3.190  0.1711 -0.2882  0.2383
 3963TIP3    H111895   1.670   5.391   3.220  0.0297 -0.3252 -0.1869
 3963TIP3    H211896   1.776   5.300   3.163  0.8997 -0.7366  1.9867
 3964TIP3   OH211897   2.783   1.499   0.724  0.2052 -0.8172 -0.4905
 3964TIP3    H111898   2.793   1.529   0.814  2.4849 -0.4252 -0.8174
 3964TIP3    H211899   2.696   1.530   0.698  0.3418  0.8953  0.8907
 3965TIP3   OH211900   2.190   3.050   2.689 -0.4131 -0.0622  0.1956
 3965TIP3    H111901   2.118   3.063   2.628 -0.2370  0.6714  0.1398
 3965TIP3    H211902   2.266   3.035   2.632 -0.8400 -2.9868  0.2203
 3966TIP3   OH211903   3.119   4.520   0.099  0.0490  0.3041 -0.5683
 3966TIP3    H111904   3.094   4.600   0.053  1.3432  1.0509 -0.0101
 3966TIP3    H211905   3.039   4.492   0.144  0.3137  3.0922  1.8828
 3967TIP3   OH211906   0.870   1.890   4.491 -0.4688  0.1060 -0.2195
 3967TIP3    H111907   0.825   1.839   4.423 -1.3017  2.3806 -1.4876
 3967TIP3    H211908   0.962   1.866   4.482 -0.9952 -2.6688  0.6525
 3968TIP3   OH211909   0.335   2.044   4.635  0.5741 -0.5883  0.2825
 3968TIP3    H111910   0.285   2.121   4.608 -0.5757 -1.2750  0.4213
 3968TIP3    H211911   0.271   1.974   4.639  1.5283 -1.4591  0.6174
 3969TIP3   OH211912   5.428   0.295   2.123  0.8340 -1.0836  0.4392
 3969TIP3    H111913   5.480   0.364   2.162 -0.4741  0.1633  0.0707
 3969TIP3    H211914   5.485   0.254   2.058  1.1002  0.8237 -0.5813
 3970TIP3   OH211915   4.830   3.078   4.874  0.0339 -0.3959  0.0929
 3970TIP3    H111916   4.854   2.997   4.829  1.3779 -1.4753  2.5522
 3970TIP3    H211917   4.736   3.086   4.861 -0.1525 -2.4095 -0.1271
 3971TIP3   OH211918   4.613   0.329   3.412 -0.5010 -0.2665  0.3218
 3971TIP3    H111919   4.604   0.348   3.319 -1.8152  0.7205  0.6280
 3971TIP3    H211920   4.599   0.235   3.419  0.3115 -0.4704 -0.5411
 3972TIP3   OH211921   2.356   2.661   1.153  0.0470  0.5117 -0.5437
 3972TIP3    H111922   2.274   2.678   1.199 -0.0468 -0.3372 -0.3944
 3972TIP3    H211923   2.416   2.729   1.186  0.0071 -0.1187  0.9039
 3973TIP3   OH211924   5.095   1.150   2.494  0.1689  0.0079  0.2769
 3973TIP3    H111925   5.110   1.190   2.580  2.2321 -2.7356  1.3102
 3973TIP3    H211926   5.050   1.219   2.444  0.2780  2.2604  3.0103
 3974TIP3   OH211927   4.923   4.659   0.657 -0.3051 -0.2370 -0.1510
 3974TIP3    H111928   5.008   4.624   0.682 -0.8253 -0.2706  1.7032
 3974TIP3    H211929   4.859   4.600   0.697 -1.1943  0.8450  0.0937
 3975TIP3   OH211930   4.685   3.693   3.482 -0.6591  0.0484 -0.6861
 3975TIP3    H111931   4.714   3.720   3.569 -0.3028 -1.2368 -0.3720
 3975TIP3    H211932   4.590   3.679   3.492 -1.2066  2.7584 -1.3137
 3976TIP3   OH211933   0.749   0.110   2.537 -0.0156  0.4845  0.2309
 3976TIP3    H111934   0.722   0.118   2.446 -0.1166 -0.1497  0.1962
 3976TIP3    H211935   0.788   0.194   2.559 -2.1303  1.5233  0.3206
 3977TIP3   OH211936   1.357   1.942   4.701 -0.3051  0.5017 -0.3003
 3977TIP3    H111937   1.263   1.947   4.720 -0.1100 -0.0615  0.9155
 3977TIP3    H211938   1.367   1.860   4.653 -0.4085  0.4775 -0.2814
 3978TIP3   OH211939   4.563   0.080   4.407 -0.5302 -0.1459 -0.4666
 3978TIP3    H111940   4.533   0.009   4.464 -0.2023  0.4837  0.5275
 3978TIP3    H211941   4.645   0.049   4.370 -1.1862 -0.9201 -1.3252
 3979TIP3   OH211942   5.203   4.172   1.752 -0.4106 -0.2859 -0.1381
 3979TIP3    H111943   5.279   4.183   1.695 -0.0891  0.6857  0.4593
 3979TIP3    H211944   5.140   4.237   1.720  0.6978  2.0705  2.0925
 3980TIP3   OH211945   6.241   2.347   4.831 -0.1845  0.3554  0.6493
 3980TIP3    H111946   6.262   2.334   4.739 -0.4055 -0.2667  0.6807
 3980TIP3    H211947   6.297   2.420   4.859 -0.3061  0.7207 -0.0375
 3981TIP3   OH211948   5.092   0.244   4.985  0.4270 -0.1832 -0.4710
 3981TIP3    H111949   5.022   0.284   4.934  0.6100  0.8259  0.0398
 3981TIP3    H211950   5.169   0.297   4.966  0.2013  1.1611  1.8973
 3982TIP3   OH211951   0.941   4.295   2.086  0.1039 -0.1180  0.0462
 3982TIP3    H111952   1.018   4.259   2.130 -1.0307 -0.2267  2.0632
 3982TIP3    H211953   0.910   4.225   2.030 -0.6987 -1.5094  2.1223
 3983TIP3   OH211954   2.633   0.545   4.578 -0.2247  0.4066  0.0030
 3983TIP3    H111955   2.540   0.542   4.556 -0.2115  0.1161 -0.0155
 3983TIP3    H211956   2.635   0.553   4.673 -0.2695  0.3956  0.0048
 3984TIP3   OH211957   2.593   1.742   0.786 -0.5011 -0.0378  0.4940
 3984TIP3    H111958   2.582   1.812   0.721 -0.0901 -0.7433 -0.3558
 3984TIP3    H211959   2.505   1.727   0.819 -0.6872  0.4741  0.2473
 3985TIP3   OH211960   0.911   4.531   4.447 -0.0346  0.1897 -0.3831
 3985TIP3    H111961   0.859   4.542   4.526  2.0439 -1.5308  1.3779
 3985TIP3    H211962   0.873   4.456   4.403 -0.2256  0.1586 -0.1667
 3986TIP3   OH211963   0.773   0.638   4.547  0.1851 -0.2443  0.4785
 3986TIP3    H111964   0.750   0.587   4.469 -1.2804  1.4036 -0.2101
 3986TIP3    H211965   0.691   0.677   4.576  0.8918  0.0365  2.2646
 3987TIP3   OH211966   2.932   4.101   0.050 -0.2166  0.5928 -0.0347
 3987TIP3    H111967   2.964   4.137   0.133  1.3016  1.4917 -0.9495
 3987TIP3    H211968   2.945   4.007   0.058 -1.1802  0.5361  1.1680
 3988TIP3   OH211969   5.073   0.870   3.466 -0.6968 -0.1676 -0.1529
 3988TIP3    H111970   5.119   0.945   3.503 -1.2179  0.9897 -1.7687
 3988TIP3    H211971   5.018   0.906   3.396 -2.2739 -1.8160  0.1324
 3989TIP3   OH211972   0.387   1.390   1.926 -0.0185  0.3028  0.2216
 3989TIP3    H111973   0.405   1.484   1.918  1.0468  0.0652 -0.4576
 3989TIP3    H211974   0.366   1.362   1.837 -0.4385 -0.0916  0.4405
 3990TIP3   OH211975   6.262   5.725   1.115  0.3826  0.1940  1.1712
 3990TIP3    H111976   6.320   5.702   1.188  1.0215  4.3478  2.1946
 3990TIP3    H211977   6.315   5.780   1.058 -1.6089  1.3751  0.3486
 3991TIP3   OH211978   4.832   2.334   4.625  0.7220 -0.1105  0.2520
 3991TIP3    H111979   4.816   2.287   4.706 -1.1058  0.6535  0.3793
 3991TIP3    H211980   4.765   2.302   4.564  1.2781  0.2304 -0.5614
 3992TIP3   OH211981   5.955   0.600   4.572  0.5399  0.1643 -0.2263
 3992TIP3    H111982   6.024   0.580   4.636 -0.2023 -1.9343 -0.0134
 3992TIP3    H211983   5.901   0.666   4.616  0.8964 -0.1337  0.7003
 3993TIP3   OH211984   3.955   3.405   0.399 -0.1291  0.4542  0.4710
 3993TIP3    H111985   3.990   3.474   0.343 -0.4931 -0.9426 -1.5829
 3993TIP3    H211986   3.953   3.328   0.343  1.1506 -1.5024  2.9328
 3994TIP3   OH211987   3.784   0.273   0.463 -0.1020 -0.5423 -0.0493
 3994TIP3    H111988   3.863   0.234   0.502  1.3401  1.8711 -0.3113
 3994TIP3    H211989   3.739   0.314   0.537  2.0352  3.0381 -0.4607
 3995TIP3   OH211990   6.183   5.305   2.747 -0.0367  0.1755  0.0576
 3995TIP3    H111991   6.110   5.357   2.712  1.1380  1.2431 -0.8842
 3995TIP3    H211992   6.144   5.220   2.766 -2.2624  1.5942  2.5367
 3996TIP3   OH211993   2.830   4.942   3.102  0.1193  0.0805  0.1262
 3996TIP3    H111994   2.921   4.953   3.075  0.7222 -0.4068  1.8514
 3996TIP3    H211995   2.834   4.930   3.197 -1.7688  0.2823  0.2718
 3997TIP3   OH211996   2.524   0.860   0.761  0.0178 -0.3887  0.1042
 3997TIP3    H111997   2.501   0.838   0.671 -1.2515 -0.7246  0.4912
 3997TIP3    H211998   2.608   0.818   0.776  0.4001 -0.0566 -1.0225
 3998TIP3   OH211999   4.780   4.005   4.969  0.2359  0.1331 -0.1082
 3998TIP3    H112000   4.788   3.946   4.895  0.3256 -0.2673  0.2167
 3998TIP3    H212001   4.803   3.952   5.045 -1.7631 -0.0342  0.4489
 3999TIP3   OH212002   5.277   1.971   4.495  0.1456  0.0962  0.4768
 3999TIP3    H112003   5.315   2.012   4.418  1.5053  0.7879  1.4831
 3999TIP3    H212004   5.197   2.021   4.512  0.1024  0.2546 -0.1830
 4000TIP3   OH212005   0.247   4.220   2.305 -0.5164  0.1918 -0.3490
 4000TIP3    H112006   0.157   4.189   2.300 -0.2009 -1.2237  1.5392
 4000TIP3    H212007   0.242   4.313   2.282 -2.3188 -0.0225 -0.9660
 4001TIP3   OH212008   5.464   3.062   0.502  0.1783  0.4175  0.6905
 4001TIP3    H112009   5.386   3.034   0.551 -0.9660  0.3735 -1.0663
 4001TIP3    H212010   5.457   3.157   0.498 -0.8580  0.3092 -1.0703
 4002TIP3   OH212011   6.193   3.860   4.088 -0.2058 -0.0954  0.1275
 4002TIP3    H112012   6.167   3.768   4.083 -0.7117  0.0937 -0.8929
 4002TIP3    H212013   6.112   3.909   4.077  0.0108  0.4787  1.0221
 4003TIP3   OH212014   1.031   5.761   3.411 -0.0188 -0.2869 -0.1775
 4003TIP3    H112015   0.962   5.782   3.348  1.0683 -0.3534 -1.4295
 4003TIP3    H212016   0.992   5.782   3.496 -1.2914  0.4439 -0.8976
 4004TIP3   OH212017   3.065   3.554   4.006 -0.5036 -0.3015  0.0135
 4004TIP3    H112018   2.975   3.585   3.995  0.2017  1.7264 -0.5346
 4004TIP3    H212019   3.080   3.556   4.101 -0.6239  0.6634  0.0200
 4005TIP3   OH212020   5.534   4.663   0.399  0.1765  0.4509 -0.1005
 4005TIP3    H112021   5.443   4.635   0.390  0.6752 -1.5425  0.5763
 4005TIP3    H212022   5.528   4.751   0.437 -1.4479  0.6543 -0.7143
 4006TIP3   OH212023   2.985   1.908   2.080  0.2607 -0.2557 -0.5248
 4006TIP3    H112024   2.934   1.828   2.069  0.1329 -0.0246 -1.8625
 4006TIP3    H212025   3.069   1.889   2.038  0.3649  0.1814 -0.5260
 4007TIP3   OH212026   6.185   1.428   3.867  0.1697  0.1402  0.6415
 4007TIP3    H112027   6.261   1.479   3.895  2.1496 -1.6075 -1.1228
 4007TIP3    H212028   6.137   1.410   3.947  1.6801  1.2003  1.8533
 4008TIP3   OH212029   0.160   5.389   3.572  0.2923  0.8073 -0.8889
 4008TIP3    H112030   0.086   5.394   3.632 -1.0452 -2.0643 -2.0821
 4008TIP3    H212031   0.237   5.380   3.628 -0.6241  0.6332  0.3800
 4009TIP3   OH212032   6.293   0.086   3.616  0.3423  0.3341  0.0953
 4009TIP3    H112033   6.326   0.043   3.695 -1.4663 -1.8756 -0.2119
 4009TIP3    H212034   6.240   0.159   3.648 -0.4022 -0.5580  0.9777
 4010TIP3   OH212035   2.006   5.242   0.482 -0.0148  0.5870 -0.1532
 4010TIP3    H112036   1.980   5.222   0.393  0.7010  0.9770 -0.4616
 4010TIP3    H212037   1.981   5.165   0.533  0.3164  0.0141 -0.8384
 4011TIP3   OH212038   0.060   1.119   3.733 -0.2451 -0.0266 -0.1391
 4011TIP3    H112039   0.087   1.209   3.752 -0.9061  0.2430 -0.4622
 4011TIP3    H212040   0.134   1.081   3.686 -0.2331  0.5564 -0.6010
 4012TIP3   OH212041   5.539   2.991   0.895  0.0957  0.4491 -0.1942
 4012TIP3    H112042   5.453   2.997   0.853  0.3294 -1.6692 -1.0811
 4012TIP3    H212043   5.535   2.912   0.948  1.4139  0.4584 -0.0418
 4013TIP3   OH212044   3.613   3.970   3.416 -0.5438  0.3634 -0.0342
 4013TIP3    H112045   3.678   4.038   3.429  0.0271 -0.4375  1.5587
 4013TIP3    H212046   3.626   3.909   3.489 -2.7882 -0.0602  0.1023
 4014TIP3   OH212047   2.046   5.810   1.728  0.2472  0.5713 -0.0958
 4014TIP3    H112048   2.107   5.856   1.671 -1.2263 -0.0792 -2.3562
 4014TIP3    H212049   2.062   5.717   1.711  0.7695  0.2825  1.7251
 4015TIP3   OH212050   3.548   0.258   1.421  0.3080 -1.0129 -0.7444
 4015TIP3    H112051   3.498   0.286   1.498  2.0009  0.8425 -0.2370
 4015TIP3    H212052   3.494   0.282   1.347 -0.7409 -1.5585 -0.1731
 4016TIP3   OH212053   4.882   3.623   0.955  0.2057  0.6284 -0.0915
 4016TIP3    H112054   4.867   3.600   1.046  0.5289  0.5050 -0.0679
 4016TIP3    H212055   4.806   3.677   0.931 -0.0840  0.3290  0.1304
 4017TIP3   OH212056   5.356   5.781   4.331  0.9475 -0.7079  0.0484
 4017TIP3    H112057   5.262   5.769   4.343  0.2437  1.9285 -2.0552
 4017TIP3    H212058   5.380   5.717   4.264  0.2773 -0.1866 -0.6971
 4018TIP3   OH212059   0.733   0.774   0.870 -0.3557  0.6224  0.0267
 4018TIP3    H112060   0.643   0.755   0.842 -0.0167 -0.1246 -0.6117
 4018TIP3    H212061   0.755   0.856   0.825 -0.8249  0.9864  0.4508
 4019TIP3   OH212062   5.841   3.659   4.705  0.0190 -0.4570 -0.5346
 4019TIP3    H112063   5.916   3.717   4.693  0.0876 -0.1170  1.2732
 4019TIP3    H212064   5.878   3.579   4.742 -0.2797 -1.0737 -1.5315
 4020TIP3   OH212065   6.180   5.404   0.202  0.1050  0.7738 -0.1604
 4020TIP3    H112066   6.250   5.339   0.200 -0.3069  0.3460 -1.3014
 4020TIP3    H212067   6.215   5.474   0.258  0.7734 -0.1548  0.6426
 4021TIP3   OH212068   4.217   3.766   2.992 -0.1574 -0.9650 -0.1264
 4021TIP3    H112069   4.272   3.688   2.986 -0.0615 -0.7833 -1.9264
 4021TIP3    H212070   4.189   3.784   2.902  1.1432  2.0220 -0.0502
 4022TIP3   OH212071   3.162   2.953   5.065  0.3457  0.1896 -0.0929
 4022TIP3    H112072   3.151   3.045   5.089 -0.8147  0.2170 -0.6764
 4022TIP3    H212073   3.089   2.908   5.107  1.5913 -0.7038  1.2432
 4023TIP3   OH212074   3.034   0.698   1.109 -0.0843  0.2039 -0.1223
 4023TIP3    H112075   3.116   0.687   1.156 -0.2844 -1.7427 -0.1343
 4023TIP3    H212076   2.967   0.696   1.178 -0.2095  0.2099 -0.2433
 4024TIP3   OH212077   5.178   4.608   2.146  0.1461 -0.1360 -0.4432
 4024TIP3    H112078   5.130   4.685   2.177  1.4593 -0.1118  1.6748
 4024TIP3    H212079   5.136   4.586   2.062 -2.1028  1.1690  0.2559
 4025TIP3   OH212080   2.600   5.348   1.903 -0.0774 -0.3574 -0.1058
 4025TIP3    H112081   2.572   5.258   1.887  0.1867 -0.2924 -0.9933
 4025TIP3    H212082   2.633   5.378   1.819 -1.1689  0.9444 -0.1073
 4026TIP3   OH212083   2.663   5.095   2.431  0.1115 -0.0921  0.3585
 4026TIP3    H112084   2.757   5.086   2.451  0.2001  0.1202  0.0458
 4026TIP3    H212085   2.631   5.161   2.491  0.6215  1.3868 -0.9420
 4027TIP3   OH212086   2.492   0.598   2.815  0.1832  0.2589  0.1352
 4027TIP3    H112087   2.507   0.690   2.794 -0.9123  0.6719  1.0763
 4027TIP3    H212088   2.577   0.567   2.845  0.4641  1.0737  0.2138
 4028TIP3   OH212089   1.360   3.027   4.050  0.1836  0.6229 -0.0986
 4028TIP3    H112090   1.353   3.113   4.008 -2.3597  0.7232  0.3456
 4028TIP3    H212091   1.337   2.964   3.982 -0.1254  0.4917  0.1206
 4029TIP3   OH212092   5.075   5.713   0.191 -0.2046 -0.5695 -0.0791
 4029TIP3    H112093   4.984   5.699   0.218 -0.4125  1.0375  0.1693
 4029TIP3    H212094   5.068   5.759   0.108  0.3053  1.2891  0.8465
 4030TIP3   OH212095   6.216   2.157   0.115  0.5177  0.3369 -0.9944
 4030TIP3    H112096   6.133   2.157   0.068  0.9432 -0.9662 -1.7850
 4030TIP3    H212097   6.192   2.171   0.207 -0.4804  0.9271 -1.3355
 4031TIP3   OH212098   0.095   3.755   1.863 -0.6039 -0.1872  0.3744
 4031TIP3    H112099   0.044   3.835   1.853  0.2818  0.4174  0.5884
 4031TIP3    H212100   0.031   3.684   1.855 -1.2098  0.4910 -1.1323
 4032TIP3   OH212101   3.136   1.199   4.235 -0.0975  0.2132 -0.2244
 4032TIP3    H112102   3.143   1.127   4.172 -1.1707 -0.1115  0.0184
 4032TIP3    H212103   3.225   1.210   4.269  0.2385 -0.4405 -0.8689
 4033TIP3   OH212104   3.152   0.255   1.677 -0.2624  0.0936  0.3697
 4033TIP3    H112105   3.080   0.286   1.732  0.1024  1.3590  0.1459
 4033TIP3    H212106   3.109   0.218   1.599 -0.6853  0.3295  0.4907
 4034TIP3   OH212107   1.764   4.339   0.943 -0.9360  0.0402 -0.1052
 4034TIP3    H112108   1.795   4.283   0.872  0.0972  1.2563 -0.6706
 4034TIP3    H212109   1.748   4.424   0.901  0.6866  1.0879  1.2265
 4035TIP3   OH212110   3.662   4.995   2.773 -0.9603 -0.3234  0.4051
 4035TIP3    H112111   3.648   5.089   2.787  0.2179 -0.4049  2.5514
 4035TIP3    H212112   3.641   4.955   2.857 -1.2237 -1.9791 -0.4122
 4036TIP3   OH212113   0.146   3.148   4.529 -0.2400 -0.0419  0.1785
 4036TIP3    H112114   0.201   3.070   4.536  0.6601  0.5205 -0.4690
 4036TIP3    H212115   0.150   3.172   4.437 -2.5361 -0.6468 -0.1406
 4037TIP3   OH212116   3.499   1.620   2.927  0.1932 -0.8022  0.2802
 4037TIP3    H112117   3.567   1.627   2.994  0.6467 -0.2834 -0.2187
 4037TIP3    H212118   3.545   1.590   2.849 -0.0811 -0.1307 -0.1497
 4038TIP3   OH212119   3.352   1.057   1.750 -0.2772 -0.2006 -0.4651
 4038TIP3    H112120   3.334   1.080   1.658 -1.1476  0.5950 -0.1074
 4038TIP3    H212121   3.353   0.961   1.750 -1.2824 -0.2345 -1.1293
 4039TIP3   OH212122   2.907   3.164   1.365 -0.3208  0.1700 -0.1152
 4039TIP3    H112123   2.946   3.188   1.449  1.6415  0.3585 -1.0232
 4039TIP3    H212124   2.895   3.247   1.320 -0.1127 -0.0227 -0.5312
 4040TIP3   OH212125   5.090   0.918   2.886 -0.1174 -0.4093  0.3858
 4040TIP3    H112126   5.098   0.882   2.798  0.8257  1.1141 -0.1992
 4040TIP3    H212127   5.091   0.842   2.944 -2.0033 -1.5168 -0.9634
 4041TIP3   OH212128   3.467   3.628   1.134  0.4052  0.3454 -0.8049
 4041TIP3    H112129   3.449   3.540   1.101  1.5688  0.7557 -2.6706
 4041TIP3    H212130   3.559   3.626   1.160  0.3218  0.8991 -0.4374
 4042TIP3   OH212131   2.664   1.142   4.534 -0.0476  0.3573  0.2875
 4042TIP3    H112132   2.636   1.226   4.570 -0.1612 -0.1247  1.3664
 4042TIP3    H212133   2.754   1.132   4.564 -0.7182 -0.8833  2.0580
 4043TIP3   OH212134   1.280   4.918   3.553 -0.0552  0.5758  0.0275
 4043TIP3    H112135   1.210   4.934   3.490  1.5094 -1.9866 -2.5869
 4043TIP3    H212136   1.338   4.993   3.543 -0.1783  0.5372 -1.1014
 4044TIP3   OH212137   1.228   4.585   3.944 -0.3157  0.5228  0.1360
 4044TIP3    H112138   1.182   4.627   4.017 -1.2977 -0.5382  0.1598
 4044TIP3    H212139   1.278   4.655   3.904 -1.6968  1.6647  0.3291
 4045TIP3   OH212140   1.605   5.612   2.013 -0.1379  0.1119  0.0001
 4045TIP3    H112141   1.536   5.660   2.058 -0.0972  0.2895 -0.1253
 4045TIP3    H212142   1.619   5.660   1.931 -0.1550 -0.1612 -0.1652
 4046TIP3   OH212143   5.178   2.762   0.457 -0.8021  0.0094  0.2792
 4046TIP3    H112144   5.100   2.707   0.451  0.1085 -1.1778 -1.7856
 4046TIP3    H212145   5.224   2.747   0.374  0.9484  1.6966  0.8783
 4047TIP3   OH212146   0.397   0.989   3.343  0.1085  0.5122 -0.1380
 4047TIP3    H112147   0.330   0.929   3.375  1.2163 -1.2402 -0.9016
 4047TIP3    H212148   0.352   1.044   3.279 -1.0405  0.8303  0.9186
 4048TIP3   OH212149   0.656   3.351   2.750  0.2667 -0.3156 -0.0600
 4048TIP3    H112150   0.582   3.361   2.810 -0.0170  0.3849 -0.4996
 4048TIP3    H212151   0.615   3.341   2.664  0.6752 -0.6574 -0.2175
 4049TIP3   OH212152   1.494   2.224   3.111  0.3339 -0.1791  0.2278
 4049TIP3    H112153   1.467   2.146   3.063 -1.9447  1.5571 -1.5574
 4049TIP3    H212154   1.496   2.196   3.203  2.2153 -2.9319 -0.5198
 4050TIP3   OH212155   1.389   1.932   0.324  0.6468  0.5223 -0.0986
 4050TIP3    H112156   1.470   1.981   0.309  0.5947  1.0577  1.2198
 4050TIP3    H212157   1.319   1.998   0.315  0.5670  0.7042  1.5160
 4051TIP3   OH212158   1.514   1.020   0.809  0.5011  0.0071 -0.1251
 4051TIP3    H112159   1.423   1.046   0.823 -0.2005 -0.6569 -2.8975
 4051TIP3    H212160   1.516   0.926   0.827  0.1242 -0.3868 -1.9975
 4052TIP3   OH212161   3.452   2.459   1.223  0.0854  0.8832 -0.2229
 4052TIP3    H112162   3.536   2.456   1.177  0.3002 -1.9953  0.1889
 4052TIP3    H212163   3.388   2.483   1.155  0.9409  0.9161 -1.0318
 4053TIP3   OH212164   1.597   0.058   4.692 -0.4513 -0.0514 -0.0862
 4053TIP3    H112165   1.540  -0.019   4.697 -0.4389 -0.0041  1.3439
 4053TIP3    H212166   1.595   0.084   4.600  1.9229 -3.5293 -1.3324
 4054TIP3   OH212167   4.708   5.802   4.375 -0.3846  0.1279 -0.0849
 4054TIP3    H112168   4.619   5.818   4.345 -0.2512 -0.1388 -0.6421
 4054TIP3    H212169   4.730   5.716   4.338  0.1697  0.2810 -0.1161
 4055TIP3   OH212170   0.504   4.146   3.917 -0.5945  0.4828 -0.5996
 4055TIP3    H112171   0.428   4.139   3.858  1.0441 -0.3591 -2.7685
 4055TIP3    H212172   0.535   4.056   3.926 -1.2035  0.4824  2.2755
 4056TIP3   OH212173   0.546   5.222   0.284  0.1721 -0.3403  0.0587
 4056TIP3    H112174   0.630   5.224   0.330  0.7111  0.3863 -0.9136
 4056TIP3    H212175   0.541   5.307   0.241 -2.6425  1.0752  2.7949
 4057TIP3   OH212176   0.514   3.753   4.227  0.1814 -0.4018 -0.4973
 4057TIP3    H112177   0.420   3.738   4.231 -0.1298  1.2004 -1.1072
 4057TIP3    H212178   0.526   3.844   4.255  1.7470 -1.0785  1.2750
 4058TIP3   OH212179   4.606   1.828   3.367  0.2012  0.2254 -0.3388
 4058TIP3    H112180   4.701   1.819   3.375  0.2242 -0.3726 -1.1576
 4058TIP3    H212181   4.570   1.754   3.415  0.0888  1.2136  1.1567
 4059TIP3   OH212182   2.077   5.871   2.751  0.2010  0.3278  0.2570
 4059TIP3    H112183   2.105   5.927   2.678 -1.1818  0.6116 -0.0853
 4059TIP3    H212184   2.032   5.931   2.811  1.7812  0.1971  1.6437
 4060TIP3   OH212185   5.571   5.584   4.927  0.2461 -0.0641  0.1465
 4060TIP3    H112186   5.501   5.588   4.863  0.3627  1.7057  0.0923
 4060TIP3    H212187   5.567   5.494   4.962 -0.7872 -0.5731 -1.2133
 4061TIP3   OH212188   4.159   4.202   0.444 -0.0928  0.2511 -0.2618
 4061TIP3    H112189   4.121   4.173   0.526 -0.9804  0.3391 -0.6290
 4061TIP3    H212190   4.107   4.279   0.419 -0.0838 -0.0033 -1.0909
 4062TIP3   OH212191   2.789   0.029   4.806  0.0341  0.4126  0.4588
 4062TIP3    H112192   2.757   0.066   4.723 -0.7231  0.2078  0.6470
 4062TIP3    H212193   2.863  -0.026   4.781 -0.9051 -0.5679 -0.2366
 4063TIP3   OH212194   5.118   4.295   3.222  0.2381  0.3344  0.2003
 4063TIP3    H112195   5.075   4.269   3.140  1.0191  0.3120 -0.2128
 4063TIP3    H212196   5.112   4.390   3.223  1.1480  0.4166 -0.4221
 4064TIP3   OH212197   0.841   1.316   0.586 -0.7293  0.1582  0.4012
 4064TIP3    H112198   0.786   1.296   0.661  1.0711 -0.5578  1.5754
 4064TIP3    H212199   0.910   1.373   0.620  0.6031 -0.8547 -0.4947
 4065TIP3   OH212200   6.113   5.114   0.145 -0.2236 -0.3524  0.3050
 4065TIP3    H112201   6.107   5.141   0.054  0.0287  1.3833  0.7558
 4065TIP3    H212202   6.205   5.127   0.168 -0.0832 -1.6595  0.5756
 4066TIP3   OH212203   2.179   0.401   4.697 -0.2586 -0.3850  0.2335
 4066TIP3    H112204   2.131   0.331   4.743 -1.9242  0.4731 -0.1194
 4066TIP3    H212205   2.111   0.449   4.650  0.9792  0.9131 -0.2828
 4067TIP3   OH212206   1.819   3.481   0.998 -0.6476 -0.2967  0.3733
 4067TIP3    H112207   1.832   3.497   0.904 -0.8838  0.0372  0.3966
 4067TIP3    H212208   1.751   3.543   1.024  0.9374  1.1499  1.2484
 4068TIP3   OH212209   3.514   1.114   2.281  0.0357 -0.3814 -0.2799
 4068TIP3    H112210   3.454   1.085   2.213  0.1925  0.4281 -0.7732
 4068TIP3    H212211   3.458   1.141   2.353 -0.1815  0.1418 -0.6446
 4069TIP3   OH212212   4.629   1.000   4.604  0.3867 -0.0015  0.0803
 4069TIP3    H112213   4.670   1.008   4.518  0.3401  0.6017  0.1044
 4069TIP3    H212214   4.567   0.928   4.596  0.3327  0.1015 -0.4113
 4070TIP3   OH212215   6.191   0.611   3.222  0.4731 -0.0211  0.2710
 4070TIP3    H112216   6.141   0.611   3.304  1.4499  1.4895  0.9295
 4070TIP3    H212217   6.198   0.704   3.199  0.6340 -0.3940 -1.2831
 4071TIP3   OH212218   4.729   4.089   3.299 -0.0638  0.1435  0.0932
 4071TIP3    H112219   4.704   4.065   3.388  1.8342  1.2471  0.9896
 4071TIP3    H212220   4.733   4.185   3.300  4.3299  0.1556  0.2458
 4072TIP3   OH212221   5.277   3.008   4.912  0.2907 -0.1199 -0.2165
 4072TIP3    H112222   5.353   2.968   4.956  0.1952 -0.2942 -0.2082
 4072TIP3    H212223   5.275   3.098   4.944 -0.8383 -0.7162  1.5298
 4073TIP3   OH212224   5.076   2.093   3.786  0.5708 -0.0790 -0.0212
 4073TIP3    H112225   5.162   2.064   3.818  1.1573  0.5213 -0.9801
 4073TIP3    H212226   5.055   2.030   3.716  1.0142  0.7295 -0.9013
 4074TIP3   OH212227   2.160   5.526   0.102  0.0840 -0.2970 -0.4611
 4074TIP3    H112228   2.069   5.508   0.079 -0.7353  0.0907  2.0657
 4074TIP3    H212229   2.210   5.456   0.061 -1.7318 -2.1854  0.3492
 4075TIP3   OH212230   5.330   2.895   1.136 -0.2097  0.4431 -0.3555
 4075TIP3    H112231   5.268   2.964   1.112 -1.2659 -0.2038  0.4453
 4075TIP3    H212232   5.354   2.855   1.053  0.5534  1.8597 -0.8534
 4076TIP3   OH212233   3.222   0.497   0.174  0.1004 -0.0589  0.0403
 4076TIP3    H112234   3.287   0.519   0.241  0.8197 -2.3770  0.2179
 4076TIP3    H212235   3.246   0.551   0.099 -0.2201  1.9887  1.3299
 4077TIP3   OH212236   3.092   5.153   3.948  0.2587  0.3136 -0.3701
 4077TIP3    H112237   3.071   5.157   4.042  1.4733  1.5680 -0.1170
 4077TIP3    H212238   3.174   5.103   3.945  1.1277  1.7014 -0.5608
 4078TIP3   OH212239   1.780   1.429   3.480  0.1435  0.0531  0.1334
 4078TIP3    H112240   1.777   1.524   3.481 -1.8311  0.0426  0.0529
 4078TIP3    H212241   1.718   1.402   3.548 -2.8727 -1.0748 -2.7598
 4079TIP3   OH212242   2.041   2.889   1.613 -0.1873 -0.3352 -0.0788
 4079TIP3    H112243   2.126   2.906   1.574 -0.5917 -0.4332 -1.0223
 4079TIP3    H212244   2.023   2.797   1.593 -0.3431 -0.4258  0.4591
 4080TIP3   OH212245   5.908   3.907   1.169 -0.2738 -0.1271 -0.4398
 4080TIP3    H112246   5.898   3.952   1.253 -1.1259 -1.7997  0.3950
 4080TIP3    H212247   5.832   3.934   1.118 -0.8626 -0.7267  0.1123
 4081TIP3   OH212248   1.318   5.586   4.930 -0.0818  0.2587  0.3524
 4081TIP3    H112249   1.229   5.553   4.943 -0.3369  1.4930  1.9520
 4081TIP3    H212250   1.362   5.568   5.012  1.0086  0.1391 -0.2485
 4082TIP3   OH212251   5.936   5.688   1.844 -0.0095  0.4143  0.6120
 4082TIP3    H112252   5.920   5.684   1.750 -0.6107 -1.4742  0.7476
 4082TIP3    H212253   5.868   5.631   1.882  0.4406  0.8577  2.1507
 4083TIP3   OH212254   2.764   5.478   2.133 -0.2541 -0.8354 -0.2074
 4083TIP3    H112255   2.765   5.568   2.101 -1.4837 -0.4081  0.8761
 4083TIP3    H212256   2.741   5.426   2.056  0.7467 -0.2754 -0.9108
 4084TIP3   OH212257   0.913   4.585   3.167 -0.1593 -0.0508  0.3803
 4084TIP3    H112258   0.988   4.531   3.143  2.0979  2.4165  1.3579
 4084TIP3    H212259   0.929   4.609   3.259 -1.7776  1.1478  0.4024
 4085TIP3   OH212260   3.337   1.049   0.343 -0.1008 -0.0732  0.1087
 4085TIP3    H112261   3.347   1.041   0.248 -0.8552  0.7153 -0.0515
 4085TIP3    H212262   3.266   0.989   0.365 -1.4592  1.3580 -0.1771
 4086TIP3   OH212263   4.867   2.590   4.754 -0.6951 -0.0238 -0.3934
 4086TIP3    H112264   4.907   2.552   4.832  0.5656  1.4477 -0.2555
 4086TIP3    H212265   4.849   2.516   4.697  1.8667 -0.8707 -0.2497
 4087TIP3   OH212266   1.555   5.012   2.024  0.8085  0.1134  0.0474
 4087TIP3    H112267   1.622   5.057   2.074  0.9874  0.6313 -0.6461
 4087TIP3    H212268   1.507   5.081   1.979  0.1920 -0.2924  0.0592
 4088TIP3   OH212269   2.765   5.106   4.965 -0.5890 -0.7641 -0.1723
 4088TIP3    H112270   2.737   5.197   4.954 -0.6935 -0.4929  1.9323
 4088TIP3    H212271   2.767   5.093   5.060  0.7284 -2.5658 -0.4031
 4089TIP3   OH212272   0.488   0.595   0.371  0.6455 -0.2592 -0.4244
 4089TIP3    H112273   0.507   0.525   0.309 -2.6940 -0.4473 -1.4496
 4089TIP3    H212274   0.499   0.676   0.321  1.4519 -0.2122 -0.1751
 4090TIP3   OH212275   3.126   1.324   0.319 -0.2152  0.0385 -0.1377
 4090TIP3    H112276   3.100   1.238   0.352  1.0217  0.1954  1.3384
 4090TIP3    H212277   3.076   1.386   0.371 -0.3745  0.2363 -0.5256
 4091TIP3   OH212278   1.296   4.304   5.056  0.1984 -0.6210 -0.7531
 4091TIP3    H112279   1.272   4.280   5.146  0.8975 -1.7483 -0.8386
 4091TIP3    H212280   1.366   4.242   5.033  0.3338 -0.0609 -1.9208
 4092TIP3   OH212281   6.355   1.004   2.494 -0.4015  0.5375  0.0851
 4092TIP3    H112282   6.276   1.019   2.545 -0.0011  1.1674  0.5268
 4092TIP3    H212283   6.339   1.050   2.411 -0.3120  1.0767  0.3599
 4093TIP3   OH212284   3.298   0.679   4.444  0.2264 -0.2795 -0.8171
 4093TIP3    H112285   3.384   0.685   4.485 -0.5652 -0.0944  0.8919
 4093TIP3    H212286   3.249   0.620   4.500 -1.2241  0.7990 -0.8997
 4094TIP3   OH212287   3.946   3.197   1.398  0.2947 -0.4481  0.0235
 4094TIP3    H112288   4.016   3.186   1.462  0.4316  0.8745  0.1393
 4094TIP3    H212289   3.880   3.133   1.423 -0.3247  1.0136  2.4686
 4095TIP3   OH212290   0.409   0.404   1.410  0.2662  0.2697  0.2105
 4095TIP3    H112291   0.474   0.472   1.397 -1.8382  2.4145  0.2217
 4095TIP3    H212292   0.384   0.377   1.321  1.8128 -1.3090  0.2017
 4096TIP3   OH212293   1.421   4.691   0.817  0.3732  0.5875  0.8518
 4096TIP3    H112294   1.448   4.611   0.863  1.4151 -0.4513 -1.3871
 4096TIP3    H212295   1.499   4.747   0.820  0.2188  0.7948  0.9530
 4097TIP3   OH212296   3.967   1.298   3.818  0.4393  0.2651  0.4577
 4097TIP3    H112297   4.059   1.301   3.790  0.5727  0.5968  0.9265
 4097TIP3    H212298   3.964   1.351   3.897 -0.5350  1.8462 -0.5918
 4098TIP3   OH212299   3.339   5.864   4.780  0.2535 -0.0659  0.1808
 4098TIP3    H112300   3.281   5.867   4.856 -0.9882 -1.6701 -0.6415
 4098TIP3    H212301   3.394   5.787   4.795 -0.6125 -0.9366 -0.9122
 4099TIP3   OH212302   2.700   5.213   3.989 -0.6222  0.3902 -0.1223
 4099TIP3    H112303   2.675   5.189   3.900  0.7959 -0.8286 -0.2456
 4099TIP3    H212304   2.618   5.209   4.039 -1.4551  1.2220 -1.3808
 4100TIP3   OH212305   5.964   3.305   1.390 -0.1675  0.2513  0.0810
 4100TIP3    H112306   5.965   3.362   1.467 -1.9278 -2.0278  1.9370
 4100TIP3    H212307   5.980   3.218   1.424  1.8809 -0.5335 -2.5896
 4101TIP3   OH212308   4.393   1.455   1.168  0.1681 -0.1597  0.0769
 4101TIP3    H112309   4.331   1.488   1.233 -3.2369  0.6087 -3.2573
 4101TIP3    H212310   4.385   1.360   1.174  0.6163 -0.1384  1.3474
 4102TIP3   OH212311   2.464   1.454   1.333 -0.1636 -0.1205 -0.2055
 4102TIP3    H112312   2.526   1.389   1.303 -0.8291  0.3585 -2.8378
 4102TIP3    H212313   2.516   1.534   1.344 -0.1441  0.0999 -1.7164
 4103TIP3   OH212314   0.496   4.258   5.077 -0.0635 -0.3488 -0.1098
 4103TIP3    H112315   0.415   4.263   5.127 -0.1551  0.1041 -0.3032
 4103TIP3    H212316   0.469   4.223   4.992  0.0658 -0.9542  0.0935
 4104TIP3   OH212317   5.473   4.826   1.814 -0.1452 -0.0794  0.2695
 4104TIP3    H112318   5.550   4.817   1.870 -0.1681 -0.8493  0.1848
 4104TIP3    H212319   5.509   4.839   1.726 -0.0704  2.7935  0.6150
 4105TIP3   OH212320   3.661   3.898   4.069 -0.1066  0.3281  0.5731
 4105TIP3    H112321   3.635   3.806   4.071  0.5739  0.1139 -0.1931
 4105TIP3    H212322   3.609   3.936   3.998 -0.3880  0.5476  0.8883
 4106TIP3   OH212323   0.446   2.431   0.775 -0.2174  0.2034  0.0728
 4106TIP3    H112324   0.359   2.404   0.745 -0.2555  0.2558  0.1371
 4106TIP3    H212325   0.491   2.459   0.695  0.2782 -1.2880 -0.2007
 4107TIP3   OH212326   5.617   0.891   3.876 -0.0383  0.2171 -0.4757
 4107TIP3    H112327   5.525   0.867   3.863  0.1199 -0.0470 -1.1573
 4107TIP3    H212328   5.624   0.907   3.970 -0.7017 -0.0988 -0.3622
 4108TIP3   OH212329   5.406   0.820   1.437  0.4950  0.1469  0.4843
 4108TIP3    H112330   5.475   0.754   1.445 -0.8387 -1.2533  1.0030
 4108TIP3    H212331   5.405   0.864   1.522  0.6051  0.0291  0.5475
 4109TIP3   OH212332   2.960   5.732   4.938 -0.4458  0.2378 -0.0785
 4109TIP3    H112333   2.929   5.656   4.988  0.5799  0.6069  1.1896
 4109TIP3    H212334   2.969   5.700   4.848 -1.4691 -0.7112  0.1313
 4110TIP3   OH212335   0.775   1.009   0.751  0.1793  0.2000  0.2723
 4110TIP3    H112336   0.760   1.023   0.844 -0.3290  0.2430  0.1875
 4110TIP3    H212337   0.700   1.050   0.708 -1.1912 -2.3685  0.0035
 4111TIP3   OH212338   3.508   5.685   2.139 -0.8533  0.3929  0.0120
 4111TIP3    H112339   3.439   5.621   2.155 -1.4026  0.8734 -0.3908
 4111TIP3    H212340   3.491   5.755   2.203  1.4764 -1.1457  2.4960
 4112TIP3   OH212341   2.522   1.546   2.966  0.3465 -0.4148 -0.1350
 4112TIP3    H112342   2.558   1.634   2.956  0.8518 -0.8166 -2.5744
 4112TIP3    H212343   2.463   1.536   2.891 -1.1369 -1.5451  1.1004
 4113TIP3   OH212344   0.618   3.627   0.297 -0.0141  0.4523 -0.1465
 4113TIP3    H112345   0.618   3.540   0.257 -0.5232  1.2769 -2.0755
 4113TIP3    H212346   0.593   3.612   0.388 -0.4167 -1.3882 -0.5226
 4114TIP3   OH212347   5.311   1.247   3.355  0.2852 -0.5361 -0.1859
 4114TIP3    H112348   5.281   1.325   3.402  2.1404  1.5109 -2.1396
 4114TIP3    H212349   5.400   1.233   3.387  0.0035 -1.8246  0.0671
 4115TIP3   OH212350   1.833   3.994   0.942  0.3211  0.8454  0.3315
 4115TIP3    H112351   1.807   3.985   0.851 -0.2936 -0.4342  0.6174
 4115TIP3    H212352   1.916   3.948   0.949  1.5350  2.8684 -0.0461
 4116TIP3   OH212353   3.236   4.174   2.845  0.2556 -0.3398 -0.4336
 4116TIP3    H112354   3.229   4.181   2.940 -0.4240 -0.6108 -0.4584
 4116TIP3    H212355   3.207   4.085   2.826  1.8656 -0.8266 -0.7615
 4117TIP3   OH212356   6.218   2.112   4.961  0.1988 -1.0251 -0.1683
 4117TIP3    H112357   6.227   2.179   4.893  0.5849  0.3191  1.1509
 4117TIP3    H212358   6.268   2.146   5.035 -2.7493 -0.8495  1.9350
 4118TIP3   OH212359   6.319   5.144   4.039  0.1684  0.2496  0.4342
 4118TIP3    H112360   6.255   5.111   3.976  0.4264  0.8138 -0.1371
 4118TIP3    H212361   6.385   5.188   3.985  2.8744 -3.1398  0.6334
 4119TIP3   OH212362   3.561   3.269   2.432  0.4778 -0.0644  0.2112
 4119TIP3    H112363   3.497   3.204   2.459 -1.3430  0.5100 -2.3853
 4119TIP3    H212364   3.552   3.339   2.497 -1.2242 -0.1957  0.1548
 4120TIP3   OH212365   3.038   1.057   2.186  0.1187  0.2498 -0.2061
 4120TIP3    H112366   3.020   0.979   2.238  0.7307  0.0621 -0.2649
 4120TIP3    H212367   3.129   1.080   2.207  0.7459 -0.4405 -1.9362
 4121TIP3   OH212368   2.695   0.672   1.571 -0.8141  0.4484  0.0924
 4121TIP3    H112369   2.610   0.675   1.615 -1.1076  0.9298 -0.5047
 4121TIP3    H212370   2.743   0.748   1.606 -0.5545  0.0866  0.5511
 4122TIP3   OH212371   4.158   3.013   4.159  0.3342  0.2984 -0.2155
 4122TIP3    H112372   4.187   2.970   4.078 -0.1939 -0.1941 -0.1508
 4122TIP3    H212373   4.155   3.106   4.137  1.0150  0.2584 -0.5091
 4123TIP3   OH212374   0.836   1.019   4.615  0.0024 -0.2795  0.2035
 4123TIP3    H112375   0.818   0.983   4.702  1.0844 -1.1131  0.1049
 4123TIP3    H212376   0.759   0.994   4.563 -1.3281  1.4627  1.2356
 4124TIP3   OH212377   4.338   4.090   4.874 -0.3011  0.1771 -0.0098
 4124TIP3    H112378   4.416   4.128   4.914  0.2365  0.5461 -1.3586
 4124TIP3    H212379   4.344   3.997   4.894 -0.1714  0.3773  0.9412
 4125TIP3   OH212380   4.985   2.008   0.745  0.0976  0.3763 -0.0615
 4125TIP3    H112381   4.930   1.981   0.818  0.5300 -1.4830 -0.3847
 4125TIP3    H212382   4.924   2.047   0.682 -0.9373 -1.8123 -0.5014
 4126TIP3   OH212383   2.472   4.423   0.412 -0.3723 -0.0424  0.1153
 4126TIP3    H112384   2.477   4.444   0.319  2.3101  1.5615  0.5341
 4126TIP3    H212385   2.406   4.483   0.447  0.1807  0.8699 -0.3880
 4127TIP3   OH212386   0.950   0.602   2.031 -0.2960  0.2726 -0.4090
 4127TIP3    H112387   1.015   0.537   2.060 -0.8584  0.5837  1.7054
 4127TIP3    H212388   0.993   0.648   1.959  1.6761  0.1672  0.6261
 4128TIP3   OH212389   3.363   4.563   1.598 -0.2988  1.1599 -0.2881
 4128TIP3    H112390   3.397   4.521   1.677  1.1247 -1.8200 -2.2998
 4128TIP3    H212391   3.430   4.626   1.573  0.6701 -0.0137 -0.6925
 4129TIP3   OH212392   1.210   3.743   0.743 -0.5834 -0.3752  0.4288
 4129TIP3    H112393   1.200   3.786   0.828  1.4440 -1.8830  1.5067
 4129TIP3    H212394   1.250   3.810   0.687  0.1452 -0.0510  1.3136
 4130TIP3   OH212395   1.396   5.939   4.754  0.0779  0.5707  0.0100
 4130TIP3    H112396   1.491   5.941   4.768 -0.0470 -0.3888  1.1406
 4130TIP3    H212397   1.362   5.999   4.820 -0.1314  0.7295 -0.2399
 4131TIP3   OH212398   1.567   1.343   0.469 -0.1866  0.2313 -0.2344
 4131TIP3    H112399   1.579   1.437   0.484  0.3374 -0.1736  2.6110
 4131TIP3    H212400   1.633   1.319   0.405  2.2159  1.2518  1.7006
 4132TIP3   OH212401   5.553   0.358   0.378  0.3719  0.0283 -0.0652
 4132TIP3    H112402   5.471   0.316   0.351  0.1015 -0.1627  1.0240
 4132TIP3    H212403   5.572   0.420   0.307 -0.3525 -0.4084 -0.6555
 4133TIP3   OH212404   0.087   5.778   4.520  0.6905  0.7308  0.0606
 4133TIP3    H112405   0.133   5.858   4.545  4.3135 -0.9635 -0.6156
 4133TIP3    H212406   0.151   5.708   4.532 -1.9340 -1.9701 -0.4932
 4134TIP3   OH212407   5.007   4.684   1.377  0.2517 -0.0370 -0.0679
 4134TIP3    H112408   5.058   4.644   1.306 -0.2348  2.6662 -2.0747
 4134TIP3    H212409   4.936   4.730   1.333 -2.3307 -1.2469  2.4741
 4135TIP3   OH212410   4.966   4.535   3.505  0.1140 -0.1340  0.0813
 4135TIP3    H112411   5.029   4.468   3.481 -0.4775 -0.9817  0.8222
 4135TIP3    H212412   4.998   4.569   3.589  0.4412  0.5587 -0.3165
 4136TIP3   OH212413   5.501   5.892   1.192  0.0382 -0.2449 -0.2322
 4136TIP3    H112414   5.510   5.829   1.263  0.4207  2.1620  2.0099
 4136TIP3    H212415   5.561   5.862   1.125  2.0352 -0.9795  1.7800
 4137TIP3   OH212416   2.753   3.157   2.145 -0.1246 -0.2139 -0.4446
 4137TIP3    H112417   2.677   3.194   2.190 -0.4452 -0.0849 -1.0708
 4137TIP3    H212418   2.767   3.072   2.187 -1.5085 -0.8841 -1.2472
 4138TIP3   OH212419   3.194   4.214   0.706  0.4186  0.4376  0.5052
 4138TIP3    H112420   3.200   4.191   0.798  1.3564  1.6497  0.7836
 4138TIP3    H212421   3.101   4.226   0.689  0.0313 -1.9188  0.7046
 4139TIP3   OH212422   4.542   4.891   3.396 -0.0775  0.1256 -0.2096
 4139TIP3    H112423   4.496   4.826   3.343 -0.0184  0.2862 -0.4582
 4139TIP3    H212424   4.532   4.860   3.486 -0.0439 -0.2306 -0.3281
 4140TIP3   OH212425   5.022   3.902   0.196 -0.3155  0.6429 -0.1016
 4140TIP3    H112426   4.941   3.895   0.248 -0.8702  1.7291 -0.7779
 4140TIP3    H212427   5.028   3.819   0.150  0.2860 -0.4252  1.8093
 4141TIP3   OH212428   3.869   3.019   3.095 -0.1665 -0.4011 -0.0773
 4141TIP3    H112429   3.845   2.971   3.015  0.9464  1.0111 -1.3063
 4141TIP3    H212430   3.902   2.951   3.154  0.2820 -1.3233 -1.3418
 4142TIP3   OH212431   5.944   5.172   1.688  0.2093 -0.3179 -0.2428
 4142TIP3    H112432   5.904   5.147   1.605 -0.2999 -2.5446  0.6151
 4142TIP3    H212433   5.933   5.095   1.745  1.8459  0.5965  1.4226
 4143TIP3   OH212434   3.627   1.112   4.703 -0.6142 -0.1265  0.2375
 4143TIP3    H112435   3.664   1.034   4.742 -1.6620 -0.6728  0.1797
 4143TIP3    H212436   3.614   1.089   4.611 -0.5396  0.2585  0.1295
 4144TIP3   OH212437   5.773   1.856   0.839 -0.8771  0.0334 -0.4637
 4144TIP3    H112438   5.746   1.929   0.782 -0.2875  0.1413 -0.6205
 4144TIP3    H212439   5.865   1.875   0.858 -0.7056 -0.7032 -0.5539
 4145TIP3   OH212440   0.037   4.536   2.812  0.4680  0.0056 -0.3638
 4145TIP3    H112441   0.066   4.506   2.726 -0.0459  0.8077 -0.8224
 4145TIP3    H212442  -0.058   4.543   2.805  0.4149 -0.0013  0.2939
 4146TIP3   OH212443   2.044   0.576   4.504 -0.3230  0.2248  0.2107
 4146TIP3    H112444   1.977   0.535   4.450  1.3426  0.2989 -2.0495
 4146TIP3    H212445   2.063   0.659   4.460  0.3565  0.7884  1.5196
 4147TIP3   OH212446   4.891   2.850   4.716  0.3148  0.4388  1.0131
 4147TIP3    H112447   4.936   2.873   4.635 -1.9553  0.5388 -0.3097
 4147TIP3    H212448   4.903   2.756   4.725 -0.1575  0.2835  0.0596
 4148TIP3   OH212449   3.723   1.975   4.136 -0.5033  0.0570  0.1569
 4148TIP3    H112450   3.802   1.928   4.110 -0.5537 -0.6564  1.2316
 4148TIP3    H212451   3.659   1.954   4.068  0.7344  2.1940 -1.7938
 4149TIP3   OH212452   2.999   5.764   4.619  0.6073 -0.1569  0.2119
 4149TIP3    H112453   3.034   5.795   4.536 -1.1066 -0.9749 -0.8639
 4149TIP3    H212454   2.906   5.786   4.617  0.2914 -1.1991  1.4171
 4150TIP3   OH212455   5.360   0.065   1.721  0.2975  0.4956  0.7173
 4150TIP3    H112456   5.265   0.072   1.707  0.4251 -1.2523 -1.5849
 4150TIP3    H212457   5.390   0.009   1.650  3.1056  1.0811  1.3490
 4151TIP3   OH212458   3.263   4.750   1.283 -0.4185  0.2796 -0.0922
 4151TIP3    H112459   3.245   4.658   1.301 -0.5015  0.7435  2.5014
 4151TIP3    H212460   3.210   4.769   1.205  0.3979 -2.0704 -1.3309
 4152TIP3   OH212461   1.199   2.491   4.575 -1.0523 -0.3529 -0.1829
 4152TIP3    H112462   1.232   2.401   4.576 -2.2045 -0.7864 -0.1756
 4152TIP3    H212463   1.135   2.492   4.504 -1.4504  0.3217  0.1817
 4153TIP3   OH212464   5.479   2.516   0.486 -0.4398 -0.0464 -0.3155
 4153TIP3    H112465   5.553   2.576   0.486 -0.7643  0.3537 -0.3534
 4153TIP3    H212466   5.427   2.542   0.410 -1.1063  0.2692  0.2459
 4154TIP3   OH212467   2.129   3.926   3.187  1.0076 -0.3206 -0.3976
 4154TIP3    H112468   2.125   3.982   3.264  1.0865 -0.4465 -0.3012
 4154TIP3    H212469   2.039   3.926   3.152  0.6724 -1.2579  0.4098
 4155TIP3   OH212470   0.312   5.737   1.184 -0.6501 -0.1667  0.4267
 4155TIP3    H112471   0.313   5.830   1.165 -4.3885 -0.1525 -0.4564
 4155TIP3    H212472   0.252   5.728   1.258 -0.4033 -1.8906  0.4578
 4156TIP3   OH212473   0.752   3.359   0.364  0.0744  0.2171 -0.7166
 4156TIP3    H112474   0.787   3.402   0.443 -0.2046  3.6893 -2.3075
 4156TIP3    H212475   0.686   3.299   0.397  1.7700 -0.4366  1.8270
 4157TIP3   OH212476   4.241   4.718   1.593  0.1444  0.2876 -0.5443
 4157TIP3    H112477   4.149   4.737   1.608  0.2476 -0.1802  0.8331
 4157TIP3    H212478   4.286   4.801   1.610 -0.0378  0.5738 -1.4460
 4158TIP3   OH212479   5.845   5.597   2.242 -0.1259 -0.2344 -0.1031
 4158TIP3    H112480   5.911   5.580   2.176 -1.9178 -1.6258 -1.6338
 4158TIP3    H212481   5.850   5.522   2.302 -0.3370 -0.3528 -0.2339
 4159TIP3   OH212482   4.808   2.283   2.207  0.1447 -0.1834  0.3975
 4159TIP3    H112483   4.878   2.340   2.176  1.5557 -1.7262  0.5961
 4159TIP3    H212484   4.727   2.329   2.183  1.2004  0.8385 -1.4144
 4160TIP3   OH212485   2.694   2.888   2.025  0.1556  0.1666  0.3376
 4160TIP3    H112486   2.766   2.895   1.963 -0.0067  0.8355  0.2153
 4160TIP3    H212487   2.681   2.977   2.057 -1.2590  0.2506 -0.3782
 4161TIP3   OH212488   0.654   4.701   1.562 -0.3889  0.0994  0.1959
 4161TIP3    H112489   0.701   4.699   1.479  2.7830  0.1175  1.8512
 4161TIP3    H212490   0.623   4.611   1.574  0.0172 -0.1433 -0.5263
 4162TIP3   OH212491   3.550   5.981   3.936 -0.2124  0.3822  0.6649
 4162TIP3    H112492   3.526   5.948   3.850  2.9619 -1.4264  0.3235
 4162TIP3    H212493   3.506   5.921   3.997 -0.2845 -0.0386  0.2074
 4163TIP3   OH212494   2.870   5.405   4.051  0.1714  0.3347  0.0862
 4163TIP3    H112495   2.866   5.324   4.002 -0.0464 -0.5704  1.5356
 4163TIP3    H212496   2.804   5.396   4.120 -0.5296  2.1450 -0.2851
 4164TIP3   OH212497   0.543   1.748   4.911  0.4881 -0.3536  0.7628
 4164TIP3    H112498   0.469   1.786   4.957  0.4064  0.2979  0.1079
 4164TIP3    H212499   0.560   1.807   4.838  0.5826 -1.3733 -0.0750
 4165TIP3   OH212500   5.878   4.145   4.287 -0.4188  0.5825 -0.0625
 4165TIP3    H112501   5.909   4.077   4.228 -1.1344  0.9022 -0.8167
 4165TIP3    H212502   5.824   4.097   4.351 -0.6191  0.3913 -0.3710
 4166TIP3   OH212503   3.813   4.690   0.615 -0.1206 -0.6824 -0.1602
 4166TIP3    H112504   3.752   4.617   0.624 -0.1508 -0.7620 -0.9929
 4166TIP3    H212505   3.861   4.690   0.698 -2.7719  0.8116  1.5396
 4167TIP3   OH212506   3.952   3.258   4.855 -0.1072 -0.0127 -0.0459
 4167TIP3    H112507   3.928   3.347   4.880 -0.7012 -0.1448 -0.1219
 4167TIP3    H212508   3.984   3.266   4.765 -0.6753  0.0551 -0.2503
 4168TIP3   OH212509   1.995   0.689   4.040  0.7567  0.0723 -0.3566
 4168TIP3    H112510   2.040   0.605   4.029 -1.1114 -0.9173 -0.8886
 4168TIP3    H212511   2.060   0.754   4.012  1.7570 -1.2967 -1.4135
 4169TIP3   OH212512   5.788   0.493   3.867  0.0716  0.2980 -0.2411
 4169TIP3    H112513   5.738   0.569   3.898 -0.2930  0.1870 -0.5643
 4169TIP3    H212514   5.777   0.428   3.936  1.7038  1.0831  0.8226
 4170TIP3   OH212515   1.361   3.606   1.114  0.3498  0.4177  0.1697
 4170TIP3    H112516   1.333   3.517   1.092  4.0749 -1.5110  2.3027
 4170TIP3    H212517   1.340   3.617   1.206  2.1577  0.7027  0.5906
 4171TIP3   OH212518   4.785   4.505   1.100 -0.2759  0.1341 -0.4240
 4171TIP3    H112519   4.797   4.599   1.109 -0.0375  0.2236 -1.6108
 4171TIP3    H212520   4.870   4.467   1.123 -0.3875  0.1976  0.1072
 4172TIP3   OH212521   1.463   5.174   1.493 -0.0874 -0.2682  0.5395
 4172TIP3    H112522   1.451   5.218   1.408  1.0696 -2.3071 -0.7844
 4172TIP3    H212523   1.374   5.153   1.522 -0.4755 -0.4894 -0.7289
 4173TIP3   OH212524   3.856   3.886   4.538 -0.0024 -0.3447 -0.3842
 4173TIP3    H112525   3.856   3.932   4.622  2.5490  0.0298 -0.4917
 4173TIP3    H212526   3.788   3.928   4.486 -0.1425  0.8863  0.7647
 4174TIP3   OH212527   5.902   0.129   5.188 -0.8060  0.2414  0.1638
 4174TIP3    H112528   5.917   0.175   5.106  0.7654  1.1413  0.9003
 4174TIP3    H212529   5.813   0.152   5.214 -1.3239 -0.0730 -1.2757
 4175TIP3   OH212530   2.427   3.418   3.104  0.5820 -0.0581 -0.0301
 4175TIP3    H112531   2.425   3.410   3.199  1.1675 -1.4462 -0.1180
 4175TIP3    H212532   2.424   3.328   3.072  1.2912  0.3498 -1.3073
 4176TIP3   OH212533   3.855   2.644   4.392  0.2662 -0.2263  0.2669
 4176TIP3    H112534   3.912   2.712   4.356 -0.8931  0.0826 -1.0628
 4176TIP3    H212535   3.905   2.608   4.465  0.5993  2.6331  1.6118
 4177TIP3   OH212536   0.931   3.724   0.635  0.2310  0.1448  0.4407
 4177TIP3    H112537   0.893   3.804   0.672  2.2191  0.5733  1.7212
 4177TIP3    H212538   1.004   3.704   0.693  1.4470 -1.0640 -1.4243
 4178TIP3   OH212539   3.950   2.009   2.669  0.4573  0.1330 -0.6804
 4178TIP3    H112540   3.884   2.068   2.703  0.5343 -0.2640  0.1825
 4178TIP3    H212541   3.989   2.056   2.595  0.4467  1.1108 -0.0797
 4179TIP3   OH212542   0.195   0.315   1.564 -0.1675 -0.0424 -0.5923
 4179TIP3    H112543   0.136   0.390   1.567  0.5564  0.5291 -0.3974
 4179TIP3    H212544   0.278   0.350   1.531  0.2831 -0.6831 -0.1767
 4180TIP3   OH212545   4.143   1.850   1.322 -0.3421  0.3161  0.0582
 4180TIP3    H112546   4.051   1.870   1.336 -0.4677 -1.2942  2.0738
 4180TIP3    H212547   4.190   1.904   1.385  0.1191  1.1664 -0.9920
 4181TIP3   OH212548   1.596   2.911   2.112 -0.2390  0.0572  0.6273
 4181TIP3    H112549   1.619   2.841   2.051 -0.4120 -0.7287  1.4415
 4181TIP3    H212550   1.501   2.921   2.101  0.0558  1.5239 -0.8810
 4182TIP3   OH212551   0.491   2.158   4.886  0.7350  0.1206 -0.6384
 4182TIP3    H112552   0.427   2.106   4.838 -0.5508 -0.9697  2.0374
 4182TIP3    H212553   0.546   2.094   4.930  0.0639  0.9578  1.5566
 4183TIP3   OH212554   0.372   4.836   3.427  0.0008 -0.5194  0.0027
 4183TIP3    H112555   0.402   4.807   3.341  0.5539  0.2525 -0.0750
 4183TIP3    H212556   0.278   4.816   3.428  0.2284 -1.6670 -0.2935
 4184TIP3   OH212557   1.912   4.987   3.305 -0.2002 -0.3719 -0.4341
 4184TIP3    H112558   1.856   4.983   3.383 -1.2398 -0.3367 -1.1636
 4184TIP3    H212559   1.991   4.940   3.330 -0.4643 -0.2508  0.6891
 4185TIP3   OH212560   1.342   0.170   1.175 -0.6562  0.2062  0.0142
 4185TIP3    H112561   1.291   0.203   1.248  1.7053 -0.6613  2.1882
 4185TIP3    H212562   1.324   0.076   1.173  0.1423  0.0435  0.2148
 4186TIP3   OH212563   5.020   0.868   1.939 -0.1799 -0.1392 -0.2627
 4186TIP3    H112564   4.946   0.860   1.879 -2.3456  0.4922  2.1750
 4186TIP3    H212565   5.006   0.951   1.984  0.4202 -1.3328  2.2868
 4187TIP3   OH212566   2.645   2.149   4.545 -0.0177 -0.0523  1.1863
 4187TIP3    H112567   2.630   2.237   4.580  1.0962  0.3379  0.7342
 4187TIP3    H212568   2.732   2.154   4.506 -0.8692 -0.6929 -0.9388
 4188TIP3   OH212569   0.769   1.655   0.449  0.5687  0.3701  0.3358
 4188TIP3    H112570   0.750   1.586   0.385  0.5256  0.2841  0.4393
 4188TIP3    H212571   0.687   1.665   0.498  0.8075 -0.0623  0.8401
 4189TIP3   OH212572   3.609   4.389   3.921 -0.4462  0.4045  0.6757
 4189TIP3    H112573   3.688   4.416   3.873 -0.4189  1.3693  1.2437
 4189TIP3    H212574   3.642   4.349   4.001 -0.5199 -0.2108  0.4062
 4190TIP3   OH212575   3.720   2.119   4.379 -0.4323  0.1078  0.0061
 4190TIP3    H112576   3.736   2.064   4.302 -1.6986 -1.3952  0.7644
 4190TIP3    H212577   3.658   2.185   4.348 -0.5905 -0.2196 -0.3961
 4191TIP3   OH212578   2.096   3.894   1.395  0.4751 -0.8033 -0.2950
 4191TIP3    H112579   2.002   3.899   1.409  0.7599 -1.8395  2.5517
 4191TIP3    H212580   2.129   3.981   1.418  0.3188 -0.6896 -0.4960
 4192TIP3   OH212581   4.041   2.938   2.006 -0.4639  0.3084 -0.6582
 4192TIP3    H112582   4.084   3.010   2.052  1.9567 -1.4431  0.0072
 4192TIP3    H212583   3.984   2.898   2.072  0.4525 -0.1610 -0.1343
 4193TIP3   OH212584   5.268   2.166   1.490 -0.2272 -0.2049 -0.2277
 4193TIP3    H112585   5.258   2.229   1.561 -1.3241 -0.6780  0.0601
 4193TIP3    H212586   5.348   2.194   1.444  1.1103 -0.4906  1.7890
 4194TIP3   OH212587   1.012   2.578   2.267 -1.0150  0.0012  0.1613
 4194TIP3    H112588   1.019   2.484   2.282 -0.9682 -0.1861 -0.9339
 4194TIP3    H212589   1.024   2.617   2.353 -1.5766 -1.0181  0.7221
 4195TIP3   OH212590   6.221   5.760   1.806  0.0331  0.1817 -0.0064
 4195TIP3    H112591   6.238   5.848   1.772  0.6674  0.5179  1.1472
 4195TIP3    H212592   6.128   5.745   1.789 -0.7031  2.0650  1.9407
 4196TIP3   OH212593   3.267   2.738   0.578  0.3662  0.6781 -0.1053
 4196TIP3    H112594   3.278   2.680   0.503 -0.1750  1.3410 -0.7195
 4196TIP3    H212595   3.196   2.797   0.552 -0.2929  0.4958  1.2027
 4197TIP3   OH212596   1.703   4.761   2.355  0.3176  0.1909 -0.7951
 4197TIP3    H112597   1.671   4.681   2.396  1.8190  0.0425  0.1756
 4197TIP3    H212598   1.651   4.831   2.395  0.4850 -0.1202 -0.0116
 4198TIP3   OH212599   0.132   4.719   3.377  0.1842  0.4938 -0.0658
 4198TIP3    H112600   0.079   4.681   3.446  0.3910  0.1224 -0.1059
 4198TIP3    H212601   0.074   4.724   3.301 -0.4642  2.2196  0.5103
 4199TIP3   OH212602   1.326   0.501   3.460  0.1425 -0.1324  0.0706
 4199TIP3    H112603   1.383   0.483   3.535 -0.6061  1.4725  1.0652
 4199TIP3    H212604   1.371   0.570   3.411  0.1385 -0.4687 -0.4175
 4200TIP3   OH212605   6.087   2.084   1.963 -0.3711 -0.6112 -0.4352
 4200TIP3    H112606   6.085   2.170   1.921  1.0976  0.1576  0.9664
 4200TIP3    H212607   6.004   2.079   2.012 -0.4000  0.0615 -0.4069
 4201TIP3   OH212608   3.754   1.008   1.382 -0.3620 -0.2376 -0.6687
 4201TIP3    H112609   3.788   1.097   1.391 -3.0767  0.8922 -0.7579
 4201TIP3    H212610   3.690   1.000   1.452  1.1753 -2.8895  0.5939
 4202TIP3   OH212611   5.110   4.560   4.237 -0.4844  0.4455 -0.2431
 4202TIP3    H112612   5.167   4.632   4.211 -0.1500  0.1209 -0.4100
 4202TIP3    H212613   5.141   4.485   4.186 -0.2699 -0.0289  0.5759
 4203TIP3   OH212614   2.800   2.167   3.725 -0.4608  0.5264 -0.3257
 4203TIP3    H112615   2.746   2.174   3.804  0.8589 -0.9809  0.7964
 4203TIP3    H212616   2.889   2.187   3.755  0.1523 -0.6328 -1.2696
 4204TIP3   OH212617   5.399   5.680   3.596  0.0248 -0.1229 -0.2987
 4204TIP3    H112618   5.390   5.762   3.547 -0.5715 -0.4004 -0.6669
 4204TIP3    H212619   5.382   5.612   3.531 -0.1169 -0.5186  0.1477
 4205TIP3   OH212620   0.093   0.737   1.903  0.4428 -0.2784 -0.3156
 4205TIP3    H112621   0.049   0.809   1.948 -2.1406 -1.0325 -1.4435
 4205TIP3    H212622   0.151   0.780   1.840  1.6859  0.7582  1.4305
 4206TIP3   OH212623   1.785   5.361   4.589 -0.0690  0.0108 -0.5005
 4206TIP3    H112624   1.696   5.387   4.567  0.0914  0.5298 -0.5404
 4206TIP3    H212625   1.811   5.303   4.517 -0.8992 -1.3612  0.2622
 4207TIP3   OH212626   5.994   4.651   4.147 -0.5074 -0.2075 -0.0821
 4207TIP3    H112627   5.960   4.562   4.144 -1.1353 -0.1778  2.7443
 4207TIP3    H212628   6.024   4.662   4.238  1.0614  1.9328 -0.7678
 4208TIP3   OH212629   1.373   1.897   4.375 -0.0467  0.1613  0.6647
 4208TIP3    H112630   1.447   1.853   4.331  1.3613  0.8501  2.2254
 4208TIP3    H212631   1.352   1.840   4.449 -1.9004 -0.6135 -0.4063
 4209TIP3   OH212632   1.816   0.560   1.880 -0.6835  0.2714 -0.2932
 4209TIP3    H112633   1.761   0.518   1.946 -2.2584  2.5523 -0.0205
 4209TIP3    H212634   1.883   0.606   1.931 -0.0838 -0.3853 -0.4781
 4210TIP3   OH212635   6.233   3.033   0.646 -0.0310 -0.4276  0.1423
 4210TIP3    H112636   6.220   3.120   0.683  1.6749  0.6706 -1.6450
 4210TIP3    H212637   6.282   2.986   0.713  0.2826  0.4599  0.5575
 4211TIP3   OH212638   3.020   3.338   4.463 -0.1892 -0.0725 -0.2600
 4211TIP3    H112639   3.048   3.352   4.553  1.0156 -0.1003 -0.6121
 4211TIP3    H212640   3.053   3.252   4.440 -0.0334  0.1463 -0.8907
 4212TIP3   OH212641   6.218   3.886   3.525 -0.2156  0.0454  0.0209
 4212TIP3    H112642   6.204   3.799   3.560 -1.5832  0.2231 -0.0288
 4212TIP3    H212643   6.258   3.935   3.597  1.3964 -0.8370 -0.2433
 4213TIP3   OH212644   6.139   3.838   0.540 -0.1552 -0.1377 -0.1981
 4213TIP3    H112645   6.141   3.819   0.633  0.7620 -1.2615 -0.4180
 4213TIP3    H212646   6.047   3.860   0.522 -0.5856 -1.0401  0.7585
 4214TIP3   OH212647   6.174   3.626   0.294  0.0665 -0.8115 -0.2844
 4214TIP3    H112648   6.229   3.654   0.221  0.8297 -0.0737  0.5505
 4214TIP3    H212649   6.088   3.662   0.274  0.2303 -0.7418 -0.8922
 4215TIP3   OH212650   1.517   2.321   0.226 -0.0146 -0.3863 -0.1887
 4215TIP3    H112651   1.450   2.328   0.294  1.1599 -1.2827  1.1187
 4215TIP3    H212652   1.600   2.327   0.273  0.8439  0.0771 -1.6876
 4216TIP3   OH212653   5.404   4.349   3.719 -0.8247  0.5605  0.2041
 4216TIP3    H112654   5.385   4.437   3.688 -1.3451  0.8074  1.1975
 4216TIP3    H212655   5.494   4.333   3.691 -1.8443 -0.0278 -3.2222
 4217TIP3   OH212656   5.795   4.881   3.025  0.1938  0.2215  0.0053
 4217TIP3    H112657   5.879   4.836   3.033  0.5261  0.7540 -0.3982
 4217TIP3    H212658   5.730   4.811   3.021  0.6369 -0.1983  0.0873
 4218TIP3   OH212659   3.420   4.722   1.991  0.2504 -0.6089  0.3236
 4218TIP3    H112660   3.368   4.642   1.997 -1.1429  0.3774  2.5421
 4218TIP3    H212661   3.499   4.703   2.041  0.9173 -1.2277 -0.8930
 4219TIP3   OH212662   2.954   2.932   2.546  0.3031 -0.1429  0.6311
 4219TIP3    H112663   2.926   2.842   2.567 -3.0442  1.0189  1.7717
 4219TIP3    H212664   3.023   2.950   2.610 -0.3026 -1.2823  1.6612
 4220TIP3   OH212665   2.555   3.018   4.408 -0.2746  0.1575  0.2225
 4220TIP3    H112666   2.524   3.006   4.497  0.1684 -1.3028  0.2095
 4220TIP3    H212667   2.571   2.929   4.376  1.0873  0.7194 -0.7619
 4221TIP3   OH212668   1.534   3.393   2.334  0.6051  0.1550  0.4284
 4221TIP3    H112669   1.569   3.316   2.289 -1.2231  0.3879 -1.5740
 4221TIP3    H212670   1.463   3.359   2.388 -0.9069  0.4445 -1.2588
 4222TIP3   OH212671   1.328   2.705   1.266  0.3248 -0.1312  0.0639
 4222TIP3    H112672   1.294   2.709   1.355 -0.4261 -0.0453 -0.2220
 4222TIP3    H212673   1.387   2.629   1.266  1.5862  0.8019  1.0488
 4223TIP3   OH212674   2.399   1.646   1.570 -0.1255 -0.1720  0.0261
 4223TIP3    H112675   2.416   1.669   1.662 -1.1720 -0.1591  0.2263
 4223TIP3    H212676   2.425   1.554   1.564 -0.1581 -0.2041  0.3590
 4224TIP3   OH212677   0.547   4.879   1.356 -0.7958 -0.4232  0.3345
 4224TIP3    H112678   0.555   4.784   1.364 -1.0034 -0.3836  1.1328
 4224TIP3    H212679   0.537   4.909   1.446  0.0553  0.4307  0.1523
 4225TIP3   OH212680   5.192   0.989   1.099  0.3433  0.0400  0.1745
 4225TIP3    H112681   5.157   1.054   1.159  0.3981  0.1391  0.1003
 4225TIP3    H212682   5.136   0.912   1.110 -1.4525  0.9951 -1.7313
 4226TIP3   OH212683   6.041   1.318   0.437  0.1477  0.0895 -0.0505
 4226TIP3    H112684   6.048   1.329   0.343  0.4222 -0.5867 -0.1153
 4226TIP3    H212685   6.097   1.243   0.457 -0.4178 -0.1815  0.5606
 4227TIP3   OH212686   5.915   3.600   3.268  0.1094 -0.2191  0.2663
 4227TIP3    H112687   5.930   3.537   3.339 -0.9324 -0.4074  0.3351
 4227TIP3    H212688   5.843   3.656   3.300 -0.3550 -0.2871 -0.6223
 4228TIP3   OH212689   1.494   5.807   3.676  0.3466  0.2282  0.0456
 4228TIP3    H112690   1.475   5.881   3.734  0.1853 -0.4964  0.9414
 4228TIP3    H212691   1.418   5.749   3.685  0.5350 -0.1174 -0.5345
 4229TIP3   OH212692   2.883   1.003   2.680  0.4315  0.2766  0.8469
 4229TIP3    H112693   2.853   1.079   2.729 -1.8313 -1.1060  1.7620
 4229TIP3    H212694   2.885   0.932   2.744 -1.1853 -1.2551 -0.6902
 4230TIP3   OH212695   1.773   4.999   0.330 -0.8035 -0.2646 -0.4460
 4230TIP3    H112696   1.803   4.912   0.355 -2.1994 -0.8644 -0.7118
 4230TIP3    H212697   1.773   4.998   0.235  0.1026  0.3824 -0.4620
 4231TIP3   OH212698   3.634   2.057   3.066 -0.0696  0.9249  0.8471
 4231TIP3    H112699   3.685   1.983   3.033 -1.7359  0.1920 -0.1685
 4231TIP3    H212700   3.628   2.042   3.160  0.3545  0.2674  0.7761
 4232TIP3   OH212701   0.774   0.546   1.195  0.1091  0.5768  0.1922
 4232TIP3    H112702   0.693   0.595   1.179 -1.0227 -1.9586 -3.2875
 4232TIP3    H212703   0.831   0.570   1.122  1.1144 -0.2171  0.6905
 4233TIP3   OH212704   0.341   5.697   1.875  0.6117 -0.0982 -0.5609
 4233TIP3    H112705   0.317   5.789   1.871  0.2625 -0.1646 -0.0895
 4233TIP3    H212706   0.263   5.651   1.844  0.0757 -0.3218  1.0685
 4234TIP3   OH212707   4.876   5.233   1.920 -0.2020 -0.5841  0.2316
 4234TIP3    H112708   4.972   5.229   1.925 -0.2733 -1.5368  1.1368
 4234TIP3    H212709   4.848   5.142   1.923 -1.1159 -0.3839 -1.2055
 4235TIP3   OH212710   3.532   1.666   3.350  0.8068 -0.2554 -0.1569
 4235TIP3    H112711   3.538   1.581   3.306  0.6281 -0.8509  0.9416
 4235TIP3    H212712   3.623   1.696   3.357  0.8635 -0.3137 -0.6237
 4236TIP3   OH212713   5.187   1.393   0.678 -0.5757  0.1273 -0.0994
 4236TIP3    H112714   5.147   1.309   0.698  0.0399 -0.1046  0.1859
 4236TIP3    H212715   5.281   1.374   0.672 -0.6077  0.3997 -2.1124
 4237TIP3   OH212716   2.148   3.297   1.927  0.8973 -0.1015 -0.2597
 4237TIP3    H112717   2.240   3.323   1.936  0.5077  1.6575 -1.0319
 4237TIP3    H212718   2.135   3.293   1.832 -0.1959  1.0716 -0.1691
 4238TIP3   OH212719   5.521   1.362   3.031  0.1412  0.2500 -0.1987
 4238TIP3    H112720   5.446   1.384   2.975  0.7848 -0.6267 -1.4353
 4238TIP3    H212721   5.488   1.292   3.088 -0.3447  0.7578  0.1639
 4239TIP3   OH212722   0.481   0.102   0.651 -0.6817  0.0319  0.0931
 4239TIP3    H112723   0.500   0.009   0.639  1.1563  0.4061 -0.2494
 4239TIP3    H212724   0.457   0.111   0.743 -0.2380 -0.6905  0.2809
 4240TIP3   OH212725   0.903   1.481   4.993 -0.3577 -0.1331 -0.5028
 4240TIP3    H112726   0.920   1.573   5.015  0.3999 -0.1671 -0.9148
 4240TIP3    H212727   0.823   1.484   4.940 -0.4326  0.2722 -0.3755
 4241TIP3   OH212728  -0.009   0.634   3.516 -0.2113  0.2464  0.2579
 4241TIP3    H112729   0.023   0.619   3.605 -1.3787 -1.2294  0.4753
 4241TIP3    H212730   0.025   0.559   3.465 -0.8905  0.2156 -0.1599
 4242TIP3   OH212731   1.993   0.117   3.261  0.0712 -0.0602  0.5745
 4242TIP3    H112732   1.986   0.184   3.192 -0.6929  0.2761  0.9642
 4242TIP3    H212733   2.049   0.049   3.223 -0.1320  0.2393 -0.2854
 4243TIP3   OH212734   2.898   0.426   2.258  0.1751  0.4520 -0.4727
 4243TIP3    H112735   2.951   0.359   2.301  0.0097 -0.4221 -1.5780
 4243TIP3    H212736   2.808   0.405   2.282  0.0790 -0.0620 -1.2426
 4244TIP3   OH212737   2.614   3.946   3.313 -0.2906  0.4639 -0.0774
 4244TIP3    H112738   2.605   3.864   3.266 -1.8902  0.1829  0.6530
 4244TIP3    H212739   2.633   4.011   3.245  3.2402 -0.7759 -0.4538
 4245TIP3   OH212740   1.054   1.309   0.247  0.0599 -0.4286 -0.0908
 4245TIP3    H112741   1.011   1.368   0.309  0.0360 -1.1367  0.5790
 4245TIP3    H212742   1.144   1.340   0.244  0.1189 -0.5277  0.4829
 4246TIP3   OH212743   2.431   4.230   2.074  0.3981 -0.1295  0.3470
 4246TIP3    H112744   2.418   4.135   2.065  0.3595 -0.2553  1.5964
 4246TIP3    H212745   2.343   4.267   2.063  0.0949 -0.4040  1.7555
 4247TIP3   OH212746   5.677   1.708   4.553  0.2711 -0.1095  0.0096
 4247TIP3    H112747   5.652   1.797   4.579  3.4018  0.1644  2.6428
 4247TIP3    H212748   5.645   1.652   4.624  2.6623 -0.3219  1.0156
 4248TIP3   OH212749   3.805   3.062   0.430 -0.3092 -0.3153 -0.3622
 4248TIP3    H112750   3.794   3.104   0.344  0.6628 -0.5078 -0.5894
 4248TIP3    H212751   3.715   3.052   0.463 -0.5628  2.4089 -0.0474
 4249TIP3   OH212752   1.077   5.622   0.822 -0.2666 -0.0181  0.1961
 4249TIP3    H112753   1.166   5.648   0.800 -0.8577  0.7025 -1.5394
 4249TIP3    H212754   1.031   5.704   0.839 -1.2556 -0.1038 -1.7405
 4250TIP3   OH212755   3.269   3.513   0.373  0.3733 -0.3123 -0.4093
 4250TIP3    H112756   3.289   3.555   0.457 -1.6419  0.3792 -0.2265
 4250TIP3    H212757   3.278   3.419   0.391  0.5391 -0.1497  0.4110
 4251TIP3   OH212758   2.568   3.628   1.129 -0.7792 -0.2005  0.0342
 4251TIP3    H112759   2.532   3.687   1.194 -1.2982  0.2710 -0.6641
 4251TIP3    H212760   2.562   3.541   1.169 -0.2882  0.1739  0.9454
 4252TIP3   OH212761   2.452   4.829   0.224 -0.4240 -0.1141  0.2635
 4252TIP3    H112762   2.371   4.879   0.240 -0.2545  0.1960  0.1683
 4252TIP3    H212763   2.505   4.845   0.302 -0.0646  0.4669 -0.0902
 4253TIP3   OH212764   6.202   2.556   4.580  0.0691  0.0872  0.2195
 4253TIP3    H112765   6.262   2.483   4.564 -0.6885 -0.1576 -1.7477
 4253TIP3    H212766   6.168   2.579   4.494 -1.4023  1.3127  1.0713
 4254TIP3   OH212767   2.404   4.615   2.415 -0.1570  0.3759 -0.3153
 4254TIP3    H112768   2.399   4.587   2.324  1.9938 -0.4595 -0.2455
 4254TIP3    H212769   2.468   4.555   2.455 -1.8965 -0.0566  2.0643
 4255TIP3   OH212770   3.197   4.597   2.242  0.7695  0.6720  0.2514
 4255TIP3    H112771   3.247   4.520   2.216 -1.3089 -0.9115  0.7150
 4255TIP3    H212772   3.169   4.637   2.159  0.0936 -0.2919  0.0070
 4256TIP3   OH212773   3.117   0.957   3.513  0.5017 -0.1576  0.5047
 4256TIP3    H112774   3.063   0.881   3.536  1.3426 -0.5563  1.1833
 4256TIP3    H212775   3.162   0.930   3.433 -1.5077  0.7891 -1.0650
 4257TIP3   OH212776   2.980   0.969   1.348 -0.4141  0.1684 -0.3115
 4257TIP3    H112777   2.945   1.038   1.404 -1.0204  0.6189 -1.2257
 4257TIP3    H212778   3.017   1.015   1.272  1.6844 -0.3281  0.3397
 4258TIP3   OH212779   0.024   0.387   0.957  0.0450  0.3725 -0.3972
 4258TIP3    H112780   0.061   0.299   0.958  1.4123  0.9208  0.9444
 4258TIP3    H212781   0.030   0.415   0.866 -0.9716 -1.1135 -0.9596
 4259TIP3   OH212782   3.454   0.170   3.064 -0.2597 -0.5027  0.7891
 4259TIP3    H112783   3.433   0.185   2.972 -0.4631 -1.1306  0.7260
 4259TIP3    H212784   3.491   0.253   3.095 -0.3417 -0.2401  0.1866
 4260TIP3   OH212785   1.792   2.134   4.901  0.1757 -0.0453  0.2191
 4260TIP3    H112786   1.805   2.149   4.994  1.9342  0.7109 -0.1118
 4260TIP3    H212787   1.708   2.089   4.895 -0.3480  0.6041  2.0986
 4261TIP3   OH212788   3.363   0.731   3.501 -0.5188  0.1253  0.2802
 4261TIP3    H112789   3.275   0.720   3.535 -0.6783 -0.9629 -0.4380
 4261TIP3    H212790   3.421   0.710   3.574 -0.8561 -0.2877  0.4250
 4262TIP3   OH212791   2.702   5.726   2.021  0.0900  0.0863 -0.2120
 4262TIP3    H112792   2.695   5.756   1.930  0.1983  0.0722 -0.2250
 4262TIP3    H212793   2.618   5.683   2.038 -0.5632  1.4622  0.2038
 4263TIP3   OH212794   3.667   4.456   5.038 -0.0139 -0.0056  0.4848
 4263TIP3    H112795   3.612   4.414   4.972  0.0951 -0.7775  0.8722
 4263TIP3    H212796   3.654   4.404   5.117 -0.4507  1.1405  1.1980
 4264TIP3   OH212797   0.632   0.333   1.042 -0.3119  0.0480  0.1643
 4264TIP3    H112798   0.692   0.387   1.093  0.4549 -0.8186  0.1945
 4264TIP3    H212799   0.680   0.253   1.024 -0.7794  0.0852 -1.4165
 4265TIP3   OH212800   1.207   3.463   0.772 -0.5471  0.6630 -0.0641
 4265TIP3    H112801   1.177   3.447   0.682  0.6688  1.4058 -0.6295
 4265TIP3    H212802   1.223   3.557   0.775 -1.0843  0.7333  1.1129
 4266TIP3   OH212803   5.228   4.478   2.421 -0.4144  0.0058  1.1512
 4266TIP3    H112804   5.238   4.528   2.340  0.4824  0.4102  1.4966
 4266TIP3    H212805   5.301   4.416   2.420  0.0531  0.5077  1.9806
 4267TIP3   OH212806   2.088   4.636   1.806 -0.0761 -0.3766  0.4067
 4267TIP3    H112807   2.046   4.696   1.868  0.3824  0.6850 -0.2880
 4267TIP3    H212808   2.174   4.618   1.846  0.0594 -0.0162  0.2816
 4268TIP3   OH212809   4.153   1.053   4.367  0.2240 -0.0044 -0.0725
 4268TIP3    H112810   4.122   1.108   4.295  0.6805 -1.1856 -1.2239
 4268TIP3    H212811   4.129   0.964   4.340 -0.7070 -0.3795  1.8353
 4269TIP3   OH212812   3.927   3.745   3.809  0.0655  0.2659  0.1243
 4269TIP3    H112813   3.897   3.813   3.749  2.7048  0.1548 -1.4607
 4269TIP3    H212814   4.006   3.780   3.849  0.3837 -1.0994  0.7776
 4270TIP3   OH212815   0.081   3.975   4.039 -1.0412  0.0446 -0.6980
 4270TIP3    H112816  -0.001   3.929   4.058 -1.2071  0.3752 -0.6003
 4270TIP3    H212817   0.056   4.047   3.981 -1.0553  0.9891  0.4247
 4271TIP3   OH212818   4.503   0.200   0.715  0.3032 -0.2701 -0.2268
 4271TIP3    H112819   4.518   0.239   0.802 -0.4676  2.1785 -1.0956
 4271TIP3    H212820   4.419   0.155   0.723  0.1335  0.1200  0.2569
 4272TIP3   OH212821   1.647   2.981   4.982 -0.1168  0.0827 -0.1308
 4272TIP3    H112822   1.637   2.890   4.953  1.4604 -0.3478  0.5773
 4272TIP3    H212823   1.741   2.995   4.987 -0.3271  1.2456  1.3756
 4273TIP3   OH212824   2.010   1.464   0.794  0.4353 -0.1445 -0.3637
 4273TIP3    H112825   1.922   1.425   0.792  1.1244 -1.9158  0.6462
 4273TIP3    H212826   1.998   1.548   0.837 -0.5856 -1.0454  1.2248
 4274TIP3   OH212827   3.729   0.476   1.036  0.4338  0.4432 -0.6061
 4274TIP3    H112828   3.658   0.486   1.100 -1.4694  0.5264 -2.6089
 4274TIP3    H212829   3.772   0.562   1.036  0.6077  0.3799  0.6715
 4275TIP3   OH212830   1.153   4.377   1.234  0.1770 -0.5480  0.5114
 4275TIP3    H112831   1.106   4.342   1.309 -0.0477  0.2894  0.7690
 4275TIP3    H212832   1.235   4.410   1.270  0.2839 -0.5848  0.3041
 4276TIP3   OH212833   0.568   2.458   0.511 -0.7561 -0.5080 -0.0919
 4276TIP3    H112834   0.533   2.536   0.467  0.4089  1.5989  2.4571
 4276TIP3    H212835   0.663   2.468   0.503 -0.5867 -1.6998  0.2876
 4277TIP3   OH212836   5.493   3.420  -0.009  0.4036  0.1484  0.3575
 4277TIP3    H112837   5.552   3.345  -0.012  1.3094  0.7784  1.6263
 4277TIP3    H212838   5.450   3.415   0.077  0.4551  1.0586  0.4533
 4278TIP3   OH212839   3.911   1.164   3.585  0.6652  0.2636 -0.5612
 4278TIP3    H112840   3.941   1.187   3.673  0.7354  0.4049 -0.6210
 4278TIP3    H212841   3.853   1.089   3.597  0.4765  0.4414 -0.3691
 4279TIP3   OH212842   2.430   0.350   2.674  0.3124 -0.2711 -0.1866
 4279TIP3    H112843   2.501   0.288   2.689  1.4628  0.6185 -1.7175
 4279TIP3    H212844   2.463   0.433   2.706  0.8217  0.5708 -2.6809
 4280TIP3   OH212845   3.418   2.352   0.643  0.0491 -0.1589  0.3759
 4280TIP3    H112846   3.388   2.397   0.564 -0.2702 -0.1795  0.4836
 4280TIP3    H212847   3.434   2.423   0.706 -0.6103 -0.1953  0.5990
 4281TIP3   OH212848   4.213   0.250   2.305 -0.2277 -0.0059 -0.0326
 4281TIP3    H112849   4.230   0.297   2.387 -0.9058 -1.1604  0.7961
 4281TIP3    H212850   4.145   0.301   2.262 -1.0948 -0.3077  0.9480
 4282TIP3   OH212851   2.011   4.326   0.352 -0.2961  0.3495 -0.2820
 4282TIP3    H112852   2.048   4.414   0.345 -0.4185  0.2519 -3.5353
 4282TIP3    H212853   2.079   4.274   0.394  0.4777  1.6069  0.0716
 4283TIP3   OH212854   5.954   5.844   3.221  0.1928 -0.2344 -0.4372
 4283TIP3    H112855   5.926   5.929   3.188 -0.9035  0.2531  1.5519
 4283TIP3    H212856   5.888   5.782   3.189 -0.1642  0.0267 -0.2213
 4284TIP3   OH212857   2.628   4.675   1.110 -0.4306 -0.4031  0.0358
 4284TIP3    H112858   2.549   4.728   1.104  1.0061  2.1662  1.7232
 4284TIP3    H212859   2.692   4.721   1.055  0.1852 -1.8482 -0.4952
 4285TIP3   OH212860   3.308   0.746   4.785 -0.2751 -0.5424  0.1470
 4285TIP3    H112861   3.252   0.676   4.753  0.9033 -1.2446 -0.4756
 4285TIP3    H212862   3.361   0.771   4.708  0.1228  0.2254  0.6545
 4286TIP3   OH212863   6.197   5.719   4.674  0.3811  0.2419  0.0364
 4286TIP3    H112864   6.171   5.798   4.628  0.7770 -0.7180 -1.9409
 4286TIP3    H212865   6.290   5.709   4.653  0.9239  0.4134  2.1033
 4287TIP3   OH212866   0.969   1.738   1.003 -0.0354 -0.5313  0.5791
 4287TIP3    H112867   0.906   1.809   1.015  0.2141 -0.0426 -0.8644
 4287TIP3    H212868   1.007   1.754   0.917  3.5205  0.3296  2.1295
 4288TIP3   OH212869   1.445   3.069   4.543  0.5033  0.3309  0.6726
 4288TIP3    H112870   1.475   3.088   4.632  0.6417  1.9064  0.3113
 4288TIP3    H212871   1.457   2.974   4.534  1.9583  0.3732  1.7958
 4289TIP3   OH212872   4.836   3.896   4.426  0.3972  0.3871  0.2380
 4289TIP3    H112873   4.745   3.872   4.411 -0.1212  3.0011 -1.3787
 4289TIP3    H212874   4.883   3.813   4.430 -2.0588 -1.0494  1.5011
 4290TIP3   OH212875   1.787   0.284   3.763 -0.1928 -0.3304 -0.1796
 4290TIP3    H112876   1.863   0.232   3.737  1.3936  0.3314  2.6896
 4290TIP3    H212877   1.818   0.375   3.760 -1.2622  0.0567 -0.0392
 4291TIP3   OH212878   3.015   2.766   4.110 -0.7337  0.1250  0.6173
 4291TIP3    H112879   2.997   2.783   4.017  0.9512  0.6959  0.3476
 4291TIP3    H212880   2.929   2.753   4.149 -1.4644 -0.6027 -1.1075
 4292TIP3   OH212881   4.351   5.558   2.234 -0.1376 -0.2350 -0.0982
 4292TIP3    H112882   4.375   5.643   2.272  0.3989 -0.2454 -0.4085
 4292TIP3    H212883   4.329   5.578   2.143  0.8464 -0.5503 -0.4192
 4293TIP3   OH212884   4.500   0.909   0.422  0.1897  0.1276  0.1696
 4293TIP3    H112885   4.412   0.870   0.425  0.1786  0.1588  0.2735
 4293TIP3    H212886   4.497   0.969   0.347 -0.2901  1.0951  0.9347
 4294TIP3   OH212887   0.634   2.753   4.220 -0.3594  0.3293 -0.1354
 4294TIP3    H112888   0.670   2.747   4.132  0.7105 -0.1936  0.3234
 4294TIP3    H212889   0.554   2.804   4.209 -1.0984 -1.0214 -1.6595
 4295TIP3   OH212890   5.654   4.313   4.260  0.5210 -0.4460  0.2378
 4295TIP3    H112891   5.696   4.230   4.286  1.1913 -0.2423 -0.1671
 4295TIP3    H212892   5.561   4.300   4.279  0.4488 -1.7102 -0.8450
 4296TIP3   OH212893   5.663   0.989   1.154 -0.5029  0.9851 -0.4254
 4296TIP3    H112894   5.590   0.926   1.156  0.2890  0.0576 -0.0969
 4296TIP3    H212895   5.624   1.071   1.184 -1.0461  0.0940  1.5220
 4297TIP3   OH212896   3.258   1.465   2.995 -0.2660 -0.5830 -0.2398
 4297TIP3    H112897   3.272   1.430   3.083 -1.4388 -0.1468  0.1479
 4297TIP3    H212898   3.334   1.521   2.978  0.3636 -1.3135  0.1616
 4298TIP3   OH212899   2.851   3.641   1.593  0.5291  0.1714 -0.1640
 4298TIP3    H112900   2.762   3.607   1.582  0.8556 -1.5851  1.7404
 4298TIP3    H212901   2.907   3.563   1.585  1.5966  0.6960  1.5491
 4299TIP3   OH212902   3.694   1.243   0.368 -0.3834  0.3982  0.4017
 4299TIP3    H112903   3.725   1.333   0.359  0.2425  0.1171 -0.4750
 4299TIP3    H212904   3.766   1.190   0.331 -1.6593 -0.3190 -1.1923
 4300TIP3   OH212905   4.623   0.476   0.505  0.3927 -0.0165 -0.0577
 4300TIP3    H112906   4.569   0.533   0.560 -1.0329 -1.2911 -0.0773
 4300TIP3    H212907   4.691   0.443   0.564  1.0771  1.4453  0.0163
 4301TIP3   OH212908   2.878   5.193   3.229 -0.0430 -0.1679 -0.0565
 4301TIP3    H112909   2.819   5.178   3.155 -0.7019  0.9001  0.2246
 4301TIP3    H212910   2.849   5.130   3.295 -0.6856  0.1348 -0.0356
 4302TIP3   OH212911   1.654   4.624   3.106  0.2061  0.4345 -0.3078
 4302TIP3    H112912   1.713   4.550   3.121 -1.3420 -0.3892  2.2665
 4302TIP3    H212913   1.651   4.670   3.190 -0.7190  2.0268 -1.1711
 4303TIP3   OH212914   3.236   1.122   3.100  0.0770  0.1178 -0.4474
 4303TIP3    H112915   3.269   1.055   3.161  1.4078 -0.1273 -1.3811
 4303TIP3    H212916   3.141   1.121   3.112  0.1474 -1.3267  0.1922
 4304TIP3   OH212917   2.756   5.495   1.127  0.2762 -0.0702  0.7275
 4304TIP3    H112918   2.745   5.562   1.059  0.1698  1.8730  2.5694
 4304TIP3    H212919   2.829   5.442   1.097  0.8070  1.2844 -0.4788
 4305TIP3   OH212920   4.886   0.069   1.445 -0.1097  0.1503 -0.0112
 4305TIP3    H112921   4.883   0.105   1.357  0.0749  0.0187 -0.0713
 4305TIP3    H212922   4.872  -0.025   1.433 -0.6489  0.2064  0.1500
 4306TIP3   OH212923   2.510   2.849   3.545 -0.1931  0.2259 -0.3783
 4306TIP3    H112924   2.432   2.836   3.599 -0.4712  0.5024 -0.7133
 4306TIP3    H212925   2.583   2.823   3.602 -0.2677  2.5435  0.8995
 4307TIP3   OH212926   0.479   5.170   4.105 -0.4039  0.0557  0.3992
 4307TIP3    H112927   0.401   5.161   4.051 -1.1783  1.2577  1.2900
 4307TIP3    H212928   0.482   5.262   4.130  1.1643 -0.0062  0.5927
 4308TIP3   OH212929   4.059   0.862   1.839  0.0702  0.3280 -0.2438
 4308TIP3    H112930   4.019   0.909   1.766 -1.2932 -0.0388  0.2286
 4308TIP3    H212931   4.074   0.929   1.905  0.2787  0.4787 -0.4423
 4309TIP3   OH212932   2.320   5.189   1.509 -0.1870 -0.3130  0.1392
 4309TIP3    H112933   2.384   5.130   1.550  1.2417  0.5343 -0.7926
 4309TIP3    H212934   2.257   5.130   1.468  1.4136 -1.2792 -1.0835
 4310TIP3   OH212935   6.199   3.726   4.711  0.2610 -0.6554 -0.4257
 4310TIP3    H112936   6.144   3.765   4.643  0.3125  0.5632  0.2123
 4310TIP3    H212937   6.259   3.669   4.663 -0.7493 -1.0731 -1.2427
 4311TIP3   OH212938   2.878   2.132   4.197 -0.4533 -0.0223  0.8106
 4311TIP3    H112939   2.863   2.089   4.112 -0.6584  0.4599  0.5971
 4311TIP3    H212940   2.923   2.213   4.174  1.1879 -0.7435  1.3187
 4312TIP3   OH212941   6.248   0.544   1.906 -0.0661  0.9159 -0.0297
 4312TIP3    H112942   6.331   0.587   1.885 -1.2780  3.0475 -0.8358
 4312TIP3    H212943   6.224   0.497   1.826 -1.0777  2.9239 -1.0092
 4313TIP3   OH212944   3.294   0.035   0.756 -0.3599  0.2376  0.3504
 4313TIP3    H112945   3.216  -0.017   0.777 -0.8797  0.3842 -1.0855
 4313TIP3    H212946   3.270   0.124   0.782 -0.4621  0.1849  0.4375
 4314TIP3   OH212947   5.267   3.970   1.359  0.6030  0.1250  0.2391
 4314TIP3    H112948   5.300   4.060   1.359 -0.8777  0.8097 -2.8309
 4314TIP3    H212949   5.267   3.944   1.451  1.1829  3.2218  1.2235
 4315TIP3   OH212950   1.133   3.022   0.719 -0.1838 -0.4344  0.1463
 4315TIP3    H112951   1.168   3.082   0.652 -1.5821 -0.2630 -0.4675
 4315TIP3    H212952   1.101   3.080   0.788 -1.3186 -0.4588 -0.3389
 4316TIP3   OH212953   5.487   1.623   3.164  0.0650 -0.2370  0.0858
 4316TIP3    H112954   5.575   1.660   3.154 -0.5965  1.5660  0.6483
 4316TIP3    H212955   5.501   1.528   3.169  1.9329 -0.0050 -0.2120
 4317TIP3   OH212956   4.918   2.591   5.078 -0.2032  0.0009 -0.4598
 4317TIP3    H112957   4.989   2.654   5.089  0.0333 -0.3981  0.3649
 4317TIP3    H212958   4.956   2.521   5.025  0.3941 -0.7689  0.9424
 4318TIP3   OH212959   3.820   5.669   2.616 -0.0422 -0.1056  0.3246
 4318TIP3    H112960   3.788   5.749   2.659  0.0987 -0.5214  1.2321
 4318TIP3    H212961   3.745   5.637   2.566 -0.7078 -0.4457  1.5076
 4319TIP3   OH212962   3.881   5.830   3.704  0.1835  0.4500  0.1282
 4319TIP3    H112963   3.825   5.902   3.675  1.0808  1.4158  0.7459
 4319TIP3    H212964   3.948   5.822   3.636 -0.2326 -0.1866 -0.2181
 4320TIP3   OH212965   5.803   5.868   1.522 -0.0102  0.0236 -0.1139
 4320TIP3    H112966   5.721   5.916   1.534  0.2265  0.4511 -0.1930
 4320TIP3    H212967   5.780   5.798   1.460  0.0718  1.1745 -1.4854
 4321TIP3   OH212968   0.333   0.417   4.987 -0.2207 -1.4476  0.1954
 4321TIP3    H112969   0.275   0.343   5.006  0.1190 -1.1450  2.9246
 4321TIP3    H212970   0.285   0.493   5.019  0.8398 -0.9443  0.6392
 4322TIP3   OH212971   0.269   1.553   4.409  0.1098 -0.4181  0.1568
 4322TIP3    H112972   0.325   1.609   4.463  0.3379 -1.4505  1.0255
 4322TIP3    H212973   0.329   1.486   4.374 -0.0751  0.1080 -1.2319
 4323TIP3   OH212974   0.617   0.631   2.946 -0.6896 -0.0202  0.0798
 4323TIP3    H112975   0.525   0.658   2.942 -0.8895 -0.7008 -0.1393
 4323TIP3    H212976   0.651   0.649   2.858 -0.6201  0.2077  0.1533
 4324TIP3   OH212977   0.010   2.999   4.242 -0.0108 -0.1948 -0.3934
 4324TIP3    H112978   0.077   2.932   4.256 -0.3860 -0.1414  2.0150
 4324TIP3    H212979   0.046   3.077   4.285 -1.5125 -0.1401  0.8331
 4325TIP3   OH212980   3.337   0.124   3.293  0.2620 -0.5144  0.7324
 4325TIP3    H112981   3.392   0.059   3.337 -1.0052 -1.5990  0.7775
 4325TIP3    H212982   3.368   0.125   3.202  0.9304 -0.4361  0.9521
 4326TIP3   OH212983   5.626   0.770   3.187  0.4410  0.2295 -0.1795
 4326TIP3    H112984   5.676   0.715   3.248 -0.2340  0.3554  0.5195
 4326TIP3    H212985   5.561   0.711   3.149  0.1335  0.3925  0.0824
 4327TIP3   OH212986   3.841   2.377   2.228  0.2757  0.2111  0.1461
 4327TIP3    H112987   3.908   2.379   2.297  1.0077  0.1661 -0.5477
 4327TIP3    H212988   3.759   2.392   2.274  0.4788 -1.9902  1.3571
 4328TIP3   OH212989   6.193   0.545   4.135  0.1969  0.1532  0.2379
 4328TIP3    H112990   6.140   0.473   4.170 -0.0063 -0.5268 -1.3735
 4328TIP3    H212991   6.274   0.503   4.106  1.8629  1.2239  2.9734
 4329TIP3   OH212992   3.105   4.860   3.753  0.2168 -0.4167 -0.4014
 4329TIP3    H112993   3.127   4.856   3.846 -0.9170 -2.1795 -0.1542
 4329TIP3    H212994   3.122   4.772   3.721  0.8028  0.2248 -1.9456
 4330TIP3   OH212995   5.720   1.906   2.058  0.3481 -0.0025 -0.0152
 4330TIP3    H112996   5.716   1.952   1.974  0.5713  0.2599  0.1155
 4330TIP3    H212997   5.772   1.828   2.040  2.3305  1.1497  0.3610
 4331TIP3   OH212998   2.395   3.870   0.860  0.6884 -0.4090 -0.1145
 4331TIP3    H112999   2.441   3.913   0.787  1.5221 -0.6387  0.2567
 4331TIP3    H213000   2.335   3.809   0.818  0.2892  0.3283 -0.6287
 4332TIP3   OH213001   4.665   5.319   2.260 -0.6830 -0.4444 -0.0335
 4332TIP3    H113002   4.739   5.378   2.249 -0.6991 -0.4990 -0.4335
 4332TIP3    H213003   4.645   5.323   2.354 -1.2538  0.8745 -0.1876
 4333TIP3   OH213004   1.328   5.138   3.043  0.5171 -0.1822  0.0225
 4333TIP3    H113005   1.243   5.140   2.999 -0.1610  2.0358  1.2667
 4333TIP3    H213006   1.391   5.157   2.974  0.5636 -4.9274 -1.6370
 4334TIP3   OH213007   5.914   1.644   1.269  0.3405  0.1724  0.6496
 4334TIP3    H113008   5.835   1.694   1.286  0.8441  0.9031  0.8535
 4334TIP3    H213009   5.917   1.636   1.173  0.5486  1.0183  0.5771
 4335TIP3   OH213010   5.192   5.808   0.879 -0.2660  0.0030  0.6588
 4335TIP3    H113011   5.108   5.853   0.870 -0.1252 -0.0431 -1.4432
 4335TIP3    H213012   5.258   5.874   0.856  0.0136 -0.8203 -1.1563
 4336TIP3   OH213013   2.302   0.890   2.421 -0.0321 -0.2055  0.0512
 4336TIP3    H113014   2.248   0.868   2.345 -1.2871  0.3397  0.7628
 4336TIP3    H213015   2.256   0.851   2.496  1.6283 -1.4870  0.4753
 4337TIP3   OH213016   4.171   4.561   0.593 -0.0202  0.1628  0.1301
 4337TIP3    H113017   4.100   4.512   0.552  1.0535 -1.0796 -0.3220
 4337TIP3    H213018   4.249   4.533   0.546  0.8631  0.9163  1.1124
 4338TIP3   OH213019   2.994   3.795   0.323 -0.2461 -0.2775  0.4374
 4338TIP3    H113020   3.078   3.839   0.311 -0.2014 -0.3790  0.3781
 4338TIP3    H213021   2.958   3.834   0.403 -0.9528  1.0407 -0.4967
 4339TIP3   OH213022   4.872   3.070   2.899  0.1771 -0.7517 -0.1392
 4339TIP3    H113023   4.885   3.010   2.972 -0.3330  0.3061  0.8377
 4339TIP3    H213024   4.955   3.117   2.892  0.7054 -1.7675 -1.1339
 4340TIP3   OH213025   5.041   4.553   3.222  0.9784 -0.2415 -0.6047
 4340TIP3    H113026   4.955   4.573   3.259  0.9552 -0.4444 -0.5481
 4340TIP3    H213027   5.100   4.615   3.263  1.1349 -1.1112  0.5386
 4341TIP3   OH213028   3.722   4.993   2.124 -0.6288  0.3266  0.3961
 4341TIP3    H113029   3.712   5.021   2.215 -0.8129  0.3322  0.3747
 4341TIP3    H213030   3.787   4.923   2.127 -1.1848 -0.1843  0.6290
 4342TIP3   OH213031   3.149   2.678   2.315 -0.4300  0.0357 -0.5938
 4342TIP3    H113032   3.058   2.651   2.321 -1.0232  1.7100 -1.3600
 4342TIP3    H213033   3.169   2.675   2.221  0.6794 -1.3730 -0.3517
 4343TIP3   OH213034   1.971   1.251   3.712 -0.5611  0.1594  0.8872
 4343TIP3    H113035   1.893   1.245   3.657  0.4761  0.2426 -0.6288
 4343TIP3    H213036   1.973   1.168   3.760 -0.3870 -0.8006 -0.7178
 4344TIP3   OH213037   2.217   4.395   0.153  0.1782 -0.1265  0.3661
 4344TIP3    H113038   2.278   4.337   0.108 -1.5652 -1.0027 -0.9845
 4344TIP3    H213039   2.150   4.337   0.190 -0.5897  0.8747  0.6118
 4345TIP3   OH213040   1.412   1.895   1.040 -0.5665 -0.1192  0.6523
 4345TIP3    H113041   1.471   1.971   1.038  0.4917 -0.9029  1.1845
 4345TIP3    H213042   1.467   1.821   1.017 -1.8691 -0.5975 -1.1781
 4346TIP3   OH213043   0.265   3.903   2.869 -0.1655 -0.5921 -0.3413
 4346TIP3    H113044   0.351   3.907   2.827 -0.0759  1.1098 -0.0590
 4346TIP3    H213045   0.281   3.860   2.953  0.2762 -0.9125 -0.5841
 4347TIP3   OH213046   1.663   0.640   0.358  0.2700  0.2386 -0.4250
 4347TIP3    H113047   1.653   0.546   0.373  1.0704  0.4030  1.3904
 4347TIP3    H213048   1.740   0.647   0.302  1.4374 -0.1314  1.0727
 4348TIP3   OH213049   3.478   2.918   0.234 -0.7658 -0.3946  0.1537
 4348TIP3    H113050   3.467   3.010   0.212 -2.0174 -0.3231  0.9929
 4348TIP3    H213051   3.502   2.917   0.326  0.3328 -0.8794 -0.1131
 4349TIP3   OH213052   5.416   0.858   1.169 -0.4142 -0.1025  0.1946
 4349TIP3    H113053   5.340   0.915   1.154  1.6973  2.8197 -0.2288
 4349TIP3    H213054   5.421   0.850   1.264 -0.5605  0.7154  0.2758
 4350TIP3   OH213055   0.031   2.750   3.102  0.2890  0.3424  0.5532
 4350TIP3    H113056  -0.035   2.815   3.126 -0.0117  0.5193 -0.6769
 4350TIP3    H213057   0.030   2.688   3.175  1.0674  2.0335  2.0862
 4351TIP3   OH213058   6.356   1.249   0.696  0.0471 -0.1064  0.4235
 4351TIP3    H113059   6.283   1.296   0.656 -0.9846 -0.3305  1.9555
 4351TIP3    H213060   6.323   1.160   0.711  1.0793 -0.5812 -0.0424
 4352TIP3   OH213061   2.090   3.091   0.592 -0.1951 -0.3336  0.2933
 4352TIP3    H113062   2.161   3.111   0.652  0.3643  1.6209 -0.8936
 4352TIP3    H213063   2.132   3.046   0.519  0.1092  1.7101 -0.8818
 4353TIP3   OH213064   5.113   5.153   5.053  0.3640 -0.2426  0.0362
 4353TIP3    H113065   5.189   5.133   4.998  0.4914 -0.8050  0.4069
 4353TIP3    H213066   5.142   5.223   5.111  0.6523 -0.5747  0.2911
 4354TIP3   OH213067   4.250   1.914   0.504  0.1164  0.2794  0.1305
 4354TIP3    H113068   4.162   1.929   0.470 -0.3658  0.2019  1.2918
 4354TIP3    H213069   4.246   1.946   0.595  0.9846 -0.6726  0.5180
 4355TIP3   OH213070   0.080   0.343   0.637  0.6373  0.0320  0.0690
 4355TIP3    H113071  -0.014   0.340   0.655 -0.1013  2.1190 -2.6972
 4355TIP3    H213072   0.108   0.427   0.673  1.4138 -0.4585  0.6335
 4356TIP3   OH213073   1.417   5.489   1.681  0.3951  0.0844 -0.0699
 4356TIP3    H113074   1.431   5.539   1.600  0.2694  0.7405  0.3096
 4356TIP3    H213075   1.326   5.459   1.674  0.2163  0.5869  0.0696
 4357TIP3   OH213076   6.189   5.212   4.641 -0.0111 -0.1120 -0.1211
 4357TIP3    H113077   6.174   5.122   4.672  0.8556 -0.2433 -0.0540
 4357TIP3    H213078   6.236   5.254   4.712 -2.4595  1.1358  0.8587
 4358TIP3   OH213079   0.427   0.981   0.824  0.0591 -0.0952  0.0640
 4358TIP3    H113080   0.491   1.027   0.878 -0.0239 -0.4757  0.4966
 4358TIP3    H213081   0.372   1.050   0.788  2.1924  0.5288 -2.3722
 4359TIP3   OH213082   2.998   0.343   3.926 -0.4285  0.7427 -0.3165
 4359TIP3    H113083   3.048   0.350   4.007 -0.2931 -2.1168 -0.0599
 4359TIP3    H213084   3.064   0.343   3.857  0.1216 -2.7821  0.0090
 4360TIP3   OH213085   3.682   0.071   1.698 -0.3986 -0.4190  0.4384
 4360TIP3    H113086   3.669   0.134   1.627  0.9788 -1.1674 -0.5128
 4360TIP3    H213087   3.769   0.034   1.683 -0.0570 -0.6221  2.5103
 4361TIP3   OH213088   3.497   3.895   1.824  0.0911 -0.1212  0.0952
 4361TIP3    H113089   3.445   3.861   1.751 -2.7648  1.1912  1.3615
 4361TIP3    H213090   3.487   3.990   1.818 -0.5269  0.0088  2.3480
 4362TIP3   OH213091   3.782   2.979   2.809  0.1779  0.2927  0.1312
 4362TIP3    H113092   3.688   2.980   2.822 -0.2490 -1.4597 -2.0911
 4362TIP3    H213093   3.797   3.039   2.735  0.3209 -1.6574 -1.5146
 4363TIP3   OH213094   2.902   2.126   0.608  0.6136 -0.0655  0.2330
 4363TIP3    H113095   2.963   2.087   0.670  0.6817 -0.7012 -0.2207
 4363TIP3    H213096   2.865   2.051   0.561  0.5025  0.3975 -0.4307
 4364TIP3   OH213097   1.858   2.921   1.388 -0.0692 -0.5817 -0.0957
 4364TIP3    H113098   1.887   2.889   1.473 -0.6148  0.9251  0.6987
 4364TIP3    H213099   1.770   2.956   1.404 -0.1923 -0.2988 -1.2815
 4365TIP3   OH213100   0.710   1.959   0.677  0.4857 -0.2647  0.5498
 4365TIP3    H113101   0.641   1.898   0.653  1.1144 -0.2152 -1.6234
 4365TIP3    H213102   0.760   1.971   0.596  1.3952  1.8028  1.3528
 4366TIP3   OH213103   2.721   4.165   4.903 -0.4612 -0.5054 -0.7256
 4366TIP3    H113104   2.657   4.103   4.939 -0.5289  0.7833  1.6205
 4366TIP3    H213105   2.672   4.247   4.894  0.5205  0.1612 -0.1588
 4367TIP3   OH213106   1.692   3.926   0.716  0.0275 -0.0141 -0.1357
 4367TIP3    H113107   1.657   3.841   0.690  1.6370  0.5754 -5.4875
 4367TIP3    H213108   1.618   3.986   0.706  0.2800 -0.0195 -2.6914
 4368TIP3   OH213109   1.961   0.044   2.958  0.1127 -0.4506 -0.3850
 4368TIP3    H113110   1.998   0.019   2.874  0.1308  0.1165 -0.5504
 4368TIP3    H213111   1.965  -0.036   3.011 -0.3265 -0.9426 -1.0679
 4369TIP3   OH213112   6.118   0.645   5.138  0.0941  0.1356  0.0070
 4369TIP3    H113113   6.155   0.653   5.050 -1.0375 -1.0459 -0.6028
 4369TIP3    H213114   6.194   0.646   5.196  1.0165 -1.1616 -1.1259
 4370TIP3   OH213115   5.002   3.323   2.904 -0.2304 -0.1136 -0.2064
 4370TIP3    H113116   5.021   3.414   2.880 -1.2233 -0.1708 -1.2524
 4370TIP3    H213117   5.063   3.305   2.976  0.8449  0.9735 -0.8024
 4371TIP3   OH213118   4.936   1.398   3.104 -0.2918  0.7048 -0.0827
 4371TIP3    H113119   4.995   1.473   3.119 -0.2516  0.6317  0.1337
 4371TIP3    H213120   4.955   1.339   3.177 -1.3592  1.1363  0.5637
 4372TIP3   OH213121   4.814   3.473   3.779 -0.1148 -0.4254 -0.1802
 4372TIP3    H113122   4.777   3.385   3.778  0.3218 -0.6340  0.8502
 4372TIP3    H213123   4.750   3.526   3.828  0.1462 -0.4172  0.1548
 4373TIP3   OH213124   5.761   5.657   3.172 -0.1852  0.4145  0.5596
 4373TIP3    H113125   5.770   5.574   3.219  0.1745  0.5576  0.7509
 4373TIP3    H213126   5.667   5.667   3.158 -0.5990  1.5316  3.4060
 4374TIP3   OH213127   3.135   3.501   1.319 -0.4113  0.2651  0.2195
 4374TIP3    H113128   3.135   3.597   1.326  1.4943  0.2633  0.8727
 4374TIP3    H213129   3.104   3.471   1.404 -2.7865  0.2574 -0.5849
 4375TIP3   OH213130   1.451   5.850   5.083 -0.0379 -0.3858 -0.3251
 4375TIP3    H113131   1.449   5.859   4.988  1.0442  2.0024 -0.1713
 4375TIP3    H213132   1.493   5.765   5.098 -1.1471 -1.2868 -1.9287
 4376TIP3   OH213133   6.158   5.459   0.524  0.4665  0.7833 -0.2490
 4376TIP3    H113134   6.235   5.509   0.496 -0.2619  2.0680 -0.0210
 4376TIP3    H213135   6.084   5.507   0.490 -0.3000  0.2987  0.6693
 4377TIP3   OH213136   0.574   4.744   2.180 -0.5744  0.0961 -0.0225
 4377TIP3    H113137   0.482   4.770   2.189 -0.1656  1.3999  0.5732
 4377TIP3    H213138   0.600   4.719   2.269  0.0714  1.2527  0.1333
 4378TIP3   OH213139   0.097   2.228   1.758 -0.2692 -0.0465 -0.4228
 4378TIP3    H113140   0.080   2.160   1.823  0.2940 -0.0128 -0.2371
 4378TIP3    H213141   0.087   2.310   1.806 -0.4956 -0.0030 -0.5395
 4379TIP3   OH213142   5.779   0.133   2.805 -0.8050  0.2262 -0.1584
 4379TIP3    H113143   5.803   0.112   2.895  0.3354  1.0369 -0.2428
 4379TIP3    H213144   5.691   0.170   2.812 -1.2531 -0.9151  0.4472
 4380TIP3   OH213145   0.753   1.409   2.270  0.3970 -0.3284  0.2476
 4380TIP3    H113146   0.819   1.366   2.325 -0.2686  0.8949  2.0622
 4380TIP3    H213147   0.674   1.411   2.324 -0.0811  1.5727 -0.4679
 4381TIP3   OH213148   3.559   3.518   3.446 -0.0300  0.5550 -0.2806
 4381TIP3    H113149   3.542   3.492   3.356 -0.6794  2.9019 -0.9218
 4381TIP3    H213150   3.643   3.564   3.442 -0.0250  0.6106  0.3196
 4382TIP3   OH213151   4.077   4.528   3.207 -0.4253  0.5876  0.3572
 4382TIP3    H113152   4.024   4.564   3.136 -0.9425 -0.7444  0.0180
 4382TIP3    H213153   4.149   4.483   3.163  0.2546  1.2580  0.7660
 4383TIP3   OH213154   0.025   5.209   0.203 -0.7790  0.5100  0.1877
 4383TIP3    H113155   0.068   5.156   0.270  0.7524 -0.1522 -1.2451
 4383TIP3    H213156   0.093   5.269   0.172 -0.6639 -0.8802 -2.4796
 4384TIP3   OH213157   0.532   1.864   1.483 -0.4529  0.1328 -0.1596
 4384TIP3    H113158   0.487   1.948   1.484 -0.4948  0.1034  0.6163
 4384TIP3    H213159   0.620   1.883   1.517 -0.3313 -0.0674 -0.3561
 4385TIP3   OH213160   1.580   0.720   1.763  0.4540  0.0523 -0.4970
 4385TIP3    H113161   1.635   0.645   1.738 -0.3652 -0.5802 -0.4359
 4385TIP3    H213162   1.517   0.728   1.692  0.7859  0.9574 -0.7045
 4386TIP3   OH213163   4.450   5.023   4.065  0.4980 -0.0145 -0.0735
 4386TIP3    H113164   4.433   4.937   4.026  0.2590  0.2013 -0.4437
 4386TIP3    H213165   4.491   5.002   4.149  1.9687 -0.4610 -0.8572
 4387TIP3   OH213166   3.158   0.724   0.577  0.4236  0.1616 -0.2225
 4387TIP3    H113167   3.114   0.728   0.661 -0.1281 -1.4476 -0.3822
 4387TIP3    H213168   3.233   0.783   0.585 -0.3232  0.9843  0.9437
 4388TIP3   OH213169   4.904   0.724   0.678  0.2114  0.1692 -0.3502
 4388TIP3    H113170   4.993   0.726   0.643  0.7133  0.3878  0.8602
 4388TIP3    H213171   4.863   0.804   0.647  0.3908  0.0012 -1.0289
 4389TIP3   OH213172   0.470   4.070   0.164 -0.3141 -0.0114 -0.1456
 4389TIP3    H113173   0.500   4.160   0.151  0.3149  0.1043  1.7520
 4389TIP3    H213174   0.495   4.050   0.255 -1.0320 -1.8709 -0.3253
 4390TIP3   OH213175   1.565   5.359   3.457  0.0048 -0.2402 -0.3211
 4390TIP3    H113176   1.512   5.433   3.427 -0.0612  0.2539  0.9359
 4390TIP3    H213177   1.653   5.395   3.470  0.6915 -1.0377 -2.3182
 4391TIP3   OH213178   4.787   2.150   1.143  0.1994 -0.0361  0.1328
 4391TIP3    H113179   4.839   2.073   1.166 -0.6434 -0.5957  0.2166
 4391TIP3    H213180   4.780   2.199   1.225 -0.1044 -0.3837  0.3152
 4392TIP3   OH213181   1.152   1.418   3.857  0.2508 -1.0483  0.0061
 4392TIP3    H113182   1.058   1.421   3.842  0.3263 -0.1968 -0.3485
 4392TIP3    H213183   1.166   1.335   3.904 -0.9721 -0.1379  2.1412
 4393TIP3   OH213184   5.439   5.930   3.480  0.0363 -0.2823 -0.0486
 4393TIP3    H113185   5.500   5.944   3.408 -1.5275 -0.3969 -1.4666
 4393TIP3    H213186   5.470   5.989   3.549  1.7119 -0.3303 -0.7091
 4394TIP3   OH213187   5.003   1.989   2.805 -0.2008 -0.1912  0.1054
 4394TIP3    H113188   5.098   1.991   2.807 -0.1297 -0.2319 -1.5264
 4394TIP3    H213189   4.982   1.902   2.771 -0.7899  0.0088 -0.0558
 4395TIP3   OH213190   0.246   3.343   1.042  0.1455 -0.0703 -0.6680
 4395TIP3    H113191   0.222   3.404   1.112  2.0526 -0.5779  0.5297
 4395TIP3    H213192   0.338   3.365   1.023  0.7691 -2.2805 -0.4539
 4396TIP3   OH213193   0.853   4.097   1.211  0.6381 -0.3422 -0.5856
 4396TIP3    H113194   0.815   4.036   1.147  0.5709 -0.6541 -0.2506
 4396TIP3    H213195   0.822   4.066   1.295  0.6534  0.1269 -0.4054
 4397TIP3   OH213196   1.006   3.391   3.807 -0.5429 -0.5202 -0.1541
 4397TIP3    H113197   1.018   3.471   3.858 -0.3474 -0.4176 -0.3586
 4397TIP3    H213198   0.923   3.404   3.761 -0.1764 -0.1405 -0.7190
 4398TIP3   OH213199   1.724   3.424   0.169  0.0446  0.0438 -0.9764
 4398TIP3    H113200   1.806   3.464   0.142 -0.4684  0.9263 -1.2543
 4398TIP3    H213201   1.749   3.358   0.234  0.7902  1.8769  0.7023
 4399TIP3   OH213202   3.512   0.842   3.881  0.3054 -0.4649  0.0189
 4399TIP3    H113203   3.579   0.908   3.867  0.3439 -0.4550  0.2584
 4399TIP3    H213204   3.453   0.879   3.947 -1.1056  0.3999 -1.6156
 4400TIP3   OH213205   5.670   5.000   1.235  0.3211  0.5623 -0.6148
 4400TIP3    H113206   5.594   5.056   1.251 -0.5462 -0.9068  0.7598
 4400TIP3    H213207   5.719   5.002   1.317  1.5978  1.1894 -1.3670
 4401TIP3   OH213208   0.593   5.441   1.716  0.3004 -0.3456 -0.0555
 4401TIP3    H113209   0.526   5.378   1.688 -0.6444 -0.1482  1.6261
 4401TIP3    H213210   0.584   5.444   1.812  3.4552 -1.1396  0.3882
 4402TIP3   OH213211   0.089   3.160   2.584  0.3112  0.1779 -0.2852
 4402TIP3    H113212   0.017   3.131   2.529 -1.0348 -1.1168  1.9926
 4402TIP3    H213213   0.154   3.194   2.523 -1.1500 -0.9430 -2.6074
 4403TIP3   OH213214   5.581   5.335   3.977 -0.3567 -0.0060 -0.3757
 4403TIP3    H113215   5.494   5.372   3.964 -0.5713 -0.2452  0.3561
 4403TIP3    H213216   5.584   5.310   4.069  0.0849 -1.0142 -0.6395
 4404TIP3   OH213217   3.837   4.835   0.375 -0.8553  0.1538 -0.3396
 4404TIP3    H113218   3.875   4.805   0.457 -0.6604  0.8636 -0.1628
 4404TIP3    H213219   3.766   4.773   0.357 -2.0026  0.9379  1.2431
 4405TIP3   OH213220   4.247   5.271   4.350 -0.2780 -0.2266 -0.5467
 4405TIP3    H113221   4.203   5.230   4.276 -0.2835  0.5010 -0.9542
 4405TIP3    H213222   4.284   5.198   4.399  0.1109 -0.6938 -1.5076
 4406TIP3   OH213223   1.629   2.815   4.280 -0.6318 -0.1051 -0.6646
 4406TIP3    H113224   1.718   2.778   4.276 -0.3326  0.6606 -1.9267
 4406TIP3    H213225   1.585   2.765   4.348 -0.2358 -2.7698 -2.2428
 4407TIP3   OH213226   1.558   2.966   3.177  0.3158  0.1452 -0.2401
 4407TIP3    H113227   1.548   3.060   3.186 -0.2515  0.2067 -1.3812
 4407TIP3    H213228   1.478   2.929   3.216  1.0312  0.0573  1.2166
 4408TIP3   OH213229   2.631   1.316   2.845 -0.4685 -0.8416  0.1845
 4408TIP3    H113230   2.722   1.289   2.857 -0.5579 -2.5404 -2.2355
 4408TIP3    H213231   2.629   1.407   2.873  1.0550 -1.7307  3.9143
 4409TIP3   OH213232   2.182   5.084   4.940  0.7568  0.4933  0.2575
 4409TIP3    H113233   2.186   5.146   5.013  0.1176  2.4660 -1.3284
 4409TIP3    H213234   2.103   5.031   4.958  0.3337  1.2804  0.7533
 4410TIP3   OH213235   4.760   5.895   0.103 -0.0785  0.1915 -0.4677
 4410TIP3    H113236   4.745   5.987   0.122  1.5443  0.2766  0.5502
 4410TIP3    H213237   4.852   5.880   0.126 -0.6955 -2.0349  0.8657
 4411TIP3   OH213238   4.966   2.431   1.772  0.1030  0.1815  0.0077
 4411TIP3    H113239   4.940   2.367   1.838 -0.3159 -0.2161 -0.5354
 4411TIP3    H213240   5.024   2.491   1.819 -0.6293  0.2427  0.8869
 4412TIP3   OH213241   1.982   1.302   4.799 -0.0663 -0.2190  0.6269
 4412TIP3    H113242   1.921   1.368   4.832  1.0369  1.3700 -0.3955
 4412TIP3    H213243   2.025   1.269   4.878 -0.0648  0.8652  1.1097
 4413TIP3   OH213244   4.405   1.489   3.706  0.3137  1.1647 -0.7869
 4413TIP3    H113245   4.446   1.538   3.777 -0.9513  3.2865 -1.3993
 4413TIP3    H213246   4.463   1.502   3.631  1.2332 -0.3956 -0.3796
 4414TIP3   OH213247   1.819   2.769   4.718  0.3591  0.1987 -0.1229
 4414TIP3    H113248   1.739   2.760   4.770 -0.9878  1.4600 -1.8544
 4414TIP3    H213249   1.812   2.856   4.679  1.6863 -0.3842 -1.7552
 4415TIP3   OH213250   1.442   0.692   0.514  0.0176  0.2344  0.4861
 4415TIP3    H113251   1.439   0.785   0.533 -0.2463  0.2339  0.4502
 4415TIP3    H213252   1.511   0.683   0.448  1.5893  0.1247  2.0772
 4416TIP3   OH213253   5.748   0.923   0.238 -0.1995 -0.4859 -0.1758
 4416TIP3    H113254   5.751   1.013   0.271  0.6931 -0.3934 -0.4934
 4416TIP3    H213255   5.806   0.923   0.162 -0.7749 -1.1554 -0.6285
 4417TIP3   OH213256   0.156   4.966   2.170  0.8382  0.1634 -0.3046
 4417TIP3    H113257   0.186   5.057   2.174  2.7735 -0.4702  1.4061
 4417TIP3    H213258   0.142   4.942   2.262 -0.3932 -1.0398 -0.7885
 4418TIP3   OH213259   1.044   1.920   1.442  0.0848  0.5968  0.2228
 4418TIP3    H113260   0.956   1.959   1.444 -0.2371 -0.0633 -0.3107
 4418TIP3    H213261   1.087   1.963   1.367 -0.8509 -1.1953 -1.4400
 4419TIP3   OH213262   4.325   0.540   4.013  0.1019 -0.6251  0.0522
 4419TIP3    H113263   4.414   0.533   4.046 -0.0939 -0.1834  0.6800
 4419TIP3    H213264   4.324   0.621   3.963 -0.0115 -0.5094  0.2423
 4420TIP3   OH213265   4.126   3.857   3.947 -0.1882  0.2284  0.1137
 4420TIP3    H113266   4.151   3.787   4.007 -1.1044 -0.0275  0.2152
 4420TIP3    H213267   4.190   3.926   3.963  1.9571 -1.2904 -1.3848
 4421TIP3   OH213268   0.270   1.538   2.671 -0.0250  0.1337  0.7815
 4421TIP3    H113269   0.329   1.499   2.606 -0.4389  1.4406 -0.4112
 4421TIP3    H213270   0.242   1.464   2.724 -0.1278 -1.0816 -0.8876
 4422TIP3   OH213271   4.084   3.367   1.236 -0.1225 -0.2700 -0.0821
 4422TIP3    H113272   4.091   3.448   1.286 -0.5187 -0.2022 -0.1353
 4422TIP3    H213273   4.033   3.308   1.293 -1.5567  0.1787 -0.8627
 4423TIP3   OH213274   1.887   0.953   1.027 -0.9752 -0.2129  0.1348
 4423TIP3    H113275   1.866   0.950   0.934 -2.8143  0.0608  0.4937
 4423TIP3    H213276   1.820   1.010   1.065  0.0290  0.0959  1.5641
 4424TIP3   OH213277   0.784   5.304   0.395  0.2374 -0.0422  0.0740
 4424TIP3    H113278   0.868   5.306   0.349  0.9762 -1.3135  1.2932
 4424TIP3    H213279   0.803   5.261   0.478 -1.7076 -0.7065  0.2241
 4425TIP3   OH213280   5.017   1.238   1.774  0.1181 -0.7141 -0.5689
 4425TIP3    H113281   5.077   1.289   1.719  0.6342 -0.9717 -0.2511
 4425TIP3    H213282   4.977   1.175   1.714  0.1005 -0.4803 -0.8015
 4426TIP3   OH213283   4.912   3.072   3.722  0.2386  0.3348  0.0768
 4426TIP3    H113284   4.902   2.978   3.709  0.9630 -0.0373  1.8693
 4426TIP3    H213285   4.826   3.109   3.700 -0.1683 -0.7842 -0.2710
 4427TIP3   OH213286   5.674   2.598   2.515  0.6658 -0.2227 -0.2160
 4427TIP3    H113287   5.681   2.694   2.515  1.4680 -0.2165 -2.5462
 4427TIP3    H213288   5.760   2.568   2.547  1.1456 -0.1265 -1.3570
 4428TIP3   OH213289   2.357   0.241   0.099  0.3660 -0.4893  0.0078
 4428TIP3    H113290   2.325   0.164   0.146 -1.1815  0.3326  0.3503
 4428TIP3    H213291   2.332   0.225   0.008 -0.8660  0.0525  0.2403
 4429TIP3   OH213292   2.667   4.237   0.393  1.1151 -0.2199 -0.0643
 4429TIP3    H113293   2.741   4.268   0.446  0.4819 -1.6535  1.8042
 4429TIP3    H213294   2.607   4.311   0.391  2.8977  1.2949 -2.3891
 4430TIP3   OH213295   1.264   1.192   3.974  0.6380  0.2913  0.1648
 4430TIP3    H113296   1.268   1.098   3.957  1.2034  0.0104  1.6337
 4430TIP3    H213297   1.182   1.204   4.022  0.0401  0.7321 -0.9433
 4431TIP3   OH213298   6.322   0.260   1.312 -0.3769 -0.2255 -0.5563
 4431TIP3    H113299   6.296   0.289   1.224 -2.0079  2.1239  0.5988
 4431TIP3    H213300   6.372   0.334   1.347  1.7380 -1.8133 -0.0521
 4432TIP3   OH213301   4.009   0.398   2.140 -0.5923 -0.0208  0.3056
 4432TIP3    H113302   3.945   0.327   2.129 -0.5906  0.0488 -0.1459
 4432TIP3    H213303   3.996   0.455   2.065 -0.8657  0.6806  0.8792
 4433TIP3   OH213304   5.516   1.860   1.754 -0.3730  0.7444 -0.1114
 4433TIP3    H113305   5.588   1.919   1.777  0.8049  0.6228 -3.1081
 4433TIP3    H213306   5.531   1.783   1.809 -0.1828  1.9815  1.6641
 4434TIP3   OH213307   5.421   3.461   3.089 -0.0406  0.0470 -0.0799
 4434TIP3    H113308   5.466   3.427   3.012 -0.7844 -1.9123  0.2860
 4434TIP3    H213309   5.491   3.486   3.149  0.5469 -0.2492 -0.6382
 4435TIP3   OH213310   6.160   4.110   1.961 -0.5966 -0.2534  0.2625
 4435TIP3    H113311   6.084   4.145   1.914 -0.2280 -0.2879 -0.3756
 4435TIP3    H213312   6.205   4.056   1.896  1.9386  2.5166 -0.5147
 4436TIP3   OH213313   3.513   0.022   0.965 -0.2381 -0.0469  0.0120
 4436TIP3    H113314   3.441   0.041   0.905 -0.1777 -0.8426 -0.3239
 4436TIP3    H213315   3.474  -0.035   1.031 -0.1651  0.3680  0.4169
 4437TIP3   OH213316   1.524   0.649   4.556 -0.0296  0.4464  0.0444
 4437TIP3    H113317   1.479   0.647   4.471 -0.0981  0.9839  0.0646
 4437TIP3    H213318   1.542   0.742   4.571  2.4540  0.1509 -0.6864
 4438TIP3   OH213319   2.889   2.580   3.865  0.2545  0.0620  0.0354
 4438TIP3    H113320   2.904   2.593   3.772 -0.0883 -0.2478 -0.0658
 4438TIP3    H213321   2.812   2.634   3.885  0.6246  0.5144  0.2442
 4439TIP3   OH213322   5.983   2.797   2.066  0.0930 -0.3134  0.1772
 4439TIP3    H113323   5.908   2.856   2.080  1.2524  1.9592 -2.3412
 4439TIP3    H213324   6.037   2.842   2.001  2.1975 -3.2336 -0.2739
 4440TIP3   OH213325   5.502   3.126   4.337 -0.4554  0.3001 -0.1113
 4440TIP3    H113326   5.535   3.192   4.399  1.2035  0.0295 -0.6536
 4440TIP3    H213327   5.564   3.128   4.265 -1.1281 -0.9422 -0.7524
 4441TIP3   OH213328   4.673   1.422   3.977  0.0425 -0.3839  0.2589
 4441TIP3    H113329   4.605   1.396   4.040  1.8530  0.4337  2.7073
 4441TIP3    H213330   4.657   1.515   3.961  0.7111 -0.1213  1.0605
 4442TIP3   OH213331   3.163   2.866   3.011 -0.0740  0.2949  0.0082
 4442TIP3    H113332   3.225   2.832   2.947  0.9498  1.4278  0.3645
 4442TIP3    H213333   3.105   2.792   3.030  1.3334 -0.8856 -0.1323
 4443TIP3   OH213334   1.894   0.744   3.676 -0.6474  0.5540  0.4364
 4443TIP3    H113335   1.898   0.808   3.747  1.3871  0.6064  0.3468
 4443TIP3    H213336   1.865   0.795   3.600  0.4533  1.3117  0.4858
 4444TIP3   OH213337   0.480   0.950   2.486  0.3633 -0.4092  0.0812
 4444TIP3    H113338   0.479   0.857   2.506 -0.8828 -0.3790  0.2302
 4444TIP3    H213339   0.573   0.973   2.485  0.7564 -1.8849 -1.1022
 4445TIP3   OH213340   1.859   0.363   1.144  0.4056 -0.0892  0.7107
 4445TIP3    H113341   1.901   0.325   1.067 -0.7862 -2.7780  1.2636
 4445TIP3    H213342   1.771   0.324   1.144 -1.4529  3.6526  0.7435
 4446TIP3   OH213343   2.675   2.001   1.393 -0.8372 -0.0833  0.2862
 4446TIP3    H113344   2.756   2.052   1.398  0.3756 -1.6398 -1.7973
 4446TIP3    H213345   2.671   1.952   1.475 -0.2988  0.8608  0.8904
 4447TIP3   OH213346   4.391   4.286   3.365 -0.4285 -0.6622 -0.1827
 4447TIP3    H113347   4.318   4.325   3.318 -0.7881 -0.7004  0.3467
 4447TIP3    H213348   4.467   4.303   3.309 -0.3898  1.6396  0.4803
 4448TIP3   OH213349   0.033   3.574   4.236 -0.1283  0.0190 -0.4000
 4448TIP3    H113350   0.040   3.479   4.222 -0.6965 -0.0554 -0.1844
 4448TIP3    H213351   0.051   3.585   4.329  0.2643  0.1642 -0.4890
 4449TIP3   OH213352   0.738   4.304   0.917 -0.2541 -0.2548 -0.1197
 4449TIP3    H113353   0.825   4.326   0.884 -0.9434  1.2082 -1.0640
 4449TIP3    H213354   0.719   4.373   0.981 -0.3677 -1.0763  0.7537
 4450TIP3   OH213355   4.818   2.653   4.080  0.2899  0.3403 -0.2313
 4450TIP3    H113356   4.870   2.574   4.068  2.8614  1.9214 -0.3661
 4450TIP3    H213357   4.833   2.679   4.171 -1.2943  0.2061  0.0992
 4451TIP3   OH213358   5.679   3.186   1.047  0.1602  0.2157  1.0259
 4451TIP3    H113359   5.652   3.270   1.012  0.0587  0.1981  1.0613
 4451TIP3    H213360   5.652   3.122   0.981 -0.7760  0.0959  1.4938
 4452TIP3   OH213361   2.394   2.902   0.908  0.0989  0.0599 -0.2214
 4452TIP3    H113362   2.366   2.819   0.947 -0.2981 -0.0606 -0.7562
 4452TIP3    H213363   2.338   2.968   0.950  2.2830  0.4675  2.3255
 4453TIP3   OH213364   5.570   5.379   2.104 -0.5058  0.6092 -0.8333
 4453TIP3    H113365   5.622   5.341   2.175 -1.9751  1.3611  0.7096
 4453TIP3    H213366   5.536   5.303   2.057  0.1371  0.0889 -0.4769
 4454TIP3   OH213367   0.029   5.379   4.809 -0.2544 -0.1403 -0.0145
 4454TIP3    H113368   0.106   5.327   4.785 -0.2839  0.0088 -0.4524
 4454TIP3    H213369   0.059   5.470   4.799 -0.4503 -0.0822 -0.0618
 4455TIP3   OH213370   3.804   1.885   2.363 -0.5513 -0.8172 -0.4568
 4455TIP3    H113371   3.795   1.952   2.294  0.2521 -0.2248 -0.0152
 4455TIP3    H213372   3.736   1.907   2.426 -0.7797 -0.8828 -0.6759
 4456TIP3   OH213373   5.346   3.594   3.676  0.1693  0.0036 -0.8551
 4456TIP3    H113374   5.252   3.600   3.693  0.5639  3.6780  0.8815
 4456TIP3    H213375   5.360   3.650   3.601  1.1210  0.5338 -0.2921
 4457TIP3   OH213376   6.121   4.950   4.689 -0.0790  0.3954  0.2414
 4457TIP3    H113377   6.170   4.922   4.612 -0.3126  3.1190 -1.0032
 4457TIP3    H213378   6.032   4.918   4.673  0.4749 -1.6417  0.9032
 4458TIP3   OH213379   0.827   4.900   3.946 -0.0783  0.0240  0.3158
 4458TIP3    H113380   0.915   4.890   3.910  0.1527  1.3279  0.4494
 4458TIP3    H213381   0.837   4.968   4.013 -1.3757  0.9520 -0.3810
 4459TIP3   OH213382   0.842   2.986   1.449 -0.4518 -0.3055 -0.2153
 4459TIP3    H113383   0.935   2.992   1.468 -0.7431  1.7153  0.8999
 4459TIP3    H213384   0.835   3.014   1.358  0.0356 -0.4641 -0.3044
 4460TIP3   OH213385   5.312   1.705   2.240  0.4380  0.1863 -0.5650
 4460TIP3    H113386   5.360   1.658   2.171 -0.6544 -1.3502 -0.3419
 4460TIP3    H213387   5.240   1.747   2.193  1.5535  1.9039 -0.7991
 4461TIP3   OH213388   3.379   3.895   0.795  0.5598  0.0043 -0.2449
 4461TIP3    H113389   3.354   3.834   0.864 -0.2022  2.4961  1.8692
 4461TIP3    H213390   3.463   3.931   0.824 -0.6090  2.3894  0.4410
 4462TIP3   OH213391   2.310   4.872   4.794 -0.8104 -0.1181 -0.2633
 4462TIP3    H113392   2.277   4.958   4.768 -1.8499  0.0480  1.3985
 4462TIP3    H213393   2.352   4.888   4.879 -0.2901 -1.0989 -0.3274
 4463TIP3   OH213394   2.636   4.244   1.846  0.2066  0.2403  0.4090
 4463TIP3    H113395   2.675   4.160   1.867  1.9959  1.1076  0.7257
 4463TIP3    H213396   2.557   4.248   1.900  1.5486 -0.1040  2.4956
 4464TIP3   OH213397   1.706   0.489   4.670  0.0050  0.0752  0.1332
 4464TIP3    H113398   1.724   0.453   4.583 -0.9487 -0.6448  0.2184
 4464TIP3    H213399   1.629   0.545   4.656  0.9037  1.3570  0.1845
 4465TIP3   OH213400   1.593   5.608   5.158  0.3156 -0.0082  0.4257
 4465TIP3    H113401   1.606   5.523   5.115  0.1158  0.0417  0.2658
 4465TIP3    H213402   1.682   5.640   5.175  0.4153  0.3005 -0.6095
 4466TIP3   OH213403   5.126   4.523   1.578 -0.1322 -0.3456 -0.0855
 4466TIP3    H113404   5.181   4.578   1.634 -1.2082  0.1250  0.5368
 4466TIP3    H213405   5.081   4.585   1.520 -0.7304 -0.6379  0.0634
 4467TIP3   OH213406   6.048   1.259   3.680 -0.0053  0.3934  0.2930
 4467TIP3    H113407   6.093   1.302   3.752  0.1558  1.6170 -0.5142
 4467TIP3    H213408   6.076   1.167   3.685  1.5889  0.8689  0.5736
 4468TIP3   OH213409   2.037   3.952   2.080 -0.2908 -0.1900  0.0775
 4468TIP3    H113410   1.951   3.911   2.070 -0.8381  0.5716  1.3545
 4468TIP3    H213411   2.098   3.894   2.035 -1.2837 -1.4550  0.3338
 4469TIP3   OH213412   4.507   5.729   3.666  0.0026  0.0504 -0.0615
 4469TIP3    H113413   4.540   5.760   3.751  1.1237  1.6571 -1.0334
 4469TIP3    H213414   4.553   5.646   3.652  2.5869  1.4714 -0.6527
 4470TIP3   OH213415   5.221   3.033   0.617 -0.0417 -0.2073 -0.9290
 4470TIP3    H113416   5.222   2.984   0.700 -1.6057  0.8022 -0.2614
 4470TIP3    H213417   5.201   2.966   0.551 -2.6613 -0.5070  0.0313
 4471TIP3   OH213418   6.254   0.984   0.737 -0.4409  0.6476  0.3875
 4471TIP3    H113419   6.186   0.924   0.768 -0.8651  1.2551  0.6513
 4471TIP3    H213420   6.336   0.944   0.766 -0.8061  1.0343  2.0479
 4472TIP3   OH213421   0.529   0.745   1.407 -0.4194 -0.1446  0.2917
 4472TIP3    H113422   0.461   0.806   1.380  2.0615  2.0985 -1.4287
 4472TIP3    H213423   0.584   0.734   1.330  0.7417 -2.5289  1.3365
 4473TIP3   OH213424   0.624   0.768   1.144 -0.2287 -0.4270  0.0091
 4473TIP3    H113425   0.675   0.811   1.075 -0.8387  0.9999  0.4133
 4473TIP3    H213426   0.547   0.734   1.099 -0.2177 -0.2412 -0.1523
 4474TIP3   OH213427   0.800   0.747   4.138  0.0601  0.2008  0.7505
 4474TIP3    H113428   0.723   0.776   4.089 -1.5620 -2.3416  1.5330
 4474TIP3    H213429   0.847   0.827   4.161 -0.3029  1.6413 -2.9072
 4475TIP3   OH213430   3.371   4.947   4.398  0.0751  0.3515 -0.1831
 4475TIP3    H113431   3.284   4.971   4.430 -0.6195 -1.0803 -0.9337
 4475TIP3    H213432   3.412   4.903   4.473 -0.7615 -1.0984 -0.5312
 4476TIP3   OH213433   5.081   2.384   2.597  0.0652  0.0030  0.3770
 4476TIP3    H113434   5.152   2.340   2.642  1.0733  2.8693  1.8148
 4476TIP3    H213435   5.009   2.321   2.598  0.9268 -1.1024  3.5754
 4477TIP3   OH213436   5.922   5.301   4.272 -0.2137 -0.3769  0.3870
 4477TIP3    H113437   5.897   5.394   4.281  0.1481 -0.1479 -0.7671
 4477TIP3    H213438   5.951   5.275   4.359 -2.6675 -0.1200  1.3596
 4478TIP3   OH213439   4.310   3.037   2.569 -0.4650  0.7692  0.3278
 4478TIP3    H113440   4.290   2.985   2.491 -0.3291  0.5177  0.4595
 4478TIP3    H213441   4.308   2.974   2.641 -0.4214  0.9691  0.5068
 4479TIP3   OH213442   5.281   1.371   2.892 -0.0348 -0.4846  0.2802
 4479TIP3    H113443   5.264   1.327   2.809 -1.0321 -1.1103  0.8003
 4479TIP3    H213444   5.238   1.316   2.958  0.0433  0.4394  1.1233
 4480TIP3   OH213445   3.666   0.772   0.323 -0.0185 -0.1310 -0.1472
 4480TIP3    H113446   3.747   0.823   0.316  0.4272 -0.9151 -0.8479
 4480TIP3    H213447   3.695   0.681   0.324 -0.8674 -0.4085  0.0858
 4481TIP3   OH213448   3.400   3.227   2.119 -0.2260 -0.1725 -0.5321
 4481TIP3    H113449   3.417   3.192   2.032  0.5111  0.8190 -0.8091
 4481TIP3    H213450   3.394   3.150   2.175 -0.4830 -0.8131 -1.4168
 4482TIP3   OH213451   2.173   5.040   3.412 -0.1999 -0.2711 -0.1513
 4482TIP3    H113452   2.242   5.044   3.345 -0.7256 -1.4105 -0.7901
 4482TIP3    H213453   2.146   5.131   3.423  1.4260  0.2080  0.1462
 4483TIP3   OH213454   1.298   3.891   0.177 -0.0569 -0.3363  0.1456
 4483TIP3    H113455   1.346   3.929   0.251 -0.5478  3.0690 -1.1293
 4483TIP3    H213456   1.220   3.945   0.168 -1.2112 -2.1376 -1.4753
 4484TIP3   OH213457   1.740   1.231   0.251  0.0702 -0.5575  0.1722
 4484TIP3    H113458   1.785   1.214   0.168 -2.0496  0.5417 -1.2832
 4484TIP3    H213459   1.743   1.147   0.297  2.1541 -0.9307 -0.5176
 4485TIP3   OH213460   2.073   2.902   2.916 -0.3382 -0.5248  0.2102
 4485TIP3    H113461   1.986   2.899   2.877 -0.7650 -0.4287  1.1247
 4485TIP3    H213462   2.129   2.939   2.847 -0.6364 -2.2770 -1.0283
 4486TIP3   OH213463   2.452   5.382   3.207 -0.1190 -0.2202 -0.1007
 4486TIP3    H113464   2.471   5.303   3.257 -0.1014 -0.1445  0.0103
 4486TIP3    H213465   2.373   5.360   3.157  1.3424 -1.2600 -2.1059
 4487TIP3   OH213466   3.046   2.765   0.803  0.6235  0.3516  0.4555
 4487TIP3    H113467   2.989   2.690   0.788  1.0377  0.0774  0.2014
 4487TIP3    H213468   3.135   2.729   0.794  0.8241  1.1154 -0.9628
 4488TIP3   OH213469   0.381   5.687   0.322 -0.2064  0.8113 -0.2731
 4488TIP3    H113470   0.385   5.685   0.226  0.4973 -0.5785 -0.2422
 4488TIP3    H213471   0.458   5.738   0.348 -0.7163  1.6892 -0.4444
 4489TIP3   OH213472   0.945   5.558   2.589 -0.1996 -0.1724  0.0833
 4489TIP3    H113473   0.926   5.487   2.650 -0.2651 -0.9567 -0.8136
 4489TIP3    H213474   0.968   5.513   2.507 -0.4816  0.8460 -0.5746
 4490TIP3   OH213475   0.552   1.716   2.953  0.3995  0.1289 -0.1408
 4490TIP3    H113476   0.507   1.633   2.937  1.5144 -0.3438 -0.9085
 4490TIP3    H213477   0.612   1.697   3.025 -0.5783  0.7602  0.8819
 4491TIP3   OH213478   6.314   3.496   4.583  0.1488  0.1145 -0.6897
 4491TIP3    H113479   6.284   3.406   4.596  0.3740  0.0440 -0.6458
 4491TIP3    H213480   6.408   3.487   4.565  0.0464  0.2883 -1.3303
 4492TIP3   OH213481   1.311   3.027   1.758  0.0215  0.2298  0.2437
 4492TIP3    H113482   1.327   2.948   1.809  1.0969 -0.9020 -1.7320
 4492TIP3    H213483   1.373   3.091   1.793  0.6383 -0.4788  0.4742
 4493TIP3   OH213484   1.753   3.958   4.981 -0.4108 -0.2058  0.0434
 4493TIP3    H113485   1.769   3.912   4.899 -0.4168 -1.2825  0.6280
 4493TIP3    H213486   1.798   4.042   4.971  1.8676 -1.3752 -0.0622
 4494TIP3   OH213487   2.672   0.127   2.083 -0.5539  0.4801 -0.5270
 4494TIP3    H113488   2.752   0.160   2.042  1.0822 -0.3003  1.7947
 4494TIP3    H213489   2.684   0.032   2.085 -2.2933  0.2023 -1.4953
 4495TIP3   OH213490   4.985   0.839   3.788 -0.1911 -0.7999  0.3322
 4495TIP3    H113491   4.987   0.931   3.814  0.1040 -0.4652 -0.8329
 4495TIP3    H213492   5.006   0.791   3.869  1.3094  0.2396  0.6005
 4496TIP3   OH213493   2.343   3.598   2.910  0.1525  0.2650 -0.2370
 4496TIP3    H113494   2.376   3.558   2.990 -0.3126  0.8051  0.2380
 4496TIP3    H213495   2.355   3.692   2.924 -1.6182  0.4914 -0.0034
 4497TIP3   OH213496   1.919   3.771   4.123  0.0171  0.2050 -0.0900
 4497TIP3    H113497   1.825   3.783   4.109 -0.4425 -1.9577  0.7282
 4497TIP3    H213498   1.938   3.823   4.201 -0.1775  1.7165 -1.0106
 4498TIP3   OH213499   5.295   0.971   2.509 -0.0341 -0.4007 -0.0664
 4498TIP3    H113500   5.378   1.020   2.508 -0.2044 -0.0106 -2.5546
 4498TIP3    H213501   5.227   1.039   2.507 -0.4271 -0.7264  1.3149
 4499TIP3   OH213502   2.738   0.849   2.117 -0.6377 -0.2168 -0.1941
 4499TIP3    H113503   2.717   0.940   2.135 -0.8589  0.2490 -2.4820
 4499TIP3    H213504   2.817   0.832   2.168 -1.6947  0.6059  1.8096
 4500TIP3   OH213505   3.967   0.310   4.307  0.3803  0.3366  0.7107
 4500TIP3    H113506   3.911   0.381   4.275 -0.8658 -0.8591  0.1466
 4500TIP3    H213507   4.040   0.307   4.245  0.2015  0.8118  0.4705
 4501TIP3   OH213508   4.077   5.137   2.741 -0.2685  0.4083  0.2056
 4501TIP3    H113509   4.013   5.076   2.704 -0.4086  0.9455 -0.4603
 4501TIP3    H213510   4.162   5.093   2.727 -0.3749  0.3218 -0.1893
 4502TIP3   OH213511   1.283   5.667   4.636 -0.3627  0.4827  0.4598
 4502TIP3    H113512   1.333   5.745   4.662  0.9540 -0.3375  0.4687
 4502TIP3    H213513   1.272   5.617   4.716 -2.7308  1.4514  0.7961
 4503TIP3   OH213514   0.203   4.235   4.163  0.5941  0.6285  0.0355
 4503TIP3    H113515   0.146   4.160   4.143  0.0788 -0.1432  3.5771
 4503TIP3    H213516   0.190   4.295   4.090  1.4722 -2.8723 -3.3363
 4504TIP3   OH213517   2.610   2.759   4.560  0.0864 -0.4685  0.1758
 4504TIP3    H113518   2.671   2.732   4.491 -1.2777 -2.0372 -0.4946
 4504TIP3    H213519   2.638   2.712   4.638  0.9855  0.4740  0.4402
 4505TIP3   OH213520   5.289   4.034   0.887  0.2143  0.5971 -0.1967
 4505TIP3    H113521   5.285   4.024   0.791 -1.5943  1.3559 -0.2391
 4505TIP3    H213522   5.380   4.061   0.904  2.2019 -4.4947 -1.0938
 4506TIP3   OH213523   6.088   3.305   4.965  0.1524 -0.0572  0.7502
 4506TIP3    H113524   6.137   3.337   5.040 -0.2941  1.8308  0.2741
 4506TIP3    H213525   6.156   3.280   4.902  0.5161  0.0582  1.0894
 4507TIP3   OH213526   1.573   0.327   4.212 -0.0385  0.0109 -0.0435
 4507TIP3    H113527   1.587   0.316   4.118  0.1260 -1.5571  0.1368
 4507TIP3    H213528   1.588   0.420   4.228  0.1270  0.2647 -1.5274
 4508TIP3   OH213529   1.608   4.105   5.210  0.0139  0.1471  0.4619
 4508TIP3    H113530   1.559   4.131   5.131  0.8444  0.5935  0.0843
 4508TIP3    H213531   1.665   4.034   5.180  0.7059  0.6650  0.5362
 4509TIP3   OH213532   4.572   0.517   4.109  0.0277  0.1617  0.3224
 4509TIP3    H113533   4.588   0.490   4.200  0.4907  1.5629  0.6816
 4509TIP3    H213534   4.625   0.596   4.098  1.0721 -0.7370 -1.6177
 4510TIP3   OH213535   4.444   3.609   5.157  0.0437  0.2866  0.7368
 4510TIP3    H113536   4.376   3.560   5.111 -0.5609  1.3708  0.4382
 4510TIP3    H213537   4.460   3.685   5.102  0.4751  0.7806  1.5253
 4511TIP3   OH213538   0.530   5.238   1.365 -0.3606  0.3963  0.3448
 4511TIP3    H113539   0.447   5.228   1.318 -0.8055  0.4597  1.0875
 4511TIP3    H213540   0.518   5.185   1.444  0.8140 -0.6720 -0.1764
 4512TIP3   OH213541   1.614   2.532   4.123  0.1317 -0.7702 -0.0061
 4512TIP3    H113542   1.609   2.534   4.219 -0.5900  2.4278 -0.0093
 4512TIP3    H213543   1.523   2.533   4.094  0.2810  1.9744 -0.6167
 4513TIP3   OH213544   2.600   3.237   4.264  0.2029  0.2248  0.3730
 4513TIP3    H113545   2.652   3.297   4.318  0.4842 -0.7972  1.2720
 4513TIP3    H213546   2.592   3.158   4.317 -0.8396 -0.2522 -0.4608
 4514TIP3   OH213547   0.451   1.474   2.909 -0.8583 -0.2340 -0.1109
 4514TIP3    H113548   0.389   1.407   2.881 -0.7433  0.0332 -1.0303
 4514TIP3    H213549   0.472   1.451   3.000 -1.3559 -1.0274 -0.1897
 4515TIP3   OH213550   5.697   1.695   5.092  0.1978  0.0909 -0.6699
 4515TIP3    H113551   5.706   1.607   5.055 -0.9853  0.0304 -0.8312
 4515TIP3    H213552   5.635   1.739   5.034  0.5607  0.9498 -0.4187
 4516TIP3   OH213553   3.338   2.354   2.336  0.0624 -0.1835  0.2104
 4516TIP3    H113554   3.259   2.375   2.386 -0.5029 -1.8402  0.0698
 4516TIP3    H213555   3.312   2.282   2.279  0.5690  1.8039 -2.7810
 4517TIP3   OH213556   1.744   3.024   0.254  0.1001  0.2208 -0.5948
 4517TIP3    H113557   1.772   3.104   0.299 -0.9130  0.6802 -0.7666
 4517TIP3    H213558   1.710   3.055   0.169 -0.4941 -0.3631 -0.5751
 4518TIP3   OH213559   0.701   4.293   4.370  0.1917  0.3247 -0.2729
 4518TIP3    H113560   0.646   4.290   4.449 -0.2984  0.4003 -0.6029
 4518TIP3    H213561   0.639   4.314   4.299  0.8293  1.5833 -0.4777
 4519TIP3   OH213562   2.950   4.549   2.715  0.2587  0.0499 -0.4393
 4519TIP3    H113563   2.880   4.568   2.777 -0.1865 -0.8424 -0.6488
 4519TIP3    H213564   2.938   4.613   2.645  1.5174  1.8796  0.9365
 4520TIP3   OH213565   0.956   3.261   1.622 -0.1798 -0.1394 -0.2267
 4520TIP3    H113566   1.031   3.202   1.616  1.5760  2.0058 -0.5708
 4520TIP3    H213567   0.961   3.315   1.543 -0.5442  1.7657  0.9954
 4521TIP3   OH213568   5.048   3.919   2.379  0.6597  0.5415 -0.1495
 4521TIP3    H113569   5.079   4.001   2.417  1.4568  0.3689 -0.4053
 4521TIP3    H213570   4.995   3.946   2.304  1.2815  0.8273 -0.5003
 4522TIP3   OH213571   0.600   3.518   3.433  0.1600 -0.8456  0.7717
 4522TIP3    H113572   0.684   3.564   3.428 -0.3409  0.0303  0.1778
 4522TIP3    H213573   0.541   3.580   3.476 -1.1058  0.0315 -1.9598
 4523TIP3   OH213574   0.504   5.619   2.347 -0.3384  0.0196 -0.6603
 4523TIP3    H113575   0.585   5.653   2.309 -1.0709  0.3032 -2.0202
 4523TIP3    H213576   0.482   5.682   2.417  0.2167  0.3480 -0.7785
 4524TIP3   OH213577   1.568   5.916   4.465 -0.7834 -0.0029  0.0894
 4524TIP3    H113578   1.606   5.966   4.538 -0.4477  1.2508 -0.9013
 4524TIP3    H213579   1.622   5.939   4.390 -0.9133 -1.5460 -0.5004
 4525TIP3   OH213580   5.770   0.717   4.027  0.1572  0.0391  0.0171
 4525TIP3    H113581   5.862   0.738   4.013  0.1301  0.7653  0.9082
 4525TIP3    H213582   5.738   0.784   4.086 -1.1095  0.1491 -0.7525
 4526TIP3   OH213583   3.613   2.339   2.384 -0.3820  0.1351  0.4330
 4526TIP3    H113584   3.661   2.262   2.414  1.5682  0.8852 -0.5994
 4526TIP3    H213585   3.522   2.310   2.379  0.1099 -1.7180  1.2469
 4527TIP3   OH213586   3.474   5.168   5.126  0.0999 -0.1064 -0.3488
 4527TIP3    H113587   3.386   5.130   5.114  0.6188 -1.8416  0.9492
 4527TIP3    H213588   3.458   5.253   5.167 -1.0180  0.1919 -1.3484
 4528TIP3   OH213589   5.981   5.118   2.642  0.5374  0.3138 -0.0110
 4528TIP3    H113590   6.052   5.056   2.656  0.7930  0.5185 -0.3720
 4528TIP3    H213591   5.908   5.084   2.694  0.4273 -0.6986 -0.7950
 4529TIP3   OH213592   4.827   1.237   4.991 -0.3098  0.8368  0.3039
 4529TIP3    H113593   4.755   1.199   4.940 -0.8485 -2.4919  3.1774
 4529TIP3    H213594   4.903   1.230   4.933 -1.5785  1.0798 -1.4869
 4530TIP3   OH213595   3.060   2.276   3.322  0.3966 -0.3161  0.0415
 4530TIP3    H113596   3.062   2.330   3.243 -0.8915 -0.3382 -0.0274
 4530TIP3    H213597   3.130   2.312   3.378 -1.0392  2.1039  0.4148
 4531TIP3   OH213598   5.547   3.369   2.860  0.0269  0.7817 -0.0019
 4531TIP3    H113599   5.613   3.435   2.880  1.9483 -0.4676 -1.8212
 4531TIP3    H213600   5.576   3.330   2.778 -1.8671 -1.2938  0.2216
 4532TIP3   OH213601   1.611   2.753   0.867 -0.4496  0.5779 -0.2808
 4532TIP3    H113602   1.560   2.702   0.804 -1.5553  2.4207 -0.9414
 4532TIP3    H213603   1.556   2.758   0.945  0.6223 -1.0917  0.6744
 4533TIP3   OH213604   0.258   1.555   3.577 -0.4096 -0.6043  0.6291
 4533TIP3    H113605   0.246   1.487   3.643 -1.9113 -1.6426 -0.6566
 4533TIP3    H213606   0.180   1.610   3.583  0.6718  0.9335  1.4862
 4534TIP3   OH213607   3.951   4.101   4.353  0.1793  0.5387 -0.4123
 4534TIP3    H113608   3.950   4.050   4.272 -1.7712 -0.1512 -0.0049
 4534TIP3    H213609   3.858   4.116   4.374  0.5560 -0.2830  2.2791
 4535TIP3   OH213610   4.244   4.005   0.245 -0.4751 -0.3550 -0.0968
 4535TIP3    H113611   4.338   3.985   0.250 -0.4082  0.1420  1.0084
 4535TIP3    H213612   4.228   4.060   0.321 -1.3326  0.9676 -1.2036
 4536TIP3   OH213613   2.890   0.937   1.001  0.1289 -0.0272 -0.5034
 4536TIP3    H113614   2.817   0.904   0.949  1.3579 -0.3984 -2.0407
 4536TIP3    H213615   2.944   0.860   1.018  0.6244  0.3956 -0.1336
 4537TIP3   OH213616   2.165   3.271   4.624  0.4562 -0.4667  0.2672
 4537TIP3    H113617   2.085   3.287   4.573  1.2825 -0.8834 -1.2124
 4537TIP3    H213618   2.193   3.183   4.597 -0.7444 -2.1285  3.7740
 4538TIP3   OH213619   0.401   2.941   2.346  0.2136  0.1186  0.2097
 4538TIP3    H113620   0.395   2.999   2.422  1.4624  0.0522  0.3687
 4538TIP3    H213621   0.476   2.885   2.364 -0.9964 -1.6240  0.0864
 4539TIP3   OH213622   5.270   2.742   0.204  0.4314 -0.1766  0.2096
 4539TIP3    H113623   5.232   2.830   0.215 -0.0049 -0.4691  1.1447
 4539TIP3    H213624   5.225   2.706   0.127  1.9688  1.1060 -1.3729
 4540TIP3   OH213625   2.347   4.907   3.582  0.2559  0.2264  0.2761
 4540TIP3    H113626   2.277   4.952   3.535  0.7823 -0.4460 -1.2109
 4540TIP3    H213627   2.352   4.821   3.541  0.2063 -0.7097  2.1340
 4541TIP3   OH213628   0.328   0.760   2.145  0.1021 -0.3156 -0.1372
 4541TIP3    H113629   0.396   0.744   2.079 -0.1110 -1.3154 -0.1310
 4541TIP3    H213630   0.355   0.842   2.186  0.3582  0.2185 -1.3065
 4542TIP3   OH213631   3.016   0.396   1.161 -0.3459  0.0870 -0.4765
 4542TIP3    H113632   2.946   0.364   1.105 -0.0625  0.2663 -0.9393
 4542TIP3    H213633   3.095   0.353   1.129 -0.3671 -0.7917  0.6044
 4543TIP3   OH213634   1.838   0.831   4.306  0.0206 -0.2542  0.4037
 4543TIP3    H113635   1.912   0.835   4.367 -0.4557  0.8408  0.9471
 4543TIP3    H213636   1.863   0.888   4.234 -0.1368 -0.1730  0.4122
 4544TIP3   OH213637   4.269   4.729   1.312  0.1271 -0.6354 -0.2092
 4544TIP3    H113638   4.361   4.704   1.303  0.0208 -0.8113 -0.8543
 4544TIP3    H213639   4.246   4.704   1.402  0.1778 -2.4078 -0.6462
 4545TIP3   OH213640   6.297   2.896   3.941  0.4228 -0.3162  0.4924
 4545TIP3    H113641   6.380   2.932   3.972  0.7785  0.3444 -1.1270
 4545TIP3    H213642   6.301   2.803   3.964  0.3194  0.2381  3.0255
 4546TIP3   OH213643   4.553   3.315   3.830 -0.3889  0.0048 -0.6697
 4546TIP3    H113644   4.611   3.291   3.902  0.6716 -0.3365 -1.6145
 4546TIP3    H213645   4.543   3.410   3.838 -0.7142 -0.0979  0.2317
 4547TIP3   OH213646   5.667   0.908   2.945 -0.2170 -0.1136 -0.0637
 4547TIP3    H113647   5.609   0.877   3.015 -0.8358 -1.2619 -1.0410
 4547TIP3    H213648   5.754   0.912   2.987 -0.6057 -0.5771  0.8316
 4548TIP3   OH213649   2.154   4.422   4.539  0.4852 -0.2355  0.2953
 4548TIP3    H113650   2.174   4.508   4.502  2.0641 -1.1786 -1.1769
 4548TIP3    H213651   2.095   4.381   4.476  0.6117 -0.6392  0.4320
 4549TIP3   OH213652   0.052   5.337   1.922 -0.2614  0.1130 -0.2585
 4549TIP3    H113653   0.005   5.410   1.963  0.7306  0.8565 -0.4185
 4549TIP3    H213654  -0.002   5.314   1.845 -2.0149 -1.1387  1.2430
 4550TIP3   OH213655   1.445   1.925   1.780  0.0228  0.2046 -0.0740
 4550TIP3    H113656   1.441   1.985   1.855 -0.1615  0.3842 -0.2230
 4550TIP3    H213657   1.402   1.974   1.709 -0.6891 -0.3414 -0.0353
 4551TIP3   OH213658   2.199   5.916   3.961 -0.1384 -0.3883 -0.3093
 4551TIP3    H113659   2.240   5.924   4.047  0.2193  0.9744 -0.5882
 4551TIP3    H213660   2.249   5.847   3.917 -0.2527 -1.0144  0.5138
 4552TIP3   OH213661   0.647   4.051   1.689 -0.5650  0.1021  0.2292
 4552TIP3    H113662   0.591   4.107   1.635 -0.2748  0.2378  0.0700
 4552TIP3    H213663   0.587   3.984   1.723 -0.6997 -0.1491 -0.4789
 4553TIP3   OH213664   2.607   1.728   1.284 -0.5133  0.1532  0.0444
 4553TIP3    H113665   2.549   1.787   1.235 -1.6951 -0.7680  0.2804
 4553TIP3    H213666   2.641   1.782   1.355 -0.9631  0.7654 -0.1927
 4554TIP3   OH213667   3.099   1.761   1.561 -0.5974 -0.9262  0.2689
 4554TIP3    H113668   3.103   1.714   1.644  0.7694 -0.4911  0.4746
 4554TIP3    H213669   3.038   1.833   1.577 -0.2086 -0.7427  0.9588
 4555TIP3   OH213670   2.434   4.894   1.153 -0.0082  0.3481 -0.3232
 4555TIP3    H113671   2.426   4.958   1.224 -0.1380  0.4220 -0.4046
 4555TIP3    H213672   2.503   4.929   1.096  0.3909  0.0818 -0.0157
 4556TIP3   OH213673   0.684   5.149   3.681  0.4964 -0.1617  0.2994
 4556TIP3    H113674   0.689   5.133   3.776  0.3069  1.0031  0.5253
 4556TIP3    H213675   0.591   5.136   3.660  0.7313 -1.5322  0.0450
 4557TIP3   OH213676   5.007   5.199   2.861  0.2456 -0.1390 -0.0017
 4557TIP3    H113677   5.016   5.256   2.936 -3.7099  0.8328 -0.0635
 4557TIP3    H213678   5.053   5.119   2.886  0.6659  0.8329  2.6416
 4558TIP3   OH213679   5.715   3.233   0.306  0.1873 -0.2570  0.8276
 4558TIP3    H113680   5.665   3.155   0.331  0.4743  0.0000  2.3107
 4558TIP3    H213681   5.681   3.257   0.220 -1.0047 -1.1102  1.0358
 4559TIP3   OH213682   2.881   1.199   1.430 -0.4763 -0.1901  0.3237
 4559TIP3    H113683   2.839   1.280   1.459 -1.3005  0.4300 -2.2924
 4559TIP3    H213684   2.855   1.190   1.338  4.1906 -0.3836 -1.2340
 4560TIP3   OH213685   4.553   1.575   0.747 -0.1097  0.7795  0.5320
 4560TIP3    H113686   4.538   1.483   0.726 -0.4247  1.0778 -0.6048
 4560TIP3    H213687   4.496   1.592   0.822 -2.1855  0.7246 -0.9397
 4561TIP3   OH213688   0.690   5.866   1.003  0.3981 -1.0722  0.0079
 4561TIP3    H113689   0.695   5.776   0.973  0.9279 -0.6481 -1.2696
 4561TIP3    H213690   0.599   5.892   0.989 -1.1315 -2.7598  4.7668
 4562TIP3   OH213691   1.110   0.745   0.347 -0.0446 -0.1290 -0.4125
 4562TIP3    H113692   1.147   0.829   0.318 -0.8144  0.0628 -0.8641
 4562TIP3    H213693   1.115   0.749   0.443 -0.5092  0.6346 -0.4136
 4563TIP3   OH213694   5.794   2.543   1.648 -0.0628  0.9250 -0.3499
 4563TIP3    H113695   5.773   2.604   1.719  0.6261 -0.2133  0.8902
 4563TIP3    H213696   5.710   2.522   1.608 -0.5688  1.0009  0.6400
 4564TIP3   OH213697   4.871   4.061   1.025 -0.1700 -0.2365  0.4133
 4564TIP3    H113698   4.895   4.041   0.934  0.3252 -1.0833  0.7244
 4564TIP3    H213699   4.951   4.047   1.075 -0.7955 -1.1540  1.1862
 4565TIP3   OH213700   5.796   3.753   4.371  0.5882 -0.1640 -0.2096
 4565TIP3    H113701   5.717   3.789   4.409  1.4896  0.4236  1.1907
 4565TIP3    H213702   5.791   3.776   4.278 -1.4689 -1.2825 -0.4492
 4566TIP3   OH213703   4.857   3.811   4.790 -0.7485 -0.2598 -0.1995
 4566TIP3    H113704   4.888   3.743   4.850 -0.0194  0.9166  0.8187
 4566TIP3    H213705   4.926   3.819   4.725  0.2927  1.0546  0.9977
 4567TIP3   OH213706   1.776   3.277   4.864  0.3106  0.3820  0.2786
 4567TIP3    H113707   1.849   3.323   4.823 -0.5900  1.6849  0.0664
 4567TIP3    H213708   1.817   3.208   4.915  1.5990  0.0662 -1.0882
 4568TIP3   OH213709   2.371   1.464   2.365  0.4139  0.6660  0.0558
 4568TIP3    H113710   2.420   1.436   2.442  0.4413  0.5213 -0.0150
 4568TIP3    H213711   2.304   1.524   2.400  1.8992  2.4877 -0.0771
 4569TIP3   OH213712   4.697   2.674   0.547 -0.1763 -0.3940 -0.4624
 4569TIP3    H113713   4.703   2.680   0.642  0.2348 -2.1614 -0.3322
 4569TIP3    H213714   4.743   2.751   0.515  0.8306 -0.4498  0.7736
 4570TIP3   OH213715   1.691   0.828   3.918 -0.2096 -0.2715  0.3912
 4570TIP3    H113716   1.622   0.785   3.867 -0.8357  0.1747  0.8297
 4570TIP3    H213717   1.656   0.916   3.935 -0.1403 -0.4951  1.7953
 4571TIP3   OH213718   0.351   0.234   2.535 -0.0577  0.1847  0.2640
 4571TIP3    H113719   0.297   0.307   2.565  0.4401  0.7441 -0.1759
 4571TIP3    H213720   0.372   0.256   2.444  0.0613 -0.5258  0.1183
 4572TIP3   OH213721   2.277   1.343   2.937 -0.0628 -0.2571 -0.0662
 4572TIP3    H113722   2.344   1.276   2.944 -0.1045 -0.1897  1.2671
 4572TIP3    H213723   2.295   1.403   3.009  0.3727  1.5704 -1.6068
 4573TIP3   OH213724   5.780   0.268   1.373  0.1810  0.1192 -0.1511
 4573TIP3    H113725   5.848   0.336   1.375  1.1570 -0.7925 -1.3228
 4573TIP3    H213726   5.791   0.221   1.456 -0.3698  1.2323  0.5803
 4574TIP3   OH213727   6.122   0.141   1.925 -0.2960  0.4050  0.8597
 4574TIP3    H113728   6.058   0.196   1.970 -1.8036 -0.6709  0.0915
 4574TIP3    H213729   6.164   0.091   1.995 -1.1987  0.2048  1.2679
 4575TIP3   OH213730   6.282   3.189   3.929  0.0363 -0.0960 -0.1862
 4575TIP3    H113731   6.246   3.103   3.952  0.0495  0.3230  1.5878
 4575TIP3    H213732   6.356   3.200   3.990 -0.0368  1.2150 -0.3127
 4576TIP3   OH213733   3.604   0.917   1.630 -0.3074  0.4354  1.2187
 4576TIP3    H113734   3.526   0.897   1.579  0.6354  0.6902 -0.3626
 4576TIP3    H213735   3.602   0.854   1.703 -0.7154 -1.1739 -0.1296
 4577TIP3   OH213736   2.740   0.995   1.664 -0.5912 -0.4750  0.3760
 4577TIP3    H113737   2.724   1.085   1.692  1.9214 -0.0323  0.6291
 4577TIP3    H213738   2.682   0.983   1.588 -2.7866  0.4598  1.7847
 4578TIP3   OH213739   2.429   4.032   2.470  0.0671  0.7467 -0.0664
 4578TIP3    H113740   2.479   4.104   2.432 -1.1006  1.9294  0.5951
 4578TIP3    H213741   2.376   3.999   2.398  2.3167 -1.0990 -1.0228
 4579TIP3   OH213742   5.861   5.726   1.290  0.3601 -0.2004  0.2025
 4579TIP3    H113743   5.914   5.647   1.278  0.3643 -0.1061 -0.4082
 4579TIP3    H213744   5.773   5.693   1.306  0.8034 -0.4199  2.6525
 4580TIP3   OH213745   0.132   0.048   1.566  0.5003  0.1987 -0.5220
 4580TIP3    H113746   0.037   0.039   1.571  0.4723  1.1798  2.8302
 4580TIP3    H213747   0.148   0.142   1.576  1.8522  0.1089 -1.5247
 4581TIP3   OH213748   2.622   0.584   2.240  0.1466 -0.0111 -0.1925
 4581TIP3    H113749   2.634   0.661   2.184  0.6386  0.8426  1.0435
 4581TIP3    H213750   2.548   0.608   2.296  0.3630 -0.4014  0.2627
 4582TIP3   OH213751   0.689   1.958   2.077  0.2842 -0.3773  0.2275
 4582TIP3    H113752   0.655   1.934   2.163 -0.6560 -0.8227 -0.2492
 4582TIP3    H213753   0.759   2.020   2.095 -1.4346  1.3515  1.2259
 4583TIP3   OH213754   4.107   5.463   0.724  0.2554  0.1664 -0.0626
 4583TIP3    H113755   4.108   5.378   0.769 -0.0062 -0.5564 -1.3733
 4583TIP3    H213756   4.181   5.510   0.761 -0.2394 -0.1964  1.4817
 4584TIP3   OH213757   0.722   1.322   1.934 -0.2174  0.4059  0.0393
 4584TIP3    H113758   0.723   1.379   2.012  0.8187  0.9537 -0.3568
 4584TIP3    H213759   0.749   1.380   1.862 -2.0109  0.1362 -0.9175
 4585TIP3   OH213760  -0.014   2.295   4.598 -0.4792 -0.1292 -0.0352
 4585TIP3    H113761   0.070   2.332   4.627 -0.3960  1.4184 -2.0034
 4585TIP3    H213762   0.011   2.228   4.534 -0.7542 -0.7614  0.4985
 4586TIP3   OH213763   1.472   2.423   4.725  0.7738  0.6866 -0.3913
 4586TIP3    H113764   1.446   2.511   4.752  0.7754  1.0449 -1.4989
 4586TIP3    H213765   1.495   2.378   4.806 -0.4002  1.3147  0.3125
 4587TIP3   OH213766   3.564   5.058   0.238  0.2249 -0.5566 -0.3476
 4587TIP3    H113767   3.500   5.128   0.241 -0.7022 -1.3600 -0.9271
 4587TIP3    H213768   3.606   5.060   0.324 -0.3352  0.1923 -0.0870
 4588TIP3   OH213769   2.062   2.746   1.249 -0.1243  0.1868  0.4740
 4588TIP3    H113770   2.034   2.713   1.334 -0.0896 -1.1436 -0.0031
 4588TIP3    H213771   1.982   2.785   1.212 -1.1911 -2.5588 -0.3960
 4589TIP3   OH213772   1.075   4.534   1.693 -0.3027  0.2384  0.1090
 4589TIP3    H113773   1.044   4.622   1.713  1.5863  0.8295  0.6677
 4589TIP3    H213774   1.152   4.548   1.637  1.7865 -0.8402  2.5012
 4590TIP3   OH213775   5.794   5.558   0.475 -0.4849  0.0753 -0.4699
 4590TIP3    H113776   5.699   5.550   0.478 -0.4149 -0.4579  0.8657
 4590TIP3    H213777   5.819   5.519   0.391 -1.3534 -0.6509 -0.3974
 4591TIP3   OH213778   5.600   4.343   2.189 -0.3875  0.8758 -0.5700
 4591TIP3    H113779   5.532   4.410   2.196 -0.7672  0.3453  1.6295
 4591TIP3    H213780   5.675   4.379   2.237 -0.4664 -0.0976  0.3194
 4592TIP3   OH213781   1.674   3.101   1.237  0.4247  0.8028 -0.6713
 4592TIP3    H113782   1.736   3.151   1.185  1.0482 -0.9854 -1.7563
 4592TIP3    H213783   1.637   3.037   1.176 -0.1617 -0.1931  0.6565
 4593TIP3   OH213784   2.962   3.357   0.130 -0.1033  0.2279 -0.0788
 4593TIP3    H113785   2.951   3.398   0.215 -1.1234  0.1761 -0.1655
 4593TIP3    H213786   3.006   3.422   0.076 -2.0137  1.3977 -0.3237
 4594TIP3   OH213787   0.059   1.794   1.564  0.2899  0.2517  0.5981
 4594TIP3    H113788   0.129   1.845   1.604 -0.2464  2.1331 -0.7188
 4594TIP3    H213789   0.078   1.796   1.470  0.6051 -2.6177  0.5198
 4595TIP3   OH213790   1.774   1.650   1.155 -0.2738 -0.4993 -0.3942
 4595TIP3    H113791   1.867   1.666   1.173 -0.0931 -1.8281 -0.0802
 4595TIP3    H213792   1.767   1.556   1.141 -1.6372 -0.4780 -0.0635
 4596TIP3   OH213793   0.461   3.424   1.839  0.0679  0.0224  0.5149
 4596TIP3    H113794   0.474   3.456   1.749 -1.0862 -1.2114 -0.1425
 4596TIP3    H213795   0.535   3.366   1.855  1.3051  1.7219  1.1102
 4597TIP3   OH213796   5.779   3.497   2.243 -0.0970  0.5887 -0.0986
 4597TIP3    H113797   5.736   3.502   2.157 -0.3703 -1.3290 -0.1149
 4597TIP3    H213798   5.862   3.454   2.226  0.3526  1.2147  0.4544
 4598TIP3   OH213799   6.105   3.375   0.412  0.5731  0.5909  0.5632
 4598TIP3    H113800   6.180   3.435   0.409 -0.1336  1.5108  0.7077
 4598TIP3    H213801   6.040   3.415   0.353 -0.0829  0.2120  1.0138
 4599TIP3   OH213802   4.247   1.911   2.716 -0.4357 -0.0448  0.2073
 4599TIP3    H113803   4.288   1.888   2.800  0.1400  3.1147  0.9147
 4599TIP3    H213804   4.300   1.865   2.651 -0.6051 -2.2065  1.4595
 4600TIP3   OH213805   2.481   0.301   4.876 -0.1379 -0.1733 -0.2007
 4600TIP3    H113806   2.460   0.298   4.782  1.5823 -0.8370 -0.5999
 4600TIP3    H213807   2.472   0.211   4.905 -1.1394  0.1123  0.4038
 4601TIP3   OH213808   5.034   4.767   4.727 -0.3392  0.7485  0.0940
 4601TIP3    H113809   5.018   4.673   4.725  3.0949  0.0464 -1.8710
 4601TIP3    H213810   5.008   4.798   4.641 -1.1690  1.6142  0.6290
 4602TIP3   OH213811   4.411   3.946   0.540  0.7171 -0.4937 -0.0407
 4602TIP3    H113812   4.354   3.874   0.515  1.5175 -1.5793  1.1454
 4602TIP3    H213813   4.390   3.964   0.632 -0.6799  1.9948 -0.7493
 4603TIP3   OH213814   0.504   3.360   0.686 -0.6092 -0.1938  0.5644
 4603TIP3    H113815   0.503   3.369   0.781 -1.2303 -1.4392  0.6843
 4603TIP3    H213816   0.450   3.283   0.667 -2.2455  1.1967 -0.9272
 4604TIP3   OH213817   0.202   0.716   0.311 -0.2677  0.2639  0.5069
 4604TIP3    H113818   0.294   0.691   0.320 -0.3728 -0.2104  0.2916
 4604TIP3    H213819   0.154   0.638   0.339 -0.6061  0.6290  0.9436
 4605TIP3   OH213820   1.069   5.043   3.886  0.1502 -0.7709  0.4015
 4605TIP3    H113821   1.102   5.126   3.852 -1.7943  0.0422  0.3819
 4605TIP3    H213822   1.076   4.983   3.811 -1.0398  0.1499 -0.5084
 4606TIP3   OH213823   3.931   1.483   2.357 -0.1689 -0.5760 -0.1386
 4606TIP3    H113824   3.981   1.430   2.295 -1.2352 -0.1903 -1.3814
 4606TIP3    H213825   3.844   1.491   2.317 -0.1795  1.7615  0.1983
 4607TIP3   OH213826   4.379   3.966   4.087  0.4750 -0.2314  0.0026
 4607TIP3    H113827   4.463   3.978   4.042 -0.1771 -1.1529 -1.5254
 4607TIP3    H213828   4.342   4.054   4.092  0.9292 -0.0063 -0.5064
 4608TIP3   OH213829   1.644   0.845   3.542 -0.3021 -0.1603  0.3383
 4608TIP3    H113830   1.622   0.864   3.633  0.7016  2.0795  0.1642
 4608TIP3    H213831   1.586   0.901   3.491 -0.8941 -1.4326 -0.4527
 4609TIP3   OH213832   2.321   2.342   1.748  0.0386 -0.2666  0.3787
 4609TIP3    H113833   2.302   2.300   1.831 -0.0222 -1.7076 -0.3350
 4609TIP3    H213834   2.348   2.271   1.690  2.9678  1.0223 -0.0561
 4610TIP3   OH213835   1.153   3.172   3.343  0.2381 -0.0171  0.3535
 4610TIP3    H113836   1.063   3.164   3.312 -0.2602  1.6567  1.2721
 4610TIP3    H213837   1.204   3.188   3.263 -0.6214  1.3623  0.0504
 4611TIP3   OH213838   3.052   1.197   1.660 -0.0552 -0.1866 -0.0419
 4611TIP3    H113839   3.027   1.277   1.705  0.5773  0.2343 -0.4264
 4611TIP3    H213840   3.010   1.203   1.574  0.7851  0.2065 -0.4377
 4612TIP3   OH213841   6.044   5.930   1.087  0.2025 -0.5753 -0.2210
 4612TIP3    H113842   6.024   5.968   1.172 -0.2528 -2.2247  0.4413
 4612TIP3    H213843   6.131   5.891   1.098  0.2935 -0.4912 -0.6196
 4613TIP3   OH213844   3.319   2.754   2.807  0.4479  0.6313 -0.0314
 4613TIP3    H113845   3.344   2.685   2.869  2.8640  1.5287  0.1048
 4613TIP3    H213846   3.313   2.709   2.723 -1.2989 -0.3005  0.5302
 4614TIP3   OH213847   3.245   0.226   4.766 -0.1779  0.2325  0.1281
 4614TIP3    H113848   3.175   0.274   4.723  1.0265  0.8874 -1.1659
 4614TIP3    H213849   3.326   0.257   4.724  0.7887 -1.4757  0.6176
 4615TIP3   OH213850   5.290   4.002   0.633 -0.9119 -0.7811  0.5836
 4615TIP3    H113851   5.269   3.932   0.570 -0.1769 -1.5187  1.1403
 4615TIP3    H213852   5.335   4.068   0.581 -0.5596 -1.2600  0.2722
 4616TIP3   OH213853   2.122   0.412   2.438 -0.7972  0.0902  0.1874
 4616TIP3    H113854   2.103   0.388   2.529 -0.6773 -0.1160  0.1575
 4616TIP3    H213855   2.075   0.348   2.386  0.1238 -0.5354  0.1139
 4617TIP3   OH213856   4.310   5.821   1.070  0.2241 -0.2076  0.0711
 4617TIP3    H113857   4.258   5.846   0.994 -1.3897 -1.3981  0.7330
 4617TIP3    H213858   4.309   5.899   1.127  1.6874  0.7919 -1.1901
 4618TIP3   OH213859   5.380   4.978   0.394  0.0756 -0.3889  1.0246
 4618TIP3    H113860   5.323   4.910   0.357  0.8667 -0.6231  0.2008
 4618TIP3    H213861   5.416   5.023   0.318  2.2436 -1.2952  1.4395
 4619TIP3   OH213862   5.131   5.844   2.483 -0.0677  0.4553 -0.2725
 4619TIP3    H113863   5.090   5.929   2.502 -0.6737  0.0956  0.0799
 4619TIP3    H213864   5.215   5.848   2.528  0.5326  1.3989 -1.4098
 4620TIP3   OH213865   5.177   2.344   1.007 -0.4225  0.4934  0.0264
 4620TIP3    H113866   5.173   2.272   1.070 -0.5702 -0.9641 -1.5741
 4620TIP3    H213867   5.090   2.385   1.012 -0.7914 -0.2751  0.0120
 4621TIP3   OH213868   5.258   2.395   2.250  0.5594  0.2172  0.2512
 4621TIP3    H113869   5.259   2.310   2.292  0.1675  0.4759  0.7933
 4621TIP3    H213870   5.305   2.453   2.311  0.7068  0.4166 -0.0483
 4622TIP3   OH213871   1.439   2.347   0.969 -0.4895 -0.3320 -0.1835
 4622TIP3    H113872   1.477   2.259   0.966  0.1824 -0.0326 -0.9745
 4622TIP3    H213873   1.353   2.337   0.928 -0.7376 -0.7657  0.4313
 4623TIP3   OH213874   2.649   3.567   2.711 -0.4705  0.5758  0.1748
 4623TIP3    H113875   2.562   3.589   2.744 -0.4773  0.6356  0.1165
 4623TIP3    H213876   2.635   3.493   2.653 -0.2575 -0.5934  1.5515
 4624TIP3   OH213877   1.355   2.824   2.005  0.1706  0.4008 -0.0893
 4624TIP3    H113878   1.268   2.816   1.965  0.2501 -0.3747 -0.1341
 4624TIP3    H213879   1.355   2.756   2.073  1.4991 -1.0795 -1.5062
 4625TIP3   OH213880   4.639   0.268   3.978  0.0232 -0.2826  0.1494
 4625TIP3    H113881   4.690   0.212   4.037  2.5280 -0.0460 -1.6158
 4625TIP3    H213882   4.641   0.355   4.019  0.1016 -0.5216  0.6529
 4626TIP3   OH213883   0.495   0.191   3.263  0.9126  0.1510 -0.8054
 4626TIP3    H113884   0.561   0.236   3.210 -0.0374  0.5428 -1.6784
 4626TIP3    H213885   0.422   0.177   3.203  0.6678 -1.3732 -0.1812
 4627TIP3   OH213886   3.346   1.443   1.672  0.3422  0.7776  0.8653
 4627TIP3    H113887   3.410   1.514   1.663 -0.2298  1.4702  2.0533
 4627TIP3    H213888   3.376   1.394   1.749 -0.9471  1.5647  1.9055
 4628TIP3   OH213889   1.014   5.843   2.029  0.4523  0.3255  0.0679
 4628TIP3    H113890   1.025   5.753   2.058 -1.7282  0.3165  1.0239
 4628TIP3    H213891   1.027   5.840   1.935 -0.7246 -1.2202 -0.0744
 4629TIP3   OH213892   2.712   1.317   0.416  0.0451  0.2862  0.3495
 4629TIP3    H113893   2.639   1.357   0.463 -0.7965  0.1731 -0.8238
 4629TIP3    H213894   2.739   1.383   0.352  2.3044  1.1340  2.0284
 4630TIP3   OH213895   5.860   0.845   1.393  0.2742  0.2693 -0.1626
 4630TIP3    H113896   5.929   0.883   1.446  2.0949 -2.3485 -0.4433
 4630TIP3    H213897   5.895   0.844   1.304 -0.7578  0.2851 -0.5870
 4631TIP3   OH213898   2.699   2.752   0.425  0.0859 -0.6979  0.0954
 4631TIP3    H113899   2.779   2.774   0.377 -0.5807 -1.3959 -1.4213
 4631TIP3    H213900   2.660   2.680   0.374  0.0760 -2.5526  2.5323
 4632TIP3   OH213901   5.921   2.135   2.739 -0.4321 -0.1611  0.1341
 4632TIP3    H113902   5.916   2.040   2.731 -2.0959  0.0077 -1.1769
 4632TIP3    H213903   5.877   2.169   2.661  0.8120  1.7010  0.1704
 4633TIP3   OH213904   4.481   2.426   1.582  0.2620 -0.1561 -0.3626
 4633TIP3    H113905   4.438   2.509   1.603 -1.8793 -1.5788  1.3259
 4633TIP3    H213906   4.422   2.384   1.518  1.2463 -0.4641 -1.0996
 4634TIP3   OH213907   3.556   3.308   3.640  0.0190  0.3541 -0.6716
 4634TIP3    H113908   3.643   3.271   3.625 -0.3682  0.2399 -2.9167
 4634TIP3    H213909   3.537   3.359   3.561 -1.7728  0.7396 -0.0409
 4635TIP3   OH213910   5.957   5.033   1.204 -0.6228 -0.2394  0.2816
 4635TIP3    H113911   5.890   5.040   1.136  0.2160  1.1726 -0.4376
 4635TIP3    H213912   6.032   4.993   1.160 -0.2708  0.1572  0.5111
 4636TIP3   OH213913   5.868   4.308   4.594  0.1741  0.3532 -0.3528
 4636TIP3    H113914   5.912   4.237   4.641 -0.4015  0.1545 -0.1093
 4636TIP3    H213915   5.902   4.303   4.505  0.7081  0.2561 -0.1518
 4637TIP3   OH213916   2.255   3.618   3.372  0.1066 -0.5779  0.1278
 4637TIP3    H113917   2.229   3.617   3.464  1.0599  0.1385  0.4279
 4637TIP3    H213918   2.182   3.661   3.327  0.4711  0.8972  0.8629
 4638TIP3   OH213919   2.882   1.135   0.164  0.2322 -0.3919 -0.4749
 4638TIP3    H113920   2.932   1.121   0.244 -1.2977  0.5157  0.6924
 4638TIP3    H213921   2.948   1.138   0.094  1.6069 -1.0440  0.7457
 4639TIP3   OH213922   3.233   3.770   2.129 -0.6728 -0.1573 -0.0852
 4639TIP3    H113923   3.245   3.844   2.070 -0.4413 -1.1940 -1.4108
 4639TIP3    H213924   3.166   3.716   2.086 -2.2625  0.2090  1.8088
 4640TIP3   OH213925   5.996   5.865   2.313 -0.4076  0.3714 -0.4803
 4640TIP3    H113926   5.966   5.955   2.297  0.2529  0.5414 -0.8082
 4640TIP3    H213927   5.938   5.810   2.260 -0.9066  0.5891 -0.1663
 4641TIP3   OH213928   2.674   0.307   0.574  0.2743 -0.6313 -0.6361
 4641TIP3    H113929   2.732   0.294   0.499  0.1321  1.2986 -1.1447
 4641TIP3    H213930   2.708   0.385   0.618 -1.3381 -0.0084 -0.3957
 4642TIP3   OH213931   4.973   1.728   1.455 -0.5814 -0.0900  0.1968
 4642TIP3    H113932   5.030   1.801   1.431 -0.3447 -0.7406 -1.3188
 4642TIP3    H213933   4.885   1.760   1.438 -0.6128  0.4395  1.2470
 4643TIP3   OH213934   6.076   1.836   1.845 -0.1910 -0.7099 -0.4332
 4643TIP3    H113935   6.110   1.915   1.887  0.9515 -2.6282  2.6312
 4643TIP3    H213936   6.146   1.808   1.787  0.5386 -0.8473  0.4890
 4644TIP3   OH213937   5.255   5.173   3.823  0.4044 -0.1533 -0.3165
 4644TIP3    H113938   5.261   5.250   3.879 -0.2182 -0.6072  0.3907
 4644TIP3    H213939   5.219   5.206   3.741 -0.7013  0.1752  0.2788
 4645TIP3   OH213940   0.289   0.798   1.243  0.0360  0.1134  0.6925
 4645TIP3    H113941   0.272   0.713   1.202  0.1151  0.4837 -0.1256
 4645TIP3    H213942   0.203   0.833   1.263  0.0150 -0.4032  1.5667
 4646TIP3   OH213943   5.802   5.083   4.124 -0.3150 -0.2776  0.4009
 4646TIP3    H113944   5.709   5.103   4.129 -0.0733  0.5159  2.4746
 4646TIP3    H213945   5.845   5.161   4.159  1.2138 -0.2350 -1.4030
 4647TIP3   OH213946   0.023   4.863   4.508 -0.1218 -0.2518  0.3333
 4647TIP3    H113947   0.092   4.816   4.462 -0.4016 -0.1279 -0.2223
 4647TIP3    H213948  -0.017   4.919   4.441 -0.0122  0.5282  0.9074
 4648TIP3   OH213949   1.869   3.524   2.441  0.7633  0.2626 -0.1694
 4648TIP3    H113950   1.920   3.603   2.422  0.6774  0.1689 -0.7878
 4648TIP3    H213951   1.874   3.472   2.361  1.8258 -0.9137  0.6272
 4649TIP3   OH213952   4.258   4.648   4.652  0.0878  0.3548 -0.0174
 4649TIP3    H113953   4.248   4.679   4.743 -2.4666 -0.3676  0.0125
 4649TIP3    H213954   4.256   4.728   4.600 -0.3052  0.6667  0.4603
 4650TIP3   OH213955   2.167   2.281   3.220  0.2657 -0.0569  0.0131
 4650TIP3    H113956   2.152   2.369   3.255 -1.8589  0.0523 -1.0401
 4650TIP3    H213957   2.176   2.293   3.126  0.8202 -0.9030 -0.0609
 4651TIP3   OH213958   5.292   0.365   2.766  0.0618  0.3167  0.7441
 4651TIP3    H113959   5.266   0.406   2.684 -1.3140 -1.0824  0.4314
 4651TIP3    H213960   5.271   0.429   2.833  0.1066  1.0140  0.1028
 4652TIP3   OH213961   0.275   1.042   2.288 -0.5723 -0.0094 -0.7442
 4652TIP3    H113962   0.313   1.120   2.249 -0.6386  0.8018  0.7237
 4652TIP3    H213963   0.336   1.017   2.357  0.2756 -2.2569 -2.2164
 4653TIP3   OH213964   1.023   2.446   1.058  0.1883  0.0790  0.4607
 4653TIP3    H113965   1.004   2.352   1.050 -0.9810  0.2915  0.6002
 4653TIP3    H213966   0.978   2.472   1.138 -1.5878  1.2596 -0.8614
 4654TIP3   OH213967   3.661   3.582   2.250 -0.4871  0.2546  0.0804
 4654TIP3    H113968   3.647   3.657   2.192 -2.2106 -1.0048 -1.2839
 4654TIP3    H213969   3.746   3.546   2.222 -0.2895  0.9099 -0.1881
 4655TIP3   OH213970   5.769   3.026   3.526 -0.0830  0.1769  0.0029
 4655TIP3    H113971   5.745   3.073   3.606 -1.1550  1.6461 -1.1192
 4655TIP3    H213972   5.716   2.947   3.527 -1.1222  0.8628  0.0811
 4656TIP3   OH213973   6.105   0.907   1.776 -0.5099 -0.5192  0.4775
 4656TIP3    H113974   6.068   0.819   1.789 -0.7474 -0.5831 -0.5396
 4656TIP3    H213975   6.111   0.944   1.864  0.9853 -2.1149  1.1137
 4657TIP3   OH213976   5.546   5.254   1.556 -0.5093 -0.3715  0.3646
 4657TIP3    H113977   5.598   5.334   1.558  0.1194 -0.7792  0.6613
 4657TIP3    H213978   5.575   5.205   1.633 -1.8743 -0.2736  0.9669
 4658TIP3   OH213979   3.548   3.086   4.734 -0.3281 -0.0455 -0.2967
 4658TIP3    H113980   3.499   3.068   4.814  1.2550  1.4617  1.1066
 4658TIP3    H213981   3.488   3.137   4.680 -1.7248 -1.8181 -0.4895
 4659TIP3   OH213982   1.925   2.736   4.113 -0.5140  0.6598 -0.1149
 4659TIP3    H113983   1.934   2.784   4.030 -3.1034  2.7398  0.6517
 4659TIP3    H213984   1.917   2.645   4.087 -1.8055  1.2961 -2.2643
 4660TIP3   OH213985   1.515   0.737   2.179  0.3846 -0.2072 -0.4723
 4660TIP3    H113986   1.583   0.682   2.217  0.4855 -2.4893 -3.5275
 4660TIP3    H213987   1.434   0.689   2.195 -0.4044  1.7036  1.7510
 4661TIP3   OH213988   4.792   4.973   1.968 -0.6404  0.1587 -0.1052
 4661TIP3    H113989   4.712   4.926   1.944 -0.4598  0.1308 -0.6601
 4661TIP3    H213990   4.852   4.905   1.997 -0.9886  0.2280  0.8234
 4662TIP3   OH213991   1.193   1.534   2.443  0.0935 -0.4691  0.1604
 4662TIP3    H113992   1.125   1.562   2.504  0.1276  0.9514 -0.4251
 4662TIP3    H213993   1.236   1.460   2.487  0.1780  0.5676  1.8866
 4663TIP3   OH213994   5.641   2.056   3.425 -0.2512 -0.3565  0.0808
 4663TIP3    H113995   5.698   2.129   3.449 -0.8316  0.2769 -0.4024
 4663TIP3    H213996   5.620   2.012   3.507  3.1929 -2.3737  0.0674
 4664TIP3   OH213997   5.479   5.012   3.227  0.7735 -0.3828 -0.3548
 4664TIP3    H113998   5.452   5.045   3.312  0.7586 -1.3360  0.0241
 4664TIP3    H213999   5.560   5.058   3.208  1.1804 -0.7025  0.5331
 4665TIP3   OH214000   2.204   2.132   0.779  0.6171  0.5782  0.1088
 4665TIP3    H114001   2.190   2.227   0.777  1.0219  0.6642  0.9557
 4665TIP3    H214002   2.152   2.099   0.706 -0.0882  1.3821  0.2257
 4666TIP3   OH214003   0.856   5.245   0.670  0.4996 -0.0272  0.1680
 4666TIP3    H114004   0.884   5.156   0.687 -0.9191 -0.8107 -1.3222
 4666TIP3    H214005   0.937   5.297   0.671  1.4194 -1.4277  0.3512
 4667TIP3   OH214006   0.185   3.659   5.102 -0.7569 -0.6940  0.1166
 4667TIP3    H114007   0.165   3.703   5.019 -0.3041 -0.2242  0.2455
 4667TIP3    H214008   0.267   3.699   5.130 -1.4637 -0.0453  1.3500
 4668TIP3   OH214009   5.194   1.359   1.602  0.2295 -0.0602 -0.5471
 4668TIP3    H114010   5.264   1.354   1.537  2.5164 -0.0104  1.7269
 4668TIP3    H214011   5.144   1.436   1.578  1.8498  0.7586 -1.4800
 4669TIP3   OH214012   1.068   1.386   1.307  0.1677 -0.0654  0.1032
 4669TIP3    H114013   1.113   1.429   1.234 -0.4322  0.5137  0.0659
 4669TIP3    H214014   1.044   1.458   1.366  0.4676 -0.5067  0.7769
 4670TIP3   OH214015   3.717   4.605   4.280 -0.0545 -0.1464 -0.1872
 4670TIP3    H114016   3.699   4.563   4.364 -0.7628  1.5309  0.5505
 4670TIP3    H214017   3.631   4.611   4.237  0.3692 -1.4610 -1.3107
 4671TIP3   OH214018   0.209   5.229   2.113 -0.1725  0.9481 -0.0329
 4671TIP3    H114019   0.167   5.273   2.039 -0.5549 -1.7025 -1.5366
 4671TIP3    H214020   0.239   5.300   2.170 -1.0263  3.0753 -2.0742
 4672TIP3   OH214021   2.341   1.078   4.223  0.6586  0.0756  0.1820
 4672TIP3    H114022   2.369   1.085   4.131  1.3937 -1.6215  0.2313
 4672TIP3    H214023   2.422   1.062   4.271 -0.0180 -1.9226  0.7369
 4673TIP3   OH214024   4.958   3.521   2.365 -0.0014 -0.3869 -0.3642
 4673TIP3    H114025   4.876   3.474   2.352  0.7358 -1.3337 -1.8029
 4673TIP3    H214026   5.023   3.452   2.376  0.7953  0.3410 -0.4280
 4674TIP3   OH214027   0.074   4.499   1.874  0.3089 -0.1158  0.7161
 4674TIP3    H114028   0.153   4.445   1.875 -0.9209 -2.0193  1.1768
 4674TIP3    H214029   0.020   4.461   1.805 -1.3082 -0.6279  2.1909
 4675TIP3   OH214030   0.150   0.167   2.224 -0.5452 -0.2003  0.0291
 4675TIP3    H114031   0.227   0.114   2.205  0.1443 -0.2076  2.5322
 4675TIP3    H214032   0.185   0.254   2.244 -0.9199 -0.5662  2.6967
 4676TIP3   OH214033   0.239   3.871   2.581 -0.0655 -0.5973 -0.8067
 4676TIP3    H114034   0.193   3.868   2.497 -0.5669 -0.6937 -0.5347
 4676TIP3    H214035   0.171   3.895   2.644  0.0707 -1.5770 -0.2658
 4677TIP3   OH214036   2.083   2.601   3.677 -0.1685  0.5498 -0.0685
 4677TIP3    H114037   2.129   2.653   3.612  0.2307  1.8461  1.1922
 4677TIP3    H214038   2.148   2.587   3.747 -1.0654  0.6250  0.8065
 4678TIP3   OH214039   4.128   3.823   1.728 -0.0663 -0.3096 -0.2930
 4678TIP3    H114040   4.151   3.877   1.804  1.2353 -1.2444 -0.0028
 4678TIP3    H214041   4.211   3.796   1.691 -0.6515 -2.3151 -0.2872
 4679TIP3   OH214042   2.336   5.724   3.826 -1.0308 -0.3221 -0.5310
 4679TIP3    H114043   2.337   5.722   3.730  1.1141  0.2118 -0.5908
 4679TIP3    H214044   2.423   5.692   3.851 -0.4537  2.1731  1.1068
 4680TIP3   OH214045   2.299   0.469   3.932 -0.7570  0.3997 -0.3579
 4680TIP3    H114046   2.353   0.396   3.901  3.1223  3.4315 -1.6543
 4680TIP3    H214047   2.305   0.534   3.861 -3.9729  2.0435  0.7001
 4681TIP3   OH214048   1.333   0.506   1.961 -0.1016  0.7221 -0.2528
 4681TIP3    H114049   1.314   0.569   2.030 -0.7251 -0.0106  0.2559
 4681TIP3    H214050   1.317   0.420   2.001  1.2488  0.2037 -0.7661
 4682TIP3   OH214051   3.533   1.495   4.431 -0.0023 -0.0636 -0.2337
 4682TIP3    H114052   3.628   1.479   4.437 -0.3451 -2.1941  0.4018
 4682TIP3    H214053   3.499   1.464   4.514 -1.5005 -1.3385 -1.2841
 4683TIP3   OH214054   3.784   0.853   2.897 -0.2248 -0.4815 -0.0798
 4683TIP3    H114055   3.705   0.897   2.869  1.4875  2.3060 -0.8949
 4683TIP3    H214056   3.849   0.873   2.829  1.3985 -2.0235  0.9101
 4684TIP3   OH214057   4.375   0.716   1.859 -0.2812  0.3281  0.1325
 4684TIP3    H114058   4.313   0.769   1.809  0.6441  0.0676 -1.3376
 4684TIP3    H214059   4.447   0.700   1.799  0.1489 -1.3469  1.0336
 4685TIP3   OH214060   1.730   3.183   2.687  0.1004  0.1319  0.0306
 4685TIP3    H114061   1.695   3.255   2.740 -0.0216  0.4979 -0.5329
 4685TIP3    H214062   1.669   3.177   2.613  1.2424  0.8274 -1.0049
 4686TIP3   OH214063   4.377   4.846   3.822  0.2160  0.1765  0.0720
 4686TIP3    H114064   4.399   4.911   3.755  1.2609  0.1119  0.3343
 4686TIP3    H214065   4.447   4.781   3.816 -0.3265 -0.4515  0.4271
 4687TIP3   OH214066   5.966   4.273   0.997  0.3260  0.2136  0.2205
 4687TIP3    H114067   5.964   4.180   0.972 -0.8391  0.1626  0.4705
 4687TIP3    H214068   6.025   4.275   1.073  1.2761 -0.1306 -0.4816
 4688TIP3   OH214069   0.033   1.236   2.225  0.1033  0.1733  0.7226
 4688TIP3    H114070   0.056   1.270   2.139 -0.3678  0.2434  0.6235
 4688TIP3    H214071   0.107   1.261   2.281 -0.0169  0.9361  0.5481
 4689TIP3   OH214072   4.482   2.596   0.794  0.2718  0.1200 -0.1845
 4689TIP3    H114073   4.448   2.622   0.709 -0.2760 -2.4586 -0.8460
 4689TIP3    H214074   4.569   2.635   0.799  0.0216  0.9100 -1.5889
 4690TIP3   OH214075   4.269   0.611   1.051 -0.4336 -0.1166 -0.0140
 4690TIP3    H114076   4.272   0.707   1.044 -0.5518 -0.1703 -0.9471
 4690TIP3    H214077   4.178   0.592   1.076 -0.3225  0.0302  0.5088
 4691TIP3   OH214078   2.756   2.927   1.370 -0.0892  0.3252 -0.3971
 4691TIP3    H114079   2.786   2.901   1.458  2.9682 -0.4237 -1.5109
 4691TIP3    H214080   2.782   3.019   1.362  0.8977  0.0201 -0.9329
 4692TIP3   OH214081   2.184   3.182   4.202 -0.4491  0.2112 -0.0114
 4692TIP3    H114082   2.230   3.265   4.188  0.1715 -0.1524 -0.1502
 4692TIP3    H214083   2.140   3.165   4.118  2.4258 -1.4434 -1.3089
 4693TIP3   OH214084   4.375   4.410   1.167  0.6884  0.6434  0.1634
 4693TIP3    H114085   4.424   4.460   1.102 -2.1936  1.3403 -1.6618
 4693TIP3    H214086   4.309   4.363   1.117 -0.0056 -0.9491  2.3732
 4694TIP3   OH214087   2.304   1.496   1.963  0.7726  0.3019  0.2593
 4694TIP3    H114088   2.244   1.569   1.973  1.8851  1.3315 -0.3751
 4694TIP3    H214089   2.277   1.454   1.881  1.3396  1.2120 -0.4206
 4695TIP3   OH214090   1.731   2.285   0.420  0.0625  0.7410 -0.3850
 4695TIP3    H114091   1.715   2.266   0.512 -0.1145  0.4327 -0.4794
 4695TIP3    H214092   1.827   2.292   0.414  0.0504  1.2427 -0.0887
 4696TIP3   OH214093   1.586   2.866   2.927  0.2840 -0.5453 -0.1426
 4696TIP3    H114094   1.534   2.937   2.888  0.8455 -0.1502 -0.1917
 4696TIP3    H214095   1.560   2.864   3.019 -0.6707 -1.1340 -0.4140
 4697TIP3   OH214096   4.587   4.544   4.814 -0.4640  0.5023 -0.0422
 4697TIP3    H114097   4.626   4.548   4.726  1.1564  1.2172  0.6686
 4697TIP3    H214098   4.641   4.602   4.867 -2.9784  2.1515  0.8851
 4698TIP3   OH214099   2.055   5.846   3.241  0.2118 -0.1580 -0.1665
 4698TIP3    H114100   2.102   5.871   3.321  0.5364  1.1310 -0.7287
 4698TIP3    H214101   1.971   5.891   3.247  0.8602  1.2898 -1.2650
 4699TIP3   OH214102   2.914   0.497   0.664 -0.8601  0.0944  0.3978
 4699TIP3    H114103   2.921   0.419   0.718  2.5819 -0.9938 -1.3291
 4699TIP3    H214104   2.989   0.551   0.690 -0.2369  0.4191 -1.8573
 4700TIP3   OH214105   4.545   4.012   4.584  0.0138 -0.5073 -0.0579
 4700TIP3    H114106   4.500   3.964   4.653 -0.3039 -0.2223 -0.0661
 4700TIP3    H214107   4.566   3.946   4.518 -0.9653 -0.5425 -0.3537
 4701TIP3   OH214108   3.521   4.156   3.210 -0.1629  0.0537 -0.3284
 4701TIP3    H114109   3.566   4.237   3.234 -0.6873  0.3414 -0.2954
 4701TIP3    H214110   3.556   4.091   3.270 -0.6562  0.5333  0.5084
 4702TIP3   OH214111   5.970   3.346   0.176  0.3556 -0.5807 -0.0459
 4702TIP3    H114112   5.878   3.321   0.190  0.6955 -1.2844  1.0872
 4702TIP3    H214113   5.968   3.402   0.099 -1.0868 -0.2310  0.2085
 4703TIP3   OH214114   1.446   0.641   1.527  0.6080 -0.1639  0.4523
 4703TIP3    H114115   1.415   0.566   1.476 -0.3601 -0.5343  1.5453
 4703TIP3    H214116   1.367   0.690   1.549  1.2274  1.2130 -0.2554
 4704TIP3   OH214117   4.908   0.916   1.301  0.2387  0.1753  1.2916
 4704TIP3    H114118   4.936   0.861   1.228 -0.1476  1.1795  0.3541
 4704TIP3    H214119   4.979   0.978   1.313 -0.8420  1.7894 -0.1240
 4705TIP3   OH214120   2.405   3.038   4.676  0.7100 -0.4007  0.0618
 4705TIP3    H114121   2.370   2.972   4.736  1.0051  0.1220  0.8366
 4705TIP3    H214122   2.337   3.050   4.611 -0.1341 -0.1388  0.9609
 4706TIP3   OH214123   2.084   2.017   1.319 -0.3080 -0.2404 -0.0174
 4706TIP3    H114124   2.176   2.007   1.345 -0.4651  0.6290  0.9086
 4706TIP3    H214125   2.087   2.084   1.251 -0.3339  0.3447  0.5507
 4707TIP3   OH214126   3.769   4.208   2.358 -0.3111 -0.1128 -0.2330
 4707TIP3    H114127   3.732   4.133   2.312 -1.8057  1.4766 -1.8069
 4707TIP3    H214128   3.827   4.249   2.293  0.9682 -0.2031  0.8091
 4708TIP3   OH214129   5.061   0.040   4.414  0.1154  0.6660 -0.8552
 4708TIP3    H114130   5.074   0.019   4.322  1.5315 -2.0012 -0.1483
 4708TIP3    H214131   5.132   0.101   4.435  0.1939  0.7503 -1.3602
 4709TIP3   OH214132   2.294   2.413   0.095  0.0725  0.7928 -0.5005
 4709TIP3    H114133   2.199   2.402   0.097 -0.0174  1.3008 -1.4072
 4709TIP3    H214134   2.321   2.400   0.186 -0.9505  1.3813 -0.0837
 4710TIP3   OH214135   0.486   1.138   0.196  0.1308 -0.3613 -0.4312
 4710TIP3    H114136   0.513   1.160   0.107 -0.3206  0.3854 -0.3953
 4710TIP3    H214137   0.400   1.180   0.206  0.2328 -0.3323  0.3982
 4711TIP3   OH214138   3.147   2.289   0.424 -0.6044  0.3287  0.3131
 4711TIP3    H114139   3.171   2.234   0.350  1.0083  0.5226  0.6394
 4711TIP3    H214140   3.088   2.235   0.477  1.8708 -1.6441  1.2627
 4712TIP3   OH214141   0.938   4.590   0.815  0.0503 -0.8029  0.1016
 4712TIP3    H114142   0.872   4.534   0.776 -0.9866  0.8417 -0.6283
 4712TIP3    H214143   0.889   4.657   0.862  1.1312  0.8197 -0.9641
 4713TIP3   OH214144   4.937   0.935   2.440  0.0040 -0.1951  0.4782
 4713TIP3    H114145   4.883   0.918   2.517 -0.8092 -0.7563 -0.1974
 4713TIP3    H214146   5.007   0.991   2.472 -0.5583 -0.0663  1.5369
 4714TIP3   OH214147   0.205   4.157   4.605  0.4111  0.1134 -0.3065
 4714TIP3    H114148   0.278   4.154   4.544 -0.2211  2.1177 -1.2539
 4714TIP3    H214149   0.159   4.239   4.585 -0.8390  0.0053  1.7066
 4715TIP3   OH214150   1.322   5.906   2.612 -0.4117  0.1012 -0.5362
 4715TIP3    H114151   1.368   5.934   2.691 -1.6443  1.5702 -0.2821
 4715TIP3    H214152   1.257   5.844   2.643 -0.3276  0.0179 -0.5250
 4716TIP3   OH214153   5.995   1.911   1.266  0.0730 -0.1914  0.0675
 4716TIP3    H114154   5.914   1.949   1.232 -0.8563 -1.0972  1.2080
 4716TIP3    H214155   5.972   1.822   1.291  0.1527  0.8761  4.7233
 4717TIP3   OH214156   0.337   0.149   0.921 -0.1327 -0.0969 -0.6540
 4717TIP3    H114157   0.366   0.074   0.973  0.2331  0.8299  0.5173
 4717TIP3    H214158   0.279   0.111   0.855  0.4698 -1.4730 -0.4377
 4718TIP3   OH214159   1.080   2.728   2.019 -0.0845 -0.3504 -0.5825
 4718TIP3    H114160   1.014   2.796   2.006 -0.8700 -0.6015  1.7366
 4718TIP3    H214161   1.055   2.685   2.100  2.6736 -0.7550  0.1539
 4719TIP3   OH214162   3.592   4.229   1.545 -0.1277 -0.0770  0.2376
 4719TIP3    H114163   3.512   4.272   1.515 -0.4642 -1.3489 -0.7963
 4719TIP3    H214164   3.650   4.229   1.468  0.6414  0.3035  0.8063
 4720TIP3   OH214165   3.122   0.235   2.327 -0.0831 -0.0955 -0.6166
 4720TIP3    H114166   3.193   0.201   2.382  0.4261  0.9888 -0.5867
 4720TIP3    H214167   3.146   0.207   2.238  0.9993  1.2062 -0.7709
 4721TIP3   OH214168   4.884   0.476  -0.012 -0.9180  0.2852  0.5721
 4721TIP3    H114169   4.834   0.466   0.069 -0.9555 -0.1929  0.4953
 4721TIP3    H214170   4.884   0.388  -0.051 -2.8253  0.9597 -1.0927
 4722TIP3   OH214171   1.841   1.779   3.190 -0.1268  0.2214 -0.2405
 4722TIP3    H114172   1.807   1.782   3.280  0.0912  0.6265 -0.1695
 4722TIP3    H214173   1.766   1.803   3.136  0.0844  1.3105 -0.0692
 4723TIP3   OH214174   0.355   2.383   4.992  0.4200 -0.5675  0.0428
 4723TIP3    H114175   0.415   2.311   4.972  2.2711  0.8006  0.3775
 4723TIP3    H214176   0.394   2.425   5.068 -0.4219  1.0129 -0.3695
 4724TIP3   OH214177   1.473   5.283   0.088 -0.2125  0.3183 -0.0883
 4724TIP3    H114178   1.497   5.370   0.057 -0.2554  0.8544  1.3152
 4724TIP3    H214179   1.538   5.262   0.155 -1.2905  0.0839  0.9291
 4725TIP3   OH214180   2.529   2.474   1.416  0.1510 -0.1293  0.0177
 4725TIP3    H114181   2.532   2.530   1.494  0.1913 -0.4812  0.2693
 4725TIP3    H214182   2.539   2.385   1.450  0.7373 -0.2409 -0.4418
 4726TIP3   OH214183   2.910   1.527   2.715  0.8954  0.0717 -0.2162
 4726TIP3    H114184   2.876   1.487   2.635 -0.0715 -1.6496  0.9990
 4726TIP3    H214185   2.837   1.581   2.747  0.3088 -1.2705  0.8137
 4727TIP3   OH214186   2.324   2.554   0.884  0.4934  0.1046  0.0405
 4727TIP3    H114187   2.330   2.586   0.974  1.0576  1.4579 -0.4488
 4727TIP3    H214188   2.411   2.571   0.847 -0.2572  1.2750 -1.2862
 4728TIP3   OH214189   2.608   5.722   4.886  0.0199  0.5565 -0.0648
 4728TIP3    H114190   2.654   5.698   4.967  0.9241 -0.0150 -0.7309
 4728TIP3    H214191   2.580   5.639   4.848  2.0543  0.5437 -1.7361
 4729TIP3   OH214192   2.662   4.250   4.050  0.2553 -0.1359  0.2482
 4729TIP3    H114193   2.743   4.280   4.008  0.1481 -0.1149  0.0558
 4729TIP3    H214194   2.596   4.312   4.020 -0.0524 -0.8149 -0.4901
 4730TIP3   OH214195   5.966   4.680   3.020  0.2843 -0.6292 -0.6708
 4730TIP3    H114196   5.910   4.618   2.973 -0.5760  0.1333 -0.6902
 4730TIP3    H214197   6.018   4.626   3.079  0.3654 -1.4649 -1.4944
 4731TIP3   OH214198   6.194   5.282   1.205 -0.0810  0.4584  0.6598
 4731TIP3    H114199   6.165   5.199   1.168 -1.4779  0.7957  0.9569
 4731TIP3    H214200   6.290   5.277   1.203 -0.1156 -0.2645 -1.3408
 4732TIP3   OH214201   3.983   5.734   0.694  0.3890  0.7423  0.0266
 4732TIP3    H114202   4.032   5.787   0.756  0.3559 -0.7487  1.4048
 4732TIP3    H214203   4.000   5.644   0.720 -1.8129  0.1253 -0.4257
 4733TIP3   OH214204   3.689   5.663   1.169  0.4070  0.0086  0.0237
 4733TIP3    H114205   3.764   5.604   1.169  1.5924  1.4311 -0.6930
 4733TIP3    H214206   3.614   5.607   1.187  1.6064 -1.5015  0.5575
 4734TIP3   OH214207   0.747   0.839   0.429 -0.1443 -0.2204  0.2221
 4734TIP3    H114208   0.831   0.879   0.455 -0.3682  0.2925  0.1641
 4734TIP3    H214209   0.726   0.880   0.345 -1.3191  0.9708  1.0647
 4735TIP3   OH214210   0.261   0.830   3.978 -0.0141  0.3060 -0.0445
 4735TIP3    H114211   0.266   0.917   3.938 -0.6915  0.9648  1.2154
 4735TIP3    H214212   0.351   0.797   3.976  0.2233  0.9639 -0.6865
 4736TIP3   OH214213   5.131   0.909   4.565 -0.1770 -0.0360  0.2398
 4736TIP3    H114214   5.110   0.817   4.582  2.7169 -0.5643  1.6616
 4736TIP3    H214215   5.177   0.909   4.481  0.4885 -0.0369  0.5952
 4737TIP3   OH214216   4.923   5.386   3.459 -1.1196  0.3570 -0.3431
 4737TIP3    H114217   5.002   5.438   3.444  0.0110 -1.4665 -0.9400
 4737TIP3    H214218   4.951   5.314   3.515 -1.8516 -1.4208 -2.1410
 4738TIP3   OH214219   3.219   3.555   2.840 -0.2068 -0.0496  0.4157
 4738TIP3    H114220   3.298   3.598   2.808 -2.2570  2.9060 -1.1447
 4738TIP3    H214221   3.208   3.589   2.929  0.5037 -0.8642  0.8263
 4739TIP3   OH214222   4.290   2.268   0.117 -0.4043 -0.0735 -0.8388
 4739TIP3    H114223   4.225   2.283   0.048 -1.7315  0.2047  0.4195
 4739TIP3    H214224   4.258   2.191   0.164  0.8680 -0.6926 -0.9429
 4740TIP3   OH214225   3.011   2.386   0.939 -0.4288  0.1807  0.2173
 4740TIP3    H114226   2.984   2.295   0.944  0.6836 -0.1655  0.1516
 4740TIP3    H214227   2.930   2.435   0.925 -1.0265 -0.7938  0.2322
 4741TIP3   OH214228   1.552   4.615   3.665  0.1287  0.5145  0.1261
 4741TIP3    H114229   1.537   4.707   3.644 -1.8355 -0.0058 -1.0333
 4741TIP3    H214230   1.586   4.577   3.584  1.0665  0.2119  0.6391
 4742TIP3   OH214231   5.422   0.225   3.044  0.0896 -0.0754  0.6509
 4742TIP3    H114232   5.515   0.246   3.053 -0.1547  1.4356 -0.0478
 4742TIP3    H214233   5.398   0.258   2.957 -0.9450 -1.0785  0.5310
 4743TIP3   OH214234   2.089   2.774   5.133 -0.7659  0.4286  0.5621
 4743TIP3    H114235   2.000   2.803   5.153 -0.8791  0.0029  0.6899
 4743TIP3    H214236   2.098   2.787   5.039 -0.3495  2.1195  0.8083
 4744TIP3   OH214237   5.743   2.925   4.422  0.0605 -0.0724  0.7061
 4744TIP3    H114238   5.768   3.013   4.451  1.5846 -0.6074  1.0716
 4744TIP3    H214239   5.806   2.867   4.464 -0.8779 -1.3510  0.3997
 4745TIP3   OH214240   5.090   1.259   2.750 -0.4304 -0.3565  0.0139
 4745TIP3    H114241   5.063   1.349   2.768  0.7304  0.0010  0.0792
 4745TIP3    H214242   5.063   1.210   2.828  0.7719  0.3601  0.9174
 4746TIP3   OH214243   0.693   3.185   3.038 -0.5173 -0.0854 -0.0901
 4746TIP3    H114244   0.717   3.230   2.957  0.6707  0.2162  0.3997
 4746TIP3    H214245   0.602   3.210   3.053 -0.2018  1.3791 -0.3654
 4747TIP3   OH214246   2.698   0.406   4.158  0.1039  0.1053  0.3107
 4747TIP3    H114247   2.748   0.480   4.125 -1.0020  0.0660 -1.5653
 4747TIP3    H214248   2.607   0.433   4.151 -0.2533 -0.7141  1.4410
 4748TIP3   OH214249   2.930   0.044   2.448 -0.4385 -0.2107  0.7034
 4748TIP3    H114250   2.835   0.036   2.439 -0.5575  0.5294  1.2303
 4748TIP3    H214251   2.948   0.137   2.433 -0.1439  0.2350  3.3479
 4749TIP3   OH214252   1.120   0.743   1.869 -0.3378 -0.1637 -0.3790
 4749TIP3    H114253   1.107   0.804   1.796 -2.8141  0.9208  0.8457
 4749TIP3    H214254   1.204   0.770   1.908 -0.9699  2.0038 -0.3735
 4750TIP3   OH214255   0.267   2.890   4.537  0.4736  0.1419  0.2888
 4750TIP3    H114256   0.358   2.860   4.526  0.5944  0.1283  1.2275
 4750TIP3    H214257   0.266   2.931   4.624 -0.5712 -0.4198  0.5540
 4751TIP3   OH214258   2.163   0.709   0.589  0.1467  0.1763  0.5218
 4751TIP3    H114259   2.126   0.699   0.501 -0.6659  0.6811  0.7957
 4751TIP3    H214260   2.140   0.627   0.634 -1.3902  0.8029  0.9432
 4752TIP3   OH214261   6.218   1.443   1.919 -0.0702  0.1415  0.0817
 4752TIP3    H114262   6.265   1.523   1.943  0.2688 -0.1320  0.3507
 4752TIP3    H214263   6.281   1.373   1.936  0.2443 -0.0589 -1.7965
 4753TIP3   OH214264   3.794   3.157   2.572  0.1068 -1.0352  0.2682
 4753TIP3    H114265   3.738   3.226   2.606  0.5513 -0.7660  0.4676
 4753TIP3    H214266   3.749   3.125   2.494 -0.4270 -0.9727  0.5500
 4754TIP3   OH214267   1.940   1.579   0.479 -0.0608 -0.7629  0.0576
 4754TIP3    H114268   1.960   1.581   0.385 -2.5211  0.4767 -0.5242
 4754TIP3    H214269   1.922   1.486   0.497 -0.8128 -0.8443 -1.0165
 4755TIP3   OH214270   2.234   3.027   3.582 -0.1567 -0.0291  0.3256
 4755TIP3    H114271   2.196   2.947   3.546  0.5646 -0.1969 -0.0915
 4755TIP3    H214272   2.203   3.029   3.672 -2.6717  0.8277 -0.4778
 4756TIP3   OH214273   3.795   3.599   4.303  0.1102 -0.2080  0.1829
 4756TIP3    H114274   3.704   3.574   4.288 -0.3302 -0.5957  3.0658
 4756TIP3    H214275   3.830   3.616   4.215 -2.3627 -1.2689 -1.0921
 4757TIP3   OH214276   3.155   1.611   5.101 -0.6213 -0.2302 -0.4187
 4757TIP3    H114277   3.100   1.556   5.156 -2.1514  3.3935  2.0373
 4757TIP3    H214278   3.241   1.607   5.143 -1.2400  0.7861  1.0187
 4758TIP3   OH214279   4.572   0.737   4.767 -0.6942 -0.9336  0.1994
 4758TIP3    H114280   4.614   0.665   4.814  0.2003  0.1412  1.1162
 4758TIP3    H214281   4.613   0.816   4.803 -0.9211  0.0004 -1.4660
 4759TIP3   OH214282   5.938   1.884   3.472 -0.4225 -0.0132  0.0693
 4759TIP3    H114283   5.996   1.894   3.397  0.5294  0.1424  0.8020
 4759TIP3    H214284   5.875   1.818   3.445  0.4042 -0.5636 -0.5755
 4760TIP3   OH214285   0.958   0.598   0.163 -0.0560 -0.0514  0.3998
 4760TIP3    H114286   0.996   0.628   0.245  0.5754 -0.2050  0.1680
 4760TIP3    H214287   0.997   0.655   0.097  1.5144 -1.6083 -0.1073
 4761TIP3   OH214288   1.092   1.867   4.356  0.0620 -0.4272 -0.3280
 4761TIP3    H114289   1.081   1.792   4.297 -0.3721 -0.5905 -0.0419
 4761TIP3    H214290   1.187   1.878   4.363  0.1481  0.5608 -2.2774
 4762TIP3   OH214291   5.391   1.353   2.135  0.5100 -0.7671  0.1914
 4762TIP3    H114292   5.441   1.394   2.206  1.2801 -2.2431  0.5417
 4762TIP3    H214293   5.448   1.357   2.059 -0.0865  0.2931 -0.2214
 4763TIP3   OH214294   3.408   0.022   4.418  0.2842  0.3507  0.0005
 4763TIP3    H114295   3.408  -0.004   4.326 -1.5481 -2.2352  0.6196
 4763TIP3    H214296   3.492  -0.008   4.452  0.8013  0.9595 -0.7144
 4764TIP3   OH214297   0.842   2.883   4.735 -0.2948 -0.6630  0.2998
 4764TIP3    H114298   0.748   2.871   4.748 -0.2953 -1.1890 -0.1960
 4764TIP3    H214299   0.851   2.975   4.709 -1.0722 -1.4924 -3.2929
 4765TIP3   OH214300   3.239   1.051   3.983 -0.3353  0.1154 -0.1926
 4765TIP3    H114301   3.199   0.969   4.010 -0.8140 -0.2532 -1.8875
 4765TIP3    H214302   3.330   1.045   4.012  0.5407 -2.4388 -2.9473
 4766TIP3   OH214303   0.432   1.399   4.939  0.3583  0.1818  0.2103
 4766TIP3    H114304   0.384   1.459   4.881 -0.1922 -0.3464  0.1046
 4766TIP3    H214305   0.494   1.455   4.986 -0.4662  0.9199  0.4534
 4767TIP3   OH214306   0.239   2.910   0.655  0.1708  0.0558  0.1419
 4767TIP3    H114307   0.160   2.869   0.690 -0.7737 -0.4294 -2.3954
 4767TIP3    H214308   0.310   2.878   0.711 -1.0514 -1.8191  0.6959
 4768TIP3   OH214309   2.964   5.724   2.102 -0.0982  0.2315  0.0884
 4768TIP3    H114310   2.881   5.770   2.087 -0.7441 -0.9595 -0.1022
 4768TIP3    H214311   3.030   5.793   2.102 -1.0095  1.1244 -0.4526
 4769TIP3   OH214312   1.135   1.695   3.389 -0.0090  0.7348  0.1634
 4769TIP3    H114313   1.113   1.660   3.302  1.8554  2.4811 -1.1199
 4769TIP3    H214314   1.140   1.619   3.446 -1.4573 -0.4451 -1.2153
 4770TIP3   OH214315   4.011   2.194   4.306 -0.1431 -0.5414 -0.0713
 4770TIP3    H114316   3.920   2.205   4.332 -0.2547  0.2054 -0.7591
 4770TIP3    H214317   4.028   2.101   4.317 -1.1613 -0.7867 -0.4963
 4771TIP3   OH214318   1.522   3.030   0.781  0.6859 -0.2557  0.1408
 4771TIP3    H114319   1.441   2.980   0.798 -0.1777  0.7965 -0.7216
 4771TIP3    H214320   1.560   2.988   0.704 -0.3761  0.7419 -0.9776
 4772TIP3   OH214321   2.745   1.992   2.529  0.2226  0.5081  0.5109
 4772TIP3    H114322   2.790   2.048   2.592  1.6903  0.4432 -0.4322
 4772TIP3    H214323   2.694   2.053   2.476  2.2266  1.0964 -0.8536
 4773TIP3   OH214324   3.293   3.587   4.901  0.5297  0.4582 -0.0928
 4773TIP3    H114325   3.371   3.569   4.849 -0.4353 -0.5042 -1.2632
 4773TIP3    H214326   3.288   3.682   4.904 -0.0584  0.6033 -2.8829
 4774TIP3   OH214327   1.635   4.967   0.640 -0.0003 -0.0441  0.2761
 4774TIP3    H114328   1.558   4.927   0.599  0.6706 -1.0248 -0.0619
 4774TIP3    H214329   1.706   4.951   0.578  0.5827  0.3953  0.8214
 4775TIP3   OH214330   4.034   3.249   0.152 -0.5528  0.0576  0.3559
 4775TIP3    H114331   3.943   3.221   0.162 -0.9615  0.7390 -1.1082
 4775TIP3    H214332   4.086   3.180   0.193 -1.6680 -1.0540 -0.0500
 4776TIP3   OH214333   2.624   0.845   1.140  0.6179 -0.5305 -0.5110
 4776TIP3    H114334   2.546   0.793   1.154  0.7827 -0.6438 -0.0183
 4776TIP3    H214335   2.687   0.814   1.205  0.9149 -0.1240 -0.5962
 4777TIP3   OH214336   0.137   3.283   0.784 -0.5982 -0.9231  0.9733
 4777TIP3    H114337   0.044   3.274   0.762 -0.7070 -1.0560  1.4855
 4777TIP3    H214338   0.139   3.286   0.879 -0.1190 -0.4033  0.9517
 4778TIP3   OH214339   3.252   1.465   4.896  0.4127  0.4425 -0.3880
 4778TIP3    H114340   3.179   1.411   4.866  1.9106 -2.0660  0.2442
 4778TIP3    H214341   3.224   1.499   4.981 -0.0357 -0.4462 -0.1758
 4779TIP3   OH214342   0.579   2.078   4.447 -0.4620  0.5415 -0.3442
 4779TIP3    H114343   0.532   2.159   4.427 -0.7788  0.1975 -1.0100
 4779TIP3    H214344   0.650   2.105   4.505 -1.0846  1.1650  0.1375
 4780TIP3   OH214345   4.882   4.293   4.204  0.4982  0.1964  0.0876
 4780TIP3    H114346   4.794   4.258   4.215  0.6864 -0.1791  0.4471
 4780TIP3    H214347   4.873   4.363   4.140  0.1355 -0.5966 -0.7478
 4781TIP3   OH214348   5.385   4.278   4.303 -0.3793 -0.3864 -0.2486
 4781TIP3    H114349   5.332   4.290   4.224  1.1276  1.3359 -1.0991
 4781TIP3    H214350   5.350   4.199   4.345 -2.3362 -0.3738 -1.7197
 4782TIP3   OH214351   4.720   0.135   0.186  0.6023 -0.0019  0.4295
 4782TIP3    H114352   4.689   0.055   0.228 -0.9759  0.0487 -0.5371
 4782TIP3    H214353   4.816   0.129   0.190  0.5001 -1.1888  1.7150
 4783TIP3   OH214354   0.677   0.659   0.138  0.1053  0.0590 -0.3013
 4783TIP3    H114355   0.678   0.713   0.059 -0.1480  0.7366  0.1472
 4783TIP3    H214356   0.765   0.666   0.173  0.9553 -2.1593 -1.7609
 4784TIP3   OH214357   4.374   5.321   4.999  0.6565 -0.1423 -0.6032
 4784TIP3    H114358   4.404   5.298   5.087  1.9520 -0.4053 -1.0933
 4784TIP3    H214359   4.419   5.260   4.942  3.1169  2.5869 -1.8370
 4785TIP3   OH214360   2.069   1.297   3.265  0.4107  0.0309  0.6391
 4785TIP3    H114361   1.973   1.300   3.267  0.2640  1.2692 -2.4311
 4785TIP3    H214362   2.089   1.217   3.215  0.9147  0.3266  0.3596
 4786TIP3   OH214363   1.696   5.477   2.672  0.3849 -0.3707  0.1220
 4786TIP3    H114364   1.604   5.504   2.684 -0.1711 -2.4521  0.9196
 4786TIP3    H214365   1.746   5.548   2.712 -0.8685  0.6363  0.0014
 4787TIP3   OH214366   0.688   5.468   5.009  0.4675 -0.8470  0.0761
 4787TIP3    H114367   0.713   5.424   4.927 -0.2601  0.3970 -0.8513
 4787TIP3    H214368   0.611   5.421   5.039  0.1235 -0.6760 -0.5234
 4788TIP3   OH214369   3.747   3.874   0.368 -0.0568 -0.5963 -0.0927
 4788TIP3    H114370   3.839   3.874   0.342 -0.2908  0.3808 -0.9964
 4788TIP3    H214371   3.748   3.895   0.462  0.7059 -2.3431  0.3221
 4789TIP3   OH214372   5.681   3.286   3.182  0.1797 -0.5457 -0.1317
 4789TIP3    H114373   5.740   3.310   3.254  0.5384 -1.1198 -0.2300
 4789TIP3    H214374   5.606   3.246   3.226 -1.0857  1.9545  0.1432
 4790TIP3   OH214375   2.330   5.192   2.890 -0.3186 -0.0555  0.0914
 4790TIP3    H114376   2.257   5.139   2.856 -2.0756  2.8960 -1.0554
 4790TIP3    H214377   2.301   5.219   2.977 -0.6060  1.0594 -0.3350
 4791TIP3   OH214378   3.750   5.504   0.368 -0.1630  0.0748 -0.3569
 4791TIP3    H114379   3.699   5.454   0.432  0.9694  0.8807  1.2383
 4791TIP3    H214380   3.713   5.592   0.369  1.4069  0.7786  1.1040
 4792TIP3   OH214381   6.009   4.422   1.541 -0.2426  0.1040 -0.0253
 4792TIP3    H114382   6.016   4.482   1.467 -2.2252  0.4782  0.0276
 4792TIP3    H214383   5.932   4.368   1.521  0.2883 -1.0382  0.8992
 4793TIP3   OH214384   4.062   4.485   1.571  0.5445  0.3509 -0.2977
 4793TIP3    H114385   4.145   4.439   1.585  0.9993  0.8045 -1.4175
 4793TIP3    H214386   4.006   4.456   1.643  1.2169 -1.0193 -0.3105
 4794TIP3   OH214387   5.755   1.145   3.910 -0.4005  0.1263  0.6086
 4794TIP3    H114388   5.775   1.145   4.004  0.7327  0.2771  0.3923
 4794TIP3    H214389   5.724   1.056   3.892 -2.9451  0.7396  1.5400
 4795TIP3   OH214390   3.208   0.143   2.049 -0.2044 -0.3783 -0.0150
 4795TIP3    H114391   3.300   0.137   2.025 -0.5825 -0.2370 -1.5812
 4795TIP3    H214392   3.173   0.055   2.035 -0.9728  0.2557 -2.4369
 4796TIP3   OH214393   1.624   0.304   0.088 -0.1925  0.3476  0.1126
 4796TIP3    H114394   1.604   0.211   0.091 -0.9646  0.4896 -0.1823
 4796TIP3    H214395   1.551   0.342   0.038  1.1477  0.8449 -1.5557
 4797TIP3   OH214396   4.531   0.689   2.982  0.2214 -0.1952 -0.1091
 4797TIP3    H114397   4.561   0.606   3.019  0.9228  0.5708  1.1254
 4797TIP3    H214398   4.448   0.707   3.025  1.6179  1.3033  2.1877
 4798TIP3   OH214399   1.168   5.402   1.676  0.6242  0.1539  0.1967
 4798TIP3    H114400   1.154   5.325   1.621  0.0724  1.2079 -1.1880
 4798TIP3    H214401   1.098   5.399   1.741  0.8019 -0.6754  0.3542
 4799TIP3   OH214402   2.107   3.568   5.107 -0.1549  0.4567  0.0746
 4799TIP3    H114403   2.154   3.587   5.026 -1.3769 -1.8321 -1.2923
 4799TIP3    H214404   2.140   3.483   5.135 -0.8234  0.5278  1.1316
 4800TIP3   OH214405   5.680   0.304   0.971  0.3562  0.1770 -0.9026
 4800TIP3    H114406   5.634   0.352   0.902 -1.0850  0.9754  0.5528
 4800TIP3    H214407   5.611   0.271   1.028  1.4998 -0.6188  0.0859
 4801TIP3   OH214408   0.074   0.900   2.141 -0.6241 -0.7501  0.1931
 4801TIP3    H114409   0.140   0.846   2.097  0.8441  1.5943 -0.6837
 4801TIP3    H214410   0.125   0.971   2.181 -2.4260 -0.1824  1.6083
 4802TIP3   OH214411   2.164   0.292   2.668  0.3318 -0.1774 -0.6106
 4802TIP3    H114412   2.255   0.320   2.665  0.5423 -0.2606  2.4792
 4802TIP3    H214413   2.168   0.197   2.674 -0.0311 -0.2400 -1.2030
 4803TIP3   OH214414   3.136   3.771   4.660  0.0287  0.5461 -0.0329
 4803TIP3    H114415   3.179   3.813   4.586  2.2783 -0.3867  0.6580
 4803TIP3    H214416   3.167   3.819   4.737 -2.9130  2.0388  0.3606
 4804TIP3   OH214417   2.410   3.206   2.812  0.6657  0.0154 -0.3323
 4804TIP3    H114418   2.365   3.124   2.791  1.0052  0.2833 -2.3286
 4804TIP3    H214419   2.451   3.190   2.896 -1.0315 -1.1199  0.3427
 4805TIP3   OH214420   2.791   5.655   0.795  0.1089  0.5985 -0.0897
 4805TIP3    H114421   2.868   5.600   0.809 -0.5658 -0.6885 -1.1993
 4805TIP3    H214422   2.824   5.745   0.799  1.0537  0.2468  3.0264
 4806TIP3   OH214423   4.907   4.198   0.311  0.8024 -0.1851  0.1009
 4806TIP3    H114424   4.865   4.114   0.330  0.1105  0.2630  0.5838
 4806TIP3    H214425   4.888   4.252   0.388 -0.1747  0.9584 -0.9025
 4807TIP3   OH214426   6.100   2.852   2.590 -0.0328  0.6777  0.0565
 4807TIP3    H114427   6.186   2.849   2.548 -1.1081  2.4921 -2.5670
 4807TIP3    H214428   6.042   2.888   2.523 -2.3291  2.0572  2.5735
 4808TIP3   OH214429   5.552   2.408   3.575  0.0974 -0.0712 -0.0056
 4808TIP3    H114430   5.570   2.455   3.493  1.7370  0.1608  0.4461
 4808TIP3    H214431   5.461   2.380   3.567  0.6607 -1.4963 -2.6412
 4809TIP3   OH214432   0.560   2.154   0.779 -0.1246 -0.2076  0.3820
 4809TIP3    H114433   0.641   2.104   0.769 -1.2885 -2.3041  0.8057
 4809TIP3    H214434   0.586   2.245   0.764  2.9200 -0.3691  3.4495
 4810TIP3   OH214435   1.917   1.094   1.338  0.7354  0.2715  0.0036
 4810TIP3    H114436   1.843   1.095   1.398 -0.8378  0.8615 -1.8334
 4810TIP3    H214437   1.959   1.180   1.351  0.5375  0.3147  0.3830
 4811TIP3   OH214438   6.246   5.715   4.308  0.0394 -0.0250  0.1382
 4811TIP3    H114439   6.297   5.752   4.380 -0.6270 -0.7885  1.0129
 4811TIP3    H214440   6.203   5.791   4.269 -0.7403  0.2398  1.4638
 4812TIP3   OH214441   6.147   4.564   0.964 -0.5110 -0.4637 -0.7191
 4812TIP3    H114442   6.229   4.606   0.937 -0.2504 -0.7999 -0.4794
 4812TIP3    H214443   6.097   4.633   1.006 -0.5687 -0.1327 -1.3257
 4813TIP3   OH214444   4.431   4.121   1.178 -0.0747  0.1070 -0.8716
 4813TIP3    H114445   4.478   4.186   1.126  1.1870 -0.3470 -0.3151
 4813TIP3    H214446   4.422   4.162   1.264  1.9261 -0.9384 -0.1080
 4814TIP3   OH214447   6.295   2.986   4.657 -0.0089  0.3423 -0.1660
 4814TIP3    H114448   6.365   3.046   4.630 -0.9980  1.5388 -0.1496
 4814TIP3    H214449   6.243   2.973   4.578  1.2676 -2.0991 -0.6997
 4815TIP3   OH214450   2.098   2.791   4.859 -0.5810  0.1113 -0.0587
 4815TIP3    H114451   2.034   2.724   4.836 -0.7800  0.0503  0.6461
 4815TIP3    H214452   2.097   2.852   4.785  0.0358 -0.9638 -0.9955
 4816TIP3   OH214453   2.135   4.667   0.844  0.2735  0.0000 -0.5526
 4816TIP3    H114454   2.202   4.724   0.808  0.4407  0.1133 -0.0649
 4816TIP3    H214455   2.182   4.590   0.876  0.5139  1.0663  1.9215
 4817TIP3   OH214456   4.732   0.956   3.085 -0.5966 -0.4708  0.1051
 4817TIP3    H114457   4.713   0.875   3.039 -1.5486  0.1165 -0.5756
 4817TIP3    H214458   4.653   0.974   3.136 -0.1674 -0.2751  0.7127
 4818TIP3   OH214459   1.277   5.911   2.297 -0.4516  0.3112 -0.5626
 4818TIP3    H114460   1.182   5.914   2.305 -0.4970  0.2337 -1.0523
 4818TIP3    H214461   1.308   5.905   2.387 -0.8686  1.3763 -0.3292
 4819TIP3   OH214462   5.845   0.168   4.073 -0.5488 -0.3331 -0.0939
 4819TIP3    H114463   5.916   0.172   4.009  0.4469  0.0585  1.0070
 4819TIP3    H214464   5.772   0.129   4.025  0.2199 -0.2027 -1.4180
 4820TIP3   OH214465   4.030   5.571   3.746  0.3222 -0.1840  0.1242
 4820TIP3    H114466   3.967   5.633   3.710 -0.0157 -0.6072 -0.0222
 4820TIP3    H214467   4.096   5.626   3.788 -0.0979  0.2652  0.2063
 4821TIP3   OH214468   2.377   5.393   4.293 -0.1108 -0.1017 -0.0212
 4821TIP3    H114469   2.407   5.368   4.205  0.1851  0.6842 -0.1533
 4821TIP3    H214470   2.397   5.317   4.348 -0.0408 -0.4917 -0.5767
 4822TIP3   OH214471   5.856   4.985   0.918 -0.2439 -0.0342 -0.2489
 4822TIP3    H114472   5.910   5.057   0.885 -0.7565 -0.2394 -1.5732
 4822TIP3    H214473   5.770   4.998   0.877 -0.5986 -0.9027  0.1874
 4823TIP3   OH214474   0.987   4.200   4.675  0.4590 -0.2038 -0.0423
 4823TIP3    H114475   0.960   4.197   4.583  1.4399 -1.9487 -0.3064
 4823TIP3    H214476   1.083   4.204   4.671  0.4742  0.6741  0.9097
 4824TIP3   OH214477   5.068   2.929   4.528  0.0043 -0.0540  0.5531
 4824TIP3    H114478   5.136   2.972   4.579  0.0823 -0.7303  1.0233
 4824TIP3    H214479   5.006   2.999   4.507 -0.8359 -0.0069  2.8787
 4825TIP3   OH214480   4.719   0.570   1.347 -0.4465 -0.0829  0.0450
 4825TIP3    H114481   4.662   0.505   1.390  0.2450 -0.3329  0.5925
 4825TIP3    H214482   4.777   0.518   1.292 -0.6826  0.1659 -0.4381
 4826TIP3   OH214483   1.191   4.822   0.838 -0.0418  0.1091  0.0724
 4826TIP3    H114484   1.160   4.759   0.904 -0.4826  1.3996  1.1517
 4826TIP3    H214485   1.277   4.789   0.812 -0.6447 -1.4230 -0.0765
 4827TIP3   OH214486   1.625   3.535   1.806 -0.0395 -0.9360  0.1766
 4827TIP3    H114487   1.705   3.482   1.803 -0.6260 -1.8332 -0.6292
 4827TIP3    H214488   1.569   3.489   1.869 -1.2917 -2.4680 -1.9123
 4828TIP3   OH214489   0.083   0.483   4.322 -0.3947 -0.2139 -0.3703
 4828TIP3    H114490   0.110   0.392   4.334 -2.2559 -0.7073  0.3506
 4828TIP3    H214491   0.012   0.496   4.385  0.5981  2.1004  0.3975
 4829TIP3   OH214492   0.116   0.679   3.781  0.0091  1.2066 -0.2299
 4829TIP3    H114493   0.146   0.753   3.729  0.6654  1.3100  0.2792
 4829TIP3    H214494   0.124   0.708   3.872  0.8326  0.3203 -0.0050
 4830TIP3   OH214495   4.225   4.288   1.685 -0.2156  0.3363  0.2376
 4830TIP3    H114496   4.231   4.196   1.657 -0.6191 -0.3545  2.2501
 4830TIP3    H214497   4.310   4.325   1.661  1.1349 -1.3903  1.9870
 4831TIP3   OH214498   6.241   3.696   5.150  0.1217  0.2015  0.0417
 4831TIP3    H114499   6.321   3.740   5.121  0.2677 -0.1534 -0.1071
 4831TIP3    H214500   6.260   3.603   5.138 -0.9827  0.1563 -1.7969
 4832TIP3   OH214501   5.589   4.251   3.332  0.2078 -1.2100  0.1629
 4832TIP3    H114502   5.661   4.261   3.394  0.6324  0.7595 -0.5966
 4832TIP3    H214503   5.522   4.203   3.381  1.7597 -2.5575  1.0716
 4833TIP3   OH214504   4.624   0.055   2.530 -0.3825  0.1262  0.4059
 4833TIP3    H114505   4.602   0.104   2.451 -0.8535 -1.7699 -0.6788
 4833TIP3    H214506   4.700   0.101   2.565 -0.8939  1.7299 -0.4416
 4834TIP3   OH214507   5.561   4.495   1.272 -0.3704  0.9189 -0.2872
 4834TIP3    H114508   5.502   4.481   1.345 -2.4994  0.2177 -2.0395
 4834TIP3    H214509   5.559   4.590   1.258 -1.2790  0.8826 -0.4600
 4835TIP3   OH214510   3.131   5.422   3.902  0.5158 -0.7512  0.1300
 4835TIP3    H114511   3.147   5.328   3.906  0.3073 -0.7643  0.7752
 4835TIP3    H214512   3.039   5.432   3.928  0.0383 -0.5027 -1.4799
 4836TIP3   OH214513   1.185   4.811   2.013 -0.1914 -0.5655  0.2290
 4836TIP3    H114514   1.250   4.798   1.945 -0.4068 -1.5564  0.1918
 4836TIP3    H214515   1.145   4.725   2.025 -0.4451 -0.3162  1.3134
 4837TIP3   OH214516   2.860   4.187   3.804  0.6530 -0.2287 -0.3464
 4837TIP3    H114517   2.869   4.240   3.725 -0.9560  1.0921  0.3118
 4837TIP3    H214518   2.768   4.161   3.806  0.9905 -1.4925  0.3515
 4838TIP3   OH214519   1.384   5.955   3.454 -0.1324  0.0309  0.2054
 4838TIP3    H114520   1.438   5.993   3.385 -1.8810  0.6935 -0.8709
 4838TIP3    H214521   1.444   5.901   3.504  1.8052  1.7398 -0.1116
 4839TIP3   OH214522   1.817   5.074   2.843 -0.4290  0.2610 -0.2400
 4839TIP3    H114523   1.818   4.979   2.838  3.0407  0.2034 -1.8998
 4839TIP3    H214524   1.832   5.103   2.753 -0.1381  2.3162  0.4089
 4840TIP3   OH214525   0.317   0.678   3.085  0.0176  0.3699 -0.0542
 4840TIP3    H114526   0.235   0.630   3.092  0.8021 -0.8316  1.3349
 4840TIP3    H214527   0.327   0.695   2.991 -2.0177  0.9509 -0.2051
 4841TIP3   OH214528   0.556   5.939   2.325  0.2073 -0.0466 -0.4766
 4841TIP3    H114529   0.544   6.025   2.286 -1.9699 -0.9987 -2.1421
 4841TIP3    H214530   0.572   5.881   2.251  0.5137 -1.2459  0.4882
 4842TIP3   OH214531   2.157   0.468   1.833  0.5715 -0.1963  0.4861
 4842TIP3    H114532   2.149   0.514   1.749  0.6054 -1.5195 -0.2772
 4842TIP3    H214533   2.070   0.476   1.873  0.5741  0.5026  0.3651
 4843TIP3   OH214534   0.838   3.992   1.448 -0.3814 -0.2456 -0.2437
 4843TIP3    H114535   0.770   3.994   1.515 -0.4052 -0.8582 -0.2446
 4843TIP3    H214536   0.873   3.903   1.452  0.5491  0.1066 -0.1100
 4844TIP3   OH214537   2.634   3.707   4.274 -0.0863 -0.4022 -0.1493
 4844TIP3    H114538   2.606   3.764   4.345  0.8210  0.6818 -0.6329
 4844TIP3    H214539   2.728   3.724   4.264  0.2703 -2.1561 -0.1670
 4845TIP3   OH214540   4.099   4.619   2.581  0.0176  0.1203 -0.2014
 4845TIP3    H114541   4.181   4.637   2.535 -0.0332  0.5589 -0.1291
 4845TIP3    H214542   4.031   4.637   2.517 -0.0311 -0.0464 -0.1974
 4846TIP3   OH214543   4.391   1.198   2.461  0.3091 -0.1733 -0.1478
 4846TIP3    H114544   4.440   1.281   2.465  0.8188 -0.2670 -2.8125
 4846TIP3    H214545   4.453   1.133   2.493  0.1127  0.3395  1.3801
 4847TIP3   OH214546   0.231   2.922   2.969  0.0732 -0.0187 -0.4467
 4847TIP3    H114547   0.306   2.881   3.011 -0.7627  0.1861  1.3565
 4847TIP3    H214548   0.156   2.872   3.000 -0.6489  0.5432 -1.2269
 4848TIP3   OH214549   2.934   0.068   5.087  0.2628 -0.0268 -0.1587
 4848TIP3    H114550   2.889   0.026   5.013  0.7367  1.2157 -1.1981
 4848TIP3    H214551   3.022   0.085   5.054  0.1726  1.4930  0.3040
 4849TIP3   OH214552   5.098   0.301   4.078  0.1175 -0.1937  0.4664
 4849TIP3    H114553   5.104   0.396   4.074  1.7620 -0.2719  0.4620
 4849TIP3    H214554   5.063   0.275   3.993 -0.8565  0.4161  0.6643
 4850TIP3   OH214555   2.415   0.172   2.890  0.4154 -0.5481  0.3079
 4850TIP3    H114556   2.505   0.196   2.867  0.4129 -0.8978 -0.0752
 4850TIP3    H214557   2.421   0.139   2.980  0.8863 -1.7473 -0.1425
 4851TIP3   OH214558   4.339   1.946   4.825 -0.3751 -0.5393 -0.1648
 4851TIP3    H114559   4.345   2.028   4.873 -1.5507 -0.8461  0.5305
 4851TIP3    H214560   4.363   1.879   4.888  1.4697 -0.6970 -0.9713
 4852TIP3   OH214561   1.587   5.078   4.605 -0.4096 -0.7057  0.3708
 4852TIP3    H114562   1.555   5.101   4.693 -0.7097 -0.6352  0.2464
 4852TIP3    H214563   1.532   5.130   4.546 -0.6380 -1.2334  0.1165
 4853TIP3   OH214564   5.002   4.965   3.283  0.0578  0.4754 -0.4187
 4853TIP3    H114565   5.082   5.003   3.318 -0.6880  0.6470  1.1941
 4853TIP3    H214566   4.990   4.884   3.333 -0.5318  0.2080 -0.9674
 4854TIP3   OH214567   3.808   5.061   4.334  0.3832  0.4206  0.1379
 4854TIP3    H114568   3.728   5.112   4.331 -0.2429 -0.5630 -0.6733
 4854TIP3    H214569   3.791   4.993   4.400  2.2010  2.7298  3.3208
 4855TIP3   OH214570   2.268   3.006   1.461 -0.0859 -0.2888  1.0953
 4855TIP3    H114571   2.195   3.020   1.401  0.6633 -2.0486 -0.3412
 4855TIP3    H214572   2.263   3.078   1.524 -2.1750  0.4233  0.1789
 4856TIP3   OH214573   0.448   3.919   1.829  0.2235 -0.5812 -0.0571
 4856TIP3    H114574   0.405   4.004   1.817  0.2173 -0.2094  2.1971
 4856TIP3    H214575   0.388   3.869   1.884  0.6351 -1.7338 -0.6270
 4857TIP3   OH214576   4.467   5.606   2.827 -0.1153 -0.9819 -0.5528
 4857TIP3    H114577   4.509   5.690   2.847  0.8797 -1.4967 -0.4140
 4857TIP3    H214578   4.540   5.548   2.806 -0.6895 -2.1267  0.4887
 4858TIP3   OH214579   4.667   3.426   0.181  0.9052 -0.7873  0.2510
 4858TIP3    H114580   4.752   3.383   0.172  0.2385 -1.9046 -1.1488
 4858TIP3    H214581   4.608   3.374   0.126 -0.9381 -0.7339  2.0441
 4859TIP3   OH214582   4.670   1.879   3.935  1.0746  0.4451  0.7405
 4859TIP3    H114583   4.748   1.883   3.990  1.0694  0.2745  0.7593
 4859TIP3    H214584   4.601   1.920   3.988  0.2160 -2.6796  2.2747
 4860TIP3   OH214585   3.506   1.999   2.793  0.3877  0.3699 -0.6818
 4860TIP3    H114586   3.446   2.059   2.749 -1.8808 -0.3391  1.2345
 4860TIP3    H214587   3.501   2.023   2.886  1.9580 -0.6908 -0.2769
 4861TIP3   OH214588   1.916   0.924   3.255 -0.3521  0.2577 -0.4165
 4861TIP3    H114589   1.959   0.844   3.287 -1.7414 -0.9593 -1.4541
 4861TIP3    H214590   1.978   0.960   3.192  0.2032 -0.1107 -0.0946
 4862TIP3   OH214591   0.659   4.696   2.437  0.2282 -1.0562  0.1920
 4862TIP3    H114592   0.633   4.772   2.489  0.4829  0.3441 -1.6438
 4862TIP3    H214593   0.647   4.622   2.496 -0.8892  0.2954  1.7534
 4863TIP3   OH214594   6.318   2.559   0.608  0.4379  0.2604 -0.0961
 4863TIP3    H114595   6.270   2.617   0.550 -0.9207 -0.7844 -0.0705
 4863TIP3    H214596   6.291   2.584   0.696 -0.7129 -0.8307 -0.1103
 4864TIP3   OH214597   3.999   3.185   0.794 -0.1796  0.8477 -0.2508
 4864TIP3    H114598   4.030   3.274   0.805  2.1938 -0.0502  0.9475
 4864TIP3    H214599   4.010   3.167   0.701  3.2325  0.5539  0.1077
 4865TIP3   OH214600   5.313   1.672   0.351  0.6486  0.3204  0.0705
 4865TIP3    H114601   5.291   1.656   0.259  0.9313 -0.3563  0.1189
 4865TIP3    H214602   5.229   1.689   0.393  0.6405  2.2703 -0.6073
 4866TIP3   OH214603   0.145   3.474   0.389 -0.1989 -0.8037 -0.2053
 4866TIP3    H114604   0.179   3.547   0.338  1.8472 -1.4116  0.1707
 4866TIP3    H214605   0.101   3.514   0.463  1.9763  0.1155  0.6782
 4867TIP3   OH214606   4.737   4.364   3.355  0.0369  0.1227  0.0786
 4867TIP3    H114607   4.665   4.424   3.371  1.4061  1.9807 -0.4070
 4867TIP3    H214608   4.802   4.386   3.421  1.4846  0.7860 -1.5000
 4868TIP3   OH214609   4.537   1.943   4.183 -0.4027 -0.1344  0.0803
 4868TIP3    H114610   4.452   1.931   4.226 -0.8325 -0.1822 -0.7605
 4868TIP3    H214611   4.599   1.895   4.238 -1.3260 -2.3363 -0.6675
 4869TIP3   OH214612   3.404   5.104   1.329  0.0718  0.0459 -0.1731
 4869TIP3    H114613   3.438   5.053   1.256 -0.7296 -1.3552  0.3983
 4869TIP3    H214614   3.310   5.110   1.313 -0.3019 -1.2287  1.2453
 4870TIP3   OH214615   5.088   5.346   3.109  0.2950 -0.0164  0.2988
 4870TIP3    H114616   5.043   5.304   3.183 -1.1846 -2.2277 -1.7064
 4870TIP3    H214617   5.181   5.335   3.128 -0.0541 -1.5867  1.2906
 4871TIP3   OH214618   2.198   4.497   3.320 -0.3006 -0.0633  0.3060
 4871TIP3    H114619   2.232   4.488   3.231 -1.2823  3.6864 -0.6330
 4871TIP3    H214620   2.141   4.421   3.331  1.9234 -2.1033 -1.1342
 4872TIP3   OH214621   5.366   5.171   2.992 -0.2790  0.0028 -0.5932
 4872TIP3    H114622   5.286   5.120   2.999 -1.4451  1.6223 -1.3851
 4872TIP3    H214623   5.375   5.214   3.077 -1.4242  1.4097 -1.1492
 4873TIP3   OH214624   2.430   2.236   3.283  0.4590 -0.0327 -0.1443
 4873TIP3    H114625   2.431   2.140   3.287 -1.6153 -0.0804  0.1729
 4873TIP3    H214626   2.338   2.259   3.270  0.9584  1.9233 -0.5393
 4874TIP3   OH214627   0.969   4.647   2.207 -0.2755  0.3502 -0.3238
 4874TIP3    H114628   0.932   4.721   2.159 -0.1296  0.5827 -0.0796
 4874TIP3    H214629   1.018   4.598   2.141 -0.1453  0.6223 -0.4281
 4875TIP3   OH214630   0.401   1.617   0.243 -0.6621  0.9988 -0.2545
 4875TIP3    H114631   0.429   1.583   0.327 -0.6088 -1.3989 -1.1699
 4875TIP3    H214632   0.312   1.649   0.258 -0.2751  1.5808  0.9055
 4876TIP3   OH214633   0.247   5.357   5.118 -0.1042 -0.1326 -0.4162
 4876TIP3    H114634   0.223   5.317   5.035 -0.0597  2.5103 -1.7961
 4876TIP3    H214635   0.206   5.301   5.184 -0.8661 -1.8228 -2.2226
 4877TIP3   OH214636   5.401   3.044   2.163  0.0099 -0.3395  0.6526
 4877TIP3    H114637   5.414   3.125   2.114  1.2055 -0.3193  0.9627
 4877TIP3    H214638   5.366   2.982   2.098  1.4939 -0.2968 -0.2421
 4878TIP3   OH214639   5.447   0.245   1.111  0.3225 -0.4791 -0.7404
 4878TIP3    H114640   5.419   0.318   1.166 -0.4381 -2.0160  1.0521
 4878TIP3    H214641   5.366   0.200   1.087  0.8542 -3.3999  2.2005
 4879TIP3   OH214642   3.468   0.128   2.124  0.0647 -0.1566 -0.1260
 4879TIP3    H114643   3.462   0.058   2.189  0.3821 -0.6696 -0.6374
 4879TIP3    H214644   3.510   0.087   2.049 -1.2543  0.1359 -1.0617
 4880TIP3   OH214645   3.417   3.018   0.717  0.0127 -0.2197 -0.1111
 4880TIP3    H114646   3.326   3.033   0.692  0.7006 -1.0534 -3.6815
 4880TIP3    H214647   3.419   2.928   0.751 -0.2086 -1.0877 -2.2484
 4881TIP3   OH214648   2.080   5.530   0.987  0.2400  0.2645  0.0402
 4881TIP3    H114649   1.995   5.512   0.948  0.5772  0.4125 -0.7949
 4881TIP3    H214650   2.141   5.477   0.936  0.6199 -0.0464  0.8060
 4882TIP3   OH214651   0.755   4.679   3.401  0.4553  0.2515 -0.2275
 4882TIP3    H114652   0.724   4.759   3.444  1.2568 -0.3866  1.6390
 4882TIP3    H214653   0.848   4.674   3.424  0.2687 -1.5676  0.3279
 4883TIP3   OH214654   2.951   5.230   4.830  0.0997 -0.8302 -0.6214
 4883TIP3    H114655   2.886   5.249   4.762 -0.9401  1.8037  0.9446
 4883TIP3    H214656   2.907   5.166   4.887 -0.6230 -0.1256 -0.3552
 4884TIP3   OH214657   6.035   0.638   3.430  0.3296 -0.0446  0.7359
 4884TIP3    H114658   6.016   0.598   3.515  0.5172 -0.8419  0.4084
 4884TIP3    H214659   6.094   0.710   3.450  0.3607 -0.2189  1.2848
 4885TIP3   OH214660   6.312   4.215   2.297 -0.5023 -0.1214  0.0331
 4885TIP3    H114661   6.225   4.248   2.272 -0.6615 -0.9072 -0.4785
 4885TIP3    H214662   6.300   4.176   2.383 -1.0082 -1.5312 -0.6405
 4886TIP3   OH214663   1.634   3.426   5.177  0.3324  0.2976 -0.1439
 4886TIP3    H114664   1.704   3.443   5.113  1.8594 -1.2723  1.0227
 4886TIP3    H214665   1.569   3.495   5.160  1.5983  1.1115 -2.0495
 4887TIP3   OH214666   5.078   3.724   1.420 -0.5791  0.4242  0.7719
 4887TIP3    H114667   5.110   3.640   1.387 -1.1935  0.4504  0.0922
 4887TIP3    H214668   5.113   3.789   1.359  1.1411  0.8378  2.1310
 4888TIP3   OH214669   0.737   2.359   3.439  0.2106 -0.3172 -0.3272
 4888TIP3    H114670   0.687   2.338   3.518 -0.3000  0.3501 -0.4660
 4888TIP3    H214671   0.773   2.446   3.456  2.2539 -1.2011  0.2220
 4889TIP3   OH214672   2.456   5.122   1.270  0.1450 -0.3208 -0.1297
 4889TIP3    H114673   2.414   5.162   1.346 -0.9501  0.0552 -0.9146
 4889TIP3    H214674   2.548   5.147   1.277 -0.0154  0.0292  0.8621
 4890TIP3   OH214675   4.042   3.148   2.394  0.2439  0.0606  0.0077
 4890TIP3    H114676   4.062   3.152   2.487  2.1732 -0.5658 -0.3267
 4890TIP3    H214677   3.958   3.103   2.389  1.1465 -1.9131  1.3869
 4891TIP3   OH214678   4.229   3.628   4.460  0.7891 -0.1377  0.5187
 4891TIP3    H114679   4.248   3.720   4.440 -0.0473 -0.3016 -1.1351
 4891TIP3    H214680   4.163   3.633   4.529  0.7606  0.5027  0.4569
 4892TIP3   OH214681   3.909   2.063   3.292 -0.0286 -0.0800 -0.8966
 4892TIP3    H114682   3.927   2.157   3.295 -0.1119 -0.0534  1.9456
 4892TIP3    H214683   3.911   2.036   3.384  0.5020 -2.9771 -1.6757
 4893TIP3   OH214684   2.536   5.375   1.016  0.0777  0.0576  0.1223
 4893TIP3    H114685   2.600   5.390   1.086 -0.1018 -0.5589  0.4267
 4893TIP3    H214686   2.471   5.445   1.027  0.3401  0.2847  0.2308
 4894TIP3   OH214687   4.390   0.307   0.444  0.5391 -0.2730 -0.1174
 4894TIP3    H114688   4.391   0.316   0.539 -0.4410  0.6991 -0.1841
 4894TIP3    H214689   4.473   0.346   0.415  0.3404  0.4518  0.2690
 4895TIP3   OH214690   5.977   2.795   5.085  0.0098 -0.2660  0.1818
 4895TIP3    H114691   5.950   2.791   4.993  1.1575 -1.2794 -0.1421
 4895TIP3    H214692   6.030   2.875   5.090 -0.9325  0.3685  0.2319
 4896TIP3   OH214693   2.398   5.339   3.522  0.7710 -0.2367  0.1291
 4896TIP3    H114694   2.471   5.400   3.532  1.8749 -1.6627  1.1461
 4896TIP3    H214695   2.422   5.286   3.446 -0.2217  0.5938 -0.7981
 4897TIP3   OH214696   5.998   4.855   0.722  0.4700 -0.1325  0.1911
 4897TIP3    H114697   5.924   4.877   0.780 -0.9912 -0.0497 -1.6088
 4897TIP3    H214698   5.998   4.760   0.719 -1.1265 -0.1516 -1.5766
 4898TIP3   OH214699   6.228   1.492   1.196  0.4889 -0.1020  0.0856
 4898TIP3    H114700   6.203   1.400   1.181 -0.5136  0.3197 -0.9761
 4898TIP3    H214701   6.248   1.525   1.108 -1.5607  1.3543  0.0979
 4899TIP3   OH214702   0.291   2.153   2.246 -0.4796 -0.2783  0.2622
 4899TIP3    H114703   0.265   2.097   2.319 -0.4610  0.5391  0.9123
 4899TIP3    H214704   0.345   2.097   2.191  1.9050 -0.1993  2.3309
 4900TIP3   OH214705   5.599   5.014   2.609 -0.1764 -0.0995  0.1421
 4900TIP3    H114706   5.531   5.064   2.653 -1.0153 -0.5384 -0.6242
 4900TIP3    H214707   5.577   5.020   2.516  1.1365  0.1875 -0.1735
 4901TIP3   OH214708   5.462   4.810   4.918  0.1256  0.0187  0.4019
 4901TIP3    H114709   5.547   4.767   4.926  0.7213  1.1905  0.4758
 4901TIP3    H214710   5.434   4.825   5.008 -0.2724 -0.5695  0.3809
 4902TIP3   OH214711   0.846   0.327   1.891  0.3910 -0.5729  0.3957
 4902TIP3    H114712   0.828   0.419   1.912  2.6392 -0.1884  0.8875
 4902TIP3    H214713   0.814   0.316   1.801 -2.4398 -0.1348  1.2412
 4903TIP3   OH214714   1.046   5.340   0.284 -0.1136  0.2351 -0.0408
 4903TIP3    H114715   1.112   5.395   0.326 -1.5481  2.0488 -0.0342
 4903TIP3    H214716   1.096   5.282   0.227  1.5187  1.0996  0.4489
 4904TIP3   OH214717   2.706   2.805   2.867  0.1141 -0.4864  0.5298
 4904TIP3    H114718   2.725   2.841   2.953 -0.6859 -1.7015  1.2327
 4904TIP3    H214719   2.715   2.710   2.877  0.3020 -0.6377 -0.7955
 4905TIP3   OH214720   1.068   3.287   4.407  0.5061  0.2327  0.0587
 4905TIP3    H114721   1.035   3.200   4.387 -0.2459  0.1371  1.6319
 4905TIP3    H214722   1.054   3.337   4.326  0.5338 -0.9674 -0.7094
 4906TIP3   OH214723   0.855   2.022   0.948 -0.1515 -0.5178  0.6416
 4906TIP3    H114724   0.784   2.024   1.012 -0.3059  0.0042  0.4599
 4906TIP3    H214725   0.814   1.989   0.868 -0.3074  0.1969  0.4114
 4907TIP3   OH214726   6.126   4.459   2.433  0.5529 -0.3184  0.6213
 4907TIP3    H114727   6.072   4.537   2.421  0.8912 -0.3285 -1.2570
 4907TIP3    H214728   6.065   4.390   2.458 -0.7904 -0.8406 -3.4208
 4908TIP3   OH214729   4.137   5.610   5.126  0.5873  0.3535  0.2256
 4908TIP3    H114730   4.046   5.625   5.149  0.2347  0.3845 -1.1209
 4908TIP3    H214731   4.159   5.527   5.168 -0.5961 -0.5196 -0.8000
 4909TIP3   OH214732   3.044   4.847   3.478 -0.1566 -0.0883  0.0262
 4909TIP3    H114733   3.076   4.917   3.534 -1.4705  0.6496 -0.0943
 4909TIP3    H214734   3.121   4.794   3.458  0.6614  0.7120  0.9909
 4910TIP3   OH214735   3.948   4.560   1.321 -0.4112 -0.1814 -0.5117
 4910TIP3    H114736   4.014   4.593   1.259  0.3069  4.1753  2.1295
 4910TIP3    H214737   4.000   4.516   1.388 -0.3337  1.4103  0.5099
 4911TIP3   OH214738   4.994   0.838   4.969 -0.1417 -0.0398  0.0769
 4911TIP3    H114739   5.023   0.760   4.922 -1.0263 -0.5242  0.3050
 4911TIP3    H214740   4.966   0.805   5.054 -0.2107  0.5816  0.2983
 4912TIP3   OH214741   5.728   4.455   3.158  0.1759  0.1031  0.4856
 4912TIP3    H114742   5.738   4.374   3.209 -2.0669 -0.2087  0.5408
 4912TIP3    H214743   5.736   4.525   3.223 -0.5831 -0.2141  0.9402
 4913TIP3   OH214744   4.499   5.860   0.479  0.2253  0.1680 -0.0802
 4913TIP3    H114745   4.533   5.833   0.394  0.8696  0.3185  0.1276
 4913TIP3    H214746   4.434   5.794   0.501 -0.4484  0.4959 -1.0058
 4914TIP3   OH214747   1.628   1.749   0.923  0.4152  0.3923 -0.2390
 4914TIP3    H114748   1.672   1.728   1.005 -0.1221  1.7437  0.4278
 4914TIP3    H214749   1.679   1.822   0.887  0.0244  0.5045 -0.5667
 4915TIP3   OH214750   0.385   1.379   3.928  0.1415 -0.5170  0.0592
 4915TIP3    H114751   0.435   1.448   3.885  0.3912 -1.2264 -0.8253
 4915TIP3    H214752   0.450   1.312   3.950 -0.3111 -1.1986 -0.6051
 4916TIP3   OH214753   5.311   5.110   2.122 -0.7432 -0.1145  0.4438
 4916TIP3    H114754   5.256   5.126   2.045  0.4867 -1.1597 -0.7143
 4916TIP3    H214755   5.400   5.125   2.091 -0.2642  0.1670  1.8879
 4917TIP3   OH214756   5.351   0.082   2.719  0.3149 -0.2573  0.0871
 4917TIP3    H114757   5.366   0.172   2.747 -0.0110 -0.0509 -0.3783
 4917TIP3    H214758   5.332   0.090   2.625  0.7717 -0.8599 -0.0612
 4918TIP3   OH214759   5.264   1.963   0.502  0.3102  0.4840 -0.0010
 4918TIP3    H114760   5.190   1.903   0.511 -0.5523  1.4573 -0.4448
 4918TIP3    H214761   5.229   2.038   0.453  1.3878  1.2996  0.4313
 4919TIP3   OH214762   3.620   3.174   0.779  0.1670  0.1145 -0.2972
 4919TIP3    H114763   3.536   3.128   0.769  0.1646  0.3103 -1.2600
 4919TIP3    H214764   3.636   3.213   0.693  1.9599 -1.1087 -0.5650
 4920TIP3   OH214765   2.862   4.556   0.570  0.2746  0.2462 -0.0634
 4920TIP3    H114766   2.888   4.465   0.558  0.4936  0.2337  0.4977
 4920TIP3    H214767   2.848   4.589   0.481 -1.2613 -0.7565 -0.2338
 4921TIP3   OH214768   4.259   0.056   0.651  0.1219  0.3785 -0.1645
 4921TIP3    H114769   4.184   0.086   0.701  0.2450  0.5951 -0.1066
 4921TIP3    H214770   4.222   0.001   0.582  0.0453 -0.9431  0.9118
 4922TIP3   OH214771   3.844   1.830   1.078 -0.2495  0.1175 -0.4031
 4922TIP3    H114772   3.770   1.891   1.075  0.3808  1.0249  1.1787
 4922TIP3    H214773   3.900   1.856   1.006 -0.2320  1.1207 -0.0421
 4923TIP3   OH214774   2.577   5.620   3.911  0.3805 -0.5369  0.2243
 4923TIP3    H114775   2.588   5.686   3.979  0.5456 -2.7890  2.5105
 4923TIP3    H214776   2.665   5.611   3.873  0.4235  0.2945  0.0966
 4924TIP3   OH214777   4.930   5.396   3.768  0.2936  0.5565 -0.7812
 4924TIP3    H114778   4.915   5.394   3.862  1.8555  0.8453 -0.4926
 4924TIP3    H214779   4.965   5.484   3.751 -0.2438  0.6117 -1.6869
 4925TIP3   OH214780   2.852   3.784   1.855 -0.5156 -0.0709 -0.0632
 4925TIP3    H114781   2.875   3.742   1.938  0.9988 -1.0700 -0.9399
 4925TIP3    H214782   2.858   3.713   1.790 -1.5656  0.7132 -1.0501
 4926TIP3   OH214783   3.958   4.094   2.596  0.6165 -0.2174 -0.2293
 4926TIP3    H114784   4.007   4.176   2.593  0.2041  0.0282 -0.3345
 4926TIP3    H214785   3.948   4.068   2.505 -1.9301  1.2438 -0.4698
 4927TIP3   OH214786   0.060   4.225   3.406 -0.3541 -0.7202 -0.0503
 4927TIP3    H114787   0.114   4.273   3.343  0.9090  1.7977  2.7451
 4927TIP3    H214788   0.107   4.143   3.420 -1.5218 -2.1851 -3.4020
 4928TIP3   OH214789   1.929   2.741   2.451 -0.0927 -0.2193 -0.1743
 4928TIP3    H114790   1.869   2.677   2.489 -1.1750  0.7611 -0.1724
 4928TIP3    H214791   1.872   2.801   2.402  1.2093 -1.6169 -3.7802
 4929TIP3   OH214792   1.616   2.202   1.582 -0.1794 -0.6807  0.4728
 4929TIP3    H114793   1.695   2.253   1.601  0.5455 -1.3936 -0.5303
 4929TIP3    H214794   1.564   2.207   1.663  0.4193  0.6285  0.8043
 4930TIP3   OH214795   5.823   4.788   0.329  0.0503  0.0727  0.3884
 4930TIP3    H114796   5.853   4.708   0.285  1.2617  0.7409 -0.0283
 4930TIP3    H214797   5.741   4.810   0.284  0.0807 -0.5239  0.0233
 4931TIP3   OH214798   2.070   0.919   2.853 -0.4185  0.0891 -0.0884
 4931TIP3    H114799   2.112   0.879   2.777 -0.8135  0.1976 -0.3694
 4931TIP3    H214800   2.003   0.856   2.879 -1.7342  0.9805 -1.1592
 4932TIP3   OH214801   2.430   2.128   1.618  0.3254  0.1857 -0.3436
 4932TIP3    H114802   2.401   2.062   1.555  0.5527  1.7936 -2.2262
 4932TIP3    H214803   2.513   2.160   1.583  1.2376  0.0749  1.6143
 4933TIP3   OH214804   3.323   4.432   1.864  0.3246  0.2763 -0.2235
 4933TIP3    H114805   3.409   4.395   1.886  1.2942  1.4079 -1.8616
 4933TIP3    H214806   3.271   4.357   1.837 -0.0930 -0.8090  3.0774
 4934TIP3   OH214807   1.397   4.904   1.056  0.0776 -0.0757 -0.1062
 4934TIP3    H114808   1.343   4.828   1.078 -1.1246  0.2193 -1.8610
 4934TIP3    H214809   1.365   4.932   0.971  2.4508  0.6583 -0.8299
 4935TIP3   OH214810   5.227   2.779   4.129  0.0200 -0.2998 -0.5588
 4935TIP3    H114811   5.275   2.702   4.161  0.3447 -0.1267 -0.6177
 4935TIP3    H214812   5.217   2.835   4.206 -0.1447 -0.3643 -0.5329
 4936TIP3   OH214813   4.110   3.846   4.787 -0.2023  0.2762 -0.1380
 4936TIP3    H114814   4.062   3.922   4.820 -0.2915 -0.1343  0.6980
 4936TIP3    H214815   4.138   3.872   4.699  0.3425  1.5163  0.3820
 4937TIP3   OH214816   4.965   3.876   2.775 -0.1124 -0.2889  0.0042
 4937TIP3    H114817   4.935   3.841   2.691  0.3960  1.4922 -0.9666
 4937TIP3    H214818   4.895   3.936   2.802 -1.2994 -2.4027  1.9835
 4938TIP3   OH214819   1.795   2.994   3.683 -0.1627  0.0228 -0.3108
 4938TIP3    H114820   1.772   2.957   3.598 -2.9983  0.1691  0.2910
 4938TIP3    H214821   1.716   3.041   3.710  1.0864  0.9795  1.8730
 4939TIP3   OH214822   2.445   4.018   0.330  0.4268  0.6150 -0.0569
 4939TIP3    H114823   2.510   3.947   0.329  0.3078  0.5122 -0.7694
 4939TIP3    H214824   2.498   4.097   0.339  0.6887  0.5609 -1.0296
 4940TIP3   OH214825   0.767   5.870   1.827 -0.2488 -0.0432  0.4869
 4940TIP3    H114826   0.708   5.840   1.757 -1.5915 -2.0948  2.3524
 4940TIP3    H214827   0.834   5.803   1.832 -0.0079  0.2331  0.9806
 4941TIP3   OH214828   0.976   0.406   3.287  0.0825  0.5370 -0.6980
 4941TIP3    H114829   0.994   0.477   3.349  0.0234  0.9281 -1.1258
 4941TIP3    H214830   0.904   0.439   3.234 -1.6075 -0.7691  0.6423
 4942TIP3   OH214831   0.563   4.153   2.094  0.2623 -0.2096 -0.3728
 4942TIP3    H114832   0.613   4.232   2.116  0.5014 -0.5763  0.4605
 4942TIP3    H214833   0.630   4.089   2.071  0.1386 -0.5129  0.1114
 4943TIP3   OH214834   5.337   4.632   5.143  0.4705 -0.1181  0.0899
 4943TIP3    H114835   5.387   4.691   5.199 -1.6264  0.9227  0.9793
 4943TIP3    H214836   5.322   4.554   5.197 -1.8860  1.0416  1.2493
 4944TIP3   OH214837   6.130   0.210   3.335 -0.3933 -0.8843  0.0802
 4944TIP3    H114838   6.159   0.232   3.424 -1.2934 -0.3311  0.2451
 4944TIP3    H214839   6.211   0.200   3.285  0.1097  0.8516  0.4802
 4945TIP3   OH214840   5.963   5.837   2.919 -0.3012  0.4680 -0.9020
 4945TIP3    H114841   6.030   5.877   2.863  0.3525 -0.1740 -0.5984
 4945TIP3    H214842   6.006   5.760   2.957 -1.1827  0.0961 -0.6193
 4946TIP3   OH214843   5.874   2.291   1.667 -0.6362 -0.0488 -0.8771
 4946TIP3    H114844   5.847   2.382   1.658 -0.3315  0.1097 -0.2242
 4946TIP3    H214845   5.956   2.294   1.716 -1.5197 -0.7646  0.7487
 4947TIP3   OH214846   0.154   3.497   1.264  0.4557  0.4538 -0.5684
 4947TIP3    H114847   0.131   3.589   1.250 -1.4935  0.1859  0.5465
 4947TIP3    H214848   0.163   3.489   1.359 -3.5312 -1.2814 -0.1129
 4948TIP3   OH214849   1.328   5.727   2.107 -0.1573  0.1502  0.2215
 4948TIP3    H114850   1.320   5.780   2.186 -0.6741  0.7649 -0.2312
 4948TIP3    H214851   1.252   5.669   2.109 -0.0138 -0.0362  0.3196
 4949TIP3   OH214852   5.280   4.730   1.163  0.0785 -0.0047 -0.4972
 4949TIP3    H114853   5.370   4.714   1.136  0.9211  0.9616  1.5261
 4949TIP3    H214854   5.242   4.643   1.175  1.2573 -0.4344  0.1933
 4950TIP3   OH214855   2.853   1.155   1.992  0.3166 -0.1150  0.1413
 4950TIP3    H114856   2.867   1.234   2.044 -0.5852 -1.2711  2.3197
 4950TIP3    H214857   2.891   1.085   2.045 -1.9579 -1.5595  0.0133
 4951TIP3   OH214858   5.626   4.952   0.519  0.1038  0.5514 -0.4680
 4951TIP3    H114859   5.682   4.931   0.444  0.0541  1.1027 -0.6667
 4951TIP3    H214860   5.540   4.969   0.480 -0.3591 -0.8670 -0.1113
 4952TIP3   OH214861  -0.007   0.114   0.063  0.3761 -0.1750  0.4384
 4952TIP3    H114862  -0.008   0.032   0.113  1.6914 -1.6970 -1.8620
 4952TIP3    H214863   0.072   0.158   0.092  0.5816 -0.5417  0.4460
 4953TIP3   OH214864   6.061   4.501   3.765 -0.9008 -0.2640  0.1735
 4953TIP3    H114865   6.141   4.540   3.800 -1.4027  1.4774 -0.5004
 4953TIP3    H214866   5.991   4.557   3.799 -1.6588 -0.5217 -0.9089
 4954TIP3   OH214867   3.259   3.130   4.419  0.0574  0.0956  0.0158
 4954TIP3    H114868   3.243   3.094   4.506  1.7290  0.2409  0.4141
 4954TIP3    H214869   3.238   3.059   4.359 -1.8750  0.2385  0.4476
 4955TIP3   OH214870   2.892   4.574   0.850 -0.3022  0.0879 -0.3354
 4955TIP3    H114871   2.890   4.554   0.756  1.3815  0.5506 -0.5185
 4955TIP3    H214872   2.833   4.511   0.889  0.3728 -1.3639 -1.5291
 4956TIP3   OH214873   0.561   3.117   3.402  0.3418 -0.3704 -0.3191
 4956TIP3    H114874   0.475   3.081   3.422  0.8540 -0.9828  0.8317
 4956TIP3    H214875   0.599   3.056   3.339  0.5751 -1.0012  0.4221
 4957TIP3   OH214876   4.875   4.781   2.378  0.3627  0.0971  0.6524
 4957TIP3    H114877   4.869   4.828   2.462  0.4559  0.0754  0.6717
 4957TIP3    H214878   4.786   4.781   2.344 -0.0779 -1.7111  1.7240
 4958TIP3   OH214879   5.092   3.871   3.786 -0.5050 -0.1239 -0.0761
 4958TIP3    H114880   5.024   3.925   3.747  0.4400  0.8023 -0.4854
 4958TIP3    H214881   5.090   3.789   3.736 -0.4066  0.4214 -0.9889
 4959TIP3   OH214882   3.668   3.174   3.211  0.1632  0.2819  0.5432
 4959TIP3    H114883   3.591   3.127   3.179  1.0642 -0.4263 -0.6459
 4959TIP3    H214884   3.740   3.141   3.158  0.9110  2.7935 -0.1365
 4960TIP3   OH214885   0.136   0.539   2.234  0.1590 -0.4753 -0.1166
 4960TIP3    H114886   0.154   0.571   2.145 -0.7695 -0.3549 -0.2756
 4960TIP3    H214887   0.092   0.612   2.277  0.8475 -0.4395  0.5383
 4961TIP3   OH214888   0.972   0.537   5.146  0.0986  0.1307  0.5408
 4961TIP3    H114889   0.958   0.609   5.083  1.4612  0.7626  0.9202
 4961TIP3    H214890   1.029   0.575   5.213  1.5471 -1.5332  0.3163
 4962TIP3   OH214891   6.249   4.808   2.162 -0.1057  0.4650 -0.1674
 4962TIP3    H114892   6.324   4.865   2.142  0.0797 -0.3327 -1.9334
 4962TIP3    H214893   6.289   4.724   2.185 -0.4436  0.4276  0.2944
 4963TIP3   OH214894   2.637   4.828   2.332 -0.2084 -0.0042 -0.6174
 4963TIP3    H114895   2.556   4.803   2.378  0.4157  0.8186  1.0283
 4963TIP3    H214896   2.644   4.922   2.346  1.2324 -0.1192 -0.3788
 4964TIP3   OH214897   5.296   2.633   0.685 -0.0418  0.5698 -0.1547
 4964TIP3    H114898   5.253   2.678   0.613  0.2311  0.5971 -0.3007
 4964TIP3    H214899   5.384   2.613   0.653  0.0380  0.4647  0.1207
 4965TIP3   OH214900   3.507   3.861   2.510  0.1734 -0.3347 -0.2751
 4965TIP3    H114901   3.543   3.772   2.508  0.9216 -0.0583  0.3882
 4965TIP3    H214902   3.471   3.874   2.422 -1.9394 -2.0759  0.2500
 4966TIP3   OH214903   2.840   0.113   3.504  0.0993  0.2931  0.2393
 4966TIP3    H114904   2.854   0.047   3.572  2.6498 -2.5379 -2.7074
 4966TIP3    H214905   2.928   0.140   3.479 -0.7815  5.5290  1.6349
 4967TIP3   OH214906   1.542   5.146   4.870  0.6809  0.0987 -0.2762
 4967TIP3    H114907   1.555   5.072   4.929  0.6662  0.6043  0.3680
 4967TIP3    H214908   1.597   5.216   4.905  0.0823  0.6531 -0.4078
 4968TIP3   OH214909   1.279   3.940   2.060  0.7365 -0.6636  0.2436
 4968TIP3    H114910   1.210   3.875   2.072 -1.8448  2.0128  0.9484
 4968TIP3    H214911   1.264   3.976   1.973  0.9224  0.2904  0.5983
 4969TIP3   OH214912   3.481   4.102   2.625 -0.8455  0.4437 -0.3554
 4969TIP3    H114913   3.515   4.020   2.590  1.8564  1.3625 -0.1083
 4969TIP3    H214914   3.439   4.076   2.708  0.4382 -0.6583 -0.0070
 4970TIP3   OH214915   3.830   5.076   3.230  0.1916 -0.2101 -0.5339
 4970TIP3    H114916   3.810   5.107   3.318  1.5013  0.3129 -0.3980
 4970TIP3    H214917   3.846   5.156   3.179  3.2057 -0.5268 -0.2767
 4971TIP3   OH214918   0.150   4.482   3.773  0.7231 -0.6613 -0.2415
 4971TIP3    H114919   0.243   4.480   3.748  1.0320 -1.2310  0.8895
 4971TIP3    H214920   0.108   4.424   3.710  1.1495 -0.4879 -0.6976
 4972TIP3   OH214921   5.798   0.535   2.967  0.1962  0.2633 -0.1056
 4972TIP3    H114922   5.818   0.556   3.058  0.8481 -1.0427  0.0785
 4972TIP3    H214923   5.876   0.491   2.935 -0.4676 -0.3312 -0.9469
 4973TIP3   OH214924   3.350   5.469   2.256 -0.0624 -0.1591 -0.4102
 4973TIP3    H114925   3.416   5.400   2.253 -1.6919 -1.7629 -0.7066
 4973TIP3    H214926   3.279   5.437   2.200 -2.7944 -0.3389  2.8865
 4974TIP3   OH214927   3.746   2.587   3.959 -0.4639 -0.3226 -0.3939
 4974TIP3    H114928   3.814   2.561   4.022 -0.1471  0.6446 -0.3189
 4974TIP3    H214929   3.669   2.538   3.987  0.2532 -1.6629 -0.6466
 4975TIP3   OH214930   4.200   5.052   5.096 -0.3957 -0.1782 -0.1090
 4975TIP3    H114931   4.148   4.992   5.150  1.4734 -3.5704 -1.7707
 4975TIP3    H214932   4.279   5.068   5.147 -0.5889  0.3634  0.0301
 4976TIP3   OH214933   5.968   0.290   2.315 -0.4161 -0.3335  0.0938
 4976TIP3    H114934   5.948   0.275   2.408 -0.2756  1.1293  0.3869
 4976TIP3    H214935   6.010   0.376   2.313 -1.6529  0.2851 -1.4928
 4977TIP3   OH214936   1.351   0.762   3.012 -0.0509  0.2763  0.1212
 4977TIP3    H114937   1.369   0.681   2.965  2.0214  1.4516 -1.2391
 4977TIP3    H214938   1.256   0.773   3.004 -0.1180 -1.0356 -1.3459
 4978TIP3   OH214939   0.965   5.635   4.884  0.4528 -0.3567 -0.6420
 4978TIP3    H114940   0.941   5.556   4.835  1.1940  0.1233 -1.8095
 4978TIP3    H214941   0.960   5.705   4.820  0.7285  0.4095  0.1609
 4979TIP3   OH214942   0.262   1.116   1.495  0.1662 -0.2322  0.5020
 4979TIP3    H114943   0.331   1.127   1.430  0.3437 -0.3756  0.6650
 4979TIP3    H214944   0.184   1.095   1.443  0.0430  0.7704  0.2556
 4980TIP3   OH214945   1.625   0.174   4.448  0.4186 -0.1785 -0.2302
 4980TIP3    H114946   1.577   0.191   4.367  2.3667 -2.1661 -1.9405
 4980TIP3    H214947   1.717   0.169   4.421  1.4328  1.3512  2.5274
 4981TIP3   OH214948   1.439  -0.009   3.365  0.1808 -0.2041  0.4248
 4981TIP3    H114949   1.486  -0.021   3.283 -1.5645 -0.2019 -0.6408
 4981TIP3    H214950   1.400   0.078   3.358 -0.5064 -0.4549  0.9516
 4982TIP3   OH214951   3.875   1.265   3.142  0.0373  0.2844 -0.4036
 4982TIP3    H114952   3.799   1.275   3.199  0.1324  1.7504 -0.4888
 4982TIP3    H214953   3.918   1.351   3.144  1.6324 -0.4699 -0.4553
 4983TIP3   OH214954   1.505   5.247   3.824  0.0136 -0.0311 -0.1083
 4983TIP3    H114955   1.530   5.198   3.903 -0.8093  0.0821  0.2273
 4983TIP3    H214956   1.485   5.335   3.855  0.9893  0.3962 -0.6431
 4984TIP3   OH214957   3.538   1.096   0.551 -0.0133 -0.6682 -0.0157
 4984TIP3    H114958   3.579   1.177   0.520 -1.8514  0.0470 -0.7201
 4984TIP3    H214959   3.477   1.072   0.481 -1.4755 -1.1429  1.3633
 4985TIP3   OH214960   3.457   3.641   2.704  0.0239  0.2578  0.0392
 4985TIP3    H114961   3.478   3.607   2.618 -2.0611  0.5114 -0.6387
 4985TIP3    H214962   3.476   3.735   2.699 -1.6161  0.5990 -0.7634
 4986TIP3   OH214963   3.558   4.104   0.373 -0.0894  0.4346  0.3653
 4986TIP3    H114964   3.526   4.164   0.305 -0.4149  0.4566  0.5345
 4986TIP3    H214965   3.519   4.138   0.454  0.1910  0.3304  0.5428
 4987TIP3   OH214966   4.073   4.393   3.476 -0.0276  0.3369  0.3199
 4987TIP3    H114967   4.106   4.466   3.529  1.7153  1.4379 -2.0781
 4987TIP3    H214968   4.023   4.435   3.406 -0.3973 -0.8898 -0.1760
 4988TIP3   OH214969   3.258   0.436   2.085  0.6200 -0.1458 -0.2857
 4988TIP3    H114970   3.236   0.344   2.072  2.4412 -0.6073 -0.4103
 4988TIP3    H214971   3.325   0.436   2.153 -0.2559  1.2181  0.6159
 4989TIP3   OH214972   3.857   2.692   1.264 -0.2090  0.1687  0.0751
 4989TIP3    H114973   3.935   2.707   1.211 -0.1265 -3.1575 -0.9872
 4989TIP3    H214974   3.885   2.633   1.333 -1.8445 -1.7858 -0.8106
 4990TIP3   OH214975   5.388   1.178   3.774  0.3101  0.3609 -0.2873
 4990TIP3    H114976   5.361   1.213   3.859 -0.4478 -1.7374  0.3902
 4990TIP3    H214977   5.476   1.144   3.789  0.7941  1.3316 -0.7853
 4991TIP3   OH214978   4.639   4.062   2.524  0.6619  0.6162 -0.9381
 4991TIP3    H114979   4.556   4.052   2.572  0.9889  1.6584 -0.1196
 4991TIP3    H214980   4.647   3.981   2.473 -0.7172  0.3750 -0.8121
 4992TIP3   OH214981   5.535   4.614   0.076  0.0630 -0.4035  0.0403
 4992TIP3    H114982   5.627   4.627   0.050 -0.1980 -1.4337 -1.5230
 4992TIP3    H214983   5.529   4.655   0.162  1.1962  2.5868 -1.1647
 4993TIP3   OH214984   4.871   3.996   3.632  0.1497  0.1786 -0.1933
 4993TIP3    H114985   4.784   3.990   3.592  0.8168 -1.7703 -1.5115
 4993TIP3    H214986   4.918   4.059   3.576 -0.3779  1.2199  0.5102
 4994TIP3   OH214987   2.812   3.290   0.830 -0.3264 -0.8615  0.2872
 4994TIP3    H114988   2.893   3.240   0.841  0.1963 -0.1549 -0.2915
 4994TIP3    H214989   2.789   3.279   0.738 -0.7090 -0.7729  0.3682
 4995TIP3   OH214990   3.150   1.092   1.160 -0.5776 -0.7235 -0.3595
 4995TIP3    H114991   3.090   1.166   1.158  2.4022  1.9376 -0.2383
 4995TIP3    H214992   3.192   1.092   1.074 -1.0835 -2.8816 -0.6645
 4996TIP3   OH214993   3.453   4.573   0.142 -0.0622 -0.4110 -0.5636
 4996TIP3    H114994   3.491   4.595   0.057 -2.2806  0.8943 -1.3180
 4996TIP3    H214995   3.417   4.656   0.174  1.0652 -0.7853  1.8843
 4997TIP3   OH214996   5.128   1.084   4.996  0.3339 -0.1685  0.5422
 4997TIP3    H114997   5.113   0.989   4.997 -1.8694  0.1468  1.0118
 4997TIP3    H214998   5.122   1.110   5.088  1.3154  0.4040  0.4601
 4998TIP3   OH214999   0.109   5.979   2.738 -0.8003 -0.0592 -0.2546
 4998TIP3    H115000   0.051   5.905   2.757 -1.3913  0.5639  0.4918
 4998TIP3    H215001   0.123   6.019   2.824  1.6319 -0.8129 -0.2398
 4999TIP3   OH215002   1.115   2.369   4.352 -0.1308 -0.3953 -0.1444
 4999TIP3    H115003   1.199   2.352   4.310 -1.1466 -2.7717 -1.3908
 4999TIP3    H215004   1.100   2.291   4.406 -0.6163  0.9318  1.7180
 5000TIP3   OH215005   3.769   3.563   0.027 -0.3829  0.4358 -0.1072
 5000TIP3    H115006   3.778   3.482  -0.024 -0.2995  0.2131  0.2614
 5000TIP3    H215007   3.834   3.555   0.097 -1.1371  0.3199  0.5959
 5001TIP3   OH215008   1.561   0.129   0.618  0.4314  0.0803  0.5076
 5001TIP3    H115009   1.645   0.126   0.571 -0.2880  2.4014 -1.0985
 5001TIP3    H215010   1.562   0.212   0.664 -1.1161  0.3193  0.1601
 5002TIP3   OH215011   1.534   4.151   2.984  0.2613  0.2267  0.4360
 5002TIP3    H115012   1.490   4.080   3.031 -0.6569  0.2749 -0.3320
 5002TIP3    H215013   1.511   4.137   2.892 -0.0332  1.5936  0.2845
 5003TIP3   OH215014   2.287   2.832   2.289 -0.1773  0.1074 -0.1216
 5003TIP3    H115015   2.355   2.777   2.251  1.1337  1.4104  0.2420
 5003TIP3    H215016   2.300   2.918   2.248 -0.9647  0.6296  0.6875
 5004TIP3   OH215017   5.275   2.286   3.494  0.2514  0.2740 -0.0470
 5004TIP3    H115018   5.269   2.303   3.400  0.3897  0.3834 -0.0360
 5004TIP3    H215019   5.245   2.196   3.504 -2.4212  1.0946  0.1187
 5005TIP3   OH215020   0.473   2.471   1.276  0.1668  0.0320  0.6211
 5005TIP3    H115021   0.525   2.398   1.243  1.0374 -0.1899  2.3758
 5005TIP3    H215022   0.455   2.524   1.198  1.1096 -1.0646 -0.3919
 5006TIP3   OH215023   4.357   4.723   2.462 -0.7394  0.0140 -0.4681
 5006TIP3    H115024   4.432   4.664   2.457 -0.0180  0.9547 -1.2479
 5006TIP3    H215025   4.358   4.770   2.378 -2.0742  0.1971 -0.3990
 5007TIP3   OH215026   6.314   4.329   0.984  0.0295 -0.5093  0.1202
 5007TIP3    H115027   6.289   4.282   1.063  0.5600  0.6197  0.9893
 5007TIP3    H215028   6.247   4.397   0.974 -0.1701 -0.7955 -0.5436
 5008TIP3   OH215029   4.478   2.940   4.055  0.0319 -0.1624 -0.3335
 5008TIP3    H115030   4.414   2.971   3.991  0.3829 -0.4311 -0.8218
 5008TIP3    H215031   4.556   2.920   4.004  1.2696  2.1777  0.4949
 5009TIP3   OH215032   4.121   0.949   0.099 -0.3174 -0.3614  0.4384
 5009TIP3    H115033   4.087   0.944   0.188  0.4798 -1.7538  0.7010
 5009TIP3    H215034   4.112   0.860   0.064  0.4386 -0.1141 -0.4497
 5010TIP3   OH215035   4.076   0.869   2.707 -0.7859 -0.0387 -0.3385
 5010TIP3    H115036   4.022   0.792   2.723  0.8711 -1.5249 -1.6205
 5010TIP3    H215037   4.094   0.904   2.794 -0.4092 -1.9203  0.3859
 5011TIP3   OH215038   5.813   1.811   2.473 -0.0539 -0.0629  0.0258
 5011TIP3    H115039   5.902   1.824   2.439 -0.2444  1.9536  0.1637
 5011TIP3    H215040   5.760   1.795   2.395  0.0810  1.0303 -0.3071
 5012TIP3   OH215041   3.972   2.783   3.243  0.2286 -0.0436  0.0716
 5012TIP3    H115042   3.916   2.731   3.301 -0.8794  0.9091 -0.0984
 5012TIP3    H215043   4.060   2.748   3.256 -0.3752 -1.4556  0.4946
 5013TIP3   OH215044   1.306   3.279   2.444  0.1454  0.4893 -0.4011
 5013TIP3    H115045   1.263   3.364   2.454 -0.2328  0.1962  0.7006
 5013TIP3    H215046   1.271   3.226   2.517 -0.1502 -0.8249 -1.4497
 5014TIP3   OH215047   6.334   4.990   3.569 -0.0426  0.1633  1.0566
 5014TIP3    H115048   6.400   5.029   3.627  0.9675 -1.0764  0.7924
 5014TIP3    H215049   6.251   5.004   3.614  0.4653  1.2387  1.6899
 5015TIP3   OH215050   1.123   5.604   2.987  0.0156  0.0810 -0.2034
 5015TIP3    H115051   1.166   5.538   3.041  0.0529  1.0830  1.0209
 5015TIP3    H215052   1.029   5.592   3.004 -0.0226 -0.1363 -0.5558
 5016TIP3   OH215053   4.688   1.085   1.787  0.2306  0.7692 -0.4285
 5016TIP3    H115054   4.681   1.178   1.808  0.4068  1.5915 -3.5413
 5016TIP3    H215055   4.652   1.078   1.699  1.6566 -1.8637 -0.8909
 5017TIP3   OH215056   3.431   2.540   0.162  0.2252 -0.3435 -0.3164
 5017TIP3    H115057   3.486   2.565   0.088 -0.7137  1.0493 -0.5774
 5017TIP3    H215058   3.352   2.502   0.122 -0.9762  1.8243 -0.1430
 5018TIP3   OH215059   3.175   4.541   2.895  0.0983 -0.2487  0.1888
 5018TIP3    H115060   3.114   4.541   2.822  0.9851 -0.5854 -0.5638
 5018TIP3    H215061   3.259   4.516   2.857  0.6630 -0.0310  1.2462
 5019TIP3   OH215062   0.474   4.133   1.493 -0.3068  0.1513  0.2750
 5019TIP3    H115063   0.448   4.161   1.581 -0.5012  1.7133 -0.2423
 5019TIP3    H215064   0.393   4.133   1.443 -0.5067 -2.3990  0.4397
 5020TIP3   OH215065   4.909   5.000   5.186 -0.0667  0.2680  0.0180
 5020TIP3    H115066   4.872   4.987   5.098  2.0450 -1.9888 -0.6679
 5020TIP3    H215067   4.992   5.044   5.170 -0.0350  0.5630  0.9693
 5021TIP3   OH215068   2.150   1.597   2.471  0.2993 -0.5697  0.1753
 5021TIP3    H115069   2.105   1.664   2.522 -0.8109  0.2381 -1.7558
 5021TIP3    H215070   2.080   1.551   2.425  1.2016 -1.7284 -0.0929
 5022TIP3   OH215071   4.175   2.923   2.942  0.3076 -0.1740 -0.6619
 5022TIP3    H115072   4.257   2.898   2.900  0.6835 -2.5215  1.2547
 5022TIP3    H215073   4.109   2.868   2.901  0.0507  0.1487 -0.6884
 5023TIP3   OH215074   1.925   1.846   4.163  0.0868  0.7350  0.1664
 5023TIP3    H115075   1.999   1.835   4.103 -0.9528 -1.2507 -0.8466
 5023TIP3    H215076   1.858   1.890   4.111 -0.1188  0.8203  0.5005
 5024TIP3   OH215077   1.860   0.062   3.506  0.3534  0.5811  0.3127
 5024TIP3    H115078   1.923   0.079   3.436 -1.3728 -0.4587 -1.6077
 5024TIP3    H215079   1.777   0.096   3.472 -0.5758 -0.1353  1.7727
 5025TIP3   OH215080   0.645   2.380   3.694 -0.1679  0.7207  0.0576
 5025TIP3    H115081   0.713   2.404   3.757  0.3227 -0.8865  0.1841
 5025TIP3    H215082   0.578   2.336   3.746  0.4429 -1.0224 -0.5459
 5026TIP3   OH215083   6.053   5.905   5.109  0.1614 -0.3583  0.1979
 5026TIP3    H115084   6.076   5.870   5.023 -1.6846 -0.0283 -0.4758
 5026TIP3    H215085   6.028   5.828   5.160 -0.8351 -0.3585 -0.2719
 5027TIP3   OH215086   1.812   1.195   2.297 -0.0095  0.0608  0.6674
 5027TIP3    H115087   1.779   1.114   2.261  1.3176 -0.3539  0.3411
 5027TIP3    H215088   1.778   1.263   2.239 -1.2810 -0.2146  1.0508
 5028TIP3   OH215089   5.045   1.466   1.001 -0.0727 -0.1730 -0.0035
 5028TIP3    H115090   5.101   1.472   1.078  0.4490 -0.4282 -0.3568
 5028TIP3    H215091   5.094   1.511   0.932 -1.0080  1.0110  0.0659
 5029TIP3   OH215092   5.753   1.948   3.933  0.0271 -0.3041  0.3324
 5029TIP3    H115093   5.672   1.928   3.980 -0.5328 -2.5273 -1.4028
 5029TIP3    H215094   5.817   1.888   3.971  0.4819  0.4047  0.6845
 5030TIP3   OH215095   6.331   1.719   0.946 -0.0384  0.5345 -0.0524
 5030TIP3    H115096   6.238   1.703   0.934 -0.2133  0.1945  1.5132
 5030TIP3    H215097   6.346   1.806   0.910 -0.3665 -0.4716 -2.8925
 5031TIP3   OH215098   6.259   0.722   2.320 -0.1421 -0.3037  0.1291
 5031TIP3    H115099   6.179   0.774   2.329  0.7161  1.3589 -1.3039
 5031TIP3    H215100   6.320   0.780   2.274  2.0052 -1.4188  1.4573
 5032TIP3   OH215101   1.762   4.560   0.782  0.1639 -0.2770  0.2404
 5032TIP3    H115102   1.744   4.544   0.689  2.1321  0.6539 -0.3350
 5032TIP3    H215103   1.742   4.653   0.794 -2.1728 -0.8316  1.3376
 5033TIP3   OH215104   5.874   1.728   3.238 -0.0849 -0.6312 -0.0896
 5033TIP3    H115105   5.897   1.744   3.146 -0.6620 -1.9559 -0.4853
 5033TIP3    H215106   5.783   1.759   3.245  0.6601  1.6216  0.6634
 5034TIP3   OH215107   4.542   2.272   4.776  0.5741  0.8704 -0.1365
 5034TIP3    H115108   4.523   2.362   4.803  1.2293  1.5680 -1.8661
 5034TIP3    H215109   4.628   2.254   4.813  0.4279  0.9354  0.2424
 5035TIP3   OH215110   5.218   5.160   3.414 -0.2716  0.3028  0.1912
 5035TIP3    H115111   5.274   5.095   3.457  0.9908  0.7338 -0.7365
 5035TIP3    H215112   5.162   5.193   3.484  2.5201  1.8805  1.8946
 5036TIP3   OH215113   2.306   0.035   0.793 -0.6749 -0.0469 -0.0955
 5036TIP3    H115114   2.222   0.080   0.793 -0.7381 -0.0836  2.0539
 5036TIP3    H215115   2.344   0.056   0.707 -0.8842  3.7274  0.5698
 5037TIP3   OH215116   4.449   1.585   3.012 -0.6594  0.4838  0.0157
 5037TIP3    H115117   4.446   1.546   2.924 -0.3005 -0.0588  0.2363
 5037TIP3    H215118   4.543   1.596   3.029 -0.7535  2.2589 -0.3856
 5038TIP3   OH215119   2.793   0.591   5.166 -0.1756  0.1933 -0.4307
 5038TIP3    H115120   2.741   0.516   5.137 -1.7449  1.0644  0.0414
 5038TIP3    H215121   2.730   0.662   5.175  0.4845  0.5092  3.1862
 5039TIP3   OH215122   3.606   2.803   1.247 -0.1947  0.3184 -0.0600
 5039TIP3    H115123   3.698   2.776   1.258 -0.5403 -0.5803  0.8752
 5039TIP3    H215124   3.593   2.869   1.315 -0.2648  0.3543 -0.1094
 5040TIP3   OH215125   0.493   2.186   1.849 -0.1021  0.7908 -0.4005
 5040TIP3    H115126   0.586   2.200   1.863 -0.1096  1.1187 -0.6736
 5040TIP3    H215127   0.480   2.198   1.754 -0.3490  0.3294 -0.4333
 5041TIP3   OH215128   3.128   1.579   4.041 -0.0623 -0.2806  0.4553
 5041TIP3    H115129   3.167   1.587   3.954  0.2109  0.1826  0.6209
 5041TIP3    H215130   3.138   1.665   4.081 -2.6573  0.3223 -0.0627
 5042TIP3   OH215131   3.954   4.990   3.908 -0.4986  0.0557  0.5317
 5042TIP3    H115132   3.872   4.953   3.940 -1.6855  2.5070  0.5319
 5042TIP3    H215133   3.985   5.046   3.980  1.2028 -0.8294  0.5307
 5043TIP3   OH215134   0.829   4.401   0.639  0.0172 -0.1696  0.0042
 5043TIP3    H115135   0.888   4.434   0.571  2.5883 -2.7726  0.7864
 5043TIP3    H215136   0.819   4.308   0.619 -2.1122 -0.2629  1.2096
 5044TIP3   OH215137   4.637   2.331   0.685 -0.1496  0.0861 -0.0020
 5044TIP3    H115138   4.665   2.280   0.761 -1.0205 -0.3410  0.0515
 5044TIP3    H215139   4.637   2.422   0.716 -0.4909 -0.0819  0.5215
 5045TIP3   OH215140   4.622   4.035   3.562  0.0852  0.6734  1.1047
 5045TIP3    H115141   4.600   4.102   3.626 -1.9130  2.6438 -1.4258
 5045TIP3    H215142   4.540   3.988   3.547 -0.1543  1.7249 -1.4642
 5046TIP3   OH215143   5.200   3.941   4.067 -0.0023 -0.2890 -0.4869
 5046TIP3    H115144   5.169   3.931   3.977 -0.3074 -0.1884 -0.3956
 5046TIP3    H215145   5.125   3.979   4.114  0.2600 -0.0444 -0.2610
 5047TIP3   OH215146   5.993   4.276   2.610  0.1546 -0.2863  0.2069
 5047TIP3    H115147   6.001   4.181   2.619  0.2395 -0.1569  1.8913
 5047TIP3    H215148   5.899   4.293   2.615  0.1786 -0.2450  0.5820
 5048TIP3   OH215149   0.698   5.681   4.666 -0.1310 -0.8317  0.2713
 5048TIP3    H115150   0.609   5.718   4.662  0.2245 -0.0104 -0.4002
 5048TIP3    H215151   0.685   5.586   4.659 -0.8244 -0.6121 -2.9007
 5049TIP3   OH215152   2.502   0.489   0.194 -0.3485  0.3471  0.1687
 5049TIP3    H115153   2.433   0.426   0.173 -0.4065  0.7713 -0.9924
 5049TIP3    H215154   2.494   0.557   0.127  0.2473  1.1671  0.9040
 5050TIP3   OH215155   6.298   2.649   1.724  0.0804 -0.4492 -0.0358
 5050TIP3    H115156   6.368   2.584   1.715  1.5682  1.0625  0.0935
 5050TIP3    H215157   6.288   2.685   1.636 -1.0647 -1.1452 -0.2053
 5051TIP3   OH215158   5.794   5.027   4.438 -0.2075 -0.6143 -0.1997
 5051TIP3    H115159   5.789   5.094   4.507 -0.3092 -0.0560 -0.7472
 5051TIP3    H215160   5.818   5.075   4.359  3.1712 -1.6214  0.0284
 5052TIP3   OH215161   2.047   5.541   4.810  0.3428 -0.5962 -0.2130
 5052TIP3    H115162   2.046   5.465   4.867  1.9454 -0.8812 -0.5272
 5052TIP3    H215163   1.985   5.602   4.850 -0.6678 -1.8924  0.2542
 5053TIP3   OH215164   5.910   5.846   0.326  0.5750  0.3829 -0.1923
 5053TIP3    H115165   5.817   5.852   0.305  1.0853 -1.3640 -3.7292
 5053TIP3    H215166   5.917   5.767   0.380  0.0353  0.6305  0.2564
 5054TIP3   OH215167   1.013   0.751   3.945  1.0458  0.1235 -0.3424
 5054TIP3    H115168   1.028   0.663   3.981 -0.3155  0.1558  0.3667
 5054TIP3    H215169   0.983   0.803   4.020  1.7423  1.1801 -0.7767
 5055TIP3   OH215170   1.686   1.073   1.454 -0.1222 -0.0417  0.0245
 5055TIP3    H115171   1.638   0.994   1.427  1.0695 -0.0154 -2.4660
 5055TIP3    H215172   1.629   1.146   1.429 -0.2264 -0.0584  0.2079
 5056TIP3   OH215173   3.983   5.890   5.092 -0.1353  0.3271 -0.2093
 5056TIP3    H115174   3.927   5.967   5.103  0.9668  1.2221 -0.6691
 5056TIP3    H215175   3.963   5.835   5.168  0.6797  2.1208  1.3928
 5057TIP3   OH215176   5.008   5.728   1.629  0.1035  0.0263 -0.4994
 5057TIP3    H115177   4.990   5.655   1.688 -1.4161  0.2303 -0.6916
 5057TIP3    H215178   4.923   5.755   1.596  0.5107  2.5320  0.2917
 5058TIP3   OH215179   2.257   1.593   1.003  0.2527 -0.1997 -0.0074
 5058TIP3    H115180   2.285   1.615   1.092  0.8302  0.3530 -0.3167
 5058TIP3    H215181   2.222   1.504   1.010 -1.2744  0.4338  1.0973
 5059TIP3   OH215182   2.117   2.449   4.501 -0.1003  0.1967  0.5352
 5059TIP3    H115183   2.119   2.373   4.443 -0.3532  0.2350  0.4768
 5059TIP3    H215184   2.050   2.506   4.464  0.7482  0.8955  0.0126
 5060TIP3   OH215185   3.651   5.743   0.324 -0.1423 -0.0061 -0.8341
 5060TIP3    H115186   3.719   5.778   0.382 -0.6028 -1.2599  0.5477
 5060TIP3    H215187   3.666   5.785   0.240 -0.1797  2.8655  0.4751
 5061TIP3   OH215188   1.299   2.994   3.774  0.2674  0.2678  0.8526
 5061TIP3    H115189   1.307   2.898   3.772  0.3019  0.2141 -2.6091
 5061TIP3    H215190   1.237   3.014   3.704  1.0241  2.8367  0.8353
 5062TIP3   OH215191   0.420   1.040   3.855  0.2625  0.2065  0.1365
 5062TIP3    H115192   0.482   1.018   3.924  0.4406 -1.7589 -0.5862
 5062TIP3    H215193   0.463   1.110   3.806  0.4168  1.1719  1.6032
 5063TIP3   OH215194   4.103   3.664   1.287  0.3223  0.4769  0.4258
 5063TIP3    H115195   4.047   3.673   1.209 -0.3825 -1.7660  0.5837
 5063TIP3    H215196   4.163   3.738   1.283 -0.6958  1.2649 -1.4232
 5064TIP3   OH215197   4.036   4.698   0.248 -0.4889  0.1684  0.3324
 5064TIP3    H115198   3.996   4.670   0.166 -1.2233 -1.8293  1.3075
 5064TIP3    H215199   3.971   4.756   0.288 -1.4516 -1.1885  0.8132
 5065TIP3   OH215200   0.921   5.850   3.052 -0.0706  0.1479 -0.1299
 5065TIP3    H115201   0.939   5.772   3.105 -0.0521 -1.9202 -2.9457
 5065TIP3    H215202   0.849   5.824   2.995  1.1692  1.4956 -2.4662
 5066TIP3   OH215203   4.592   2.955   4.301 -0.0426  0.2708  0.1391
 5066TIP3    H115204   4.521   3.000   4.346  0.8568  1.2937  0.5787
 5066TIP3    H215205   4.556   2.935   4.214 -1.0554  0.2232  0.5497
 5067TIP3   OH215206   3.295   0.758   2.536  0.3979  0.5588  0.3387
 5067TIP3    H115207   3.379   0.804   2.535 -0.0513  1.4131  0.6695
 5067TIP3    H215208   3.278   0.738   2.444  0.5451  1.1621  0.1774
 5068TIP3   OH215209   3.116   2.993   1.286 -0.0141 -0.5286 -0.2347
 5068TIP3    H115210   3.160   2.996   1.371  0.8618 -0.7358 -0.6639
 5068TIP3    H215211   3.031   3.034   1.301  0.5445  0.3986  0.4955
 5069TIP3   OH215212   3.709   4.186   1.283 -0.1955 -0.0466  0.4066
 5069TIP3    H115213   3.686   4.267   1.238  0.5159  0.6233  1.2130
 5069TIP3    H215214   3.646   4.122   1.250  1.3532 -0.0589 -2.8786
 5070TIP3   OH215215   5.540   2.236   4.649  0.1623  0.3571 -0.1005
 5070TIP3    H115216   5.518   2.308   4.589  1.2930 -0.3602 -1.4435
 5070TIP3    H215217   5.636   2.232   4.646  0.1427 -0.8018  0.4394
 5071TIP3   OH215218   1.322   4.121   1.383  0.3788  0.4005 -0.0229
 5071TIP3    H115219   1.264   4.091   1.313  1.4224 -1.8175 -0.0195
 5071TIP3    H215220   1.263   4.144   1.455 -0.5847  0.4059 -0.7912
 5072TIP3   OH215221   4.783   2.283   1.375 -0.1734  0.6195 -0.2059
 5072TIP3    H115222   4.781   2.245   1.464  2.0783  1.4593  0.2690
 5072TIP3    H215223   4.821   2.370   1.387  1.2351  0.3149 -2.1395
 5073TIP3   OH215224   3.300   1.223   3.543  1.0121  0.0066 -0.5596
 5073TIP3    H115225   3.328   1.132   3.532  0.9217 -0.4349  2.1764
 5073TIP3    H215226   3.373   1.266   3.588  0.3756  0.8292 -0.2875
 5074TIP3   OH215227   1.574   4.840   4.926 -0.3268  0.2787 -0.0583
 5074TIP3    H115228   1.480   4.856   4.936 -0.2181  1.1174 -0.3194
 5074TIP3    H215229   1.586   4.750   4.957 -1.3582 -0.1483 -0.8151
 5075TIP3   OH215230   0.051   5.579   5.117  0.0448 -0.4762 -0.0152
 5075TIP3    H115231   0.079   5.488   5.112 -1.7467 -1.2223  2.0329
 5075TIP3    H215232   0.002   5.593   5.036  0.1520 -1.3880 -0.2525
 5076TIP3   OH215233   5.096   1.987   3.099  0.8220 -0.3516 -0.0224
 5076TIP3    H115234   5.156   1.917   3.071  2.4755  0.6323  0.8688
 5076TIP3    H215235   5.149   2.067   3.094 -0.9093  0.8137 -0.6906
 5077TIP3   OH215236   2.621   2.180   2.840  0.8821  0.1863 -0.5099
 5077TIP3    H115237   2.688   2.242   2.870  1.5165  0.1024 -1.7022
 5077TIP3    H215238   2.567   2.231   2.779  0.0490  0.1604  0.1850
 5078TIP3   OH215239   5.561   1.889   0.514 -0.5079  0.4620 -0.0898
 5078TIP3    H115240   5.588   1.923   0.599 -0.7239  0.9770 -0.2233
 5078TIP3    H215241   5.472   1.922   0.503 -1.4247 -1.5938  0.5714
 5079TIP3   OH215242   2.082   0.764   2.600 -0.1406  0.1330  0.6434
 5079TIP3    H115243   2.045   0.678   2.620 -3.5125  1.5224  1.1992
 5079TIP3    H215244   2.031   0.796   2.526  2.3030  0.9832 -0.7815
 5080TIP3   OH215245   3.296   4.139   0.964  0.0039 -0.1502  0.1563
 5080TIP3    H115246   3.326   4.049   0.949 -0.6120 -0.2734 -0.3595
 5080TIP3    H215247   3.374   4.192   0.954 -0.1284 -0.3321 -2.4128
 5081TIP3   OH215248   4.158   1.082   3.898 -0.1047  0.6942  0.2490
 5081TIP3    H115249   4.079   1.129   3.926 -0.0315  1.0504 -0.1168
 5081TIP3    H215250   4.131   0.991   3.893  0.2955  0.3473  2.9653
 5082TIP3   OH215251   0.710   5.608   3.990  0.0946 -0.3283 -0.0674
 5082TIP3    H115252   0.705   5.683   4.049  1.3401  0.1696 -0.5544
 5082TIP3    H215253   0.776   5.551   4.028  1.4221  0.3280 -1.2888
 5083TIP3   OH215254   3.990   2.839   4.290 -0.0556  0.2505 -0.9870
 5083TIP3    H115255   3.945   2.906   4.341  0.3749 -0.3908  0.2578
 5083TIP3    H215256   4.069   2.883   4.257  1.7749 -0.3154  2.2293
 5084TIP3   OH215257   4.655   4.464   4.348  0.2455 -0.3548  0.4101
 5084TIP3    H115258   4.614   4.500   4.427  0.2255 -0.5454  0.4850
 5084TIP3    H215259   4.591   4.481   4.279  0.8436  1.0953  0.1580
 5085TIP3   OH215260   0.338   1.729   3.883 -0.6133  0.2046 -0.5194
 5085TIP3    H115261   0.394   1.724   3.961 -1.1320  0.7070 -0.1009
 5085TIP3    H215262   0.266   1.670   3.902 -0.7110  0.2848 -0.6433
 5086TIP3   OH215263   5.513   1.336   4.921  0.1234  0.2912  0.2118
 5086TIP3    H115264   5.526   1.317   5.014 -1.7477  0.6655  0.5994
 5086TIP3    H215265   5.419   1.354   4.913  0.0933 -0.5130 -1.9018
 5087TIP3   OH215266   4.115   4.080   1.352 -0.3206  0.3514  0.5770
 5087TIP3    H115267   4.064   4.075   1.433 -0.0216 -0.6684  0.7202
 5087TIP3    H215268   4.207   4.075   1.381 -0.2349 -1.1758  0.1275
 5088TIP3   OH215269   2.221   0.801   1.438 -0.2002 -0.2761  0.3192
 5088TIP3    H115270   2.253   0.891   1.442 -2.2787  0.5011  0.7441
 5088TIP3    H215271   2.149   0.803   1.376 -2.6954 -0.7641  3.0154
 5089TIP3   OH215272   2.621   1.582   4.741 -0.4325 -0.3715  0.3497
 5089TIP3    H115273   2.631   1.611   4.832  0.7569 -1.3863  0.5546
 5089TIP3    H215274   2.666   1.649   4.690  0.6378 -0.8194  0.6783
 5090TIP3   OH215275   5.600   5.362   0.155  0.4380  0.2460  0.2232
 5090TIP3    H115276   5.510   5.348   0.185  0.3840 -1.3239 -0.5682
 5090TIP3    H215277   5.653   5.304   0.209  0.8004  0.1192 -0.2607
 5091TIP3   OH215278   5.893   5.312   2.497 -0.3900  0.1630  0.3134
 5091TIP3    H115279   5.946   5.241   2.533 -1.5578 -0.9151 -0.0165
 5091TIP3    H215280   5.934   5.392   2.530  0.0272 -0.6988  1.9941
 5092TIP3   OH215281   0.123   2.711   1.492  0.3367 -0.4153  0.1126
 5092TIP3    H115282   0.216   2.736   1.497  0.6400 -1.6758  1.1010
 5092TIP3    H215283   0.125   2.618   1.471 -0.7488 -0.1593 -1.2631
 5093TIP3   OH215284   5.825   5.551   4.227 -0.3992 -0.2046 -0.3186
 5093TIP3    H115285   5.850   5.638   4.259  1.6075 -0.6770 -0.4658
 5093TIP3    H215286   5.827   5.560   4.131  1.2850 -0.7307 -0.3751
 5094TIP3   OH215287   4.584   2.117   2.924  0.6568  0.2282  0.1089
 5094TIP3    H115288   4.673   2.148   2.942  0.9948 -1.0901  0.8306
 5094TIP3    H215289   4.568   2.050   2.990 -0.6638  0.0302 -0.3813
 5095TIP3   OH215290   4.978   3.690   3.974 -0.0004 -0.1455 -0.6614
 5095TIP3    H115291   5.059   3.727   3.941  0.1807 -0.4408 -0.5538
 5095TIP3    H215292   4.965   3.610   3.922  0.1038 -0.4262 -0.2643
 5096TIP3   OH215293   0.768   2.250   4.085  0.6081 -0.5934 -0.5228
 5096TIP3    H115294   0.764   2.311   4.159  0.3451 -2.0189  0.6914
 5096TIP3    H215295   0.677   2.228   4.067  0.6891 -0.4756 -1.0954
 5097TIP3   OH215296   4.441   5.196   2.174  0.2666  0.5078 -0.6716
 5097TIP3    H115297   4.514   5.249   2.208  0.3411  0.0397 -0.0931
 5097TIP3    H215298   4.426   5.130   2.242 -2.6366  2.3209  0.6347
 5098TIP3   OH215299   3.467   0.232   0.137 -0.2339 -0.4894 -0.0784
 5098TIP3    H115300   3.553   0.200   0.165  0.2701 -1.2381 -2.3211
 5098TIP3    H215301   3.483   0.320   0.103 -0.3299 -0.6460 -0.5402
 5099TIP3   OH215302   1.835   0.820   0.542 -0.3028  0.4965 -0.1474
 5099TIP3    H115303   1.772   0.758   0.505 -0.6844  1.3516 -0.9422
 5099TIP3    H215304   1.915   0.807   0.490  0.6683 -1.4929  1.6616
 5100TIP3   OH215305   2.056   3.095   0.053 -0.6078 -0.0375  0.5478
 5100TIP3    H115306   2.047   3.001   0.063 -1.0460  0.1465  2.1503
 5100TIP3    H215307   1.968   3.126   0.032 -0.3517 -0.0305 -0.5781
 5101TIP3   OH215308   1.579   4.880   3.607 -0.2552 -0.1812 -0.8980
 5101TIP3    H115309   1.564   4.897   3.700  0.5036 -1.5677 -0.4970
 5101TIP3    H215310   1.622   4.959   3.575  0.8966 -0.2823  0.3017
 5102TIP3   OH215311   3.997   0.650   1.985  0.3328 -0.3028  0.2232
 5102TIP3    H115312   3.917   0.673   2.034 -0.3721 -0.0382 -1.0026
 5102TIP3    H215313   4.004   0.717   1.918  1.4998 -0.4408  0.1873
 5103TIP3   OH215314   0.916   5.229   3.535 -0.1085  0.5429  0.5285
 5103TIP3    H115315   0.832   5.207   3.576 -1.0311  0.2761 -1.4053
 5103TIP3    H215316   0.935   5.154   3.478 -0.6952  2.3339 -2.1986
 5104TIP3   OH215317   0.627   1.245   3.983  0.2552 -1.0044  0.1913
 5104TIP3    H115318   0.705   1.301   3.977 -0.0535 -0.5881  0.0038
 5104TIP3    H215319   0.655   1.161   3.947 -0.1748 -0.0105 -2.7340
 5105TIP3   OH215320   4.784   0.533   2.583  0.0507 -0.2466  0.6043
 5105TIP3    H115321   4.693   0.524   2.553  0.3406 -1.3324 -0.0101
 5105TIP3    H215322   4.785   0.491   2.669  0.3143 -1.8124 -0.1239
 5106TIP3   OH215323   2.558   2.350   2.630 -0.5363 -0.1263 -0.0186
 5106TIP3    H115324   2.479   2.386   2.590 -0.5227  0.7332  0.7068
 5106TIP3    H215325   2.578   2.272   2.578 -2.7469 -1.2499  0.7128
 5107TIP3   OH215326   0.390   2.018   2.033  0.1773 -0.1707 -0.0359
 5107TIP3    H115327   0.430   2.075   1.967 -0.3438 -0.8762 -0.9901
 5107TIP3    H215328   0.463   1.969   2.070  0.4698  0.2056 -0.1130
 5108TIP3   OH215329   3.640   1.379   4.652 -0.3027  0.0600 -0.4218
 5108TIP3    H115330   3.648   1.288   4.679 -1.2821  0.1586  0.2684
 5108TIP3    H215331   3.619   1.426   4.733  0.2053  0.9065 -0.7614
 5109TIP3   OH215332   0.747   3.861   0.235  0.3994  0.6794  0.3790
 5109TIP3    H115333   0.736   3.771   0.266 -0.1487  0.5205 -0.2677
 5109TIP3    H215334   0.835   3.885   0.263  0.5580 -0.0659  0.5371
 5110TIP3   OH215335   1.023   1.493   2.040  0.1975 -0.3853  0.2493
 5110TIP3    H115336   0.977   1.555   1.983 -0.5706 -0.9155  0.2873
 5110TIP3    H215337   1.101   1.541   2.068 -0.6935  0.8103  0.7860
 5111TIP3   OH215338   6.311   2.980   1.163  0.3239  0.1542 -0.5520
 5111TIP3    H115339   6.267   2.925   1.228 -2.0040  1.6925 -0.7341
 5111TIP3    H215340   6.387   3.016   1.209  0.4934 -1.2426  0.3066
 5112TIP3   OH215341   4.664   2.226   3.742  0.3742  0.4086 -0.6198
 5112TIP3    H115342   4.587   2.256   3.792  0.3126  1.1720 -1.1565
 5112TIP3    H215343   4.629   2.159   3.683  0.4998 -0.7215  0.5437
 5113TIP3   OH215344   2.535   5.770   3.325 -0.7102 -0.4252 -1.0067
 5113TIP3    H115345   2.466   5.704   3.326 -0.4461 -0.7053 -1.1138
 5113TIP3    H215346   2.493   5.848   3.287 -1.4784 -0.0024  0.6262
 5114TIP3   OH215347   4.766   1.884   4.342  0.6212  0.2028  0.0094
 5114TIP3    H115348   4.726   1.837   4.415  1.1806 -3.1701 -1.6100
 5114TIP3    H215349   4.848   1.919   4.377  1.0184 -1.5771  1.0071
 5115TIP3   OH215350   4.942   1.059   1.581  0.5890 -0.2122 -0.0923
 5115TIP3    H115351   4.849   1.082   1.589  0.2916 -1.1401 -0.7085
 5115TIP3    H215352   4.970   1.098   1.499  0.2839 -1.3324 -0.7540
 5116TIP3   OH215353   5.567   5.170   3.730  0.3125 -0.0379 -0.2973
 5116TIP3    H115354   5.597   5.236   3.667 -1.3884  0.2590 -0.8283
 5116TIP3    H215355   5.552   5.220   3.811  0.3703 -0.0319 -0.2899
 5117TIP3   OH215356   0.009   5.004   3.228 -0.1010 -0.1521  0.3639
 5117TIP3    H115357   0.057   4.954   3.294  1.5662  1.2213  0.2542
 5117TIP3    H215358  -0.052   5.059   3.278 -1.7230 -1.9496  0.4993
 5118TIP3   OH215359   6.044   5.326   1.433  0.3063  0.3003  0.0427
 5118TIP3    H115360   6.094   5.261   1.481 -0.6179  0.7972  1.7676
 5118TIP3    H215361   6.081   5.325   1.344  1.1189 -1.6584  0.3607
 5119TIP3   OH215362   3.316   3.786   3.043  0.2662  0.5193 -0.0581
 5119TIP3    H115363   3.404   3.771   3.078 -0.0969 -1.6297  0.1100
 5119TIP3    H215364   3.270   3.831   3.114  0.8841  0.5604  0.3271
 5120TIP3   OH215365   2.119   0.089   0.076 -0.1124 -0.3482 -0.5299
 5120TIP3    H115366   2.051   0.128   0.132 -1.3345 -1.4640 -1.1730
 5120TIP3    H215367   2.082   0.004   0.050  0.2073  0.2811 -3.3572
 5121TIP3   OH215368   5.290   3.631   3.967 -0.2194  0.1615 -0.3944
 5121TIP3    H115369   5.245   3.549   3.947  0.9032 -0.3286 -1.0335
 5121TIP3    H215370   5.326   3.660   3.883  0.1317  0.8509 -0.0141
 5122TIP3   OH215371   1.896   1.049   4.150 -0.1774 -0.2511 -0.5860
 5122TIP3    H115372   1.950   1.073   4.226  2.9824 -1.5357 -2.2510
 5122TIP3    H215373   1.899   1.125   4.093 -2.5962  0.7339  0.4501
 5123TIP3   OH215374   1.191   2.988   3.101 -0.0091  0.1009 -0.4135
 5123TIP3    H115375   1.245   2.988   3.180  1.5208 -1.7825 -1.3637
 5123TIP3    H215376   1.103   2.967   3.132 -0.0312  2.0304  1.0395
 5124TIP3   OH215377   1.861   0.619   0.179 -0.1620  0.1704  0.2951
 5124TIP3    H115378   1.890   0.534   0.147  1.3775  1.1132 -0.9952
 5124TIP3    H215379   1.840   0.668   0.099  0.0866  1.3619  0.9444
 5125TIP3   OH215380   5.256   0.533   3.198 -0.4957 -0.3286 -0.1999
 5125TIP3    H115381   5.224   0.444   3.184 -0.7909 -0.1900 -0.4175
 5125TIP3    H215382   5.349   0.529   3.176 -0.4942 -0.5979 -0.1430
 5126TIP3   OH215383   2.492   1.573   2.140  0.2783  0.1398  0.4631
 5126TIP3    H115384   2.444   1.550   2.219  0.3803 -0.4051  0.3664
 5126TIP3    H215385   2.428   1.561   2.069  0.5417 -0.5525  0.3384
 5127TIP3   OH215386   5.184   1.652   0.806 -0.0215 -0.0008  0.4929
 5127TIP3    H115387   5.246   1.593   0.765 -0.4206 -0.0095 -0.1170
 5127TIP3    H215388   5.194   1.735   0.759  0.3602  0.3515  1.1766
 5128TIP3   OH215389   0.328   5.773   4.986 -0.9231 -0.3491  0.1925
 5128TIP3    H115390   0.420   5.755   5.004 -0.9246 -0.0080  0.5421
 5128TIP3    H215391   0.280   5.719   5.049 -0.9710 -0.6160 -0.0658
 5129TIP3   OH215392   4.528   5.705   1.222  0.3748 -0.0232  0.5345
 5129TIP3    H115393   4.504   5.742   1.306  0.1465  0.1141  0.4106
 5129TIP3    H215394   4.461   5.737   1.162  0.4372 -0.2612  0.3366
 5130TIP3   OH215395   5.673   2.885   0.552 -0.6438 -0.0339  0.1480
 5130TIP3    H115396   5.610   2.956   0.545  0.4679  1.0511  0.9451
 5130TIP3    H215397   5.657   2.832   0.473 -1.4724  1.0930 -0.4693
 5131TIP3   OH215398   0.738   3.969   3.275  0.5961 -0.9506 -0.2523
 5131TIP3    H115399   0.804   4.005   3.215 -0.3540 -1.1268 -1.4508
 5131TIP3    H215400   0.702   4.046   3.319  3.1516 -1.0031  2.1765
 5132TIP3   OH215401   1.151   4.044   0.866 -0.2228 -0.2174  0.1229
 5132TIP3    H115402   1.127   4.132   0.894 -2.4064 -0.4997 -0.6753
 5132TIP3    H215403   1.211   4.013   0.933 -1.0572  1.1071  1.5473
 5133TIP3   OH215404   0.790   0.532   3.148 -0.0821  0.1743  0.5517
 5133TIP3    H115405   0.859   0.530   3.082  0.7895  0.1676  1.4449
 5133TIP3    H215406   0.712   0.560   3.100  1.0386  2.5183 -0.0671
 5134TIP3   OH215407   4.989   2.572   0.512 -0.1886  0.6731  0.0634
 5134TIP3    H115408   5.052   2.538   0.576  0.4922  0.9413 -0.4571
 5134TIP3    H215409   4.904   2.566   0.557  0.2753  0.8695  0.9964
 5135TIP3   OH215410   3.772   4.631   0.995 -0.1350  0.3192  0.2751
 5135TIP3    H115411   3.728   4.561   1.044 -0.1681 -0.4339 -0.7810
 5135TIP3    H215412   3.857   4.594   0.972 -0.6188  0.1252 -1.3433
 5136TIP3   OH215413   6.185   5.802   3.094 -0.1716 -0.4813  0.4966
 5136TIP3    H115414   6.212   5.714   3.122  0.7516 -0.1896  0.5431
 5136TIP3    H215415   6.100   5.814   3.135  0.0756 -1.0238  1.1995
 5137TIP3   OH215416   5.440   0.158   5.074 -0.8552  0.3077  1.1705
 5137TIP3    H115417   5.417   0.181   5.164  0.1129  1.6360  1.1145
 5137TIP3    H215418   5.380   0.088   5.051 -0.9196 -0.2763  2.9564
 5138TIP3   OH215419   0.508   3.960   2.747  0.0221  0.0170 -0.0476
 5138TIP3    H115420   0.514   3.991   2.656 -2.1657  2.1719  0.4255
 5138TIP3    H215421   0.543   4.033   2.799  3.5651 -2.1265  0.8664
 5139TIP3   OH215422   1.321   3.354   1.002  0.0268  0.1139  0.0359
 5139TIP3    H115423   1.298   3.384   0.914  1.2748  0.8672 -0.0554
 5139TIP3    H215424   1.416   3.340   0.999  0.1784  0.6664  1.3982
 5140TIP3   OH215425   1.240   5.168   0.149  0.4780 -0.3467 -0.3278
 5140TIP3    H115426   1.210   5.140   0.063  0.6910  2.2334 -1.3305
 5140TIP3    H215427   1.316   5.224   0.131 -0.7690  2.0456  1.2710
 5141TIP3   OH215428   5.524   2.317   0.067  0.0744  0.2269 -0.1103
 5141TIP3    H115429   5.506   2.229   0.033 -1.2330  0.7246 -0.7667
 5141TIP3    H215430   5.610   2.309   0.109  0.7055 -0.9820 -1.5138
 5142TIP3   OH215431   6.223   0.378   5.014  0.4212  0.3565  0.0320
 5142TIP3    H115432   6.311   0.353   5.045  0.4003 -0.0359 -0.2145
 5142TIP3    H215433   6.188   0.298   4.976  0.2842  0.7280 -0.6376
 5143TIP3   OH215434   1.843   3.857   4.372 -0.0993  0.2582 -0.2702
 5143TIP3    H115435   1.760   3.811   4.369  0.4767 -0.8450  0.4184
 5143TIP3    H215436   1.885   3.828   4.452  1.7479 -0.6238 -1.4768
 5144TIP3   OH215437   4.497   3.237   0.030 -0.3460 -0.4347 -0.3595
 5144TIP3    H115438   4.496   3.187  -0.051 -0.7476  0.4439 -0.9050
 5144TIP3    H215439   4.433   3.194   0.086 -1.1797 -0.1479 -1.0714
 5145TIP3   OH215440   0.783   3.229   3.511  0.1695  0.1549 -0.5041
 5145TIP3    H115441   0.853   3.235   3.446  0.0524 -0.8691 -0.7476
 5145TIP3    H215442   0.718   3.170   3.471 -0.1623 -0.0471  0.3105
 5146TIP3   OH215443   5.200   2.765   3.636  0.9937  0.2697  0.3276
 5146TIP3    H115444   5.245   2.750   3.719 -0.2284  0.0198  0.9708
 5146TIP3    H215445   5.113   2.726   3.648 -0.1923  2.6149 -0.0953
 5147TIP3   OH215446   5.795   1.377   4.343  0.9238  0.1819  0.4032
 5147TIP3    H115447   5.843   1.449   4.302 -0.2676  1.3192  0.9319
 5147TIP3    H215448   5.817   1.382   4.436 -0.8534  1.2875  0.8009
 5148TIP3   OH215449   1.894   3.359   1.398 -0.5606 -0.3491 -0.0070
 5148TIP3    H115450   1.907   3.267   1.374  1.6664  0.1715 -1.0536
 5148TIP3    H215451   1.950   3.408   1.338  0.0191  1.5350  1.9221
 5149TIP3   OH215452   0.298   4.492   4.315  0.8778 -0.2943  0.5571
 5149TIP3    H115453   0.250   4.409   4.311  0.7304 -0.2085  0.5386
 5149TIP3    H215454   0.385   4.470   4.281  0.4945 -0.1991 -0.5503
 5150TIP3   OH215455   2.248   1.048   5.011 -0.3826  0.0926 -0.7259
 5150TIP3    H115456   2.323   0.997   5.041 -0.2562  0.2277 -0.8106
 5150TIP3    H215457   2.172   0.991   5.026 -0.5616  0.8410  1.6765
 5151TIP3   OH215458   2.150   5.592   1.606  0.5221 -0.0284  0.2144
 5151TIP3    H115459   2.245   5.600   1.616  0.4418  0.7132  0.4619
 5151TIP3    H215460   2.133   5.625   1.517  0.3547  1.2009  0.6810
 5152TIP3   OH215461   5.030   1.115   4.746 -0.6248  0.0013 -0.3636
 5152TIP3    H115462   5.089   1.061   4.693 -0.7733  0.3713 -0.9202
 5152TIP3    H215463   5.047   1.088   4.836  1.0944  0.7682 -0.4154
 5153TIP3   OH215464   2.513   5.885   0.327 -0.0077 -0.3635 -0.1134
 5153TIP3    H115465   2.469   5.917   0.406  0.9371  1.1125 -0.1495
 5153TIP3    H215466   2.444   5.880   0.261 -0.2135  1.7457 -0.1226
 5154TIP3   OH215467   1.621   0.974   4.320 -0.6112 -0.3292  0.3389
 5154TIP3    H115468   1.695   0.915   4.335 -0.6228 -0.5213 -0.3503
 5154TIP3    H215469   1.657   1.062   4.336 -0.7413 -0.5321  1.9615
 5155TIP3   OH215470   0.243   2.670   2.808  0.2710  1.3690  0.3634
 5155TIP3    H115471   0.216   2.755   2.842  0.8316  0.6609  2.7735
 5155TIP3    H215472   0.308   2.639   2.871 -0.4727 -1.1768 -0.0098
 5156TIP3   OH215473   5.344   0.817   3.048  0.0709 -0.2184 -0.5839
 5156TIP3    H115474   5.330   0.797   3.141 -1.2431  0.2571 -0.6599
 5156TIP3    H215475   5.317   0.908   3.039  0.0416 -0.3065 -1.4626
 5157TIP3   OH215476   2.344   3.231   0.374  0.4356 -0.0237  0.4328
 5157TIP3    H115477   2.291   3.160   0.339  0.8301 -0.2549  0.2962
 5157TIP3    H215478   2.417   3.186   0.418  1.8580  0.3043 -1.4670
 5158TIP3   OH215479   1.032   5.105   0.447  0.5489 -0.5317 -0.2576
 5158TIP3    H115480   1.054   5.175   0.386  3.4730 -1.5678 -0.5748
 5158TIP3    H215481   1.052   5.141   0.533 -1.2852  0.1077 -0.0418
 5159TIP3   OH215482   0.086   4.104   1.803  0.3518 -0.4490  0.3912
 5159TIP3    H115483   0.082   4.095   1.899 -0.3992 -1.2632  0.2908
 5159TIP3    H215484   0.038   4.029   1.770 -0.9075  0.7387 -0.6004
 5160TIP3   OH215485   3.270   2.707   4.990 -0.2816 -0.3426 -0.5304
 5160TIP3    H115486   3.191   2.655   4.973 -0.1448 -0.9551  0.6160
 5160TIP3    H215487   3.237   2.791   5.020 -0.5389  0.8400 -3.7452
 5161TIP3   OH215488   4.215   4.231   2.792  0.1204 -0.1075 -0.4630
 5161TIP3    H115489   4.178   4.277   2.717  0.2950 -0.0916 -0.5400
 5161TIP3    H215490   4.141   4.184   2.830  0.0557 -0.2098 -0.7150
 5162TIP3   OH215491   2.990   2.070   2.293  0.5874 -0.7360 -0.1283
 5162TIP3    H115492   2.999   2.004   2.224  1.4173 -1.3467  0.5219
 5162TIP3    H215493   2.986   2.018   2.374  0.3959 -0.0119  0.3325
 5163TIP3   OH215494   3.325   2.495   0.421  0.0974 -0.2684  0.0336
 5163TIP3    H115495   3.256   2.431   0.408  0.3617 -0.6908  0.6296
 5163TIP3    H215496   3.361   2.510   0.334 -1.1454  0.4258 -0.3749
 5164TIP3   OH215497   4.638   2.487   1.881  0.2982  0.0243 -0.3080
 5164TIP3    H115498   4.714   2.429   1.875  0.9886  0.8692  0.1589
 5164TIP3    H215499   4.625   2.519   1.792 -1.1216 -2.0943 -0.9514
 5165TIP3   OH215500   2.807   5.426   0.353 -0.0443  0.0581  0.8807
 5165TIP3    H115501   2.763   5.342   0.341 -2.0560  1.1291  0.3539
 5165TIP3    H215502   2.740   5.483   0.390  0.7538  1.9152 -0.4032
 5166TIP3   OH215503   2.227   3.187   4.905 -0.4766  0.1446 -0.5172
 5166TIP3    H115504   2.205   3.188   4.812  1.0649 -0.5253 -0.9143
 5166TIP3    H215505   2.276   3.106   4.918 -3.2054 -1.3622  1.5337
 5167TIP3   OH215506   0.740   2.328   5.093 -0.0184  0.2057  0.2337
 5167TIP3    H115507   0.781   2.371   5.168  0.7521  0.4460 -0.3190
 5167TIP3    H215508   0.658   2.292   5.128 -0.0192  0.9476  1.0114
 5168TIP3   OH215509   0.627   3.949   0.642  0.1352  0.4964  0.1032
 5168TIP3    H115510   0.570   3.990   0.708 -0.4386  0.7325 -0.5269
 5168TIP3    H215511   0.690   3.899   0.693 -1.6643 -1.1701  0.7946
 5169TIP3   OH215512   3.305   4.102   2.391 -0.4819 -0.3307  0.4298
 5169TIP3    H115513   3.385   4.078   2.344 -0.7783  2.0548 -1.5155
 5169TIP3    H215514   3.335   4.126   2.479  0.4733 -2.3291  0.7074
 5170TIP3   OH215515   4.530   5.418   1.237 -0.0346  0.2121  0.0072
 5170TIP3    H115516   4.625   5.423   1.228 -0.2328  0.3824 -2.7981
 5170TIP3    H215517   4.500   5.507   1.216 -0.8378  0.1332  0.7829
 5171TIP3   OH215518   2.176   3.596   3.621 -0.2982 -0.1070 -0.1874
 5171TIP3    H115519   2.184   3.590   3.717 -1.6645 -1.8488 -0.1195
 5171TIP3    H215520   2.083   3.611   3.606  0.1631  2.0491 -1.2499
 5172TIP3   OH215521   4.619   3.948   1.737 -0.2513 -0.3112  0.0784
 5172TIP3    H115522   4.680   3.974   1.668 -0.6261  1.8760  0.4987
 5172TIP3    H215523   4.566   3.879   1.696  1.0047 -0.6626 -1.0377
 5173TIP3   OH215524   3.902   1.114   2.675  0.2675  0.3056  0.0478
 5173TIP3    H115525   3.846   1.094   2.600  0.5174  0.2667 -0.1279
 5173TIP3    H215526   3.988   1.081   2.651  0.6469  1.4411 -0.1814
 5174TIP3   OH215527   1.247   3.502   3.613  0.5120 -0.1269  0.1292
 5174TIP3    H115528   1.155   3.530   3.618  0.2199 -0.6451 -1.6582
 5174TIP3    H215529   1.242   3.406   3.607  1.1255 -0.1258 -0.4923
 5175TIP3   OH215530   4.114   3.712   3.226 -0.4328 -0.0973 -0.2439
 5175TIP3    H115531   4.132   3.622   3.198 -3.6107 -1.0972  0.4761
 5175TIP3    H215532   4.119   3.764   3.146 -1.0783 -1.3944 -1.1666
 5176TIP3   OH215533   2.626   5.137   1.579  0.2564 -0.0686  0.1560
 5176TIP3    H115534   2.597   5.228   1.575 -2.0773 -0.7911 -2.0502
 5176TIP3    H215535   2.600   5.108   1.667 -1.1363  0.7981  0.0707
 5177TIP3   OH215536   3.907   4.316   0.095  0.0778  0.2211  0.5072
 5177TIP3    H115537   3.936   4.256   0.026 -2.0780  0.8678 -1.0516
 5177TIP3    H215538   3.891   4.260   0.171 -0.3626 -0.9370 -0.4235
 5178TIP3   OH215539   1.916   1.815   0.630 -0.0329 -0.3427 -0.4436
 5178TIP3    H115540   1.927   1.745   0.564  0.1451  0.6928 -1.5506
 5178TIP3    H215541   1.963   1.782   0.707  3.5936  0.1959 -2.2054
 5179TIP3   OH215542   4.506   1.141   0.258 -0.2390 -0.2697  0.3663
 5179TIP3    H115543   4.583   1.184   0.294 -1.2396  1.1633  0.8505
 5179TIP3    H215544   4.476   1.199   0.188  0.6757 -2.1585 -1.7246
 5180TIP3   OH215545   0.443   0.841   4.412 -0.5890  0.3647 -0.1322
 5180TIP3    H115546   0.439   0.886   4.496  1.1675  1.0292 -0.3542
 5180TIP3    H215547   0.355   0.805   4.399 -1.2953  1.4902  1.2900
 5181TIP3   OH215548   3.493   2.253   4.302 -0.0920  0.1242 -0.5987
 5181TIP3    H115549   3.494   2.300   4.219 -0.9392 -1.5606 -1.6036
 5181TIP3    H215550   3.464   2.318   4.366  0.0571  1.2999 -1.7009
 5182TIP3   OH215551   2.296   5.450   2.298 -0.0982  0.3899  0.4913
 5182TIP3    H115552   2.201   5.460   2.294 -0.4776 -2.5970 -0.6794
 5182TIP3    H215553   2.322   5.437   2.206  0.8421 -2.3587  1.0421
 5183TIP3   OH215554   0.510   1.105   1.923 -0.6529  0.6281  0.1498
 5183TIP3    H115555   0.416   1.125   1.924 -0.8486 -0.2557 -0.0632
 5183TIP3    H215556   0.552   1.190   1.906 -1.4634  0.8572 -0.8042
 5184TIP3   OH215557   2.323   4.095   3.961 -0.3344  0.0893  1.1744
 5184TIP3    H115558   2.345   4.053   3.878  0.2567  1.6591  0.4930
 5184TIP3    H215559   2.391   4.067   4.022  0.4069  0.5295  0.5598
 5185TIP3   OH215560   4.965   4.218   3.886 -0.0411  0.3919 -0.6809
 5185TIP3    H115561   4.903   4.288   3.867  0.1849  1.0302  0.8413
 5185TIP3    H215562   4.911   4.139   3.887 -0.4989  0.6874 -1.2313
 5186TIP3   OH215563   1.902   2.701   4.465 -0.5112  0.5280  0.1553
 5186TIP3    H115564   1.954   2.768   4.422 -0.6123  0.4291 -0.1210
 5186TIP3    H215565   1.906   2.723   4.558  0.7180  0.0499  0.2345
 5187TIP3   OH215566   4.374   3.963   3.142  0.1088  0.1640 -0.1917
 5187TIP3    H115567   4.319   3.905   3.089 -0.0043  0.0278  0.0750
 5187TIP3    H215568   4.316   3.996   3.211 -0.3665  2.1265 -1.4313
 5188TIP3   OH215569   0.835   1.879   3.601  0.1066  0.3555  0.3483
 5188TIP3    H115570   0.802   1.804   3.551 -1.1068  0.4684  0.9318
 5188TIP3    H215571   0.883   1.840   3.674  3.1395  0.1731 -1.5572
 5189TIP3   OH215572   1.411   1.782   3.333 -0.0095 -0.5143 -0.1243
 5189TIP3    H115573   1.338   1.844   3.337  1.6966  1.8235 -2.1044
 5189TIP3    H215574   1.389   1.724   3.260  0.4605  0.7967 -1.3568
 5190TIP3   OH215575   2.391   1.694   3.314 -0.0248 -0.0922 -0.0331
 5190TIP3    H115576   2.450   1.672   3.385  0.3484 -1.4349 -0.7260
 5190TIP3    H215577   2.447   1.727   3.244 -0.3787  1.1425  0.2426
 5191TIP3   OH215578   0.216   2.122   4.985  0.6097 -0.1891 -0.1028
 5191TIP3    H115579   0.138   2.128   5.041 -1.1412 -1.5559 -2.2107
 5191TIP3    H215580   0.229   2.211   4.952 -1.5569 -0.2967 -1.4794
 5192TIP3   OH215581   6.125   2.531   1.531  0.3679 -0.3905 -0.2744
 5192TIP3    H115582   6.087   2.528   1.618 -2.0938  1.1820 -1.1843
 5192TIP3    H215583   6.160   2.443   1.516  0.9678 -0.6584  2.2902
 5193TIP3   OH215584   3.031   0.496   2.967 -0.3011 -0.1028 -0.2949
 5193TIP3    H115585   2.966   0.441   3.011  1.4923 -0.3586  2.1884
 5193TIP3    H215586   3.070   0.438   2.901 -0.1365 -1.0861  0.6312
 5194TIP3   OH215587   2.208   1.751   0.528  0.5056 -0.1950  0.3069
 5194TIP3    H115588   2.218   1.838   0.567 -0.1481  0.1508 -0.2742
 5194TIP3    H215589   2.190   1.768   0.436 -1.8677 -0.8551  0.5860
 5195TIP3   OH215590   6.310   2.356   2.485  0.0979 -0.1890 -0.5991
 5195TIP3    H115591   6.257   2.397   2.553 -0.5649 -2.7439  0.5238
 5195TIP3    H215592   6.271   2.386   2.403  0.4480  2.3407  0.0739
 5196TIP3   OH215593   2.748   5.882   4.065 -0.1391  0.2447 -1.1493
 5196TIP3    H115594   2.818   5.826   4.031  0.3120  0.7169 -1.0077
 5196TIP3    H215595   2.746   5.956   4.005  1.3259  1.5814  0.3706
 5197TIP3   OH215596   4.363   3.970   3.484  0.7825  0.0576 -0.2812
 5197TIP3    H115597   4.312   4.005   3.411  0.9214  1.1023  0.1134
 5197TIP3    H215598   4.298   3.931   3.543  0.3507  1.7973  0.4541
 5198TIP3   OH215599   2.402   4.280   3.723  0.7767 -0.2330  0.1481
 5198TIP3    H115600   2.483   4.230   3.715  0.3971 -0.9425  0.6722
 5198TIP3    H215601   2.385   4.285   3.817 -0.3741 -1.0642  0.0066
 5199TIP3   OH215602   1.674   0.804   2.495  0.5762 -0.0479  0.3653
 5199TIP3    H115603   1.672   0.791   2.590 -0.7458  1.3832  0.5758
 5199TIP3    H215604   1.765   0.793   2.471  1.3190  1.5856  2.1525
 5200TIP3   OH215605   4.294   5.873   1.796 -0.2071 -0.2529 -0.5133
 5200TIP3    H115606   4.326   5.796   1.748 -2.2845  0.4975 -3.3486
 5200TIP3    H215607   4.345   5.946   1.761  0.2773 -0.0229  0.6246
 5201TIP3   OH215608   4.202   3.704   5.011 -0.2376 -0.7477  0.3253
 5201TIP3    H115609   4.157   3.620   5.000 -1.1693 -0.2746  0.3954
 5201TIP3    H215610   4.178   3.754   4.933 -0.6527 -0.1271  0.8397
 5202TIP3   OH215611   4.763   0.849   1.548 -0.1684  0.1148  0.3145
 5202TIP3    H115612   4.791   0.761   1.523 -1.4910 -0.0403 -0.7484
 5202TIP3    H215613   4.843   0.902   1.545  0.5455 -0.9396  0.4841
 5203TIP3   OH215614   3.479   2.293   3.235  0.1550 -0.1497 -0.2372
 5203TIP3    H115615   3.416   2.338   3.291  0.5018  0.4621 -0.3326
 5203TIP3    H215616   3.530   2.239   3.295 -0.9797 -1.2898 -0.2536
 5204TIP3   OH215617   1.763   1.592   1.952 -0.1173 -0.3983  0.0777
 5204TIP3    H115618   1.742   1.672   1.903 -1.1668 -0.3002  0.6548
 5204TIP3    H215619   1.703   1.526   1.917  1.1163 -1.1031 -0.7808
 5205TIP3   OH215620   5.300   4.735   2.897 -0.3430 -0.1717  0.3394
 5205TIP3    H115621   5.330   4.764   2.811  1.3979 -1.3325  0.4906
 5205TIP3    H215622   5.217   4.691   2.880 -0.6373  0.7050 -0.5551
 5206TIP3   OH215623   3.728   0.361   0.693  0.0194  0.4134 -0.2125
 5206TIP3    H115624   3.785   0.429   0.729  0.8993 -0.8056  0.8191
 5206TIP3    H215625   3.699   0.311   0.770 -0.0642 -0.7612 -0.9744
 5207TIP3   OH215626   5.841   4.998   3.426 -0.5594  0.3091 -0.4880
 5207TIP3    H115627   5.818   5.027   3.514 -1.9803 -2.4310  0.1426
 5207TIP3    H215628   5.910   4.933   3.438 -1.0382 -0.3883 -1.3397
 5208TIP3   OH215629   2.469   0.171   2.338 -0.0408  0.2603  0.6569
 5208TIP3    H115630   2.452   0.200   2.248  1.1270 -2.2360 -0.4634
 5208TIP3    H215631   2.382   0.155   2.374 -0.5380  1.5085  0.0781
 5209TIP3   OH215632   5.381   4.596   3.623 -0.2198 -0.1807  0.2676
 5209TIP3    H115633   5.422   4.654   3.687 -0.8433 -0.3541  0.8356
 5209TIP3    H215634   5.417   4.624   3.539  2.7546 -1.7052  0.8951
 5210TIP3   OH215635   6.157   0.384   0.706  0.1112 -0.1455 -0.3606
 5210TIP3    H115636   6.142   0.450   0.638  2.2737  0.7153 -0.0821
 5210TIP3    H215637   6.080   0.389   0.763 -0.1297  1.5892 -0.7957
 5211TIP3   OH215638   1.736   5.288   0.184 -0.0740 -0.0319 -0.1628
 5211TIP3    H115639   1.785   5.223   0.234 -0.4288 -1.3131 -1.4451
 5211TIP3    H215640   1.795   5.364   0.179  1.2407 -1.0552 -0.5478
 5212TIP3   OH215641   4.046   0.214   2.788 -0.7436  0.0224 -0.1108
 5212TIP3    H115642   4.033   0.245   2.699 -0.8116 -0.6146 -0.3230
 5212TIP3    H215643   4.140   0.220   2.802 -0.6210 -0.7400 -0.5491
 5213TIP3   OH215644   5.892   2.192   1.094 -0.1635  0.1142  0.4587
 5213TIP3    H115645   5.892   2.258   1.163  1.4178  0.8127 -0.1645
 5213TIP3    H215646   5.825   2.129   1.121  0.6906  0.1339  2.8282
 5214TIP3   OH215647   1.699   5.942   4.701  0.1238 -0.2767 -1.0664
 5214TIP3    H115648   1.767   5.880   4.675  1.1405 -0.8628  2.5392
 5214TIP3    H215649   1.743   6.006   4.756 -1.7576  0.9716 -0.9060
 5215TIP3   OH215650   4.103   4.322   3.786  0.4871  0.1914  0.3342
 5215TIP3    H115651   4.191   4.295   3.811  0.5910  0.2130  0.0006
 5215TIP3    H215652   4.107   4.418   3.780  0.1569  0.2867  1.3733
 5216TIP3   OH215653   0.563   3.335   2.471  0.3127  0.5560  0.3697
 5216TIP3    H115654   0.503   3.260   2.473  1.1248 -0.1014  1.2736
 5216TIP3    H215655   0.617   3.320   2.393  0.1240  0.4902  0.2494
 5217TIP3   OH215656   2.562   4.229   2.328 -0.0309  0.1700 -0.1999
 5217TIP3    H115657   2.652   4.222   2.295  0.0546 -1.5075  0.3061
 5217TIP3    H215658   2.507   4.209   2.253  0.0647 -0.2717 -0.1526
 5218TIP3   OH215659   6.020   1.540   3.428 -0.1101  0.5900 -0.0651
 5218TIP3    H115660   6.009   1.608   3.363  0.7873  0.1350 -0.7196
 5218TIP3    H215661   6.114   1.542   3.449 -0.2473  0.2075  0.6227
 5219TIP3   OH215662   5.954   0.645   0.454 -0.4290  0.5575  0.3469
 5219TIP3    H115663   5.918   0.732   0.439  0.5699  1.2100  1.5913
 5219TIP3    H215664   6.034   0.660   0.504 -0.9115 -1.1352  1.7371
 5220TIP3   OH215665   3.012   1.947   0.820 -0.2255 -0.6354  0.0386
 5220TIP3    H115666   3.076   1.876   0.830 -0.3272 -0.5100  1.8388
 5220TIP3    H215667   2.929   1.908   0.847 -0.3905 -0.0150  0.4449
 5221TIP3   OH215668   4.869   4.775   0.998 -0.0431  0.5560  0.0991
 5221TIP3    H115669   4.871   4.849   0.937 -0.6958 -0.5541 -1.3297
 5221TIP3    H215670   4.943   4.720   0.972 -1.7295 -1.1456 -1.3690
 5222TIP3   OH215671   2.114   4.038   4.163 -0.4246  0.7039 -0.2992
 5222TIP3    H115672   2.167   4.103   4.117  0.6799 -0.3737 -0.6075
 5222TIP3    H215673   2.172   4.002   4.230 -1.3123  0.6925  0.4809
 5223TIP3   OH215674   0.785   3.466   3.676  0.0082 -0.2697 -0.6477
 5223TIP3    H115675   0.710   3.491   3.730  1.0170  0.5830  0.4038
 5223TIP3    H215676   0.758   3.385   3.634 -1.6877  0.2800 -0.6810
 5224TIP3   OH215677   1.493   2.256   4.485  0.1352  0.0437 -0.3085
 5224TIP3    H115678   1.500   2.304   4.567  0.6617  0.6091 -0.6731
 5224TIP3    H215679   1.577   2.211   4.476  0.4459  0.7477 -0.9962
 5225TIP3   OH215680   4.303   3.466   2.254  0.3423 -0.0106 -0.6105
 5225TIP3    H115681   4.367   3.425   2.196 -0.5018 -1.2703 -0.6870
 5225TIP3    H215682   4.305   3.412   2.334  1.3089  1.5415  0.4640
 5226TIP3   OH215683   2.666   4.059   3.059 -0.5612  0.3030  0.6026
 5226TIP3    H115684   2.689   4.042   2.967  0.5414 -0.4822  1.0097
 5226TIP3    H215685   2.741   4.104   3.095 -1.1020  0.8430  1.0757
 5227TIP3   OH215686   2.927   3.626   2.090 -0.0658 -0.7297 -0.9502
 5227TIP3    H115687   2.850   3.571   2.088 -0.5287 -0.0636 -2.2015
 5227TIP3    H215688   2.924   3.669   2.176  0.6738 -3.0892  0.3337
 5228TIP3   OH215689   5.641   2.869   2.561  0.3077 -0.9094 -0.1861
 5228TIP3    H115690   5.711   2.879   2.626 -0.3144  3.2597  0.1028
 5228TIP3    H215691   5.560   2.873   2.613 -0.1830  1.8704 -1.0104
 5229TIP3   OH215692   3.709   0.376   4.710 -0.0645 -0.5113 -0.0204
 5229TIP3    H115693   3.664   0.422   4.781 -1.8568 -1.8323 -0.2075
 5229TIP3    H215694   3.749   0.300   4.752  1.1758  0.1196 -0.0268
 5230TIP3   OH215695   4.509   4.096   0.178  0.0588 -0.2121 -0.1118
 5230TIP3    H115696   4.541   4.046   0.103  0.3978  0.2900 -0.3061
 5230TIP3    H215697   4.535   4.186   0.160 -0.5258  0.0352  0.2430
 5231TIP3   OH215698   5.459   3.383   2.523 -0.5372 -0.3109  0.1044
 5231TIP3    H115699   5.366   3.374   2.541 -0.3764 -1.0515  0.6132
 5231TIP3    H215700   5.495   3.296   2.540  0.2475 -0.0278 -0.0752
 5232TIP3   OH215701   2.336   0.511   4.978 -0.3508 -0.4547 -0.3839
 5232TIP3    H115702   2.246   0.542   4.966  0.0435  1.3220  0.8319
 5232TIP3    H215703   2.334   0.420   4.948 -2.5066 -0.4153 -0.5439
 5233TIP3   OH215704   6.177   2.993   5.136 -1.0641  0.5925 -0.3482
 5233TIP3    H115705   6.180   3.075   5.186  1.6225  0.9193 -0.8772
 5233TIP3    H215706   6.144   3.019   5.050 -0.0961  1.1668 -0.5580
 5234TIP3   OH215707   0.721   4.903   3.244 -0.4292  0.7405  0.2107
 5234TIP3    H115708   0.714   4.809   3.259  0.2192  0.7717  0.7426
 5234TIP3    H215709   0.809   4.926   3.275 -0.6215  1.5402  0.1859
 5235TIP3   OH215710   2.546   4.706   1.403  0.0118  0.2028  0.5397
 5235TIP3    H115711   2.581   4.691   1.315 -1.2825  1.3946 -0.2295
 5235TIP3    H215712   2.484   4.634   1.416  0.9035 -0.5208  0.9004
 5236TIP3   OH215713   3.991   2.785   0.670  1.0365  0.2631  0.3368
 5236TIP3    H115714   4.056   2.849   0.701  0.3399  0.5509  1.2444
 5236TIP3    H215715   3.908   2.818   0.704  0.4495 -0.2403 -0.6134
 5237TIP3   OH215716   1.035   1.500   0.689 -0.1811 -0.2597  0.4249
 5237TIP3    H115717   1.078   1.586   0.693  1.2354 -0.9631  0.7502
 5237TIP3    H215718   0.973   1.501   0.762 -0.7297  0.7580 -0.0315
 5238TIP3   OH215719   4.761   5.535   4.309 -0.7360  0.5013  0.6107
 5238TIP3    H115720   4.852   5.506   4.319 -1.1154 -0.9613  0.1187
 5238TIP3    H215721   4.709   5.467   4.351 -1.6767  0.4873 -0.5076
 5239TIP3   OH215722   3.194   5.917   0.873 -0.2336  0.0916  0.3508
 5239TIP3    H115723   3.235   6.003   0.862 -1.0007  0.4184 -0.0805
 5239TIP3    H215724   3.147   5.923   0.956  0.9348 -0.4350  1.0662
 5240TIP3   OH215725   2.734   3.568   3.787  0.2201  0.0635 -0.4368
 5240TIP3    H115726   2.655   3.550   3.736  0.1505  0.4594 -0.4722
 5240TIP3    H215727   2.703   3.579   3.876  0.2479  0.1002 -0.4314
 5241TIP3   OH215728   2.581   0.564   0.474  0.0382  0.2781 -0.5653
 5241TIP3    H115729   2.567   0.657   0.488  1.6547  0.4019  0.4613
 5241TIP3    H215730   2.561   0.550   0.381  1.4913  2.0061 -1.1885
 5242TIP3   OH215731   5.416   0.853   2.282  0.0193 -0.2569  0.1467
 5242TIP3    H115732   5.366   0.887   2.355  0.2267  2.7793 -1.0032
 5242TIP3    H215733   5.353   0.844   2.211  0.4118  0.0192 -0.2453
 5243TIP3   OH215734   0.930   1.273   4.385 -0.5833  0.4418 -0.0707
 5243TIP3    H115735   0.840   1.261   4.353 -0.1731 -1.6070 -0.6233
 5243TIP3    H215736   0.923   1.260   4.480 -0.7683 -0.6999 -0.2198
 5244TIP3   OH215737   1.862   5.249   4.827  0.0142  0.0962 -0.3017
 5244TIP3    H115738   1.827   5.312   4.763  0.2431  0.2171 -0.3094
 5244TIP3    H215739   1.794   5.181   4.833 -0.4747  0.6083  0.1014
 5245TIP3   OH215740   1.663   3.601   3.071  0.8051 -0.2147 -0.7272
 5245TIP3    H115741   1.605   3.658   3.122 -0.9165 -0.8692 -1.8630
 5245TIP3    H215742   1.686   3.530   3.131  1.0388  0.4202 -0.0457
 5246TIP3   OH215743   4.342   5.054   0.334  0.4733 -0.3176  0.2575
 5246TIP3    H115744   4.282   5.120   0.299 -0.8413 -1.6609 -0.1117
 5246TIP3    H215745   4.429   5.091   0.319 -0.1722  0.7484 -1.1442
 5247TIP3   OH215746   3.167   4.928   4.238 -0.1615  0.0444  0.2352
 5247TIP3    H115747   3.187   4.883   4.155 -1.2605 -0.0138 -0.0274
 5247TIP3    H215748   3.230   4.894   4.300  0.8291  0.2501 -0.6371
 5248TIP3   OH215749   5.457   5.061   3.508 -0.3208  0.2636  0.0875
 5248TIP3    H115750   5.483   4.975   3.543 -1.5229  0.2132  0.9088
 5248TIP3    H215751   5.476   5.122   3.579  0.2520  0.6405 -0.3866
 5249TIP3   OH215752   0.095   5.268   1.344 -0.1642 -0.0958 -0.1957
 5249TIP3    H115753   0.173   5.213   1.356  0.3125  0.5168 -0.4226
 5249TIP3    H215754   0.075   5.301   1.432  0.2547  0.2963 -0.2402
 5250TIP3   OH215755   3.167   4.968   5.086  0.1238 -0.5224  0.4687
 5250TIP3    H115756   3.136   5.010   5.006 -0.0187  0.5314  1.0746
 5250TIP3    H215757   3.108   4.893   5.097  1.2349 -1.7573 -1.3697
 5251TIP3   OH215758   4.738   0.665   2.242  0.1687 -0.6523  0.2888
 5251TIP3    H115759   4.685   0.594   2.279 -0.1530 -0.0047  1.0971
 5251TIP3    H215760   4.707   0.674   2.152 -0.7649 -0.6117  0.6011
 5252TIP3   OH215761   2.411   5.640   1.696 -0.0526  0.2531 -0.2799
 5252TIP3    H115762   2.357   5.664   1.771 -0.1390  0.7246 -0.4883
 5252TIP3    H215763   2.495   5.683   1.712 -0.7774  2.2906 -1.5404
 5253TIP3   OH215764   1.105   4.094   1.847 -0.4871 -0.1239 -0.2182
 5253TIP3    H115765   1.136   4.105   1.757  0.3250 -2.3532 -0.2846
 5253TIP3    H215766   1.010   4.082   1.838 -1.0035  3.1169 -0.3585
 5254TIP3   OH215767   2.483   1.099   3.988  0.1210 -0.1866 -0.6018
 5254TIP3    H115768   2.465   1.054   3.905 -1.6171  1.6761 -1.3161
 5254TIP3    H215769   2.527   1.180   3.963  0.9711 -0.2970  0.4524
 5255TIP3   OH215770   2.159   4.818   1.181  0.2015 -0.2096 -0.3808
 5255TIP3    H115771   2.135   4.907   1.157 -0.2512  0.8958  3.6132
 5255TIP3    H215772   2.254   4.814   1.169 -0.0562 -0.2481 -3.2611
 5256TIP3   OH215773   5.049   3.489   0.642  1.0050  0.3259  0.2366
 5256TIP3    H115774   5.120   3.534   0.689  1.7199 -2.7997  2.5378
 5256TIP3    H215775   5.086   3.404   0.618 -1.2181 -0.4402 -0.8051
 5257TIP3   OH215776   4.324   2.841   2.378 -0.4288 -0.2720 -0.2351
 5257TIP3    H115777   4.389   2.814   2.313 -1.5715 -1.4275 -0.9392
 5257TIP3    H215778   4.261   2.770   2.380 -0.4329 -0.2807  2.1817
 5258TIP3   OH215779   2.486   2.571   0.387 -0.1628 -0.5571  0.3159
 5258TIP3    H115780   2.504   2.479   0.406  1.9562  0.0226  1.4787
 5258TIP3    H215781   2.534   2.589   0.307  0.4956 -0.1710  0.7886
 5259TIP3   OH215782   0.094   1.776   0.622  0.1457  0.2064  0.1051
 5259TIP3    H115783   0.139   1.692   0.635  0.6931  0.4510 -0.1732
 5259TIP3    H215784   0.014   1.752   0.574  0.7318 -0.0596 -0.7572
 5260TIP3   OH215785   0.284   1.533   3.302 -0.4153 -0.3182  0.2393
 5260TIP3    H115786   0.283   1.545   3.397 -0.0653  0.1636  0.1836
 5260TIP3    H215787   0.274   1.621   3.266 -0.6464 -0.5091 -0.1734
 5261TIP3   OH215788   4.988   5.930   1.378 -0.5084 -0.7235 -0.1930
 5261TIP3    H115789   4.941   6.012   1.394  0.5410  0.4041 -2.4564
 5261TIP3    H215790   4.921   5.871   1.343 -1.2961 -0.9314  1.5650
 5262TIP3   OH215791   4.387   1.201   1.244 -0.2416 -0.3822  0.0607
 5262TIP3    H115792   4.388   1.255   1.323 -0.4117  1.5628 -1.1957
 5262TIP3    H215793   4.338   1.123   1.270 -2.5680  1.3117  1.2338
 5263TIP3   OH215794   4.100   4.134   3.571 -0.1290 -0.1307  0.6034
 5263TIP3    H115795   4.135   4.126   3.660  1.3357  0.7485  0.1455
 5263TIP3    H215796   4.103   4.227   3.552  0.1100 -0.3597 -0.5606
 5264TIP3   OH215797   3.002   5.233   2.171 -0.5795 -0.0288  0.5846
 5264TIP3    H115798   3.081   5.179   2.168 -0.2392  0.3988  1.5835
 5264TIP3    H215799   3.022   5.309   2.116 -1.0007 -0.8117 -0.6901
 5265TIP3   OH215800   1.188   4.479   0.059 -0.3705  0.5654  0.3829
 5265TIP3    H115801   1.258   4.422   0.028 -1.4295 -1.5857  1.7027
 5265TIP3    H215802   1.215   4.505   0.147 -0.9496  0.1919  0.6778
 5266TIP3   OH215803   5.874   0.956   3.251  0.5159 -0.2576  0.0005
 5266TIP3    H115804   5.851   0.863   3.252  1.1047 -0.4083  0.4466
 5266TIP3    H215805   5.839   0.989   3.334 -1.7633  0.4639 -1.1803
 5267TIP3   OH215806   1.824   1.728   1.628 -0.5524  0.0757 -0.3886
 5267TIP3    H115807   1.918   1.738   1.612  0.0485 -2.4237  0.9758
 5267TIP3    H215808   1.802   1.644   1.588 -2.2522  0.6806 -0.7767
 5268TIP3   OH215809   1.621   5.452   1.334 -0.4698 -0.2233 -0.1301
 5268TIP3    H115810   1.549   5.391   1.316  0.3651 -0.9012 -1.2434
 5268TIP3    H215811   1.642   5.491   1.249  0.4838 -0.0368  0.1782
 5269TIP3   OH215812   3.552   2.268   0.306 -0.4695  0.4023  0.5551
 5269TIP3    H115813   3.634   2.315   0.319 -0.4260  0.3866  0.3361
 5269TIP3    H215814   3.573   2.176   0.324 -0.8481  0.6144  2.2804
 5270TIP3   OH215815   1.751   5.871   2.649  0.0961 -0.6554 -0.1486
 5270TIP3    H115816   1.810   5.896   2.721 -0.5696  0.8042 -0.0673
 5270TIP3    H215817   1.674   5.834   2.693  0.3992 -1.3679 -0.2017
 5271TIP3   OH215818   5.865   3.130   5.026 -0.5413  0.2032  0.5825
 5271TIP3    H115819   5.910   3.210   5.054  0.7165 -0.5833  0.8860
 5271TIP3    H215820   5.931   3.083   4.975 -1.7146  0.0077 -0.8400
 5272TIP3   OH215821   1.940   0.855   2.381  0.2535 -0.2616  0.2889
 5272TIP3    H115822   1.875   0.880   2.316  0.6585 -0.4401 -0.1932
 5272TIP3    H215823   2.004   0.803   2.332  2.6574  2.7201 -0.0714
 5273TIP3   OH215824   6.072   5.533   3.009 -0.9801 -0.4277 -0.2400
 5273TIP3    H115825   6.128   5.491   2.943 -0.4545 -0.6513  0.3452
 5273TIP3    H215826   6.046   5.462   3.067  1.2747  0.2445  1.7529
 5274TIP3   OH215827   0.470   0.366   2.054  0.5931 -0.1735 -0.5980
 5274TIP3    H115828   0.407   0.421   2.007 -0.3378 -0.8619 -0.1851
 5274TIP3    H215829   0.555   0.392   2.019 -0.0801 -0.8391 -2.8933
 5275TIP3   OH215830   2.938   5.078   4.253 -0.5018  0.0386 -0.0066
 5275TIP3    H115831   2.878   5.055   4.182 -0.9555 -0.0846  0.4079
 5275TIP3    H215832   3.015   5.023   4.238 -0.8469 -0.4437 -0.0506
 5276TIP3   OH215833   2.772   2.724   4.820  0.5941  0.4471  0.1859
 5276TIP3    H115834   2.824   2.774   4.757 -1.5437  1.1155 -1.1232
 5276TIP3    H215835   2.803   2.634   4.810  3.8054  1.1975  1.8703
 5277TIP3   OH215836   6.127   4.970   4.381 -0.0140  0.3652 -0.5301
 5277TIP3    H115837   6.073   5.030   4.430 -0.6171 -0.7439  0.2055
 5277TIP3    H215838   6.093   4.883   4.402  0.6601 -0.2364 -1.7498
 5278TIP3   OH215839   3.039   5.719   0.191 -0.2017 -0.1589 -0.2015
 5278TIP3    H115840   2.946   5.713   0.170 -0.4081 -0.3792  0.7164
 5278TIP3    H215841   3.044   5.699   0.285  0.3788  3.1032  0.5727
 5279TIP3   OH215842   5.899   2.913   2.389  0.0066  0.3087 -0.6616
 5279TIP3    H115843   5.804   2.914   2.401  0.1222 -1.6935  0.9576
 5279TIP3    H215844   5.923   3.005   2.379 -1.5846  1.4121  3.6994
 5280TIP3   OH215845   3.752   0.687   4.286 -0.3598 -0.2127 -0.3517
 5280TIP3    H115846   3.746   0.661   4.378  1.4877  0.0425 -0.1158
 5280TIP3    H215847   3.765   0.604   4.239  1.3404 -0.1527 -0.0571
 5281TIP3   OH215848   3.144   5.273   1.479 -0.0654  0.3397 -0.2438
 5281TIP3    H115849   3.055   5.292   1.509  0.3361  1.0449  0.5348
 5281TIP3    H215850   3.133   5.201   1.417 -0.9654 -1.0333  1.4229
 5282TIP3   OH215851   1.880   5.498   1.448 -0.2495  0.2770  0.1681
 5282TIP3    H115852   1.931   5.425   1.484 -0.2666 -0.2651 -0.8532
 5282TIP3    H215853   1.789   5.469   1.455 -0.2876  0.3969  0.1726
 5283TIP3   OH215854   4.630   2.976   0.506  0.4931 -0.0281 -0.6217
 5283TIP3    H115855   4.623   3.053   0.450  0.0727  0.2767 -0.1600
 5283TIP3    H215856   4.710   2.990   0.556 -0.1773  0.6908  0.2981
 5284TIP3   OH215857   3.200   0.445   4.108  0.5751 -0.2773  0.1722
 5284TIP3    H115858   3.209   0.530   4.150  1.3046  0.3895 -1.2695
 5284TIP3    H215859   3.237   0.383   4.171  1.8723  0.7179  0.4192
 5285TIP3   OH215860   4.824   0.602   3.162  0.4165 -0.4204 -0.3978
 5285TIP3    H115861   4.763   0.534   3.134  0.8161 -1.1841  0.5145
 5285TIP3    H215862   4.798   0.622   3.252  2.3988 -1.8521  0.5559
 5286TIP3   OH215863   1.242   0.138   4.986  0.3925  0.3329 -0.3457
 5286TIP3    H115864   1.193   0.148   4.904 -0.0527  0.0037 -0.1216
 5286TIP3    H215865   1.175   0.133   5.054  0.7381  0.0345 -0.0206
 5287TIP3   OH215866   0.495   3.433   1.205 -0.4205  0.7225 -0.3910
 5287TIP3    H115867   0.415   3.395   1.240  0.4541  0.4772  1.4726
 5287TIP3    H215868   0.559   3.362   1.211  0.3853  1.4569 -0.0543
 5288TIP3   OH215869   1.779   1.939   0.813 -0.1808 -0.6146 -0.0810
 5288TIP3    H115870   1.850   1.957   0.876  1.0224 -0.3735 -1.4449
 5288TIP3    H215871   1.822   1.891   0.743 -0.8963  1.2991 -1.9277
 5289TIP3   OH215872   5.580   0.288   1.620  0.1035 -0.0092 -0.4908
 5289TIP3    H115873   5.576   0.302   1.525  0.8908 -0.7308 -0.6502
 5289TIP3    H215874   5.614   0.198   1.629  0.3583  0.1717  0.4749
 5290TIP3   OH215875   1.528   0.198   2.018  0.0189 -0.0881 -0.3023
 5290TIP3    H115876   1.527   0.163   1.929 -0.4978 -2.0242  0.4205
 5290TIP3    H215877   1.436   0.211   2.040  0.1113 -0.2476  0.1885
 5291TIP3   OH215878   2.409   2.029   2.647  0.2787  0.4184  0.1215
 5291TIP3    H115879   2.385   2.073   2.729  0.5034  0.3160  0.2421
 5291TIP3    H215880   2.352   2.069   2.581 -1.4479 -0.9675  0.6665
 5292TIP3   OH215881   3.601   4.663   1.761  0.1327 -0.6111  0.0586
 5292TIP3    H115882   3.545   4.686   1.835  0.5105  0.2867  0.0734
 5292TIP3    H215883   3.663   4.600   1.796  0.1422 -0.3893  0.4429
 5293TIP3   OH215884   1.979   5.062   1.553 -0.4413  0.6304 -0.1361
 5293TIP3    H115885   1.992   5.156   1.548 -0.6447  0.7049  0.6045
 5293TIP3    H215886   1.885   5.052   1.571 -0.8853  0.2121 -2.3746
 5294TIP3   OH215887   2.967   0.877   1.703  0.0834  0.5132 -0.5767
 5294TIP3    H115888   2.998   0.962   1.674 -0.3959  0.8854 -0.0170
 5294TIP3    H215889   2.873   0.888   1.716  0.3756  0.7105  2.1188
 5295TIP3   OH215890   4.696   0.766   0.257 -0.7196  0.2707 -0.3848
 5295TIP3    H115891   4.773   0.813   0.288 -0.0272 -0.0464 -1.5965
 5295TIP3    H215892   4.626   0.794   0.317  0.1777  1.0612  0.3259
 5296TIP3   OH215893   0.474   5.047   0.083 -0.4475 -0.3020 -0.0786
 5296TIP3    H115894   0.424   5.091   0.014 -0.3616  0.4872  0.3649
 5296TIP3    H215895   0.500   5.116   0.143  1.6407 -0.6075 -0.5673
 5297TIP3   OH215896   6.192   5.472   4.382  0.1828  0.6839  0.5322
 5297TIP3    H115897   6.281   5.444   4.401  0.0420 -0.4678 -0.3831
 5297TIP3    H215898   6.202   5.552   4.331  0.8690 -1.0534 -2.2967
 5298TIP3   OH215899   5.300   1.938   3.829  0.0822 -0.5338 -0.2072
 5298TIP3    H115900   5.369   1.873   3.814  0.2701 -0.0984 -1.3210
 5298TIP3    H215901   5.347   2.022   3.829 -0.3698 -0.2803 -0.3756
 5299TIP3   OH215902   2.684   1.254   1.783 -0.0473  0.0495  0.3252
 5299TIP3    H115903   2.750   1.247   1.853  0.4117 -1.1249 -0.1897
 5299TIP3    H215904   2.601   1.239   1.827 -0.0730  2.0000  1.0718
 5300TIP3   OH215905   3.741   0.502   0.332 -0.0445 -0.3063 -0.0611
 5300TIP3    H115906   3.728   0.480   0.240 -0.9543  0.5018 -0.1493
 5300TIP3    H215907   3.768   0.420   0.373  0.5304 -0.6427 -1.0655
 5301TIP3   OH215908   2.932   0.045   4.192  0.2035  0.3870  0.3004
 5301TIP3    H115909   3.012   0.066   4.240 -0.1849 -0.9381  1.6120
 5301TIP3    H215910   2.958   0.047   4.100  1.8030 -0.2321  0.6973
 5302TIP3   OH215911   2.371   2.064   2.285  0.3343  0.2929  0.1775
 5302TIP3    H115912   2.305   2.007   2.324  0.5458  0.4356  0.7489
 5302TIP3    H215913   2.446   2.007   2.268 -0.0332  0.0612 -0.7668
 5303TIP3   OH215914   2.420   5.206   4.739 -0.2843  0.2622  0.2817
 5303TIP3    H115915   2.355   5.183   4.805 -0.1869 -2.5956 -0.4851
 5303TIP3    H215916   2.370   5.218   4.659 -0.0809  0.3700  0.1703
 5304TIP3   OH215917   3.274   3.266   3.412  0.0151  0.9051 -0.1947
 5304TIP3    H115918   3.211   3.336   3.394 -0.8166  0.6598  1.5798
 5304TIP3    H215919   3.357   3.300   3.378 -1.0649  1.1037 -2.8835
 5305TIP3   OH215920   0.516   4.347   4.160  0.2494 -0.9807  0.3717
 5305TIP3    H115921   0.578   4.399   4.110 -0.7012  0.6766  0.8410
 5305TIP3    H215922   0.477   4.287   4.096 -0.5682  0.7414 -0.8167
 5306TIP3   OH215923   0.086   4.773   5.048 -0.1158  0.3476 -0.0664
 5306TIP3    H115924   0.013   4.711   5.049  0.7158 -0.6379  0.3567
 5306TIP3    H215925   0.082   4.813   4.960 -0.8231 -0.0864 -0.2402
 5307TIP3   OH215926   4.656   4.803   2.215 -0.6380 -0.4945 -0.2669
 5307TIP3    H115927   4.584   4.840   2.267  0.7744 -2.8765  3.8472
 5307TIP3    H215928   4.624   4.716   2.190  0.3892 -1.2330  0.8660
 5308TIP3   OH215929   3.289   2.116   0.776  0.0942  0.1676  0.6135
 5308TIP3    H115930   3.315   2.201   0.740 -0.6901  0.6493  1.1487
 5308TIP3    H215931   3.233   2.078   0.708 -0.9283  0.8329  1.0486
 5309TIP3   OH215932   0.352   5.498   4.735 -0.1852  0.0690 -0.0351
 5309TIP3    H115933   0.407   5.577   4.729 -0.6642  0.3312 -1.4531
 5309TIP3    H215934   0.411   5.430   4.765  0.0275  1.1510  2.1826
 5310TIP3   OH215935   1.922   4.389   2.804  0.5681 -0.5300 -0.0864
 5310TIP3    H115936   1.949   4.297   2.816 -1.2223 -1.4253 -2.3100
 5310TIP3    H215937   1.961   4.415   2.721 -0.2553  0.1671 -0.2670
 5311TIP3   OH215938   2.645   4.419   1.615 -0.2650  0.5862 -0.1627
 5311TIP3    H115939   2.599   4.496   1.649 -0.4537  0.9424 -1.1897
 5311TIP3    H215940   2.649   4.359   1.689 -2.0561  0.6859  0.0507
 5312TIP3   OH215941   3.082   3.609   3.728 -0.6018 -0.0129  0.1370
 5312TIP3    H115942   3.099   3.598   3.822  1.9919  0.3834 -0.2255
 5312TIP3    H215943   3.161   3.650   3.693 -2.9661  3.6815 -1.5959
 5313TIP3   OH215944   4.684   2.754   2.493 -0.5130 -0.3001 -0.0413
 5313TIP3    H115945   4.765   2.706   2.477  1.1669  3.2967 -4.9344
 5313TIP3    H215946   4.709   2.826   2.550 -0.0988  0.8755 -1.6437
 5314TIP3   OH215947   4.652   1.008   1.244  0.1065  0.4178  0.2248
 5314TIP3    H115948   4.581   0.950   1.214 -0.7233 -0.0064  2.7975
 5314TIP3    H215949   4.728   0.951   1.251 -0.2583  0.0185  1.0386
 5315TIP3   OH215950   5.293   5.734   1.674  0.0816  0.0424 -0.0881
 5315TIP3    H115951   5.299   5.792   1.750 -0.8672 -1.9549  1.6296
 5315TIP3    H215952   5.200   5.716   1.664  0.3574 -1.3594 -0.3871
 5316TIP3   OH215953   4.167   2.106   2.538 -0.5767 -0.4108 -0.1376
 5316TIP3    H115954   4.199   2.050   2.609  1.5816 -0.2041 -0.8459
 5316TIP3    H215955   4.219   2.186   2.545 -0.9726 -0.0184 -1.3791
 5317TIP3   OH215956   5.571   1.240   3.457  0.0700  0.5824  0.4103
 5317TIP3    H115957   5.659   1.229   3.493 -0.2324 -0.3334  0.9108
 5317TIP3    H215958   5.541   1.325   3.490  1.0686  1.2875 -0.4451
 5318TIP3   OH215959   2.148   5.494   4.563  0.0744  0.2246 -0.2074
 5318TIP3    H115960   2.154   5.399   4.559  0.6246  0.2529 -0.1848
 5318TIP3    H215961   2.118   5.513   4.652  1.4021  0.1225  0.2815
 5319TIP3   OH215962   4.517   3.407   2.697  0.7925 -0.3476  0.4216
 5319TIP3    H115963   4.606   3.423   2.664 -0.1597  0.1069 -2.1727
 5319TIP3    H215964   4.461   3.416   2.620 -1.8381  2.0757  2.3948
 5320TIP3   OH215965   5.160   3.932   5.026 -0.3652  0.2436 -0.4825
 5320TIP3    H115966   5.215   3.989   4.973 -0.6231  0.4918 -0.4869
 5320TIP3    H215967   5.137   3.860   4.968 -0.6004  0.4860 -0.6919
 5321TIP3   OH215968   2.845   2.641   1.794 -0.1263 -0.0027 -0.5346
 5321TIP3    H115969   2.898   2.678   1.865  1.1075 -1.6752 -0.5330
 5321TIP3    H215970   2.890   2.668   1.714 -0.3404  0.1509 -0.6031
 5322TIP3   OH215971   4.059   2.136   3.000 -0.0732 -0.0358 -0.1105
 5322TIP3    H115972   4.030   2.061   3.051 -1.1753  0.6309  0.2802
 5322TIP3    H215973   4.047   2.110   2.908 -1.4426  0.0115  0.0301
 5323TIP3   OH215974   4.943   3.949   2.082  0.2590  0.0409  0.1910
 5323TIP3    H115975   4.888   4.027   2.082  2.1468  1.4875 -2.2964
 5323TIP3    H215976   4.905   3.892   2.016 -0.5519 -0.8032  1.3352
 5324TIP3   OH215977   3.460   2.679   4.810  0.0833 -0.3188 -0.4407
 5324TIP3    H115978   3.453   2.589   4.779 -0.5631  0.1418 -1.7372
 5324TIP3    H215979   3.403   2.683   4.887 -0.2969 -0.8898 -0.6869
 5325TIP3   OH215980   0.088   1.013   1.306 -0.1336  0.3681  0.3689
 5325TIP3    H115981   0.089   1.037   1.213 -0.1748  0.1019  0.2982
 5325TIP3    H215982   0.030   1.077   1.346 -0.0834  0.5103  0.2185
 5326TIP3   OH215983   4.973   2.080   4.436 -0.0771  0.2643  0.3330
 5326TIP3    H115984   5.005   2.094   4.347 -0.4503 -1.0448 -0.0349
 5326TIP3    H215985   5.019   2.145   4.489  3.3574 -1.6090 -0.1074
 5327TIP3   OH215986   2.678   3.866   2.565 -0.6074  0.0003 -0.2942
 5327TIP3    H115987   2.621   3.918   2.509 -0.7665 -0.1163 -0.2411
 5327TIP3    H215988   2.635   3.781   2.572  0.3439 -0.6104 -1.5187
 5328TIP3   OH215989   1.634   4.240   3.834 -0.4571  0.1709  0.1650
 5328TIP3    H115990   1.635   4.284   3.749 -1.3269  0.4684  0.3053
 5328TIP3    H215991   1.547   4.256   3.869  0.7132  2.4660  2.3537
 5329TIP3   OH215992   2.789   5.132   3.687  0.8196  0.3290  0.9315
 5329TIP3    H115993   2.883   5.150   3.681  0.6720  0.9808  0.5941
 5329TIP3    H215994   2.747   5.218   3.687  0.1296  0.0213 -0.3558
 5330TIP3   OH215995   1.591   1.717   1.393  0.1244 -0.1832  0.2873
 5330TIP3    H115996   1.592   1.808   1.423 -2.1989  0.2792 -0.8664
 5330TIP3    H215997   1.675   1.706   1.348  0.3757  1.4427  0.2973
 5331TIP3   OH215998   1.957   0.560   4.999  0.2069 -0.1102 -0.3582
 5331TIP3    H115999   1.881   0.502   4.993 -0.0816  0.0522  1.2779
 5331TIP3    H216000   1.999   0.537   5.082 -0.0221  2.1219  0.4442
 5332TIP3   OH216001   2.119   4.720   2.674 -0.4145 -0.2744 -0.7492
 5332TIP3    H116002   2.024   4.724   2.668 -0.3744  0.4899 -1.0220
 5332TIP3    H216003   2.144   4.803   2.715  0.1971 -0.0054 -1.6356
 5333TIP3   OH216004   1.613   5.260   2.889 -0.1727 -0.5033 -0.2584
 5333TIP3    H116005   1.599   5.308   2.808 -0.3890 -1.9814 -1.1440
 5333TIP3    H216006   1.670   5.187   2.864  0.1626 -0.7104  1.0329
 5334TIP3   OH216007   2.796   1.662   3.203 -0.2378  0.4408  0.4223
 5334TIP3    H116008   2.855   1.618   3.141 -2.0707 -0.0891 -1.0258
 5334TIP3    H216009   2.823   1.628   3.289  0.0268 -1.6715 -0.4257
 5335TIP3   OH216010   5.137   2.656   3.277 -0.1736  0.0789 -0.0888
 5335TIP3    H116011   5.130   2.750   3.260  0.1831  0.0958 -0.1486
 5335TIP3    H216012   5.048   2.629   3.298  0.0342  0.8044  1.8786
 5336TIP3   OH216013   2.631   3.500   1.530  0.2877 -0.4477  0.0135
 5336TIP3    H116014   2.540   3.501   1.501  0.0990  0.4930  0.6022
 5336TIP3    H216015   2.649   3.408   1.550 -0.4731 -0.6637 -0.2584
 5337TIP3   OH216016   1.576   3.376   3.771  0.4255  0.2542  0.3517
 5337TIP3    H116017   1.670   3.389   3.772  0.5124 -0.3148  0.5858
 5337TIP3    H216018   1.565   3.288   3.734  0.2700 -1.4384  3.9660
 5338TIP3   OH216019   4.088   2.644   2.756 -0.3734  0.4749  0.0538
 5338TIP3    H116020   4.048   2.574   2.808  0.1240 -1.6403 -2.2283
 5338TIP3    H216021   4.182   2.634   2.772 -0.3030  0.6396 -0.2671
 5339TIP3   OH216022   4.453   4.072   1.924  0.2874  0.5173 -0.1270
 5339TIP3    H116023   4.397   4.000   1.952 -1.1503  1.3490 -0.7250
 5339TIP3    H216024   4.507   4.036   1.854 -0.4898  0.0574 -0.4937
 5340TIP3   OH216025   0.743   0.625   2.621  0.2729 -0.4919  0.1280
 5340TIP3    H116026   0.751   0.720   2.618  0.2721 -0.4996 -0.1901
 5340TIP3    H216027   0.707   0.602   2.535  1.0080 -0.8507 -0.0912
 5341TIP3   OH216028   4.679   2.861   3.896  0.2489  0.3603 -0.0972
 5341TIP3    H116029   4.754   2.809   3.868  0.1170  0.1852 -0.1287
 5341TIP3    H216030   4.610   2.839   3.833  0.4028  1.1168 -0.5460
 5342TIP3   OH216031   2.652   4.174   0.132 -0.0652  0.2588  0.0973
 5342TIP3    H116032   2.670   4.195   0.224 -0.3020  0.4464  0.1015
 5342TIP3    H216033   2.724   4.116   0.106  1.4570  2.2619 -0.3487
 5343TIP3   OH216034   2.101   3.983   0.866  0.2302  0.2624  0.1723
 5343TIP3    H116035   2.135   3.907   0.818  2.9552  1.7337 -0.5005
 5343TIP3    H216036   2.107   4.055   0.803 -2.0620  1.1345  0.8517
 5344TIP3   OH216037   2.060   2.865   4.313 -0.5618 -0.8216  0.3595
 5344TIP3    H116038   2.151   2.853   4.285 -0.5779  0.6296 -0.4000
 5344TIP3    H216039   2.010   2.812   4.251 -0.2439 -1.8077  0.9185
 5345TIP3   OH216040   5.687   4.086   5.054 -1.0067 -0.1392 -0.0845
 5345TIP3    H116041   5.655   4.075   4.964  0.6260  1.0842 -0.8593
 5345TIP3    H216042   5.742   4.164   5.051 -0.9001 -0.0833  1.9933
 5346TIP3   OH216043   1.617   1.769   3.035 -0.5405  0.0910  0.0501
 5346TIP3    H116044   1.543   1.712   3.059 -0.4096 -0.0778  0.0577
 5346TIP3    H216045   1.669   1.715   2.976 -0.6550  0.3672 -0.3052
 5347TIP3   OH216046   0.478   5.739   2.620 -0.3123  0.8003 -0.8021
 5347TIP3    H116047   0.442   5.827   2.629 -1.1036  0.9720 -4.1698
 5347TIP3    H216048   0.572   5.753   2.605 -0.3301  1.0421 -0.6879
 5348TIP3   OH216049   1.286   3.843   3.830  0.3399 -0.6716  0.0540
 5348TIP3    H116050   1.353   3.911   3.823 -1.8197  1.4463 -2.1140
 5348TIP3    H216051   1.335   3.762   3.845  3.4807  0.5679 -2.3213
 5349TIP3   OH216052   3.877   3.010   4.528 -0.5941 -0.4187 -0.0054
 5349TIP3    H116053   3.965   3.033   4.555 -0.5467 -0.4262 -0.1497
 5349TIP3    H216054   3.837   2.969   4.605 -0.0063 -1.6932 -0.3572
 5350TIP3   OH216055   3.999   1.514   3.063  0.1352  1.0363 -0.0188
 5350TIP3    H116056   4.055   1.451   3.019 -0.6776 -0.0203  0.4033
 5350TIP3    H216057   4.059   1.580   3.097  0.8711  1.3030 -1.7445
 5351TIP3   OH216058   1.913   2.703   2.042  0.3224 -0.3419 -0.4851
 5351TIP3    H116059   1.908   2.640   2.114 -1.3840  0.5529  0.2419
 5351TIP3    H216060   1.822   2.719   2.018  0.5731  2.7005  0.1629
 5352TIP3   OH216061   1.970   5.361   5.067 -0.1138  0.1293 -0.3809
 5352TIP3    H116062   1.941   5.318   4.986 -0.0621  0.5061 -0.6035
 5352TIP3    H216063   2.052   5.317   5.089  0.0617  0.2717 -0.7383
 5353TIP3   OH216064   2.232   4.466   4.078 -0.3267 -0.2776 -0.2632
 5353TIP3    H116065   2.312   4.450   4.029 -0.8762 -0.0048 -1.2928
 5353TIP3    H216066   2.259   4.522   4.151  0.2966  0.4867 -1.0577
 5354TIP3   OH216067   4.765   0.275   1.574  0.2671 -0.4947  0.4056
 5354TIP3    H116068   4.672   0.255   1.586  0.4908 -0.9161  1.6528
 5354TIP3    H216069   4.805   0.191   1.551  0.0850  0.0330 -2.0263
 5355TIP3   OH216070   2.553   4.871   2.623 -0.4230  0.2507 -0.3758
 5355TIP3    H116071   2.458   4.861   2.618 -0.4646  1.0614 -1.3256
 5355TIP3    H216072   2.584   4.782   2.642 -1.3242 -0.1222 -0.5628
 5356TIP3   OH216073   5.121   0.838   0.563 -0.6192  0.1273  0.3870
 5356TIP3    H116074   5.174   0.816   0.486 -2.0133  0.1054 -0.6016
 5356TIP3    H216075   5.185   0.849   0.633  0.6820 -0.0417 -0.7212
 5357TIP3   OH216076   0.873   5.653   1.421 -0.2996  0.0804 -0.5371
 5357TIP3    H116077   0.947   5.638   1.479 -0.7503  0.5866  0.1897
 5357TIP3    H216078   0.818   5.575   1.432 -0.9979  0.7246  0.6852
 5358TIP3   OH216079   6.058   5.527   1.113  0.3314  0.3447  0.0163
 5358TIP3    H116080   6.120   5.472   1.161 -0.6786  1.2029  2.5051
 5358TIP3    H216081   6.099   5.613   1.111 -0.4283  0.7555  1.0744
 5359TIP3   OH216082   4.156   2.567   4.842  0.3729  0.5156 -0.1469
 5359TIP3    H116083   4.156   2.518   4.924 -0.9075  2.7886  1.3099
 5359TIP3    H216084   4.202   2.510   4.780  1.1485 -1.3970  2.0476
 5360TIP3   OH216085   1.993   1.063   1.707 -0.4725  0.4449 -0.0985
 5360TIP3    H116086   1.996   0.975   1.670 -0.4152  0.7658 -0.8825
 5360TIP3    H216087   2.018   1.052   1.799 -0.1160 -0.3018 -0.2797
 5361TIP3   OH216088   4.594   5.122   3.844  0.0259 -0.2403 -0.0318
 5361TIP3    H116089   4.557   5.101   3.930  2.3427  0.3874  1.2167
 5361TIP3    H216090   4.522   5.108   3.783 -1.1592 -2.7528  1.7337
 5362TIP3   OH216091   1.095   5.630   1.575  0.3553  0.0058 -0.1159
 5362TIP3    H116092   1.135   5.610   1.490 -1.9689 -0.1082 -1.2395
 5362TIP3    H216093   1.109   5.550   1.626 -1.5734 -1.5177 -1.7603
 5363TIP3   OH216094   1.115   0.400   1.056  0.6252  0.4180 -0.2824
 5363TIP3    H116095   1.063   0.477   1.077 -0.4550 -0.5774  0.8716
 5363TIP3    H216096   1.113   0.396   0.960 -1.2076  0.5866 -0.2921
 5364TIP3   OH216097   4.708   2.430   3.135  0.3917 -0.3659 -0.0425
 5364TIP3    H116098   4.787   2.376   3.134  1.2952  0.8976 -0.7762
 5364TIP3    H216099   4.653   2.392   3.203  0.8576 -2.3552 -0.6993
 5365TIP3   OH216100   5.908   2.547   4.052 -0.4533  0.2753  0.4649
 5365TIP3    H116101   5.926   2.634   4.016 -0.6415  0.0463 -0.2053
 5365TIP3    H216102   5.981   2.493   4.022 -1.2675 -0.2219 -0.6989
 5366TIP3   OH216103   0.771   5.092   2.783  0.3165 -0.0067  0.5489
 5366TIP3    H116104   0.708   5.109   2.854  0.7045  0.5988  0.7559
 5366TIP3    H216105   0.745   5.007   2.748 -1.8259  1.0462 -0.6343
 5367TIP3   OH216106   2.334   2.837   3.820 -0.1569  0.0385 -0.1416
 5367TIP3    H116107   2.305   2.759   3.866  0.7786  0.4150  1.1567
 5367TIP3    H216108   2.272   2.906   3.847 -1.2186 -0.2917 -1.5892
 5368TIP3   OH216109   6.177   0.723   0.082 -0.0657  0.4765 -0.1152
 5368TIP3    H116110   6.119   0.650   0.106 -1.2622  0.8120 -1.7870
 5368TIP3    H216111   6.245   0.682   0.027  1.4653  0.0573  1.9675
 5369TIP3   OH216112   0.760   1.607   1.444 -0.3621  0.1913  0.9233
 5369TIP3    H116113   0.811   1.676   1.402  0.5504 -1.3355 -0.5604
 5369TIP3    H216114   0.689   1.654   1.488  0.5450  2.1120  0.4327
 5370TIP3   OH216115   2.739   3.996   4.034 -0.4955 -0.4544  0.5744
 5370TIP3    H116116   2.691   4.075   4.012 -0.1560  0.0751  1.6509
 5370TIP3    H216117   2.713   3.932   3.967 -1.8713  0.1194  0.5319
 5371TIP3   OH216118   2.928   0.624   3.346  0.0688 -0.5305  0.3801
 5371TIP3    H116119   2.849   0.646   3.396 -1.1979 -1.3580 -1.1626
 5371TIP3    H216120   2.995   0.609   3.412 -1.4353 -1.2141  1.8169
 5372TIP3   OH216121   1.054   5.867   1.760  0.0292 -0.2506  0.1289
 5372TIP3    H116122   1.129   5.922   1.739 -1.1003  1.3159  0.0158
 5372TIP3    H216123   1.054   5.800   1.692  1.1071 -0.0528 -0.0845
 5373TIP3   OH216124   4.563   2.426   2.132 -0.3838  0.3744  0.2452
 5373TIP3    H116125   4.519   2.342   2.129 -0.0608  0.2314 -0.5839
 5373TIP3    H216126   4.582   2.447   2.041 -0.5759  1.4057  0.4291
 5374TIP3   OH216127   4.029   5.174   0.722 -0.5068 -0.1064  0.3491
 5374TIP3    H116128   3.951   5.214   0.761 -0.0443  1.2276 -0.0473
 5374TIP3    H216129   4.002   5.152   0.632 -0.6349 -0.3169  0.4373
 5375TIP3   OH216130   2.739   4.745   4.413 -0.9190 -0.1175 -0.5958
 5375TIP3    H116131   2.738   4.809   4.342  0.9627  0.8526  0.1974
 5375TIP3    H216132   2.790   4.786   4.483  2.5246 -3.2955 -0.9020
 5376TIP3   OH216133   4.521   0.135   3.694  0.0970 -0.8860  0.2019
 5376TIP3    H116134   4.512   0.157   3.787 -1.7725  1.7741 -0.4836
 5376TIP3    H216135   4.582   0.200   3.660 -1.4554  0.0554 -0.9174
 5377TIP3   OH216136   3.154   0.820   2.776 -0.3860 -0.7560  0.2973
 5377TIP3    H116137   3.205   0.778   2.706  1.9853 -1.6203  2.3978
 5377TIP3    H216138   3.187   0.910   2.779  0.3207 -1.0260  0.9773
 5378TIP3   OH216139   6.326   3.110   1.866 -0.4910 -0.2501 -0.5178
 5378TIP3    H116140   6.388   3.050   1.906  1.3427  0.4825 -2.0847
 5378TIP3    H216141   6.277   3.057   1.803 -0.3622 -0.5304 -0.3804
 5379TIP3   OH216142   1.849  -0.036   4.609  0.1366  0.1935 -0.0542
 5379TIP3    H116143   1.887   0.045   4.574  0.0163 -0.1088 -0.9099
 5379TIP3    H216144   1.788  -0.007   4.677  1.4761  0.7141  0.9693
 5380TIP3   OH216145   5.632   1.833   3.252  0.8289 -0.0990  0.1298
 5380TIP3    H116146   5.546   1.805   3.284  0.3083  0.1976 -0.9506
 5380TIP3    H216147   5.647   1.917   3.295  0.4384 -0.0099  0.1018
 5381TIP3   OH216148   1.464   1.262   4.504  0.3910 -0.5162  0.2366
 5381TIP3    H116149   1.391   1.245   4.445  1.2010  1.2025 -1.3428
 5381TIP3    H216150   1.424   1.306   4.579 -0.5532 -2.1623  0.7586
 5382TIP3   OH216151   2.642   4.881   0.452  0.3879 -0.0755  0.6364
 5382TIP3    H116152   2.734   4.873   0.431  0.5112 -1.7090  1.6808
 5382TIP3    H216153   2.638   4.954   0.515  0.6604  1.3094 -0.8730
 5383TIP3   OH216154   2.800   3.395   1.239  0.3589  0.4624  0.0805
 5383TIP3    H116155   2.858   3.396   1.163 -0.9569  2.4102 -0.9580
 5383TIP3    H216156   2.751   3.477   1.234 -0.1125  0.4526  2.7906
 5384TIP3   OH216157   3.139   4.738   0.286  0.0394  0.0894  0.1025
 5384TIP3    H116158   3.158   4.657   0.238  2.4252  0.3726  0.4367
 5384TIP3    H216159   3.224   4.767   0.319 -0.6269  3.0620 -0.4816
 5385TIP3   OH216160   3.491   3.572   2.439 -0.8892  0.0343 -0.2393
 5385TIP3    H116161   3.430   3.502   2.417 -1.4094  0.8622 -1.5612
 5385TIP3    H216162   3.557   3.568   2.370 -0.3152  0.1539  0.2976
 5386TIP3   OH216163   3.629   2.835   3.832 -0.4779 -0.1008  0.1252
 5386TIP3    H116164   3.695   2.902   3.845 -0.8304  0.5862 -1.3528
 5386TIP3    H216165   3.661   2.759   3.881  0.9912  0.4687  0.0937
 5387TIP3   OH216166   5.779   0.106   1.142  0.2910  0.2962  0.1491
 5387TIP3    H116167   5.750   0.156   1.218 -0.8249  1.4091 -0.9678
 5387TIP3    H216168   5.788   0.171   1.072  0.8352 -0.7630 -0.8004
 5388TIP3   OH216169   2.640   3.244   1.600  0.2204  0.3126  0.1659
 5388TIP3    H116170   2.626   3.166   1.654 -3.2341  0.6670  0.0076
 5388TIP3    H216171   2.618   3.216   1.511  0.3813  1.0927 -0.1240
 5389TIP3   OH216172   0.216   4.659   2.436  0.4922  0.1975  0.2143
 5389TIP3    H116173   0.275   4.729   2.407 -0.0994  1.0967  1.1042
 5389TIP3    H216174   0.219   4.595   2.365  0.2337  1.6131 -1.1376
 5390TIP3   OH216175   3.131   4.915   4.532  0.8143  0.4064  0.1806
 5390TIP3    H116176   3.041   4.883   4.539  0.3580  1.8026  1.2445
 5390TIP3    H216177   3.164   4.912   4.622  1.1192  1.8121  0.1321
 5391TIP3   OH216178   5.709   5.291   3.532 -0.2339  0.0359  0.0607
 5391TIP3    H116179   5.681   5.244   3.453 -2.3121 -0.4681  1.0245
 5391TIP3    H216180   5.796   5.324   3.511 -0.9370  0.3956 -2.6446
 5392TIP3   OH216181   5.461   4.699   4.662  0.3029  0.4007  0.7593
 5392TIP3    H116182   5.439   4.606   4.656 -0.2110  0.5438  0.3414
 5392TIP3    H216183   5.436   4.723   4.751 -1.1417  0.5224  0.3455
 5393TIP3   OH216184   1.855   2.455   3.655 -0.1272 -0.1481  0.2941
 5393TIP3    H116185   1.821   2.495   3.735 -1.0286  0.3114 -0.2953
 5393TIP3    H216186   1.940   2.497   3.642  1.0241 -1.7837  2.1377
 5394TIP3   OH216187   1.760   5.118   3.123  0.5249 -0.4281 -0.2621
 5394TIP3    H116188   1.805   5.063   3.186  2.1737  1.4116  0.2773
 5394TIP3    H216189   1.770   5.072   3.039 -0.1882 -2.0387  0.5018
 5395TIP3   OH216190   2.311   1.720   0.774 -0.2464  0.0506 -0.0183
 5395TIP3    H116191   2.293   1.649   0.835  1.0074 -0.4768 -0.2221
 5395TIP3    H216192   2.266   1.694   0.693  0.0393 -0.4184 -0.0298
 5396TIP3   OH216193   4.623   4.288   2.372  0.0559  0.6361 -0.2633
 5396TIP3    H116194   4.577   4.249   2.298 -1.2752  1.6371  0.0119
 5396TIP3    H216195   4.660   4.213   2.419 -0.4136 -0.1197 -1.0685
 5397TIP3   OH216196   2.563   3.697   3.185 -0.0030  0.1474  0.2711
 5397TIP3    H116197   2.596   3.644   3.112 -0.4250 -0.1329  0.2820
 5397TIP3    H216198   2.533   3.633   3.249 -1.3106  0.4013 -0.0749
 5398TIP3   OH216199   5.860   2.429   1.275  0.0012  0.0856  0.3221
 5398TIP3    H116200   5.923   2.394   1.337 -0.0970  1.3035  1.1361
 5398TIP3    H216201   5.808   2.492   1.325 -0.1123  1.0634 -0.9621
 5399TIP3   OH216202   3.506   0.983   4.135  0.0102 -0.1086 -0.6262
 5399TIP3    H116203   3.562   1.048   4.178 -0.4534 -0.3273  0.3419
 5399TIP3    H216204   3.519   0.903   4.186  0.5290 -0.7723 -1.7739
 5400TIP3   OH216205   4.399   4.486   1.615 -0.2193  0.0106 -0.0144
 5400TIP3    H116206   4.336   4.558   1.619  1.2070  1.3310 -0.4960
 5400TIP3    H216207   4.447   4.501   1.534 -0.1168 -1.7147 -0.3094
 5401TIP3   OH216208   1.838   3.110   0.722 -0.0019  0.9963 -0.0737
 5401TIP3    H116209   1.922   3.113   0.676 -0.8204 -0.3878 -1.7405
 5401TIP3    H216210   1.791   3.036   0.684 -1.7786  1.3696  1.2228
 5402TIP3   OH216211   5.247   4.751   4.451 -0.0670  0.5571  0.2824
 5402TIP3    H116212   5.153   4.757   4.464 -0.0848 -1.6309  1.6634
 5402TIP3    H216213   5.283   4.736   4.538  1.5605  1.1243 -0.2504
 5403TIP3   OH216214   1.120   4.207   0.546  0.2258  0.3659  0.2275
 5403TIP3    H116215   1.131   4.301   0.539  1.2811  0.3344  1.2085
 5403TIP3    H216216   1.026   4.194   0.558  0.0420  1.2589 -0.2071
 5404TIP3   OH216217   5.382   2.017   2.559 -0.0797 -0.3425  0.3804
 5404TIP3    H116218   5.358   2.032   2.650 -0.0672  1.7220  0.0747
 5404TIP3    H216219   5.467   1.973   2.564  1.1254  1.9438  1.3916
 5405TIP3   OH216220   2.394   2.979   2.510 -0.2186  0.0242 -0.8050
 5405TIP3    H116221   2.355   2.909   2.459 -0.1681 -1.6238  1.2605
 5405TIP3    H216222   2.470   2.938   2.553 -0.3376  1.2332  0.6557
 5406TIP3   OH216223   5.259   3.646   0.737 -0.2918  0.2620 -0.3315
 5406TIP3    H116224   5.308   3.721   0.770  1.4756 -0.9922  0.0542
 5406TIP3    H216225   5.297   3.571   0.782 -0.3270 -1.1332 -2.4624
 5407TIP3   OH216226   5.570   1.804   2.599  0.2620  0.0591 -0.4990
 5407TIP3    H116227   5.630   1.783   2.671 -0.2711 -1.1557 -0.3922
 5407TIP3    H216228   5.624   1.798   2.520  0.5403  0.1034 -0.3136
 5408TIP3   OH216229   1.429   3.881   1.512 -0.0695 -0.2072  0.4790
 5408TIP3    H116230   1.495   3.853   1.449 -2.7427 -2.2856 -1.6771
 5408TIP3    H216231   1.396   3.964   1.478  2.4891  1.7949  2.5505
 5409TIP3   OH216232   1.188   0.106   4.671  0.1695  0.0655  0.1083
 5409TIP3    H116233   1.163   0.191   4.636 -0.8420  0.3614  1.4802
 5409TIP3    H216234   1.208   0.053   4.593 -3.6244  0.1542 -1.1623
 5410TIP3   OH216235   1.699   1.851   1.829 -0.0607 -0.2239 -0.2837
 5410TIP3    H116236   1.611   1.878   1.803 -0.3443 -1.4672 -0.6584
 5410TIP3    H216237   1.740   1.819   1.748  0.3437 -0.6750  0.0901
 5411TIP3   OH216238   3.749   5.187   1.948  0.0310 -0.1932 -0.4078
 5411TIP3    H116239   3.746   5.112   2.008 -0.2895 -1.9796 -2.5234
 5411TIP3    H216240   3.811   5.248   1.989  1.0814 -2.0546  0.9270
 5412TIP3   OH216241   2.969   1.234   3.482 -0.4187 -0.2705  0.2052
 5412TIP3    H116242   3.061   1.236   3.508 -0.5840 -0.2471  0.8000
 5412TIP3    H216243   2.928   1.308   3.528 -1.0421 -1.1846  1.2006
 5413TIP3   OH216244   4.734   5.795   1.879 -0.3690  0.1688  0.3895
 5413TIP3    H116245   4.813   5.755   1.914 -0.4269 -0.7289 -0.4568
 5413TIP3    H216246   4.729   5.764   1.789 -1.2253  0.9099  0.1633
 5414TIP3   OH216247   1.391   4.474   1.320 -0.7003 -0.0860  0.0216
 5414TIP3    H116248   1.440   4.405   1.276 -0.6227 -1.6211  2.3624
 5414TIP3    H216249   1.458   4.527   1.364 -0.4534  3.2768 -3.7341
 5415TIP3   OH216250   0.749   2.206   4.623  0.0113 -0.1743  0.0115
 5415TIP3    H116251   0.834   2.243   4.599 -0.6805  1.8833  0.5216
 5415TIP3    H216252   0.762   2.173   4.712  0.1884  0.5116  0.2484
 5416TIP3   OH216253   4.186   5.095   3.151  0.2085  0.2090  0.1309
 5416TIP3    H116254   4.258   5.057   3.101 -1.0759  0.1934 -1.8005
 5416TIP3    H216255   4.150   5.162   3.094 -1.9659 -0.4994  0.5936
 5417TIP3   OH216256   4.577   2.003   1.856 -0.4207  0.3254  0.2850
 5417TIP3    H116257   4.500   1.993   1.913  0.3696  0.1360  1.3551
 5417TIP3    H216258   4.623   2.079   1.891  0.8619 -0.6818  0.8750
 5418TIP3   OH216259   2.775   1.841   0.948  0.6110 -0.1842  0.2824
 5418TIP3    H116260   2.744   1.913   1.002  2.2265  0.7039  0.0846
 5418TIP3    H216261   2.699   1.814   0.897 -0.1132  1.1456  0.6257
 5419TIP3   OH216262   3.723   4.713   4.998  0.5551  0.3893 -0.4358
 5419TIP3    H116263   3.703   4.620   5.008 -1.2471  0.5748 -1.8888
 5419TIP3    H216264   3.726   4.747   5.088 -0.0559 -0.8156  0.0567
 5420TIP3   OH216265   4.660   3.216   0.406  0.5800 -0.0525  0.5977
 5420TIP3    H116266   4.747   3.256   0.405  0.4573  0.2350 -0.9049
 5420TIP3    H216267   4.613   3.259   0.334 -1.2343  0.6858  2.1450
 5421TIP3   OH216268   4.704   2.250   0.412 -0.0024 -0.0555 -1.1196
 5421TIP3    H116269   4.664   2.256   0.499 -1.0745 -2.0506 -1.4173
 5421TIP3    H216270   4.792   2.285   0.424 -0.4288  0.5871  0.5298
 5422TIP3   OH216271   2.810   1.192   1.146 -0.4676  0.4285  0.2387
 5422TIP3    H116272   2.825   1.116   1.089  0.7550  0.1569  0.8913
 5422TIP3    H216273   2.876   1.255   1.119 -0.1790  0.4743  1.0545
 5423TIP3   OH216274   1.751   3.840   3.169  0.1440  0.5143 -0.1747
 5423TIP3    H116275   1.683   3.869   3.229  0.0635  0.2639 -0.1443
 5423TIP3    H216276   1.704   3.801   3.095  0.2428  0.7889 -0.3854
 5424TIP3   OH216277   5.886   3.830   1.941 -0.4018  0.1176 -0.3324
 5424TIP3    H116278   5.883   3.780   1.860 -1.0929 -0.5428  0.0890
 5424TIP3    H216279   5.948   3.784   1.996 -2.4103 -1.4370  0.7679
 5425TIP3   OH216280   0.772   5.162   1.662  0.4013 -0.2935  0.0447
 5425TIP3    H116281   0.774   5.179   1.756 -1.5952  0.1029  0.0501
 5425TIP3    H216282   0.685   5.189   1.634  1.4108  0.8933 -2.1996
 5426TIP3   OH216283   5.258   4.901   0.626 -0.7373 -0.0183  0.1450
 5426TIP3    H116284   5.288   4.933   0.540 -0.4499  2.2378  1.0221
 5426TIP3    H216285   5.164   4.917   0.625 -0.6469  0.5547  0.4514
 5427TIP3   OH216286   3.017   0.832   4.929  0.2532  0.6147  0.3526
 5427TIP3    H116287   3.026   0.881   4.848  0.1849  0.2932  0.1506
 5427TIP3    H216288   3.103   0.835   4.969  0.6287 -0.3266 -0.3588
 5428TIP3   OH216289   3.123   4.904   2.625 -0.1798 -0.2137  0.1696
 5428TIP3    H116290   3.214   4.932   2.635  0.0134 -0.8821  0.3441
 5428TIP3    H216291   3.125   4.843   2.551 -0.7003  0.7036 -0.6061
 5429TIP3   OH216292   5.991   0.300   3.103 -0.3654  0.1301  0.3180
 5429TIP3    H116293   6.050   0.364   3.063 -1.3189  0.9185  0.1321
 5429TIP3    H216294   6.040   0.266   3.179  0.2129  0.9598  0.3269
 5430TIP3   OH216295   3.258   2.575   1.626  0.4810 -0.0948  0.5071
 5430TIP3    H116296   3.264   2.483   1.651  1.5962 -0.0064  0.5941
 5430TIP3    H216297   3.331   2.589   1.566 -1.7167 -0.1401 -2.4029
 5431TIP3   OH216298   2.515   5.171   3.343  0.3372 -0.0763 -0.0513
 5431TIP3    H116299   2.544   5.127   3.262 -1.1513  0.9301 -1.1941
 5431TIP3    H216300   2.550   5.117   3.413  0.0193 -2.1508 -1.3866
 5432TIP3   OH216301   2.105   0.855   4.405  0.4532  0.4817  0.2294
 5432TIP3    H116302   2.100   0.943   4.368  0.1183  1.0038  1.4882
 5432TIP3    H216303   2.145   0.867   4.491  3.3305 -0.9826 -0.7775
 5433TIP3   OH216304   5.841   5.587   3.951 -0.4078 -0.2143  0.3627
 5433TIP3    H116305   5.772   5.562   3.891 -1.1493  1.3010  0.5271
 5433TIP3    H216306   5.883   5.663   3.909  1.6550 -1.5305 -0.0878
 5434TIP3   OH216307   3.601   0.292   3.980  0.0471 -0.4446 -0.1296
 5434TIP3    H116308   3.611   0.330   4.067 -1.8658 -0.3788  0.1190
 5434TIP3    H216309   3.514   0.321   3.951  1.0058  0.3316 -2.4912
 5435TIP3   OH216310   5.941   1.733   0.329 -0.2973  0.0721 -0.7656
 5435TIP3    H116311   5.894   1.652   0.314 -1.1502  0.9740 -3.5191
 5435TIP3    H216312   6.033   1.712   0.311  0.0073 -0.9350  1.5815
 5436TIP3   OH216313   2.143   0.031   1.206  0.2880  0.1094  0.3222
 5436TIP3    H116314   2.126   0.123   1.226 -0.8867  0.0204 -0.1714
 5436TIP3    H216315   2.223   0.031   1.155 -1.2407  1.1959 -2.2658
 5437TIP3   OH216316   0.393   0.271   0.437  0.1262  0.4957  0.6927
 5437TIP3    H116317   0.338   0.337   0.479  0.4888  0.5931  1.0099
 5437TIP3    H216318   0.417   0.210   0.507 -0.9659 -0.5057  0.2379
 5438TIP3   OH216319   1.553   4.376   0.569 -0.0175 -0.4078  0.2930
 5438TIP3    H116320   1.513   4.397   0.654 -0.0242  0.0960  0.1686
 5438TIP3    H216321   1.515   4.439   0.509 -0.3850 -1.0833 -0.1914
 5439TIP3   OH216322   2.792   5.485   4.703 -0.3570 -0.2075  0.2413
 5439TIP3    H116323   2.773   5.521   4.616  2.3645 -1.2669 -0.8880
 5439TIP3    H216324   2.706   5.456   4.736 -1.3377 -0.7776 -2.5608
 5440TIP3   OH216325   4.917   4.424   2.345 -0.0874  0.5150 -0.0001
 5440TIP3    H116326   4.895   4.450   2.434  0.7236  2.1856 -0.2524
 5440TIP3    H216327   4.978   4.491   2.315 -0.4265  0.0349 -1.8571
 5441TIP3   OH216328   2.255   2.217   2.816 -0.0265  0.5138 -0.6002
 5441TIP3    H116329   2.255   2.256   2.729  0.1152  0.6286 -0.5495
 5441TIP3    H216330   2.206   2.278   2.870 -0.6510  0.1359 -0.7336
 5442TIP3   OH216331   3.117   2.276   4.115  0.3735  0.2830 -0.0400
 5442TIP3    H116332   3.160   2.359   4.134 -1.0647  0.7995  1.1672
 5442TIP3    H216333   3.134   2.221   4.192 -0.4665  0.2344  0.1225
 5443TIP3   OH216334   3.206   3.700   2.409  0.0195 -0.5220 -0.5115
 5443TIP3    H116335   3.231   3.701   2.316  2.0476 -1.0705 -0.0335
 5443TIP3    H216336   3.252   3.624   2.444  0.5874  0.6035  1.2773
 5444TIP3   OH216337   0.454   5.706   3.004 -0.3104  0.3958 -0.5921
 5444TIP3    H116338   0.486   5.713   3.094 -1.7114 -0.2938 -0.0045
 5444TIP3    H216339   0.529   5.729   2.949  0.3000  1.7442  0.7659
 5445TIP3   OH216340   4.227   0.417   1.856  0.2510 -0.3020 -0.5344
 5445TIP3    H116341   4.178   0.466   1.922 -0.0679 -1.2495 -0.0367
 5445TIP3    H216342   4.237   0.477   1.783  1.3771  1.0997  0.7097
 5446TIP3   OH216343   4.564   2.495   0.408  0.1334  0.1830  0.2015
 5446TIP3    H116344   4.622   2.556   0.453 -0.2789  0.9648 -0.3178
 5446TIP3    H216345   4.622   2.424   0.379  0.6245  0.3551  0.7395
 5447TIP3   OH216346   3.024   4.856   2.873 -0.0804  0.2733  0.3252
 5447TIP3    H116347   2.946   4.907   2.895 -0.2432  0.1692  0.0034
 5447TIP3    H216348   3.044   4.882   2.783  2.2093  2.8150  1.4357
 5448TIP3   OH216349   4.171   0.023   1.121  0.6375 -0.2222 -0.1069
 5448TIP3    H116350   4.121  -0.043   1.073 -0.5413  0.0444  0.7308
 5448TIP3    H216351   4.106   0.070   1.173  1.9262 -0.9772  2.3561
 5449TIP3   OH216352   3.896   5.426   2.381  0.4907  0.6833 -0.0708
 5449TIP3    H116353   3.910   5.520   2.367 -0.2285  0.6884 -0.9118
 5449TIP3    H216354   3.975   5.384   2.346  0.7757  0.9741  0.2270
 5450TIP3   OH216355   2.940   2.905   1.023  0.1441 -0.1310  0.0060
 5450TIP3    H116356   2.987   2.866   0.950  0.1091  1.2555 -0.8052
 5450TIP3    H216357   2.999   2.895   1.098 -0.8675 -3.8750  0.4964
 5451TIP3   OH216358   0.879   5.705   3.779  0.2803 -0.6180 -0.0120
 5451TIP3    H116359   0.844   5.698   3.868 -0.6123  1.6938 -0.0996
 5451TIP3    H216360   0.862   5.620   3.739 -1.7401 -0.8352  1.1872
 5452TIP3   OH216361   2.991   2.790   2.025  0.1995 -0.0313  0.0626
 5452TIP3    H116362   3.006   2.861   1.963 -0.5828  0.9766  0.9846
 5452TIP3    H216363   3.078   2.762   2.051  0.5197  0.6166 -0.2965
 5453TIP3   OH216364   1.293   0.587   2.228 -0.2010 -0.2187 -0.1523
 5453TIP3    H116365   1.231   0.638   2.281 -0.0615 -0.9561  0.7451
 5453TIP3    H216366   1.246   0.505   2.210  0.1283 -0.3681 -0.3279
 5454TIP3   OH216367   3.427   3.166   0.150 -0.2878  0.1355  0.2441
 5454TIP3    H116368   3.465   3.213   0.076  1.1517 -2.0232 -0.4699
 5454TIP3    H216369   3.336   3.198   0.154  0.1856  1.8126 -1.1002
 5455TIP3   OH216370   1.200   3.807   1.026  0.6715 -0.5532  0.0642
 5455TIP3    H116371   1.130   3.802   1.092  0.7274 -0.4468  0.1317
 5455TIP3    H216372   1.261   3.738   1.052  0.6838 -0.5246  0.1130
 5456TIP3   OH216373   2.192   5.308   3.125 -0.8105  0.3835 -0.6211
 5456TIP3    H116374   2.162   5.309   3.216 -0.8823  0.7070 -0.6457
 5456TIP3    H216375   2.112   5.309   3.073 -0.8007 -0.8616 -0.7009
 5457TIP3   OH216376   5.793   5.765   3.492 -0.4124 -0.2301  0.3419
 5457TIP3    H116377   5.881   5.784   3.461 -0.5881 -0.1146 -0.0985
 5457TIP3    H216378   5.737   5.826   3.443 -0.9996 -1.8889 -1.1320
 5458TIP3   OH216379   3.914   3.887   1.544  0.0492 -0.2715  0.4293
 5458TIP3    H116380   3.995   3.861   1.588  0.7805 -0.4075 -0.9292
 5458TIP3    H216381   3.929   3.866   1.452 -2.0674 -1.5892  0.3178
 5459TIP3   OH216382   5.669   2.577   4.735  0.0884  0.4346  0.2878
 5459TIP3    H116383   5.734   2.564   4.666 -0.3529 -0.3800  0.0084
 5459TIP3    H216384   5.654   2.671   4.737  0.5903  0.5310 -0.2792
 5460TIP3   OH216385   1.222   1.958   2.963 -0.2482 -0.4164  0.7062
 5460TIP3    H116386   1.163   1.913   3.025  0.1169 -1.2004  0.4993
 5460TIP3    H216387   1.186   1.937   2.877 -0.1030 -0.2619  0.6086
 5461TIP3   OH216388   5.461   1.358   0.594 -0.1811  0.3960  0.1950
 5461TIP3    H116389   5.463   1.453   0.607  2.9022  0.5691 -0.6925
 5461TIP3    H216390   5.551   1.330   0.611 -0.9582 -2.3563  0.1881
 5462TIP3   OH216391   0.358   3.849   0.048 -0.0692 -0.5236  0.0241
 5462TIP3    H116392   0.281   3.902   0.027  1.0202  1.4929  0.7308
 5462TIP3    H216393   0.405   3.901   0.113  2.2439 -1.3171 -0.8936
 5463TIP3   OH216394   2.371   0.420   1.267 -0.2511 -0.2153  0.4253
 5463TIP3    H116395   2.373   0.390   1.358  1.4841  1.0071  0.8322
 5463TIP3    H216396   2.311   0.495   1.268 -1.9586 -1.5059  0.0692
 5464TIP3   OH216397   3.865   2.647   1.929 -0.7924 -0.7623 -0.6367
 5464TIP3    H116398   3.894   2.657   1.838  1.1313  0.7827  0.0630
 5464TIP3    H216399   3.861   2.737   1.963  0.7378 -1.3924  1.4020
 5465TIP3   OH216400   1.877   3.242   1.109 -0.1869 -0.3022 -0.6724
 5465TIP3    H116401   1.861   3.334   1.088 -0.7320 -0.5178 -1.1994
 5465TIP3    H216402   1.889   3.199   1.024  0.1627 -0.7036 -0.4260
 5466TIP3   OH216403   1.336   3.216   3.538  0.2531 -0.2353 -0.1489
 5466TIP3    H116404   1.424   3.235   3.506  0.3982  2.6204  1.6300
 5466TIP3    H216405   1.280   3.229   3.462  0.8513  3.8627 -0.1312
 5467TIP3   OH216406   4.495   2.963   3.124 -0.0768  0.4035 -0.3399
 5467TIP3    H116407   4.435   2.940   3.052  0.4432  0.5931 -0.8424
 5467TIP3    H216408   4.535   3.045   3.096  1.4302 -0.3955 -0.6587
 5468TIP3   OH216409   4.320   4.196   2.426  0.2579 -0.0826  0.2491
 5468TIP3    H116410   4.359   4.157   2.348  0.9285  1.2562 -0.1364
 5468TIP3    H216411   4.274   4.274   2.393 -2.0682 -1.1217  0.8139
 5469TIP3   OH216412   3.378   1.933   2.489 -0.6282  0.0503 -0.3318
 5469TIP3    H116413   3.335   2.004   2.537  0.2851  1.5316 -1.6033
 5469TIP3    H216414   3.470   1.938   2.516 -0.7563 -1.4697  0.4757
 5470TIP3   OH216415   0.493   0.784   4.835  0.4069 -0.4544  0.0035
 5470TIP3    H116416   0.453   0.722   4.774 -0.0278 -1.2956  1.1163
 5470TIP3    H216417   0.546   0.730   4.893 -1.1703 -0.0265  1.9566
 5471TIP3   OH216418   2.982   4.421   4.609 -0.1701 -0.8163  0.0217
 5471TIP3    H116419   2.962   4.504   4.653 -0.3535 -0.6819 -0.3118
 5471TIP3    H216420   3.041   4.376   4.669  0.8790  0.0613 -0.3176
 5472TIP3   OH216421   6.260   0.032   2.145 -0.4988  0.2103  0.4202
 5472TIP3    H116422   6.321   0.087   2.193 -0.8885 -0.2889  1.5179
 5472TIP3    H216423   6.316  -0.021   2.087 -0.1677  2.2361 -1.2444
 5473TIP3   OH216424   5.442   4.840   3.714 -0.2629  0.3133 -0.6610
 5473TIP3    H116425   5.533   4.818   3.696  0.1251  0.0761  1.4189
 5473TIP3    H216426   5.445   4.900   3.789 -1.7465  1.5349 -1.5002
 5474TIP3   OH216427   1.528   3.152   4.799  0.1303  0.2855  0.2540
 5474TIP3    H116428   1.577   3.092   4.855  1.9702  1.2655 -0.2296
 5474TIP3    H216429   1.557   3.239   4.826 -0.2040  0.8406 -1.0818
 5475TIP3   OH216430   4.572   2.842   1.060 -0.0744  0.1956  0.1021
 5475TIP3    H116431   4.570   2.829   1.154 -0.5640 -1.1734 -0.0746
 5475TIP3    H216432   4.658   2.809   1.033 -0.1873 -0.0246  0.0029
 5476TIP3   OH216433   0.395   1.440   0.038  0.1869  0.0757  0.4025
 5476TIP3    H116434   0.308   1.420   0.005 -0.2515  1.5262  0.6034
 5476TIP3    H216435   0.384   1.447   0.132  0.7314 -0.6660  0.5321
 5477TIP3   OH216436   2.434   0.436   1.854 -0.2711 -0.3235  0.5344
 5477TIP3    H116437   2.471   0.523   1.840 -2.6264  0.9298  1.4695
 5477TIP3    H216438   2.339   0.449   1.848 -0.7441 -2.6003  1.8629
 5478TIP3   OH216439   1.502   5.812   4.175 -0.7303  0.0908 -0.3376
 5478TIP3    H116440   1.563   5.839   4.106 -0.0732 -0.1897  0.1269
 5478TIP3    H216441   1.555   5.812   4.255 -1.0037 -1.4532 -0.1341
 5479TIP3   OH216442   5.472   5.822   4.023 -0.7112  0.4683 -0.4964
 5479TIP3    H116443   5.469   5.751   4.087  2.6217  2.6975  2.4815
 5479TIP3    H216444   5.413   5.889   4.059  0.9992  1.6490  0.1942
 5480TIP3   OH216445   1.892   0.030   2.669 -0.3441  0.0382  0.2234
 5480TIP3    H116446   1.978   0.054   2.634 -0.2419 -0.1301  0.3620
 5480TIP3    H216447   1.844   0.113   2.672 -0.1329  0.1586  0.2959
 5481TIP3   OH216448   5.616   1.735   2.286 -0.3646  0.0348 -0.1802
 5481TIP3    H116449   5.527   1.770   2.286 -0.6862 -0.7527 -0.5091
 5481TIP3    H216450   5.658   1.777   2.211  0.2344  2.0375  1.1939
 5482TIP3   OH216451   0.298   3.045   3.395  0.0065  0.5147  0.1891
 5482TIP3    H116452   0.208   3.076   3.399 -0.1583  0.6971 -2.7768
 5482TIP3    H216453   0.290   2.951   3.378  0.2999  0.7095 -1.1670
 5483TIP3   OH216454   1.621   5.869   0.118 -0.2925 -0.2448 -0.6699
 5483TIP3    H116455   1.538   5.913   0.099 -0.6528 -1.3117 -1.6132
 5483TIP3    H216456   1.640   5.818   0.040 -0.4722 -2.6703  0.7687
 5484TIP3   OH216457   5.148   2.977   0.154  0.3730 -0.0543  0.4891
 5484TIP3    H116458   5.108   2.986   0.067 -1.2983 -0.3883  1.1730
 5484TIP3    H216459   5.079   3.005   0.215  1.5609  0.3157  1.7009
 5485TIP3   OH216460   1.339   2.485   3.512 -0.1356 -0.4399  0.6866
 5485TIP3    H116461   1.421   2.498   3.465 -1.0602  0.1074 -0.8624
 5485TIP3    H216462   1.350   2.403   3.558  2.1262  0.7271  2.4218
 5486TIP3   OH216463   5.271   0.614   4.860  0.2773 -0.2734  0.2984
 5486TIP3    H116464   5.313   0.537   4.899  2.8405  0.2621 -1.1901
 5486TIP3    H216465   5.212   0.579   4.794 -0.0611 -1.0107  0.9838
 5487TIP3   OH216466   4.844   2.711   1.335  0.3163 -0.4852  0.5050
 5487TIP3    H116467   4.914   2.776   1.326 -0.3169  0.1751  0.3107
 5487TIP3    H216468   4.880   2.647   1.397  1.4760 -0.6900 -0.3371
 5488TIP3   OH216469   3.928   3.491   2.184  0.2846 -0.0983  0.6367
 5488TIP3    H116470   3.977   3.455   2.110  0.2986  0.1809  0.5081
 5488TIP3    H216471   3.929   3.585   2.169 -0.2131 -0.0861  0.6902
 5489TIP3   OH216472   3.081   5.928   3.868 -0.2953 -0.0780  0.4516
 5489TIP3    H116473   3.069   5.861   3.935 -1.6688 -0.8777 -0.5301
 5489TIP3    H216474   3.145   5.890   3.808 -2.2405 -1.2937 -0.9688
 5490TIP3   OH216475   3.431   5.756   1.651  0.2754  0.0496 -0.2460
 5490TIP3    H116476   3.420   5.818   1.579  1.1370  0.1617 -0.2848
 5490TIP3    H216477   3.353   5.700   1.646  0.4179 -0.0661 -1.3917
 5491TIP3   OH216478   2.051   0.332   1.320  0.5177  0.2666 -0.5201
 5491TIP3    H116479   2.084   0.420   1.303 -0.5631  1.2689  2.0160
 5491TIP3    H216480   1.965   0.331   1.278 -1.0291  1.8080  2.2959
 5492TIP3   OH216481   1.407   5.590   4.320 -0.4971  0.1448  0.3608
 5492TIP3    H116482   1.427   5.675   4.280 -0.9109  0.1143  0.0884
 5492TIP3    H216483   1.439   5.525   4.257 -0.4491  0.0953  0.4356
 5493TIP3   OH216484   2.903   2.577   2.390 -0.2219  0.7064 -0.4952
 5493TIP3    H116485   2.851   2.588   2.470 -0.1309  1.9497 -0.5990
 5493TIP3    H216486   2.940   2.489   2.397 -1.3193  0.2815  0.1796
 5494TIP3   OH216487   5.974   2.379   2.449 -0.1482  0.1558  0.3112
 5494TIP3    H116488   5.998   2.454   2.504  3.6197  0.6965 -1.7018
 5494TIP3    H216489   5.934   2.417   2.371  3.2562  0.5244 -1.4795
 5495TIP3   OH216490   1.849   3.355   1.804  0.1243  0.3487 -0.2374
 5495TIP3    H116491   1.909   3.300   1.754 -1.6845 -0.8456 -1.1790
 5495TIP3    H216492   1.826   3.302   1.880  1.3484  1.3871  0.8978
 5496TIP3   OH216493   2.138   1.038   3.122 -0.2308 -0.8407  0.1220
 5496TIP3    H116494   2.131   1.003   3.033  0.0786  1.7087 -1.0020
 5496TIP3    H216495   2.225   1.010   3.152  1.1783  1.0508 -1.8119
 5497TIP3   OH216496   2.447   0.881   2.174 -0.0494 -0.0465 -0.2653
 5497TIP3    H116497   2.539   0.907   2.168  0.1134 -0.5691 -0.0402
 5497TIP3    H216498   2.422   0.903   2.264  0.0856 -0.6527 -0.0778
 5498TIP3   OH216499   1.255   3.067   4.909  0.0975 -0.0343  0.2913
 5498TIP3    H116500   1.236   3.114   4.828 -0.3458 -1.3655 -0.4261
 5498TIP3    H216501   1.349   3.047   4.904 -0.4932 -3.0757 -1.6679
 5499TIP3   OH216502   6.153   4.709   4.996 -0.2044  0.3270  0.5776
 5499TIP3    H116503   6.078   4.740   4.946  1.0792 -0.2512 -1.8746
 5499TIP3    H216504   6.139   4.615   5.006 -0.9117  0.5771  2.2262
 5500TIP3   OH216505   2.545   3.880   3.857  0.3413  0.7015  0.2375
 5500TIP3    H116506   2.487   3.845   3.925 -0.9132  2.9616  0.4536
 5500TIP3    H216507   2.515   3.838   3.776 -0.4269  0.4777  0.6250
 5501TIP3   OH216508   0.417   3.244   1.411 -0.1094 -0.6551  0.2996
 5501TIP3    H116509   0.441   3.156   1.439  0.1445 -0.4333  0.7813
 5501TIP3    H216510   0.488   3.300   1.443  0.6174 -0.4938 -1.4462
 5502TIP3   OH216511   6.194   5.661   0.821  0.0518  0.5280  0.6638
 5502TIP3    H116512   6.208   5.597   0.890 -0.7240  0.3515  0.6684
 5502TIP3    H216513   6.112   5.634   0.779  0.4806  0.6603 -0.2865
 5503TIP3   OH216514   5.544   0.315   3.346 -0.2967 -0.3394  0.4036
 5503TIP3    H116515   5.468   0.347   3.394 -0.9776 -0.2438 -0.7160
 5503TIP3    H216516   5.597   0.270   3.413 -0.5824  0.8614  1.4829
 5504TIP3   OH216517   5.898   3.658   0.208  0.5745  0.7658 -0.0581
 5504TIP3    H116518   5.803   3.658   0.202  0.5111  1.3032  0.7161
 5504TIP3    H216519   5.928   3.652   0.118 -0.1659 -1.7383 -0.2170
 5505TIP3   OH216520   0.960   4.886   0.062  0.6024 -0.1749 -0.2651
 5505TIP3    H116521   0.897   4.898  -0.009 -0.1019 -0.5029  0.2850
 5505TIP3    H216522   0.914   4.919   0.140 -0.0285 -2.9978  0.6853
 5506TIP3   OH216523   1.407   1.426   1.632  0.1728 -0.3115 -0.4237
 5506TIP3    H116524   1.429   1.518   1.649 -0.3219  0.1985 -2.3439
 5506TIP3    H216525   1.311   1.424   1.634  0.1167 -0.4160 -1.9782
 5507TIP3   OH216526   2.495   3.553   5.064 -0.0483 -0.9636  0.6328
 5507TIP3    H116527   2.519   3.502   5.142  1.1532 -0.2645  0.7494
 5507TIP3    H216528   2.400   3.541   5.056 -0.0094 -2.0403  1.4805
 5508TIP3   OH216529   4.101   4.992   1.692 -0.2813  0.4898  0.3374
 5508TIP3    H116530   4.138   4.994   1.780  0.6532  1.8231 -0.0538
 5508TIP3    H216531   4.099   5.084   1.665 -2.2023  0.2891 -0.3670
 5509TIP3   OH216532   0.891   4.194   2.457 -0.4219 -0.0698  0.3380
 5509TIP3    H116533   0.886   4.182   2.552 -1.1406 -0.9519  0.2070
 5509TIP3    H216534   0.853   4.114   2.421  0.0284  0.1674 -0.7022
 5510TIP3   OH216535   2.024   5.707   4.064 -0.6365 -0.4838  0.3216
 5510TIP3    H116536   2.068   5.790   4.047 -0.2717 -0.9777 -1.3756
 5510TIP3    H216537   2.051   5.650   3.991 -0.3877 -2.2865  1.7354
 5511TIP3   OH216538   5.786   1.485   1.515 -0.1503  0.6107  0.0732
 5511TIP3    H116539   5.876   1.455   1.505 -0.4915 -0.7245  0.6801
 5511TIP3    H216540   5.794   1.574   1.551  0.9361 -0.0440  1.5543
 5512TIP3   OH216541   2.170   4.373   2.075 -0.1681 -0.4616 -0.0573
 5512TIP3    H116542   2.102   4.312   2.106 -0.8682  0.1070 -0.4536
 5512TIP3    H216543   2.141   4.459   2.105  0.2037 -0.1704 -0.5181
 5513TIP3   OH216544   0.736   0.773   1.935  0.0344 -0.2144 -0.1799
 5513TIP3    H116545   0.752   0.848   1.879 -0.9495 -0.5415 -0.9379
 5513TIP3    H216546   0.821   0.753   1.974  0.1576  1.8214  0.7512
 5514TIP3   OH216547   0.693   1.213   5.028  0.6977  0.0133 -0.0168
 5514TIP3    H116548   0.735   1.195   5.111  0.6693 -1.0316 -0.2165
 5514TIP3    H216549   0.648   1.297   5.041  1.2094  0.1684  0.8062
 5515TIP3   OH216550   5.451   4.115   1.606  0.2690 -0.2085 -0.2974
 5515TIP3    H116551   5.433   4.040   1.662 -1.0587  0.1364 -0.2287
 5515TIP3    H216552   5.512   4.169   1.657  0.1333 -0.5582  0.2392
 5516TIP3   OH216553   0.680   1.586   2.073 -0.1484 -0.7554 -0.4652
 5516TIP3    H116554   0.752   1.626   2.023 -0.9350 -1.6317 -2.3609
 5516TIP3    H216555   0.724   1.540   2.144  0.8615  3.0238  1.6747
 5517TIP3   OH216556   4.635   4.195   4.322 -0.0951  0.3748  0.4628
 5517TIP3    H116557   4.560   4.154   4.364 -1.1047  2.3836  0.7388
 5517TIP3    H216558   4.623   4.289   4.337  0.8260  1.0065 -2.1176
 5518TIP3   OH216559   3.038   3.481   2.666 -0.0558 -0.2795  0.1986
 5518TIP3    H116560   2.955   3.479   2.713 -0.1731 -0.1144 -0.0023
 5518TIP3    H216561   3.098   3.528   2.725 -0.3784  0.5195 -0.1049
 5519TIP3   OH216562   1.081   4.771   4.676 -0.2586 -0.0435  0.3425
 5519TIP3    H116563   1.123   4.741   4.596 -0.1511  2.4225 -0.6091
 5519TIP3    H216564   1.035   4.851   4.651  0.8634  1.5601  2.9770
 5520TIP3   OH216565   0.703   2.492   1.445  0.3931  0.0927  0.1955
 5520TIP3    H116566   0.714   2.586   1.461 -2.7973  0.4682  0.7874
 5520TIP3    H216567   0.639   2.487   1.375  1.0626 -1.6844 -0.3430
 5521TIP3   OH216568   6.066   0.997   1.509  0.3321 -0.0072  0.3034
 5521TIP3    H116569   6.058   1.091   1.525 -0.2441 -0.0466  0.2755
 5521TIP3    H216570   6.073   0.957   1.596  1.1151  0.1040  0.2944
 5522TIP3   OH216571   0.736   1.291   3.331 -0.0944  0.1723 -0.2743
 5522TIP3    H116572   0.791   1.367   3.313  0.8583 -0.3818  0.2295
 5522TIP3    H216573   0.670   1.293   3.261  1.4981 -0.0200 -1.8781
 5523TIP3   OH216574   5.114   0.672   1.654  0.0432  0.1767  0.0340
 5523TIP3    H116575   5.152   0.586   1.633 -0.0257  0.1375  0.0670
 5523TIP3    H216576   5.051   0.653   1.724 -0.1499  0.2179 -0.1281
 5524TIP3   OH216577   3.801   3.147   3.586 -0.2541  0.7743  0.1375
 5524TIP3    H116578   3.858   3.160   3.662  0.0748 -1.2931  0.3155
 5524TIP3    H216579   3.861   3.149   3.511 -0.6212  3.1520 -0.1790
 5525TIP3   OH216580   6.035   1.994   0.850 -1.0064  0.3699 -0.2273
 5525TIP3    H116581   6.017   2.087   0.832 -0.9685  0.2942 -0.6752
 5525TIP3    H216582   6.082   1.994   0.933 -1.1622  0.7408 -0.1378
 5526TIP3   OH216583   3.681   1.290   1.562  0.2257  0.0964  0.7437
 5526TIP3    H116584   3.617   1.340   1.613  3.4230  1.6631  3.7163
 5526TIP3    H216585   3.739   1.252   1.628  1.8254 -2.0050 -1.6909
 5527TIP3   OH216586   0.456   2.651   0.375  0.0839 -0.3359 -0.1843
 5527TIP3    H116587   0.501   2.677   0.294  0.4670 -0.2801  0.0419
 5527TIP3    H216588   0.364   2.646   0.351  0.0825  0.5909 -0.3986
 5528TIP3   OH216589   0.598   5.202   4.476 -0.0556 -0.1950 -0.3420
 5528TIP3    H116590   0.655   5.167   4.407  0.0140  2.0337 -1.5063
 5528TIP3    H216591   0.513   5.214   4.434 -0.3112  0.2100  0.2740
 5529TIP3   OH216592   1.770   2.674   0.055  0.2138  0.0813  0.3246
 5529TIP3    H116593   1.718   2.596   0.033 -0.2380  0.2320  0.8313
 5529TIP3    H216594   1.736   2.701   0.140 -1.2333  2.1525 -0.8305
 5530TIP3   OH216595   4.244   1.278   1.978 -0.0926 -0.2293 -0.7183
 5530TIP3    H116596   4.258   1.190   1.944  4.3184  0.6956 -1.8143
 5530TIP3    H216597   4.295   1.281   2.059 -1.8583  0.8138  0.4459
 5531TIP3   OH216598   3.160   4.460   4.025 -0.4159 -0.6123  0.2675
 5531TIP3    H116599   3.164   4.457   4.120  1.5211 -0.4731  0.2243
 5531TIP3    H216600   3.110   4.382   4.000 -1.3271 -0.4192  1.3775
 5532TIP3   OH216601   1.454   1.148   1.220  0.6506 -0.0909  0.5953
 5532TIP3    H116602   1.394   1.198   1.165  0.1738 -1.3902 -0.1002
 5532TIP3    H216603   1.451   1.193   1.305 -0.3139  0.6236  0.2022
 5533TIP3   OH216604   2.042   3.728   1.036 -0.3413 -0.1218  0.2741
 5533TIP3    H116605   2.105   3.797   1.052 -0.4702  0.2321 -0.7107
 5533TIP3    H216606   2.021   3.734   0.943 -1.3238 -0.6591  0.4392
 5534TIP3   OH216607   2.914   5.010   0.115 -0.0066 -0.1938 -0.2429
 5534TIP3    H116608   2.867   4.970   0.188  0.3732 -0.7335 -0.2852
 5534TIP3    H216609   2.947   5.093   0.150 -0.1351 -0.2811  0.0856
 5535TIP3   OH216610   1.608   3.772   3.659 -0.1593  0.5128  0.5922
 5535TIP3    H116611   1.554   3.742   3.733  0.1535 -0.6538  0.3534
 5535TIP3    H216612   1.584   3.864   3.649 -0.6161  0.5486  1.7957
 5536TIP3   OH216613   3.993   3.191   3.772 -0.5067 -0.1710  0.6802
 5536TIP3    H116614   4.060   3.244   3.728  1.3824 -2.2474  0.8798
 5536TIP3    H216615   3.992   3.223   3.862 -1.1454  1.0799  0.2551
 5537TIP3   OH216616   3.851   5.854   0.918  0.2157 -0.7084 -0.0116
 5537TIP3    H116617   3.946   5.857   0.905  0.6402 -0.0044  2.6439
 5537TIP3    H216618   3.819   5.937   0.881  0.7385 -0.5959 -0.2141
 5538TIP3   OH216619   5.903   5.818   4.428  0.1696 -0.0440  0.1745
 5538TIP3    H116620   5.823   5.853   4.468  0.7691  1.4024  0.1501
 5538TIP3    H216621   5.974   5.847   4.486  0.5509 -3.7306  1.8581
 5539TIP3   OH216622   5.236   0.746   2.098  0.3583 -0.1057  0.0048
 5539TIP3    H116623   5.203   0.781   2.016  1.1150  0.7844  0.0672
 5539TIP3    H216624   5.158   0.737   2.153 -0.4166 -2.2515 -1.2998
 5540TIP3   OH216625   2.056   4.109   1.770  0.2893  0.3118  0.0480
 5540TIP3    H116626   2.013   4.024   1.778  1.5268 -0.5259 -1.6868
 5540TIP3    H216627   2.140   4.097   1.814  0.1514  0.9211  0.5040
 5541TIP3   OH216628   5.747   4.640   0.596 -0.2822 -0.1851 -0.2233
 5541TIP3    H116629   5.776   4.714   0.542  0.0120  0.4194  0.7262
 5541TIP3    H216630   5.825   4.613   0.644 -0.9495  0.6559  1.4369
 5542TIP3   OH216631   2.331   2.084   0.082 -0.2167  0.6610  0.2676
 5542TIP3    H116632   2.330   2.010   0.143 -0.6630 -0.4772 -1.0588
 5542TIP3    H216633   2.360   2.158   0.135  2.4228 -0.8737  1.1636
 5543TIP3   OH216634   4.125   0.517   3.782 -0.4537 -0.1612 -0.6348
 5543TIP3    H116635   4.166   0.511   3.868 -0.5265  0.2990 -0.5642
 5543TIP3    H216636   4.082   0.603   3.781  0.1296  0.1392 -1.3830
 5544TIP3   OH216637   2.926   1.530   3.591  0.0549  0.7200 -0.0553
 5544TIP3    H116638   2.991   1.479   3.639 -0.2091 -0.8072 -1.2550
 5544TIP3    H216639   2.970   1.614   3.575  1.0416  0.3789  0.7242
 5545TIP3   OH216640   5.747   2.098   3.033 -0.3815 -0.0221  0.0871
 5545TIP3    H116641   5.774   2.007   3.017  0.0692 -0.2406  1.9031
 5545TIP3    H216642   5.788   2.148   2.962  0.6014 -1.0430 -0.0875
 5546TIP3   OH216643   3.665   5.666   0.876  0.1268 -0.7725  0.1291
 5546TIP3    H116644   3.635   5.683   0.965 -1.6392 -3.1257  0.0530
 5546TIP3    H216645   3.744   5.720   0.867 -1.3031  1.8908  2.0224
 5547TIP3   OH216646   4.521   4.861   4.593 -0.6397  0.0835 -0.4294
 5547TIP3    H116647   4.588   4.911   4.640 -0.5839 -0.2113 -0.1939
 5547TIP3    H216648   4.446   4.920   4.587 -0.2384  0.5486 -1.0072
 5548TIP3   OH216649   5.752   5.515   4.609  0.0907  0.1750  0.3529
 5548TIP3    H116650   5.765   5.485   4.699  2.0003  0.7053  0.2965
 5548TIP3    H216651   5.840   5.534   4.577 -0.7462  2.7678 -0.6793
 5549TIP3   OH216652   1.998   4.605   2.977 -0.1481 -0.1730 -0.0837
 5549TIP3    H116653   1.978   4.527   2.925  2.0335 -1.5628  1.0101
 5549TIP3    H216654   2.094   4.609   2.979 -0.1537  0.7546  2.4130
 5550TIP3   OH216655   1.023   4.638   3.440 -0.4103  0.2592 -0.3721
 5550TIP3    H116656   1.095   4.604   3.388 -1.0175 -1.7706  0.0547
 5550TIP3    H216657   1.034   4.733   3.436  1.6951  0.0371 -1.1306
 5551TIP3   OH216658   2.593   3.583   0.102  0.1889  0.9891  0.5500
 5551TIP3    H116659   2.621   3.491   0.099 -0.8967  0.4931  2.9693
 5551TIP3    H216660   2.669   3.632   0.074  0.8423 -0.6348 -0.6862
 5552TIP3   OH216661   4.298   0.733   0.411 -0.2997 -0.5902 -0.7500
 5552TIP3    H116662   4.333   0.717   0.323  1.5262 -2.5686  0.2574
 5552TIP3    H216663   4.283   0.647   0.448  1.2133  0.0777  1.6911
 5553TIP3   OH216664   6.268   4.022   1.292  0.4436  0.2832  0.1617
 5553TIP3    H116665   6.297   3.999   1.203  0.1408  0.0010  0.1341
 5553TIP3    H216666   6.248   3.937   1.332  1.6142  0.3107  0.8617
 5554TIP3   OH216667   0.197   3.521   2.281 -0.4452  0.3837  0.0185
 5554TIP3    H116668   0.230   3.503   2.193  1.4928  3.9659 -0.1961
 5554TIP3    H216669   0.273   3.507   2.338 -1.4767 -1.1642  1.1035
 5555TIP3   OH216670   3.432   2.009   1.288  0.0659  0.2553  0.1150
 5555TIP3    H116671   3.510   1.984   1.237 -0.0981  0.2985 -0.1603
 5555TIP3    H216672   3.453   2.096   1.322  0.2441  0.1568  0.2600
 5556TIP3   OH216673   2.793   4.303   1.159 -0.3449  0.0131  0.1673
 5556TIP3    H116674   2.749   4.371   1.210 -0.7777 -0.8018  0.9141
 5556TIP3    H216675   2.831   4.245   1.225  0.0838 -0.4245 -0.4539
 5557TIP3   OH216676   4.409   5.775   4.811  0.4866 -0.4685  0.1071
 5557TIP3    H116677   4.382   5.684   4.799  1.6622 -1.2030  2.3964
 5557TIP3    H216678   4.365   5.803   4.891  2.3556 -0.0029  1.0327
 5558TIP3   OH216679   1.694   5.720   1.590 -0.4223 -0.0380  0.1361
 5558TIP3    H116680   1.605   5.727   1.555  0.3080  3.6630 -1.5576
 5558TIP3    H216681   1.744   5.676   1.520 -0.5275 -0.2097  0.1694
 5559TIP3   OH216682   3.454   0.290   4.589 -0.4063 -0.6682 -0.0870
 5559TIP3    H116683   3.540   0.317   4.619 -0.3592 -0.0892 -0.7347
 5559TIP3    H216684   3.465   0.198   4.564  0.1466 -0.4570 -0.6419
 5560TIP3   OH216685   1.801   2.375   1.710  0.1961  0.5311 -0.5798
 5560TIP3    H116686   1.849   2.364   1.792 -1.0186  0.8481  0.1860
 5560TIP3    H216687   1.870   2.384   1.644  1.2348 -1.6149  0.1030
 5561TIP3   OH216688   4.813   2.453   2.457  0.0964 -0.3863 -0.1672
 5561TIP3    H116689   4.868   2.520   2.417 -1.8083  0.0085 -2.3715
 5561TIP3    H216690   4.858   2.371   2.437 -0.0824 -0.0832 -2.0639
 5562TIP3   OH216691   2.071   5.728   2.062  0.3936 -0.0742  0.0644
 5562TIP3    H116692   1.988   5.687   2.088  0.7380 -0.5400  0.4723
 5562TIP3    H216693   2.118   5.739   2.145  0.4092  0.9288 -0.0762
 5563TIP3   OH216694   5.362   3.939   3.784  0.1198 -0.4359  0.0691
 5563TIP3    H116695   5.267   3.928   3.777  0.2510 -1.8632  0.2105
 5563TIP3    H216696   5.374   4.000   3.857 -0.6862 -0.4512  0.2216
 5564TIP3   OH216697   2.544   1.973   3.422  0.4057 -0.3199 -0.0242
 5564TIP3    H116698   2.548   1.902   3.486  1.8665 -0.3813 -0.1431
 5564TIP3    H216699   2.636   1.995   3.405 -0.0000  1.0912 -0.5557
 5565TIP3   OH216700   4.346   2.358   1.355 -0.4055 -0.2981  0.4443
 5565TIP3    H116701   4.267   2.338   1.406  0.0916 -0.0889  1.3285
 5565TIP3    H216702   4.393   2.274   1.351 -0.6833 -0.4325 -0.1176
 5566TIP3   OH216703   2.358   1.173   0.291 -0.3452 -0.0543 -0.5006
 5566TIP3    H116704   2.401   1.258   0.283  0.4628 -0.4484 -0.4002
 5566TIP3    H216705   2.274   1.192   0.332 -0.7435  0.8710 -1.6860
 5567TIP3   OH216706   4.469   0.785   2.446  0.2229  0.6945 -0.1369
 5567TIP3    H116707   4.565   0.790   2.442  0.1746  2.6062  0.3138
 5567TIP3    H216708   4.439   0.825   2.364 -0.1875  2.2151  0.7193
 5568TIP3   OH216709   2.620   3.811   5.126 -0.1822 -0.6639 -0.1205
 5568TIP3    H116710   2.580   3.729   5.098 -0.2814 -0.1747 -1.4902
 5568TIP3    H216711   2.581   3.877   5.069  0.7819  0.1667  0.1566
 5569TIP3   OH216712   4.786   4.343   0.511  0.0757 -0.3187 -0.0040
 5569TIP3    H116713   4.751   4.391   0.437  0.5085  0.5022  0.3133
 5569TIP3    H216714   4.722   4.273   0.527 -1.7151  1.4239  0.8658
 5570TIP3   OH216715   5.490   1.780   4.957  0.2478 -0.5138 -0.3005
 5570TIP3    H116716   5.408   1.826   4.939  0.3472 -0.9676 -2.0047
 5570TIP3    H216717   5.533   1.770   4.872  1.0681 -2.1676  0.2482
 5571TIP3   OH216718   1.193   2.637   1.762 -0.2407 -0.1713 -0.3820
 5571TIP3    H116719   1.184   2.542   1.757 -1.0331 -0.2602  1.5164
 5571TIP3    H216720   1.168   2.658   1.852  1.1636  1.7117 -0.3691
 5572TIP3   OH216721   3.701   3.758   4.976 -0.2931 -0.0733 -0.3004
 5572TIP3    H116722   3.628   3.756   5.037 -0.3610 -0.9973 -0.4065
 5572TIP3    H216723   3.665   3.727   4.893  0.4570 -1.6725 -0.0695
 5573TIP3   OH216724   2.885   2.527   3.374  0.0392 -0.4193  0.3767
 5573TIP3    H116725   2.973   2.492   3.367 -0.0283 -0.5616  0.2453
 5573TIP3    H216726   2.897   2.614   3.412  0.3130 -0.0743 -0.4778
 5574TIP3   OH216727   4.461   4.709   4.088  0.3016 -0.2021  0.2826
 5574TIP3    H116728   4.447   4.614   4.091 -1.1113  0.0184  2.5108
 5574TIP3    H216729   4.375   4.746   4.108  1.3168  1.5130  1.6994
 5575TIP3   OH216730   4.648   2.998   0.160  0.0040 -0.2626  0.0553
 5575TIP3    H116731   4.619   2.907   0.155 -1.8718  0.2399  0.7549
 5575TIP3    H216732   4.573   3.044   0.197  1.0193  1.5297 -0.0316
 5576TIP3   OH216733   4.355   1.947   4.405 -0.8827 -0.2841 -0.5756
 5576TIP3    H116734   4.374   1.881   4.472  1.2101 -0.1508 -0.9479
 5576TIP3    H216735   4.390   2.028   4.441  0.3601 -0.2337 -1.8198
 5577TIP3   OH216736   1.391   0.475   1.040 -0.2254  0.4834  0.4741
 5577TIP3    H116737   1.361   0.565   1.052 -0.0968  0.6662 -0.5516
 5577TIP3    H216738   1.321   0.421   1.077 -0.8512  0.9678 -0.0049
 5578TIP3   OH216739   2.632   3.210   1.317  0.1740  0.1461  0.6267
 5578TIP3    H116740   2.638   3.143   1.248 -1.3222  0.3945  0.2063
 5578TIP3    H216741   2.695   3.277   1.291 -0.1772  0.1113 -0.3892
 5579TIP3   OH216742   3.514  -0.015   1.414  0.2080 -0.0567 -0.2924
 5579TIP3    H116743   3.592  -0.048   1.370 -0.2760  0.4382 -1.5765
 5579TIP3    H216744   3.534   0.076   1.433  0.0342  0.0083 -0.4175
 5580TIP3   OH216745   0.967   3.982   2.689  0.0563 -0.4788  0.3027
 5580TIP3    H116746   0.975   3.896   2.730  2.5125 -0.1120  0.7367
 5580TIP3    H216747   1.006   3.972   2.602  0.5491  0.2363  0.4328
 5581TIP3   OH216748  -0.015   0.608   4.959 -0.5138 -0.8864  0.8811
 5581TIP3    H116749  -0.054   0.522   4.978  3.2267 -2.9951 -0.0866
 5581TIP3    H216750   0.069   0.607   5.004 -0.0722  2.1019  0.3261
 5582TIP3   OH216751   4.585   4.749   3.657 -0.1021 -0.9393 -0.0915
 5582TIP3    H116752   4.671   4.772   3.622 -0.4304  2.2454  0.8964
 5582TIP3    H216753   4.603   4.716   3.745  0.1626 -0.6050 -0.0172
 5583TIP3   OH216754   0.310   5.198   1.151  0.2471  0.0863  0.4708
 5583TIP3    H116755   0.363   5.251   1.092  0.3490 -0.7044 -0.1621
 5583TIP3    H216756   0.224   5.240   1.151  0.4841  0.5726  0.4228
 5584TIP3   OH216757   5.604   4.830   1.576  0.6749 -0.4218  0.0651
 5584TIP3    H116758   5.539   4.847   1.507 -0.8904 -2.3393  0.9593
 5584TIP3    H216759   5.687   4.825   1.530 -0.0417  0.3614 -1.3869
 5585TIP3   OH216760   0.208   4.478   2.236 -0.2228  0.2137  0.5518
 5585TIP3    H116761   0.113   4.478   2.224 -0.3984  2.1102  1.5355
 5585TIP3    H216762   0.240   4.541   2.172  0.4179 -0.5477  0.1033
 5586TIP3   OH216763   3.080   1.530   4.362 -0.4608  0.3411  0.0015
 5586TIP3    H116764   3.000   1.535   4.415 -0.0281  1.9129  0.5624
 5586TIP3    H216765   3.110   1.621   4.355  0.8104 -0.1216 -0.9264
 5587TIP3   OH216766   4.425   5.980   0.742 -0.6056 -0.2294  0.4414
 5587TIP3    H116767   4.452   5.888   0.748  1.9344  0.4719  0.8110
 5587TIP3    H216768   4.447   6.006   0.653 -2.0953 -0.1705  0.0684
 5588TIP3   OH216769   1.648   4.183   4.106  0.2008  0.2210 -0.1668
 5588TIP3    H116770   1.718   4.141   4.156 -0.0482  0.5284  0.4385
 5588TIP3    H216771   1.689   4.203   4.021 -0.2270 -3.1140 -1.3176
 5589TIP3   OH216772   1.112   4.338   2.664  0.2144  0.0138 -0.1537
 5589TIP3    H116773   1.030   4.377   2.634  0.2936 -0.0665 -0.4766
 5589TIP3    H216774   1.145   4.399   2.730  0.8774  1.0757 -1.4162
 5590TIP3   OH216775   2.142   2.597   0.329  0.6932  0.7377 -0.4092
 5590TIP3    H116776   2.236   2.610   0.316  0.9357 -0.3825  0.0467
 5590TIP3    H216777   2.103   2.682   0.312  1.7249  1.0611 -1.2594
 5591TIP3   OH216778   6.251   5.160   1.532  0.1100 -0.4570 -0.4624
 5591TIP3    H116779   6.309   5.228   1.569  1.1178 -1.4909 -0.0804
 5591TIP3    H216780   6.220   5.112   1.609 -0.9739 -0.1482 -0.6984
 5592TIP3   OH216781   2.621   4.444   2.479  0.4614  0.1299 -0.5585
 5592TIP3    H116782   2.625   4.415   2.571 -0.2296 -0.4442 -0.6986
 5592TIP3    H216783   2.619   4.363   2.428  2.0646  0.4490 -1.1580
 5593TIP3   OH216784   4.906   3.068   0.595  0.0120  0.0507  0.4805
 5593TIP3    H116785   4.932   3.048   0.505 -2.5231  1.2585 -0.6039
 5593TIP3    H216786   4.880   3.160   0.593 -1.3038 -0.2353  2.1369
 5594TIP3   OH216787   0.789   0.961   1.307  0.1465  0.1276 -0.3398
 5594TIP3    H116788   0.726   1.032   1.316 -0.9787 -0.7734 -0.7788
 5594TIP3    H216789   0.739   0.889   1.268  1.9750  0.1406 -3.0489
 5595TIP3   OH216790   4.532   0.506   2.497  0.5310 -0.5852  0.3664
 5595TIP3    H116791   4.495   0.466   2.576  0.2334 -1.8335 -0.3767
 5595TIP3    H216792   4.468   0.573   2.473  1.1517  0.5547  1.7583
 5596TIP3   OH216793   0.200   1.349   2.870 -0.2208 -0.5933  0.0058
 5596TIP3    H116794   0.234   1.260   2.863  0.3125 -0.4496  0.7242
 5596TIP3    H216795   0.153   1.350   2.953 -1.9319 -0.7571 -0.9032
 5597TIP3   OH216796   0.502   3.307   3.613  0.6163  0.1696 -0.8660
 5597TIP3    H116797   0.549   3.248   3.554  1.9561  0.1312  0.2145
 5597TIP3    H216798   0.497   3.390   3.565  0.0884 -0.3502 -1.7513
 5598TIP3   OH216799   1.551   4.607   0.407  0.6602  0.1049  0.4333
 5598TIP3    H116800   1.493   4.673   0.369 -0.4116  0.5534  2.6702
 5598TIP3    H216801   1.639   4.645   0.401  0.0858  1.6923  1.5163
 5599TIP3   OH216802   1.183   3.359   2.802  0.1779 -0.1974 -0.0172
 5599TIP3    H116803   1.262   3.348   2.855  1.7239  0.5447 -2.0411
 5599TIP3    H216804   1.189   3.449   2.770 -0.6935 -0.6164 -1.4213
 5600TIP3   OH216805   5.412   5.588   4.674  0.2686  0.2880  0.1908
 5600TIP3    H116806   5.352   5.662   4.676 -0.7654 -0.5223 -0.0561
 5600TIP3    H216807   5.364   5.517   4.718  1.2018 -0.2615  0.3499
 5601TIP3   OH216808   2.269   0.038   2.443  0.0250 -0.2658  0.0857
 5601TIP3    H116809   2.246  -0.003   2.527  0.4470 -2.9241 -1.0238
 5601TIP3    H216810   2.207   0.001   2.380  1.2329 -0.1659 -1.2014
 5602TIP3   OH216811   5.057   0.261   0.976  0.5662  0.0991  0.0558
 5602TIP3    H116812   4.990   0.249   0.909  0.3134  1.2685  0.0777
 5602TIP3    H216813   5.087   0.351   0.964  1.3093 -0.0388  0.7975
 5603TIP3   OH216814   6.271   1.062   3.978 -0.0865 -0.4982 -0.0267
 5603TIP3    H116815   6.337   1.040   4.044  0.2706 -0.2457 -0.2935
 5603TIP3    H216816   6.319   1.059   3.895 -0.7506 -1.8019 -0.3898
 5604TIP3   OH216817   1.793   3.527   0.715 -0.0203 -0.5998  0.2273
 5604TIP3    H116818   1.728   3.472   0.671 -1.5105  0.8961  0.4455
 5604TIP3    H216819   1.752   3.613   0.720  0.8689 -0.2295  2.8092
 5605TIP3   OH216820   0.593   0.316   2.980  0.4213 -0.3400  0.4697
 5605TIP3    H116821   0.676   0.359   2.960  0.3806 -0.0760  0.8658
 5605TIP3    H216822   0.559   0.290   2.895  0.0948  1.0423  0.1563
 5606TIP3   OH216823   2.488   4.882   2.042 -0.0660  0.4917 -0.4836
 5606TIP3    H116824   2.578   4.903   2.069 -0.2857  0.5284  0.2276
 5606TIP3    H216825   2.435   4.901   2.119 -0.6031 -0.1967 -0.6808
 5607TIP3   OH216826   0.552   4.804   2.896  0.4775  0.6582 -0.1197
 5607TIP3    H116827   0.485   4.765   2.952  0.0224  0.7151 -0.6083
 5607TIP3    H216828   0.634   4.764   2.923 -0.1552 -1.9579 -1.7387
 5608TIP3   OH216829   2.153   5.514   3.882  0.4048 -0.2699  0.3183
 5608TIP3    H116830   2.169   5.428   3.843 -3.6129 -0.3371 -1.6022
 5608TIP3    H216831   2.230   5.566   3.857  1.4331 -2.3962 -1.2757
 5609TIP3   OH216832   4.773   3.494   4.640 -0.2962  0.0456  0.1181
 5609TIP3    H116833   4.755   3.410   4.597  0.1820 -0.6130  1.1846
 5609TIP3    H216834   4.804   3.471   4.727 -2.1567  1.3517  1.2213
 5610TIP3   OH216835   4.321   2.763   3.739 -0.4654  0.2714 -0.2927
 5610TIP3    H116836   4.397   2.713   3.709 -0.8095  0.2646 -1.1636
 5610TIP3    H216837   4.246   2.709   3.716 -0.8342  1.0957 -1.0884
 5611TIP3   OH216838   3.233   3.640   0.156  0.2583 -0.0018  0.5021
 5611TIP3    H116839   3.224   3.729   0.191  1.2054  0.6555 -0.8478
 5611TIP3    H216840   3.256   3.586   0.232 -4.8464 -0.0832  2.3414
 5612TIP3   OH216841   1.506   2.799   1.501 -0.1718  0.0733  0.8869
 5612TIP3    H116842   1.524   2.892   1.487  0.6777 -0.1056  0.7487
 5612TIP3    H216843   1.431   2.799   1.561 -0.7898  0.8365  0.1536
 5613TIP3   OH216844   3.759   5.281   4.586 -0.5628  0.1867  0.5134
 5613TIP3    H116845   3.784   5.273   4.494 -1.4409 -1.6773  0.3832
 5613TIP3    H216846   3.712   5.364   4.591  0.3424  0.7888 -0.4860
 5614TIP3   OH216847   4.440   3.877   5.053 -0.2543 -0.1560 -0.0380
 5614TIP3    H116848   4.438   3.949   5.115 -0.2050  0.3459 -0.6116
 5614TIP3    H216849   4.351   3.842   5.055 -0.7279  0.9417 -0.9250
 5615TIP3   OH216850   1.136   4.409   0.786  0.2713  0.0052  0.8638
 5615TIP3    H116851   1.104   4.348   0.853 -1.1548  0.3807  0.5635
 5615TIP3    H216852   1.066   4.473   0.777  1.4337  1.3038  0.6543
 5616TIP3   OH216853   4.167   2.272   2.017 -0.4637 -0.2571  0.0636
 5616TIP3    H116854   4.152   2.257   2.111 -0.1167 -1.8175 -0.1150
 5616TIP3    H216855   4.259   2.250   2.004 -0.9405 -1.7629 -0.9611
 5617TIP3   OH216856   6.242   0.159   1.667  0.0329  0.4564  0.0086
 5617TIP3    H116857   6.190   0.151   1.747  0.0032 -1.1504 -0.1358
 5617TIP3    H216858   6.254   0.253   1.655  0.3545  0.7342  2.1118
 5618TIP3   OH216859   1.976   5.127   0.789 -0.2372 -0.0243  0.0234
 5618TIP3    H116860   1.988   5.084   0.874  2.6204  2.9927  1.3724
 5618TIP3    H216861   2.039   5.086   0.731 -0.4969 -0.4613  0.0473
 5619TIP3   OH216862   5.536   4.063   1.163 -0.0443 -0.4464 -0.3735
 5619TIP3    H116863   5.482   4.105   1.231 -0.0260 -1.2759  0.1660
 5619TIP3    H216864   5.497   4.092   1.081 -1.3654 -1.0718  0.0008
 5620TIP3   OH216865   1.057   0.452   0.760 -0.3458 -0.2093 -0.5094
 5620TIP3    H116866   0.994   0.382   0.776  1.4308 -2.0280 -1.1079
 5620TIP3    H216867   1.130   0.409   0.716  1.9275  1.4988  1.3416
 5621TIP3   OH216868   4.992   3.891   0.837  1.3010  0.2619  0.1196
 5621TIP3    H116869   4.997   3.796   0.848  1.6226  0.2370 -0.2119
 5621TIP3    H216870   5.076   3.915   0.797  0.7301  0.5135 -0.9796
 5622TIP3   OH216871   5.096   5.584   2.410 -0.1232 -0.4803 -0.2636
 5622TIP3    H116872   5.184   5.557   2.436  0.2869 -0.4618 -1.5815
 5622TIP3    H216873   5.097   5.680   2.417 -0.1694 -0.5056  0.1053
 5623TIP3   OH216874   2.567   4.608   2.744  0.1598  1.0554 -0.5236
 5623TIP3    H116875   2.608   4.569   2.821 -0.8716  0.1518 -0.4000
 5623TIP3    H216876   2.476   4.624   2.771 -0.4031  0.0735 -1.7559
 5624TIP3   OH216877   2.263   4.251   0.846 -0.2965  0.4858  0.4011
 5624TIP3    H116878   2.311   4.323   0.885  0.9018  0.9451 -1.7787
 5624TIP3    H216879   2.182   4.290   0.814 -0.1402  0.6308  0.1855
 5625TIP3   OH216880   0.762   0.517   4.257 -0.6718  0.3551  0.1298
 5625TIP3    H116881   0.787   0.602   4.221  1.9445 -0.1092  0.6156
 5625TIP3    H216882   0.819   0.454   4.211 -2.5006 -1.1705 -0.1915
 5626TIP3   OH216883   3.954   1.827   0.206 -0.8990 -0.1134 -0.0004
 5626TIP3    H116884   4.012   1.751   0.198 -0.7741 -0.3732  2.4891
 5626TIP3    H216885   3.872   1.800   0.164  0.3304 -0.1419 -2.5894
 5627TIP3   OH216886   1.033   4.661   2.467  0.3221 -0.2132 -0.0545
 5627TIP3    H116887   1.123   4.694   2.459  0.6913 -0.8119  1.3547
 5627TIP3    H216888   1.013   4.624   2.381  1.4845 -0.2421 -0.3265
 5628TIP3   OH216889   0.994   4.961   2.691 -0.2119 -0.1318  0.0061
 5628TIP3    H116890   0.983   4.912   2.609 -0.7633 -0.3271  0.1947
 5628TIP3    H216891   0.906   4.988   2.715 -0.0431 -0.0074  0.5003
 5629TIP3   OH216892   0.254   1.896   1.755  0.3778  0.0205  0.1094
 5629TIP3    H116893   0.349   1.891   1.753  0.3968  0.4226 -0.0920
 5629TIP3    H216894   0.235   1.959   1.825  0.2242 -0.8402  0.8678
 5630TIP3   OH216895   1.851   5.360   1.970 -0.2007  0.2208  0.1639
 5630TIP3    H116896   1.887   5.442   2.003 -0.3209  0.4062 -0.1560
 5630TIP3    H216897   1.783   5.387   1.907 -0.5064 -0.1197  0.3404
 5631TIP3   OH216898   4.209   5.878   4.954  0.1906 -0.5481  0.1514
 5631TIP3    H116899   4.160   5.866   4.873 -0.3487 -0.1999  0.4205
 5631TIP3    H216900   4.143   5.874   5.023  0.6722 -1.0626  0.5908
 5632TIP3   OH216901   1.991   5.746   3.716 -0.0722  0.5252  0.8285
 5632TIP3    H116902   2.033   5.700   3.789 -0.2761 -0.0353  0.5898
 5632TIP3    H216903   1.922   5.688   3.687  1.6999 -0.5386 -1.5817
 5633TIP3   OH216904   2.905   0.732   4.605 -0.3431 -0.2760 -0.1395
 5633TIP3    H116905   2.839   0.668   4.579 -0.4258 -0.5284  0.6893
 5633TIP3    H216906   2.858   0.794   4.661  0.2762 -0.8480  1.0225
 5634TIP3   OH216907   5.699   3.242   3.702 -0.0424  0.5957 -0.1262
 5634TIP3    H116908   5.654   3.318   3.665 -1.1084 -0.2195 -0.5597
 5634TIP3    H216909   5.676   3.243   3.794 -0.9521  0.2072 -0.3382
 5635TIP3   OH216910   4.356   5.154   0.646  0.0207  0.0749 -0.3817
 5635TIP3    H116911   4.324   5.205   0.572 -0.5022 -1.3346 -1.1580
 5635TIP3    H216912   4.354   5.064   0.616  0.3043 -0.4824  1.1775
 5636TIP3   OH216913   1.266   4.453   3.633  0.2097  0.4373  0.2983
 5636TIP3    H116914   1.273   4.529   3.691 -1.3563 -0.1151  1.2853
 5636TIP3    H216915   1.302   4.483   3.550 -1.5735  2.7420  0.2455
 5637TIP3   OH216916   4.521   0.536   4.468 -0.1264 -0.5055  0.5338
 5637TIP3    H116917   4.442   0.542   4.416  1.1318  1.3718 -1.3074
 5637TIP3    H216918   4.566   0.458   4.436  0.0002 -0.0973 -0.3209
 5638TIP3   OH216919   2.716   0.915   4.040  0.0568 -0.3874 -0.5497
 5638TIP3    H116920   2.772   0.957   3.974  0.3068 -1.7165 -1.2109
 5638TIP3    H216921   2.627   0.933   4.009  0.1417  0.1070 -0.5263
 5639TIP3   OH216922   5.047   2.651   2.637  0.0765  0.2740 -0.4155
 5639TIP3    H116923   5.062   2.557   2.623  0.4289  0.3101 -0.2736
 5639TIP3    H216924   4.965   2.655   2.687 -0.3590  0.0763 -1.0907
 5640TIP3   OH216925   1.955   4.311   4.371  0.2653 -0.0458 -0.4288
 5640TIP3    H116926   1.899   4.308   4.449  2.7285 -2.0416  1.4140
 5640TIP3    H216927   1.937   4.229   4.325 -0.3365  0.6134 -1.4310
 5641TIP3   OH216928   1.884   4.483   4.167  0.3265  0.4068  0.3169
 5641TIP3    H116929   1.924   4.430   4.235  1.3913  1.2285  0.3576
 5641TIP3    H216930   1.795   4.500   4.199  0.2100 -0.7295  0.6272
 5642TIP3   OH216931   0.928   1.542   4.575 -0.2168  0.0891 -0.1535
 5642TIP3    H116932   1.008   1.538   4.628 -1.0504 -2.0685  1.0481
 5642TIP3    H216933   0.958   1.525   4.485  0.7532  0.0036  0.1745
 5643TIP3   OH216934   2.317   1.543   4.862 -0.1846 -0.2309  0.0086
 5643TIP3    H116935   2.308   1.461   4.911  1.0972 -0.7236 -0.5481
 5643TIP3    H216936   2.400   1.580   4.892  2.1917 -1.9780 -3.7710
 5644TIP3   OH216937   2.981   1.839   2.597 -0.2602 -0.0242  0.0944
 5644TIP3    H116938   2.897   1.877   2.573 -0.6027 -0.8870 -0.0908
 5644TIP3    H216939   2.970   1.810   2.688  0.2847  1.0910  0.5429
 5645TIP3   OH216940   3.794   2.964   0.807 -0.6174  0.1250  0.0215
 5645TIP3    H116941   3.727   3.030   0.787  0.0576  1.3363  1.5889
 5645TIP3    H216942   3.871   3.015   0.832  0.7054 -1.2496 -1.0602
 5646TIP3   OH216943   2.686   4.117   0.775 -0.7796  0.7046 -0.1005
 5646TIP3    H116944   2.766   4.130   0.723 -0.5312  0.4250  0.2135
 5646TIP3    H216945   2.619   4.166   0.727 -0.1263  2.1467  0.3956
 5647TIP3   OH216946   6.008   0.628   1.829  0.0918  0.3400  0.4211
 5647TIP3    H116947   6.095   0.631   1.870  0.3006 -1.4287  0.1739
 5647TIP3    H216948   5.955   0.576   1.889 -0.2808 -0.1809 -0.3463
 5648TIP3   OH216949   3.660   3.307   1.932  0.8495 -0.3735  0.7054
 5648TIP3    H116950   3.714   3.281   2.006  1.2832  0.9202  0.8601
 5648TIP3    H216951   3.622   3.391   1.957  0.9386  0.0487 -0.4946
 5649TIP3   OH216952   6.377   3.758   1.268 -0.1765  0.5587 -0.5336
 5649TIP3    H116953   6.298   3.753   1.322 -1.3330  1.7263 -2.0136
 5649TIP3    H216954   6.347   3.737   1.180  1.4943 -0.4748 -0.8922
 5650TIP3   OH216955   3.768   5.387   4.333  0.5917  0.4269  0.8784
 5650TIP3    H116956   3.678   5.413   4.356  0.5371 -0.1161  1.3180
 5650TIP3    H216957   3.788   5.436   4.254  0.3354  1.4432  1.4321
 5651TIP3   OH216958   1.398   0.107   4.231 -0.1038  0.5636 -0.9045
 5651TIP3    H116959   1.457   0.043   4.191 -0.3559  1.5655 -3.0323
 5651TIP3    H216960   1.448   0.189   4.230  0.6710  0.3113  2.8584
 5652TIP3   OH216961   1.238   1.343   0.591  0.0435  0.4694  0.2884
 5652TIP3    H116962   1.159   1.391   0.615  0.0471 -0.2459  1.8746
 5652TIP3    H216963   1.308   1.408   0.598 -0.1536  0.6289  0.8836
 5653TIP3   OH216964   1.162   5.470   3.467 -0.0447 -0.3823 -0.0752
 5653TIP3    H116965   1.076   5.490   3.431 -0.4329 -0.9169  0.5257
 5653TIP3    H216966   1.194   5.397   3.414 -0.0711 -0.3530 -0.1319
 5654TIP3   OH216967   0.456   1.847   3.657  0.5699 -0.4133 -0.0142
 5654TIP3    H116968   0.545   1.822   3.681  0.8738 -0.2713 -0.9294
 5654TIP3    H216969   0.400   1.800   3.718  1.2026 -1.8277 -0.4883
 5655TIP3   OH216970   3.264   1.787   1.337  0.0942 -0.3097  0.3803
 5655TIP3    H116971   3.281   1.880   1.326 -0.2505  0.0758  2.6242
 5655TIP3    H216972   3.224   1.780   1.424  0.0496 -2.5418  0.2351
 5656TIP3   OH216973   3.773   0.125   1.300 -0.7966  0.5325 -0.2049
 5656TIP3    H116974   3.714   0.195   1.326 -1.0043 -0.6872  3.1453
 5656TIP3    H216975   3.860   0.163   1.306 -0.8289  0.3736  2.6574
 5657TIP3   OH216976   1.127   1.478   1.024  0.0114  0.6207  0.7080
 5657TIP3    H116977   1.085   1.426   0.955  1.0549  1.7331 -0.8249
 5657TIP3    H216978   1.067   1.552   1.038  1.3234  2.2195 -1.4939
 5658TIP3   OH216979   1.452   0.157   0.881 -0.3771  0.1008 -0.2862
 5658TIP3    H116980   1.383   0.131   0.941  0.1017 -1.0689 -0.2155
 5658TIP3    H216981   1.511   0.211   0.934 -1.0262  0.7912 -0.2553
 5659TIP3   OH216982   1.704   0.300   5.087 -0.0484  0.4214 -0.3125
 5659TIP3    H116983   1.723   0.210   5.113 -2.7732 -0.3959 -0.8010
 5659TIP3    H216984   1.702   0.298   4.992  1.7386  1.4934 -0.4141
 5660TIP3   OH216985   5.794   2.585   2.960  0.3481 -0.3323 -0.2152
 5660TIP3    H116986   5.768   2.656   3.017  1.2587 -0.5831  0.5324
 5660TIP3    H216987   5.720   2.574   2.900 -0.1082  0.7359  0.1281
 5661TIP3   OH216988   1.008   2.326   3.974 -0.2671  0.1717 -0.0107
 5661TIP3    H116989   0.951   2.263   4.018  0.4230  0.5063  1.4281
 5661TIP3    H216990   0.948   2.392   3.940 -0.8973 -0.6182 -0.4744
 5662TIP3   OH216991   2.686   5.935   3.781 -0.2043  0.7057 -0.5489
 5662TIP3    H116992   2.752   5.912   3.715 -0.6730 -1.9438 -0.1722
 5662TIP3    H216993   2.617   5.979   3.731  1.1397  2.2720 -1.1604
 5663TIP3   OH216994   4.202   2.148   1.024 -0.2715  0.1334 -0.3049
 5663TIP3    H116995   4.286   2.194   1.015 -0.5816  0.5867 -0.9176
 5663TIP3    H216996   4.227   2.057   1.045  0.3341  0.6248  1.2445
 5664TIP3   OH216997   3.515   5.071   3.738  0.0594 -0.2264  0.0450
 5664TIP3    H116998   3.611   5.079   3.733  0.1585  1.8261  2.5690
 5664TIP3    H216999   3.488   5.147   3.790 -2.6545 -2.1515  1.7156
 5665TIP3   OH217000   5.265   4.045   2.177 -0.5866 -0.2367  0.4455
 5665TIP3    H117001   5.211   4.118   2.146  0.9160  0.6908 -0.0982
 5665TIP3    H217002   5.222   3.967   2.143 -0.6256  0.5773 -1.4926
 5666TIP3   OH217003   2.444   1.945   1.873  0.0597  0.0770 -0.3658
 5666TIP3    H117004   2.442   1.978   1.783 -1.4784 -1.0417 -0.7756
 5666TIP3    H217005   2.352   1.944   1.900  0.4224 -0.4434  0.9215
 5667TIP3   OH217006   5.554   0.643   0.191  0.2201  0.0940  0.3100
 5667TIP3    H117007   5.487   0.607   0.248  0.0228  1.4234  0.9458
 5667TIP3    H217008   5.535   0.736   0.187 -1.0538 -0.1446 -3.6051
 5668TIP3   OH217009   4.538   5.522   1.787  0.1671 -0.1013 -0.5329
 5668TIP3    H117010   4.462   5.523   1.844  0.3119  0.5297 -0.3418
 5668TIP3    H217011   4.570   5.432   1.791  0.7118  0.1427  1.1164
 5669TIP3   OH217012   3.273   5.648   0.806  0.3968 -0.2212 -0.1799
 5669TIP3    H117013   3.198   5.600   0.772  0.3654  1.3325 -2.5223
 5669TIP3    H217014   3.245   5.740   0.808  1.7953  0.2292  0.1333
 5670TIP3   OH217015   4.607   0.839   4.022 -0.0331 -0.1707  0.3560
 5670TIP3    H117016   4.527   0.830   4.074 -0.5603  1.2223 -0.1658
 5670TIP3    H217017   4.580   0.887   3.945  1.4024  0.7109  0.3675
 5671TIP3   OH217018   4.146   3.164   2.131  0.3425 -0.3786 -0.4928
 5671TIP3    H117019   4.125   3.194   2.220 -0.4440 -1.7350 -0.1967
 5671TIP3    H217020   4.241   3.165   2.127  0.3746  0.0672  0.2392
 5672TIP3   OH217021   4.174   3.465   3.863 -0.1276 -0.1022 -0.3146
 5672TIP3    H117022   4.223   3.441   3.784  0.7247 -1.1252  0.4950
 5672TIP3    H217023   4.197   3.557   3.878  0.3377 -0.1312 -0.8116
 5673TIP3   OH217024   3.997   2.026   3.587  0.1574  0.2758  0.1371
 5673TIP3    H117025   3.998   1.966   3.661  0.1639  0.5370  0.3522
 5673TIP3    H217026   4.086   2.061   3.584  0.3766 -0.3264 -0.4863
 5674TIP3   OH217027   5.996   0.663   1.089 -0.7297 -0.3526 -0.4001
 5674TIP3    H117028   6.027   0.709   1.167 -0.9953  0.6842 -0.8868
 5674TIP3    H217029   5.922   0.715   1.058 -1.9136 -1.8582 -0.2204
 5675TIP3   OH217030   4.063   1.465   1.392  0.5586  0.0617  0.0410
 5675TIP3    H117031   4.137   1.523   1.375  0.8319 -0.9309 -2.5369
 5675TIP3    H217032   3.986   1.514   1.364  0.6211 -0.2034 -0.6048
 5676TIP3   OH217033   0.344   0.519   0.578 -0.6060 -0.2909  0.2035
 5676TIP3    H117034   0.388   0.524   0.663 -0.7623 -0.5218  0.2986
 5676TIP3    H217035   0.407   0.554   0.516  0.1721 -1.6970  0.1605
 5677TIP3   OH217036   3.287   0.627   2.924 -0.2731  0.0898  0.0645
 5677TIP3    H117037   3.221   0.564   2.953  0.7295 -1.4151 -0.7891
 5677TIP3    H217038   3.237   0.704   2.896 -1.5892 -0.6560  0.3055
 5678TIP3   OH217039   5.688   0.261   3.082 -0.2070 -0.3062  0.1267
 5678TIP3    H117040   5.749   0.212   3.137  0.4377 -0.6712 -0.8818
 5678TIP3    H217041   5.743   0.323   3.034 -0.8826  0.6977  0.6195
 5679TIP3   OH217042   0.118   3.613   3.858  0.1940 -0.2132 -0.5751
 5679TIP3    H117043   0.124   3.648   3.947 -0.0788 -2.4773  0.4079
 5679TIP3    H217044   0.085   3.524   3.870 -0.2372 -0.4428 -2.9974
 5680TIP3   OH217045   0.321   2.291   0.989 -0.6857 -0.2919  0.1141
 5680TIP3    H117046   0.330   2.212   0.935  0.6109  0.3594 -0.6705
 5680TIP3    H217047   0.313   2.363   0.926 -1.6629  0.2480  0.8158
 5681TIP3   OH217048   6.145   0.857   3.045 -0.1515 -0.2225  0.2839
 5681TIP3    H117049   6.101   0.796   2.987  2.4468 -0.3846 -1.6773
 5681TIP3    H217050   6.124   0.944   3.009 -0.7984 -0.1526  0.8134
 5682TIP3   OH217051   0.490   2.172   1.167  0.0297 -0.2661  0.7840
 5682TIP3    H117052   0.562   2.220   1.125  0.3814 -1.6746 -0.3145
 5682TIP3    H217053   0.411   2.213   1.133  0.3255 -0.1944  0.1687
 5683TIP3   OH217054   3.100   1.087   3.758 -0.2835 -0.0375 -0.3602
 5683TIP3    H117055   3.127   1.029   3.686 -0.3075  0.4174 -0.7376
 5683TIP3    H217056   3.151   1.057   3.833  2.2316  1.5707 -1.3229
 5684TIP3   OH217057   0.017   3.052   3.663 -0.5967 -0.0393 -0.4297
 5684TIP3    H117058  -0.022   3.015   3.742  0.0852 -0.2031 -0.1674
 5684TIP3    H217059   0.085   3.112   3.695 -1.0778  0.7556 -0.8688
 5685TIP3   OH217060   1.814   5.439   4.091  0.0467 -0.1465  0.3727
 5685TIP3    H117061   1.907   5.425   4.111 -0.4672 -0.0789  3.1973
 5685TIP3    H217062   1.812   5.522   4.043  1.3224  0.8459  1.9323
 5686TIP3   OH217063   3.780   2.000   4.910 -0.0031  0.1740  0.3099
 5686TIP3    H117064   3.773   1.905   4.918  0.0419  0.0366 -1.0196
 5686TIP3    H217065   3.762   2.018   4.818  2.0206  1.2502  0.0472
 5687TIP3   OH217066   2.855   1.881   4.354 -0.5204 -0.8803  0.1762
 5687TIP3    H117067   2.930   1.912   4.304  0.4901 -0.7414  1.6934
 5687TIP3    H217068   2.779   1.922   4.313  0.6504  3.2810  1.6685
 5688TIP3   OH217069   2.431   0.425   4.180  0.1319 -0.4956 -0.1093
 5688TIP3    H117070   2.363   0.358   4.182 -0.9701  0.5847  1.2482
 5688TIP3    H217071   2.397   0.495   4.235  2.2090  0.2530  0.3353
 5689TIP3   OH217072   5.344   1.669   0.042  0.4022  0.8018  0.4224
 5689TIP3    H117073   5.338   1.605  -0.029  1.3432  0.1057  0.9488
 5689TIP3    H217074   5.278   1.734   0.021 -0.5624 -0.3217 -0.1543
 5690TIP3   OH217075   0.168   4.731   4.244  0.2847  0.0677  0.0099
 5690TIP3    H117076   0.226   4.770   4.179  0.3290  1.0120  0.5925
 5690TIP3    H217077   0.207   4.646   4.264 -0.2198 -0.6362 -1.8442
 5691TIP3   OH217078   4.612   4.768   1.864  0.4910 -0.7119  0.0555
 5691TIP3    H117079   4.528   4.723   1.871 -0.3422  0.7373 -0.3072
 5691TIP3    H217080   4.673   4.699   1.835 -0.3332 -2.0005  1.2565
 5692TIP3   OH217081   2.004   3.677   3.072  0.2447  0.1840 -0.4854
 5692TIP3    H117082   2.053   3.726   3.137  0.3659 -1.2199  0.5474
 5692TIP3    H217083   1.915   3.673   3.108  0.0472  0.3343 -0.9552
 5693TIP3   OH217084   3.470   2.126   0.979 -0.1102  0.1811  0.0819
 5693TIP3    H117085   3.407   2.105   1.048  0.5636 -0.3328  0.5526
 5693TIP3    H217086   3.418   2.126   0.898 -0.7063 -0.2963  0.4569
 5694TIP3   OH217087   2.794   5.042   2.103  0.4293 -0.0076 -0.1646
 5694TIP3    H117088   2.864   5.100   2.135  1.3298 -1.5603  0.8308
 5694TIP3    H217089   2.813   4.957   2.144 -1.7675 -0.6140 -0.2803
 5695TIP3   OH217090   1.133   4.077   2.916 -0.1655 -0.4190  0.3433
 5695TIP3    H117091   1.080   4.074   2.837  0.1178  2.0799 -0.0246
 5695TIP3    H217092   1.207   4.018   2.898  0.7864  1.3311 -2.0145
 5696TIP3   OH217093   6.049   0.996   4.924  0.0362 -0.2319  0.3094
 5696TIP3    H117094   5.974   0.950   4.960  0.2466  0.3891  1.5953
 5696TIP3    H217095   6.088   0.934   4.862 -0.9637 -0.9217  0.3517
 5697TIP3   OH217096   4.711   1.822   5.117  0.1169 -0.2136 -0.0833
 5697TIP3    H117097   4.695   1.898   5.172 -0.2525  0.3702 -0.9618
 5697TIP3    H217098   4.715   1.748   5.177  0.4838  0.4991  0.7860
 5698TIP3   OH217099   1.078   2.979   3.563  0.1194  0.4543  0.2607
 5698TIP3    H117100   1.102   3.048   3.500  2.3240 -1.8474 -1.6588
 5698TIP3    H217101   1.001   2.938   3.524  1.8292 -1.3580 -1.4766
 5699TIP3   OH217102   1.132   3.540   1.597 -0.2269 -0.0787 -0.0247
 5699TIP3    H117103   1.049   3.509   1.559 -0.6991  2.1109 -0.9294
 5699TIP3    H217104   1.196   3.526   1.528 -0.4152  0.7801 -0.3850
 5700TIP3   OH217105   3.143   5.967   2.135  0.1698  0.0350  0.0625
 5700TIP3    H117106   3.188   5.934   2.057  1.1803 -2.7341  1.6803
 5700TIP3    H217107   3.120   6.058   2.112 -0.5629 -0.9194 -3.7977
 5701TIP3   OH217108   3.693   5.028   1.513  0.3120  0.0033 -0.5728
 5701TIP3    H117109   3.730   5.090   1.450 -1.6136  2.1286  0.2267
 5701TIP3    H217110   3.692   5.076   1.596 -0.9422 -1.2111  0.1620
 5702TIP3   OH217111   0.525   3.257   3.902  0.5289 -0.0317 -0.1330
 5702TIP3    H117112   0.529   3.276   3.809  0.0336 -0.3714 -0.2328
 5702TIP3    H217113   0.575   3.327   3.944  0.3783  0.3739 -0.6194
 5703TIP3   OH217114   0.933   3.456   0.040 -0.0603 -0.1606  0.5060
 5703TIP3    H117115   0.847   3.451  -0.001  0.1487 -2.3017  0.2018
 5703TIP3    H217116   0.958   3.364   0.053  1.5357  0.4390  1.9396
 5704TIP3   OH217117   5.916   0.269   2.046  0.4678 -0.2948 -0.5896
 5704TIP3    H117118   5.934   0.273   2.140 -0.0570  0.1207 -0.4961
 5704TIP3    H217119   5.898   0.360   2.022 -0.6254 -0.5608 -0.8346
 5705TIP3   OH217120   0.318   0.907   0.522 -0.1451 -0.3651  0.3266
 5705TIP3    H117121   0.321   0.851   0.444  0.0535 -2.1074  1.5335
 5705TIP3    H217122   0.308   0.996   0.487 -0.3439 -1.1165 -1.6648
 5706TIP3   OH217123   3.597   0.277   2.360 -0.1867  0.2036 -0.3270
 5706TIP3    H117124   3.666   0.251   2.421  0.6803  1.7977 -0.5563
 5706TIP3    H217125   3.612   0.223   2.283 -1.0041 -1.4970  0.6571
 5707TIP3   OH217126   0.768   2.210   1.866 -0.4672  0.0143  0.0624
 5707TIP3    H117127   0.828   2.240   1.934 -2.4983  1.1412  1.4885
 5707TIP3    H217128   0.824   2.168   1.801  1.8400  1.1328  1.1999
 5708TIP3   OH217129   2.993   1.554   2.991 -0.6663 -0.0776  0.0894
 5708TIP3    H117130   3.077   1.510   2.997 -1.1773 -1.0916  0.0408
 5708TIP3    H217131   2.960   1.532   2.904 -0.5666  1.1030 -0.2644
 5709TIP3   OH217132   1.143   2.651   0.547  0.1157 -0.5595  0.2854
 5709TIP3    H117133   1.056   2.649   0.588 -0.9569  2.2552 -1.5103
 5709TIP3    H217134   1.128   2.620   0.458  1.6041 -2.7555  0.7254
 5710TIP3   OH217135   1.000   3.005   2.753  0.2352 -0.2290  0.0208
 5710TIP3    H117136   0.932   3.064   2.721  0.3260  0.7742  1.5609
 5710TIP3    H217137   1.039   3.051   2.828  0.9653 -1.8340  0.6834
 5711TIP3   OH217138   4.759   2.417   3.591 -0.2272  0.1660 -0.8303
 5711TIP3    H117139   4.739   2.412   3.498  0.0833 -1.1915 -0.8386
 5711TIP3    H217140   4.732   2.332   3.626  3.4640 -1.0052 -0.4490
 5712TIP3   OH217141   4.698   1.053   4.277  0.3918  0.1594  0.2709
 5712TIP3    H117142   4.701   0.962   4.308  1.1576  0.5340  1.3367
 5712TIP3    H217143   4.738   1.049   4.190 -1.3057 -0.8161 -0.5229
 5713TIP3   OH217144   4.064   3.139   0.503  0.3814  0.1132 -0.3972
 5713TIP3    H117145   4.136   3.100   0.454  0.4019  1.8882 -1.9231
 5713TIP3    H217146   3.986   3.117   0.453  0.1470  0.1619 -0.0561
 5714TIP3   OH217147   5.023   4.966   1.491  0.3895 -0.0553 -0.3291
 5714TIP3    H117148   5.078   4.889   1.476 -0.1944 -0.1628 -2.1505
 5714TIP3    H217149   5.083   5.033   1.523  1.0169 -1.0719  0.6530
 5715TIP3   OH217150   5.540   4.827   2.371 -0.4383 -0.2317 -0.6793
 5715TIP3    H117151   5.477   4.898   2.359 -1.2909 -0.7905  0.2532
 5715TIP3    H217152   5.501   4.772   2.439  0.2231 -1.5735 -1.3488
 5716TIP3   OH217153   1.834   5.229   4.362 -0.1823 -0.2049  0.3771
 5716TIP3    H117154   1.816   5.138   4.339 -0.8440  0.1077 -0.3824
 5716TIP3    H217155   1.837   5.276   4.279 -0.3583  0.5588  0.7840
 5717TIP3   OH217156   2.526   0.651   5.170 -0.3812  0.1542  0.0747
 5717TIP3    H117157   2.520   0.596   5.249  2.7640 -1.8198 -0.8808
 5717TIP3    H217158   2.484   0.599   5.102  0.2854  0.1127 -0.3097
 5718TIP3   OH217159   3.811   1.891   5.213 -0.8662 -0.3477 -0.3630
 5718TIP3    H117160   3.848   1.836   5.144  3.0706  2.4310 -0.8438
 5718TIP3    H217161   3.752   1.950   5.168  1.4201  1.2252 -1.4844
 5719TIP3   OH217162   0.533   5.465   1.996  0.0028  0.7142  0.2654
 5719TIP3    H117163   0.589   5.462   2.074  0.3954  1.1771  0.0100
 5719TIP3    H217164   0.449   5.499   2.027  0.1968  1.0118  0.4696
 5720TIP3   OH217165   1.473   2.473   1.216  0.1162  0.1503 -0.2894
 5720TIP3    H117166   1.424   2.425   1.149 -1.0830  1.3589 -0.3063
 5720TIP3    H217167   1.561   2.482   1.179  0.3174 -1.7989 -0.3846
 5721TIP3   OH217168   1.708   1.233   4.403  0.2058  0.5487 -0.6736
 5721TIP3    H117169   1.771   1.291   4.447 -0.0164 -0.1750  0.6323
 5721TIP3    H217170   1.624   1.253   4.444  0.0083 -0.2099 -0.6935
 5722TIP3   OH217171   4.223   1.418   0.647 -0.0436 -0.0311  0.0593
 5722TIP3    H117172   4.151   1.355   0.654 -0.5342  0.5267  0.1156
 5722TIP3    H217173   4.302   1.364   0.643 -0.3941 -0.6199  0.9262
 5723TIP3   OH217174   2.010   5.157   0.234  0.2870  0.6424 -0.4595
 5723TIP3    H117175   2.105   5.169   0.235  0.4196 -0.1975  1.5027
 5723TIP3    H217176   1.996   5.077   0.183  0.7762 -0.1104  0.5717
 5724TIP3   OH217177   3.603   0.607   2.691  0.0763 -0.4007 -0.3968
 5724TIP3    H117178   3.579   0.694   2.657  0.2277  0.1834  0.9222
 5724TIP3    H217179   3.525   0.554   2.679 -0.2264  0.0910 -0.6467
 5725TIP3   OH217180   4.616   4.882   0.372 -0.6479 -0.5497  0.7925
 5725TIP3    H117181   4.693   4.825   0.375 -0.8629 -0.8958  0.0121
 5725TIP3    H217182   4.548   4.835   0.419 -0.0900  0.2493  2.4724
 5726TIP3   OH217183   1.023   1.543   0.389  0.4127  0.0621 -0.3870
 5726TIP3    H117184   0.948   1.591   0.422 -0.8451 -0.4771 -2.2989
 5726TIP3    H217185   1.098   1.601   0.405 -0.7272  1.6162 -0.4926
 5727TIP3   OH217186   5.881   3.648   0.531 -0.1696  0.5564 -0.4433
 5727TIP3    H117187   5.886   3.638   0.436  1.6186  1.7508 -0.4977
 5727TIP3    H217188   5.866   3.741   0.545 -1.2778  0.2743  0.4673
 5728TIP3   OH217189   2.319   2.759   4.186  0.0369 -0.2348 -0.0914
 5728TIP3    H117190   2.310   2.664   4.196 -0.0063 -0.1622  0.6481
 5728TIP3    H217191   2.355   2.788   4.270 -2.0587  0.6669  0.5651
 5729TIP3   OH217192   3.305   2.217   3.734  0.4659  0.1802  0.7440
 5729TIP3    H117193   3.219   2.186   3.764  0.9919 -2.6019 -0.3057
 5729TIP3    H217194   3.317   2.300   3.779 -2.1420 -0.0304  2.0533
 5730TIP3   OH217195   1.740   0.426   1.614  0.4787 -0.0176  0.1177
 5730TIP3    H117196   1.766   0.475   1.536  1.3550 -1.3120 -0.4463
 5730TIP3    H217197   1.791   0.464   1.685  1.8588 -0.6805 -0.4801
 5731TIP3   OH217198   2.087   0.124   4.527  0.6168 -0.1298  0.0516
 5731TIP3    H117199   2.141   0.073   4.587  2.2886  0.5356 -0.8331
 5731TIP3    H217200   2.056   0.198   4.580 -0.0738 -0.9193  0.7703
 5732TIP3   OH217201   1.621   4.634   1.387 -0.2106  0.1915  0.5089
 5732TIP3    H117202   1.625   4.683   1.305  0.6903 -2.2469 -1.0141
 5732TIP3    H217203   1.661   4.693   1.451  2.7782  0.7543 -1.6458
 5733TIP3   OH217204   3.214   3.048   1.547 -0.5764 -0.2417  0.6511
 5733TIP3    H117205   3.179   3.120   1.600  0.3772  0.6262  0.1356
 5733TIP3    H217206   3.248   2.985   1.611 -0.6205  0.1857  1.0983
 5734TIP3   OH217207   1.180   5.162   1.509  0.1830  0.0342  0.6149
 5734TIP3    H117208   1.164   5.073   1.541 -1.2212  0.0596  0.0498
 5734TIP3    H217209   1.094   5.193   1.481  1.2770 -0.0622 -3.4606
 5735TIP3   OH217210   3.731   0.712   5.053 -0.5561  0.1491 -0.5329
 5735TIP3    H117211   3.697   0.794   5.088 -0.9394 -0.1985 -0.0766
 5735TIP3    H217212   3.825   0.714   5.073 -0.9146 -0.4706  1.4257
 5736TIP3   OH217213   5.356   2.740   3.012  0.1945  0.2657 -0.1300
 5736TIP3    H117214   5.341   2.712   3.102  0.2229  0.3839 -0.0882
 5736TIP3    H217215   5.393   2.828   3.020 -0.4160  0.5439 -0.2740
 5737TIP3   OH217216   4.167   5.925   0.860  0.7006 -0.0053 -0.7180
 5737TIP3    H117217   4.251   5.948   0.821  1.4914 -0.4711  0.6754
 5737TIP3    H217218   4.127   6.009   0.881  0.1098  0.2878 -2.7194
 5738TIP3   OH217219   1.648   1.283   4.144 -0.0679 -0.6320  0.2112
 5738TIP3    H117220   1.686   1.276   4.231  0.1883 -0.0474  0.1529
 5738TIP3    H217221   1.722   1.309   4.088 -0.3912 -0.2597 -0.0451
 5739TIP3   OH217222   4.931   5.358   1.523 -0.3890 -0.2020 -0.0544
 5739TIP3    H117223   4.888   5.285   1.478 -0.4932  0.6354 -1.3624
 5739TIP3    H217224   4.949   5.422   1.454  1.8489  0.0160  0.6307
 5740TIP3   OH217225   6.079   5.434   5.061 -0.3030 -0.2001  0.1071
 5740TIP3    H117226   6.145   5.376   5.098 -0.4434 -0.2049  0.3479
 5740TIP3    H217227   6.055   5.493   5.132 -0.0760  0.2303 -0.1681
 5741TIP3   OH217228   0.446   2.834   3.541  0.2763  0.2168 -0.1223
 5741TIP3    H117229   0.379   2.809   3.478  0.5246 -0.7884 -0.0062
 5741TIP3    H217230   0.397   2.861   3.619 -0.0080  0.0086 -0.2284
 5742TIP3   OH217231   1.243   3.480   4.085  0.5064 -0.4294  0.4187
 5742TIP3    H117232   1.162   3.466   4.135 -0.8943  0.6654 -1.4152
 5742TIP3    H217233   1.236   3.419   4.011  1.3066 -0.2401  0.1745
 5743TIP3   OH217234   4.111   0.342   0.821  0.4473 -0.3478  0.6203
 5743TIP3    H117235   4.072   0.257   0.841 -0.0412  0.0348  1.3533
 5743TIP3    H217236   4.039   0.404   0.833  1.0993  0.2991  1.3256
 5744TIP3   OH217237   1.100   0.848   0.606 -0.4185 -0.3281 -0.3790
 5744TIP3    H117238   1.134   0.839   0.695  1.6484  0.8079 -1.0003
 5744TIP3    H217239   1.065   0.936   0.602 -1.3503 -0.6883 -0.4502
 5745TIP3   OH217240   4.970   3.069   0.857 -0.3492 -0.0900 -0.1187
 5745TIP3    H117241   4.894   3.119   0.887 -0.9229 -0.5869 -0.7417
 5745TIP3    H217242   4.958   3.059   0.763  1.0291  0.7454 -0.4285
 5746TIP3   OH217243   2.156   4.029   2.483 -0.0873 -0.7056  0.0159
 5746TIP3    H117244   2.249   4.030   2.506  0.1937  0.4568 -1.0642
 5746TIP3    H217245   2.112   3.995   2.561  1.4165 -3.5224 -0.2284
 5747TIP3   OH217246   4.526   4.661   2.824  0.0467 -0.4946 -0.2031
 5747TIP3    H117247   4.563   4.608   2.753  1.3859  1.4469 -1.0798
 5747TIP3    H217248   4.593   4.728   2.840 -1.5366  0.9336  0.8017
 5748TIP3   OH217249   4.115   1.297   1.630  0.4273  0.9242  0.0857
 5748TIP3    H117250   4.092   1.349   1.552  0.8243  0.0987 -0.5882
 5748TIP3    H217251   4.118   1.207   1.599 -2.1218  0.2095  1.6302
 5749TIP3   OH217252   2.804   5.509   3.390 -0.4184 -0.4634  0.1875
 5749TIP3    H117253   2.851   5.428   3.371 -1.7664 -0.8441 -1.8215
 5749TIP3    H217254   2.823   5.566   3.316 -0.8600  0.4270  0.7397
 5750TIP3   OH217255   3.339   1.354   3.230  0.3461 -0.1801  0.6096
 5750TIP3    H117256   3.333   1.317   3.318  0.9327 -0.5487  0.5089
 5750TIP3    H217257   3.328   1.278   3.172 -0.6526  0.1549  0.3506
 5751TIP3   OH217258   3.692   1.230   2.085  0.5556 -0.8652 -0.7583
 5751TIP3    H117259   3.753   1.156   2.089 -0.6293 -1.8449  1.5866
 5751TIP3    H217260   3.637   1.219   2.163  0.6006  2.7858 -0.0586
 5752TIP3   OH217261   5.548   3.046   1.849  0.4313 -0.5649  0.0922
 5752TIP3    H117262   5.519   3.119   1.904 -1.5350 -1.9612  1.0465
 5752TIP3    H217263   5.479   3.038   1.783 -0.4059 -2.6896  1.1466
 5753TIP3   OH217264   0.874   0.195   2.136  0.0003  0.9989 -0.6774
 5753TIP3    H117265   0.883   0.206   2.041  1.5866 -0.3189 -0.7422
 5753TIP3    H217266   0.808   0.126   2.146 -0.8466  1.7821 -0.7674
 5754TIP3   OH217267   6.201   3.255   1.582 -0.2776 -0.2177 -0.0789
 5754TIP3    H117268   6.176   3.330   1.528 -1.3920  0.2962  1.1040
 5754TIP3    H217269   6.130   3.192   1.568  0.8847 -1.2889 -1.4344
 5755TIP3   OH217270   2.742   5.977   4.965  0.3598 -0.1044  0.2736
 5755TIP3    H117271   2.779   5.906   5.017  0.5048  0.4013  0.8850
 5755TIP3    H217272   2.810   6.045   4.966 -0.2871  0.5518  0.7970
 5756TIP3   OH217273   3.266   0.756   2.110  0.5194 -0.3574  0.1699
 5756TIP3    H117274   3.171   0.752   2.117  0.4786 -1.7777 -0.8019
 5756TIP3    H217275   3.296   0.669   2.135  1.5062 -0.1427 -0.2188
 5757TIP3   OH217276   4.029   1.888   0.871  0.0321 -0.0435  0.7845
 5757TIP3    H117277   3.999   1.972   0.907  1.0578  1.0003 -0.6442
 5757TIP3    H217278   4.124   1.898   0.866  0.1966 -1.4266  0.8459
 5758TIP3   OH217279   3.262   0.936   5.059 -0.5859 -0.4241  0.3465
 5758TIP3    H117280   3.312   0.854   5.054  0.2855  0.1239  0.0293
 5758TIP3    H217281   3.266   0.973   4.971  0.1308  0.6080  0.7978
 5759TIP3   OH217282   0.698   1.514   4.831 -0.3763 -0.2122 -0.1533
 5759TIP3    H117283   0.671   1.486   4.743 -0.9976 -1.9369  0.5513
 5759TIP3    H217284   0.623   1.562   4.865 -0.7896 -1.0101  0.0680
 5760TIP3   OH217285   4.849   1.077   2.821 -0.7199 -0.2120 -0.5862
 5760TIP3    H117286   4.804   1.022   2.885 -0.3865 -0.1458 -0.2932
 5760TIP3    H217287   4.934   1.036   2.810  0.1489  1.1173  0.8376
 5761TIP3   OH217288   1.871   4.185   1.143  0.7418 -0.3303  0.0252
 5761TIP3    H117289   1.854   4.126   1.069  0.8118 -1.9766  1.2769
 5761TIP3    H217290   1.823   4.266   1.121  0.6750 -0.8126 -1.7492
 5762TIP3   OH217291   1.468   3.841   0.467  0.3413  0.0074  0.9905
 5762TIP3    H117292   1.374   3.834   0.453  0.2399 -1.4007  2.0554
 5762TIP3    H217293   1.485   3.935   0.476 -0.7548  0.3629 -0.3420
 5763TIP3   OH217294   3.802   3.719   3.260  0.1685  0.0894  1.2641
 5763TIP3    H117295   3.815   3.787   3.326  0.4829 -1.1495  2.5240
 5763TIP3    H217296   3.881   3.664   3.266 -0.7711 -1.2924  1.4031
 5764TIP3   OH217297   2.373   4.311   4.686  0.0530 -0.3953  0.4868
 5764TIP3    H117298   2.386   4.225   4.647 -0.6435 -0.5240  0.5265
 5764TIP3    H217299   2.315   4.356   4.625 -2.0763 -1.0255  1.9291
 5765TIP3   OH217300   4.395   3.128   3.713 -0.2164  0.7422  0.7849
 5765TIP3    H117301   4.450   3.180   3.771  1.4233  0.8023 -0.7516
 5765TIP3    H217302   4.356   3.192   3.653 -0.4182  0.4862  0.6412
 5766TIP3   OH217303   4.496   1.959   2.354 -0.4144 -0.0926 -0.1599
 5766TIP3    H117304   4.478   1.906   2.432 -1.6482  1.0847  0.4032
 5766TIP3    H217305   4.520   1.896   2.287 -2.0289 -1.3935  0.4123
 5767TIP3   OH217306   3.642   0.307   3.222 -0.5062 -0.3811  0.1734
 5767TIP3    H117307   3.723   0.318   3.271  0.0626 -0.1235 -0.7891
 5767TIP3    H217308   3.631   0.390   3.175 -0.1910 -1.1541 -1.3277
 5768TIP3   OH217309   5.136   2.040   2.165 -0.3641  1.1381  0.7207
 5768TIP3    H117310   5.156   2.081   2.249 -1.8766 -0.1692  1.7606
 5768TIP3    H217311   5.047   2.005   2.175  0.3725 -1.3160 -0.5190
 5769TIP3   OH217312   2.229   0.919   4.645 -0.3434 -0.0485 -0.2104
 5769TIP3    H117313   2.243   1.011   4.670 -2.7324  0.2450  0.2824
 5769TIP3    H217314   2.252   0.870   4.724  0.8487  0.0948 -0.4431
 5770TIP3   OH217315   1.079   4.488   5.018 -0.0576  0.4570  0.2772
 5770TIP3    H117316   0.994   4.449   5.038  0.6641 -0.0110  2.8011
 5770TIP3    H217317   1.137   4.414   5.003 -0.1379  0.7809 -1.9401
 5771TIP3   OH217318   5.366   2.445   0.262  0.4342 -0.4367  0.7012
 5771TIP3    H117319   5.303   2.495   0.209  0.5339 -1.0484 -0.0068
 5771TIP3    H217320   5.389   2.370   0.208  0.0121 -1.4627  1.8920
 5772TIP3   OH217321   3.095   1.129   4.781  0.0623  0.5179  0.1255
 5772TIP3    H117322   3.189   1.136   4.802 -0.5642  3.1286  2.7563
 5772TIP3    H217323   3.083   1.185   4.705  0.9146 -1.7870 -1.8457
 5773TIP3   OH217324   6.237   5.013   1.752  0.2210  0.2092 -0.9177
 5773TIP3    H117325   6.270   4.960   1.825  1.5252  0.0544 -1.5820
 5773TIP3    H217326   6.173   5.071   1.792  1.9133  1.1171  0.6480
 5774TIP3   OH217327   0.579   0.075   2.313  0.4448  0.1749 -0.0097
 5774TIP3    H117328   0.540   0.094   2.228  2.2864  0.2710 -0.8728
 5774TIP3    H217329   0.583  -0.021   2.317  0.3888  0.1710 -0.0401
 5775TIP3   OH217330   5.353   5.273   0.187 -0.0992  0.3489  0.4707
 5775TIP3    H117331   5.324   5.250   0.276 -2.1622 -0.9231 -0.4678
 5775TIP3    H217332   5.290   5.338   0.157  0.1997  0.2907 -0.3010
 5776TIP3   OH217333   1.995   3.530   0.239  0.2226  0.1633 -0.0541
 5776TIP3    H117334   2.076   3.567   0.204  0.7640 -0.1300  0.8518
 5776TIP3    H217335   2.024   3.459   0.296 -0.6208  0.5991  0.9444
 5777TIP3   OH217336   0.865   3.755   4.377 -0.0543 -0.1257  0.2219
 5777TIP3    H117337   0.800   3.746   4.308 -0.4444  1.1289  0.4160
 5777TIP3    H217338   0.825   3.713   4.454  0.1148 -0.9332 -0.1147
 5778TIP3   OH217339   1.745   1.983   2.176  0.0530  0.4443 -0.3141
 5778TIP3    H117340   1.731   2.076   2.196 -1.3033 -0.1837  2.0945
 5778TIP3    H217341   1.669   1.939   2.215  0.7737 -1.7123 -1.2097
 5779TIP3   OH217342   1.400   1.571   0.605  0.4447 -0.3662 -0.1944
 5779TIP3    H117343   1.470   1.609   0.552  0.7636  0.0741  0.5427
 5779TIP3    H217344   1.441   1.550   0.689  0.3808 -2.7009 -0.6698
 5780TIP3   OH217345   3.126   4.810   2.005  0.4016  0.3471  0.3431
 5780TIP3    H117346   3.122   4.738   1.941 -1.3592  0.6345  0.0833
 5780TIP3    H217347   3.113   4.889   1.952 -0.1692  0.6563  0.9379
 5781TIP3   OH217348   5.552   1.344   4.096 -0.2165  0.5633  0.1927
 5781TIP3    H117349   5.584   1.298   4.174  0.3659 -1.8704 -1.3669
 5781TIP3    H217350   5.536   1.433   4.126  0.5512 -0.1175  2.9412
 5782TIP3   OH217351   5.571   3.361   1.261 -0.2242  0.6213  0.1492
 5782TIP3    H117352   5.479   3.336   1.270 -0.4576  1.3671 -0.1050
 5782TIP3    H217353   5.585   3.368   1.167  0.0827  0.5717  0.1886
 5783TIP3   OH217354   1.758   0.023   0.825 -0.0134  0.5888 -0.5016
 5783TIP3    H117355   1.790  -0.004   0.911 -1.8559 -0.2017 -0.0119
 5783TIP3    H217356   1.755   0.119   0.829  1.3760  0.6357 -0.2604
 5784TIP3   OH217357   2.531   4.542   1.849 -0.1335 -0.3665  0.2446
 5784TIP3    H117358   2.474   4.612   1.815  0.3833 -0.8753 -1.8355
 5784TIP3    H217359   2.576   4.581   1.924 -2.4416  0.3676  1.3462
 5785TIP3   OH217360   3.637   3.823   3.644  0.0591 -0.1384  0.1326
 5785TIP3    H117361   3.673   3.873   3.718 -2.4256  1.8342  0.1231
 5785TIP3    H217362   3.640   3.732   3.674  0.4428  0.4645  2.1096
 5786TIP3   OH217363   3.392   4.584   2.536  0.0663  0.2749 -0.8273
 5786TIP3    H117364   3.311   4.616   2.496 -0.4640  0.2351  0.1637
 5786TIP3    H217365   3.365   4.506   2.584  0.6647  0.3363 -0.3749
 5787TIP3   OH217366   1.623   4.263   3.569 -0.0120 -0.3711 -0.1499
 5787TIP3    H117367   1.719   4.261   3.571  0.0184  0.3812 -0.6443
 5787TIP3    H217368   1.601   4.343   3.521 -0.9067  0.4789  1.5484
 5788TIP3   OH217369   0.456   4.695   1.027 -0.0923  0.1753 -0.0935
 5788TIP3    H117370   0.396   4.753   1.074  0.4599  1.0792 -0.4894
 5788TIP3    H217371   0.431   4.704   0.935  0.7597  0.6823 -0.2758
 5789TIP3   OH217372   1.562   3.411   2.656  0.0661 -0.1586  0.1485
 5789TIP3    H117373   1.617   3.489   2.670  1.3919 -1.0155 -0.1332
 5789TIP3    H217374   1.516   3.430   2.574  1.1445 -0.0696 -0.4643
 5790TIP3   OH217375   5.661   3.625   1.326 -0.3274  0.2965 -0.4262
 5790TIP3    H117376   5.578   3.672   1.327 -1.1143 -1.0616 -0.3084
 5790TIP3    H217377   5.640   3.537   1.355  1.5045  0.4613  1.6822
 5791TIP3   OH217378   4.040   1.783   3.766 -0.3647  0.5060  0.7266
 5791TIP3    H117379   4.096   1.727   3.713  1.4258  0.9533  2.0394
 5791TIP3    H217380   3.957   1.736   3.773  0.2858 -0.8081 -0.1910
 5792TIP3   OH217381   0.558   3.188   4.558  0.6433  0.6599  0.1428
 5792TIP3    H117382   0.496   3.235   4.502  0.1714  0.8831  0.8342
 5792TIP3    H217383   0.607   3.132   4.498 -0.5976  0.0747 -0.3613
 5793TIP3   OH217384   5.758   5.498   2.912  0.5119 -0.2943 -0.3672
 5793TIP3    H117385   5.710   5.416   2.929 -1.8172  0.7120 -1.5391
 5793TIP3    H217386   5.812   5.511   2.990  0.1772 -2.4152  0.2898
 5794TIP3   OH217387   2.705   4.380   0.902 -0.2310 -0.2181 -0.1042
 5794TIP3    H117388   2.718   4.369   0.996  1.7503  0.1190 -0.3097
 5794TIP3    H217389   2.678   4.293   0.871 -3.1731  0.1576  1.0441
 5795TIP3   OH217390   4.695   5.403   2.520 -0.5266 -0.0431 -0.4762
 5795TIP3    H117391   4.733   5.489   2.542  0.3721 -0.4551 -0.3527
 5795TIP3    H217392   4.728   5.345   2.588 -1.3501 -0.4373 -0.4099
 5796TIP3   OH217393   2.178   3.664   0.104 -0.0349 -0.1459 -0.4251
 5796TIP3    H117394   2.246   3.647   0.038  0.1775 -0.3105 -0.1668
 5796TIP3    H217395   2.176   3.759   0.112  1.4794 -0.1762  0.8947
 5797TIP3   OH217396   0.736   4.103   3.590 -0.3442 -0.6358 -0.8176
 5797TIP3    H117397   0.807   4.133   3.647 -1.4890 -1.4855  1.1501
 5797TIP3    H217398   0.756   4.141   3.505  1.4938  0.6289  0.1164
 5798TIP3   OH217399   3.887   1.922   1.356 -0.5722  0.3421 -0.0332
 5798TIP3    H117400   3.847   1.851   1.405 -0.4546  0.0454 -0.3675
 5798TIP3    H217401   3.869   1.902   1.264  0.1723  0.3035 -0.1765
 5799TIP3   OH217402   3.675   1.484   5.118 -0.2537 -0.0594  0.2394
 5799TIP3    H117403   3.615   1.454   5.050 -2.8964  0.3887  2.1899
 5799TIP3    H217404   3.693   1.406   5.171  0.7523 -0.1475 -0.2197
 5800TIP3   OH217405   4.938   3.604   3.192 -0.2756 -0.8157 -0.0055
 5800TIP3    H117406   5.005   3.648   3.140  1.0062 -2.2913  0.3401
 5800TIP3    H217407   4.949   3.638   3.280  0.4290 -1.4950  0.1735
 5801TIP3   OH217408   2.019   5.715   4.362 -0.0737  0.2935 -0.0333
 5801TIP3    H117409   2.032   5.732   4.269  1.0134 -0.9217 -0.1311
 5801TIP3    H217410   1.991   5.623   4.366 -0.0196  0.3060  0.8450
 5802TIP3   OH217411   1.391   1.472   1.077  0.0743  0.5303  0.0315
 5802TIP3    H117412   1.397   1.501   1.168  0.6054 -0.0881  0.1969
 5802TIP3    H217413   1.297   1.476   1.057  0.1001  2.3072  0.0527
 5803TIP3   OH217414   3.463   3.875   2.223  0.1765  0.3424 -0.0667
 5803TIP3    H117415   3.372   3.848   2.212 -0.4840  1.4156  2.0930
 5803TIP3    H217416   3.473   3.951   2.167 -0.5357  0.7323  0.3279
 5804TIP3   OH217417   4.805   4.591   2.610  0.0710  0.4377 -0.8415
 5804TIP3    H117418   4.790   4.502   2.641  0.3944  0.0362 -1.7962
 5804TIP3    H217419   4.900   4.604   2.621 -0.1330  1.0533  0.2792
 5805TIP3   OH217420   5.073   2.548   3.941  0.0725 -0.2219  0.0950
 5805TIP3    H117421   5.103   2.638   3.954  0.4055 -0.0748 -1.4184
 5805TIP3    H217422   5.108   2.499   4.015 -0.0732  0.8767  0.9126
 5806TIP3   OH217423   3.361   0.325   3.475 -0.6169  0.4910  0.3342
 5806TIP3    H117424   3.352   0.256   3.410  3.5687  0.4774 -0.5049
 5806TIP3    H217425   3.443   0.306   3.519 -1.0252  3.0809  2.4699
 5807TIP3   OH217426   1.055   1.997   0.206 -0.0018  0.2551  0.0206
 5807TIP3    H117427   0.994   1.929   0.233  1.4796 -0.5352  1.6475
 5807TIP3    H217428   1.056   1.993   0.111 -1.6924 -0.3743 -0.0002
 5808TIP3   OH217429   5.660   5.818   4.624  0.1573  0.6398 -0.5918
 5808TIP3    H117430   5.613   5.867   4.556 -1.7034  0.6619  0.6113
 5808TIP3    H217431   5.617   5.732   4.624  0.3905  0.5182  0.2747
 5809TIP3   OH217432   3.477   4.641   2.800  0.1802  0.0475 -0.3182
 5809TIP3    H117433   3.452   4.729   2.830 -0.4179  0.7620 -2.6669
 5809TIP3    H217434   3.467   4.645   2.705  0.7801 -2.3953 -0.5436
 5810TIP3   OH217435   3.746   0.892   4.826 -0.6458  0.0533  0.0113
 5810TIP3    H117436   3.841   0.878   4.837 -0.4306  1.4576  0.1477
 5810TIP3    H217437   3.706   0.828   4.885  0.1989 -0.9001 -0.4199
 5811TIP3   OH217438   3.818   1.188   1.775 -0.0564  0.4694  0.1757
 5811TIP3    H117439   3.786   1.143   1.854 -0.0022 -1.2902 -0.7435
 5811TIP3    H217440   3.852   1.117   1.720 -1.8412  1.3476 -2.2567
 5812TIP3   OH217441   3.225   1.883   4.891  0.5076  0.1361  0.3310
 5812TIP3    H117442   3.168   1.834   4.951 -0.6804 -1.6501 -2.0352
 5812TIP3    H217443   3.313   1.872   4.926 -0.0809 -1.3257  1.4442
 5813TIP3   OH217444   0.755   3.955   2.062  0.1714 -0.1341 -0.0791
 5813TIP3    H117445   0.707   3.875   2.041 -0.2016 -0.0449  0.4137
 5813TIP3    H217446   0.757   3.957   2.158  0.1536  0.4591 -0.0900
 5814TIP3   OH217447   5.040   1.244   4.498  0.3530  0.2559  0.7135
 5814TIP3    H117448   5.076   1.190   4.428 -0.4810 -0.8139  1.0813
 5814TIP3    H217449   5.052   1.192   4.577 -0.8027  0.4379  1.0289
 5815TIP3   OH217450   3.803   5.791   1.644  0.4029  0.3242 -0.8323
 5815TIP3    H117451   3.880   5.812   1.697  0.0831 -0.7959  0.1028
 5815TIP3    H217452   3.838   5.752   1.564  0.8511  1.2702 -1.1183
 5816TIP3   OH217453   3.987   5.290   3.954  0.4896 -0.4671  0.1006
 5816TIP3    H117454   4.025   5.293   3.866 -1.0945 -1.1754 -0.6317
 5816TIP3    H217455   3.910   5.346   3.949  0.1218 -0.8837  0.9193
 5817TIP3   OH217456   5.369   1.310   1.031  0.1470 -0.1543 -0.4379
 5817TIP3    H117457   5.299   1.305   0.967  0.2207  0.7367 -0.6004
 5817TIP3    H217458   5.445   1.340   0.982  0.4809 -0.4724 -0.1325
 5818TIP3   OH217459   0.631   2.052   2.834  0.5138 -0.1022  0.1260
 5818TIP3    H117460   0.565   1.994   2.872  2.1973 -1.9229  0.4790
 5818TIP3    H217461   0.713   2.025   2.877  1.2718  3.2929  1.0780
 5819TIP3   OH217462   2.578   4.739   0.010  0.0785 -0.0801  0.0926
 5819TIP3    H117463   2.555   4.774   0.096  0.3119  1.2066 -0.3451
 5819TIP3    H217464   2.516   4.781  -0.050  1.0123  0.3512 -0.5789
 5820TIP3   OH217465   1.030   1.248   4.098  0.7905  0.3283  0.0239
 5820TIP3    H117466   1.014   1.241   4.192  0.8614  0.1376  0.0225
 5820TIP3    H217467   0.966   1.312   4.067  1.1099  0.7842  0.2888
 5821TIP3   OH217468   1.608   1.419   4.861 -0.5492 -0.4113  0.2801
 5821TIP3    H117469   1.628   1.443   4.771 -0.1216 -0.0452  0.4717
 5821TIP3    H217470   1.676   1.462   4.914 -1.5933  0.5454  0.8995
 5822TIP3   OH217471   4.535   1.998   3.167 -0.2925 -0.0133  0.4694
 5822TIP3    H117472   4.622   2.038   3.171  0.5683 -1.4861 -1.6157
 5822TIP3    H217473   4.535   1.933   3.237  0.3354 -0.0626  0.4314
 5823TIP3   OH217474   0.307   3.148   2.127  0.3525 -0.4307 -0.2811
 5823TIP3    H117475   0.366   3.097   2.183 -0.1002 -0.7014 -0.0438
 5823TIP3    H217476   0.267   3.083   2.069 -0.6483 -0.4483  0.3911
 5824TIP3   OH217477   4.871   2.008   2.170 -0.0704 -0.1836 -0.2643
 5824TIP3    H117478   4.847   2.079   2.229  0.2559 -1.6815  1.7831
 5824TIP3    H217479   4.787   1.971   2.142 -0.2192  0.2306 -0.3769
 5825TIP3   OH217480   1.888   2.790   3.840  0.3019 -0.3680 -0.0827
 5825TIP3    H117481   1.862   2.864   3.784  1.6578  0.0365 -0.2095
 5825TIP3    H217482   1.948   2.739   3.786  2.8452  0.8470  1.4307
 5826TIP3   OH217483   3.928   3.550   1.461  0.4809 -0.0381 -0.4350
 5826TIP3    H117484   3.845   3.594   1.445  1.8431  3.4075  0.7841
 5826TIP3    H217485   3.989   3.590   1.399  1.7475 -0.5670  0.4078
 5827TIP3   OH217486   1.297   3.554   2.081  0.5031 -0.2993 -0.2082
 5827TIP3    H117487   1.261   3.596   2.003 -0.8875 -0.3328  0.3722
 5827TIP3    H217488   1.335   3.625   2.132 -1.8701  0.3628  0.7899
 5828TIP3   OH217489   0.371   3.138   2.559 -0.8094  0.7601  0.0577
 5828TIP3    H117490   0.438   3.105   2.619 -1.3244 -0.3478  0.0563
 5828TIP3    H217491   0.310   3.186   2.615 -0.8040  0.5023  0.2869
 5829TIP3   OH217492   4.707   3.439   1.631 -0.2510 -0.6195 -0.5523
 5829TIP3    H117493   4.743   3.510   1.578  1.0356 -0.7240  0.1388
 5829TIP3    H217494   4.675   3.375   1.567  0.7187 -0.4703 -1.2146
 5830TIP3   OH217495   4.057   3.316   4.596  0.4533  0.3411  0.2676
 5830TIP3    H117496   4.126   3.349   4.539  0.0034  1.9668  0.6049
 5830TIP3    H217497   3.975   3.349   4.558 -0.0455 -0.5681  0.5191
 5831TIP3   OH217498   5.732   2.300   4.399 -0.0447 -0.0584 -0.5419
 5831TIP3    H117499   5.764   2.269   4.484  1.7613 -2.7526 -2.0502
 5831TIP3    H217500   5.648   2.341   4.418  0.6041  0.0459  2.6002
 5832TIP3   OH217501   0.927   1.199   1.156 -0.1770 -0.4484  0.0452
 5832TIP3    H117502   0.992   1.242   1.211 -0.1053  0.9906 -1.0990
 5832TIP3    H217503   0.902   1.120   1.205  1.7934 -0.6049  0.8890
 5833TIP3   OH217504   4.679   1.728   4.595 -0.0555  0.4347 -0.2978
 5833TIP3    H117505   4.773   1.712   4.591  0.0140  0.5051  0.8832
 5833TIP3    H217506   4.642   1.647   4.631 -0.6705 -0.2939 -2.4010
 5834TIP3   OH217507   2.818   4.635   2.468  0.6505 -0.0425 -0.0295
 5834TIP3    H117508   2.773   4.701   2.416  0.0224 -0.1025  0.4330
 5834TIP3    H217509   2.752   4.567   2.484  1.5591 -1.3458 -1.4279
 5835TIP3   OH217510   6.053   4.307   2.883 -0.4518  0.2195 -0.2546
 5835TIP3    H117511   6.068   4.402   2.884  3.0254 -0.1602 -1.6666
 5835TIP3    H217512   6.021   4.289   2.795 -2.0132  0.1264  0.3060
 5836TIP3   OH217513   3.782   5.182   2.321 -0.1542  0.2445  0.1412
 5836TIP3    H117514   3.796   5.262   2.371 -0.8131  0.4594  0.0068
 5836TIP3    H217515   3.734   5.211   2.243  1.2062 -0.0164 -0.8357
 5837TIP3   OH217516   2.762   4.021   2.780  0.0353  0.0394 -0.3221
 5837TIP3    H117517   2.733   3.975   2.701  1.4388 -1.8140  0.1743
 5837TIP3    H217518   2.799   4.104   2.748  0.5683 -0.6779 -1.6331
 5838TIP3   OH217519   5.931   1.252   4.876 -0.0124 -0.1641  0.2119
 5838TIP3    H117520   5.928   1.262   4.971  1.3489  1.3190  0.1426
 5838TIP3    H217521   5.976   1.168   4.862  0.3517 -0.0868  0.8770
 5839TIP3   OH217522   1.913   5.701   0.635  0.2166  0.1040  0.2543
 5839TIP3    H117523   1.956   5.752   0.565 -1.0182  1.1745  0.2326
 5839TIP3    H217524   1.887   5.620   0.592  0.4886  0.2639 -0.2293
 5840TIP3   OH217525   5.226   4.877   2.671 -0.0216  0.0209 -0.0036
 5840TIP3    H117526   5.277   4.957   2.678 -2.2816  1.7522 -1.6805
 5840TIP3    H217527   5.234   4.851   2.579  0.1822 -1.3612  0.3729
 5841TIP3   OH217528   6.129   3.195   3.156  0.4411 -0.3724 -0.2452
 5841TIP3    H117529   6.182   3.228   3.229 -2.3855 -0.8361  2.1733
 5841TIP3    H217530   6.117   3.271   3.099  1.0790  0.5207  0.7736
 5842TIP3   OH217531   5.267   3.167   4.024  0.0477  0.4245  0.6249
 5842TIP3    H117532   5.305   3.115   3.953 -0.6136  1.0169 -0.1848
 5842TIP3    H217533   5.232   3.102   4.085  1.2855 -0.1081  0.8093
 5843TIP3   OH217534   4.301   0.932   1.647  0.2494 -0.1581  0.1212
 5843TIP3    H117535   4.375   0.911   1.590 -0.0855 -0.3255 -0.2571
 5843TIP3    H217536   4.234   0.965   1.587 -0.1958 -0.5663  0.3955
 5844TIP3   OH217537   0.949   3.821   4.810  0.1508 -0.2334  0.1336
 5844TIP3    H117538   1.014   3.752   4.827  0.4090  0.0758  0.4167
 5844TIP3    H217539   0.962   3.843   4.718  2.4938  1.8654  0.8541
 5845TIP3   OH217540   0.417   0.100   4.336  0.7708  0.0210 -0.0479
 5845TIP3    H117541   0.393   0.019   4.380  1.4015 -1.0826 -1.6217
 5845TIP3    H217542   0.509   0.087   4.310  0.5376  0.7270 -1.3368
 5846TIP3   OH217543   2.944   1.870   4.747  0.2717 -0.6771 -0.2091
 5846TIP3    H117544   2.930   1.803   4.680  1.7393  0.8793 -2.1993
 5846TIP3    H217545   3.035   1.858   4.773 -0.0969 -0.8310  1.0872
 5847TIP3   OH217546   1.192   2.297   4.781 -0.2399 -0.3884  0.2509
 5847TIP3    H117547   1.241   2.257   4.853 -1.2776  0.1272  1.2822
 5847TIP3    H217548   1.182   2.389   4.808  0.3031  0.0881 -1.0876
 5848TIP3   OH217549   5.955   5.255   0.531 -0.5441  0.3966  0.1552
 5848TIP3    H117550   5.965   5.175   0.479 -0.8151 -0.8351  1.9010
 5848TIP3    H217551   6.025   5.312   0.501 -1.3979  0.2698 -2.3746
 5849TIP3   OH217552   6.364   0.999   1.698  0.1892 -0.0152  0.1930
 5849TIP3    H117553   6.272   0.980   1.719  0.3476 -0.7238  0.2785
 5849TIP3    H217554   6.361   1.049   1.617 -0.1802 -1.9300 -1.0261
 5850TIP3   OH217555   2.488   3.400   3.608  0.5993  0.3193  0.3397
 5850TIP3    H117556   2.442   3.341   3.548  0.7850  0.0152  0.4957
 5850TIP3    H217557   2.572   3.357   3.624  0.2285 -0.0210  1.4751
 5851TIP3   OH217558   1.526   1.016   3.774  0.5431  0.1390  0.5524
 5851TIP3    H117559   1.519   1.079   3.845 -1.5589  0.6125 -0.0264
 5851TIP3    H217560   1.460   0.950   3.794  0.6741 -0.2969 -0.4057
 5852TIP3   OH217561   4.179   1.028   0.568 -0.5479  0.0852  0.4766
 5852TIP3    H117562   4.202   0.942   0.604  1.4898  0.8319  1.1094
 5852TIP3    H217563   4.198   1.089   0.639  2.1790  1.4695 -1.2963
 5853TIP3   OH217564   2.340   3.480   1.987 -0.0815 -1.0103  0.2375
 5853TIP3    H117565   2.397   3.462   2.062  0.7617 -2.0894 -0.6231
 5853TIP3    H217566   2.399   3.475   1.912 -0.8041  0.5998 -0.4711
 5854TIP3   OH217567   4.927   3.742   2.532 -0.1016 -0.0975  0.0397
 5854TIP3    H117568   4.962   3.821   2.490  2.3777 -0.9071  0.4187
 5854TIP3    H217569   4.934   3.674   2.464  0.8947 -0.6903  0.7089
 5855TIP3   OH217570   5.604   3.681   0.146 -0.3009  0.2839 -0.4128
 5855TIP3    H117571   5.529   3.686   0.206 -0.7182  1.8343 -1.0222
 5855TIP3    H217572   5.576   3.619   0.079 -1.0941  0.9123 -0.6821
 5856TIP3   OH217573   5.446   5.846   2.329 -0.0422  0.2868 -0.2773
 5856TIP3    H117574   5.459   5.764   2.282 -0.5605  0.8156 -1.3962
 5856TIP3    H217575   5.443   5.821   2.421  0.6154 -0.8388 -0.5433
 5857TIP3   OH217576   4.231   5.502   0.028 -0.0428  0.2043 -0.1861
 5857TIP3    H117577   4.238   5.579  -0.028  0.0396  0.7996  0.6271
 5857TIP3    H217578   4.165   5.525   0.094  1.2942  0.3152  1.1828
 5858TIP3   OH217579   0.086   4.899   4.798 -0.3154  0.3158 -0.2216
 5858TIP3    H117580   0.051   4.892   4.709 -0.4763  0.2363 -0.1546
 5858TIP3    H217581   0.181   4.898   4.787 -0.3341  0.7991 -0.4259
 5859TIP3   OH217582   5.037   4.640   2.924  0.6391 -0.2770 -0.1540
 5859TIP3    H117583   5.043   4.605   3.013  0.3088  0.3152  0.1033
 5859TIP3    H217584   5.006   4.566   2.871  0.8620 -0.6364  0.2131
 5860TIP3   OH217585   4.557   5.761   0.228 -0.6852 -0.6893  0.0367
 5860TIP3    H117586   4.629   5.808   0.186  2.0956 -2.2482  2.7334
 5860TIP3    H217587   4.553   5.677   0.182 -0.5159 -0.7540  0.1401
 5861TIP3   OH217588   5.047   1.834   3.638 -0.3132 -0.1850 -0.0628
 5861TIP3    H117589   4.965   1.835   3.688 -0.2314 -0.1540  0.0720
 5861TIP3    H217590   5.104   1.774   3.688  0.0798  0.5455  0.3774
 5862TIP3   OH217591   2.156   0.888   3.699 -0.1106  0.0454 -0.1343
 5862TIP3    H117592   2.072   0.916   3.734 -0.1615 -0.1869 -0.0703
 5862TIP3    H217593   2.174   0.949   3.627  0.3440  0.9837  0.7499
 5863TIP3   OH217594   0.406   0.307   3.526  0.2905 -0.2916 -0.2268
 5863TIP3    H117595   0.442   0.227   3.486 -0.4536 -0.1127 -1.2981
 5863TIP3    H217596   0.462   0.377   3.495  0.1500 -0.2406 -0.3669
 5864TIP3   OH217597   2.779   3.191   1.867 -0.4665 -0.0836  0.0196
 5864TIP3    H117598   2.693   3.150   1.879  0.5756 -2.4780 -0.2074
 5864TIP3    H217599   2.810   3.206   1.956 -1.1682  0.9528  0.1035
 5865TIP3   OH217600   0.411   4.375   3.698 -0.3305  0.0533 -0.0123
 5865TIP3    H117601   0.449   4.449   3.650 -0.9176 -0.4283 -1.2580
 5865TIP3    H217602   0.484   4.337   3.745 -0.1077  1.7566  1.1311
 5866TIP3   OH217603   0.482   1.616   0.788  0.4774 -0.0111 -0.0465
 5866TIP3    H117604   0.442   1.564   0.858 -1.0240  1.1083 -0.0376
 5866TIP3    H217605   0.509   1.550   0.723 -1.0342 -0.8560  0.1300
 5867TIP3   OH217606   6.004   4.781   1.044  0.9512  0.0378 -0.0548
 5867TIP3    H117607   5.942   4.797   0.973  2.2556 -1.3378 -1.5826
 5867TIP3    H217608   6.052   4.863   1.052 -1.3804  1.3735  1.6159
 5868TIP3   OH217609   5.523   4.960   0.926 -0.0251 -0.0204  0.7919
 5868TIP3    H117610   5.541   4.930   1.015  0.5736 -3.9763 -0.4835
 5868TIP3    H217611   5.428   4.957   0.917 -0.0311 -0.5724  1.0273
 5869TIP3   OH217612   6.147   5.671   4.942 -0.2574  0.5424 -0.8669
 5869TIP3    H117613   6.115   5.584   4.966 -0.2945  0.6821 -0.4171
 5869TIP3    H217614   6.174   5.661   4.850 -2.5779  0.6842 -1.6438
 5870TIP3   OH217615   2.200   4.513   5.163 -0.2153 -0.2500  0.4737
 5870TIP3    H117616   2.180   4.595   5.117  0.7449  0.5389  1.3835
 5870TIP3    H217617   2.259   4.466   5.104  0.5954  0.5215  0.6322
 5871TIP3   OH217618   5.022   0.761   1.098 -0.5746  0.2565  0.6862
 5871TIP3    H117619   4.957   0.722   1.041  0.6917  1.7446 -1.9631
 5871TIP3    H217620   5.089   0.693   1.109  0.7375  0.8776 -2.3938
 5872TIP3   OH217621   0.307   2.559   4.482  0.1336  0.5584 -0.1771
 5872TIP3    H117622   0.291   2.600   4.567  0.8778  2.1209 -0.7477
 5872TIP3    H217623   0.395   2.588   4.457  0.8008 -1.5975 -0.5468
 5873TIP3   OH217624   4.985   2.651   3.001  0.0017  0.0880 -0.4488
 5873TIP3    H117625   4.894   2.680   2.987 -0.6582 -1.1371  1.0183
 5873TIP3    H217626   5.021   2.716   3.062  0.4258  1.0553 -1.6756
 5874TIP3   OH217627   2.339   4.236   1.618 -0.4622 -0.4732  0.0755
 5874TIP3    H117628   2.317   4.323   1.651 -1.0563  0.1069 -1.7690
 5874TIP3    H217629   2.370   4.189   1.696  1.5116  1.8815  0.8701
 5875TIP3   OH217630   3.414   0.498   2.290  0.5720 -0.0012  0.3457
 5875TIP3    H117631   3.470   0.423   2.272 -2.5549 -1.9199 -2.6731
 5875TIP3    H217632   3.349   0.465   2.352 -0.1178  0.6234 -0.0374
 5876TIP3   OH217633   5.836   3.359   2.757 -0.5415  0.4303  0.2511
 5876TIP3    H117634   5.770   3.391   2.696  0.6486  0.8131 -0.8744
 5876TIP3    H217635   5.864   3.437   2.806 -0.0565  0.4926 -0.1248
 5877TIP3   OH217636   5.058   0.063   1.831  0.7605 -0.9144 -0.6970
 5877TIP3    H117637   5.117   0.100   1.896  0.2688 -0.4351 -0.5110
 5877TIP3    H217638   4.970   0.083   1.864  0.4948  0.6008 -2.1901
 5878TIP3   OH217639   2.325   1.043   2.798 -0.4562 -0.6799  0.0682
 5878TIP3    H117640   2.390   1.073   2.862  0.4979 -1.8871 -0.3092
 5878TIP3    H217641   2.244   1.033   2.850 -0.0485 -0.3038  0.7923
 5879TIP3   OH217642   2.344   4.776   0.729  0.0994  0.0393  0.1957
 5879TIP3    H117643   2.345   4.816   0.642  0.1665 -0.4626 -0.0391
 5879TIP3    H217644   2.436   4.764   0.751  0.1367 -3.1360 -1.2332
 5880TIP3   OH217645   2.282   3.885   1.141  0.3095 -0.0884 -0.0807
 5880TIP3    H117646   2.216   3.927   1.197  0.5314 -1.4368  1.2895
 5880TIP3    H217647   2.357   3.871   1.200  0.6344 -1.3647 -0.7685
 5881TIP3   OH217648   1.026   4.274   1.004  0.1283  0.4800  0.4935
 5881TIP3    H117649   0.949   4.250   1.056  1.7664 -1.5223  2.1917
 5881TIP3    H217650   1.088   4.310   1.068  1.9867 -1.4745 -0.0774
 5882TIP3   OH217651   5.827   1.901   0.509 -0.6807  0.3083  0.4060
 5882TIP3    H117652   5.737   1.870   0.509 -0.3213 -0.8502 -0.9909
 5882TIP3    H217653   5.874   1.840   0.452  1.3365 -0.0939  2.3383
 5883TIP3   OH217654   1.893   2.311   0.956  0.4717  0.2692 -0.0096
 5883TIP3    H117655   1.812   2.350   0.923 -0.3117 -1.7710 -0.6501
 5883TIP3    H217656   1.958   2.328   0.888 -0.6976 -2.3635 -1.9827
 5884TIP3   OH217657   5.347   5.368   0.862  0.1500  0.0403 -0.1176
 5884TIP3    H117658   5.431   5.411   0.847  0.0833 -0.0143 -0.6540
 5884TIP3    H217659   5.363   5.276   0.839  0.5200 -0.4268  1.7865
 5885TIP3   OH217660   3.664   5.806   4.651 -0.2027 -0.0447 -0.6536
 5885TIP3    H117661   3.677   5.821   4.744 -0.9238  1.2085 -0.7317
 5885TIP3    H217662   3.731   5.861   4.608 -0.8484  0.5803 -0.8876
 5886TIP3   OH217663   0.469   4.195   0.900  0.3848  0.1201 -0.3449
 5886TIP3    H117664   0.390   4.238   0.867 -0.7836 -2.2606 -0.9067
 5886TIP3    H217665   0.539   4.259   0.886 -1.4995  2.5543  0.7631
 5887TIP3   OH217666   6.128   0.906   3.378 -0.5856 -0.1281 -0.2992
 5887TIP3    H117667   6.213   0.937   3.345  0.1628 -1.5046  0.2768
 5887TIP3    H217668   6.064   0.952   3.324  0.5488 -0.1693 -1.7483
 5888TIP3   OH217669   6.196   5.098   2.317  0.2683  0.0003 -0.4907
 5888TIP3    H117670   6.247   5.170   2.353  3.1722 -1.0738 -2.0887
 5888TIP3    H217671   6.254   5.022   2.324 -1.5016 -1.5388 -1.5739
 5889TIP3   OH217672   2.020   3.945   5.134 -0.0970  0.1280 -0.0969
 5889TIP3    H117673   1.981   3.869   5.176  0.8235 -1.1111 -1.3569
 5889TIP3    H217674   1.965   3.961   5.057  1.5022 -1.4053 -1.6784
 5890TIP3   OH217675   4.304   3.129   4.951  0.1585  0.4268 -0.4051
 5890TIP3    H117676   4.339   3.042   4.933  0.9997  0.7802 -0.5396
 5890TIP3    H217677   4.255   3.119   5.033  1.0164  0.0093  0.0753
 5891TIP3   OH217678   4.937   0.026   0.477 -0.4295  0.0040  0.0051
 5891TIP3    H117679   4.860   0.053   0.527 -1.8584 -2.6265 -0.5851
 5891TIP3    H217680   4.901  -0.009   0.395  1.4044 -1.0461 -0.4080
 5892TIP3   OH217681   1.880   0.301   4.084 -0.2450  0.2973  0.4011
 5892TIP3    H117682   1.840   0.346   4.009 -0.7223  0.6192  0.8504
 5892TIP3    H217683   1.941   0.366   4.120  1.2943 -0.4371 -0.7328
 5893TIP3   OH217684   1.662   1.928   4.265  0.2253  0.0489  0.1342
 5893TIP3    H117685   1.620   1.853   4.221 -2.0012  0.8414  0.7726
 5893TIP3    H217686   1.674   1.899   4.355 -2.5171  1.0394  0.9144
 5894TIP3   OH217687   2.500   1.031   0.958  0.1165  0.0645 -0.2435
 5894TIP3    H117688   2.497   0.959   0.895  0.6408 -0.2535  0.0859
 5894TIP3    H217689   2.483   0.990   1.043  0.2794  0.3447 -0.0717
 5895TIP3   OH217690   0.063   2.085   0.866 -0.0627  0.1586 -0.0130
 5895TIP3    H117691   0.144   2.040   0.843 -0.7242 -2.0485  1.5983
 5895TIP3    H217692   0.056   2.074   0.961 -0.6142  3.2302  0.3907
 5896TIP3   OH217693   4.830   1.603   2.462  0.4152 -0.4455 -0.1903
 5896TIP3    H117694   4.741   1.579   2.433  0.4882 -1.5935  0.4639
 5896TIP3    H217695   4.874   1.631   2.382 -0.5446  0.1695 -0.5187
 5897TIP3   OH217696   5.282   0.593   0.269  0.1861 -0.0579  0.6215
 5897TIP3    H117697   5.230   0.663   0.229  1.0143 -0.1533 -0.6786
 5897TIP3    H217698   5.232   0.513   0.252 -0.3040  0.1051  1.2876
 5898TIP3   OH217699   4.533   4.167   2.872 -0.1835 -0.0351  0.6166
 5898TIP3    H117700   4.463   4.182   2.809  1.8155 -0.6525 -1.8869
 5898TIP3    H217701   4.495   4.108   2.937 -1.8010 -0.8124 -0.9669
 5899TIP3   OH217702   2.823   1.055   3.815  0.0668  0.4350  0.8177
 5899TIP3    H117703   2.915   1.081   3.804 -0.1000  0.5517 -0.4025
 5899TIP3    H217704   2.794   1.031   3.727 -1.2919  1.1277  1.0488
 5900TIP3   OH217705   5.425   0.411   4.965 -0.0248  0.4836  0.3272
 5900TIP3    H117706   5.437   0.331   5.017 -1.5709 -0.3406 -0.5121
 5900TIP3    H217707   5.508   0.458   4.974  1.7342 -2.1529 -0.7591
 5901TIP3   OH217708   2.404   4.171   3.021 -0.7608 -0.5422  0.4507
 5901TIP3    H117709   2.317   4.132   3.006 -1.0956 -0.0739  1.1017
 5901TIP3    H217710   2.460   4.097   3.042 -1.2508 -0.7477  1.0712
 5902TIP3   OH217711   5.874   0.190   2.545  0.4513  0.2798  0.1439
 5902TIP3    H117712   5.935   0.118   2.556 -1.2056 -1.2627 -0.3098
 5902TIP3    H217713   5.825   0.193   2.627 -0.7378 -0.3808 -0.5077
 5903TIP3   OH217714   0.111   5.696   0.725 -0.3016 -0.2861 -0.2718
 5903TIP3    H117715   0.025   5.710   0.767  0.0096 -0.5762  0.4783
 5903TIP3    H217716   0.156   5.634   0.783 -0.1990 -1.4247 -1.5136
 5904TIP3   OH217717   3.661   5.265   1.310  0.8893 -0.1374 -0.3893
 5904TIP3    H117718   3.609   5.198   1.353  0.3807 -1.3793 -2.7905
 5904TIP3    H217719   3.600   5.338   1.296 -0.1542 -1.3396 -2.6199
 5905TIP3   OH217720   1.584   4.743   1.135 -0.4112  0.6775 -0.2214
 5905TIP3    H117721   1.547   4.660   1.105 -0.0037  0.5351 -0.3289
 5905TIP3    H217722   1.534   4.810   1.088  0.9832  0.4549 -2.1564
 5906TIP3   OH217723   5.899   4.538   2.187  0.4262  0.1534  0.4468
 5906TIP3    H117724   5.967   4.472   2.198 -0.2903 -0.4631  1.3409
 5906TIP3    H217725   5.906   4.593   2.265 -1.4591 -1.2109  1.6451
 5907TIP3   OH217726   3.478   1.720   1.114 -0.3725  0.4075 -0.0901
 5907TIP3    H117727   3.496   1.711   1.020 -0.3000  1.0680 -0.1458
 5907TIP3    H217728   3.438   1.806   1.122 -1.2310 -0.0254  0.3692
 5908TIP3   OH217729   3.434   2.388   4.845 -0.2771 -0.0479 -0.1994
 5908TIP3    H117730   3.438   2.381   4.941 -2.1359  0.9001 -0.0103
 5908TIP3    H217731   3.434   2.297   4.815  1.1434 -0.3488  0.6275
 5909TIP3   OH217732   4.588   1.176   0.972  0.3190  0.0692 -0.3208
 5909TIP3    H117733   4.557   1.107   0.913  1.1469  1.0511 -1.9939
 5909TIP3    H217734   4.556   1.150   1.058 -1.4938 -1.1145 -1.2785
 5910TIP3   OH217735   5.262   2.460   2.957 -0.2884 -0.2578  0.1764
 5910TIP3    H117736   5.318   2.421   3.024  0.7976  1.3504  0.2494
 5910TIP3    H217737   5.258   2.553   2.979 -1.3325  0.0042 -1.0001
 5911TIP3   OH217738   5.952   3.409   4.746 -0.2928  0.3851  0.1909
 5911TIP3    H117739   6.022   3.400   4.681 -0.9218 -0.6163 -0.3674
 5911TIP3    H217740   5.989   3.373   4.827 -0.4912 -1.1012 -0.3561
 5912TIP3   OH217741   2.010   5.343   2.913  0.0589  0.0336  0.0124
 5912TIP3    H117742   1.972   5.426   2.942 -1.4115 -1.0766  1.4597
 5912TIP3    H217743   1.941   5.302   2.861  0.7297 -0.3426 -0.5959
 5913TIP3   OH217744   2.795   2.431   4.074  0.1372 -0.1102 -0.0507
 5913TIP3    H117745   2.819   2.492   4.004 -0.2326  0.1872  0.0781
 5913TIP3    H217746   2.705   2.405   4.053  0.4667 -1.0180 -0.3946
 5914TIP3   OH217747   4.802   0.726   2.895  0.2327 -0.2015 -0.1636
 5914TIP3    H117748   4.777   0.711   2.986 -0.0321  0.9151 -0.0475
 5914TIP3    H217749   4.796   0.639   2.854 -0.1781 -0.6125  0.7522
 5915TIP3   OH217750   0.864   4.116   0.100  0.3147 -0.5832  0.0095
 5915TIP3    H117751   0.784   4.065   0.093 -0.0508  0.1880 -2.2134
 5915TIP3    H217752   0.935   4.051   0.103 -0.3068 -1.2417  0.9842
 5916TIP3   OH217753   0.565   4.586   0.597 -0.1216 -0.4522 -0.0183
 5916TIP3    H117754   0.499   4.549   0.538  0.3735 -2.9845  0.8762
 5916TIP3    H217755   0.636   4.522   0.597  0.6158  0.2693  2.0308
 5917TIP3   OH217756   3.004   6.017   4.763 -0.3597 -0.0811  0.5168
 5917TIP3    H117757   2.983   5.990   4.852 -4.7552 -0.0828 -0.2918
 5917TIP3    H217758   3.054   5.944   4.727  1.5417 -0.0673  2.9022
 5918TIP3   OH217759   4.886   1.364   2.115  0.1425 -0.3385 -0.5531
 5918TIP3    H117760   4.909   1.271   2.121  1.3757 -0.1388 -1.6695
 5918TIP3    H217761   4.970   1.409   2.113 -0.2874  0.5382 -3.6377
 5919TIP3   OH217762   1.918   5.433   2.525 -0.2651  0.1372 -0.0115
 5919TIP3    H117763   1.827   5.443   2.552  0.4473  0.1741  2.7238
 5919TIP3    H217764   1.957   5.519   2.540  0.5934 -0.3423  0.5814
 5920TIP3   OH217765   3.783   5.237   0.826 -0.1355  0.2266  0.3753
 5920TIP3    H117766   3.771   5.190   0.909 -0.6952  0.2707  0.3179
 5920TIP3    H217767   3.699   5.229   0.781  0.2885 -0.1290 -0.3650
 5921TIP3   OH217768   5.635   5.379   0.793 -0.0202 -0.0253 -0.3374
 5921TIP3    H117769   5.709   5.398   0.851 -0.1810  2.2750 -0.8112
 5921TIP3    H217770   5.650   5.289   0.764  0.0410 -1.3092  3.2522
 5922TIP3   OH217771   2.167   2.396   4.091 -0.5316 -0.0584 -0.1209
 5922TIP3    H117772   2.105   2.403   4.164  0.8544  1.6354  0.9844
 5922TIP3    H217773   2.233   2.333   4.122  0.0026  0.5828  0.0605
 5923TIP3   OH217774   2.123   2.384   0.779  0.0117  0.3392 -0.5708
 5923TIP3    H117775   2.083   2.448   0.721 -0.3600  0.4387 -0.2092
 5923TIP3    H217776   2.208   2.422   0.802 -0.0686  0.5457 -0.6172
 5924TIP3   OH217777   3.561   5.629   2.502  0.6082 -0.3033  0.1745
 5924TIP3    H117778   3.500   5.655   2.570  0.0917 -0.5537 -0.1869
 5924TIP3    H217779   3.509   5.629   2.421  1.6829  2.1669 -0.6218
 5925TIP3   OH217780   2.390   1.600   2.720  0.3363  0.0250  0.1135
 5925TIP3    H117781   2.310   1.627   2.765  1.5884  1.7559  1.4169
 5925TIP3    H217782   2.421   1.679   2.676  0.9688 -0.8039 -0.9715
 5926TIP3   OH217783   6.294   2.633   3.972 -0.8669  0.1495  0.4149
 5926TIP3    H117784   6.377   2.608   4.013 -0.5149  2.4253  1.2405
 5926TIP3    H217785   6.229   2.575   4.013  0.3301 -2.0974 -0.6942
 5927TIP3   OH217786   2.820   0.983   4.739 -0.3715 -0.5285 -0.1807
 5927TIP3    H117787   2.745   1.027   4.776  0.3776 -0.0019  0.7491
 5927TIP3    H217788   2.896   1.031   4.772  0.3587 -0.3702 -1.9592
 5928TIP3   OH217789   2.749   4.630   0.337 -0.3434  0.5604 -0.8265
 5928TIP3    H117790   2.733   4.724   0.337  0.9306  0.7873 -0.9539
 5928TIP3    H217791   2.691   4.596   0.269 -2.4290  0.9317  0.6611
 5929TIP3   OH217792   2.126   5.822   2.309 -0.4228 -0.0986 -0.5098
 5929TIP3    H117793   2.214   5.816   2.345 -0.6615 -0.0345  0.1120
 5929TIP3    H217794   2.069   5.795   2.382 -0.9924  1.0892 -0.4892
 5930TIP3   OH217795   3.457   2.546   3.442 -0.2921 -0.4289 -0.0444
 5930TIP3    H117796   3.546   2.517   3.421 -0.4711 -1.1249  0.1422
 5930TIP3    H217797   3.463   2.576   3.533 -0.5285 -1.7084  0.4115
 5931TIP3   OH217798   0.609   3.587   3.863  0.7833  0.0563  0.0466
 5931TIP3    H117799   0.517   3.569   3.885  1.4600 -2.5162  1.2759
 5931TIP3    H217800   0.607   3.667   3.812 -2.1659 -0.0154 -0.1131
 5932TIP3   OH217801   2.813   0.677   2.435  0.0321 -0.2203  0.1155
 5932TIP3    H117802   2.774   0.624   2.365  0.7299  1.0495 -1.3140
 5932TIP3    H217803   2.739   0.723   2.474 -0.7880 -3.0607  2.2579
 5933TIP3   OH217804   0.993   2.592   2.892  0.1461 -0.8613  0.2949
 5933TIP3    H117805   0.927   2.541   2.845  0.7368 -2.0871  0.7627
 5933TIP3    H217806   0.943   2.662   2.934 -0.9415 -1.9868  0.9578
 5934TIP3   OH217807   2.615   2.746   4.015 -0.0978 -0.0253 -0.6565
 5934TIP3    H117808   2.639   2.733   4.107 -0.7617 -0.2737 -0.5096
 5934TIP3    H217809   2.591   2.838   4.009 -0.9558 -0.2260 -0.3613
 5935TIP3   OH217810   1.323   3.092   1.117  0.1951  0.0625  0.2370
 5935TIP3    H117811   1.335   3.125   1.206 -1.8681 -1.0343  0.9746
 5935TIP3    H217812   1.313   3.170   1.063  1.4298  0.7378  0.9289
 5936TIP3   OH217813   1.673   2.259   2.248 -0.1621  0.3154  0.1273
 5936TIP3    H117814   1.691   2.289   2.159 -0.1163  1.4845  0.5104
 5936TIP3    H217815   1.579   2.241   2.248  0.0768 -1.0534 -0.5255
 5937TIP3   OH217816   4.480   0.264   0.064  0.0108  0.1079  0.5761
 5937TIP3    H117817   4.399   0.237   0.108  0.2413  0.1677  1.0443
 5937TIP3    H217818   4.547   0.207   0.102  0.1397 -0.1547 -0.0358
 5938TIP3   OH217819   0.690   3.309   1.625  0.2981  0.0224 -0.3020
 5938TIP3    H117820   0.782   3.285   1.635  0.5250  0.2925 -1.5486
 5938TIP3    H217821   0.646   3.227   1.601  0.4221  0.1121 -0.8490
 5939TIP3   OH217822   1.776   1.332   3.208  0.2462 -0.2063  0.0054
 5939TIP3    H117823   1.792   1.335   3.303 -0.1582  1.6440  0.0490
 5939TIP3    H217824   1.692   1.377   3.197 -0.8095 -2.2985 -1.0479
 5940TIP3   OH217825   1.686   3.665   2.623  0.0562 -0.1437 -0.7450
 5940TIP3    H117826   1.646   3.715   2.553 -0.8273 -0.6081 -0.5818
 5940TIP3    H217827   1.748   3.606   2.579  0.4564  0.4699 -1.0079
 5941TIP3   OH217828   6.063   4.259   3.903  0.1189 -0.6548 -0.2470
 5941TIP3    H117829   6.041   4.347   3.872  0.9620 -1.2943 -2.9409
 5941TIP3    H217830   6.128   4.273   3.972 -0.8894  0.8400  0.4537
 5942TIP3   OH217831   2.203   3.402   0.958  0.2433 -0.1995 -0.1734
 5942TIP3    H117832   2.283   3.416   0.907  0.1420  1.4444  0.0704
 5942TIP3    H217833   2.132   3.420   0.896  0.0303 -1.5695 -0.3645
 5943TIP3   OH217834   4.252   1.619   0.182 -0.1531  0.1216 -0.3740
 5943TIP3    H117835   4.319   1.590   0.244  0.7782 -0.0751 -1.4358
 5943TIP3    H217836   4.270   1.712   0.168 -0.8688  0.3651  0.2539
 5944TIP3   OH217837   5.720   2.718   3.184  0.1588 -0.0002  0.1449
 5944TIP3    H117838   5.802   2.729   3.231  1.2893  2.7667 -2.1484
 5944TIP3    H217839   5.667   2.794   3.210 -1.5122 -1.4446  1.1546
 5945TIP3   OH217840   3.841   3.448   3.075 -0.1653  0.1264  0.7236
 5945TIP3    H117841   3.764   3.390   3.074 -1.3922  1.6653  1.8275
 5945TIP3    H217842   3.866   3.454   3.167  1.8200 -0.9550  0.3157
 5946TIP3   OH217843   5.806   0.776   4.715 -0.3163 -0.6718  0.0764
 5946TIP3    H117844   5.781   0.851   4.661 -0.4092 -0.6511  0.1503
 5946TIP3    H217845   5.780   0.800   4.804  0.7945 -0.2517  0.3143
 5947TIP3   OH217846   4.697   5.684   1.602 -0.0024 -0.4037  0.4537
 5947TIP3    H117847   4.652   5.612   1.646  2.2448 -2.7080 -0.7987
 5947TIP3    H217848   4.636   5.711   1.533 -0.3588 -2.0161  0.1075
 5948TIP3   OH217849   1.378   5.055   0.778  0.1237 -0.1465 -0.0243
 5948TIP3    H117850   1.372   5.000   0.701 -2.1536 -0.3419  0.2040
 5948TIP3    H217851   1.469   5.085   0.781  0.1971  0.1697 -2.9650
 5949TIP3   OH217852   1.135   2.529   4.928 -0.2598  0.2973 -0.2723
 5949TIP3    H117853   1.139   2.625   4.921 -0.7449  0.3211 -0.2412
 5949TIP3    H217854   1.096   2.513   5.014 -0.5417  0.0777 -0.4399
 5950TIP3   OH217855   3.838   3.325   4.127  0.4235  0.3257 -0.6883
 5950TIP3    H117856   3.755   3.320   4.080  0.0675  1.4071 -0.2124
 5950TIP3    H217857   3.872   3.412   4.106  1.3683 -0.0455 -0.7531
 5951TIP3   OH217858   2.025   2.319   1.461  0.2132 -0.0619  0.0284
 5951TIP3    H117859   1.968   2.296   1.388 -0.3320  0.5681  0.2412
 5951TIP3    H217860   2.105   2.351   1.419 -0.6436  1.7229 -0.3641
 5952TIP3   OH217861   3.263   1.547   0.409 -0.4219 -0.1045  0.5998
 5952TIP3    H117862   3.335   1.577   0.352  0.6519 -0.9328  1.4779
 5952TIP3    H217863   3.240   1.461   0.374 -1.2446  0.3067  0.1086
 5953TIP3   OH217864   1.599   1.639   2.483  0.1736 -0.2655  0.1472
 5953TIP3    H117865   1.597   1.559   2.432 -1.1342 -0.5822  0.6716
 5953TIP3    H217866   1.555   1.617   2.565 -0.1424  0.9650  0.3366
 5954TIP3   OH217867   2.972   3.345   3.737  0.0350 -0.2427 -0.0032
 5954TIP3    H117868   3.041   3.344   3.802  0.5122 -0.3020 -0.5033
 5954TIP3    H217869   2.965   3.436   3.709 -0.0550 -0.2449  0.0101
 5955TIP3   OH217870   3.927   0.715   3.097 -0.6162  0.4706 -0.5691
 5955TIP3    H117871   3.872   0.770   3.041 -1.7241 -0.8621 -0.8299
 5955TIP3    H217872   3.912   0.748   3.185  1.1868  2.6335 -0.9566
 5956TIP3   OH217873   2.058   3.505   1.208 -0.2849 -0.1194  0.4613
 5956TIP3    H117874   2.036   3.588   1.165 -2.4588  0.3076  2.1874
 5956TIP3    H217875   2.100   3.452   1.140  0.2848  2.0204 -0.9500
 5957TIP3   OH217876   3.328   2.945   2.314 -0.0136 -0.0410  0.1399
 5957TIP3    H117877   3.385   2.941   2.238  1.4375 -0.9964  1.2093
 5957TIP3    H217878   3.245   2.907   2.285  1.0507 -1.9675 -0.5478
 5958TIP3   OH217879   0.887   2.141   3.271  0.1148  0.4392 -0.1193
 5958TIP3    H117880   0.938   2.202   3.218 -1.3987 -0.4011 -2.6633
 5958TIP3    H217881   0.950   2.074   3.298  0.8534  0.7299 -1.0943
 5959TIP3   OH217882   6.062   3.106  -0.016  0.0937  0.0651  0.3902
 5959TIP3    H117883   5.984   3.101   0.039  1.2121  0.4612  2.0754
 5959TIP3    H217884   6.113   3.178   0.020  0.1878  1.3858 -2.1600
 5960TIP3   OH217885   5.898   2.848   4.792 -0.6968 -0.4035  0.0284
 5960TIP3    H117886   5.877   2.928   4.745 -2.8288  0.3886  2.1374
 5960TIP3    H217887   5.876   2.777   4.731  0.1259  0.5424 -1.4385
 5961TIP3   OH217888   2.825   2.613   0.749 -0.0767 -0.0772 -0.4415
 5961TIP3    H117889   2.802   2.521   0.760 -2.1413  0.4863  0.4661
 5961TIP3    H217890   2.774   2.658   0.816 -1.9334  2.0916 -3.0671
 5962TIP3   OH217891   3.185   0.059   3.918  0.4019 -0.0147  0.1777
 5962TIP3    H117892   3.194  -0.021   3.865 -0.1843 -0.2401  0.4107
 5962TIP3    H217893   3.188   0.130   3.854 -2.0893 -0.3465 -0.4088
 5963TIP3   OH217894   0.086   1.901   4.627  0.4808 -0.0225  0.1770
 5963TIP3    H117895   0.083   1.819   4.577  0.8696  1.3249 -2.2399
 5963TIP3    H217896   0.002   1.905   4.671 -0.7287 -0.4442 -1.9247
 5964TIP3   OH217897   3.556   2.585   2.906 -0.4382  0.2204 -0.5617
 5964TIP3    H117898   3.587   2.638   2.979  0.4846  0.2919 -0.9959
 5964TIP3    H217899   3.619   2.601   2.836 -0.7261 -0.6576 -1.0325
 5965TIP3   OH217900   2.283   4.439   1.800  0.0272 -0.1159  0.0815
 5965TIP3    H117901   2.374   4.459   1.822 -0.1192  0.7149 -0.0364
 5965TIP3    H217902   2.244   4.412   1.883  0.7590 -2.0258 -0.1443
 5966TIP3   OH217903   4.301   0.146   0.225  0.0972 -0.1340  0.2084
 5966TIP3    H117904   4.325   0.202   0.298  0.2575 -1.0194  0.8490
 5966TIP3    H217905   4.318   0.057   0.256 -1.6783 -0.6457 -0.2133
 5967TIP3   OH217906   2.282   0.442   3.008  0.3431  0.5624 -0.2184
 5967TIP3    H117907   2.311   0.506   2.942  0.8028  0.3535 -0.2237
 5967TIP3    H217908   2.335   0.364   2.991 -1.0313 -0.2478 -0.9601
 5968TIP3   OH217909   0.271   4.376   1.444 -0.9743 -0.3388  0.0858
 5968TIP3    H117910   0.302   4.407   1.359 -2.6141 -0.1945 -0.4900
 5968TIP3    H217911   0.248   4.284   1.429 -0.0707 -0.6836  0.7159
 5969TIP3   OH217912   4.022   0.376   4.915 -0.3856  0.0555 -0.2996
 5969TIP3    H117913   4.083   0.415   4.977  0.1145  0.2038 -0.8784
 5969TIP3    H217914   4.076   0.319   4.860 -0.7926  0.0527 -0.7036
 5970TIP3   OH217915   5.385   4.192   2.605  0.1288 -0.1653  0.1705
 5970TIP3    H117916   5.349   4.123   2.661  0.8480 -0.2777  0.5060
 5970TIP3    H217917   5.423   4.146   2.531 -0.2542 -0.0577 -0.0965
 5971TIP3   OH217918   6.265   4.146   0.629  0.4913 -0.4185 -0.7209
 5971TIP3    H117919   6.268   4.085   0.556  0.3855  1.3863 -2.3148
 5971TIP3    H217920   6.270   4.091   0.707  0.3705 -2.4269 -2.0672
 5972TIP3   OH217921   0.763   0.892   3.551 -0.2360  0.2225 -0.1187
 5972TIP3    H117922   0.672   0.863   3.546  0.4720 -2.0492 -0.9635
 5972TIP3    H217923   0.804   0.858   3.472  1.7981 -0.5543  1.1786
 5973TIP3   OH217924   4.424   3.228   2.205  0.3544  0.9337  0.5107
 5973TIP3    H117925   4.456   3.181   2.282  0.4480  0.6001  0.2709
 5973TIP3    H217926   4.407   3.159   2.141  0.0747  1.1923  0.3060
 5974TIP3   OH217927   1.320   4.960   4.064  0.2378 -0.6455 -0.4999
 5974TIP3    H117928   1.249   4.907   4.099  1.1071 -0.7076  1.3277
 5974TIP3    H217929   1.345   4.916   3.983 -1.0739 -1.2394 -0.6131
 5975TIP3   OH217930   0.125   0.869   3.460  0.1958 -0.0715  0.0652
 5975TIP3    H117931   0.169   0.887   3.543 -0.7129  0.9873  0.3248
 5975TIP3    H217932   0.076   0.788   3.476  0.6453 -0.3030  0.3032
 5976TIP3   OH217933   3.768   4.924   3.518 -0.2384  0.3620  0.1150
 5976TIP3    H117934   3.786   4.832   3.536  0.0783  0.5812  0.9701
 5976TIP3    H217935   3.677   4.925   3.490 -0.1834 -0.2388 -0.1038
 5977TIP3   OH217936   3.705   1.962   0.802  0.2474  0.0654  0.0401
 5977TIP3    H117937   3.685   2.008   0.720  1.1261 -0.4368 -0.4643
 5977TIP3    H217938   3.731   2.032   0.862  0.3195  0.3577 -0.3240
 5978TIP3   OH217939   5.297   2.205   3.093 -0.3525 -0.3574 -0.2187
 5978TIP3    H117940   5.386   2.178   3.074 -0.5774 -1.1609 -0.1431
 5978TIP3    H217941   5.307   2.276   3.156  0.1837 -1.4027  0.8986
 5979TIP3   OH217942   0.614   2.234   2.626 -0.7610 -0.0030 -0.5078
 5979TIP3    H117943   0.607   2.159   2.685  0.7368  1.1281  1.1930
 5979TIP3    H217944   0.566   2.304   2.669 -2.4463  0.0102 -2.2496
 5980TIP3   OH217945   5.110   5.867   3.946  0.4820 -0.4271 -0.7727
 5980TIP3    H117946   5.181   5.930   3.959 -1.6108  2.0908 -0.6944
 5980TIP3    H217947   5.107   5.853   3.851  0.5942  0.0347 -0.8439
 5981TIP3   OH217948   1.983   4.719   2.382 -0.1710 -0.0930 -0.3087
 5981TIP3    H117949   2.003   4.800   2.428 -3.5164 -0.0006  1.2493
 5981TIP3    H217950   1.887   4.712   2.384 -0.3227 -2.0220 -4.0620
 5982TIP3   OH217951   5.542   5.122   1.997  0.0961  0.2454 -0.3677
 5982TIP3    H117952   5.574   5.117   1.907 -2.6175 -1.8952 -1.3568
 5982TIP3    H217953   5.573   5.041   2.038 -2.2234 -0.9121 -0.7682
 5983TIP3   OH217954   5.536   1.861   0.233 -0.0314 -0.1603  0.2518
 5983TIP3    H117955   5.585   1.785   0.201  0.8025  0.5037 -0.1071
 5983TIP3    H217956   5.526   1.846   0.327  1.6074  0.0612  0.4937
 5984TIP3   OH217957   0.795   0.072   2.854  0.3982 -0.1539 -0.4089
 5984TIP3    H117958   0.858   0.121   2.907  0.1324  0.1934 -0.4167
 5984TIP3    H217959   0.847   0.037   2.781  0.6198 -0.0268 -0.3114
 5985TIP3   OH217960   0.887   4.813   5.127 -0.5426 -0.3338  0.1735
 5985TIP3    H117961   0.794   4.813   5.150 -0.2554  0.1807  1.4617
 5985TIP3    H217962   0.902   4.900   5.089 -0.3123  0.1176  1.2669
 5986TIP3   OH217963   3.518   4.727   0.937 -0.2952  0.0794 -0.5519
 5986TIP3    H117964   3.471   4.648   0.909 -1.3031  0.1041  0.9576
 5986TIP3    H217965   3.610   4.702   0.933 -0.6004 -1.2778  0.0673
 5987TIP3   OH217966   0.063   1.658   4.537  0.0021  0.2362 -0.5881
 5987TIP3    H117967   0.134   1.603   4.503  2.2947  2.9228 -0.4938
 5987TIP3    H217968  -0.006   1.652   4.470  0.7273 -1.5894 -1.2296
 5988TIP3   OH217969   3.508   4.470   4.776  0.4198 -0.3633 -0.4907
 5988TIP3    H117970   3.465   4.385   4.768 -0.4398 -0.0994  0.9817
 5988TIP3    H217971   3.442   4.527   4.817  2.1928 -0.0006  2.1316
 5989TIP3   OH217972   0.791   4.191   2.743  0.8203  0.1454 -0.1558
 5989TIP3    H117973   0.801   4.215   2.835  0.1017 -0.6639  0.1418
 5989TIP3    H217974   0.833   4.105   2.737  0.6010  0.0664 -0.5232
 5990TIP3   OH217975   1.715   0.041   0.088 -0.3384  0.6028  0.2936
 5990TIP3    H117976   1.691  -0.051   0.097  1.4916 -0.0118 -0.5909
 5990TIP3    H217977   1.769   0.044   0.009  1.2425  2.1026  1.3728
 5991TIP3   OH217978   5.764   1.640   1.007 -0.2506 -0.1635  0.5497
 5991TIP3    H117979   5.700   1.671   1.071 -0.6516 -0.9161  0.5153
 5991TIP3    H217980   5.762   1.706   0.938  1.3283  1.5209  2.0107
 5992TIP3   OH217981   1.370   0.942   3.419 -0.1470 -0.0681 -0.2482
 5992TIP3    H117982   1.437   1.011   3.421  0.3348 -0.5256 -0.5745
 5992TIP3    H217983   1.288   0.989   3.437  0.3729  0.3439  1.2313
 5993TIP3   OH217984   2.136   5.311   2.006 -0.2457 -0.2839  0.5698
 5993TIP3    H117985   2.066   5.312   2.072  0.9042  0.9743  1.8434
 5993TIP3    H217986   2.212   5.278   2.053  0.1644 -1.1937 -0.6780
 5994TIP3   OH217987   3.010   1.858   5.103 -0.0809 -0.3116 -0.1982
 5994TIP3    H117988   3.004   1.763   5.109 -2.2506 -0.2902 -1.0160
 5994TIP3    H217989   2.952   1.890   5.172 -0.5966  0.3746 -0.9338
 5995TIP3   OH217990   1.611   4.744   1.991 -0.5054 -0.1341 -0.3746
 5995TIP3    H117991   1.599   4.839   1.985 -1.4982 -0.2297 -0.1040
 5995TIP3    H217992   1.587   4.722   2.081 -0.9044 -0.7203 -0.6172
 5996TIP3   OH217993   6.124   3.966   4.926  0.3023 -0.1408 -0.6251
 5996TIP3    H117994   6.183   3.891   4.927  0.9503  0.3552 -0.9634
 5996TIP3    H217995   6.165   4.030   4.982 -1.1095 -0.6460  1.0666
 5997TIP3   OH217996   4.260   5.976   4.028 -0.8317  0.2569 -0.3226
 5997TIP3    H117997   4.226   5.952   4.114  0.9526  0.5780  0.5252
 5997TIP3    H217998   4.279   5.892   3.986  2.1668 -0.0275  1.2913
 5998TIP3   OH217999   1.720   2.309   4.328  0.2390  0.0772 -0.1288
 5998TIP3    H118000   1.673   2.373   4.381 -0.5187 -2.5465  2.6755
 5998TIP3    H218001   1.657   2.281   4.262  0.2876  1.5153 -0.8132
 5999TIP3   OH218002   1.443   5.218   1.812 -0.3031 -0.3681  0.8110
 5999TIP3    H118003   1.367   5.163   1.795 -1.2767  0.9525  0.7401
 5999TIP3    H218004   1.441   5.285   1.744  0.8064 -0.1846  0.9348
 6000TIP3   OH218005   4.467   5.429   0.331  0.5545 -0.8086 -0.2330
 6000TIP3    H118006   4.373   5.432   0.348  0.6521 -1.5088  0.4903
 6000TIP3    H218007   4.475   5.389   0.244  0.1519  0.2566 -0.7735
 6001TIP3   OH218008   6.098   3.022   4.876 -0.0970 -0.3093  0.0012
 6001TIP3    H118009   6.050   2.942   4.854  2.1505 -1.7723  0.0703
 6001TIP3    H218010   6.162   3.031   4.806  1.4655 -0.1223  1.3904
 6002TIP3   OH218011   1.729   1.784   0.242  0.0048  0.4664  0.4393
 6002TIP3    H118012   1.777   1.704   0.220 -2.5109 -1.0360 -0.0155
 6002TIP3    H218013   1.646   1.776   0.195 -0.3171  3.4580  0.2690
 6003TIP3   OH218014   4.953   4.951   3.718 -0.0067  0.3575  0.1055
 6003TIP3    H118015   4.887   4.892   3.683  0.6366 -0.7015  0.6310
 6003TIP3    H218016   5.035   4.903   3.709  0.5199  1.1484  0.6121
 6004TIP3   OH218017   1.027   1.016   3.771  0.1078  0.1832  0.2368
 6004TIP3    H118018   1.049   1.012   3.678  0.2850 -1.0542  0.3128
 6004TIP3    H218019   1.110   1.035   3.814  0.8165 -2.7324  0.3815
 6005TIP3   OH218020   5.784   3.969   1.651  0.0595 -0.2542  0.3062
 6005TIP3    H118021   5.734   4.047   1.625  1.9061  0.3081 -1.8920
 6005TIP3    H218022   5.734   3.932   1.724 -2.3698  1.4299 -0.3600
 6006TIP3   OH218023   3.993   3.252   1.721 -0.6151 -0.2206 -0.0556
 6006TIP3    H118024   3.958   3.166   1.696  2.2402 -0.9200 -2.2322
 6006TIP3    H218025   3.941   3.315   1.670 -0.5158 -0.9786 -1.1382
 6007TIP3   OH218026   2.313   5.804   0.997  0.0789 -0.0856  0.3016
 6007TIP3    H118027   2.281   5.879   1.048  1.1655  0.3640  0.3354
 6007TIP3    H218028   2.238   5.779   0.943 -0.0440  1.5988 -0.3701
 6008TIP3   OH218029   5.550   3.945   0.461 -0.5947 -0.0201  0.0201
 6008TIP3    H118030   5.562   3.953   0.367 -1.3832  1.5102  0.0149
 6008TIP3    H218031   5.511   4.028   0.487 -1.4246 -0.8345  1.5299
 6009TIP3   OH218032   1.629   3.178   2.216 -0.1870 -0.4500  0.1827
 6009TIP3    H118033   1.694   3.181   2.146 -0.6452  0.3591 -0.2297
 6009TIP3    H218034   1.610   3.085   2.229  1.2072 -0.7147  0.4668
 6010TIP3   OH218035   0.991   3.402   4.177 -0.3581 -0.1706  0.3208
 6010TIP3    H118036   0.958   3.318   4.145 -0.8089 -0.7603  2.2018
 6010TIP3    H218037   0.914   3.459   4.178 -0.2384  0.0017 -0.1073
 6011TIP3   OH218038   0.592   4.776   3.906  0.3175  0.1642 -0.0971
 6011TIP3    H118039   0.610   4.723   3.829  0.1457 -2.2463  1.4184
 6011TIP3    H218040   0.670   4.831   3.916  0.0840  1.0167 -2.2723
 6012TIP3   OH218041   0.203   4.006   3.441  0.2553  0.8232 -0.1617
 6012TIP3    H118042   0.296   4.022   3.458  0.5099 -1.4467  0.8977
 6012TIP3    H218043   0.166   3.982   3.526 -0.2263 -2.7889 -1.2049
 6013TIP3   OH218044   4.751   1.901   1.494 -0.0704  0.0065 -0.4239
 6013TIP3    H118045   4.752   1.994   1.516 -0.9318  0.0158 -0.3891
 6013TIP3    H218046   4.715   1.859   1.572 -0.7137 -0.2306 -0.8353
 6014TIP3   OH218047   3.998   5.298   2.032  0.0073  0.2788  0.0044
 6014TIP3    H118048   4.057   5.322   2.103 -0.8393 -0.1150  0.8577
 6014TIP3    H218049   4.031   5.214   2.001  1.6818  1.4207 -1.5607
 6015TIP3   OH218050   4.578   0.171   5.082 -0.2016  0.5667 -0.0228
 6015TIP3    H118051   4.483   0.185   5.077 -0.7117 -2.5666 -1.7165
 6015TIP3    H218052   4.594   0.157   5.176 -1.4240  1.0684  0.2859
 6016TIP3   OH218053   0.066   3.432   2.794  0.0124 -0.2978 -0.0595
 6016TIP3    H118054   0.140   3.492   2.782  0.3519 -0.6443  0.2624
 6016TIP3    H218055   0.106   3.344   2.791 -0.4318 -0.4978 -0.2052
 6017TIP3   OH218056   1.640   3.626   2.224  0.4785 -0.0408  0.8058
 6017TIP3    H118057   1.623   3.544   2.270  0.0486 -0.3886  0.0309
 6017TIP3    H218058   1.567   3.683   2.248  1.3961  0.5661  2.3260
 6018TIP3   OH218059   4.262   4.818   0.409 -0.8647 -0.2327  0.2304
 6018TIP3    H118060   4.281   4.898   0.360 -1.4919  0.1949  0.6693
 6018TIP3    H218061   4.212   4.764   0.348 -0.0700 -0.4717 -0.2118
 6019TIP3   OH218062   3.734   4.406   3.231 -0.5222 -0.3447 -0.6518
 6019TIP3    H118063   3.669   4.473   3.207 -0.0725  0.3869  0.1124
 6019TIP3    H218064   3.785   4.394   3.151 -1.0837 -0.3276 -1.0208
 6020TIP3   OH218065   3.649   1.348   4.038 -0.6754  0.1885  0.5416
 6020TIP3    H118066   3.554   1.352   4.033 -0.6151  0.1774 -2.8546
 6020TIP3    H218067   3.679   1.389   3.957  2.0823 -2.5630 -0.0259
 6021TIP3   OH218068   3.531   2.906   2.158 -0.7151 -0.2634 -0.0293
 6021TIP3    H118069   3.549   2.813   2.143  0.0188 -0.3332  1.1856
 6021TIP3    H218070   3.585   2.951   2.093 -0.4459 -0.6634 -0.0871
 6022TIP3   OH218071   0.507   5.141   2.128  0.1589  0.0617 -0.4219
 6022TIP3    H118072   0.524   5.157   2.221  1.7426  1.4942 -0.9215
 6022TIP3    H218073   0.429   5.193   2.109 -0.3470 -0.4656  0.1496
 6023TIP3   OH218074   5.792   4.587   4.588  0.3189 -0.0966 -0.4441
 6023TIP3    H118075   5.845   4.510   4.611 -1.0954 -1.6960 -2.2757
 6023TIP3    H218076   5.745   4.608   4.669  1.8715 -0.1295  0.5264
 6024TIP3   OH218077   1.094   1.913   4.711 -0.7850 -0.1180 -0.0407
 6024TIP3    H118078   1.058   1.900   4.623 -1.4927 -0.6763  0.3243
 6024TIP3    H218079   1.024   1.888   4.770 -0.4933  0.7551  0.7016
 6025TIP3   OH218080   4.713   1.175   2.357 -0.1242 -0.0280 -0.0603
 6025TIP3    H118081   4.738   1.093   2.314 -1.6160 -0.5965  0.1047
 6025TIP3    H218082   4.668   1.148   2.437  0.8265  0.9924  0.8590
 6026TIP3   OH218083   1.303   1.360   0.327  0.3209  0.1887 -0.0541
 6026TIP3    H118084   1.380   1.418   0.329 -1.1950  2.3248  0.0083
 6026TIP3    H218085   1.285   1.342   0.419 -0.7429  1.8823  0.1171
 6027TIP3   OH218086   4.995   5.212   1.125 -0.4245  0.0950 -0.3019
 6027TIP3    H118087   5.085   5.245   1.134  0.0124 -1.2226  0.3256
 6027TIP3    H218088   4.994   5.171   1.039 -0.6098  0.6154 -0.5552
 6028TIP3   OH218089   2.709   5.176   4.661  0.0654 -0.2991 -0.3435
 6028TIP3    H118090   2.723   5.185   4.566 -0.5078  0.8467 -0.3303
 6028TIP3    H218091   2.622   5.214   4.676  0.3932  0.0431  0.7240
 6029TIP3   OH218092   4.981   1.800   1.738 -0.0611 -0.0839 -0.2450
 6029TIP3    H118093   4.915   1.816   1.670  1.0331 -1.2004 -1.6449
 6029TIP3    H218094   5.038   1.876   1.734  0.7314 -0.7114 -1.5178
 6030TIP3   OH218095   2.424   4.477   0.870  0.4795  0.5374  0.2990
 6030TIP3    H118096   2.495   4.522   0.823 -0.4218  3.2896  1.3529
 6030TIP3    H218097   2.465   4.448   0.951  1.0373 -0.4388 -0.3116
 6031TIP3   OH218098   1.287   1.326   2.133 -0.5643 -0.1942 -0.7120
 6031TIP3    H118099   1.342   1.269   2.078 -0.1908  1.2460 -1.8984
 6031TIP3    H218100   1.199   1.312   2.100 -0.5855 -0.6742 -0.4607
 6032TIP3   OH218101   5.056   2.122   4.180  0.4446  0.1961  0.3096
 6032TIP3    H118102   4.990   2.173   4.134 -0.3860 -0.1666  1.0848
 6032TIP3    H218103   5.075   2.049   4.121 -1.9921 -1.3273  1.2557
 6033TIP3   OH218104   3.436   2.327   1.894 -0.3876  0.0137  0.0693
 6033TIP3    H118105   3.499   2.374   1.948 -1.1126 -1.5850  2.4982
 6033TIP3    H218106   3.351   2.367   1.915 -0.8128 -1.3067  1.0135
 6034TIP3   OH218107   3.587   5.271   2.831  0.1646 -0.9370  0.3855
 6034TIP3    H118108   3.656   5.309   2.886  0.0485 -1.8094  1.1610
 6034TIP3    H218109   3.610   5.297   2.742 -0.0900  1.2147  0.8857
 6035TIP3   OH218110   5.486   0.226   3.643  0.4350  0.4669  0.6677
 6035TIP3    H118111   5.422   0.268   3.586  2.1546  3.5072  0.7617
 6035TIP3    H218112   5.447   0.232   3.731  0.0955  0.6999  0.5041
 6036TIP3   OH218113   4.620   0.319   4.683  0.2397  0.2527  0.8406
 6036TIP3    H118114   4.621   0.386   4.614 -0.2667 -2.1111 -1.5915
 6036TIP3    H218115   4.531   0.323   4.719  0.1135  0.6598  0.4884
 6037TIP3   OH218116   0.497   5.227   2.805  0.0642  0.0177 -0.9969
 6037TIP3    H118117   0.461   5.254   2.890  0.2568 -0.5827 -0.7228
 6037TIP3    H218118   0.560   5.295   2.783  0.2918 -0.0200 -0.4764
 6038TIP3   OH218119   3.140   0.135   4.352 -0.1136 -0.4282  0.2287
 6038TIP3    H118120   3.215   0.189   4.377  0.9520 -1.9824  0.5277
 6038TIP3    H218121   3.064   0.186   4.381  0.8964  0.1917  1.9899
 6039TIP3   OH218122   5.662   4.871   3.947  0.0997  0.3860  0.1871
 6039TIP3    H118123   5.594   4.939   3.946  0.1446  0.5212  2.4993
 6039TIP3    H218124   5.728   4.903   4.009  1.0832 -0.8840 -0.1587
 6040TIP3   OH218125   1.482   2.762   3.508 -0.0464 -0.2770 -0.5190
 6040TIP3    H118126   1.489   2.682   3.456  1.0580  0.6261 -1.8483
 6040TIP3    H218127   1.567   2.806   3.496 -0.1007  0.4357  1.3208
 6041TIP3   OH218128   2.380   0.925   3.236 -0.2207  0.1730 -0.2208
 6041TIP3    H118129   2.461   0.972   3.218  0.1587 -0.7899 -1.0832
 6041TIP3    H218130   2.405   0.833   3.240 -1.1876 -0.0982  0.0087
 6042TIP3   OH218131   4.048   1.510   0.329  0.0556 -0.3612 -0.1088
 6042TIP3    H118132   4.101   1.431   0.339  1.4573  0.3797 -1.2434
 6042TIP3    H218133   4.109   1.575   0.295 -0.3795  2.0016  3.1353
 6043TIP3   OH218134   0.767   2.783   0.428  1.0002  0.7779 -0.3398
 6043TIP3    H118135   0.703   2.720   0.394  2.0621 -1.7244  1.9209
 6043TIP3    H218136   0.828   2.797   0.356  0.1033  0.1381 -1.2635
 6044TIP3   OH218137   3.379   4.563   0.663 -0.1925 -0.3052  0.3254
 6044TIP3    H118138   3.295   4.602   0.641 -0.8993 -1.9250  0.0601
 6044TIP3    H218139   3.383   4.566   0.758 -1.1993 -1.4843  0.4227
 6045TIP3   OH218140   5.730   0.515   1.550  0.1486 -0.0674  0.1653
 6045TIP3    H118141   5.693   0.441   1.599  0.4788 -1.4905 -1.6310
 6045TIP3    H218142   5.656   0.549   1.499  0.1906  0.3391  0.3683
 6046TIP3   OH218143   4.239   0.514   3.513  0.3395 -0.0845 -0.1833
 6046TIP3    H118144   4.212   0.480   3.598 -1.0669  1.1965 -0.0809
 6046TIP3    H218145   4.227   0.608   3.520 -1.4579 -0.0658 -2.3319
 6047TIP3   OH218146   4.564   3.668   1.718 -0.5499  0.2910  0.3081
 6047TIP3    H118147   4.547   3.659   1.812 -1.3402 -2.5666 -0.0077
 6047TIP3    H218148   4.610   3.587   1.694  1.3311  1.7634 -1.4806
 6048TIP3   OH218149   4.592   0.655   2.009 -0.2111  0.0203 -0.6302
 6048TIP3    H118150   4.508   0.690   1.979  0.2831  2.1090  0.1861
 6048TIP3    H218151   4.655   0.685   1.943  0.3145  1.3189  0.3991
 6049TIP3   OH218152   5.376   0.133   4.412 -0.3737  0.4773  0.3879
 6049TIP3    H118153   5.406   0.172   4.330 -1.0721  0.5574  0.1625
 6049TIP3    H218154   5.412   0.045   4.411  0.7115  0.9119  0.6165
 6050TIP3   OH218155   2.051   2.018   2.800  0.2098 -0.3498 -0.2783
 6050TIP3    H118156   2.040   1.992   2.892 -0.3505 -0.1684 -0.2936
 6050TIP3    H218157   2.120   2.085   2.803 -0.2234  0.0884  0.0881
 6051TIP3   OH218158   5.906   1.815   4.826  0.5727  0.1990  0.8562
 6051TIP3    H118159   5.899   1.721   4.808 -2.0834  0.5225 -0.3784
 6051TIP3    H218160   5.938   1.853   4.745 -0.2997  0.5350  0.6584
 6052TIP3   OH218161   5.638   1.273   1.944 -0.7087 -0.2268  0.5075
 6052TIP3    H118162   5.718   1.257   1.995  0.2788 -2.9160 -1.6362
 6052TIP3    H218163   5.661   1.346   1.886  0.5476 -1.4086 -0.5722
 6053TIP3   OH218164   1.965   3.113   4.323  0.7153  0.0587 -0.3391
 6053TIP3    H118165   1.993   3.022   4.325  2.2349  0.4937 -0.3491
 6053TIP3    H218166   2.036   3.159   4.278 -0.4164  1.1280 -1.1031
 6054TIP3   OH218167   0.823   5.530   4.382  0.2315  0.5029 -0.3601
 6054TIP3    H118168   0.781   5.613   4.360  1.3181  1.3230  0.5219
 6054TIP3    H218169   0.831   5.483   4.299 -0.4346  1.2675 -0.8597
 6055TIP3   OH218170   2.141   0.388   0.496 -0.2491 -0.0306 -0.5015
 6055TIP3    H118171   2.226   0.362   0.532 -0.2446  0.1680 -0.3682
 6055TIP3    H218172   2.150   0.377   0.401  0.0481  0.3513 -0.5199
 6056TIP3   OH218173   3.636   1.875   2.586 -0.1361  0.4633 -0.4115
 6056TIP3    H118174   3.596   1.914   2.664 -0.9925  2.1342 -1.6093
 6056TIP3    H218175   3.712   1.827   2.619  0.5206  2.5159  1.3024
 6057TIP3   OH218176   3.045   1.350   1.123  0.5969  0.3970  0.0868
 6057TIP3    H118177   3.050   1.394   1.208  1.2222  0.3229  0.0944
 6057TIP3    H218178   3.129   1.369   1.081 -0.0642  1.2158 -0.9179
 6058TIP3   OH218179   2.385   1.893   1.190 -0.4285 -0.0079  0.1826
 6058TIP3    H118180   2.469   1.918   1.151 -0.1848 -2.5909 -1.2131
 6058TIP3    H218181   2.320   1.923   1.127 -0.5549  1.5920  1.0433
 6059TIP3   OH218182   3.714   2.310   0.792 -0.1076 -0.3102  0.0136
 6059TIP3    H118183   3.797   2.277   0.827  0.7493  0.1432 -1.4883
 6059TIP3    H218184   3.678   2.237   0.742 -0.6941 -0.5357  0.7326
 6060TIP3   OH218185   3.996   0.582   4.685 -0.2232 -0.1506  0.2822
 6060TIP3    H118186   3.988   0.523   4.760 -0.6531  0.2175  0.5269
 6060TIP3    H218187   4.061   0.540   4.629  0.1100 -0.4265  0.8648
 6061TIP3   OH218188   4.981   1.122   2.050  0.0489  0.2423 -0.0302
 6061TIP3    H118189   5.006   1.176   1.975  1.7464  1.7735  1.5392
 6061TIP3    H218190   5.060   1.115   2.103 -1.2524 -0.1914  1.9746
 6062TIP3   OH218191   4.927   5.460   2.244 -0.1106  0.1513 -0.4330
 6062TIP3    H118192   4.991   5.428   2.180 -0.5933 -1.4366 -0.1643
 6062TIP3    H218193   4.979   5.511   2.306  0.4863  1.0681 -1.6339
 6063TIP3   OH218194   2.195   4.491   0.518  0.3513  0.3889  0.1184
 6063TIP3    H118195   2.186   4.440   0.599  2.9564 -0.1817  0.1245
 6063TIP3    H218196   2.154   4.575   0.537 -1.9809 -0.8376  0.8969
 6064TIP3   OH218197   0.154   2.602   3.603  0.0056 -0.1880  0.3113
 6064TIP3    H118198   0.070   2.588   3.648  0.7390  0.5392  1.9845
 6064TIP3    H218199   0.219   2.563   3.662  0.7543 -2.5700 -1.8710
 6065TIP3   OH218200   5.909   1.350   4.580 -0.0260 -0.4400 -0.4181
 6065TIP3    H118201   5.959   1.298   4.517  1.8332  1.1817 -0.3569
 6065TIP3    H218202   5.957   1.341   4.662 -0.4435  0.2831 -0.0823
 6066TIP3   OH218203   2.410   5.067   0.782 -0.0651  0.9033  0.0890
 6066TIP3    H118204   2.468   5.002   0.821 -3.4454 -2.4808  0.0466
 6066TIP3    H218205   2.351   5.092   0.853 -2.8250 -1.1626 -1.2857
 6067TIP3   OH218206   6.337   0.475   4.697  0.1987 -0.2459 -0.0405
 6067TIP3    H118207   6.368   0.547   4.641 -0.8331 -0.5482 -1.0582
 6067TIP3    H218208   6.319   0.516   4.781  1.7931  0.2243  0.1025
 6068TIP3   OH218209   3.131   0.581   4.680 -0.0095  0.6026  0.4166
 6068TIP3    H118210   3.093   0.525   4.748  1.4596 -1.4508 -0.3416
 6068TIP3    H218211   3.055   0.617   4.633 -1.0642 -1.6937  0.2416
 6069TIP3   OH218212   3.156   2.226   2.845 -0.5037 -0.0518  0.2759
 6069TIP3    H118213   3.207   2.306   2.859 -0.0859 -0.3600  0.5743
 6069TIP3    H218214   3.094   2.224   2.917 -2.4356  1.4265 -1.2472
 6070TIP3   OH218215   2.522   3.044   1.786  0.2918  0.1769 -0.7774
 6070TIP3    H118216   2.556   2.956   1.770 -0.3284  0.1080 -1.8105
 6070TIP3    H218217   2.431   3.041   1.754  0.2384  1.1617 -0.7609
 6071TIP3   OH218218   2.978   4.948   1.603  0.2720  0.2499  0.4580
 6071TIP3    H118219   3.024   4.864   1.607  1.1444  0.7142  0.3932
 6071TIP3    H218220   2.909   4.934   1.539  0.3101 -0.4714  0.5720
 6072TIP3   OH218221   3.961   0.308   3.689  0.4254 -0.1087 -0.2222
 6072TIP3    H118222   3.994   0.396   3.710 -2.6236  1.1486 -0.1313
 6072TIP3    H218223   4.035   0.250   3.705  2.1830  2.2972  1.0245
 6073TIP3   OH218224   1.491   3.083   2.534 -0.0195 -0.6299  0.4467
 6073TIP3    H118225   1.435   3.025   2.586 -0.7773  1.0708  1.6256
 6073TIP3    H218226   1.432   3.120   2.468 -0.2320  0.7851  1.3797
 6074TIP3   OH218227   4.200   3.453   3.156 -0.2207  0.0271  0.1563
 6074TIP3    H118228   4.161   3.367   3.142 -1.3382  0.8013 -2.0445
 6074TIP3    H218229   4.294   3.439   3.146 -0.4928 -0.7299 -1.8377
 6075TIP3   OH218230   4.760   0.824   2.639 -0.4441  0.4106  0.5700
 6075TIP3    H118231   4.774   0.735   2.606 -1.0911  0.4059  0.2879
 6075TIP3    H218232   4.759   0.815   2.734 -1.4648 -0.0467  0.5290
 6076TIP3   OH218233   1.922   3.205   2.887  0.5696  0.3515  0.7952
 6076TIP3    H118234   1.884   3.150   2.818 -2.6534  0.7315  2.0629
 6076TIP3    H218235   1.888   3.168   2.968  2.3107  1.3483  2.0412
 6077TIP3   OH218236   2.670   0.406   5.037 -0.1538  0.9721 -0.0108
 6077TIP3    H118237   2.665   0.346   5.112  0.2236  0.5609 -0.3142
 6077TIP3    H218238   2.605   0.372   4.976  1.1361 -0.0909 -0.8614
 6078TIP3   OH218239   4.521   1.946   0.863  0.7083  0.4330 -0.8743
 6078TIP3    H118240   4.478   1.862   0.880 -1.0386  1.2742 -0.8912
 6078TIP3    H218241   4.489   1.973   0.777 -2.4081  3.1468  0.9012
 6079TIP3   OH218242   2.836   0.095   1.657  0.3444 -0.5218  0.0903
 6079TIP3    H118243   2.819   0.034   1.585  0.7389 -0.8098  0.2427
 6079TIP3    H218244   2.860   0.039   1.731  0.6596 -0.1822  0.2447
 6080TIP3   OH218245   0.999   3.258   1.145  0.0311  0.4433  0.0235
 6080TIP3    H118246   0.954   3.225   1.067 -1.6186 -0.9723  1.4912
 6080TIP3    H218247   1.048   3.182   1.178  1.9847  1.4381 -0.4143
 6081TIP3   OH218248   3.680   1.500   2.716 -0.4638  0.0279 -0.0714
 6081TIP3    H118249   3.717   1.418   2.747  2.7324  1.4348  0.2190
 6081TIP3    H218250   3.662   1.485   2.623  0.1285 -0.9716 -0.0393
 6082TIP3   OH218251   4.862   5.131   1.361 -0.0149 -0.0423 -0.2397
 6082TIP3    H118252   4.903   5.160   1.279  0.9959 -1.6134 -0.3384
 6082TIP3    H218253   4.925   5.070   1.398 -1.7475 -1.6123  0.2478
 6083TIP3   OH218254   3.439   4.579   4.146 -0.5584  0.1461 -0.4327
 6083TIP3    H118255   3.349   4.602   4.122 -0.6178 -0.3640 -0.7038
 6083TIP3    H218256   3.472   4.530   4.071  0.2974  1.2183 -0.7725
 6084TIP3   OH218257   6.209   5.024   1.071 -0.3431 -0.4225 -0.4602
 6084TIP3    H118258   6.249   5.059   0.991  1.1623  0.1201  0.4761
 6084TIP3    H218259   6.283   4.990   1.121 -1.0198  0.7593  1.4266
 6085TIP3   OH218260   0.608   5.504   2.689  0.4241 -0.1805 -0.2499
 6085TIP3    H118261   0.563   5.585   2.665 -1.1738 -1.1349 -0.6155
 6085TIP3    H218262   0.678   5.532   2.749 -1.4419  1.2747  1.3877
 6086TIP3   OH218263   2.138   4.905   0.147  0.1378 -0.3100  0.4983
 6086TIP3    H118264   2.186   4.829   0.116 -0.3846 -0.6284  0.4690
 6086TIP3    H218265   2.199   4.978   0.135 -0.1948 -0.3312 -1.7373
 6087TIP3   OH218266   0.071   5.569   2.775 -0.1498  0.5920 -0.0094
 6087TIP3    H118267   0.157   5.540   2.744 -0.7496 -0.3181 -0.9139
 6087TIP3    H218268   0.046   5.504   2.840  0.7060  1.9974  1.8099
 6088TIP3   OH218269   4.723   5.530   3.621  0.3014  0.1424  0.4918
 6088TIP3    H118270   4.767   5.486   3.694 -0.0029 -0.6535  0.2045
 6088TIP3    H218271   4.755   5.486   3.543 -1.1307 -0.6035  0.2854
 6089TIP3   OH218272   4.428   1.496   2.738 -0.7403 -0.6825 -0.2643
 6089TIP3    H118273   4.504   1.554   2.743 -2.2627  1.3559  0.8936
 6089TIP3    H218274   4.434   1.456   2.651  0.8337  0.5660 -0.7869
 6090TIP3   OH218275   2.078   1.855   1.583  0.0933  0.3837  0.1894
 6090TIP3    H118276   2.171   1.857   1.559 -0.1105 -0.1616 -0.6711
 6090TIP3    H218277   2.054   1.947   1.590  0.8173  0.5331  0.9129
 6091TIP3   OH218278   2.985   3.518   0.363 -0.1348  0.4117  0.4470
 6091TIP3    H118279   3.079   3.501   0.374  0.1562  1.2586 -0.5294
 6091TIP3    H218280   2.982   3.602   0.318 -1.3277 -0.4719 -1.2147
 6092TIP3   OH218281   1.278   0.153   2.339  0.2120  0.3602 -0.1171
 6092TIP3    H118282   1.206   0.111   2.385  0.5647  0.9077  0.9628
 6092TIP3    H218283   1.314   0.216   2.402  0.0607  1.8817 -1.4758
 6093TIP3   OH218284   5.730   0.662  -0.014  0.4588 -0.1526  0.1263
 6093TIP3    H118285   5.792   0.731   0.011  0.1887 -0.3204  1.3405
 6093TIP3    H218286   5.671   0.655   0.061 -0.6622 -0.4246 -0.7528
 6094TIP3   OH218287   3.359   3.231   5.074 -0.0116  0.2817  0.1922
 6094TIP3    H118288   3.399   3.318   5.074  0.1605  0.2037  0.2332
 6094TIP3    H218289   3.322   3.222   4.986  2.3265 -0.6674 -0.7902
 6095TIP3   OH218290   3.505   1.570   1.358  0.3787  0.2926 -0.2128
 6095TIP3    H118291   3.479   1.626   1.431 -0.7540  1.1627 -1.2330
 6095TIP3    H218292   3.487   1.623   1.280 -1.5001 -1.7389 -1.2747
 6096TIP3   OH218293   4.244   4.808   4.877 -0.2929 -0.2112 -0.2655
 6096TIP3    H118294   4.293   4.867   4.819  0.9353 -1.1627 -0.2275
 6096TIP3    H218295   4.259   4.843   4.965 -0.6667  0.1907 -0.3617
 6097TIP3   OH218296   2.460   0.183   3.927 -0.3984 -0.5857 -0.3777
 6097TIP3    H118297   2.487   0.170   4.018  0.2247 -2.3141 -0.7860
 6097TIP3    H218298   2.448   0.095   3.892  3.1939 -0.1802 -3.1186
 6098TIP3   OH218299   5.941   0.333   4.280 -0.5953 -0.1081 -0.1917
 6098TIP3    H118300   5.906   0.280   4.208 -0.6450 -0.8667  0.3778
 6098TIP3    H218301   5.868   0.389   4.306 -0.7003 -0.1148 -0.4719
 6099TIP3   OH218302   2.056   5.985   4.392 -0.1782  0.0344  0.7391
 6099TIP3    H118303   2.042   5.891   4.401 -1.1764  0.2311  1.5218
 6099TIP3    H218304   1.974   6.017   4.354  0.7769  0.3876 -1.1217
 6100TIP3   OH218305   6.174   4.257   4.498  0.3564  0.2147 -0.3030
 6100TIP3    H118306   6.115   4.209   4.557  1.6539  0.1010  0.9680
 6100TIP3    H218307   6.157   4.221   4.411 -1.6019  0.3731 -0.0170
 6101TIP3   OH218308   2.432   0.801   3.519  0.8089  0.4502  0.7514
 6101TIP3    H118309   2.445   0.853   3.439 -0.2990  0.5075  0.5831
 6101TIP3    H218310   2.375   0.729   3.491 -0.9606  1.3719  1.8056
 6102TIP3   OH218311   2.331   4.982   0.508  0.1629  0.0363 -0.0630
 6102TIP3    H118312   2.329   5.037   0.430  2.2805 -0.8126 -0.7837
 6102TIP3    H218313   2.394   5.025   0.566  0.7439 -0.8438 -0.0229
 6103TIP3   OH218314   5.288   2.431   3.260 -0.1491  0.4229  0.0540
 6103TIP3    H118315   5.230   2.501   3.288 -1.0386  0.0697 -0.8799
 6103TIP3    H218316   5.376   2.463   3.281 -0.3639  2.6787 -2.1434
 6104TIP3   OH218317   0.495   4.016   3.485 -0.2837 -0.5658  0.4850
 6104TIP3    H118318   0.491   4.079   3.413 -0.1170  0.1407  1.0762
 6104TIP3    H218319   0.579   4.034   3.528 -1.0098  0.0388  1.7252
 6105TIP3   OH218320   2.514   2.712   2.142  0.3287 -0.3785 -0.1134
 6105TIP3    H118321   2.582   2.770   2.106  0.7841 -1.4872 -1.1122
 6105TIP3    H218322   2.478   2.668   2.065 -0.0108 -1.4145  0.6215
 6106TIP3   OH218323   2.178   1.100   4.014 -0.4198 -0.5313 -0.1306
 6106TIP3    H118324   2.180   1.116   4.109  1.9360  0.0794 -0.2261
 6106TIP3    H218325   2.210   1.011   4.004  0.7022 -0.1019 -0.4189
 6107TIP3   OH218326   6.184   4.877   3.012  0.9722  0.2261 -0.0209
 6107TIP3    H118327   6.111   4.819   3.036  1.8180 -0.3853  1.1676
 6107TIP3    H218328   6.170   4.956   3.064  0.9000  0.3173 -0.1750
 6108TIP3   OH218329   2.155   4.124   0.438 -0.2884 -0.3611  0.1698
 6108TIP3    H118330   2.093   4.051   0.444  0.3853 -0.9494  0.0229
 6108TIP3    H218331   2.241   4.082   0.436  0.3249  0.5111  3.1849
 6109TIP3   OH218332   5.502   4.134   2.044  0.2140  0.0980 -0.2656
 6109TIP3    H118333   5.412   4.135   2.079  0.3502 -1.0142  0.1665
 6109TIP3    H218334   5.547   4.202   2.093 -0.7220  1.6191 -1.4418
 6110TIP3   OH218335   2.429   2.420   4.470  0.2360 -0.1011  0.6572
 6110TIP3    H118336   2.501   2.404   4.531 -1.3737 -2.4235  2.1373
 6110TIP3    H218337   2.373   2.483   4.515 -0.4081 -1.0066  1.1700
 6111TIP3   OH218338   1.920   0.382   0.048 -0.5310  0.3708  0.4434
 6111TIP3    H118339   1.853   0.346   0.105 -0.1699 -0.2689  0.4758
 6111TIP3    H218340   1.931   0.316  -0.021  0.7385  0.0003  0.9687
 6112TIP3   OH218341   5.146   5.132   4.382 -0.4192 -0.2180 -0.1636
 6112TIP3    H118342   5.235   5.122   4.349  0.2432 -3.4601  2.1859
 6112TIP3    H218343   5.157   5.173   4.468 -1.3237  0.3527 -0.3058
 6113TIP3   OH218344   3.801   0.592   3.808  0.0143  0.6254  0.4590
 6113TIP3    H118345   3.829   0.524   3.869  0.2815 -0.0268 -0.3612
 6113TIP3    H218346   3.866   0.661   3.816 -0.1273  0.6846  1.1305
 6114TIP3   OH218347   0.365   0.239   3.817 -0.1132  0.3415  0.0815
 6114TIP3    H118348   0.450   0.209   3.786  0.5056  1.4840  0.5858
 6114TIP3    H218349   0.317   0.262   3.738  0.3986  0.5560 -0.1726
 6115TIP3   OH218350   5.230   4.144   5.184  0.1664 -0.5056  0.4472
 6115TIP3    H118351   5.216   4.072   5.122  1.0203  0.0405 -0.4225
 6115TIP3    H218352   5.306   4.117   5.235  0.1042 -0.4987  0.5431
 6116TIP3   OH218353   2.334   3.518   2.377 -0.0192  0.4897 -0.7697
 6116TIP3    H118354   2.317   3.481   2.464  1.0546  2.5224  0.3769
 6116TIP3    H218355   2.257   3.493   2.325 -1.5811  0.7591  1.2758
 6117TIP3   OH218356   2.747   4.963   4.081 -0.1881  0.6709 -0.0067
 6117TIP3    H118357   2.778   4.920   4.001 -0.4760  0.6510 -0.1076
 6117TIP3    H218358   2.717   5.049   4.053  0.4667  0.9715  0.2105
 6118TIP3   OH218359   4.408   2.191   2.220  0.4053 -0.3604  0.2133
 6118TIP3    H118360   4.437   2.102   2.241  0.7066 -0.5832 -1.0839
 6118TIP3    H218361   4.313   2.188   2.231  0.5543 -0.3559  1.8353
 6119TIP3   OH218362   5.196   0.548   0.665 -0.0217  0.0496 -0.0469
 6119TIP3    H118363   5.141   0.533   0.588  2.4357  1.5710 -2.2900
 6119TIP3    H218364   5.285   0.552   0.630  1.1174  1.8970  2.7137
 6120TIP3   OH218365   4.871   3.117   1.908  0.0417 -0.5073 -0.5439
 6120TIP3    H118366   4.913   3.084   1.987  0.3581  0.1629 -0.4261
 6120TIP3    H218367   4.783   3.080   1.910 -1.0926  2.0033  1.7982
 6121TIP3   OH218368   6.218   4.305   4.126  0.1968 -0.3778  0.3218
 6121TIP3    H118369   6.245   4.240   4.191  2.1281  0.6680  0.6699
 6121TIP3    H218370   6.201   4.384   4.177  2.2066  0.5964 -0.3949
 6122TIP3   OH218371   5.286   0.887   4.326  0.2967 -0.3464 -0.4598
 6122TIP3    H118372   5.373   0.920   4.349 -0.4162  0.7477  0.8479
 6122TIP3    H218373   5.299   0.794   4.310  1.9433  0.0503 -1.7203
 6123TIP3   OH218374   1.013   3.104   5.017  0.9331 -0.3777  0.2400
 6123TIP3    H118375   1.094   3.094   4.967  1.7023  1.6374  0.9854
 6123TIP3    H218376   1.039   3.149   5.097 -0.9619  0.7397  0.3027
 6124TIP3   OH218377   5.656   2.422   0.858  0.0358  0.6290 -0.2129
 6124TIP3    H118378   5.713   2.471   0.917 -3.2873  2.9648  1.3396
 6124TIP3    H218379   5.625   2.488   0.795 -0.5068 -0.7078 -1.3993
 6125TIP3   OH218380   0.158   1.523   2.231 -0.0170 -0.0052 -0.8125
 6125TIP3    H118381   0.216   1.451   2.207 -1.0503 -0.7312 -1.1426
 6125TIP3    H218382   0.164   1.584   2.158 -0.6526 -0.6855 -1.4434
 6126TIP3   OH218383   1.597   0.047   5.187  0.5115 -0.0795  0.3910
 6126TIP3    H118384   1.520   0.016   5.140  1.1390 -1.5466  0.2615
 6126TIP3    H218385   1.666  -0.015   5.163  1.1821 -0.0887  2.1930
 6127TIP3   OH218386   0.938   5.482   4.104 -0.4602 -0.7910 -0.3101
 6127TIP3    H118387   0.987   5.481   4.022  1.2476  0.9255  0.6023
 6127TIP3    H218388   0.983   5.548   4.158 -2.8268 -0.2936  1.2034
 6128TIP3   OH218389   2.191   1.891   2.390  0.1179  0.4104  0.0525
 6128TIP3    H118390   2.128   1.878   2.319  0.2536  0.7006 -0.1193
 6128TIP3    H218391   2.159   1.833   2.460 -0.6924  0.9984  0.1916
 6129TIP3   OH218392   3.878   3.728   2.052 -0.2825 -0.0181  0.2707
 6129TIP3    H118393   3.825   3.739   1.973  0.6510  1.7862 -0.1540
 6129TIP3    H218394   3.961   3.771   2.032  0.5854 -0.9390  1.6727
 6130TIP3   OH218395   5.091   1.134   1.328 -0.2513  0.1182 -0.0138
 6130TIP3    H118396   5.070   1.227   1.328  1.5888  0.6257 -2.0523
 6130TIP3    H218397   5.167   1.126   1.386 -0.4679 -0.1262  0.2384
 6131TIP3   OH218398   3.987   4.616   4.456  0.6598  0.2280  0.7261
 6131TIP3    H118399   3.961   4.651   4.541  0.4727 -0.2732  0.8803
 6131TIP3    H218400   3.959   4.524   4.459 -1.2865  0.7140 -0.6674
 6132TIP3   OH218401   2.845   1.280   4.270 -0.4627 -0.3363 -0.3000
 6132TIP3    H118402   2.754   1.312   4.269 -1.3618 -2.6930  0.2837
 6132TIP3    H218403   2.838   1.187   4.289  2.2312 -0.2260  1.8029
 6133TIP3   OH218404   1.797   4.736   0.338  0.0094 -0.2519  0.1239
 6133TIP3    H118405   1.870   4.704   0.392 -0.6289 -0.3851  0.9225
 6133TIP3    H218406   1.824   4.717   0.248  0.4941 -1.2717  0.4677
 6134TIP3   OH218407   5.077   0.589   3.554 -0.1989 -0.4370  0.2965
 6134TIP3    H118408   5.060   0.681   3.535  0.3808 -0.2934  0.4470
 6134TIP3    H218409   5.044   0.542   3.477  0.8356  0.0228 -0.4534
 6135TIP3   OH218410   4.359   2.567   0.225  0.2455  0.1400 -0.5648
 6135TIP3    H118411   4.418   2.548   0.298  0.7602  0.1226 -0.9826
 6135TIP3    H218412   4.352   2.484   0.178 -0.4480  0.0297 -0.2852
 6136TIP3   OH218413   3.822   3.996   4.787  0.0978  0.4487  0.2410
 6136TIP3    H118414   3.855   4.083   4.812 -0.8328  0.6868  0.6786
 6136TIP3    H218415   3.750   3.979   4.848 -0.0771 -0.4085 -0.1843
 6137TIP3   OH218416   0.875   4.740   1.748  0.3422  0.5484 -0.0848
 6137TIP3    H118417   0.841   4.749   1.837 -0.2364 -0.0999 -0.2309
 6137TIP3    H218418   0.811   4.684   1.704  0.6017  0.9006 -0.9216
 6138TIP3   OH218419   4.417   2.924   2.806 -0.0243  0.5439 -0.4686
 6138TIP3    H118420   4.429   3.016   2.829  0.7565  0.5208 -0.7670
 6138TIP3    H218421   4.486   2.906   2.743  0.2943 -0.4521  0.1518
 6139TIP3   OH218422   3.197   0.555   3.850  0.0071 -0.5173 -0.0196
 6139TIP3    H118423   3.293   0.552   3.859 -0.0553  1.2863  2.4949
 6139TIP3    H218424   3.165   0.508   3.927 -1.2353 -2.6811 -1.7515
 6140TIP3   OH218425   4.465   3.778   3.803  0.0871 -0.5999  0.1635
 6140TIP3    H118426   4.393   3.747   3.748  1.2151 -1.8716 -0.6500
 6140TIP3    H218427   4.494   3.701   3.850 -0.6867  0.4136  2.4500
 6141TIP3   OH218428   4.359   3.901   4.350 -0.9809  0.4000 -0.1629
 6141TIP3    H118429   4.376   3.932   4.261 -0.8416  2.5221  0.5668
 6141TIP3    H218430   4.303   3.968   4.389 -0.2758 -0.0247  1.6529
 6142TIP3   OH218431   1.295   1.987   1.550 -0.4888  0.2941  0.5233
 6142TIP3    H118432   1.327   2.065   1.506 -0.5563  0.3815  0.6279
 6142TIP3    H218433   1.333   1.914   1.501 -0.1436  0.3951  0.6385
 6143TIP3   OH218434   5.853   5.730   4.790  0.1482 -0.6233  0.4648
 6143TIP3    H118435   5.928   5.770   4.746 -0.3850 -0.2542 -0.1256
 6143TIP3    H218436   5.779   5.744   4.730 -0.3058 -1.3682  0.8308
 6144TIP3   OH218437   3.384   1.882   2.207  0.1521  0.0309  0.1574
 6144TIP3    H118438   3.410   1.890   2.299 -0.8474  0.6461  0.3940
 6144TIP3    H218439   3.366   1.789   2.196  0.2895 -0.0500  0.5750
 6145TIP3   OH218440   0.397   4.883   2.388  0.4560  0.1845  0.0908
 6145TIP3    H118441   0.459   4.940   2.342 -1.4536  0.7572 -1.9608
 6145TIP3    H218442   0.323   4.941   2.409 -0.6499 -1.0873 -0.1861
 6146TIP3   OH218443   3.545   0.762   2.302 -0.2373  0.6127  0.4691
 6146TIP3    H118444   3.525   0.803   2.387 -1.2129  2.0447 -0.4019
 6146TIP3    H218445   3.497   0.679   2.304 -1.2128  1.1672  0.8806
 6147TIP3   OH218446   1.701   4.809   0.850  0.3237  0.2041  0.1193
 6147TIP3    H118447   1.786   4.833   0.888  0.4549 -1.2683  0.8295
 6147TIP3    H218448   1.683   4.878   0.786  2.2054  0.3791 -0.2803
 6148TIP3   OH218449   1.668   2.448   0.853 -0.2693  0.1214  0.0026
 6148TIP3    H118450   1.677   2.539   0.882  0.5953  0.3731 -0.9947
 6148TIP3    H218451   1.576   2.426   0.869 -0.1107  0.5953  1.8566
 6149TIP3   OH218452   1.763   5.694   3.359  0.1095 -0.0756  0.6055
 6149TIP3    H118453   1.793   5.780   3.328 -1.2908  0.9700  1.9550
 6149TIP3    H218454   1.673   5.709   3.388 -0.3502 -2.1445  0.3993
 6150TIP3   OH218455   4.400   5.258   1.405 -0.2886 -0.3887  0.3044
 6150TIP3    H118456   4.466   5.209   1.455 -0.1973 -0.3998  0.1746
 6150TIP3    H218457   4.451   5.306   1.340 -0.2794  0.7637  1.1472
 6151TIP3   OH218458   0.286   3.542   3.649  0.7033  0.2966  0.4977
 6151TIP3    H118459   0.352   3.611   3.644 -0.9636  1.9460  0.1615
 6151TIP3    H218460   0.233   3.565   3.725 -0.0639 -0.4647  0.2074
 6152TIP3   OH218461   0.035   4.762   0.925  0.0932 -0.0009 -0.6237
 6152TIP3    H118462   0.044   4.845   0.877  0.2632 -0.1088 -0.7810
 6152TIP3    H218463   0.043   4.786   1.017 -0.1957  0.2040 -0.6507
 6153TIP3   OH218464   0.817   1.511   0.865  0.5019  0.0118  0.4043
 6153TIP3    H118465   0.846   1.528   0.955  2.5528  1.1609 -0.3867
 6153TIP3    H218466   0.756   1.581   0.846  2.3731  1.6300 -0.0105
 6154TIP3   OH218467   2.375   3.432   0.580  0.1583 -0.7808 -0.3112
 6154TIP3    H118468   2.383   3.520   0.543 -0.7403 -0.4287  0.2816
 6154TIP3    H218469   2.335   3.380   0.510 -1.3133 -0.1786  0.0336
 6155TIP3   OH218470   3.046   0.734   3.116  0.4058 -0.3837  0.5605
 6155TIP3    H118471   3.007   0.719   3.202  0.6170  0.5017  0.8192
 6155TIP3    H218472   3.033   0.651   3.069 -0.9553 -0.4277  0.9614
 6156TIP3   OH218473   1.337   4.463   4.231  0.8272  0.4852  0.7270
 6156TIP3    H118474   1.359   4.465   4.324  0.6785  0.8001  0.7571
 6156TIP3    H218475   1.386   4.537   4.193  1.7251 -0.2730  0.3624
 6157TIP3   OH218476   5.341   5.017   2.376 -0.3242 -0.7457 -0.9718
 6157TIP3    H118477   5.298   5.071   2.442  0.3564 -1.6697  0.2818
 6157TIP3    H218478   5.315   5.055   2.292 -2.8697 -0.7551 -0.2674
 6158TIP3   OH218479   5.836   2.471   2.214  0.0501  0.2473  0.0102
 6158TIP3    H118480   5.741   2.479   2.215 -0.0320 -0.5093 -0.5144
 6158TIP3    H218481   5.868   2.559   2.236 -0.7630  0.4380  0.4625
 6159TIP3   OH218482   0.362   2.322   3.683 -0.1365  0.1706  0.3126
 6159TIP3    H118483   0.365   2.330   3.587 -0.9587  1.0295  0.3475
 6159TIP3    H218484   0.326   2.235   3.699 -1.1017  0.4628 -0.1760
 6160TIP3   OH218485   0.510   4.088   1.162  0.3781 -0.0048  0.6473
 6160TIP3    H118486   0.432   4.035   1.179  0.3067  0.1855  0.9061
 6160TIP3    H218487   0.495   4.125   1.075  0.5124 -0.5544  0.3781
 6161TIP3   OH218488   5.766   1.276   3.664  0.1342 -0.1244 -0.1377
 6161TIP3    H118489   5.782   1.233   3.748 -0.0204 -1.1577 -0.6231
 6161TIP3    H218490   5.853   1.295   3.630  0.2362 -0.8804 -0.3227
 6162TIP3   OH218491   5.796   2.595   1.046  0.0463  0.5637 -0.1455
 6162TIP3    H118492   5.825   2.543   1.121 -0.4146 -0.1960 -0.4820
 6162TIP3    H218493   5.849   2.675   1.050  0.7590  0.0741  0.3859
 6163TIP3   OH218494   5.057   3.004   1.741  0.0982 -0.0204 -0.3402
 6163TIP3    H118495   5.040   2.910   1.746 -1.5776  0.1608 -1.6517
 6163TIP3    H218496   5.003   3.042   1.810  2.7748 -0.1495  1.9888
 6164TIP3   OH218497   3.071   4.570   1.875  0.3888 -0.1356  0.4936
 6164TIP3    H118498   3.022   4.503   1.922  0.1712  0.8926  1.7812
 6164TIP3    H218499   3.148   4.523   1.841 -0.1190 -1.1840  0.7288
 6165TIP3   OH218500   6.081   1.975   3.219 -0.3577  0.1697  0.3961
 6165TIP3    H118501   6.072   2.059   3.173 -0.2737  1.1438  2.1031
 6165TIP3    H218502   6.025   1.915   3.168  0.1548  1.0361 -1.2856
 6166TIP3   OH218503   5.589   2.257   2.721 -0.2068  0.1680 -0.7775
 6166TIP3    H118504   5.657   2.242   2.654  1.2977  0.1499  0.6819
 6166TIP3    H218505   5.592   2.352   2.736  0.4302  0.0009  0.2133
 6167TIP3   OH218506   4.582   4.191   4.922 -0.0432  0.8040  0.1641
 6167TIP3    H118507   4.615   4.214   4.835 -1.0295 -0.3739 -0.5504
 6167TIP3    H218508   4.656   4.146   4.964  0.4444  1.3901 -0.0379
 6168TIP3   OH218509   4.439   1.380   4.883 -0.5602  0.3301  0.2112
 6168TIP3    H118510   4.404   1.343   4.802  2.8846 -2.0359 -0.3840
 6168TIP3    H218511   4.452   1.306   4.941  0.4861  1.4692  1.5232
 6169TIP3   OH218512   5.083   0.544   2.897  0.0399 -0.6266  0.2470
 6169TIP3    H118513   5.025   0.594   2.840 -0.1530 -0.4062  0.6335
 6169TIP3    H218514   5.170   0.578   2.877 -0.2804  1.6743  2.2379
 6170TIP3   OH218515   1.759   0.244   4.795  0.4075  0.2665  0.0072
 6170TIP3    H118516   1.751   0.332   4.759 -2.9106  1.2345  2.5374
 6170TIP3    H218517   1.682   0.198   4.764  0.7352 -0.8857  0.8165
 6171TIP3   OH218518   1.246   5.708   3.945  0.1473 -0.2274  0.2435
 6171TIP3    H118519   1.195   5.630   3.966 -0.5325 -0.0590 -0.7248
 6171TIP3    H218520   1.219   5.773   4.009  0.0980 -0.5261  0.5281
 6172TIP3   OH218521   3.417   4.122   4.095  0.2667 -0.8148  0.0716
 6172TIP3    H118522   3.497   4.171   4.114 -0.3973 -0.5033  2.3017
 6172TIP3    H218523   3.347   4.177   4.128 -0.7903 -1.6612 -0.6954
 6173TIP3   OH218524   6.188   3.272   3.521  0.3351  0.5041  0.0560
 6173TIP3    H118525   6.233   3.304   3.599  1.6282  2.4810 -1.4148
 6173TIP3    H218526   6.189   3.345   3.460 -1.7343 -0.5685 -1.4166
 6174TIP3   OH218527   4.345   1.865   3.007  0.9635 -0.3413 -0.6058
 6174TIP3    H118528   4.398   1.922   3.062 -2.1461  1.2192  1.0665
 6174TIP3    H218529   4.372   1.776   3.032  2.2170  0.3579  0.6753
 6175TIP3   OH218530   4.119   3.763   3.508 -0.2810 -0.5458 -0.0354
 6175TIP3    H118531   4.137   3.737   3.417  1.8081 -1.4947  0.5807
 6175TIP3    H218532   4.037   3.813   3.503 -1.3146 -2.2515 -2.1520
 6176TIP3   OH218533   6.235   3.240   0.171  0.8130  0.2683 -0.6769
 6176TIP3    H118534   6.229   3.201   0.258  2.8632  2.3254  0.4932
 6176TIP3    H218535   6.162   3.302   0.166  1.4721  1.1224  0.1380
 6177TIP3   OH218536   2.695   4.339   4.555  0.0126 -0.5653  0.6028
 6177TIP3    H118537   2.789   4.357   4.548  0.4311 -0.5798  4.1855
 6177TIP3    H218538   2.654   4.408   4.503  1.9923  0.4192  0.2353
 6178TIP3   OH218539   4.791   0.860   3.603  0.1004 -0.3168 -0.2612
 6178TIP3    H118540   4.820   0.939   3.558 -2.0325  0.4124 -0.4973
 6178TIP3    H218541   4.856   0.845   3.671  0.3176  1.9075  0.0828
 6179TIP3   OH218542   0.072   2.902   0.905  0.2425 -0.6053  0.0938
 6179TIP3    H118543   0.123   2.946   0.973 -0.3963 -1.2269  0.9872
 6179TIP3    H218544  -0.019   2.911   0.933 -0.3453  1.6290 -2.1360
 6180TIP3   OH218545   0.657   1.980   3.154  0.1048  0.1965 -0.2367
 6180TIP3    H118546   0.645   1.885   3.154  0.4812  0.1497 -0.0924
 6180TIP3    H218547   0.744   1.994   3.118 -0.3310  0.5397 -1.1860
 6181TIP3   OH218548   5.126   0.058   3.292 -0.2089  0.7551 -0.2870
 6181TIP3    H118549   5.031   0.054   3.287 -0.1611  1.2004 -3.1092
 6181TIP3    H218550   5.154  -0.033   3.297 -0.7498  0.6174  0.3966
 6182TIP3   OH218551   4.200   5.386   2.633  0.8678 -0.0315 -0.2184
 6182TIP3    H118552   4.136   5.315   2.639  1.3075 -0.3627  0.8981
 6182TIP3    H218553   4.173   5.437   2.556 -1.1058  0.2265  0.5892
 6183TIP3   OH218554   2.827   5.904   2.729 -0.1909  0.6730  0.5404
 6183TIP3    H118555   2.915   5.879   2.759 -0.9253 -0.5921  1.7710
 6183TIP3    H218556   2.812   5.850   2.652 -0.5682 -0.4412  1.3802
 6184TIP3   OH218557   4.717   1.117   3.371 -0.2829  0.4242 -0.5956
 6184TIP3    H118558   4.698   1.192   3.315  0.7431  0.4603 -0.9147
 6184TIP3    H218559   4.764   1.154   3.446 -0.6039  0.2225 -0.2928
 6185TIP3   OH218560   4.234   0.689   2.553 -0.5796  0.3022  0.1588
 6185TIP3    H118561   4.165   0.752   2.577 -1.1593 -0.7390  1.3279
 6185TIP3    H218562   4.309   0.744   2.529 -1.2738  1.4493  0.5342
 6186TIP3   OH218563   2.748   5.957   3.356 -0.2530  0.0198 -0.1072
 6186TIP3    H118564   2.686   5.884   3.350  1.6055 -1.7291  0.6601
 6186TIP3    H218565   2.707   6.028   3.307 -2.3553 -1.3924 -0.5135
 6187TIP3   OH218566   6.250   3.681   0.854 -0.2140  0.1401  0.2472
 6187TIP3    H118567   6.195   3.678   0.932  0.0680  3.3557  0.7359
 6187TIP3    H218568   6.322   3.621   0.872 -1.0462 -0.4644  1.6978
 6188TIP3   OH218569   1.197   2.158   4.070  0.5572  0.1171 -0.1695
 6188TIP3    H118570   1.228   2.170   4.160 -0.3044  0.1756  0.1321
 6188TIP3    H218571   1.140   2.234   4.054 -1.9495 -1.5140  0.4264
 6189TIP3   OH218572   2.036   0.209   4.784  0.0248  0.0763 -0.1334
 6189TIP3    H118573   1.942   0.222   4.795 -0.0351  0.0087 -0.5457
 6189TIP3    H218574   2.061   0.150   4.855 -0.2665  0.0033 -0.0918
 6190TIP3   OH218575   4.013   0.773   5.140  0.0380 -0.0328  0.4974
 6190TIP3    H118576   4.032   0.867   5.146 -0.4227  0.0394  0.9373
 6190TIP3    H218577   4.089   0.731   5.180 -0.4168  0.2295  1.6910
 6191TIP3   OH218578   6.355   3.976   0.420  0.0068 -0.7985  0.0331
 6191TIP3    H118579   6.339   4.003   0.329 -1.4420  1.4874  0.8759
 6191TIP3    H218580   6.276   3.928   0.445 -0.9511  1.1388  0.9228
 6192TIP3   OH218581   0.874   2.892   1.951  0.0116 -0.3186  0.1775
 6192TIP3    H118582   0.838   2.870   1.865 -1.6487  0.4010  0.6506
 6192TIP3    H218583   0.937   2.962   1.933  1.4041 -1.7406 -0.6918
 6193TIP3   OH218584   4.739   0.332   3.745 -0.1981 -0.3294  0.0353
 6193TIP3    H118585   4.722   0.423   3.721 -1.1885 -0.5848 -0.2947
 6193TIP3    H218586   4.699   0.323   3.832  1.8805  0.1319  1.1094
 6194TIP3   OH218587   1.235   4.607   4.829  0.1371 -0.4594 -0.6953
 6194TIP3    H118588   1.188   4.668   4.773  0.2181 -0.4887 -0.7970
 6194TIP3    H218589   1.167   4.566   4.883 -0.1932 -1.7810 -2.0457
 6195TIP3   OH218590   0.726   3.559   1.683  0.3736 -0.2701  0.5695
 6195TIP3    H118591   0.637   3.593   1.681 -0.5516 -2.4407 -2.0639
 6195TIP3    H218592   0.717   3.466   1.660  3.2855 -0.6013  0.3196
 6196TIP3   OH218593   0.555   5.683   3.251 -0.1905 -0.3701 -0.2887
 6196TIP3    H118594   0.574   5.771   3.285  1.1136 -1.3103  1.5855
 6196TIP3    H218595   0.549   5.628   3.329 -2.1069 -1.7912 -1.3567
 6197TIP3   OH218596   5.839   5.899   4.173 -0.3280  0.9235  0.1919
 6197TIP3    H118597   5.843   5.880   4.266 -0.2133 -0.0668 -0.0006
 6197TIP3    H218598   5.929   5.889   4.142 -0.2604  1.8362  0.0809
 6198TIP3   OH218599   4.446   3.188   2.859 -0.1416  0.5793 -0.0768
 6198TIP3    H118600   4.510   3.205   2.929 -0.7677  1.0527  0.3920
 6198TIP3    H218601   4.450   3.266   2.803 -0.1427  0.5078 -0.1766
 6199TIP3   OH218602   2.307   1.297   2.181  0.1810 -0.9475 -0.3595
 6199TIP3    H118603   2.242   1.234   2.211  0.4131 -1.0034  0.0287
 6199TIP3    H218604   2.329   1.348   2.259  1.0409 -1.3204 -0.3514
 6200TIP3   OH218605   3.985   2.014   0.005  0.2339  0.0122 -0.4348
 6200TIP3    H118606   4.052   1.981  -0.054 -0.9348 -2.0948 -0.6864
 6200TIP3    H218607   3.991   1.958   0.082 -0.0361  0.9962  0.3319
 6201TIP3   OH218608   3.553   1.235   3.016 -0.3748 -0.3753 -0.0904
 6201TIP3    H118609   3.595   1.220   2.931 -1.4158  0.8819 -0.8791
 6201TIP3    H218610   3.566   1.329   3.032 -3.2943  0.2100 -0.6552
 6202TIP3   OH218611   3.939   1.347   0.116 -0.2135 -0.0921 -0.3969
 6202TIP3    H118612   3.891   1.267   0.095 -0.8053  0.0539  0.3563
 6202TIP3    H218613   3.900   1.378   0.198  2.8550 -1.3677  1.7660
 6203TIP3   OH218614   6.337   5.394   2.400  0.0179 -0.0635  0.1095
 6203TIP3    H118615   6.400   5.463   2.420 -0.5057  0.4807 -0.0813
 6203TIP3    H218616   6.253   5.440   2.390  0.1050 -0.3355 -2.6488
 6204TIP3   OH218617   6.218   3.446   1.382 -0.0714 -0.2875 -0.5193
 6204TIP3    H118618   6.307   3.445   1.347 -0.3626 -3.7405 -1.5454
 6204TIP3    H218619   6.162   3.424   1.308 -1.7978  1.3477  0.2056
 6205TIP3   OH218620   2.408   3.805   3.601  0.2507  0.3265 -0.4496
 6205TIP3    H118621   2.346   3.735   3.582 -0.0789  0.4843  0.0357
 6205TIP3    H218622   2.354   3.877   3.634  0.8270 -0.0069  1.2914
 6206TIP3   OH218623   2.782   0.913   5.101 -0.6625  0.1127  0.2080
 6206TIP3    H118624   2.859   0.925   5.156  0.5878 -0.0226 -1.4144
 6206TIP3    H218625   2.816   0.873   5.021 -2.2090  1.2339 -1.0748
 6207TIP3   OH218626   0.364   1.794   2.788  0.3630  0.0413  0.2499
 6207TIP3    H118627   0.328   1.706   2.780  0.3849 -0.1530  1.9375
 6207TIP3    H218628   0.441   1.783   2.844  1.2885  0.9094 -0.8185
 6208TIP3   OH218629   1.004   2.999   4.384  0.2889  0.0136  0.2197
 6208TIP3    H118630   1.098   2.987   4.371  0.6436 -0.5927  2.8074
 6208TIP3    H218631   0.967   2.912   4.373  0.1573  0.0763  0.1602
 6209TIP3   OH218632   5.281   1.923   4.777 -0.3843  0.1365  0.1794
 6209TIP3    H118633   5.250   1.892   4.692 -0.5588  0.5723  0.0853
 6209TIP3    H218634   5.367   1.960   4.759 -0.9119  1.3048 -0.0244
 6210TIP3   OH218635   4.392   2.987   2.066 -0.3250 -0.4441 -0.5778
 6210TIP3    H118636   4.442   2.964   1.988  0.4848 -1.9728  0.3371
 6210TIP3    H218637   4.312   2.936   2.059 -0.1283 -0.7975 -0.2851
 6211TIP3   OH218638   1.986   4.659   0.576 -0.1750  0.2644 -0.1015
 6211TIP3    H118639   1.977   4.744   0.534  0.6546  0.7396  0.6444
 6211TIP3    H218640   2.014   4.679   0.666 -0.0810 -0.7814  0.1193
 6212TIP3   OH218641   4.303   4.162   4.466 -0.3511 -0.1862 -0.4200
 6212TIP3    H118642   4.264   4.238   4.510 -2.3872 -2.4335  2.0345
 6212TIP3    H218643   4.369   4.130   4.528 -1.4505 -1.9333 -0.0885
 6213TIP3   OH218644   3.756   4.818   4.470  0.8578 -0.1320 -0.2243
 6213TIP3    H118645   3.809   4.813   4.549  0.4872 -1.9222 -0.0392
 6213TIP3    H218646   3.803   4.762   4.407 -0.6109 -1.5547 -0.1286
 6214TIP3   OH218647   0.223   5.940   1.844 -0.1485 -0.3948  0.2440
 6214TIP3    H118648   0.301   5.989   1.818 -0.1761 -1.5427 -2.2726
 6214TIP3    H218649   0.150   5.999   1.824 -0.0645 -0.5051 -0.3942
 6215TIP3   OH218650   5.128   3.993   1.121 -0.5805  0.6308  0.2671
 6215TIP3    H118651   5.154   4.044   1.198 -1.7093  2.2777 -0.3992
 6215TIP3    H218652   5.186   4.025   1.052 -0.4288  0.0616  0.1285
 6216TIP3   OH218653   5.695   3.442   0.483  0.1910 -0.4287 -0.2670
 6216TIP3    H118654   5.716   3.383   0.410  1.0680 -0.9456  0.3841
 6216TIP3    H218655   5.781   3.472   0.514 -0.1066 -0.9572  1.1450
 6217TIP3   OH218656   5.696   3.087   3.013 -0.2452 -0.3858 -0.4599
 6217TIP3    H118657   5.790   3.076   3.023 -0.2061 -0.9599 -1.2993
 6217TIP3    H218658   5.677   3.173   3.049  0.5170 -0.4901  0.2048
 6218TIP3   OH218659   0.674   1.879   3.852 -0.4545  0.0182 -0.1221
 6218TIP3    H118660   0.765   1.895   3.877 -0.0726  1.3482 -2.0929
 6218TIP3    H218661   0.654   1.792   3.887  2.0034 -0.8766 -0.7483
 6219TIP3   OH218662   1.003   0.228   3.890 -0.0924 -0.2368 -0.3775
 6219TIP3    H118663   1.059   0.301   3.865 -2.1830  0.8852 -2.1069
 6219TIP3    H218664   0.967   0.195   3.808 -0.2269 -2.4205  0.4708
 6220TIP3   OH218665   1.649   1.515   4.607  0.5013  0.3561  0.3094
 6220TIP3    H118666   1.617   1.543   4.521 -0.1889  0.9367  0.7505
 6220TIP3    H218667   1.740   1.490   4.591  0.3754  0.4300 -0.5949
 6221TIP3   OH218668   5.697   4.325   2.697  0.2976 -0.0578  0.0477
 6221TIP3    H118669   5.682   4.419   2.709  0.8623  0.1887 -1.0798
 6221TIP3    H218670   5.658   4.285   2.775  0.1673  1.1159  0.6103
 6222TIP3   OH218671   1.304   5.956   1.692  0.1642 -0.2569 -0.6683
 6222TIP3    H118672   1.387   5.979   1.651  0.0386 -0.4485 -1.0369
 6222TIP3    H218673   1.320   5.872   1.735  0.4226  0.1652  0.0648
 6223TIP3   OH218674   0.489   1.638   1.863  0.2292  0.5060  0.1343
 6223TIP3    H118675   0.544   1.630   1.940 -0.2466 -0.5440  0.3812
 6223TIP3    H218676   0.533   1.704   1.808  1.1788  0.4140  0.7709
 6224TIP3   OH218677   0.585   2.893   4.843  0.3719 -0.1281 -0.4577
 6224TIP3    H118678   0.582   2.851   4.929  0.0918  1.2606  0.2343
 6224TIP3    H218679   0.521   2.844   4.790 -1.2074  0.4637  0.8250
 6225TIP3   OH218680   5.711   2.351   3.788  0.0311 -0.1171 -0.5261
 6225TIP3    H118681   5.670   2.377   3.705 -0.8997  0.7934  0.1967
 6225TIP3    H218682   5.787   2.299   3.762  0.3452  1.0063 -1.9747
 6226TIP3   OH218683   1.147   4.951   4.446 -0.2480  0.2781  0.0797
 6226TIP3    H118684   1.146   5.036   4.491  0.7323  0.5666 -0.4169
 6226TIP3    H218685   1.068   4.951   4.393  0.2584  1.3343 -0.7092
 6227TIP3   OH218686   2.360   5.222   2.102 -0.1911 -0.5090  0.7937
 6227TIP3    H118687   2.452   5.241   2.082 -0.7606  1.2141 -0.4573
 6227TIP3    H218688   2.364   5.155   2.170  1.9830 -0.8624  0.4109
 6228TIP3   OH218689   1.635   3.823   2.877  0.6033  0.2185 -0.7072
 6228TIP3    H118690   1.669   3.895   2.824  0.5960  0.2670 -0.6461
 6228TIP3    H218691   1.656   3.745   2.827  0.2162  0.2923 -0.9867
 6229TIP3   OH218692   1.399   1.420   3.767  0.1230 -0.1932  0.3065
 6229TIP3    H118693   1.318   1.411   3.817 -0.2887 -1.1043 -0.4782
 6229TIP3    H218694   1.373   1.471   3.690  0.6984  1.0028  0.8779
 6230TIP3   OH218695   2.352   0.053   5.012  0.3905 -0.1337  0.1688
 6230TIP3    H118696   2.393  -0.028   5.039 -0.1858  0.2263  2.2573
 6230TIP3    H218697   2.261   0.044   5.039 -0.0247  0.6439 -0.8873
 6231TIP3   OH218698   4.448   4.906   1.634 -0.4653 -0.7505 -0.4188
 6231TIP3    H118699   4.543   4.907   1.634 -0.4373 -1.4735 -1.6325
 6231TIP3    H218700   4.423   4.979   1.690  0.7926 -0.6743  0.0715
 6232TIP3   OH218701   1.358   3.011   2.887 -0.4069  0.0224  0.0813
 6232TIP3    H118702   1.293   2.995   2.955  0.4358  1.8598  1.3944
 6232TIP3    H218703   1.309   3.006   2.805 -1.9288  0.1280  0.9552
 6233TIP3   OH218704   4.672   3.647   3.141 -0.3978 -0.0115 -0.0681
 6233TIP3    H118705   4.661   3.737   3.111  0.6651  0.2811  0.3765
 6233TIP3    H218706   4.765   3.640   3.164 -0.6518 -0.9488  0.7616
 6234TIP3   OH218707   1.677   0.756   1.085 -0.0545  0.5464  0.3846
 6234TIP3    H118708   1.677   0.785   0.994  1.7940  0.2192  0.2459
 6234TIP3    H218709   1.766   0.725   1.100 -0.2776  0.7457  2.3539
 6235TIP3   OH218710   3.046   1.824   2.947 -0.7948 -0.2970  0.2094
 6235TIP3    H118711   3.121   1.823   2.887  0.9605 -0.6323  2.3091
 6235TIP3    H218712   3.022   1.732   2.957 -0.9588 -0.2587  0.1706
 6236TIP3   OH218713   5.227   4.808   4.074  0.4124 -0.5802 -0.0808
 6236TIP3    H118714   5.230   4.885   4.018 -2.4499 -0.5816 -0.3970
 6236TIP3    H218715   5.295   4.823   4.140  0.7072  1.6361 -0.8170
 6237TIP3   OH218716   6.056   2.998   3.499 -0.1900 -0.7555  0.0887
 6237TIP3    H118717   5.979   2.948   3.525  0.8566 -1.7394  1.4096
 6237TIP3    H218718   6.070   3.061   3.570  0.3283 -0.7222 -0.0336
 6238TIP3   OH218719   0.128   0.928   4.716 -0.8028  0.6107  0.5589
 6238TIP3    H118720   0.141   0.909   4.809 -0.6164 -0.0837  0.4003
 6238TIP3    H218721   0.203   0.981   4.691 -1.4052  1.7212  1.0527
 6239TIP3   OH218722   0.880   1.009   1.827  0.3830  0.0297 -0.3224
 6239TIP3    H118723   0.956   0.983   1.880  1.9990  1.5305 -1.7701
 6239TIP3    H218724   0.886   1.104   1.821 -1.1123  0.1001 -1.2478
 6240TIP3   OH218725   3.834   3.544   3.603  0.3611  0.0499 -0.2179
 6240TIP3    H118726   3.894   3.599   3.654  0.6909 -0.9646  0.5339
 6240TIP3    H218727   3.885   3.516   3.528  0.0338  1.1455 -0.8725
 6241TIP3   OH218728   5.834   0.526   2.023  0.2418  0.5976 -0.0282
 6241TIP3    H118729   5.838   0.536   2.118 -0.6659  2.1267 -0.1068
 6241TIP3    H218730   5.742   0.545   2.001  0.4250  0.1988 -1.1937
 6242TIP3   OH218731   2.701   0.691   3.021 -0.2143 -0.6855  0.0598
 6242TIP3    H118732   2.769   0.732   2.967 -1.8171 -0.6802 -2.0941
 6242TIP3    H218733   2.701   0.599   2.993  0.1379 -1.1305  1.4212
 6243TIP3   OH218734   0.240   1.941   3.353  0.8845 -0.0707 -0.2243
 6243TIP3    H118735   0.268   1.875   3.290 -0.8263 -0.8198 -0.2617
 6243TIP3    H218736   0.151   1.965   3.325  0.4922  0.3532  1.2880
 6244TIP3   OH218737   6.259   3.938   3.795 -0.0936  0.1197  0.4251
 6244TIP3    H118738   6.232   3.862   3.846 -1.8190  0.5639  0.2366
 6244TIP3    H218739   6.355   3.937   3.799 -0.1175  0.3219  3.9531
 6245TIP3   OH218740   3.749   3.801   1.830  0.5807  0.1415 -0.1086
 6245TIP3    H118741   3.802   3.851   1.768  1.0279 -0.3176 -0.1090
 6245TIP3    H218742   3.661   3.835   1.820  0.6673  0.1416 -0.9300
 6246TIP3   OH218743   0.768   2.253   2.401 -0.2444 -0.0647 -0.6136
 6246TIP3    H118744   0.709   2.261   2.476  1.0324  0.4085  0.3692
 6246TIP3    H218745   0.720   2.295   2.329 -0.1664  2.5120  0.7243
 6247TIP3   OH218746   0.588   3.472   4.285  0.0138  0.3633  0.7310
 6247TIP3    H118747   0.582   3.532   4.359  0.4895  0.2183  0.8931
 6247TIP3    H218748   0.655   3.510   4.228 -0.3099  0.4451  0.3999
 6248TIP3   OH218749   3.697   2.705   2.358  0.2258 -0.4291 -0.1768
 6248TIP3    H118750   3.695   2.777   2.421 -2.8016 -1.5137  1.1764
 6248TIP3    H218751   3.605   2.688   2.338  0.9459 -2.2648 -2.4551
 6249TIP3   OH218752   3.382   4.947   3.211 -0.2053  0.4560  0.1185
 6249TIP3    H118753   3.408   5.034   3.180  2.1436 -0.4100 -0.4852
 6249TIP3    H218754   3.434   4.933   3.290 -0.9337 -0.2273  0.4886
 6250TIP3   OH218755   5.515   0.313   4.607 -0.4789 -0.3339 -0.2890
 6250TIP3    H118756   5.428   0.291   4.574  0.0378 -0.8134 -1.3701
 6250TIP3    H218757   5.542   0.237   4.658 -1.1259  0.2620  1.0136
 6251TIP3   OH218758   0.957   4.609   0.005  0.0768  0.3369  0.2438
 6251TIP3    H118759   0.987   4.699   0.020  0.8414  0.4733 -1.7812
 6251TIP3    H218760   1.037   4.557  -0.001 -0.3575 -0.5115  1.3717
 6252TIP3   OH218761   5.668   4.047   4.445  0.3440  0.2634  0.0537
 6252TIP3    H118762   5.686   3.971   4.501 -2.3215  1.0596  2.2013
 6252TIP3    H218763   5.602   4.016   4.383  0.2351  0.4695  0.0649
 6253TIP3   OH218764   4.623   4.278   1.980 -0.5832  0.4147  0.0490
 6253TIP3    H118765   4.585   4.204   1.934 -1.1386  0.0018  1.1364
 6253TIP3    H218766   4.704   4.244   2.017  0.6429  1.1462 -1.8055
 6254TIP3   OH218767   5.899   4.300   3.325  0.5535 -0.0366  0.0480
 6254TIP3    H118768   5.987   4.264   3.314  0.5276 -0.9756  2.4596
 6254TIP3    H218769   5.897   4.333   3.415 -1.5580 -0.0180  0.0475
 6255TIP3   OH218770   2.363   3.868   3.030  0.1821 -0.3681  0.0999
 6255TIP3    H118771   2.433   3.836   3.087 -1.1392 -1.1511  1.3377
 6255TIP3    H218772   2.286   3.869   3.086 -0.2350  3.5446 -0.2497
 6256TIP3   OH218773   1.036   2.778   0.793  0.1163  0.2115 -0.3838
 6256TIP3    H118774   1.074   2.756   0.878 -2.1767  1.1485  0.9900
 6256TIP3    H218775   1.071   2.864   0.772  0.3046  0.1994 -0.1172
 6257TIP3   OH218776   4.454   0.057   2.105  0.0125 -0.1108 -0.3310
 6257TIP3    H118777   4.364   0.048   2.135  0.3634 -0.5742  0.6097
 6257TIP3    H218778   4.454   0.020   2.017 -0.6432 -0.4061 -0.2075
 6258TIP3   OH218779   2.121   1.125   2.293 -0.4250 -0.1477  0.2320
 6258TIP3    H118780   2.047   1.084   2.338  0.3993  0.1742  1.9649
 6258TIP3    H218781   2.189   1.133   2.360  1.1642 -0.3287 -1.2680
 6259TIP3   OH218782   2.764   5.725   0.205 -0.3307  0.3057 -0.2079
 6259TIP3    H118783   2.708   5.659   0.164 -0.0383 -1.0245  1.4337
 6259TIP3    H218784   2.720   5.745   0.288  1.4248 -0.5661  0.9912
 6260TIP3   OH218785   3.987   4.336   4.519  1.2812  0.1525 -0.1600
 6260TIP3    H118786   3.978   4.326   4.614 -0.5103  0.7331 -0.2221
 6260TIP3    H218787   3.972   4.249   4.483  0.0109  0.2838  0.0132
 6261TIP3   OH218788   2.510   2.605   0.651  0.2789  0.0521  0.1687
 6261TIP3    H118789   2.499   2.580   0.559 -0.4289  0.9629 -0.0120
 6261TIP3    H218790   2.586   2.662   0.652  0.7671 -0.5867  0.2863
 6262TIP3   OH218791   5.997   4.277   0.243  0.0736 -0.1109 -0.5154
 6262TIP3    H118792   5.944   4.244   0.170 -1.3854  0.3682  0.2808
 6262TIP3    H218793   6.001   4.372   0.229  0.5792 -0.1203 -0.4630
 6263TIP3   OH218794   5.685   0.780   1.617 -0.1309  0.0169  0.2410
 6263TIP3    H118795   5.726   0.696   1.593  0.5993 -0.4272  2.8084
 6263TIP3    H218796   5.719   0.841   1.552 -1.3010 -1.7534 -2.2064
 6264TIP3   OH218797   2.495   3.779   1.325  0.1144 -1.1964  0.3540
 6264TIP3    H118798   2.436   3.807   1.395 -1.8544  0.5505 -1.8026
 6264TIP3    H218799   2.563   3.846   1.323 -1.2351  0.2494 -0.8915
 6265TIP3   OH218800   5.970   2.578   0.459 -0.0954  0.1846 -0.0338
 6265TIP3    H118801   6.037   2.643   0.478  0.7837 -0.3579 -1.1567
 6265TIP3    H218802   5.973   2.519   0.535  0.2445  0.5202  0.2214
 6266TIP3   OH218803   3.835   5.352   5.158  0.4210 -0.2634  0.4202
 6266TIP3    H118804   3.906   5.305   5.114  0.7815  2.6237 -2.4573
 6266TIP3    H218805   3.757   5.329   5.108  0.3429  0.9189 -0.0328
 6267TIP3   OH218806   0.474   4.043   2.472  0.0881  0.2556 -0.6048
 6267TIP3    H118807   0.444   4.121   2.425  1.1823  0.1923 -1.4570
 6267TIP3    H218808   0.399   3.983   2.468  0.3861 -0.0799 -3.0774
 6268TIP3   OH218809   0.200   3.458   4.495 -0.5440  0.0817 -0.1170
 6268TIP3    H118810   0.265   3.411   4.547  1.0400  1.8855 -0.3128
 6268TIP3    H218811   0.181   3.400   4.422 -0.0012 -0.9617  0.5395
 6269TIP3   OH218812   1.956   4.485   1.524  0.3534  0.3766  0.2007
 6269TIP3    H118813   2.049   4.508   1.526 -0.0591  2.1768  1.4680
 6269TIP3    H218814   1.954   4.392   1.505  2.4588  0.0932  1.1312
 6270TIP3   OH218815   5.209   2.005   0.956 -0.1392 -0.3631  0.4455
 6270TIP3    H118816   5.139   2.009   0.892  0.5380 -0.3829 -0.3137
 6270TIP3    H218817   5.184   1.934   1.015 -1.0822  0.0767  0.5987
 6271TIP3   OH218818   1.950   4.201   2.142 -0.1513 -0.3619 -0.6851
 6271TIP3    H118819   1.858   4.176   2.155 -0.1895  0.1962  0.2151
 6271TIP3    H218820   1.991   4.123   2.106 -0.9353 -0.6860 -0.9118
 6272TIP3   OH218821   0.325   2.849   3.782 -0.3989 -0.6668  0.6783
 6272TIP3    H118822   0.280   2.892   3.855  0.2798 -2.2416  2.0890
 6272TIP3    H218823   0.309   2.756   3.796  1.6035 -1.1439  0.0951
 6273TIP3   OH218824   2.015   1.701   0.896  0.5616 -0.6631  0.0053
 6273TIP3    H118825   2.100   1.675   0.931  1.4013  2.3416  0.4587
 6273TIP3    H218826   1.993   1.781   0.943 -2.3030 -1.0419 -0.5015
 6274TIP3   OH218827   3.569   4.337   3.476  0.3640 -0.3285 -0.0121
 6274TIP3    H118828   3.605   4.273   3.537  1.5080  0.5621  0.2791
 6274TIP3    H218829   3.643   4.360   3.419 -0.7995 -1.5263 -2.1039
 6275TIP3   OH218830   2.850   5.988   0.155  0.2108 -0.3307 -0.3513
 6275TIP3    H118831   2.821   5.899   0.174  0.9974 -0.9085 -1.7344
 6275TIP3    H218832   2.871   5.987   0.062 -1.3932  1.7835 -0.7979
 6276TIP3   OH218833   3.860   1.036   2.022  0.0600  0.3750 -0.0509
 6276TIP3    H118834   3.944   1.031   2.068  1.4263  1.7970 -2.2265
 6276TIP3    H218835   3.832   0.945   2.013  0.7613 -0.0565  1.6910
 6277TIP3   OH218836   5.887   0.109   0.821  0.1053 -0.0935 -0.3508
 6277TIP3    H118837   5.794   0.129   0.819  0.2134  0.4058 -2.6112
 6277TIP3    H218838   5.922   0.147   0.740  2.1148 -1.0592 -0.0015
 6278TIP3   OH218839   1.366   3.839   4.230  0.1082  0.7285  0.0205
 6278TIP3    H118840   1.320   3.758   4.250  1.1987 -0.3166 -1.4368
 6278TIP3    H218841   1.311   3.908   4.267 -1.2887 -0.6063  0.5518
 6279TIP3   OH218842   3.262   2.309   1.608  0.1887 -0.1020 -0.4687
 6279TIP3    H118843   3.299   2.260   1.682  1.6308  1.0807 -0.3596
 6279TIP3    H218844   3.260   2.246   1.536  0.9228 -0.6534 -0.0242
 6280TIP3   OH218845   0.774   4.881   1.179 -0.0437 -0.5929  0.6114
 6280TIP3    H118846   0.715   4.855   1.250 -1.0208  0.5423  0.2389
 6280TIP3    H218847   0.737   4.962   1.145  1.8441  0.2383  0.4573
 6281TIP3   OH218848   2.493   4.011   4.967  0.3405  0.3792 -0.1181
 6281TIP3    H118849   2.436   4.076   5.009  0.2584  0.1042  0.2073
 6281TIP3    H218850   2.449   3.991   4.884  0.4846  0.9031 -0.3249
 6282TIP3   OH218851   6.328   4.371   3.611 -0.4215  0.1484  0.1470
 6282TIP3    H118852   6.233   4.380   3.622 -0.5359 -0.4128 -0.3533
 6282TIP3    H218853   6.338   4.302   3.546  0.3372  0.1256  0.2848
 6283TIP3   OH218854   2.859   1.239   4.930  0.5650  0.5899  0.0197
 6283TIP3    H118855   2.937   1.253   4.984 -0.4780 -1.8631  2.3695
 6283TIP3    H218856   2.790   1.286   4.977 -0.1336 -0.6121  0.2140
 6284TIP3   OH218857   2.547   2.500   3.943 -0.4793  0.5387  0.3069
 6284TIP3    H118858   2.514   2.476   4.029  0.5017  2.8469  1.3984
 6284TIP3    H218859   2.568   2.593   3.950  1.1983  0.4061 -1.9150
 6285TIP3   OH218860   2.674   5.135   0.577  0.0613  0.0211  0.4975
 6285TIP3    H118861   2.602   5.196   0.562 -0.8305 -1.0597  0.2978
 6285TIP3    H218862   2.690   5.139   0.671  0.6556  1.2546  0.3651
 6286TIP3   OH218863   4.000   4.527   0.829  0.1370 -0.4948 -0.1875
 6286TIP3    H118864   4.059   4.556   0.759  1.4094  1.1661  1.4664
 6286TIP3    H218865   4.058   4.503   0.901 -1.0174  3.2469  2.2931
 6287TIP3   OH218866   0.231   4.287   0.046 -0.4735  0.0332 -0.4004
 6287TIP3    H118867   0.205   4.198   0.072  0.5910 -0.3586 -0.6492
 6287TIP3    H218868   0.199   4.343   0.118 -2.0454 -0.3999 -0.7185
 6288TIP3   OH218869   6.213   3.471   2.627 -0.1487 -0.2345 -0.6895
 6288TIP3    H118870   6.195   3.385   2.588 -0.8692 -0.5070  0.2021
 6288TIP3    H218871   6.293   3.459   2.677 -0.5116 -0.5369 -0.1645
 6289TIP3   OH218872   0.071   5.547   1.270 -0.2744  0.0157 -0.2840
 6289TIP3    H118873   0.025   5.482   1.323 -0.7611  1.3234  0.9849
 6289TIP3    H218874   0.162   5.545   1.302 -0.2322 -0.2204 -0.4218
 6290TIP3   OH218875   2.610   5.004   0.989  0.5007 -0.1789  0.5673
 6290TIP3    H118876   2.680   4.948   0.954  1.0098  1.4112 -1.1915
 6290TIP3    H218877   2.621   5.087   0.941 -1.1804  0.8853  1.9230
 6291TIP3   OH218878   2.912   2.057   1.238 -0.6978 -0.4436  0.4626
 6291TIP3    H118879   2.872   2.116   1.174 -0.1320  0.0338  0.5372
 6291TIP3    H218880   2.965   2.115   1.293  1.9373 -1.2941 -1.0061
 6292TIP3   OH218881   5.451   4.038   2.368 -0.2740 -0.3027 -0.5135
 6292TIP3    H118882   5.527   4.010   2.318 -1.2767  0.7774 -2.7912
 6292TIP3    H218883   5.378   4.034   2.305 -1.4357  2.0570  0.5376
 6293TIP3   OH218884   2.021   5.548   3.442 -0.1177 -0.2232 -0.2172
 6293TIP3    H118885   1.959   5.610   3.405 -0.4111 -0.5091 -0.2080
 6293TIP3    H218886   2.103   5.597   3.450 -1.0957  1.1443  2.6858
 6294TIP3   OH218887   6.157   3.930   3.235  0.4217  0.7736  0.1137
 6294TIP3    H118888   6.200   3.922   3.320 -1.0952 -1.3552  0.7854
 6294TIP3    H218889   6.144   4.024   3.224  1.2843  1.1590  1.9120
 6295TIP3   OH218890   5.052   4.506   4.494 -0.3374 -0.2329 -0.1980
 6295TIP3    H118891   5.140   4.501   4.531  0.2549 -2.0417 -1.7017
 6295TIP3    H218892   5.066   4.510   4.400 -1.8582  1.4757 -0.4004
 6296TIP3   OH218893   0.118   5.090   2.980  0.0932 -0.1483  0.2507
 6296TIP3    H118894   0.085   5.033   3.050 -1.7643 -0.2272 -0.6222
 6296TIP3    H218895   0.187   5.141   3.021  0.2312 -1.4018  1.6719
 6297TIP3   OH218896   2.367   4.190   0.029  0.0242  0.6364 -0.5771
 6297TIP3    H118897   2.458   4.201   0.058 -0.1715 -1.2423  0.9674
 6297TIP3    H218898   2.374   4.140  -0.052  0.3783 -0.6306  0.1997
 6298TIP3   OH218899   2.507   4.001   4.164  0.5939  0.5038 -0.3182
 6298TIP3    H118900   2.592   3.992   4.122  0.8712  2.2355 -0.1957
 6298TIP3    H218901   2.514   4.081   4.216 -0.6239 -0.1308  0.9024
 6299TIP3   OH218902   2.767   4.890   3.829  0.5598  0.2306 -0.0662
 6299TIP3    H118903   2.754   4.835   3.752  0.0854  0.0684  0.1254
 6299TIP3    H218904   2.813   4.968   3.796  1.5396 -0.4278 -0.2766
 6300TIP3   OH218905   5.808   0.586   4.335 -0.6735 -0.5018 -0.2694
 6300TIP3    H118906   5.854   0.578   4.419  1.3067 -2.4493 -1.4254
 6300TIP3    H218907   5.861   0.647   4.284  0.1937 -2.0544 -1.2961
 6301TIP3   OH218908   1.492   2.247   1.828 -0.0454  0.3526  0.3121
 6301TIP3    H118909   1.439   2.180   1.870  0.9534 -1.0219 -0.5449
 6301TIP3    H218910   1.541   2.288   1.900  0.3602 -0.7895  0.6988
 6302TIP3   OH218911   0.413   5.807   4.687  0.0954  0.2042  0.2203
 6302TIP3    H118912   0.458   5.891   4.679  0.8896  0.2787  3.7676
 6302TIP3    H218913   0.328   5.829   4.726 -0.5660 -0.4919 -0.7740
 6303TIP3   OH218914   3.355   1.103   0.967  0.0001  0.2444 -0.0052
 6303TIP3    H118915   3.449   1.097   0.987 -0.0299 -2.4300 -0.2920
 6303TIP3    H218916   3.348   1.074   0.876 -1.0336  1.3037 -0.2830
 6304TIP3   OH218917   6.267   1.512   2.696 -0.4768  0.2820 -0.3052
 6304TIP3    H118918   6.255   1.517   2.601 -1.2384  1.7618 -0.1621
 6304TIP3    H218919   6.361   1.526   2.709 -0.3297 -0.1563 -0.8394
 6305TIP3   OH218920   1.296   4.930   2.248 -0.4092 -0.4002 -0.0763
 6305TIP3    H118921   1.315   4.849   2.296 -0.3167 -0.6603 -0.5534
 6305TIP3    H218922   1.265   4.901   2.163  3.3102  0.0079 -1.7707
 6306TIP3   OH218923   4.570   2.658   3.668  0.1185  0.0622  0.2270
 6306TIP3    H118924   4.665   2.651   3.680 -0.1934 -1.9602  2.0417
 6306TIP3    H218925   4.541   2.568   3.655 -1.5573  0.6704 -0.4624
 6307TIP3   OH218926   3.007   2.899   0.550 -0.0508 -0.2928 -0.4985
 6307TIP3    H118927   2.978   2.878   0.639 -2.8728  1.5253 -0.8530
 6307TIP3    H218928   2.944   2.855   0.493 -0.6255  1.5997 -1.4225
 6308TIP3   OH218929   1.527   0.980   2.990  0.6946  0.1314  0.2845
 6308TIP3    H118930   1.484   0.901   2.957  0.6819 -0.1675  0.9913
 6308TIP3    H218931   1.570   0.952   3.072  1.7350  0.5559 -0.0922
 6309TIP3   OH218932   4.342   5.997   2.920  0.7809 -0.4799 -0.4471
 6309TIP3    H118933   4.364   5.954   2.838 -0.5947  0.7351 -1.5154
 6309TIP3    H218934   4.271   5.944   2.956  1.9110 -1.4710  0.4113
 6310TIP3   OH218935   0.648   1.312   0.871  0.1466 -0.2422  0.3493
 6310TIP3    H118936   0.694   1.396   0.868  1.0824 -0.7344  0.4626
 6310TIP3    H218937   0.590   1.314   0.795  0.0442  0.5719  0.4423
 6311TIP3   OH218938   5.228   4.390   3.483 -0.8152 -0.0545  0.1275
 6311TIP3    H118939   5.242   4.466   3.539  0.4367 -1.0284  1.2055
 6311TIP3    H218940   5.281   4.407   3.405 -0.6901  0.2597  0.2808
 6312TIP3   OH218941   5.331   4.435   4.564  0.7261 -0.1153  0.5476
 6312TIP3    H118942   5.365   4.381   4.636 -0.3017 -1.0579  0.3493
 6312TIP3    H218943   5.382   4.407   4.488  1.5765  0.6398  0.8196
 6313TIP3   OH218944   2.479   3.515   0.820 -0.2018 -0.3896  0.1388
 6313TIP3    H118945   2.491   3.440   0.879  0.7463 -0.3598 -0.0156
 6313TIP3    H218946   2.439   3.478   0.742  1.6179 -1.0047 -0.5383
 6314TIP3   OH218947   1.859   5.498   0.462  0.3160  0.5050 -0.1862
 6314TIP3    H118948   1.894   5.411   0.484 -1.3477 -0.1487  0.0274
 6314TIP3    H218949   1.842   5.494   0.368  2.1592  1.3435 -0.5868
 6315TIP3   OH218950   0.085   0.020   1.255 -0.4048  0.0719  0.1762
 6315TIP3    H118951   0.024   0.092   1.271 -0.2192  0.2853 -0.0713
 6315TIP3    H218952   0.121  -0.001   1.341 -0.0391  0.6524  0.1698
 6316TIP3   OH218953   2.754   3.523   0.524  0.1894  0.0555  0.2903
 6316TIP3    H118954   2.818   3.535   0.453 -0.2435 -0.0878 -0.1270
 6316TIP3    H218955   2.736   3.430   0.524 -0.3936  0.1644  0.0777
 6317TIP3   OH218956   1.281   5.804   0.274  0.5368 -0.1857  0.1138
 6317TIP3    H118957   1.238   5.885   0.247 -1.1491 -1.3212 -0.8117
 6317TIP3    H218958   1.261   5.742   0.204  0.2577 -1.8895  1.6299
 6318TIP3   OH218959   1.633   2.724   0.273  0.2292  0.0586 -0.1120
 6318TIP3    H118960   1.631   2.819   0.276  0.1296  0.0645 -0.2852
 6318TIP3    H218961   1.542   2.698   0.287  0.5153 -0.0797  1.6293
 6319TIP3   OH218962   1.996   1.072   0.345  0.1840 -0.3439  0.0123
 6319TIP3    H118963   2.079   1.070   0.393  0.9612 -0.5080 -1.2606
 6319TIP3    H218964   1.986   0.982   0.312 -0.0310 -0.1000 -0.5952
 6320TIP3   OH218965   3.429   4.155   1.789 -0.3926 -0.6369 -0.0167
 6320TIP3    H118966   3.347   4.171   1.741 -0.4053 -1.3138 -0.2293
 6320TIP3    H218967   3.496   4.197   1.735 -0.4651 -0.9996 -0.3979
 6321TIP3   OH218968   3.673   2.811   4.941 -0.3412  0.3507  0.3571
 6321TIP3    H118969   3.593   2.780   4.898 -0.7144  0.9434  0.5972
 6321TIP3    H218970   3.727   2.844   4.869 -0.9551  1.3222  0.3189
 6322TIP3   OH218971   4.176   0.186   4.775 -0.0903 -0.0869  0.5278
 6322TIP3    H118972   4.255   0.187   4.720 -0.5240  0.5306 -0.1027
 6322TIP3    H218973   4.152   0.094   4.780 -0.7584 -0.0684 -1.3913
 6323TIP3   OH218974   3.287   4.017   2.006 -0.3634 -0.8338  0.2481
 6323TIP3    H118975   3.218   3.992   1.945 -0.6083 -1.0357  0.6002
 6323TIP3    H218976   3.358   4.050   1.951 -0.3685 -1.5201 -0.1742
 6324TIP3   OH218977   4.132   2.206   2.288  0.4270  0.9493  0.3404
 6324TIP3    H118978   4.141   2.148   2.364 -1.6222  0.6867  0.4312
 6324TIP3    H218979   4.086   2.283   2.322 -0.6559  0.7604 -0.6300
 6325TIP3   OH218980   2.647   5.413   2.698 -0.2363  0.5478 -0.1775
 6325TIP3    H118981   2.629   5.427   2.791 -1.7887  1.1193 -0.5288
 6325TIP3    H218982   2.606   5.328   2.679  1.1944 -0.1976 -0.0844
 6326TIP3   OH218983   3.508   3.446   4.792  0.5225  0.3705  0.0900
 6326TIP3    H118984   3.560   3.402   4.860  1.6533  0.2002 -0.8577
 6326TIP3    H218985   3.443   3.380   4.767  1.3563 -0.3033 -0.3681
 6327TIP3   OH218986   3.586   2.647   1.678  0.3317 -0.3280 -0.4877
 6327TIP3    H118987   3.594   2.561   1.719  0.5884 -0.6445 -1.1766
 6327TIP3    H218988   3.546   2.629   1.593 -0.4484  0.3454 -0.2732
 6328TIP3   OH218989   2.110   3.591   1.990  0.1548 -0.2678  0.3963
 6328TIP3    H118990   2.073   3.574   1.903 -0.7782 -0.7349  0.8825
 6328TIP3    H218991   2.188   3.535   1.993  0.8423  0.5806 -0.5515
 6329TIP3   OH218992   3.318   3.871   1.620  0.3701  0.0822  0.1177
 6329TIP3    H118993   3.343   3.916   1.539 -0.1841  0.3011  0.0612
 6329TIP3    H218994   3.305   3.780   1.593  1.1900 -0.0566  0.1702
 6330TIP3   OH218995   2.109   2.353   4.760  0.4232 -0.3183 -0.4753
 6330TIP3    H118996   2.029   2.387   4.800 -0.2182 -1.9626 -0.2741
 6330TIP3    H218997   2.103   2.381   4.668 -0.1681 -0.0678 -0.3663
 6331TIP3   OH218998   0.301   4.426   4.829  0.4935 -0.2602  0.1073
 6331TIP3    H118999   0.286   4.463   4.916 -0.6722 -0.3181 -0.0550
 6331TIP3    H219000   0.281   4.498   4.768 -2.4075 -1.2324 -0.2380
 6332TIP3   OH219001   3.415   4.817   0.299  0.3039  0.2650 -0.2840
 6332TIP3    H119002   3.463   4.779   0.372 -1.4338  1.6080  1.7010
 6332TIP3    H219003   3.459   4.901   0.283 -0.2943  0.7253  0.3945
 6333TIP3   OH219004   4.662   0.057   0.547  0.0726  0.5727  0.3543
 6333TIP3    H119005   4.673  -0.022   0.600  0.4480  1.6376  1.9415
 6333TIP3    H219006   4.601   0.111   0.597  0.8949  1.8771 -0.0036
 6334TIP3   OH219007   4.996   5.407   0.706  0.4597  0.1909 -0.1088
 6334TIP3    H119008   4.916   5.386   0.754  0.2867  0.8340 -0.1137
 6334TIP3    H219009   5.056   5.439   0.773  0.1361  1.3208 -0.3508
 6335TIP3   OH219010   4.887   4.246   5.070  0.2502 -0.0559  0.1364
 6335TIP3    H119011   4.888   4.203   5.155 -1.3712  0.3468  0.3838
 6335TIP3    H219012   4.861   4.178   5.008  1.1775 -0.2831 -0.0286
 6336TIP3   OH219013   2.017   3.415   4.829  0.0392  0.1899  0.5973
 6336TIP3    H119014   2.044   3.388   4.917 -0.1978  0.3769  0.7271
 6336TIP3    H219015   2.068   3.359   4.771 -0.7301 -0.8064  0.8663
 6337TIP3   OH219016   3.476   0.498   0.675  0.1950 -0.1165 -0.5076
 6337TIP3    H119017   3.557   0.448   0.688 -0.8667 -1.5805  0.9340
 6337TIP3    H219018   3.430   0.450   0.605 -0.0085 -0.0871 -0.3953
 6338TIP3   OH219019   0.595   5.834   2.071  0.1541  0.1414 -0.1133
 6338TIP3    H119020   0.520   5.792   2.029 -0.1660 -0.1621  0.7305
 6338TIP3    H219021   0.665   5.829   2.006 -0.2954 -0.4094 -0.5679
 6339TIP3   OH219022   5.360   2.439   3.842  0.1403 -0.2115  1.0318
 6339TIP3    H119023   5.371   2.390   3.924  0.8127 -0.6687  0.6722
 6339TIP3    H219024   5.420   2.512   3.850 -0.1537  0.0217  1.1484
 6340TIP3   OH219025   0.983   2.076   2.136 -0.8807 -0.0052  0.2535
 6340TIP3    H119026   1.051   2.086   2.204 -1.0385 -0.4680  0.4898
 6340TIP3    H219027   1.019   2.009   2.077 -0.6607  0.5342 -0.2315
 6341TIP3   OH219028   2.858   1.442   4.494 -0.1879 -0.8059  0.0974
 6341TIP3    H119029   2.800   1.516   4.512 -1.0213 -1.5429  0.4825
 6341TIP3    H219030   2.804   1.379   4.446 -0.1139 -2.0436  1.5504
 6342TIP3   OH219031   0.329   4.408   0.463  0.4177 -0.1297  0.5093
 6342TIP3    H119032   0.314   4.494   0.425  1.3842  1.1896  2.8922
 6342TIP3    H219033   0.243   4.380   0.494  0.2205  0.2764  0.3443
 6343TIP3   OH219034   6.208   2.479   2.266 -0.0559  0.7562 -0.4345
 6343TIP3    H119035   6.150   2.544   2.306 -3.2425 -1.9508 -0.1308
 6343TIP3    H219036   6.173   2.468   2.177 -1.0803 -1.8993  0.1862
 6344TIP3   OH219037   3.595   2.135   3.429 -0.8761  0.1113 -0.3847
 6344TIP3    H119038   3.519   2.101   3.477  0.3138  1.3440  2.5696
 6344TIP3    H219039   3.663   2.145   3.495  1.4877  0.3055 -2.7007
 6345TIP3   OH219040   3.970   5.312   0.337  0.2608 -0.0594 -0.2236
 6345TIP3    H119041   3.896   5.373   0.341  0.9386  0.7685 -0.0692
 6345TIP3    H219042   3.932   5.227   0.360 -1.0163 -0.0165 -1.9690
 6346TIP3   OH219043   1.593   2.089   0.976  0.0091 -0.1771 -0.1070
 6346TIP3    H119044   1.648   2.061   0.903 -0.1526  2.8253 -1.5604
 6346TIP3    H219045   1.656   2.114   1.044  0.4816  1.6522 -1.1375
 6347TIP3   OH219046   4.340   0.865   1.088  0.4249 -0.3549 -0.0624
 6347TIP3    H119047   4.348   0.961   1.085  0.6245 -0.2889  1.7078
 6347TIP3    H219048   4.421   0.836   1.131  0.0058 -1.2526  0.1359
 6348TIP3   OH219049   3.562   4.617   3.116 -0.0600  0.5830 -0.1554
 6348TIP3    H119050   3.525   4.603   3.029 -1.4258 -0.9161  0.6157
 6348TIP3    H219051   3.592   4.708   3.115  1.3637  0.1861 -2.6605
 6349TIP3   OH219052   1.121   2.916   0.381 -0.5813 -0.2799 -0.0090
 6349TIP3    H119053   1.187   2.966   0.429 -1.2072  1.5277 -0.9601
 6349TIP3    H219054   1.101   2.842   0.438 -0.3842  1.0961  1.9161
 6350TIP3   OH219055   2.406   4.144   3.348  0.0002 -0.4224 -0.1379
 6350TIP3    H119056   2.424   4.176   3.260  1.1890  1.3439  0.6949
 6350TIP3    H219057   2.462   4.067   3.357  2.6773  1.4550  0.2513
 6351TIP3   OH219058   0.807   2.561   2.614  0.4152 -0.1371  0.2879
 6351TIP3    H119059   0.758   2.539   2.535  3.5930 -0.3397 -1.7705
 6351TIP3    H219060   0.814   2.479   2.662 -1.1467 -0.1079  0.6147
 6352TIP3   OH219061   1.483   2.044   2.064 -0.2681 -0.5728 -0.5227
 6352TIP3    H119062   1.531   1.969   2.100  0.5283 -0.0633 -0.5150
 6352TIP3    H219063   1.424   2.070   2.135  0.1132 -0.6135 -0.1880
 6353TIP3   OH219064   2.646   4.019   1.279  1.2337  0.1536  0.5031
 6353TIP3    H119065   2.604   4.082   1.337  0.5603  0.3945 -0.2316
 6353TIP3    H219066   2.733   4.005   1.318  0.6878  0.0706  1.7231
 6354TIP3   OH219067   5.013   1.239   3.304  0.2533 -0.4213 -0.3916
 6354TIP3    H119068   5.100   1.219   3.339  0.4795  0.7396 -0.2670
 6354TIP3    H219069   4.971   1.153   3.297  1.5567 -1.0596 -0.8913
 6355TIP3   OH219070   3.361   2.119   4.724 -0.1716 -0.2267 -0.6891
 6355TIP3    H119071   3.300   2.127   4.798 -0.0746 -0.9661 -0.5220
 6355TIP3    H219072   3.325   2.048   4.672 -0.8132  0.9486 -1.9216
 6356TIP3   OH219073   2.362   0.521   4.534 -0.1165  0.1346  0.2524
 6356TIP3    H119074   2.320   0.466   4.601 -0.3272  1.0545  0.8939
 6356TIP3    H219075   2.290   0.551   4.479  0.1186 -1.0789 -0.7628
 6357TIP3   OH219076   5.933   5.090   2.269 -0.5372  0.0832  0.4178
 6357TIP3    H119077   6.023   5.102   2.301 -0.5679  0.4739  0.3664
 6357TIP3    H219078   5.889   5.040   2.337 -0.5037  0.5912  0.8151
 6358TIP3   OH219079   5.372   0.378   3.865 -0.4445 -0.4380 -0.0865
 6358TIP3    H119080   5.423   0.457   3.844 -0.9505  0.6286  2.3059
 6358TIP3    H219081   5.281   0.402   3.847 -0.7255 -0.0043  1.6780
 6359TIP3   OH219082   4.732   2.144   0.879 -0.0044  0.1575 -0.3735
 6359TIP3    H119083   4.755   2.145   0.971 -1.1649 -1.3170 -0.0309
 6359TIP3    H219084   4.681   2.064   0.867 -0.2912  0.5500 -2.1950
 6360TIP3   OH219085   0.960   5.939   0.510 -0.5409  0.0553 -0.5275
 6360TIP3    H119086   0.935   5.944   0.418 -0.2581  1.4173 -0.5504
 6360TIP3    H219087   1.037   5.882   0.511 -1.4169 -1.1697 -0.9222
 6361TIP3   OH219088   1.503   0.261   1.588 -0.0737 -0.3730  0.1460
 6361TIP3    H119089   1.511   0.202   1.663  0.9308  0.3565  0.6362
 6361TIP3    H219090   1.564   0.333   1.607 -1.0860  0.7153 -0.5352
 6362TIP3   OH219091   2.642   3.131   4.798 -0.2421  0.4934 -0.2446
 6362TIP3    H119092   2.568   3.085   4.760  0.2101  1.3042 -2.2250
 6362TIP3    H219093   2.603   3.203   4.848 -0.8092  0.3670 -0.4983
 6363TIP3   OH219094   3.395   4.495   0.927 -0.4435 -0.1551 -0.3572
 6363TIP3    H119095   3.437   4.409   0.930 -1.2568 -0.5665 -0.3740
 6363TIP3    H219096   3.318   4.486   0.985 -0.3983  0.6331 -0.1685
 6364TIP3   OH219097   0.737   3.984   4.534  0.2130 -0.6859 -0.5159
 6364TIP3    H119098   0.675   3.993   4.606 -0.3388  0.1051 -1.0799
 6364TIP3    H219099   0.772   3.895   4.545 -1.5969 -1.4769 -0.6271
 6365TIP3   OH219100   3.547   0.656   3.684 -0.6664 -0.4779  0.2412
 6365TIP3    H119101   3.628   0.612   3.709 -0.8820 -2.1542 -1.7365
 6365TIP3    H219102   3.536   0.725   3.749  3.3161  1.0637 -0.4309
 6366TIP3   OH219103   1.571   3.692   0.661  0.1125 -0.2971 -0.4120
 6366TIP3    H119104   1.554   3.606   0.623 -0.6936 -0.4205  0.1853
 6366TIP3    H219105   1.534   3.754   0.598 -0.0047 -0.4297 -0.4744
 6367TIP3   OH219106   2.959   1.420   4.764  0.7844  0.3580  0.1056
 6367TIP3    H119107   2.902   1.370   4.822  1.1471  1.1008  1.1445
 6367TIP3    H219108   2.921   1.408   4.676 -1.1068  1.0007  0.7769
 6368TIP3   OH219109   4.254   5.596   0.916  0.8949 -0.2022  0.4628
 6368TIP3    H119110   4.316   5.624   0.849  0.2732 -0.4553 -0.2334
 6368TIP3    H219111   4.277   5.648   0.993 -1.0328  3.3302 -1.1007
 6369TIP3   OH219112   1.496   1.404   3.199 -0.2442  0.1383  0.0120
 6369TIP3    H119113   1.458   1.470   3.140 -0.3756  0.8152  0.8320
 6369TIP3    H219114   1.439   1.405   3.276 -0.3112 -1.0244 -0.0001
 6370TIP3   OH219115   5.474   2.476   1.712  0.0793 -0.3915 -0.3238
 6370TIP3    H119116   5.462   2.442   1.801 -1.0904 -0.8590 -0.6335
 6370TIP3    H219117   5.496   2.568   1.724  3.3211 -1.1671  0.5356
 6371TIP3   OH219118   1.100   5.895   4.566  0.3433  0.3451  0.1852
 6371TIP3    H119119   1.147   5.812   4.575 -0.5572 -0.2712 -0.4268
 6371TIP3    H219120   1.163   5.955   4.527  1.1603  0.0974  1.1056
 6372TIP3   OH219121   2.586   4.418   3.477  0.7603 -0.2752 -0.1708
 6372TIP3    H119122   2.679   4.402   3.488  1.0417  1.3247 -0.0283
 6372TIP3    H219123   2.550   4.334   3.448  2.4166 -0.6368 -1.2831
 6373TIP3   OH219124   1.387   4.315   3.945  0.0179 -0.6563 -0.1382
 6373TIP3    H119125   1.375   4.298   4.038  1.8410 -0.6849  0.1324
 6373TIP3    H219126   1.357   4.405   3.933  1.4689  0.0024  0.8881
 6374TIP3   OH219127   2.143   4.421   1.138  0.2859 -0.2102 -0.1037
 6374TIP3    H119128   2.113   4.371   1.062  2.1092  0.4795 -1.3560
 6374TIP3    H219129   2.079   4.492   1.147 -1.0075 -1.3879  0.2245
 6375TIP3   OH219130   1.096   5.409   2.373 -0.2139 -0.0105  0.5251
 6375TIP3    H119131   1.052   5.332   2.409 -1.6512 -0.3367 -1.7475
 6375TIP3    H219132   1.188   5.385   2.371 -0.2002 -0.3966  2.8043
 6376TIP3   OH219133   0.491   0.745   0.679 -0.0024 -0.2044  0.8733
 6376TIP3    H119134   0.439   0.801   0.622  0.7518 -0.6347 -0.2551
 6376TIP3    H219135   0.454   0.759   0.766 -0.8048  0.8842  0.3742
 6377TIP3   OH219136   1.490   1.682   1.659 -0.1180  0.2808 -0.1609
 6377TIP3    H119137   1.528   1.719   1.579  0.0508  0.4969  0.0168
 6377TIP3    H219138   1.449   1.757   1.702 -1.0279 -0.0096 -0.5069
 6378TIP3   OH219139   2.660   2.011   2.040 -0.1473 -0.4251  0.0468
 6378TIP3    H119140   2.656   1.953   2.116 -0.8525 -0.8392 -0.2994
 6378TIP3    H219141   2.585   1.986   1.987 -1.3657  1.7588  0.5883
 6379TIP3   OH219142   3.758   2.141   2.817  0.3567 -0.1740  0.0720
 6379TIP3    H119143   3.697   2.068   2.803  1.0840 -0.5428 -1.3234
 6379TIP3    H219144   3.729   2.180   2.900 -1.4036 -0.7008 -0.2382
 6380TIP3   OH219145   3.262   5.465   0.016 -0.0014  0.6643  0.0239
 6380TIP3    H119146   3.182   5.424   0.050  1.8341 -1.9636  1.6083
 6380TIP3    H219147   3.290   5.524   0.085 -0.3639  1.3620 -0.4084
 6381TIP3   OH219148   5.761   1.006   4.574 -0.4011 -0.1871  0.3921
 6381TIP3    H119149   5.695   0.989   4.507  0.9777 -0.2175 -1.0008
 6381TIP3    H219150   5.727   1.082   4.622 -1.7192 -0.5740  0.1096
 6382TIP3   OH219151   2.131   0.571   1.238  0.0483 -0.0310  0.1736
 6382TIP3    H119152   2.087   0.649   1.204 -2.1793 -1.2417  0.1168
 6382TIP3    H219153   2.142   0.514   1.161 -0.8760 -0.9020  0.6714
 6383TIP3   OH219154   3.279   3.781   1.026  0.2024 -0.0046  0.0918
 6383TIP3    H119155   3.225   3.798   1.103  1.7905  1.9500  0.8486
 6383TIP3    H219156   3.349   3.723   1.057  1.4957  1.6953  0.4644
 6384TIP3   OH219157   3.588   3.637   4.003 -0.1165  0.3521  0.4622
 6384TIP3    H119158   3.498   3.648   4.034 -0.6868  1.1169 -1.2846
 6384TIP3    H219159   3.578   3.583   3.924  1.1141 -0.6000  0.9373
 6385TIP3   OH219160   4.922   1.396   4.294  0.2057 -0.0105  0.4929
 6385TIP3    H119161   4.975   1.358   4.363  0.4623 -0.0181  0.2919
 6385TIP3    H219162   4.832   1.371   4.317  0.1306  1.1731  1.5828
 6386TIP3   OH219163   0.904   2.761   4.337  0.5240  0.2054  0.6111
 6386TIP3    H119164   0.823   2.771   4.286  1.3299  0.0961 -0.7238
 6386TIP3    H219165   0.935   2.673   4.316  2.3415  1.1468 -0.9693
 6387TIP3   OH219166   1.427   0.977   0.486  0.0405 -0.1800  0.1631
 6387TIP3    H119167   1.374   1.003   0.561 -1.6263 -1.9846 -0.2867
 6387TIP3    H219168   1.401   1.037   0.416  1.1742  1.1335  0.8258
 6388TIP3   OH219169   0.653   2.515   1.774  0.0718 -0.2562 -0.3895
 6388TIP3    H119170   0.662   2.433   1.823 -1.0822 -1.0416 -1.4220
 6388TIP3    H219171   0.643   2.582   1.841 -0.1481 -1.1202  0.4650
 6389TIP3   OH219172   1.835   5.545   0.189  0.4093 -0.3029  0.5032
 6389TIP3    H119173   1.798   5.542   0.101 -1.1975 -0.3752  1.1282
 6389TIP3    H219174   1.883   5.627   0.192  0.6164 -0.3741 -0.4834
 6390TIP3   OH219175   5.582   4.329   0.142 -0.3897 -0.2807 -0.2619
 6390TIP3    H119176   5.550   4.414   0.111  1.3845  0.1455 -1.0641
 6390TIP3    H219177   5.643   4.351   0.213 -0.3365 -0.9076 -0.1099
 6391TIP3   OH219178   5.699   3.907   0.976  0.0141  0.1261 -0.4404
 6391TIP3    H119179   5.642   3.984   0.970  0.5664  0.5239 -0.6482
 6391TIP3    H219180   5.648   3.844   1.026 -1.7518 -0.5670 -2.9130
 6392TIP3   OH219181   1.649   0.993   0.356 -0.2919  0.0105  0.1329
 6392TIP3    H119182   1.588   0.974   0.427  1.2667  0.6224  1.7185
 6392TIP3    H219183   1.736   0.981   0.395  0.6481  1.9354 -1.1872
 6393TIP3   OH219184   3.521   4.289   2.116 -0.4061 -0.2028  0.2193
 6393TIP3    H119185   3.518   4.373   2.163 -1.1046  0.2571 -0.6071
 6393TIP3    H219186   3.612   4.262   2.119 -0.0102  1.0248 -0.2191
 6394TIP3   OH219187   0.505   2.185   4.103  0.5557  0.0037  0.5294
 6394TIP3    H119188   0.465   2.129   4.037 -0.2872 -0.4798  1.4183
 6394TIP3    H219189   0.435   2.246   4.128  0.8118  0.0682  1.1004
 6395TIP3   OH219190   2.481   0.317   2.099 -0.0569  0.7937 -0.1134
 6395TIP3    H119191   2.553   0.256   2.080 -0.1442  0.4585  0.6192
 6395TIP3    H219192   2.458   0.353   2.013 -0.9122 -1.2274 -0.7923
 6396TIP3   OH219193   4.288   1.622   1.357 -0.3616 -0.0122  0.3536
 6396TIP3    H119194   4.337   1.631   1.439  2.4864 -0.0748 -1.2103
 6396TIP3    H219195   4.248   1.708   1.344  1.6467  0.9959  0.4021
 6397TIP3   OH219196   2.653   5.816   1.730  0.1947 -0.0725 -0.2912
 6397TIP3    H119197   2.631   5.904   1.762  1.9933  0.4578 -0.4342
 6397TIP3    H219198   2.716   5.831   1.659  0.0803 -1.4671 -0.7201
 6398TIP3   OH219199   2.028   5.677   2.560  0.1726 -0.0711  0.0077
 6398TIP3    H119200   2.099   5.624   2.595 -1.1457 -1.3504  0.8792
 6398TIP3    H219201   1.992   5.722   2.636 -1.9768 -1.9640  0.2239
 6399TIP3   OH219202   1.359   1.710   4.565  0.6497  0.4922  0.2055
 6399TIP3    H119203   1.284   1.662   4.600  1.1112 -0.8827 -0.6054
 6399TIP3    H219204   1.429   1.644   4.559  1.2217  1.1771 -1.2179
 6400TIP3   OH219205   6.248   4.163   5.097 -0.6409  0.6544  0.0932
 6400TIP3    H119206   6.266   4.244   5.144  1.8959 -0.1351  0.5873
 6400TIP3    H219207   6.258   4.093   5.162  1.1937 -0.3288 -1.1555
 6401TIP3   OH219208   6.365   1.851   3.087  0.0258 -0.3691 -0.0360
 6401TIP3    H119209   6.362   1.944   3.064  0.1952 -0.5022 -0.6211
 6401TIP3    H219210   6.312   1.809   3.020  0.9966 -0.8330 -0.5299
 6402TIP3   OH219211   5.025   3.262   3.319 -0.7355 -0.0959 -0.0426
 6402TIP3    H119212   5.006   3.191   3.380  0.3346  1.1032  1.7909
 6402TIP3    H219213   5.098   3.309   3.359  0.2584  0.5720 -2.4441
 6403TIP3   OH219214   2.812   5.895   1.006  0.1423 -0.7825 -0.1741
 6403TIP3    H119215   2.724   5.883   0.970 -0.6482  0.0620  1.3546
 6403TIP3    H219216   2.867   5.914   0.930 -0.9798 -1.3767 -1.1711
 6404TIP3   OH219217   5.619   0.290   4.344 -0.4344 -0.1933 -0.2834
 6404TIP3    H119218   5.590   0.295   4.435 -0.7151  2.1309 -0.4467
 6404TIP3    H219219   5.546   0.327   4.294 -0.1908 -1.2405 -1.4594
 6405TIP3   OH219220   2.375   3.452   1.464 -0.3906  0.7447 -0.4761
 6405TIP3    H119221   2.357   3.405   1.382  1.2456  1.7233 -1.4557
 6405TIP3    H219222   2.310   3.523   1.465 -1.5438 -0.2792 -0.0114
 6406TIP3   OH219223   5.336   3.320   4.714  0.1016 -0.3698 -0.1462
 6406TIP3    H119224   5.377   3.314   4.628 -2.3343  1.7353 -1.5994
 6406TIP3    H219225   5.373   3.398   4.754 -0.3543 -0.1018 -0.2390
 6407TIP3   OH219226   3.075   4.043   2.171  0.7487  0.0369 -0.0684
 6407TIP3    H119227   3.155   4.035   2.119  0.6040  2.5363 -0.8391
 6407TIP3    H219228   3.074   3.965   2.227  1.0257 -2.7357 -3.5747
 6408TIP3   OH219229   0.346   1.414   0.915  0.3005  0.2656 -0.0313
 6408TIP3    H119230   0.426   1.402   0.967  0.4691 -0.5484 -0.4673
 6408TIP3    H219231   0.298   1.483   0.961 -0.2828 -1.4455  2.0975
 6409TIP3   OH219232   1.111   5.575   2.128  0.2748  0.6116  0.3772
 6409TIP3    H119233   1.131   5.498   2.075  0.5110 -0.3881  1.8494
 6409TIP3    H219234   1.087   5.539   2.214 -1.1282  2.1210  0.6554
 6410TIP3   OH219235   2.518   4.851   4.203  0.1124  0.0287 -0.1703
 6410TIP3    H119236   2.592   4.903   4.172 -1.4591  1.7622 -1.2513
 6410TIP3    H219237   2.510   4.873   4.296 -0.9418  2.3792 -0.7523
 6411TIP3   OH219238   4.247   4.424   4.515  0.4386 -0.8751 -0.1034
 6411TIP3    H119239   4.161   4.395   4.485  0.8891 -1.3209 -0.9948
 6411TIP3    H219240   4.230   4.507   4.560 -0.2894 -0.2247 -1.5193
 6412TIP3   OH219241   5.259   3.398   3.410 -0.0324  0.1027  0.2673
 6412TIP3    H119242   5.287   3.364   3.495 -0.3239  0.5578  0.5556
 6412TIP3    H219243   5.314   3.475   3.396 -1.2122  1.1053  0.9229
 6413TIP3   OH219244   5.425   1.536   1.401 -0.4623  0.1258  0.1027
 6413TIP3    H119245   5.515   1.507   1.417 -1.2981 -1.6816  2.2465
 6413TIP3    H219246   5.430   1.631   1.400  1.3039  0.1294  1.7717
 6414TIP3   OH219247   4.939   1.686   4.570  0.0358 -0.0283 -0.0895
 6414TIP3    H119248   5.007   1.641   4.620 -1.2890 -1.1433  0.7867
 6414TIP3    H219249   4.980   1.705   4.486  1.5543 -0.2860  0.5561
 6415TIP3   OH219250   3.501   5.502   1.365 -0.7911 -0.1852 -0.1546
 6415TIP3    H119251   3.481   5.515   1.273 -0.2242 -2.8782 -0.7531
 6415TIP3    H219252   3.416   5.495   1.408 -1.1212 -1.4899 -0.9539
 6416TIP3   OH219253   6.042   4.134   1.595  0.2771 -0.1022 -0.4164
 6416TIP3    H119254   6.012   4.092   1.515  1.8056 -1.8731 -0.1336
 6416TIP3    H219255   6.134   4.155   1.578  0.3381  0.4391  0.5111
 6417TIP3   OH219256   4.836   2.356   5.192 -0.7682  0.0582 -0.3634
 6417TIP3    H119257   4.846   2.445   5.159 -0.9156 -0.0022 -0.5710
 6417TIP3    H219258   4.926   2.323   5.197 -0.7157  0.2065 -0.3181
 6418TIP3   OH219259   4.703   3.571   2.576 -0.6648 -0.0587 -0.1370
 6418TIP3    H119260   4.784   3.620   2.565 -1.1381  0.9344  0.6798
 6418TIP3    H219261   4.635   3.638   2.589 -1.4900 -0.8921 -0.0210
 6419TIP3   OH219262   3.172   3.826   3.384  0.0283  0.2161  0.3225
 6419TIP3    H119263   3.223   3.884   3.328 -0.4461  0.4278  0.1056
 6419TIP3    H219264   3.237   3.776   3.432  0.4425  0.6041  0.1729
 6420TIP3   OH219265   5.699   5.172   0.636  0.4097  0.4676 -0.4447
 6420TIP3    H119266   5.766   5.225   0.593 -1.2119  1.5402 -1.7755
 6420TIP3    H219267   5.699   5.090   0.587  0.6049  0.5567 -0.5976
 6421TIP3   OH219268   2.620   1.988   1.126  0.1242 -0.4254  0.1459
 6421TIP3    H119269   2.652   2.066   1.080 -0.1325 -1.1151 -1.2704
 6421TIP3    H219270   2.631   2.008   1.219 -2.3181  2.3720 -0.0076
 6422TIP3   OH219271   5.610   5.877   1.837 -0.2674 -0.5461  0.3049
 6422TIP3    H119272   5.515   5.887   1.839 -0.4461 -1.8580 -0.4479
 6422TIP3    H219273   5.628   5.800   1.891  0.2374 -1.0692 -0.5918
 6423TIP3   OH219274   6.247   0.544   1.131 -0.2019 -0.7104  0.3346
 6423TIP3    H119275   6.173   0.584   1.086  1.5661  0.1836 -1.9757
 6423TIP3    H219276   6.279   0.476   1.071  1.7026 -0.0791  0.5532
 6424TIP3   OH219277   5.487   3.307   1.632  0.5872  0.3052 -0.6459
 6424TIP3    H119278   5.417   3.338   1.689  0.6340  0.4217 -0.6515
 6424TIP3    H219279   5.472   3.350   1.548  0.9306  0.6898 -0.5137
 6425TIP3   OH219280   2.653   2.718   3.725 -0.1935  0.0643 -0.0178
 6425TIP3    H119281   2.625   2.770   3.801  0.8354 -0.0822  0.4695
 6425TIP3    H219282   2.600   2.638   3.730 -1.4109  0.8075 -0.4777
 6426TIP3   OH219283   1.559   1.044   4.046 -0.0729 -0.1133 -0.5032
 6426TIP3    H119284   1.584   0.995   4.125 -0.6818  1.6521  0.8460
 6426TIP3    H219285   1.586   1.134   4.063 -2.6110  0.8711 -1.1350
 6427TIP3   OH219286   1.362   2.787   0.752 -0.0722 -0.3316 -0.3560
 6427TIP3    H119287   1.267   2.794   0.760 -0.0942  0.3228 -1.1166
 6427TIP3    H219288   1.375   2.747   0.666  0.2653 -3.4334  0.9936
 6428TIP3   OH219289   2.555   1.262   1.172 -0.1308 -0.3894  0.4715
 6428TIP3    H119290   2.645   1.230   1.175  0.6094  1.5672  0.6956
 6428TIP3    H219291   2.517   1.222   1.094  2.2998  1.9344 -2.1198
 6429TIP3   OH219292   3.867   5.524   1.888  0.4353  0.2312  0.0862
 6429TIP3    H119293   3.886   5.449   1.944 -0.5655  0.2853  0.5108
 6429TIP3    H219294   3.877   5.600   1.945  0.4863  0.3605 -0.0943
 6430TIP3   OH219295   2.213   3.760   0.484 -0.1470  0.3930  0.1768
 6430TIP3    H119296   2.157   3.746   0.408 -0.4868  0.8165  0.3496
 6430TIP3    H219297   2.300   3.733   0.455 -0.0950  1.4176 -0.6514
 6431TIP3   OH219298   1.445   4.761   3.003  0.5164 -0.2687  0.0782
 6431TIP3    H119299   1.520   4.721   3.047 -0.3535  0.2521  2.1453
 6431TIP3    H219300   1.461   4.855   3.009  0.1525 -0.1782 -0.3322
 6432TIP3   OH219301   3.190   3.207   3.947  0.7516  0.2337  0.3695
 6432TIP3    H119302   3.252   3.147   3.907  0.8744 -0.3996  1.4783
 6432TIP3    H219303   3.105   3.166   3.935  0.7692  0.1300  0.5912
 6433TIP3   OH219304   3.371   0.695   0.833  0.3353  0.0293  0.0030
 6433TIP3    H119305   3.413   0.637   0.769 -0.3387  0.4823 -0.8434
 6433TIP3    H219306   3.427   0.773   0.835  1.1916 -0.5717  1.0771
 6434TIP3   OH219307   6.138   4.363   2.092  0.4504 -0.0421  0.0819
 6434TIP3    H119308   6.154   4.270   2.075 -0.6453 -0.2296  0.0407
 6434TIP3    H219309   6.058   4.383   2.044  0.1021  0.6735  0.9448
 6435TIP3   OH219310   4.067   5.540   1.650 -0.7646  0.0824 -0.0627
 6435TIP3    H119311   4.017   5.579   1.721 -1.1012 -2.8566  1.4877
 6435TIP3    H219312   4.038   5.449   1.647  3.8550 -1.6951  0.4633
 6436TIP3   OH219313   4.102   2.426   0.353  0.6469 -0.0215  0.3885
 6436TIP3    H119314   4.184   2.393   0.389 -0.2336 -2.5272  0.3520
 6436TIP3    H219315   4.083   2.366   0.280 -1.2580  0.3975  0.4911
 6437TIP3   OH219316   2.657   5.878   4.428  0.4361 -0.1587  0.2738
 6437TIP3    H119317   2.737   5.919   4.396  0.9000 -1.3593 -0.1712
 6437TIP3    H219318   2.663   5.885   4.523 -1.2098  3.9170  0.2491
 6438TIP3   OH219319   5.353   2.754   3.414 -0.5766 -0.0091  0.1070
 6438TIP3    H119320   5.290   2.712   3.355  0.0005 -1.8962  0.7733
 6438TIP3    H219321   5.306   2.762   3.497 -0.3455 -0.2847  0.2643
 6439TIP3   OH219322   0.615   3.717   2.013 -0.3041 -0.4292 -0.0524
 6439TIP3    H119323   0.549   3.717   1.945 -0.5299 -0.1774  0.1635
 6439TIP3    H219324   0.566   3.709   2.095  0.0114 -1.4823  0.0443
 6440TIP3   OH219325   1.960   4.765   4.548 -0.3396 -0.1052  0.2306
 6440TIP3    H119326   1.897   4.798   4.611 -1.0014 -0.7875 -0.0573
 6440TIP3    H219327   1.953   4.824   4.473  1.0236  1.1922  1.0710
 6441TIP3   OH219328   1.908   4.038   0.178  0.6041  0.1830  0.9004
 6441TIP3    H119329   1.929   4.037   0.084  0.9646  1.8321  0.9356
 6441TIP3    H219330   1.962   3.968   0.215  2.5904  1.2746  0.2642
 6442TIP3   OH219331   0.126   2.395   1.170  0.3359  0.0705 -0.0493
 6442TIP3    H119332   0.188   2.354   1.110 -0.6889 -1.0804 -0.3527
 6442TIP3    H219333   0.149   2.361   1.256 -0.9736 -1.8009 -0.3886
 6443TIP3   OH219334   1.653   4.410   2.741  0.5376  0.0153  0.1416
 6443TIP3    H119335   1.647   4.472   2.669 -0.0437 -0.2376 -0.0304
 6443TIP3    H219336   1.747   4.404   2.760  0.7149 -0.1078 -0.7541
 6444TIP3   OH219337   1.031   0.491   4.063 -0.0203 -0.9311 -1.6758
 6444TIP3    H119338   1.093   0.536   4.121 -1.2920 -2.0037  0.6579
 6444TIP3    H219339   1.073   0.408   4.043 -0.1163 -1.0967 -1.2061
 6445TIP3   OH219340   3.387   1.675   4.318 -0.2449  0.7792 -0.1301
 6445TIP3    H119341   3.338   1.709   4.393  0.2629  2.2087 -0.4002
 6445TIP3    H219342   3.433   1.599   4.351 -0.5992  0.9598  0.8110
 6446TIP3   OH219343   5.462   1.249   0.157  0.0780  0.5280 -0.6726
 6446TIP3    H119344   5.377   1.205   0.156  0.3982 -0.1027 -0.3962
 6446TIP3    H219345   5.441   1.341   0.173 -0.4604  0.1674  0.8237
 6447TIP3   OH219346   4.816   4.858   1.245 -0.2718 -0.3495 -0.2462
 6447TIP3    H119347   4.795   4.837   1.154  1.9518  1.8182 -1.3897
 6447TIP3    H219348   4.802   4.953   1.251  0.7117 -0.2691  1.3349
 6448TIP3   OH219349   4.360   1.009   5.192  0.1710  0.7241 -0.2341
 6448TIP3    H119350   4.372   1.031   5.100  1.2202 -3.5815 -1.3643
 6448TIP3    H219351   4.275   0.965   5.196  0.8932 -0.6668  0.4585
 6449TIP3   OH219352   4.301   1.179   2.739 -0.1061  0.2905 -0.4326
 6449TIP3    H119353   4.346   1.095   2.740 -0.8337 -0.1111  0.9324
 6449TIP3    H219354   4.371   1.244   2.742  0.4205 -0.2963  0.2245
 6450TIP3   OH219355   3.394   4.898   2.930 -0.2796  0.2013  0.5106
 6450TIP3    H119356   3.416   4.912   3.022  0.5530 -0.5640  0.4356
 6450TIP3    H219357   3.301   4.879   2.931 -0.0513 -1.0323  1.3468
 6451TIP3   OH219358   3.899   0.126   4.885  0.3517 -0.2478 -0.1773
 6451TIP3    H119359   3.916   0.219   4.893  0.6449 -0.3008 -0.1609
 6451TIP3    H219360   3.939   0.088   4.963 -1.0168 -0.2304  0.5705
 6452TIP3   OH219361   4.240   5.355   0.459 -0.5578  0.2479 -0.3164
 6452TIP3    H119362   4.215   5.425   0.519  3.3190  1.9674 -0.3933
 6452TIP3    H219363   4.164   5.344   0.402 -2.4514  2.2111  1.6140
 6453TIP3   OH219364   2.039   5.085   1.142  0.2906  0.4538 -0.1424
 6453TIP3    H119365   1.961   5.037   1.168  0.5043 -0.0312 -0.3799
 6453TIP3    H219366   2.014   5.177   1.145 -0.1299  0.3243  0.2984
 6454TIP3   OH219367   0.644   4.028   5.166  0.2384  0.2776  0.3345
 6454TIP3    H119368   0.686   3.961   5.112 -0.2777 -0.1756  0.4883
 6454TIP3    H219369   0.584   4.073   5.107 -0.8583 -0.6916  0.6828
 6455TIP3   OH219370   2.588   5.000   3.524 -0.1401 -0.1745 -0.2797
 6455TIP3    H119371   2.641   5.014   3.602  0.6335  0.1817 -0.8514
 6455TIP3    H219372   2.512   4.951   3.555  1.2769 -2.1107  0.2963
 6456TIP3   OH219373   2.953   0.232   0.756 -1.0547  0.0403 -0.3611
 6456TIP3    H119374   3.048   0.220   0.759 -0.6689  1.9689 -2.2643
 6456TIP3    H219375   2.928   0.203   0.669 -2.5488 -2.1170  0.7185
 6457TIP3   OH219376   0.732   5.776   4.296  0.0622  0.0124  0.5352
 6457TIP3    H119377   0.685   5.847   4.253  1.9821 -0.1709 -2.1519
 6457TIP3    H219378   0.778   5.818   4.369  0.1225  1.2924 -0.2136
 6458TIP3   OH219379   4.347   1.569   4.438  0.4073  0.1543  0.2601
 6458TIP3    H119380   4.341   1.650   4.489 -1.5846  0.7424 -0.7953
 6458TIP3    H219381   4.414   1.587   4.372  0.5705  0.6392  0.5530
 6459TIP3   OH219382   4.593   1.388   2.531  0.0759 -0.7132 -0.0978
 6459TIP3    H119383   4.655   1.355   2.467  0.7643 -0.0639  0.2299
 6459TIP3    H219384   4.628   1.360   2.615 -1.7381 -3.1486 -0.0104
 6460TIP3   OH219385   2.823   5.477   4.313  0.0657 -0.3794 -0.3040
 6460TIP3    H119386   2.891   5.536   4.280 -0.2206 -0.0806 -0.3677
 6460TIP3    H219387   2.769   5.532   4.371  1.0765 -1.1084  1.3912
 6461TIP3   OH219388   3.571   4.147   0.664  0.0153 -0.0539 -0.3798
 6461TIP3    H119389   3.487   4.112   0.635 -0.1572  1.0097 -1.2136
 6461TIP3    H219390   3.633   4.076   0.647 -0.9558 -1.6216  2.0924
 6462TIP3   OH219391   1.211   4.066   4.015  0.1591  0.0733  0.3017
 6462TIP3    H119392   1.194   3.997   3.951 -1.6524  0.1234  0.6588
 6462TIP3    H219393   1.275   4.028   4.076  1.1731 -0.3128 -0.9703
 6463TIP3   OH219394   4.550   1.926   1.151 -0.0804 -0.4376  0.1831
 6463TIP3    H119395   4.628   1.944   1.099  0.7786  0.3505  1.6839
 6463TIP3    H219396   4.483   1.903   1.087  1.4223 -1.3097 -1.1310
 6464TIP3   OH219397   2.932   3.793   2.329 -0.4116 -0.3981 -0.0818
 6464TIP3    H119398   2.894   3.724   2.384 -2.1000  1.0902  0.7113
 6464TIP3    H219399   2.983   3.846   2.390 -1.6279  0.7895 -0.0532
 6465TIP3   OH219400   0.150   4.984   0.770  0.1699  1.0473  0.3755
 6465TIP3    H119401   0.243   4.987   0.793  0.1986 -0.3600  0.5201
 6465TIP3    H219402   0.111   5.053   0.823  1.1677  1.8582  0.0895
 6466TIP3   OH219403   4.852   3.969   3.970  0.4491 -0.0837  0.0703
 6466TIP3    H119404   4.876   3.975   4.063 -1.8848 -1.0943  0.8153
 6466TIP3    H219405   4.875   3.879   3.946  0.0353 -0.1709 -0.0057
 6467TIP3   OH219406   5.453   5.616   1.906 -0.3278 -0.1071  0.3644
 6467TIP3    H119407   5.394   5.692   1.907 -0.5204 -0.2583  0.7996
 6467TIP3    H219408   5.396   5.541   1.887 -0.3396 -0.2997  1.1368
 6468TIP3   OH219409   3.019   3.128   3.580  0.2672  0.2320  0.0279
 6468TIP3    H119410   3.006   3.200   3.641  0.7525 -0.0906  0.5177
 6468TIP3    H219411   3.086   3.160   3.519  0.1923  0.3457  0.0057
 6469TIP3   OH219412   0.652   2.786   2.636 -0.5316 -0.5238 -0.9195
 6469TIP3    H119413   0.703   2.707   2.654  0.8910  0.1692 -1.7554
 6469TIP3    H219414   0.627   2.778   2.544 -0.8176 -0.2416 -0.8656
 6470TIP3   OH219415   2.785   2.006   3.243 -0.0025 -0.4575  0.1658
 6470TIP3    H119416   2.866   1.957   3.234 -0.3929 -1.0666 -0.1205
 6470TIP3    H219417   2.763   2.032   3.153 -0.3406 -0.6621  0.1849
 6471TIP3   OH219418   1.126   4.763   4.134  0.3765  0.1204  0.3455
 6471TIP3    H119419   1.032   4.779   4.131  0.6222  1.7638  0.4161
 6471TIP3    H219420   1.140   4.712   4.214 -0.5315 -0.9580 -0.1487
 6472TIP3   OH219421   0.541   1.766   0.559  0.1265 -0.4886 -0.1557
 6472TIP3    H119422   0.461   1.813   0.537  0.6173  0.0053 -0.9239
 6472TIP3    H219423   0.521   1.722   0.641 -1.5429 -1.8390 -1.2244
 6473TIP3   OH219424   2.122   2.210   3.846  0.3116 -0.1683  0.4232
 6473TIP3    H119425   2.122   2.263   3.766  0.0114 -0.2055  0.3982
 6473TIP3    H219426   2.112   2.273   3.917 -1.1974 -0.2748  0.3325
 6474TIP3   OH219427   5.322   4.970   1.283  0.0838 -0.5827  0.0581
 6474TIP3    H119428   5.321   5.032   1.210  0.3724 -0.7437 -0.0857
 6474TIP3    H219429   5.297   4.887   1.244 -1.6052 -0.3121  0.4950
 6475TIP3   OH219430   5.577   2.539   2.759 -0.1545  0.1074  0.4646
 6475TIP3    H119431   5.613   2.562   2.673  1.2782 -3.7234 -0.1569
 6475TIP3    H219432   5.483   2.557   2.751  0.2509  1.8626 -1.0959
 6476TIP3   OH219433   1.116   5.247   4.561  0.0127  0.5794  0.5396
 6476TIP3    H119434   1.171   5.251   4.638 -0.9673  2.2306  1.2229
 6476TIP3    H219435   1.110   5.338   4.531 -1.3274  0.2828 -0.2049
 6477TIP3   OH219436   2.860   4.415   3.419  0.1847  0.3976  0.2563
 6477TIP3    H119437   2.887   4.434   3.509  1.7168  0.3588 -0.1628
 6477TIP3    H219438   2.878   4.496   3.371 -1.4480  0.7098  0.1354
 6478TIP3   OH219439   4.978   2.734   2.096  0.0229  0.3160 -0.7528
 6478TIP3    H119440   5.059   2.776   2.127  0.4871 -1.8668  1.2798
 6478TIP3    H219441   4.909   2.776   2.148  0.4231 -0.9191  0.8646
 6479TIP3   OH219442   4.867   4.870   4.960  0.1653 -0.3159  0.0644
 6479TIP3    H119443   4.917   4.829   4.890 -2.8410 -0.4511 -2.1967
 6479TIP3    H219444   4.845   4.797   5.019 -0.1616 -0.8897 -0.7480
 6480TIP3   OH219445   2.399   0.025   1.041  0.2641 -0.1539 -0.3754
 6480TIP3    H119446   2.397   0.121   1.047 -1.5807 -0.1596 -0.4456
 6480TIP3    H219447   2.366   0.006   0.953  0.7539 -0.8604 -0.4134
 6481TIP3   OH219448   0.161   3.351   0.146  0.2609 -0.0820 -0.1773
 6481TIP3    H119449   0.167   3.381   0.237 -0.7939  2.6591 -0.8961
 6481TIP3    H219450   0.077   3.306   0.141  0.0370  0.2969  0.0858
 6482TIP3   OH219451   4.130   5.269   3.729  0.1002  0.2290  0.0206
 6482TIP3    H119452   4.212   5.238   3.768  0.5373  0.4632 -0.6954
 6482TIP3    H219453   4.104   5.199   3.670  1.1225  1.1882 -1.6491
 6483TIP3   OH219454   3.993   5.885   4.746  0.1431 -0.0796  0.0438
 6483TIP3    H119455   4.056   5.826   4.705  0.8756  1.8311 -1.6853
 6483TIP3    H219456   3.963   5.942   4.675  0.0844  2.1842  1.7938
 6484TIP3   OH219457   5.295   2.471   5.139 -0.0147 -0.1372  0.0557
 6484TIP3    H119458   5.281   2.512   5.053 -1.6450  1.1111  0.8583
 6484TIP3    H219459   5.254   2.385   5.132  1.4354 -0.7844 -0.9397
 6485TIP3   OH219460   4.663   1.293   4.380  0.5451  0.4042 -0.4146
 6485TIP3    H119461   4.669   1.202   4.351 -1.9988  0.1030 -0.1711
 6485TIP3    H219462   4.627   1.288   4.468 -0.0996  1.6627 -0.5873
 6486TIP3   OH219463   0.397   2.843  -0.008  0.1646 -0.0300 -0.1513
 6486TIP3    H119464   0.385   2.920   0.048  1.7634  0.6151 -0.6352
 6486TIP3    H219465   0.453   2.784   0.043  0.4533 -0.0598 -0.4959
 6487TIP3   OH219466   1.965   3.699   4.556  0.1147  0.3847 -0.0336
 6487TIP3    H119467   1.909   3.633   4.515  1.1525  1.2360 -3.0480
 6487TIP3    H219468   1.947   3.690   4.650 -4.0899 -0.2084 -0.7116
 6488TIP3   OH219469   5.689   0.567   4.963  0.1187 -0.5022  0.1097
 6488TIP3    H119470   5.778   0.532   4.972  0.2291 -0.2338  0.0710
 6488TIP3    H219471   5.667   0.553   4.871  0.1067 -0.5968  0.1262
 6489TIP3   OH219472   1.408   5.198   0.420  0.1014  0.2333  0.3236
 6489TIP3    H119473   1.348   5.271   0.432 -0.7691 -0.5822  1.1035
 6489TIP3    H219474   1.367   5.144   0.351  1.5175  1.2404 -1.3915
 6490TIP3   OH219475   1.895   5.668   2.832 -0.0030  0.4226 -0.4869
 6490TIP3    H119476   1.945   5.747   2.850 -0.9308  0.7327  0.9432
 6490TIP3    H219477   1.865   5.639   2.918 -1.3834 -0.3278 -1.1848
 6491TIP3   OH219478   4.670   2.493   3.925  0.7168  0.2063  0.1579
 6491TIP3    H119479   4.580   2.469   3.944  0.8702 -0.3785  0.1696
 6491TIP3    H219480   4.692   2.558   3.992  1.1838 -1.6925  1.9537
 6492TIP3   OH219481   1.653   3.767   4.007  0.5850 -0.4013 -0.0968
 6492TIP3    H119482   1.607   3.843   3.971  0.8096 -0.5317 -0.6712
 6492TIP3    H219483   1.583   3.709   4.037  0.3253 -0.8696 -1.5098
 6493TIP3   OH219484   3.401   4.293   4.945  0.3364 -0.3906 -0.2245
 6493TIP3    H119485   3.307   4.280   4.948  0.4062 -0.7704  1.9211
 6493TIP3    H219486   3.421   4.342   5.025  1.9274 -0.1077 -0.7607
 6494TIP3   OH219487   4.902   3.098   2.372 -0.1120  0.1857 -0.4928
 6494TIP3    H119488   4.967   3.082   2.441 -1.6364  0.1227  0.9930
 6494TIP3    H219489   4.849   3.170   2.405 -1.3922 -0.3967 -1.2110
 6495TIP3   OH219490   4.766   4.041   2.839  0.2334 -0.1918 -0.1343
 6495TIP3    H119491   4.721   3.992   2.908 -0.3792  0.6140  0.0586
 6495TIP3    H219492   4.712   4.119   2.826  1.3054  0.5480 -0.2673
 6496TIP3   OH219493   3.851   4.650   2.746 -0.3861 -0.1406  0.4029
 6496TIP3    H119494   3.792   4.656   2.671  0.3157  1.0376 -0.0904
 6496TIP3    H219495   3.824   4.571   2.792 -1.9777  0.0618 -0.1185
 6497TIP3   OH219496   2.611   0.126   4.129 -0.2032  0.3170 -0.4456
 6497TIP3    H119497   2.604   0.205   4.181 -2.4515 -0.7012  0.9642
 6497TIP3    H219498   2.704   0.105   4.128  0.1562  1.6497  1.1991
 6498TIP3   OH219499   0.271   1.123   3.160  0.0393 -0.4849  0.2910
 6498TIP3    H119500   0.279   1.097   3.069 -3.1766  1.5711 -0.7594
 6498TIP3    H219501   0.186   1.088   3.187  1.6735 -2.6489  3.2193
 6499TIP3   OH219502   3.015   2.004   1.634 -0.3221 -0.4106  0.2418
 6499TIP3    H119503   3.004   2.070   1.565  0.5747  0.8940  1.2922
 6499TIP3    H219504   2.935   2.011   1.686 -0.6551 -0.8547 -0.1952
 6500TIP3   OH219505   5.667   5.108   1.756  0.7821  0.2452 -0.1061
 6500TIP3    H119506   5.740   5.107   1.818  0.6440  1.1915  0.0766
 6500TIP3    H219507   5.694   5.048   1.686  1.2203 -0.3167  0.5349
 6501TIP3   OH219508   4.126   3.922   4.523 -0.3540 -0.7056  0.2306
 6501TIP3    H119509   4.035   3.892   4.532 -0.7662  1.0376  3.2079
 6501TIP3    H219510   4.119   4.008   4.481 -0.2016 -0.2197  1.1676
 6502TIP3   OH219511   0.165   0.922   5.006  0.1667 -0.1989  0.5783
 6502TIP3    H119512   0.100   0.940   5.075 -0.3214 -0.7024  0.2599
 6502TIP3    H219513   0.219   1.001   5.003 -2.4968  1.7585 -1.4530
 6503TIP3   OH219514   4.749   3.213   2.556  0.1405  0.3542 -0.0411
 6503TIP3    H119515   4.735   3.218   2.651 -1.2146  0.4774 -0.2284
 6503TIP3    H219516   4.692   3.142   2.528  0.4875  0.3623 -0.7836
 6504TIP3   OH219517   0.276   0.481   4.123  0.3690  0.0235  0.2313
 6504TIP3    H119518   0.219   0.422   4.074  2.3754 -1.2743 -0.6611
 6504TIP3    H219519   0.238   0.484   4.211 -1.5255 -0.0927 -0.5334
 6505TIP3   OH219520   3.003   2.282   3.852 -1.0160 -0.3285  0.2138
 6505TIP3    H119521   2.955   2.365   3.853  0.0387  0.3656 -1.6221
 6505TIP3    H219522   3.034   2.272   3.942  2.4840  3.5625 -0.2569
 6506TIP3   OH219523   1.464   3.725   3.255 -0.8266  0.3540 -0.6121
 6506TIP3    H119524   1.419   3.791   3.307 -0.2473 -0.1760  0.6201
 6506TIP3    H219525   1.483   3.655   3.318  1.5394  0.4761 -1.1063
 6507TIP3   OH219526   3.232   2.950   4.194  0.0499  0.3403  0.0676
 6507TIP3    H119527   3.140   2.928   4.180  0.5633 -0.9670 -1.5416
 6507TIP3    H219528   3.270   2.954   4.106  1.5177  0.9709  0.6897
 6508TIP3   OH219529   3.325   0.697  -0.015  0.4858  0.2378 -0.6781
 6508TIP3    H119530   3.241   0.739   0.005  0.0270 -0.8292 -0.2767
 6508TIP3    H219531   3.390   0.757   0.023 -0.2925 -1.2917  3.7383
 6509TIP3   OH219532   5.090   5.592   4.055 -0.2611 -0.0711  0.3716
 6509TIP3    H119533   4.995   5.600   4.063 -0.0978  1.3761  1.1740
 6509TIP3    H219534   5.117   5.672   4.011  0.5237 -0.8105 -0.5169
 6510TIP3   OH219535   6.292   5.949   1.456 -0.3915 -0.3563 -0.3831
 6510TIP3    H119536   6.303   5.950   1.361  1.7854 -0.8684 -0.2094
 6510TIP3    H219537   6.285   6.041   1.480  0.7903 -0.0970 -0.9299
 6511TIP3   OH219538   5.355   3.446   2.266 -0.4491  0.4291  0.1242
 6511TIP3    H119539   5.381   3.537   2.253 -2.5390  1.1943  0.9688
 6511TIP3    H219540   5.403   3.418   2.344 -1.8510  1.7397  1.5286
 6512TIP3   OH219541   2.553   0.399   0.841  0.1940 -0.7247  0.2066
 6512TIP3    H119542   2.626   0.345   0.810  1.4624  0.3688  1.1917
 6512TIP3    H219543   2.591   0.454   0.909 -1.6783 -0.4525  1.0878
 6513TIP3   OH219544   1.861   4.649   3.356 -0.2556 -0.2322  0.5455
 6513TIP3    H119545   1.943   4.678   3.397 -0.8036  2.3931 -0.0733
 6513TIP3    H219546   1.856   4.698   3.275 -2.3812 -0.4701  0.4941
 6514TIP3   OH219547   2.446   0.309   1.580 -0.1921 -0.0405 -0.5494
 6514TIP3    H119548   2.452   0.217   1.606 -1.4413  0.5247  2.0497
 6514TIP3    H219549   2.518   0.352   1.626 -1.4855  0.7366  0.8295
 6515TIP3   OH219550   4.618   1.652   3.810 -0.3670 -0.5403  0.0332
 6515TIP3    H119551   4.660   1.697   3.737  0.3456 -0.4857  0.4649
 6515TIP3    H219552   4.604   1.720   3.876 -0.3815 -0.7193  0.2182
 6516TIP3   OH219553   4.698   2.466   0.968 -0.2602 -0.4894  0.2771
 6516TIP3    H119554   4.690   2.371   0.958 -1.0694 -0.6193  1.9403
 6516TIP3    H219555   4.651   2.487   1.048  1.1081  1.1421  0.7283
 6517TIP3   OH219556   0.786   3.489   2.007 -0.1122  0.3174 -0.0418
 6517TIP3    H119557   0.869   3.523   1.975  0.2449  1.5848  2.0427
 6517TIP3    H219558   0.728   3.565   2.006 -0.8098 -0.2059 -0.0143
 6518TIP3   OH219559   3.858   4.164   2.859  0.0577  0.0776 -0.1189
 6518TIP3    H119560   3.790   4.111   2.901 -1.0522  1.6785  0.2266
 6518TIP3    H219561   3.851   4.143   2.766 -1.3858  0.6478 -0.1738
 6519TIP3   OH219562   2.314   1.603   0.071  0.0059 -0.2887  0.8335
 6519TIP3    H119563   2.283   1.563  -0.010 -0.8376  1.7410  0.1011
 6519TIP3    H219564   2.351   1.530   0.121  0.1301 -1.6636 -1.1610
 6520TIP3   OH219565   0.315   5.418   3.775 -0.4342  0.0694 -0.5420
 6520TIP3    H119566   0.392   5.383   3.818 -1.0798 -1.0747 -0.2822
 6520TIP3    H219567   0.257   5.444   3.847 -1.2800 -1.3264 -0.6748
 6521TIP3   OH219568   5.187   3.850   0.435  0.5845  0.4297 -0.1334
 6521TIP3    H119569   5.150   3.762   0.445  0.0842  0.6989  0.4713
 6521TIP3    H219570   5.145   3.886   0.358  0.6980  0.1842 -0.3104
 6522TIP3   OH219571   4.729   3.774   3.752 -0.1454  0.1372  0.0918
 6522TIP3    H119572   4.778   3.855   3.756 -0.6395  0.5738 -1.7109
 6522TIP3    H219573   4.637   3.801   3.757 -0.2930 -0.3539  0.1106
 6523TIP3   OH219574   1.149   5.248   3.711 -0.1715 -0.2854  0.1145
 6523TIP3    H119575   1.230   5.214   3.673 -0.6453 -1.0421 -0.2401
 6523TIP3    H219576   1.094   5.269   3.635 -0.4385 -0.0946  0.3589
 6524TIP3   OH219577   4.794   5.777   1.252 -0.9818  0.1262 -0.6079
 6524TIP3    H119578   4.846   5.716   1.199 -1.2519  0.5066 -1.3210
 6524TIP3    H219579   4.715   5.728   1.274 -0.4380 -0.3817  0.3034
 6525TIP3   OH219580   4.104   1.972   2.106 -0.6415  0.1432  0.0384
 6525TIP3    H119581   4.078   1.881   2.095  0.5503 -0.0397 -1.7037
 6525TIP3    H219582   4.059   2.001   2.185 -0.8960 -2.0050  0.7329
 6526TIP3   OH219583   5.810   1.506   0.289  0.2133  0.2518  0.1741
 6526TIP3    H119584   5.862   1.447   0.235  1.0336  1.6620 -0.6317
 6526TIP3    H219585   5.722   1.500   0.252  0.2195 -0.6313  0.2654
 6527TIP3   OH219586   0.226   0.662   5.083 -0.3302  0.0100  0.5711
 6527TIP3    H119587   0.227   0.745   5.035  0.6880 -1.4872 -2.2178
 6527TIP3    H219588   0.315   0.653   5.117 -0.0847 -0.4791 -0.1828
 6528TIP3   OH219589   3.508   2.882   4.224 -0.1091 -0.1722  0.3045
 6528TIP3    H119590   3.414   2.893   4.237 -0.6927 -3.3836 -0.2577
 6528TIP3    H219591   3.545   2.886   4.312 -0.5857  1.9888  0.4546
 6529TIP3   OH219592   3.766   3.239   4.428 -0.2292  0.0246  0.4570
 6529TIP3    H119593   3.816   3.266   4.351 -1.7984 -0.0295 -0.6108
 6529TIP3    H219594   3.788   3.146   4.439 -0.0443  0.0182  0.0481
 6530TIP3   OH219595   3.122   5.107   1.246 -0.4799  0.0142  0.4161
 6530TIP3    H119596   3.076   5.167   1.188 -1.1975 -1.2781 -0.4088
 6530TIP3    H219597   3.070   5.026   1.243  2.1465 -1.7932 -1.1431
 6531TIP3   OH219598   5.023   5.195   3.636 -0.3915 -0.6112  0.6711
 6531TIP3    H119599   4.994   5.265   3.695  0.3123  1.2329 -1.0597
 6531TIP3    H219600   4.995   5.114   3.679 -3.1403  0.7904  1.7478
 6532TIP3   OH219601   2.819   3.063   4.159 -0.0398 -0.1801  0.2224
 6532TIP3    H119602   2.804   2.986   4.213 -0.6023 -0.1143  0.1682
 6532TIP3    H219603   2.747   3.122   4.181  1.0474  0.8362  1.1597
 6533TIP3   OH219604   0.909   3.374   5.216 -0.3547 -0.1384 -0.2944
 6533TIP3    H119605   0.940   3.368   5.125 -0.8281  0.0162 -0.4699
 6533TIP3    H219606   0.824   3.417   5.209 -0.3396 -0.0203  0.2377
 6534TIP3   OH219607   3.457   1.329   3.767  0.2207  0.3376  0.3790
 6534TIP3    H119608   3.534   1.272   3.776  1.4782  2.0291  0.7106
 6534TIP3    H219609   3.426   1.341   3.857  1.4755  2.1473  0.6067
 6535TIP3   OH219610   0.811   3.814   5.044  0.5061  0.0407  0.2387
 6535TIP3    H119611   0.890   3.824   5.098  0.2394  2.8101  0.3056
 6535TIP3    H219612   0.844   3.782   4.960  1.0840 -3.0643  1.5140
 6536TIP3   OH219613   5.600   3.592   2.613  0.6335  0.6262 -1.1720
 6536TIP3    H119614   5.533   3.532   2.579 -0.3482  1.6517 -1.1055
 6536TIP3    H219615   5.683   3.549   2.594 -0.0414 -0.7016 -1.2163
 6537TIP3   OH219616   4.538   1.618   4.226 -0.3111  0.4379 -0.2476
 6537TIP3    H119617   4.631   1.641   4.231  0.0643 -1.0140  0.0542
 6537TIP3    H219618   4.538   1.525   4.206 -1.7260  0.5957 -1.0947
 6538TIP3   OH219619   2.065   1.666   4.845 -0.0933 -0.2801  0.0815
 6538TIP3    H119620   2.086   1.760   4.849 -2.0720  0.2138 -0.2892
 6538TIP3    H219621   2.150   1.623   4.845  0.8552  1.4455  1.8107
 6539TIP3   OH219622   5.011   1.760   2.647  0.2580 -0.0045 -0.0399
 6539TIP3    H119623   5.100   1.752   2.611  0.4038  0.1189  0.2914
 6539TIP3    H219624   4.957   1.710   2.586  0.2425  1.5592 -1.4024
 6540TIP3   OH219625   0.712   2.853   3.583  0.2863 -0.0885  0.4829
 6540TIP3    H119626   0.712   2.876   3.676 -0.0494 -3.0969  1.3604
 6540TIP3    H219627   0.620   2.841   3.562  0.2504  1.8645 -0.6796
 6541TIP3   OH219628   0.908   5.005   4.680  0.3147  0.4127  0.0921
 6541TIP3    H119629   0.876   4.995   4.590 -0.0907 -0.2539  0.2998
 6541TIP3    H219630   0.845   5.063   4.722 -0.9562 -1.3112  0.6450
 6542TIP3   OH219631   0.887   2.461   4.773 -0.2970  0.1119 -0.6244
 6542TIP3    H119632   0.966   2.514   4.787 -0.2219 -0.0101 -0.5918
 6542TIP3    H219633   0.916   2.371   4.785 -1.0141  0.1716  2.1352
 6543TIP3   OH219634   4.870   4.245   2.127 -0.1886 -0.4502 -0.2038
 6543TIP3    H119635   4.951   4.240   2.077 -1.0980  0.1541 -1.8037
 6543TIP3    H219636   4.888   4.309   2.196  0.6396 -0.2074 -0.6368
 6544TIP3   OH219637   4.621   3.521   0.458 -0.2310  0.6835  0.2690
 6544TIP3    H119638   4.672   3.484   0.386 -0.5613  1.6174 -0.4568
 6544TIP3    H219639   4.588   3.604   0.425 -2.4542  0.0195  0.6007
 6545TIP3   OH219640   5.080   3.546   2.115 -0.3198 -0.4018  0.4773
 6545TIP3    H119641   5.023   3.485   2.068 -0.1827 -0.6781  0.6669
 6545TIP3    H219642   5.053   3.537   2.207  0.3654 -0.9023  0.6367
 6546TIP3   OH219643   3.046   0.655   1.843 -0.0086 -0.4781 -1.1272
 6546TIP3    H119644   3.012   0.736   1.805 -0.6427 -0.2199 -0.0464
 6546TIP3    H219645   3.141   0.660   1.829 -0.1089  0.1591 -1.6136
 6547TIP3   OH219646   5.657   0.665   2.781 -0.3373 -0.2749 -0.0857
 6547TIP3    H119647   5.717   0.615   2.837  0.3547  0.1249 -0.4549
 6547TIP3    H219648   5.655   0.753   2.819 -0.1104 -0.0874 -0.4994
 6548TIP3   OH219649   1.397   5.738   1.842  0.2782  0.6378 -0.0778
 6548TIP3    H119650   1.338   5.732   1.916  0.6745  0.8086  0.2544
 6548TIP3    H219651   1.407   5.648   1.811 -1.2937  0.7517 -1.0461
 6549TIP3   OH219652   4.261   2.982   3.889  0.1333 -0.1658  0.5766
 6549TIP3    H119653   4.270   2.894   3.852 -0.5102  0.4170 -1.0746
 6549TIP3    H219654   4.311   3.039   3.830 -0.2284  0.7044  1.0833
 6550TIP3   OH219655   0.274   2.696   0.913 -0.6258 -0.4233 -0.2205
 6550TIP3    H119656   0.203   2.757   0.896  0.2153 -0.1928 -3.4803
 6550TIP3    H219657   0.245   2.613   0.876  0.2957 -0.6419 -0.4827
 6551TIP3   OH219658   0.659   3.092   0.516 -0.0388  0.0417  0.2764
 6551TIP3    H119659   0.581   3.077   0.463 -1.2160 -1.6618  2.3570
 6551TIP3    H219660   0.710   3.012   0.506 -0.1546 -0.1955  1.4809
 6552TIP3   OH219661   5.679   2.353   4.056  0.2884  0.5941 -0.1905
 6552TIP3    H119662   5.700   2.348   3.962  1.1931 -0.2295  0.0377
 6552TIP3    H219663   5.720   2.434   4.085 -1.3769  1.7156 -0.8146
 6553TIP3   OH219664   2.431   5.619   1.160 -0.0834 -0.2445  0.1003
 6553TIP3    H119665   2.518   5.658   1.170 -0.4810  0.3703  1.4279
 6553TIP3    H219666   2.383   5.680   1.105  0.1756 -0.3659 -0.2706
 6554TIP3   OH219667   2.807   4.808   0.950  0.5474 -0.4253 -0.1044
 6554TIP3    H119668   2.862   4.883   0.926  0.2078  0.9604  2.9371
 6554TIP3    H219669   2.852   4.732   0.913  1.9228  1.0843 -1.7111
 6555TIP3   OH219670   1.927   5.175   2.597  0.2462  0.1830 -0.2277
 6555TIP3    H119671   1.964   5.263   2.591 -1.7137  1.1386  0.9164
 6555TIP3    H219672   1.854   5.176   2.535  0.2441 -0.6807 -0.2473
 6556TIP3   OH219673   4.536   5.486   4.066 -0.8851 -0.6120 -0.1501
 6556TIP3    H119674   4.492   5.499   4.150 -0.6131 -0.5755 -0.0124
 6556TIP3    H219675   4.554   5.574   4.034  0.9931 -0.6118  0.8007
 6557TIP3   OH219676   4.958   4.857   2.748 -0.6594 -0.4005 -0.4451
 6557TIP3    H119677   5.048   4.871   2.719 -0.7211 -1.8380 -1.4390
 6557TIP3    H219678   4.965   4.793   2.818 -1.0306 -2.0222 -1.8425
 6558TIP3   OH219679   3.273   0.209   1.347 -0.2233  0.5431  0.0617
 6558TIP3    H119680   3.182   0.211   1.376 -0.4761  1.2032 -0.7676
 6558TIP3    H219681   3.308   0.128   1.386 -0.7968  0.9222  1.4201
 6559TIP3   OH219682   3.785   5.570   4.972  0.1121  0.0654  0.0833
 6559TIP3    H119683   3.867   5.591   4.928  0.2126  2.2161  1.1890
 6559TIP3    H219684   3.810   5.519   5.049  0.2173 -0.8319 -0.5277
 6560TIP3   OH219685   0.810   4.733   2.956 -0.2463 -0.1691  0.0449
 6560TIP3    H119686   0.841   4.672   3.022  0.7121 -0.6841 -0.8390
 6560TIP3    H219687   0.869   4.809   2.963  0.1517 -0.4186 -0.4980
 6561TIP3   OH219688   1.682   4.400   2.138 -0.5794 -0.7242 -0.1880
 6561TIP3    H119689   1.774   4.404   2.165 -0.4563  0.5949 -0.7154
 6561TIP3    H219690   1.686   4.387   2.043 -0.9545 -1.4287 -0.1103
 6562TIP3   OH219691   4.581   2.040   3.552  0.4149  0.5475 -0.0230
 6562TIP3    H119692   4.572   2.116   3.495 -1.0080  0.6999  0.3567
 6562TIP3    H219693   4.578   1.964   3.493 -2.3613  0.6385 -0.1322
 6563TIP3   OH219694   0.650   3.644   1.270  0.2842 -0.0305  0.1524
 6563TIP3    H119695   0.578   3.583   1.252  0.9138 -0.7144 -0.0562
 6563TIP3    H219696   0.684   3.667   1.184  1.1171 -0.6762  0.2993
 6564TIP3   OH219697   1.210   1.775   3.760  0.2883 -0.1488 -0.2694
 6564TIP3    H119698   1.117   1.761   3.777 -0.5493  3.1862 -1.3402
 6564TIP3    H219699   1.232   1.853   3.810  2.4637 -0.6626 -0.3212
 6565TIP3   OH219700   0.982   2.825   3.252  0.1027 -0.1048 -0.2370
 6565TIP3    H119701   0.921   2.767   3.207 -0.6543  0.9231 -0.5705
 6565TIP3    H219702   1.038   2.766   3.303  0.7146 -1.2767 -2.1519
 6566TIP3   OH219703   2.820   1.514   1.290 -0.4185  0.0570 -0.0075
 6566TIP3    H119704   2.912   1.501   1.313 -0.0684  1.4602 -0.5148
 6566TIP3    H219705   2.773   1.496   1.372  0.5084  1.4624  0.8885
 6567TIP3   OH219706   5.120   3.773   4.284  0.0696 -0.0495 -0.2506
 6567TIP3    H119707   5.060   3.705   4.255 -0.2179  0.3958 -0.7230
 6567TIP3    H219708   5.102   3.847   4.226 -0.1966  0.7124  0.7908
 6568TIP3   OH219709   0.711   1.978   4.220  0.0176  0.2865  0.0928
 6568TIP3    H119710   0.677   2.045   4.161 -1.7134 -0.7181 -0.1082
 6568TIP3    H219711   0.665   1.993   4.302 -0.3251 -0.5876  0.0674
 6569TIP3   OH219712   1.713   5.156   1.608 -0.0657  0.2056  0.2033
 6569TIP3    H119713   1.734   5.243   1.640 -0.7526 -0.3053  2.1692
 6569TIP3    H219714   1.623   5.163   1.576  0.7298  0.7969 -2.0685
 6570TIP3   OH219715   3.935   0.609   0.523  0.1132 -0.1586 -0.0891
 6570TIP3    H119716   3.844   0.594   0.498 -0.1395 -0.3690  0.8985
 6570TIP3    H219717   3.985   0.544   0.475 -0.3913 -0.7815  0.2221
 6571TIP3   OH219718   0.989   3.740   2.859  0.8621 -0.0024 -0.3108
 6571TIP3    H119719   0.900   3.741   2.825  0.6635  0.1106  0.2015
 6571TIP3    H219720   0.979   3.723   2.953  1.4722 -2.1880 -0.5709
 6572TIP3   OH219721   2.576   5.542   3.526 -0.6346 -0.1439  0.2096
 6572TIP3    H119722   2.665   5.534   3.491 -1.1627 -1.8702 -0.8577
 6572TIP3    H219723   2.543   5.625   3.490  0.3109  0.1939  0.0941
 6573TIP3   OH219724   2.036   4.401   0.770 -0.3900  0.3265 -0.4000
 6573TIP3    H119725   2.001   4.490   0.782 -0.3361  0.0031  3.7230
 6573TIP3    H219726   1.968   4.356   0.720 -0.2115  2.6895 -3.0405
 6574TIP3   OH219727   1.235   4.179   2.195  0.1447  0.2587 -0.0039
 6574TIP3    H119728   1.292   4.254   2.181 -1.2077  1.3940  0.4586
 6574TIP3    H219729   1.281   4.106   2.152  1.5878  1.2730 -0.2456
 6575TIP3   OH219730   1.176   4.351   2.951  0.4388  0.3604 -0.5240
 6575TIP3    H119731   1.183   4.256   2.940  0.0560  0.3956 -1.0980
 6575TIP3    H219732   1.266   4.381   2.962  0.5518 -0.0847 -0.2170
 6576TIP3   OH219733   3.366   1.253   2.467  0.1573 -0.2663  0.0611
 6576TIP3    H119734   3.323   1.244   2.552  0.6913  0.3030  0.3903
 6576TIP3    H219735   3.293   1.269   2.406 -0.1267  0.5061  0.5857
 6577TIP3   OH219736   0.668   0.620   4.961  0.4037 -0.5161 -0.5391
 6577TIP3    H119737   0.754   0.635   4.923  0.6376 -0.4221  0.0289
 6577TIP3    H219738   0.651   0.527   4.946  0.9052 -0.6921 -0.0278
 6578TIP3   OH219739   0.809   0.520   0.357  0.3382 -0.1295 -0.6860
 6578TIP3    H119740   0.845   0.534   0.269  1.4869 -1.2838 -0.4278
 6578TIP3    H219741   0.840   0.433   0.382  0.4743  0.3948  1.0946
 6579TIP3   OH219742   5.459   2.934   1.365  0.1671 -0.3758  0.0718
 6579TIP3    H119743   5.417   2.902   1.284  0.1479 -1.8764  0.6524
 6579TIP3    H219744   5.520   3.001   1.335 -0.5760 -0.1824 -1.0860
 6580TIP3   OH219745   1.068   2.184   4.537  0.2437 -0.1781 -0.5223
 6580TIP3    H119746   1.063   2.090   4.554 -1.4386 -0.0810 -0.3019
 6580TIP3    H219747   1.103   2.221   4.618 -2.7867 -0.2759  1.0121
 6581TIP3   OH219748   0.947   1.740   5.074 -0.0219 -0.3087  0.0233
 6581TIP3    H119749   0.976   1.822   5.113  1.0084 -0.1859 -0.9381
 6581TIP3    H219750   0.914   1.765   4.987 -0.3117 -0.8350 -0.0260
 6582TIP3   OH219751   2.515   1.120   2.489 -0.4511  0.2991  0.1102
 6582TIP3    H119752   2.502   1.196   2.546 -0.9557 -0.8091  1.5390
 6582TIP3    H219753   2.431   1.075   2.489 -0.0511 -0.4729 -0.3815
 6583TIP3   OH219754   5.660   2.674   0.330 -0.1495 -0.1765  0.3427
 6583TIP3    H119755   5.736   2.711   0.284 -0.1746  0.8263  1.0682
 6583TIP3    H219756   5.636   2.597   0.279  2.6341 -1.7490  1.2479
 6584TIP3   OH219757   5.992   4.506   0.498  0.5427 -0.0890 -0.1319
 6584TIP3    H119758   6.059   4.454   0.542  0.3229 -1.0510 -0.9066
 6584TIP3    H219759   6.025   4.517   0.408  0.3387  0.6751 -0.1258
 6585TIP3   OH219760   2.516   6.010   1.257  0.0310  0.2923 -0.0500
 6585TIP3    H119761   2.534   5.917   1.243 -0.0761  0.1790  0.5380
 6585TIP3    H219762   2.424   6.012   1.283 -0.3052  0.6827 -1.2011
 6586TIP3   OH219763   1.733   0.020   1.344  0.0604 -0.2821  0.0469
 6586TIP3    H119764   1.784   0.046   1.421  1.3325 -2.2572 -0.0814
 6586TIP3    H219765   1.673  -0.047   1.376 -0.5621  0.0566 -0.3789
 6587TIP3   OH219766   2.772   1.009   4.325 -0.0776  0.1501  0.0201
 6587TIP3    H119767   2.721   1.032   4.403  1.3291 -1.2089  1.4185
 6587TIP3    H219768   2.707   0.981   4.261 -1.4112  2.9842  0.0124
 6588TIP3   OH219769   0.685   3.225   5.064 -0.0138  0.4888  0.1866
 6588TIP3    H119770   0.715   3.136   5.084 -0.4140  0.4537  0.6637
 6588TIP3    H219771   0.631   3.214   4.986  1.7518  0.6611 -1.1000
 6589TIP3   OH219772   4.202   4.774   1.992 -0.7096 -0.0702  0.4227
 6589TIP3    H119773   4.242   4.688   1.978 -1.1285 -0.0828 -0.7592
 6589TIP3    H219774   4.276   4.833   2.006 -0.2727 -0.2141 -1.1090
 6590TIP3   OH219775   2.407   5.050   2.326 -0.1039 -0.3570  0.3104
 6590TIP3    H119776   2.489   5.049   2.374 -0.1995  1.0600  0.5494
 6590TIP3    H219777   2.347   4.997   2.379  0.3084 -0.3444  0.7894
 6591TIP3   OH219778   2.060   0.287   0.967 -0.1662  0.7417 -0.2535
 6591TIP3    H119779   2.039   0.236   0.890  0.1876  0.1479  0.0371
 6591TIP3    H219780   2.156   0.292   0.967 -0.0291 -1.0432  1.2626
 6592TIP3   OH219781   0.039   1.692   3.660  0.3654 -0.0602 -0.6446
 6592TIP3    H119782   0.010   1.765   3.605  1.2900  0.1586 -0.8587
 6592TIP3    H219783   0.010   1.715   3.748 -0.3000  0.0407 -0.8894
 6593TIP3   OH219784   0.550   2.518   3.989 -0.1983 -0.3230 -0.7415
 6593TIP3    H119785   0.641   2.516   3.959 -1.0083 -1.5976 -3.4117
 6593TIP3    H219786   0.552   2.479   4.076  1.7539 -0.7456 -0.9416
 6594TIP3   OH219787   5.282   3.122   2.376  0.9873  0.1440 -0.3640
 6594TIP3    H119788   5.263   3.043   2.427 -1.5248  0.4651 -0.6584
 6594TIP3    H219789   5.329   3.090   2.299  1.2038 -0.8777  0.1725
 6595TIP3   OH219790   3.669   4.420   0.605 -0.0459  0.6336  0.6740
 6595TIP3    H119791   3.608   4.353   0.636  1.3468 -0.5383  0.9849
 6595TIP3    H219792   3.626   4.459   0.529 -1.2769  0.0173  1.0294
 6596TIP3   OH219793   5.836   0.593   2.292 -0.6881  0.6242 -0.7825
 6596TIP3    H119794   5.830   0.549   2.377  1.8573  1.3589 -0.1354
 6596TIP3    H219795   5.810   0.683   2.310  1.5198  1.2279 -0.2999
 6597TIP3   OH219796   4.636   0.776   4.355 -0.0467 -0.0961 -0.1973
 6597TIP3    H119797   4.605   0.695   4.394  0.4640 -0.5758 -0.7653
 6597TIP3    H219798   4.561   0.809   4.305  0.1764 -1.0021 -1.1772
 6598TIP3   OH219799   0.740   5.320   3.114  0.2976 -0.5207  0.5439
 6598TIP3    H119800   0.719   5.228   3.100  0.0358 -0.4986  0.7904
 6598TIP3    H219801   0.671   5.353   3.171 -0.2062  0.0939 -0.3915
 6599TIP3   OH219802   2.049   4.153   3.787  0.0209  0.3574  0.1163
 6599TIP3    H119803   1.981   4.104   3.834  1.2923 -1.5328  0.1102
 6599TIP3    H219804   2.058   4.235   3.836 -0.1062 -0.6946  1.9991
 6600TIP3   OH219805   0.934   5.111   4.140 -0.3399  0.2030  0.3359
 6600TIP3    H119806   0.980   5.189   4.170  0.6445 -0.4508  0.5677
 6600TIP3    H219807   0.998   5.066   4.085 -1.4212  0.3355 -1.0848
 6601TIP3   OH219808   6.151   2.777   0.505  0.1023  0.2144  0.7532
 6601TIP3    H119809   6.154   2.853   0.448  1.2229 -0.1847  0.2438
 6601TIP3    H219810   6.139   2.813   0.593  1.4818  1.0490  0.6272
 6602TIP3   OH219811   2.169   2.971   3.155 -0.4162 -0.4427 -0.1726
 6602TIP3    H119812   2.131   2.920   3.227 -1.3805  0.6370  0.1118
 6602TIP3    H219813   2.113   2.951   3.079 -0.7955  0.1762 -0.0605
 6603TIP3   OH219814   4.341   2.762   0.941  0.8898 -0.1493  0.4062
 6603TIP3    H119815   4.384   2.685   0.901  1.9192 -0.6356  2.3362
 6603TIP3    H219816   4.408   2.800   0.998 -0.2233  1.0663  0.9494
 6604TIP3   OH219817   5.679   3.848   4.614  0.6086 -0.1449  0.0795
 6604TIP3    H119818   5.597   3.807   4.585  1.1166 -2.6965  1.8849
 6604TIP3    H219819   5.728   3.777   4.655  1.9688  2.1326  2.7602
 6605TIP3   OH219820   1.683   1.163   4.983  0.5973 -0.8037  0.1630
 6605TIP3    H119821   1.687   1.113   4.902  0.5227  0.4177 -0.6125
 6605TIP3    H219822   1.645   1.247   4.958  1.8716  0.1190  1.2019
 6606TIP3   OH219823   1.291   1.936   0.797  0.0778  0.1037  0.2147
 6606TIP3    H119824   1.366   1.944   0.737 -0.3837  1.2646 -0.2322
 6606TIP3    H219825   1.330   1.941   0.884  0.4818  1.3591 -0.0169
 6607TIP3   OH219826   1.840   0.434   3.265 -0.3829  0.1679 -0.5510
 6607TIP3    H119827   1.905   0.404   3.202  1.8062  1.1710  1.0882
 6607TIP3    H219828   1.798   0.509   3.224 -1.3068 -1.1263 -2.0563
 6608TIP3   OH219829   5.815   1.161   2.456  0.4054 -0.0701  0.2103
 6608TIP3    H119830   5.766   1.085   2.485 -0.7093  0.7373  0.5143
 6608TIP3    H219831   5.840   1.206   2.537 -0.4924  0.8204  0.0136
 6609TIP3   OH219832   6.003   1.329   0.144 -0.0576 -0.0861 -0.0383
 6609TIP3    H119833   6.067   1.318   0.074  0.7271  1.7044  0.3399
 6609TIP3    H219834   5.928   1.276   0.116 -0.0417  1.0571 -2.5787
 6610TIP3   OH219835   2.328   4.370   4.970 -0.1553  0.4676 -0.0326
 6610TIP3    H119836   2.307   4.278   4.985 -1.1147  0.6116 -0.4266
 6610TIP3    H219837   2.379   4.371   4.889 -2.3865  0.4991 -1.5229
 6611TIP3   OH219838   5.268   1.467   3.491 -0.4707  0.3301 -0.1403
 6611TIP3    H119839   5.360   1.493   3.490 -0.0635 -1.0080 -0.2284
 6611TIP3    H219840   5.234   1.502   3.574 -0.0644  1.3779 -0.3990
 6612TIP3   OH219841   6.205   2.651   5.044 -0.9264 -0.3154 -0.1248
 6612TIP3    H119842   6.254   2.673   4.965 -0.7731  0.5595  0.2080
 6612TIP3    H219843   6.117   2.686   5.029 -1.0192 -0.5246 -0.0791
 6613TIP3   OH219844   4.717   3.217   0.953  0.6176  0.0103 -0.0145
 6613TIP3    H119845   4.744   3.261   0.872 -0.8055 -1.0388 -1.1104
 6613TIP3    H219846   4.666   3.141   0.923 -0.9287  0.2311  1.8784
 6614TIP3   OH219847   2.696   3.883   2.220 -1.0100 -0.4028  0.2478
 6614TIP3    H119848   2.774   3.836   2.251 -0.3244  0.9107  0.6177
 6614TIP3    H219849   2.716   3.976   2.237 -2.3972  0.0120 -0.2434
 6615TIP3   OH219850   4.917   2.464   1.508 -0.6800  0.6660  0.9121
 6615TIP3    H119851   4.921   2.443   1.601 -1.3210 -0.1841  0.7563
 6615TIP3    H219852   5.009   2.475   1.481 -0.5009  1.0855  1.6671
 6616TIP3   OH219853   4.130   3.867   0.870  0.4204  0.0047  0.3591
 6616TIP3    H119854   4.057   3.825   0.916  0.5635  0.3150  0.8816
 6616TIP3    H219855   4.208   3.832   0.913  0.5384  1.1267  1.1174
 6617TIP3   OH219856   5.501   2.437   4.461  0.4836 -0.2403  0.1637
 6617TIP3    H119857   5.441   2.462   4.531  0.3886 -1.1016  0.4098
 6617TIP3    H219858   5.485   2.501   4.391  1.2003  1.1685  1.2484
 6618TIP3   OH219859   1.060   1.195   4.647 -0.1711  0.2153  0.0488
 6618TIP3    H119860   0.985   1.136   4.658 -0.4356  0.5186 -0.1156
 6618TIP3    H219861   1.064   1.245   4.728  2.2716 -2.4938  1.8091
 6619TIP3   OH219862   0.304   1.191   3.519 -0.0336  0.5095 -0.2469
 6619TIP3    H119863   0.355   1.238   3.585 -0.0999 -1.5630  1.3873
 6619TIP3    H219864   0.368   1.136   3.474 -0.1101  1.3889 -1.4820
 6620TIP3   OH219865   5.137   5.223   4.633 -0.0386  0.3058 -0.0205
 6620TIP3    H119866   5.210   5.281   4.652  0.3138  0.1234 -0.7898
 6620TIP3    H219867   5.156   5.144   4.684  0.3425  0.2275 -0.2832
 6621TIP3   OH219868   0.751   5.921   3.695  0.5300 -0.6299 -0.4679
 6621TIP3    H119869   0.681   5.934   3.759  0.2011  2.5581 -1.3278
 6621TIP3    H219870   0.810   5.858   3.737 -0.9917 -0.6554  1.8211
 6622TIP3   OH219871   0.091   0.500   2.822 -0.1344 -0.3327 -0.8535
 6622TIP3    H119872   0.164   0.457   2.868 -2.3655 -1.6821  1.6839
 6622TIP3    H219873   0.096   0.592   2.849 -0.4828 -0.8084  0.9177
 6623TIP3   OH219874   1.271   4.776   2.508  0.2013 -0.6420 -0.5261
 6623TIP3    H119875   1.277   4.872   2.511  0.8064 -0.6520 -1.1206
 6623TIP3    H219876   1.337   4.746   2.571 -1.1753 -0.6728  0.9698
 6624TIP3   OH219877   3.505   0.942   2.820  0.2281  0.1294 -0.1379
 6624TIP3    H119878   3.423   0.990   2.810 -0.5106 -0.8126  1.1325
 6624TIP3    H219879   3.499   0.902   2.907  1.9995 -0.0421 -0.0611
 6625TIP3   OH219880   1.621   1.784   4.885 -0.2893 -0.0983 -0.7148
 6625TIP3    H119881   1.577   1.869   4.886 -0.1470  0.0673 -3.0055
 6625TIP3    H219882   1.694   1.796   4.825  1.6657 -0.9900  1.3588
 6626TIP3   OH219883   0.591   1.159   1.316  0.3974  0.4660  0.2550
 6626TIP3    H119884   0.506   1.159   1.271  1.1791  0.5220 -1.2870
 6626TIP3    H219885   0.591   1.241   1.367 -1.6618 -0.9291  2.7683
 6627TIP3   OH219886   4.533   4.193   1.457 -0.0308  0.0843  0.5821
 6627TIP3    H119887   4.523   4.287   1.474  0.4689  0.3640 -0.5861
 6627TIP3    H219888   4.621   4.173   1.488 -0.0335  0.0674  0.5782
 6628TIP3   OH219889   2.268   1.941   3.194 -0.1364 -0.8990 -0.1976
 6628TIP3    H119890   2.326   1.902   3.260 -0.2145 -1.3256 -0.3787
 6628TIP3    H219891   2.324   2.002   3.146  0.0024 -0.8304  0.0474
 6629TIP3   OH219892   4.767   5.883   2.629  0.1235 -0.0921 -0.2760
 6629TIP3    H119893   4.697   5.947   2.642 -2.0364 -2.3096 -0.3895
 6629TIP3    H219894   4.846   5.936   2.623 -1.2983  2.4362  1.4198
 6630TIP3   OH219895   1.524   3.145   5.164 -0.3988 -0.1123 -0.1095
 6630TIP3    H119896   1.570   3.229   5.169 -0.8923  0.1546  0.0131
 6630TIP3    H219897   1.545   3.112   5.077  1.3261 -0.7642  0.4967
 6631TIP3   OH219898   1.158   0.947   1.182  0.8379  0.0861  0.2450
 6631TIP3    H119899   1.160   1.039   1.155  0.5029 -0.1543 -0.6322
 6631TIP3    H219900   1.219   0.942   1.256  0.9287  0.9928  0.2390
 6632TIP3   OH219901   0.526   4.473   1.866 -0.3102 -0.1575  0.3910
 6632TIP3    H119902   0.593   4.490   1.933  1.6726  1.8421 -1.9116
 6632TIP3    H219903   0.451   4.441   1.916  1.2370  0.6173  3.5089
 6633TIP3   OH219904   2.229   5.344   0.833 -0.1378 -0.6692  0.2159
 6633TIP3    H119905   2.155   5.291   0.806 -0.2123 -1.2441  1.4508
 6633TIP3    H219906   2.272   5.292   0.902 -0.9432  1.3618  2.4039
 6634TIP3   OH219907   2.295   3.361   5.108  0.1539 -0.2456 -0.2320
 6634TIP3    H119908   2.269   3.300   5.039 -0.2218 -0.5491  0.1758
 6634TIP3    H219909   2.311   3.305   5.184  0.8631  0.0569 -0.1551
 6635TIP3   OH219910   2.553   1.692   3.581 -0.0805 -0.2543 -0.5038
 6635TIP3    H119911   2.623   1.735   3.630 -0.6451  1.7339 -1.3557
 6635TIP3    H219912   2.472   1.720   3.623 -0.5565  1.1500 -2.2300
 6636TIP3   OH219913   5.781   0.049   1.964 -0.4598 -0.1422 -0.0040
 6636TIP3    H119914   5.825   0.134   1.960  0.5440 -0.6198  0.3826
 6636TIP3    H219915   5.691   0.067   1.938 -0.2983  1.0618  0.2051
 6637TIP3   OH219916   2.333   1.703   3.990 -0.4300 -0.2078  0.4177
 6637TIP3    H119917   2.331   1.715   3.895  3.0744  2.7614  0.5202
 6637TIP3    H219918   2.286   1.778   4.025 -1.3844 -1.0942  1.1115
 6638TIP3   OH219919   4.839   0.180   1.168  0.1775  0.4200  0.4811
 6638TIP3    H119920   4.767   0.120   1.189  0.4354  0.4269  1.4292
 6638TIP3    H219921   4.852   0.170   1.074 -0.3886 -0.3365  0.4738
 6639TIP3   OH219922   3.932   0.983   0.985 -0.2929  0.0787 -0.9236
 6639TIP3    H119923   3.982   1.045   1.039 -1.0697  0.1205 -0.2277
 6639TIP3    H219924   3.919   1.028   0.902  0.7385  0.1033 -1.0818
 6640TIP3   OH219925   0.028   4.237   3.929 -0.1206  0.0061 -0.0139
 6640TIP3    H119926  -0.022   4.284   3.997 -2.2783  0.7277 -1.9700
 6640TIP3    H219927   0.003   4.280   3.847  0.1389 -2.6634 -1.5948
   6.35102   5.98778   5.18558   0.00000   0.00000  -2.11700   0.00000  -2.11700  -2.99390
