Title t=  29.00000 step= 14500
19942
    1ASP      N    1   1.507   2.534   3.353
    1ASP    HT1    2   1.477   2.625   3.393
    1ASP    HT2    3   1.568   2.561   3.273
    1ASP    HT3    4   1.571   2.486   3.420
    1ASP     CA    5   1.402   2.444   3.309
    1ASP     HA    6   1.336   2.420   3.391
    1ASP     CB    7   1.327   2.514   3.191
    1ASP    HB1    8   1.381   2.488   3.098
    1ASP    HB2    9   1.325   2.625   3.191
    1ASP     CG   10   1.181   2.465   3.176
    1ASP    OD1   11   1.109   2.511   3.084
    1ASP    OD2   12   1.139   2.389   3.266
    1ASP      C   13   1.453   2.298   3.276
    1ASP      O   14   1.572   2.270   3.282
    2ALA      N   15   1.360   2.204   3.246
    2ALA     HN   16   1.262   2.220   3.240
    2ALA     CA   17   1.397   2.071   3.210
    2ALA     HA   18   1.482   2.075   3.143
    2ALA     CB   19   1.435   1.992   3.338
    2ALA    HB1   20   1.479   1.893   3.312
    2ALA    HB2   21   1.344   1.973   3.399
    2ALA    HB3   22   1.512   2.042   3.400
    2ALA      C   23   1.281   1.997   3.140
    2ALA      O   24   1.165   2.035   3.147
    3ASP      N   25   1.314   1.889   3.062
    3ASP     HN   26   1.407   1.853   3.052
    3ASP     CA   27   1.215   1.805   2.990
    3ASP     HA   28   1.119   1.851   2.973
    3ASP     CB   29   1.279   1.763   2.864
    3ASP    HB1   30   1.231   1.670   2.828
    3ASP    HB2   31   1.386   1.739   2.881
    3ASP     CG   32   1.271   1.866   2.752
    3ASP    OD1   33   1.327   1.825   2.646
    3ASP    OD2   34   1.195   1.969   2.755
    3ASP      C   35   1.188   1.679   3.065
    3ASP      O   36   1.281   1.614   3.117
    4GLY      N   37   1.059   1.643   3.081
    4GLY     HN   38   0.984   1.698   3.046
    4GLY     CA   39   1.029   1.506   3.126
    4GLY    HA1   40   0.924   1.504   3.149
    4GLY    HA2   41   1.090   1.490   3.214
    4GLY      C   42   1.056   1.397   3.028
    4GLY      O   43   1.104   1.420   2.918
    5PRO      N   44   1.037   1.273   3.064
    5PRO     CD   45   0.980   1.239   3.200
    5PRO    HD1   46   0.878   1.283   3.210
    5PRO    HD2   47   1.030   1.292   3.285
    5PRO     CA   48   1.065   1.149   2.986
    5PRO     HA   49   1.171   1.132   2.989
    5PRO     CB   50   0.983   1.051   3.064
    5PRO    HB1   51   1.014   0.946   3.047
    5PRO    HB2   52   0.876   1.057   3.034
    5PRO     CG   53   0.991   1.087   3.203
    5PRO    HG1   54   0.911   1.034   3.261
    5PRO    HG2   55   1.093   1.057   3.235
    5PRO      C   56   1.013   1.164   2.835
    5PRO      O   57   0.894   1.193   2.815
    6GLY      N   58   1.101   1.136   2.742
    6GLY     HN   59   1.196   1.115   2.766
    6GLY     CA   60   1.073   1.140   2.596
    6GLY    HA1   61   1.165   1.118   2.544
    6GLY    HA2   62   1.047   1.239   2.560
    6GLY      C   63   0.964   1.051   2.545
    6GLY      O   64   0.897   0.971   2.613
    7ASP      N   65   0.941   1.061   2.417
    7ASP     HN   66   0.980   1.133   2.360
    7ASP     CA   67   0.857   0.968   2.349
    7ASP     HA   68   0.767   0.954   2.406
    7ASP     CB   69   0.816   1.018   2.200
    7ASP    HB1   70   0.911   1.045   2.149
    7ASP    HB2   71   0.771   1.116   2.225
    7ASP     CG   72   0.722   0.938   2.109
    7ASP    OD1   73   0.687   1.010   2.009
    7ASP    OD2   74   0.684   0.816   2.122
    7ASP      C   75   0.918   0.829   2.347
    7ASP      O   76   1.035   0.822   2.309
    8PRO      N   77   0.848   0.718   2.377
    8PRO     CD   78   0.709   0.708   2.433
    8PRO    HD1   79   0.632   0.719   2.354
    8PRO    HD2   80   0.703   0.781   2.517
    8PRO     CA   81   0.915   0.580   2.378
    8PRO     HA   82   1.006   0.573   2.436
    8PRO     CB   83   0.802   0.483   2.415
    8PRO    HB1   84   0.837   0.395   2.474
    8PRO    HB2   85   0.749   0.440   2.327
    8PRO     CG   86   0.698   0.562   2.490
    8PRO    HG1   87   0.593   0.528   2.479
    8PRO    HG2   88   0.730   0.548   2.595
    8PRO      C   89   0.956   0.539   2.233
    8PRO      O   90   1.029   0.440   2.215
    9ASP      N   91   0.919   0.608   2.123
    9ASP     HN   92   0.852   0.682   2.123
    9ASP     CA   93   0.960   0.593   1.985
    9ASP     HA   94   0.985   0.491   1.960
    9ASP     CB   95   0.854   0.656   1.895
    9ASP    HB1   96   0.883   0.661   1.788
    9ASP    HB2   97   0.822   0.760   1.916
    9ASP     CG   98   0.726   0.570   1.899
    9ASP    OD1   99   0.618   0.628   1.880
    9ASP    OD2  100   0.737   0.445   1.897
    9ASP      C  101   1.096   0.659   1.964
    9ASP      O  102   1.175   0.625   1.871
   10ALA      N  103   1.136   0.754   2.052
   10ALA     HN  104   1.074   0.785   2.124
   10ALA     CA  105   1.266   0.820   2.054
   10ALA     HA  106   1.270   0.886   1.968
   10ALA     CB  107   1.292   0.903   2.186
   10ALA    HB1  108   1.380   0.969   2.174
   10ALA    HB2  109   1.305   0.841   2.277
   10ALA    HB3  110   1.200   0.963   2.202
   10ALA      C  111   1.387   0.725   2.033
   10ALA      O  112   1.424   0.641   2.111
   11GLY      N  113   1.460   0.742   1.923
   11GLY     HN  114   1.457   0.822   1.864
   11GLY     CA  115   1.575   0.666   1.878
   11GLY    HA1  116   1.559   0.560   1.893
   11GLY    HA2  117   1.659   0.705   1.934
   11GLY      C  118   1.595   0.694   1.731
   11GLY    OT1  119   1.619   0.814   1.700
   11GLY    OT2  120   1.621   0.594   1.651
   12LIT    LIT  121   4.022   4.573   2.743
   13LIT    LIT  122   0.873   2.466   2.714
   14LIT    LIT  123   0.606   5.532   2.238
   15LIT    LIT  124   0.164   1.013   4.501
   16LIT    LIT  125   3.833   5.158   2.466
   17LIT    LIT  126   3.774   5.662   4.741
   18LIT    LIT  127   0.414   5.814   2.740
   19LIT    LIT  128   0.570   0.690   2.041
   20LIT    LIT  129   3.461   1.987   3.492
   21LIT    LIT  130   2.337   5.719   2.884
   22LIT    LIT  131   4.187   2.738   0.545
   23LIT    LIT  132   1.169   1.450   1.234
   24LIT    LIT  133   4.782   2.624   1.596
   25LIT    LIT  134   1.676   5.803   0.381
   26LIT    LIT  135   2.688   0.858   4.163
   27LIT    LIT  136   0.144   1.072   3.511
   28LIT    LIT  137   2.304   1.379   4.028
   29LIT    LIT  138   2.443   4.480   1.828
   30LIT    LIT  139   2.383   1.320   1.697
   31LIT    LIT  140   5.857   3.665   4.496
   32LIT    LIT  141   4.117   5.379   2.034
   33LIT    LIT  142   3.667   1.502   0.748
   34CLA    CLA  143   3.007   1.237   2.504
   35CLA    CLA  144   0.630   0.294   4.001
   36CLA    CLA  145   2.290   0.620   4.880
   37CLA    CLA  146   6.248   4.039   4.119
   38CLA    CLA  147   0.801   3.070   4.661
   39CLA    CLA  148   4.982   3.942   3.860
   40CLA    CLA  149   1.408   0.832   3.642
   41CLA    CLA  150   0.661   4.299   1.917
   42CLA    CLA  151   3.557   2.930   1.317
   43CLA    CLA  152   1.732   3.417   1.233
   44CLA    CLA  153   5.954   3.051   4.402
   45CLA    CLA  154   3.543   1.361   3.582
   46CLA    CLA  155   1.467   0.912   3.200
   47CLA    CLA  156   2.606   0.640   4.154
   48CLA    CLA  157   2.344   5.550   4.579
   49CLA    CLA  158   5.676   5.198   0.438
   50CLA    CLA  159   0.874   1.306   0.692
   51CLA    CLA  160   2.869   0.196   1.796
   52TIP3   OH2  161   5.672   1.900   3.232
   52TIP3    H1  162   5.581   1.899   3.204
   52TIP3    H2  163   5.680   1.978   3.287
   53TIP3   OH2  164   0.791   3.549   4.312
   53TIP3    H1  165   0.721   3.483   4.307
   53TIP3    H2  166   0.753   3.621   4.363
   54TIP3   OH2  167   0.595   2.000   3.478
   54TIP3    H1  168   0.626   2.090   3.485
   54TIP3    H2  169   0.617   1.960   3.562
   55TIP3   OH2  170   4.039   3.253   2.447
   55TIP3    H1  171   3.999   3.307   2.380
   55TIP3    H2  172   4.024   3.302   2.529
   56TIP3   OH2  173   3.022   1.272   0.453
   56TIP3    H1  174   3.090   1.223   0.407
   56TIP3    H2  175   2.942   1.219   0.442
   57TIP3   OH2  176   2.871   2.263   1.411
   57TIP3    H1  177   2.924   2.331   1.370
   57TIP3    H2  178   2.876   2.188   1.351
   58TIP3   OH2  179   6.204   3.122   1.994
   58TIP3    H1  180   6.292   3.155   2.012
   58TIP3    H2  181   6.216   3.060   1.922
   59TIP3   OH2  182   2.309   2.796   2.649
   59TIP3    H1  183   2.255   2.725   2.685
   59TIP3    H2  184   2.296   2.869   2.709
   60TIP3   OH2  185   3.361   4.148   2.406
   60TIP3    H1  186   3.450   4.114   2.405
   60TIP3    H2  187   3.356   4.200   2.486
   61TIP3   OH2  188   5.028   1.359   2.948
   61TIP3    H1  189   5.060   1.318   2.867
   61TIP3    H2  190   5.014   1.450   2.924
   62TIP3   OH2  191   0.325   3.926   1.730
   62TIP3    H1  192   0.271   3.935   1.809
   62TIP3    H2  193   0.352   3.834   1.730
   63TIP3   OH2  194   3.694   2.383   0.761
   63TIP3    H1  195   3.631   2.399   0.691
   63TIP3    H2  196   3.642   2.343   0.831
   64TIP3   OH2  197   5.096   1.464   1.908
   64TIP3    H1  198   5.000   1.469   1.908
   64TIP3    H2  199   5.117   1.417   1.988
   65TIP3   OH2  200   4.196   0.902   2.063
   65TIP3    H1  201   4.165   0.896   1.973
   65TIP3    H2  202   4.272   0.960   2.059
   66TIP3   OH2  203   6.254   4.216   5.032
   66TIP3    H1  204   6.345   4.206   5.004
   66TIP3    H2  205   6.206   4.150   4.982
   67TIP3   OH2  206   3.398   0.551   0.063
   67TIP3    H1  207   3.349   0.517   0.138
   67TIP3    H2  208   3.376   0.493  -0.009
   68TIP3   OH2  209   1.427   0.573   3.202
   68TIP3    H1  210   1.410   0.667   3.196
   68TIP3    H2  211   1.519   0.564   3.176
   69TIP3   OH2  212   4.730   3.121   0.802
   69TIP3    H1  213   4.692   3.122   0.715
   69TIP3    H2  214   4.672   3.176   0.855
   70TIP3   OH2  215   5.020   1.993   4.649
   70TIP3    H1  216   4.960   2.031   4.585
   70TIP3    H2  217   4.965   1.936   4.703
   71TIP3   OH2  218   5.689   4.253   0.367
   71TIP3    H1  219   5.631   4.261   0.443
   71TIP3    H2  220   5.686   4.339   0.325
   72TIP3   OH2  221   5.552   0.845   1.186
   72TIP3    H1  222   5.487   0.903   1.146
   72TIP3    H2  223   5.509   0.760   1.191
   73TIP3   OH2  224   5.631   5.251   1.296
   73TIP3    H1  225   5.612   5.169   1.340
   73TIP3    H2  226   5.727   5.254   1.291
   74TIP3   OH2  227   3.762   0.601   1.842
   74TIP3    H1  228   3.721   0.647   1.915
   74TIP3    H2  229   3.854   0.595   1.866
   75TIP3   OH2  230   0.147   1.414   2.985
   75TIP3    H1  231   0.111   1.499   2.960
   75TIP3    H2  232   0.075   1.353   2.973
   76TIP3   OH2  233   3.448   3.463   3.151
   76TIP3    H1  234   3.464   3.375   3.186
   76TIP3    H2  235   3.371   3.494   3.199
   77TIP3   OH2  236   0.896   2.878   1.574
   77TIP3    H1  237   0.962   2.896   1.506
   77TIP3    H2  238   0.828   2.828   1.528
   78TIP3   OH2  239   3.081   3.378   4.366
   78TIP3    H1  240   3.065   3.452   4.308
   78TIP3    H2  241   3.002   3.325   4.359
   79TIP3   OH2  242   5.103   0.745   1.162
   79TIP3    H1  243   5.167   0.760   1.092
   79TIP3    H2  244   5.085   0.651   1.158
   80TIP3   OH2  245   1.870   3.963   1.674
   80TIP3    H1  246   1.910   4.028   1.731
   80TIP3    H2  247   1.938   3.896   1.662
   81TIP3   OH2  248   2.866   4.164   4.271
   81TIP3    H1  249   2.913   4.140   4.191
   81TIP3    H2  250   2.776   4.178   4.243
   82TIP3   OH2  251   2.117   5.823   0.088
   82TIP3    H1  252   2.085   5.890   0.149
   82TIP3    H2  253   2.212   5.828   0.097
   83TIP3   OH2  254   6.112   3.052   4.095
   83TIP3    H1  255   6.205   3.078   4.098
   83TIP3    H2  256   6.098   3.009   4.179
   84TIP3   OH2  257   5.827   2.041   2.301
   84TIP3    H1  258   5.853   1.951   2.322
   84TIP3    H2  259   5.809   2.040   2.207
   85TIP3   OH2  260   5.872   1.716   4.789
   85TIP3    H1  261   5.939   1.694   4.724
   85TIP3    H2  262   5.851   1.807   4.772
   86TIP3   OH2  263   4.295   2.203   2.508
   86TIP3    H1  264   4.219   2.167   2.554
   86TIP3    H2  265   4.291   2.297   2.524
   87TIP3   OH2  266   6.138   4.246   3.841
   87TIP3    H1  267   6.205   4.194   3.884
   87TIP3    H2  268   6.148   4.334   3.879
   88TIP3   OH2  269   3.692   1.704   1.664
   88TIP3    H1  270   3.779   1.673   1.692
   88TIP3    H2  271   3.675   1.780   1.720
   89TIP3   OH2  272   5.380   3.868   5.140
   89TIP3    H1  273   5.467   3.895   5.169
   89TIP3    H2  274   5.396   3.807   5.068
   90TIP3   OH2  275   3.982   5.263   1.932
   90TIP3    H1  276   3.986   5.199   1.861
   90TIP3    H2  277   3.889   5.277   1.946
   91TIP3   OH2  278   5.718   0.328   4.281
   91TIP3    H1  279   5.638   0.289   4.317
   91TIP3    H2  280   5.751   0.262   4.220
   92TIP3   OH2  281   5.180   3.305   2.108
   92TIP3    H1  282   5.121   3.231   2.097
   92TIP3    H2  283   5.139   3.376   2.059
   93TIP3   OH2  284   3.916   4.107   3.036
   93TIP3    H1  285   3.857   4.032   3.037
   93TIP3    H2  286   4.003   4.068   3.022
   94TIP3   OH2  287   4.428   4.326   2.778
   94TIP3    H1  288   4.467   4.253   2.826
   94TIP3    H2  289   4.502   4.383   2.756
   95TIP3   OH2  290   3.241   0.750   4.084
   95TIP3    H1  291   3.210   0.750   3.993
   95TIP3    H2  292   3.305   0.821   4.087
   96TIP3   OH2  293   1.836   5.731   0.288
   96TIP3    H1  294   1.918   5.734   0.338
   96TIP3    H2  295   1.858   5.680   0.210
   97TIP3   OH2  296   2.367   2.779   4.340
   97TIP3    H1  297   2.426   2.713   4.375
   97TIP3    H2  298   2.284   2.763   4.384
   98TIP3   OH2  299   2.379   0.022   4.471
   98TIP3    H1  300   2.419   0.102   4.505
   98TIP3    H2  301   2.420   0.009   4.385
   99TIP3   OH2  302   5.668   4.283   1.968
   99TIP3    H1  303   5.746   4.337   1.952
   99TIP3    H2  304   5.650   4.295   2.061
  100TIP3   OH2  305   1.449   0.067   0.783
  100TIP3    H1  306   1.444  -0.025   0.756
  100TIP3    H2  307   1.509   0.067   0.857
  101TIP3   OH2  308   2.425   0.902   1.519
  101TIP3    H1  309   2.493   0.834   1.526
  101TIP3    H2  310   2.343   0.857   1.541
  102TIP3   OH2  311   3.724   0.620   3.481
  102TIP3    H1  312   3.753   0.535   3.515
  102TIP3    H2  313   3.704   0.602   3.389
  103TIP3   OH2  314   2.559   4.466   2.728
  103TIP3    H1  315   2.594   4.547   2.691
  103TIP3    H2  316   2.506   4.495   2.802
  104TIP3   OH2  317   1.754   0.244   2.896
  104TIP3    H1  318   1.680   0.211   2.947
  104TIP3    H2  319   1.819   0.268   2.962
  105TIP3   OH2  320   2.722   5.822   5.122
  105TIP3    H1  321   2.654   5.881   5.153
  105TIP3    H2  322   2.705   5.739   5.166
  106TIP3   OH2  323   0.238   4.733   0.632
  106TIP3    H1  324   0.208   4.658   0.581
  106TIP3    H2  325   0.279   4.695   0.710
  107TIP3   OH2  326   5.188   0.990   0.363
  107TIP3    H1  327   5.215   0.923   0.425
  107TIP3    H2  328   5.255   1.058   0.371
  108TIP3   OH2  329   6.237   0.313   4.278
  108TIP3    H1  330   6.270   0.293   4.191
  108TIP3    H2  331   6.287   0.391   4.305
  109TIP3   OH2  332   2.985   2.671   3.596
  109TIP3    H1  333   2.967   2.641   3.685
  109TIP3    H2  334   3.080   2.685   3.595
  110TIP3   OH2  335   5.846   0.276   2.592
  110TIP3    H1  336   5.783   0.229   2.537
  110TIP3    H2  337   5.815   0.367   2.591
  111TIP3   OH2  338   3.334   3.785   2.961
  111TIP3    H1  339   3.313   3.807   3.051
  111TIP3    H2  340   3.307   3.862   2.910
  112TIP3   OH2  341   3.760   3.851   3.577
  112TIP3    H1  342   3.820   3.794   3.627
  112TIP3    H2  343   3.727   3.913   3.642
  113TIP3   OH2  344   0.573   5.675   2.118
  113TIP3    H1  345   0.620   5.691   2.036
  113TIP3    H2  346   0.516   5.752   2.128
  114TIP3   OH2  347   0.410   0.859   2.530
  114TIP3    H1  348   0.347   0.802   2.575
  114TIP3    H2  349   0.460   0.900   2.600
  115TIP3   OH2  350   1.748   5.754   4.046
  115TIP3    H1  351   1.688   5.822   4.077
  115TIP3    H2  352   1.832   5.776   4.087
  116TIP3   OH2  353   3.618   3.850   2.764
  116TIP3    H1  354   3.596   3.758   2.781
  116TIP3    H2  355   3.580   3.868   2.678
  117TIP3   OH2  356   2.204   4.348   2.684
  117TIP3    H1  357   2.144   4.421   2.696
  117TIP3    H2  358   2.248   4.339   2.769
  118TIP3   OH2  359   4.862   5.157   3.301
  118TIP3    H1  360   4.833   5.244   3.329
  118TIP3    H2  361   4.783   5.113   3.272
  119TIP3   OH2  362   0.673   3.451   1.499
  119TIP3    H1  363   0.664   3.544   1.520
  119TIP3    H2  364   0.653   3.445   1.406
  120TIP3   OH2  365   4.896   0.425   3.476
  120TIP3    H1  366   4.926   0.468   3.396
  120TIP3    H2  367   4.942   0.341   3.478
  121TIP3   OH2  368   0.466   1.846   4.679
  121TIP3    H1  369   0.391   1.885   4.723
  121TIP3    H2  370   0.512   1.920   4.640
  122TIP3   OH2  371   5.482   3.223   2.140
  122TIP3    H1  372   5.488   3.133   2.107
  122TIP3    H2  373   5.388   3.238   2.151
  123TIP3   OH2  374   2.635   1.221   3.884
  123TIP3    H1  375   2.680   1.294   3.926
  123TIP3    H2  376   2.546   1.253   3.869
  124TIP3   OH2  377   5.745   0.837   3.132
  124TIP3    H1  378   5.658   0.875   3.120
  124TIP3    H2  379   5.731   0.765   3.193
  125TIP3   OH2  380   2.051   0.929   1.600
  125TIP3    H1  381   1.977   0.869   1.596
  125TIP3    H2  382   2.033   0.993   1.531
  126TIP3   OH2  383   1.213   3.169   1.365
  126TIP3    H1  384   1.154   3.236   1.401
  126TIP3    H2  385   1.262   3.138   1.441
  127TIP3   OH2  386   4.901   1.682   0.296
  127TIP3    H1  387   4.815   1.723   0.305
  127TIP3    H2  388   4.957   1.751   0.261
  128TIP3   OH2  389   2.090   2.563   0.630
  128TIP3    H1  390   2.063   2.655   0.637
  128TIP3    H2  391   2.053   2.522   0.707
  129TIP3   OH2  392   5.203   2.618   2.128
  129TIP3    H1  393   5.242   2.531   2.135
  129TIP3    H2  394   5.128   2.615   2.187
  130TIP3   OH2  395   4.212   0.093   4.196
  130TIP3    H1  396   4.223   0.147   4.274
  130TIP3    H2  397   4.139   0.133   4.148
  131TIP3   OH2  398   0.090   5.723   4.862
  131TIP3    H1  399   0.183   5.737   4.877
  131TIP3    H2  400   0.084   5.631   4.835
  132TIP3   OH2  401   3.478   1.076   0.733
  132TIP3    H1  402   3.509   0.987   0.716
  132TIP3    H2  403   3.404   1.065   0.792
  133TIP3   OH2  404   4.941   0.973   1.270
  133TIP3    H1  405   4.984   1.021   1.198
  133TIP3    H2  406   4.961   0.881   1.253
  134TIP3   OH2  407   5.292   5.870   5.080
  134TIP3    H1  408   5.316   5.960   5.058
  134TIP3    H2  409   5.258   5.834   4.998
  135TIP3   OH2  410   2.393   1.639   1.975
  135TIP3    H1  411   2.436   1.624   2.060
  135TIP3    H2  412   2.425   1.724   1.947
  136TIP3   OH2  413   5.255   3.009   4.899
  136TIP3    H1  414   5.283   2.981   4.986
  136TIP3    H2  415   5.160   2.995   4.898
  137TIP3   OH2  416   1.499   1.703   0.096
  137TIP3    H1  417   1.594   1.686   0.102
  137TIP3    H2  418   1.468   1.639   0.031
  138TIP3   OH2  419   3.607   5.461   4.085
  138TIP3    H1  420   3.690   5.475   4.132
  138TIP3    H2  421   3.559   5.543   4.096
  139TIP3   OH2  422   2.791   5.818   1.749
  139TIP3    H1  423   2.758   5.887   1.692
  139TIP3    H2  424   2.726   5.748   1.742
  140TIP3   OH2  425   6.042   2.043   1.025
  140TIP3    H1  426   6.128   2.022   0.990
  140TIP3    H2  427   6.057   2.062   1.117
  141TIP3   OH2  428   5.464   2.368   3.881
  141TIP3    H1  429   5.399   2.413   3.827
  141TIP3    H2  430   5.540   2.359   3.824
  142TIP3   OH2  431   2.854   3.172   3.033
  142TIP3    H1  432   2.793   3.203   3.100
  142TIP3    H2  433   2.803   3.174   2.952
  143TIP3   OH2  434   5.314   2.622   2.994
  143TIP3    H1  435   5.221   2.644   2.994
  143TIP3    H2  436   5.346   2.657   3.077
  144TIP3   OH2  437   6.167   2.560   4.552
  144TIP3    H1  438   6.169   2.596   4.463
  144TIP3    H2  439   6.213   2.625   4.605
  145TIP3   OH2  440   5.838   4.439   2.168
  145TIP3    H1  441   5.836   4.460   2.075
  145TIP3    H2  442   5.915   4.384   2.179
  146TIP3   OH2  443   5.261   0.665   2.296
  146TIP3    H1  444   5.298   0.684   2.210
  146TIP3    H2  445   5.335   0.669   2.356
  147TIP3   OH2  446   0.466   2.547   1.716
  147TIP3    H1  447   0.390   2.591   1.678
  147TIP3    H2  448   0.485   2.475   1.656
  148TIP3   OH2  449   0.237   3.693   2.929
  148TIP3    H1  450   0.331   3.683   2.946
  148TIP3    H2  451   0.227   3.661   2.839
  149TIP3   OH2  452   4.562   4.446   3.923
  149TIP3    H1  453   4.646   4.408   3.947
  149TIP3    H2  454   4.518   4.462   4.006
  150TIP3   OH2  455   6.261   2.834   4.979
  150TIP3    H1  456   6.197   2.784   5.030
  150TIP3    H2  457   6.329   2.857   5.042
  151TIP3   OH2  458   3.540   2.069   3.108
  151TIP3    H1  459   3.618   2.020   3.084
  151TIP3    H2  460   3.516   2.118   3.029
  152TIP3   OH2  461   3.125   3.011   3.999
  152TIP3    H1  462   3.124   3.032   4.092
  152TIP3    H2  463   3.186   3.073   3.961
  153TIP3   OH2  464   1.381   3.698   2.724
  153TIP3    H1  465   1.331   3.617   2.722
  153TIP3    H2  466   1.317   3.766   2.743
  154TIP3   OH2  467   0.044   5.236   1.977
  154TIP3    H1  468  -0.038   5.238   2.027
  154TIP3    H2  469   0.042   5.152   1.931
  155TIP3   OH2  470   5.771   4.414   4.759
  155TIP3    H1  471   5.867   4.422   4.758
  155TIP3    H2  472   5.754   4.337   4.812
  156TIP3   OH2  473   4.802   1.781   4.523
  156TIP3    H1  474   4.782   1.743   4.438
  156TIP3    H2  475   4.738   1.742   4.583
  157TIP3   OH2  476   0.307   3.480   2.723
  157TIP3    H1  477   0.383   3.439   2.765
  157TIP3    H2  478   0.333   3.572   2.714
  158TIP3   OH2  479   3.760   1.158   0.428
  158TIP3    H1  480   3.828   1.104   0.468
  158TIP3    H2  481   3.743   1.117   0.344
  159TIP3   OH2  482   5.475   4.722   4.403
  159TIP3    H1  483   5.505   4.661   4.336
  159TIP3    H2  484   5.488   4.675   4.485
  160TIP3   OH2  485   2.898   5.639   4.026
  160TIP3    H1  486   2.833   5.684   4.080
  160TIP3    H2  487   2.846   5.589   3.963
  161TIP3   OH2  488   4.773   1.125   1.758
  161TIP3    H1  489   4.806   1.080   1.681
  161TIP3    H2  490   4.761   1.055   1.823
  162TIP3   OH2  491   3.538   1.415   0.878
  162TIP3    H1  492   3.452   1.373   0.870
  162TIP3    H2  493   3.571   1.386   0.963
  163TIP3   OH2  494   0.520   1.188   3.591
  163TIP3    H1  495   0.573   1.121   3.634
  163TIP3    H2  496   0.492   1.148   3.509
  164TIP3   OH2  497   0.693   1.859   1.769
  164TIP3    H1  498   0.648   1.908   1.700
  164TIP3    H2  499   0.741   1.926   1.818
  165TIP3   OH2  500   5.352   2.898   1.166
  165TIP3    H1  501   5.297   2.904   1.088
  165TIP3    H2  502   5.331   2.812   1.203
  166TIP3   OH2  503   4.801   1.931   5.098
  166TIP3    H1  504   4.749   2.006   5.126
  166TIP3    H2  505   4.770   1.859   5.154
  167TIP3   OH2  506   1.527   2.113   4.887
  167TIP3    H1  507   1.463   2.100   4.817
  167TIP3    H2  508   1.521   2.034   4.941
  168TIP3   OH2  509   3.669   5.340   3.693
  168TIP3    H1  510   3.723   5.261   3.699
  168TIP3    H2  511   3.587   5.316   3.737
  169TIP3   OH2  512   6.070   2.513  -0.034
  169TIP3    H1  513   6.101   2.569   0.037
  169TIP3    H2  514   6.091   2.424  -0.006
  170TIP3   OH2  515   1.279   4.213   4.667
  170TIP3    H1  516   1.331   4.243   4.742
  170TIP3    H2  517   1.305   4.122   4.654
  171TIP3   OH2  518   1.152   2.007   5.194
  171TIP3    H1  519   1.124   1.997   5.103
  171TIP3    H2  520   1.086   2.065   5.234
  172TIP3   OH2  521   4.089   2.445   0.234
  172TIP3    H1  522   4.146   2.402   0.171
  172TIP3    H2  523   4.059   2.525   0.189
  173TIP3   OH2  524   3.615   0.449   0.998
  173TIP3    H1  525   3.653   0.362   1.006
  173TIP3    H2  526   3.526   0.434   0.965
  174TIP3   OH2  527   2.341   4.572   0.304
  174TIP3    H1  528   2.386   4.562   0.220
  174TIP3    H2  529   2.384   4.510   0.363
  175TIP3   OH2  530   2.644   2.604   1.580
  175TIP3    H1  531   2.662   2.561   1.664
  175TIP3    H2  532   2.715   2.667   1.569
  176TIP3   OH2  533   6.178   3.683   2.245
  176TIP3    H1  534   6.183   3.649   2.156
  176TIP3    H2  535   6.251   3.744   2.252
  177TIP3   OH2  536   3.802   4.250   3.252
  177TIP3    H1  537   3.724   4.234   3.198
  177TIP3    H2  538   3.874   4.210   3.203
  178TIP3   OH2  539   2.829   2.976   3.650
  178TIP3    H1  540   2.848   3.021   3.733
  178TIP3    H2  541   2.911   2.982   3.601
  179TIP3   OH2  542   4.528   0.681   1.986
  179TIP3    H1  543   4.613   0.669   2.028
  179TIP3    H2  544   4.548   0.722   1.903
  180TIP3   OH2  545   0.318   0.886   4.454
  180TIP3    H1  546   0.397   0.867   4.504
  180TIP3    H2  547   0.302   0.807   4.402
  181TIP3   OH2  548   0.284   3.945   3.386
  181TIP3    H1  549   0.337   4.022   3.407
  181TIP3    H2  550   0.336   3.896   3.322
  182TIP3   OH2  551   5.497   0.762   0.254
  182TIP3    H1  552   5.410   0.755   0.213
  182TIP3    H2  553   5.555   0.788   0.182
  183TIP3   OH2  554   6.291   0.913   1.848
  183TIP3    H1  555   6.203   0.930   1.883
  183TIP3    H2  556   6.295   0.965   1.767
  184TIP3   OH2  557   1.921   1.623   1.471
  184TIP3    H1  558   1.918   1.663   1.385
  184TIP3    H2  559   1.839   1.651   1.513
  185TIP3   OH2  560   1.757   2.061   3.838
  185TIP3    H1  561   1.689   2.000   3.809
  185TIP3    H2  562   1.807   2.079   3.759
  186TIP3   OH2  563   5.309   1.231   3.408
  186TIP3    H1  564   5.339   1.142   3.390
  186TIP3    H2  565   5.239   1.247   3.345
  187TIP3   OH2  566   2.648   5.378   1.637
  187TIP3    H1  567   2.658   5.428   1.556
  187TIP3    H2  568   2.555   5.386   1.658
  188TIP3   OH2  569   1.959   3.982   2.139
  188TIP3    H1  570   1.889   3.938   2.090
  188TIP3    H2  571   2.003   3.911   2.186
  189TIP3   OH2  572   0.184   5.244   1.209
  189TIP3    H1  573   0.158   5.322   1.161
  189TIP3    H2  574   0.195   5.177   1.141
  190TIP3   OH2  575   4.293   0.520   1.855
  190TIP3    H1  576   4.356   0.576   1.899
  190TIP3    H2  577   4.291   0.552   1.765
  191TIP3   OH2  578   3.765   1.910   1.076
  191TIP3    H1  579   3.769   1.978   1.143
  191TIP3    H2  580   3.771   1.959   0.993
  192TIP3   OH2  581   3.031   3.101   0.824
  192TIP3    H1  582   3.114   3.147   0.811
  192TIP3    H2  583   2.965   3.170   0.822
  193TIP3   OH2  584   5.587   3.403   3.788
  193TIP3    H1  585   5.613   3.472   3.726
  193TIP3    H2  586   5.500   3.378   3.759
  194TIP3   OH2  587   0.517   4.075   3.993
  194TIP3    H1  588   0.528   4.026   3.911
  194TIP3    H2  589   0.538   4.165   3.969
  195TIP3   OH2  590   4.514   0.594   1.426
  195TIP3    H1  591   4.557   0.558   1.504
  195TIP3    H2  592   4.557   0.678   1.411
  196TIP3   OH2  593   1.277   1.824   0.659
  196TIP3    H1  594   1.256   1.753   0.720
  196TIP3    H2  595   1.357   1.863   0.694
  197TIP3   OH2  596   4.730   2.684   0.154
  197TIP3    H1  597   4.728   2.766   0.104
  197TIP3    H2  598   4.823   2.670   0.173
  198TIP3   OH2  599   2.195   1.998   3.926
  198TIP3    H1  600   2.201   2.093   3.929
  198TIP3    H2  601   2.220   1.969   4.014
  199TIP3   OH2  602   4.314   2.422   4.611
  199TIP3    H1  603   4.388   2.363   4.595
  199TIP3    H2  604   4.285   2.400   4.700
  200TIP3   OH2  605   3.336   5.922   4.956
  200TIP3    H1  606   3.333   5.828   4.972
  200TIP3    H2  607   3.420   5.951   4.992
  201TIP3   OH2  608   4.818   3.689   4.503
  201TIP3    H1  609   4.881   3.618   4.517
  201TIP3    H2  610   4.831   3.714   4.412
  202TIP3   OH2  611   5.394   5.316   1.735
  202TIP3    H1  612   5.360   5.275   1.814
  202TIP3    H2  613   5.433   5.398   1.764
  203TIP3   OH2  614   1.510   5.831   2.763
  203TIP3    H1  615   1.421   5.826   2.797
  203TIP3    H2  616   1.563   5.784   2.829
  204TIP3   OH2  617   4.432   4.629   1.459
  204TIP3    H1  618   4.448   4.629   1.365
  204TIP3    H2  619   4.503   4.682   1.496
  205TIP3   OH2  620   5.282   5.443   1.031
  205TIP3    H1  621   5.257   5.527   1.070
  205TIP3    H2  622   5.232   5.378   1.078
  206TIP3   OH2  623   2.619   2.042   4.034
  206TIP3    H1  624   2.568   2.112   3.992
  206TIP3    H2  625   2.594   2.046   4.126
  207TIP3   OH2  626   5.432   3.040   4.317
  207TIP3    H1  627   5.431   3.054   4.223
  207TIP3    H2  628   5.503   3.095   4.349
  208TIP3   OH2  629   4.513   2.188   3.851
  208TIP3    H1  630   4.564   2.267   3.835
  208TIP3    H2  631   4.541   2.158   3.938
  209TIP3   OH2  632   0.769   3.514   3.080
  209TIP3    H1  633   0.800   3.602   3.100
  209TIP3    H2  634   0.795   3.462   3.157
  210TIP3   OH2  635   0.307   1.141   2.885
  210TIP3    H1  636   0.378   1.205   2.885
  210TIP3    H2  637   0.258   1.160   2.805
  211TIP3   OH2  638   4.802   1.624   5.068
  211TIP3    H1  639   4.869   1.555   5.069
  211TIP3    H2  640   4.767   1.624   5.157
  212TIP3   OH2  641   2.351   2.058   1.298
  212TIP3    H1  642   2.264   2.026   1.322
  212TIP3    H2  643   2.384   2.100   1.377
  213TIP3   OH2  644   3.141   2.095   2.358
  213TIP3    H1  645   3.213   2.146   2.321
  213TIP3    H2  646   3.183   2.017   2.395
  214TIP3   OH2  647   3.860   2.668   4.956
  214TIP3    H1  648   3.800   2.727   5.001
  214TIP3    H2  649   3.826   2.580   4.975
  215TIP3   OH2  650   2.484   2.736   0.522
  215TIP3    H1  651   2.483   2.672   0.450
  215TIP3    H2  652   2.501   2.820   0.480
  216TIP3   OH2  653   0.424   3.898   3.112
  216TIP3    H1  654   0.487   3.826   3.121
  216TIP3    H2  655   0.470   3.963   3.059
  217TIP3   OH2  656   5.929   2.966   1.240
  217TIP3    H1  657   5.920   2.872   1.229
  217TIP3    H2  658   5.900   2.983   1.330
  218TIP3   OH2  659   4.423   2.453   2.979
  218TIP3    H1  660   4.375   2.517   2.926
  218TIP3    H2  661   4.380   2.370   2.960
  219TIP3   OH2  662   2.497   0.249   4.584
  219TIP3    H1  663   2.555   0.289   4.518
  219TIP3    H2  664   2.517   0.296   4.665
  220TIP3   OH2  665   5.047   1.732   3.791
  220TIP3    H1  666   5.078   1.791   3.859
  220TIP3    H2  667   5.029   1.789   3.716
  221TIP3   OH2  668   2.916   0.515   4.153
  221TIP3    H1  669   2.962   0.576   4.211
  221TIP3    H2  670   2.830   0.556   4.138
  222TIP3   OH2  671   0.718   1.616   4.877
  222TIP3    H1  672   0.727   1.708   4.903
  222TIP3    H2  673   0.729   1.566   4.958
  223TIP3   OH2  674   3.276   4.201   3.318
  223TIP3    H1  675   3.282   4.295   3.333
  223TIP3    H2  676   3.197   4.174   3.365
  224TIP3   OH2  677   2.726   1.239   2.624
  224TIP3    H1  678   2.725   1.214   2.716
  224TIP3    H2  679   2.819   1.234   2.599
  225TIP3   OH2  680   0.979   5.178   4.367
  225TIP3    H1  681   1.010   5.175   4.277
  225TIP3    H2  682   1.003   5.093   4.404
  226TIP3   OH2  683   5.366   2.530   1.748
  226TIP3    H1  684   5.361   2.438   1.774
  226TIP3    H2  685   5.453   2.540   1.711
  227TIP3   OH2  686   5.389   2.717   2.752
  227TIP3    H1  687   5.452   2.789   2.746
  227TIP3    H2  688   5.388   2.694   2.845
  228TIP3   OH2  689   4.936   3.582   4.796
  228TIP3    H1  690   5.001   3.556   4.731
  228TIP3    H2  691   4.873   3.511   4.797
  229TIP3   OH2  692   1.826   1.262   1.760
  229TIP3    H1  693   1.809   1.330   1.825
  229TIP3    H2  694   1.863   1.190   1.810
  230TIP3   OH2  695   3.830   2.272   4.188
  230TIP3    H1  696   3.873   2.187   4.187
  230TIP3    H2  697   3.770   2.268   4.263
  231TIP3   OH2  698   5.874   3.828   0.918
  231TIP3    H1  699   5.780   3.839   0.932
  231TIP3    H2  700   5.911   3.915   0.929
  232TIP3   OH2  701   2.361   4.847   4.145
  232TIP3    H1  702   2.399   4.918   4.198
  232TIP3    H2  703   2.296   4.891   4.090
  233TIP3   OH2  704   4.981   3.040   4.926
  233TIP3    H1  705   4.927   3.064   5.001
  233TIP3    H2  706   4.939   2.961   4.891
  234TIP3   OH2  707   4.302   3.896   5.035
  234TIP3    H1  708   4.221   3.897   4.983
  234TIP3    H2  709   4.359   3.835   4.988
  235TIP3   OH2  710   1.939   3.443   4.480
  235TIP3    H1  711   2.029   3.415   4.461
  235TIP3    H2  712   1.897   3.364   4.515
  236TIP3   OH2  713   3.643   5.166   4.115
  236TIP3    H1  714   3.629   5.251   4.073
  236TIP3    H2  715   3.731   5.172   4.153
  237TIP3   OH2  716   4.779   2.901   4.788
  237TIP3    H1  717   4.724   2.975   4.762
  237TIP3    H2  718   4.791   2.851   4.707
  238TIP3   OH2  719   3.736   4.964   2.046
  238TIP3    H1  720   3.645   4.975   2.020
  238TIP3    H2  721   3.784   4.956   1.964
  239TIP3   OH2  722   0.502   0.653   5.049
  239TIP3    H1  723   0.497   0.575   5.105
  239TIP3    H2  724   0.416   0.658   5.007
  240TIP3   OH2  725   1.449   1.274   2.406
  240TIP3    H1  726   1.359   1.250   2.382
  240TIP3    H2  727   1.442   1.304   2.496
  241TIP3   OH2  728   2.067   5.087   3.441
  241TIP3    H1  729   2.043   4.996   3.454
  241TIP3    H2  730   2.144   5.084   3.384
  242TIP3   OH2  731   3.293   3.482   3.384
  242TIP3    H1  732   3.282   3.387   3.379
  242TIP3    H2  733   3.208   3.514   3.416
  243TIP3   OH2  734   4.323   5.792   3.688
  243TIP3    H1  735   4.341   5.698   3.690
  243TIP3    H2  736   4.269   5.805   3.610
  244TIP3   OH2  737   2.795   5.488   1.413
  244TIP3    H1  738   2.788   5.583   1.408
  244TIP3    H2  739   2.758   5.457   1.330
  245TIP3   OH2  740   6.076   0.102   0.391
  245TIP3    H1  741   6.142   0.036   0.372
  245TIP3    H2  742   6.103   0.179   0.340
  246TIP3   OH2  743   1.802   5.964   3.573
  246TIP3    H1  744   1.802   5.869   3.565
  246TIP3    H2  745   1.749   5.995   3.500
  247TIP3   OH2  746   0.966   2.541   1.116
  247TIP3    H1  747   0.898   2.492   1.069
  247TIP3    H2  748   1.035   2.477   1.132
  248TIP3   OH2  749   1.640   3.714   4.418
  248TIP3    H1  750   1.667   3.724   4.326
  248TIP3    H2  751   1.682   3.787   4.463
  249TIP3   OH2  752   5.954   1.898   3.623
  249TIP3    H1  753   5.870   1.937   3.648
  249TIP3    H2  754   5.934   1.844   3.547
  250TIP3   OH2  755   4.518   4.733   3.606
  250TIP3    H1  756   4.595   4.775   3.645
  250TIP3    H2  757   4.487   4.672   3.674
  251TIP3   OH2  758   2.393   4.454   1.079
  251TIP3    H1  759   2.407   4.453   0.985
  251TIP3    H2  760   2.456   4.518   1.112
  252TIP3   OH2  761   1.230   1.242   4.555
  252TIP3    H1  762   1.226   1.163   4.500
  252TIP3    H2  763   1.190   1.215   4.638
  253TIP3   OH2  764   4.365   4.819   1.871
  253TIP3    H1  765   4.342   4.854   1.785
  253TIP3    H2  766   4.458   4.838   1.881
  254TIP3   OH2  767   0.403   4.448   1.995
  254TIP3    H1  768   0.457   4.371   1.975
  254TIP3    H2  769   0.462   4.522   1.979
  255TIP3   OH2  770   4.064   1.433   4.534
  255TIP3    H1  771   4.109   1.428   4.618
  255TIP3    H2  772   4.016   1.350   4.527
  256TIP3   OH2  773   3.788   0.167   3.750
  256TIP3    H1  774   3.732   0.118   3.809
  256TIP3    H2  775   3.814   0.104   3.683
  257TIP3   OH2  776   0.072   3.200   3.679
  257TIP3    H1  777   0.049   3.270   3.619
  257TIP3    H2  778  -0.008   3.185   3.730
  258TIP3   OH2  779   3.713   5.738   4.915
  258TIP3    H1  780   3.742   5.761   5.003
  258TIP3    H2  781   3.658   5.811   4.888
  259TIP3   OH2  782   2.279   3.304   2.838
  259TIP3    H1  783   2.226   3.371   2.882
  259TIP3    H2  784   2.355   3.351   2.804
  260TIP3   OH2  785   2.795   4.853   1.954
  260TIP3    H1  786   2.760   4.932   1.994
  260TIP3    H2  787   2.717   4.806   1.922
  261TIP3   OH2  788   2.518   2.932   2.829
  261TIP3    H1  789   2.601   2.938   2.877
  261TIP3    H2  790   2.453   2.916   2.897
  262TIP3   OH2  791   4.059   5.588   1.388
  262TIP3    H1  792   4.055   5.533   1.309
  262TIP3    H2  793   4.081   5.527   1.458
  263TIP3   OH2  794   2.495   0.404   4.812
  263TIP3    H1  795   2.429   0.473   4.820
  263TIP3    H2  796   2.547   0.412   4.892
  264TIP3   OH2  797   0.661   1.672   4.408
  264TIP3    H1  798   0.658   1.605   4.341
  264TIP3    H2  799   0.720   1.638   4.475
  265TIP3   OH2  800   4.190   1.351   0.821
  265TIP3    H1  801   4.110   1.304   0.800
  265TIP3    H2  802   4.208   1.403   0.742
  266TIP3   OH2  803   3.230   3.244   1.340
  266TIP3    H1  804   3.205   3.152   1.350
  266TIP3    H2  805   3.197   3.269   1.254
  267TIP3   OH2  806   5.043   0.585   1.749
  267TIP3    H1  807   5.080   0.624   1.671
  267TIP3    H2  808   5.103   0.608   1.819
  268TIP3   OH2  809   2.841   0.937   3.225
  268TIP3    H1  810   2.827   1.031   3.208
  268TIP3    H2  811   2.873   0.902   3.142
  269TIP3   OH2  812   0.062   0.540   4.332
  269TIP3    H1  813   0.028   0.565   4.418
  269TIP3    H2  814   0.148   0.581   4.327
  270TIP3   OH2  815   2.849   3.869   2.154
  270TIP3    H1  816   2.879   3.952   2.116
  270TIP3    H2  817   2.896   3.802   2.105
  271TIP3   OH2  818   1.363   5.094   0.725
  271TIP3    H1  819   1.389   5.118   0.636
  271TIP3    H2  820   1.385   5.002   0.732
  272TIP3   OH2  821   5.437   3.669   3.868
  272TIP3    H1  822   5.406   3.578   3.868
  272TIP3    H2  823   5.463   3.685   3.958
  273TIP3   OH2  824   2.206   2.505   2.200
  273TIP3    H1  825   2.126   2.512   2.253
  273TIP3    H2  826   2.276   2.494   2.264
  274TIP3   OH2  827   4.404   4.696   0.923
  274TIP3    H1  828   4.377   4.769   0.979
  274TIP3    H2  829   4.452   4.638   0.982
  275TIP3   OH2  830   3.460   2.914   2.481
  275TIP3    H1  831   3.530   2.957   2.530
  275TIP3    H2  832   3.481   2.821   2.486
  276TIP3   OH2  833   5.356   4.187   4.515
  276TIP3    H1  834   5.309   4.118   4.468
  276TIP3    H2  835   5.364   4.153   4.604
  277TIP3   OH2  836   0.464   5.062   3.224
  277TIP3    H1  837   0.553   5.097   3.225
  277TIP3    H2  838   0.441   5.051   3.316
  278TIP3   OH2  839   3.093   1.853   3.934
  278TIP3    H1  840   2.998   1.859   3.922
  278TIP3    H2  841   3.114   1.762   3.916
  279TIP3   OH2  842   4.588   2.816   0.878
  279TIP3    H1  843   4.682   2.834   0.874
  279TIP3    H2  844   4.573   2.751   0.809
  280TIP3   OH2  845   6.305   2.397   1.185
  280TIP3    H1  846   6.377   2.354   1.138
  280TIP3    H2  847   6.338   2.485   1.203
  281TIP3   OH2  848   2.203   3.867   2.488
  281TIP3    H1  849   2.196   3.962   2.499
  281TIP3    H2  850   2.274   3.842   2.547
  282TIP3   OH2  851   5.373   0.599   4.307
  282TIP3    H1  852   5.354   0.509   4.281
  282TIP3    H2  853   5.330   0.653   4.241
  283TIP3   OH2  854   1.298   0.032   2.655
  283TIP3    H1  855   1.211   0.069   2.638
  283TIP3    H2  856   1.353   0.069   2.586
  284TIP3   OH2  857   1.757   1.281   2.753
  284TIP3    H1  858   1.733   1.290   2.846
  284TIP3    H2  859   1.849   1.256   2.755
  285TIP3   OH2  860   0.512   1.340   2.836
  285TIP3    H1  861   0.497   1.354   2.743
  285TIP3    H2  862   0.468   1.413   2.879
  286TIP3   OH2  863   5.437   2.541   3.446
  286TIP3    H1  864   5.444   2.587   3.530
  286TIP3    H2  865   5.363   2.480   3.458
  287TIP3   OH2  866   1.882   0.161   2.487
  287TIP3    H1  867   1.965   0.142   2.443
  287TIP3    H2  868   1.902   0.237   2.543
  288TIP3   OH2  869   4.794   4.399   4.458
  288TIP3    H1  870   4.705   4.387   4.490
  288TIP3    H2  871   4.848   4.346   4.516
  289TIP3   OH2  872   0.926   0.234   3.202
  289TIP3    H1  873   0.984   0.179   3.254
  289TIP3    H2  874   0.854   0.175   3.178
  290TIP3   OH2  875   0.788   3.545   2.509
  290TIP3    H1  876   0.775   3.508   2.422
  290TIP3    H2  877   0.748   3.481   2.568
  291TIP3   OH2  878   1.958   3.710   1.832
  291TIP3    H1  879   2.011   3.722   1.753
  291TIP3    H2  880   2.021   3.708   1.903
  292TIP3   OH2  881   1.319   1.743   1.918
  292TIP3    H1  882   1.373   1.726   1.995
  292TIP3    H2  883   1.230   1.721   1.946
  293TIP3   OH2  884   4.000   3.873   4.515
  293TIP3    H1  885   3.970   3.795   4.562
  293TIP3    H2  886   3.922   3.926   4.504
  294TIP3   OH2  887   6.294   2.395   4.307
  294TIP3    H1  888   6.202   2.367   4.306
  294TIP3    H2  889   6.325   2.380   4.218
  295TIP3   OH2  890   1.726   2.470   3.504
  295TIP3    H1  891   1.766   2.557   3.497
  295TIP3    H2  892   1.720   2.454   3.598
  296TIP3   OH2  893   0.326   2.065   3.190
  296TIP3    H1  894   0.309   2.156   3.167
  296TIP3    H2  895   0.421   2.055   3.182
  297TIP3   OH2  896   2.855   4.832   3.818
  297TIP3    H1  897   2.769   4.868   3.795
  297TIP3    H2  898   2.894   4.898   3.876
  298TIP3   OH2  899   3.193   2.694   2.504
  298TIP3    H1  900   3.163   2.680   2.415
  298TIP3    H2  901   3.128   2.753   2.542
  299TIP3   OH2  902   2.005   2.419   1.797
  299TIP3    H1  903   1.959   2.397   1.879
  299TIP3    H2  904   2.095   2.435   1.824
  300TIP3   OH2  905   5.899   1.011   0.182
  300TIP3    H1  906   5.889   0.996   0.276
  300TIP3    H2  907   5.936   1.099   0.175
  301TIP3   OH2  908   4.436   3.542   3.567
  301TIP3    H1  909   4.445   3.449   3.548
  301TIP3    H2  910   4.381   3.575   3.497
  302TIP3   OH2  911   3.849   5.202   1.113
  302TIP3    H1  912   3.795   5.280   1.122
  302TIP3    H2  913   3.850   5.184   1.019
  303TIP3   OH2  914   5.744   0.604  -0.027
  303TIP3    H1  915   5.807   0.564   0.033
  303TIP3    H2  916   5.710   0.680   0.021
  304TIP3   OH2  917   1.048   3.304   2.513
  304TIP3    H1  918   0.959   3.320   2.483
  304TIP3    H2  919   1.100   3.304   2.432
  305TIP3   OH2  920   5.413   4.999   2.551
  305TIP3    H1  921   5.323   4.985   2.581
  305TIP3    H2  922   5.409   4.984   2.456
  306TIP3   OH2  923   3.826   1.717   3.208
  306TIP3    H1  924   3.857   1.636   3.167
  306TIP3    H2  925   3.736   1.698   3.235
  307TIP3   OH2  926   4.488   4.154   0.089
  307TIP3    H1  927   4.488   4.095   0.013
  307TIP3    H2  928   4.508   4.097   0.163
  308TIP3   OH2  929   2.664   5.475   4.922
  308TIP3    H1  930   2.741   5.430   4.957
  308TIP3    H2  931   2.672   5.565   4.955
  309TIP3   OH2  932   3.868   5.010   2.588
  309TIP3    H1  933   3.956   4.982   2.614
  309TIP3    H2  934   3.822   4.928   2.569
  310TIP3   OH2  935   0.129   4.982   2.060
  310TIP3    H1  936   0.045   4.948   2.028
  310TIP3    H2  937   0.168   4.909   2.107
  311TIP3   OH2  938   5.239   5.414   3.305
  311TIP3    H1  939   5.261   5.388   3.394
  311TIP3    H2  940   5.317   5.393   3.254
  312TIP3   OH2  941   4.746   4.652   2.497
  312TIP3    H1  942   4.700   4.706   2.560
  312TIP3    H2  943   4.686   4.579   2.479
  313TIP3   OH2  944   4.817   2.584   1.183
  313TIP3    H1  945   4.895   2.532   1.205
  313TIP3    H2  946   4.757   2.521   1.144
  314TIP3   OH2  947   0.103   1.826   0.054
  314TIP3    H1  948   0.158   1.887   0.103
  314TIP3    H2  949   0.111   1.743   0.101
  315TIP3   OH2  950   2.993   5.155   4.373
  315TIP3    H1  951   3.003   5.224   4.438
  315TIP3    H2  952   2.972   5.077   4.424
  316TIP3   OH2  953   5.851   1.087   3.498
  316TIP3    H1  954   5.791   1.067   3.426
  316TIP3    H2  955   5.901   1.162   3.468
  317TIP3   OH2  956   5.084   3.259   4.801
  317TIP3    H1  957   5.049   3.252   4.712
  317TIP3    H2  958   5.058   3.178   4.844
  318TIP3   OH2  959   6.243   4.548   3.802
  318TIP3    H1  960   6.257   4.566   3.709
  318TIP3    H2  961   6.330   4.552   3.841
  319TIP3   OH2  962   2.503   5.076   4.259
  319TIP3    H1  963   2.573   5.081   4.194
  319TIP3    H2  964   2.474   5.167   4.270
  320TIP3   OH2  965   3.570   4.390   5.129
  320TIP3    H1  966   3.601   4.349   5.209
  320TIP3    H2  967   3.650   4.414   5.081
  321TIP3   OH2  968   3.672   4.210   4.610
  321TIP3    H1  969   3.665   4.254   4.525
  321TIP3    H2  970   3.655   4.279   4.674
  322TIP3   OH2  971   5.248   2.856   0.151
  322TIP3    H1  972   5.189   2.931   0.142
  322TIP3    H2  973   5.329   2.894   0.185
  323TIP3   OH2  974   3.035   3.655   1.588
  323TIP3    H1  975   3.040   3.559   1.591
  323TIP3    H2  976   2.949   3.672   1.548
  324TIP3   OH2  977   3.575   0.773   4.427
  324TIP3    H1  978   3.518   0.824   4.484
  324TIP3    H2  979   3.662   0.781   4.467
  325TIP3   OH2  980   0.800   5.100   2.024
  325TIP3    H1  981   0.715   5.131   1.995
  325TIP3    H2  982   0.807   5.011   1.989
  326TIP3   OH2  983   5.179   0.897   1.386
  326TIP3    H1  984   5.166   0.812   1.344
  326TIP3    H2  985   5.112   0.953   1.349
  327TIP3   OH2  986   4.245   3.132   2.132
  327TIP3    H1  987   4.154   3.105   2.138
  327TIP3    H2  988   4.293   3.051   2.113
  328TIP3   OH2  989   6.131   2.700   0.184
  328TIP3    H1  990   6.109   2.691   0.276
  328TIP3    H2  991   6.224   2.726   0.184
  329TIP3   OH2  992   3.914   2.791   4.431
  329TIP3    H1  993   3.905   2.702   4.398
  329TIP3    H2  994   3.898   2.846   4.355
  330TIP3   OH2  995   5.842   0.522   4.873
  330TIP3    H1  996   5.872   0.557   4.957
  330TIP3    H2  997   5.747   0.537   4.873
  331TIP3   OH2  998   3.030   0.501   3.407
  331TIP3    H1  999   2.994   0.589   3.416
  331TIP3    H2 1000   3.091   0.508   3.333
  332TIP3   OH2 1001   0.276   3.717   1.063
  332TIP3    H1 1002   0.182   3.728   1.075
  332TIP3    H2 1003   0.287   3.703   0.969
  333TIP3   OH2 1004   1.665   1.506   4.044
  333TIP3    H1 1005   1.586   1.540   4.001
  333TIP3    H2 1006   1.728   1.578   4.038
  334TIP3   OH2 1007   4.852   1.524   0.812
  334TIP3    H1 1008   4.778   1.464   0.801
  334TIP3    H2 1009   4.897   1.522   0.727
  335TIP3   OH2 1010   1.212   1.118   4.296
  335TIP3    H1 1011   1.119   1.139   4.284
  335TIP3    H2 1012   1.257   1.175   4.233
  336TIP3   OH2 1013   1.430   4.180   1.696
  336TIP3    H1 1014   1.426   4.091   1.733
  336TIP3    H2 1015   1.367   4.178   1.624
  337TIP3   OH2 1016   5.968   0.811   1.194
  337TIP3    H1 1017   6.061   0.808   1.217
  337TIP3    H2 1018   5.930   0.872   1.258
  338TIP3   OH2 1019   5.421   5.286   0.279
  338TIP3    H1 1020   5.500   5.238   0.305
  338TIP3    H2 1021   5.398   5.338   0.356
  339TIP3   OH2 1022   2.827   2.372   4.018
  339TIP3    H1 1023   2.836   2.277   4.011
  339TIP3    H2 1024   2.733   2.387   4.024
  340TIP3   OH2 1025   4.339   4.872   0.365
  340TIP3    H1 1026   4.396   4.936   0.409
  340TIP3    H2 1027   4.399   4.803   0.336
  341TIP3   OH2 1028   2.731   1.979   0.619
  341TIP3    H1 1029   2.646   2.005   0.584
  341TIP3    H2 1030   2.781   2.060   0.624
  342TIP3   OH2 1031   0.747   3.094   1.787
  342TIP3    H1 1032   0.820   3.034   1.772
  342TIP3    H2 1033   0.674   3.037   1.811
  343TIP3   OH2 1034   1.776   0.109   1.827
  343TIP3    H1 1035   1.746   0.195   1.796
  343TIP3    H2 1036   1.743   0.103   1.917
  344TIP3   OH2 1037   1.434   0.375   2.087
  344TIP3    H1 1038   1.407   0.465   2.102
  344TIP3    H2 1039   1.352   0.325   2.090
  345TIP3   OH2 1040   2.124   5.322   3.634
  345TIP3    H1 1041   2.214   5.316   3.664
  345TIP3    H2 1042   2.107   5.239   3.590
  346TIP3   OH2 1043   1.204   4.767   1.446
  346TIP3    H1 1044   1.204   4.742   1.538
  346TIP3    H2 1045   1.146   4.842   1.441
  347TIP3   OH2 1046   1.307   3.778   4.829
  347TIP3    H1 1047   1.286   3.692   4.865
  347TIP3    H2 1048   1.255   3.840   4.881
  348TIP3   OH2 1049   3.405   5.612   4.993
  348TIP3    H1 1050   3.405   5.627   4.899
  348TIP3    H2 1051   3.330   5.555   5.008
  349TIP3   OH2 1052   3.588   4.347   3.469
  349TIP3    H1 1053   3.643   4.300   3.407
  349TIP3    H2 1054   3.517   4.383   3.416
  350TIP3   OH2 1055   2.671   5.420   1.961
  350TIP3    H1 1056   2.625   5.504   1.953
  350TIP3    H2 1057   2.604   5.354   1.941
  351TIP3   OH2 1058   5.144   4.227   3.915
  351TIP3    H1 1059   5.233   4.204   3.940
  351TIP3    H2 1060   5.103   4.144   3.893
  352TIP3   OH2 1061   0.128   5.684   3.671
  352TIP3    H1 1062   0.070   5.736   3.615
  352TIP3    H2 1063   0.215   5.721   3.655
  353TIP3   OH2 1064   3.498   5.408   3.504
  353TIP3    H1 1065   3.413   5.398   3.547
  353TIP3    H2 1066   3.561   5.373   3.568
  354TIP3   OH2 1067   5.266   3.140   0.376
  354TIP3    H1 1068   5.339   3.107   0.323
  354TIP3    H2 1069   5.258   3.077   0.448
  355TIP3   OH2 1070   4.679   5.691   4.757
  355TIP3    H1 1071   4.676   5.719   4.848
  355TIP3    H2 1072   4.769   5.659   4.744
  356TIP3   OH2 1073   2.138   3.707   4.207
  356TIP3    H1 1074   2.099   3.710   4.295
  356TIP3    H2 1075   2.112   3.790   4.167
  357TIP3   OH2 1076   1.006   0.347   1.431
  357TIP3    H1 1077   1.101   0.349   1.421
  357TIP3    H2 1078   0.989   0.272   1.488
  358TIP3   OH2 1079   5.363   1.552   2.648
  358TIP3    H1 1080   5.406   1.511   2.723
  358TIP3    H2 1081   5.308   1.620   2.687
  359TIP3   OH2 1082   4.690   5.244   1.851
  359TIP3    H1 1083   4.627   5.250   1.923
  359TIP3    H2 1084   4.637   5.255   1.772
  360TIP3   OH2 1085   5.676   0.513   2.928
  360TIP3    H1 1086   5.604   0.520   2.991
  360TIP3    H2 1087   5.705   0.604   2.915
  361TIP3   OH2 1088   5.031   4.044   3.044
  361TIP3    H1 1089   5.089   3.977   3.079
  361TIP3    H2 1090   4.980   4.073   3.120
  362TIP3   OH2 1091   2.363   3.087   0.076
  362TIP3    H1 1092   2.414   3.082  -0.005
  362TIP3    H2 1093   2.428   3.109   0.143
  363TIP3   OH2 1094   4.051   2.082   3.590
  363TIP3    H1 1095   3.970   2.123   3.622
  363TIP3    H2 1096   4.052   1.996   3.632
  364TIP3   OH2 1097   0.743   0.932   1.488
  364TIP3    H1 1098   0.786   1.017   1.499
  364TIP3    H2 1099   0.814   0.874   1.460
  365TIP3   OH2 1100   1.291   3.938   1.132
  365TIP3    H1 1101   1.285   3.847   1.105
  365TIP3    H2 1102   1.202   3.962   1.157
  366TIP3   OH2 1103   1.067   2.030   0.671
  366TIP3    H1 1104   1.125   2.066   0.605
  366TIP3    H2 1105   1.055   2.101   0.734
  367TIP3   OH2 1106   3.254   3.843   3.685
  367TIP3    H1 1107   3.326   3.902   3.662
  367TIP3    H2 1108   3.179   3.900   3.701
  368TIP3   OH2 1109   2.923   0.550   2.987
  368TIP3    H1 1110   3.003   0.596   2.959
  368TIP3    H2 1111   2.852   0.603   2.952
  369TIP3   OH2 1112   5.199   5.926   4.325
  369TIP3    H1 1113   5.216   5.855   4.263
  369TIP3    H2 1114   5.111   5.956   4.303
  370TIP3   OH2 1115   5.868   2.346   2.596
  370TIP3    H1 1116   5.887   2.439   2.585
  370TIP3    H2 1117   5.832   2.338   2.684
  371TIP3   OH2 1118   0.090   1.815   1.764
  371TIP3    H1 1119   0.114   1.733   1.807
  371TIP3    H2 1120   0.008   1.841   1.806
  372TIP3   OH2 1121   3.508   3.595   2.211
  372TIP3    H1 1122   3.434   3.635   2.256
  372TIP3    H2 1123   3.546   3.666   2.160
  373TIP3   OH2 1124   2.955   0.705   1.233
  373TIP3    H1 1125   2.904   0.764   1.289
  373TIP3    H2 1126   2.993   0.762   1.166
  374TIP3   OH2 1127   3.948   5.580   4.786
  374TIP3    H1 1128   3.966   5.486   4.792
  374TIP3    H2 1129   4.023   5.622   4.828
  375TIP3   OH2 1130   1.559   5.229   0.147
  375TIP3    H1 1131   1.591   5.310   0.107
  375TIP3    H2 1132   1.592   5.232   0.237
  376TIP3   OH2 1133   5.760   1.064   2.162
  376TIP3    H1 1134   5.792   1.078   2.073
  376TIP3    H2 1135   5.665   1.072   2.155
  377TIP3   OH2 1136   4.159   5.156   0.969
  377TIP3    H1 1137   4.184   5.064   0.959
  377TIP3    H2 1138   4.172   5.173   1.062
  378TIP3   OH2 1139   0.535   2.516   5.096
  378TIP3    H1 1140   0.513   2.608   5.079
  378TIP3    H2 1141   0.456   2.479   5.136
  379TIP3   OH2 1142   3.655   4.103   1.092
  379TIP3    H1 1143   3.685   4.013   1.096
  379TIP3    H2 1144   3.667   4.130   1.001
  380TIP3   OH2 1145   5.199   5.921   2.821
  380TIP3    H1 1146   5.251   5.842   2.806
  380TIP3    H2 1147   5.219   5.977   2.746
  381TIP3   OH2 1148   2.078   3.869   5.157
  381TIP3    H1 1149   2.121   3.831   5.234
  381TIP3    H2 1150   2.150   3.887   5.096
  382TIP3   OH2 1151   3.072   2.427   3.367
  382TIP3    H1 1152   3.120   2.502   3.332
  382TIP3    H2 1153   2.981   2.455   3.368
  383TIP3   OH2 1154   5.462   2.101   2.158
  383TIP3    H1 1155   5.420   2.025   2.118
  383TIP3    H2 1156   5.545   2.110   2.111
  384TIP3   OH2 1157   2.386   5.345   4.204
  384TIP3    H1 1158   2.432   5.423   4.174
  384TIP3    H2 1159   2.375   5.358   4.298
  385TIP3   OH2 1160   2.592   1.053   4.714
  385TIP3    H1 1161   2.585   0.963   4.747
  385TIP3    H2 1162   2.665   1.050   4.652
  386TIP3   OH2 1163   2.619   4.106   1.885
  386TIP3    H1 1164   2.531   4.123   1.853
  386TIP3    H2 1165   2.614   4.020   1.927
  387TIP3   OH2 1166   2.948   5.021   3.994
  387TIP3    H1 1167   3.040   5.024   3.968
  387TIP3    H2 1168   2.950   5.036   4.088
  388TIP3   OH2 1169   0.632   5.558   0.774
  388TIP3    H1 1170   0.587   5.485   0.732
  388TIP3    H2 1171   0.672   5.520   0.852
  389TIP3   OH2 1172   0.778   0.612   3.161
  389TIP3    H1 1173   0.746   0.676   3.097
  389TIP3    H2 1174   0.872   0.627   3.164
  390TIP3   OH2 1175   6.107   1.457   3.075
  390TIP3    H1 1176   6.159   1.487   3.002
  390TIP3    H2 1177   6.170   1.421   3.137
  391TIP3   OH2 1178   1.806   1.831   1.031
  391TIP3    H1 1179   1.729   1.867   1.075
  391TIP3    H2 1180   1.775   1.747   0.995
  392TIP3   OH2 1181   3.814   4.030   4.404
  392TIP3    H1 1182   3.853   4.068   4.325
  392TIP3    H2 1183   3.755   4.098   4.437
  393TIP3   OH2 1184   3.215   3.038   2.494
  393TIP3    H1 1185   3.140   2.993   2.456
  393TIP3    H2 1186   3.291   2.985   2.470
  394TIP3   OH2 1187   0.884   4.931   0.677
  394TIP3    H1 1188   0.862   4.865   0.743
  394TIP3    H2 1189   0.976   4.914   0.655
  395TIP3   OH2 1190   1.443   3.889   1.422
  395TIP3    H1 1191   1.467   3.868   1.332
  395TIP3    H2 1192   1.525   3.914   1.464
  396TIP3   OH2 1193   5.824   2.066   0.742
  396TIP3    H1 1194   5.812   2.005   0.816
  396TIP3    H2 1195   5.915   2.094   0.749
  397TIP3   OH2 1196   4.222   0.572   3.496
  397TIP3    H1 1197   4.304   0.582   3.448
  397TIP3    H2 1198   4.213   0.653   3.546
  398TIP3   OH2 1199   4.269   4.054   2.415
  398TIP3    H1 1200   4.302   4.009   2.337
  398TIP3    H2 1201   4.219   3.987   2.462
  399TIP3   OH2 1202   2.807   1.078   3.672
  399TIP3    H1 1203   2.827   1.166   3.639
  399TIP3    H2 1204   2.756   1.093   3.751
  400TIP3   OH2 1205   0.777   4.566   0.501
  400TIP3    H1 1206   0.717   4.608   0.563
  400TIP3    H2 1207   0.779   4.475   0.528
  401TIP3   OH2 1208   2.874   5.019   2.859
  401TIP3    H1 1209   2.952   5.026   2.914
  401TIP3    H2 1210   2.869   5.104   2.814
  402TIP3   OH2 1211   4.327   1.085   0.853
  402TIP3    H1 1212   4.372   1.061   0.772
  402TIP3    H2 1213   4.280   1.166   0.832
  403TIP3   OH2 1214   2.763   1.144   2.892
  403TIP3    H1 1215   2.823   1.217   2.907
  403TIP3    H2 1216   2.816   1.066   2.905
  404TIP3   OH2 1217   5.065   5.355   2.735
  404TIP3    H1 1218   5.016   5.437   2.744
  404TIP3    H2 1219   5.034   5.301   2.808
  405TIP3   OH2 1220   1.592   4.578   1.444
  405TIP3    H1 1221   1.656   4.642   1.474
  405TIP3    H2 1222   1.539   4.558   1.521
  406TIP3   OH2 1223   1.238   2.624   0.432
  406TIP3    H1 1224   1.223   2.544   0.481
  406TIP3    H2 1225   1.175   2.687   0.468
  407TIP3   OH2 1226   0.724   2.338   0.564
  407TIP3    H1 1227   0.635   2.345   0.530
  407TIP3    H2 1228   0.759   2.259   0.524
  408TIP3   OH2 1229   0.505   0.907   3.398
  408TIP3    H1 1230   0.567   0.837   3.377
  408TIP3    H2 1231   0.545   0.986   3.362
  409TIP3   OH2 1232   2.925   4.832   0.145
  409TIP3    H1 1233   2.846   4.804   0.098
  409TIP3    H2 1234   2.921   4.928   0.144
  410TIP3   OH2 1235   0.680   5.802   4.543
  410TIP3    H1 1236   0.621   5.862   4.589
  410TIP3    H2 1237   0.753   5.857   4.514
  411TIP3   OH2 1238   4.074   0.340   4.999
  411TIP3    H1 1239   4.032   0.255   5.012
  411TIP3    H2 1240   4.111   0.336   4.911
  412TIP3   OH2 1241   4.378   4.206   3.728
  412TIP3    H1 1242   4.344   4.152   3.799
  412TIP3    H2 1243   4.368   4.151   3.650
  413TIP3   OH2 1244   3.992   5.859   4.029
  413TIP3    H1 1245   4.051   5.852   3.954
  413TIP3    H2 1246   4.037   5.917   4.090
  414TIP3   OH2 1247   2.343   1.156   1.800
  414TIP3    H1 1248   2.263   1.103   1.802
  414TIP3    H2 1249   2.395   1.123   1.872
  415TIP3   OH2 1250   1.880   3.275   1.486
  415TIP3    H1 1251   1.843   3.311   1.405
  415TIP3    H2 1252   1.964   3.237   1.459
  416TIP3   OH2 1253   4.690   4.717   4.590
  416TIP3    H1 1254   4.653   4.768   4.661
  416TIP3    H2 1255   4.774   4.686   4.624
  417TIP3   OH2 1256   0.026   3.349   3.947
  417TIP3    H1 1257   0.053   3.401   3.871
  417TIP3    H2 1258  -0.042   3.402   3.989
  418TIP3   OH2 1259   3.475   1.174   0.486
  418TIP3    H1 1260   3.482   1.170   0.582
  418TIP3    H2 1261   3.566   1.184   0.456
  419TIP3   OH2 1262   4.416   2.498   0.266
  419TIP3    H1 1263   4.395   2.411   0.231
  419TIP3    H2 1264   4.450   2.546   0.191
  420TIP3   OH2 1265   2.875   3.587   2.540
  420TIP3    H1 1266   2.922   3.663   2.503
  420TIP3    H2 1267   2.792   3.585   2.493
  421TIP3   OH2 1268   5.913   2.793   4.227
  421TIP3    H1 1269   5.930   2.820   4.137
  421TIP3    H2 1270   5.929   2.872   4.279
  422TIP3   OH2 1271   5.390   4.924   4.722
  422TIP3    H1 1272   5.438   4.869   4.660
  422TIP3    H2 1273   5.334   4.863   4.769
  423TIP3   OH2 1274   5.497   2.766   0.046
  423TIP3    H1 1275   5.407   2.772   0.080
  423TIP3    H2 1276   5.539   2.702   0.103
  424TIP3   OH2 1277   5.685   2.845   1.535
  424TIP3    H1 1278   5.614   2.889   1.489
  424TIP3    H2 1279   5.762   2.900   1.520
  425TIP3   OH2 1280   3.677   1.819   2.358
  425TIP3    H1 1281   3.724   1.840   2.438
  425TIP3    H2 1282   3.725   1.865   2.289
  426TIP3   OH2 1283   2.403   1.761   0.773
  426TIP3    H1 1284   2.327   1.738   0.827
  426TIP3    H2 1285   2.408   1.690   0.709
  427TIP3   OH2 1286   6.232   3.521   2.030
  427TIP3    H1 1287   6.173   3.485   1.964
  427TIP3    H2 1288   6.306   3.556   1.980
  428TIP3   OH2 1289   3.213   5.068   1.883
  428TIP3    H1 1290   3.123   5.077   1.915
  428TIP3    H2 1291   3.218   5.128   1.808
  429TIP3   OH2 1292   4.792   3.913   3.357
  429TIP3    H1 1293   4.778   3.868   3.441
  429TIP3    H2 1294   4.833   3.847   3.302
  430TIP3   OH2 1295   5.346   4.736   3.069
  430TIP3    H1 1296   5.382   4.707   2.985
  430TIP3    H2 1297   5.421   4.741   3.128
  431TIP3   OH2 1298   6.224   2.974   2.251
  431TIP3    H1 1299   6.319   2.975   2.258
  431TIP3    H2 1300   6.203   3.046   2.192
  432TIP3   OH2 1301   3.004   3.377   3.298
  432TIP3    H1 1302   2.986   3.423   3.216
  432TIP3    H2 1303   3.075   3.317   3.276
  433TIP3   OH2 1304   1.120   3.256   2.232
  433TIP3    H1 1305   1.130   3.163   2.212
  433TIP3    H2 1306   1.025   3.269   2.236
  434TIP3   OH2 1307   2.418   2.994   4.540
  434TIP3    H1 1308   2.408   2.940   4.461
  434TIP3    H2 1309   2.442   2.932   4.608
  435TIP3   OH2 1310   5.528   0.981   3.970
  435TIP3    H1 1311   5.592   1.005   3.903
  435TIP3    H2 1312   5.556   1.030   4.048
  436TIP3   OH2 1313   0.502   0.176   1.613
  436TIP3    H1 1314   0.490   0.183   1.519
  436TIP3    H2 1315   0.547   0.256   1.638
  437TIP3   OH2 1316   5.020   0.261   2.506
  437TIP3    H1 1317   5.064   0.340   2.535
  437TIP3    H2 1318   4.957   0.292   2.440
  438TIP3   OH2 1319   5.408   2.820   3.962
  438TIP3    H1 1320   5.414   2.826   4.057
  438TIP3    H2 1321   5.497   2.838   3.931
  439TIP3   OH2 1322   0.557   5.251   3.997
  439TIP3    H1 1323   0.640   5.267   4.043
  439TIP3    H2 1324   0.582   5.200   3.920
  440TIP3   OH2 1325   5.577   3.503   2.355
  440TIP3    H1 1326   5.535   3.549   2.427
  440TIP3    H2 1327   5.660   3.472   2.392
  441TIP3   OH2 1328   4.728   2.243   2.924
  441TIP3    H1 1329   4.639   2.220   2.951
  441TIP3    H2 1330   4.719   2.277   2.836
  442TIP3   OH2 1331   3.977   2.705   4.072
  442TIP3    H1 1332   3.954   2.636   4.134
  442TIP3    H2 1333   4.066   2.683   4.043
  443TIP3   OH2 1334   3.796   1.467   1.389
  443TIP3    H1 1335   3.719   1.524   1.388
  443TIP3    H2 1336   3.870   1.526   1.375
  444TIP3   OH2 1337   4.021   2.341   2.460
  444TIP3    H1 1338   4.081   2.393   2.407
  444TIP3    H2 1339   4.039   2.250   2.435
  445TIP3   OH2 1340   5.761   3.244   0.437
  445TIP3    H1 1341   5.821   3.241   0.511
  445TIP3    H2 1342   5.681   3.203   0.469
  446TIP3   OH2 1343   1.653   3.117   1.334
  446TIP3    H1 1344   1.730   3.063   1.319
  446TIP3    H2 1345   1.679   3.205   1.305
  447TIP3   OH2 1346   4.930   5.133   1.785
  447TIP3    H1 1347   4.991   5.191   1.831
  447TIP3    H2 1348   4.844   5.172   1.799
  448TIP3   OH2 1349   3.549   3.676   3.772
  448TIP3    H1 1350   3.485   3.741   3.799
  448TIP3    H2 1351   3.515   3.643   3.688
  449TIP3   OH2 1352   0.612   4.750   1.326
  449TIP3    H1 1353   0.691   4.799   1.349
  449TIP3    H2 1354   0.573   4.727   1.410
  450TIP3   OH2 1355   6.127   4.654   0.503
  450TIP3    H1 1356   6.204   4.653   0.447
  450TIP3    H2 1357   6.098   4.745   0.502
  451TIP3   OH2 1358   5.056   2.874   2.262
  451TIP3    H1 1359   5.006   2.794   2.275
  451TIP3    H2 1360   5.147   2.849   2.281
  452TIP3   OH2 1361   2.225   5.418   1.387
  452TIP3    H1 1362   2.200   5.426   1.479
  452TIP3    H2 1363   2.155   5.463   1.339
  453TIP3   OH2 1364   4.674   1.468   1.485
  453TIP3    H1 1365   4.756   1.420   1.498
  453TIP3    H2 1366   4.641   1.438   1.401
  454TIP3   OH2 1367   2.966   3.099   4.609
  454TIP3    H1 1368   2.978   3.039   4.683
  454TIP3    H2 1369   2.926   3.177   4.648
  455TIP3   OH2 1370   1.146   3.271   4.816
  455TIP3    H1 1371   1.237   3.290   4.791
  455TIP3    H2 1372   1.100   3.260   4.733
  456TIP3   OH2 1373   2.359   5.300   3.752
  456TIP3    H1 1374   2.347   5.232   3.818
  456TIP3    H2 1375   2.437   5.273   3.703
  457TIP3   OH2 1376   2.236   0.279   4.731
  457TIP3    H1 1377   2.321   0.323   4.725
  457TIP3    H2 1378   2.199   0.287   4.643
  458TIP3   OH2 1379   4.245   4.685   3.475
  458TIP3    H1 1380   4.327   4.686   3.523
  458TIP3    H2 1381   4.213   4.595   3.483
  459TIP3   OH2 1382   3.050   4.025   3.762
  459TIP3    H1 1383   2.964   3.991   3.738
  459TIP3    H2 1384   3.057   4.009   3.856
  460TIP3   OH2 1385   0.313   0.473   3.038
  460TIP3    H1 1386   0.238   0.529   3.015
  460TIP3    H2 1387   0.276   0.402   3.089
  461TIP3   OH2 1388   0.305   1.560   3.980
  461TIP3    H1 1389   0.259   1.636   3.945
  461TIP3    H2 1390   0.393   1.567   3.944
  462TIP3   OH2 1391   4.609   0.316   4.356
  462TIP3    H1 1392   4.663   0.348   4.284
  462TIP3    H2 1393   4.642   0.229   4.375
  463TIP3   OH2 1394   2.109   3.155   1.412
  463TIP3    H1 1395   2.164   3.135   1.488
  463TIP3    H2 1396   2.170   3.157   1.339
  464TIP3   OH2 1397   2.449   3.092   3.150
  464TIP3    H1 1398   2.500   3.023   3.192
  464TIP3    H2 1399   2.412   3.050   3.072
  465TIP3   OH2 1400   5.763   2.524   0.447
  465TIP3    H1 1401   5.818   2.524   0.369
  465TIP3    H2 1402   5.756   2.432   0.472
  466TIP3   OH2 1403   3.182   2.956   1.284
  466TIP3    H1 1404   3.244   2.884   1.298
  466TIP3    H2 1405   3.097   2.914   1.273
  467TIP3   OH2 1406   1.294   2.460   4.434
  467TIP3    H1 1407   1.219   2.470   4.492
  467TIP3    H2 1408   1.360   2.519   4.469
  468TIP3   OH2 1409   2.287   4.411   1.728
  468TIP3    H1 1410   2.302   4.363   1.647
  468TIP3    H2 1411   2.198   4.445   1.720
  469TIP3   OH2 1412   3.237   0.640   0.996
  469TIP3    H1 1413   3.156   0.667   0.953
  469TIP3    H2 1414   3.211   0.619   1.085
  470TIP3   OH2 1415   5.797   2.057   2.027
  470TIP3    H1 1416   5.874   2.092   1.983
  470TIP3    H2 1417   5.777   1.976   1.980
  471TIP3   OH2 1418   3.238   2.173   1.273
  471TIP3    H1 1419   3.225   2.122   1.194
  471TIP3    H2 1420   3.171   2.241   1.269
  472TIP3   OH2 1421   3.948   5.155   3.457
  472TIP3    H1 1422   3.898   5.170   3.537
  472TIP3    H2 1423   3.987   5.068   3.469
  473TIP3   OH2 1424   3.766   5.602   2.548
  473TIP3    H1 1425   3.769   5.546   2.626
  473TIP3    H2 1426   3.773   5.691   2.581
  474TIP3   OH2 1427   5.542   4.856   3.552
  474TIP3    H1 1428   5.616   4.823   3.501
  474TIP3    H2 1429   5.472   4.868   3.489
  475TIP3   OH2 1430   1.545   4.699   0.892
  475TIP3    H1 1431   1.468   4.645   0.910
  475TIP3    H2 1432   1.619   4.640   0.906
  476TIP3   OH2 1433   0.741   2.907   5.071
  476TIP3    H1 1434   0.799   2.860   5.011
  476TIP3    H2 1435   0.799   2.959   5.126
  477TIP3   OH2 1436   3.230   1.348   4.025
  477TIP3    H1 1437   3.204   1.264   3.986
  477TIP3    H2 1438   3.325   1.347   4.025
  478TIP3   OH2 1439   2.897   2.105   1.951
  478TIP3    H1 1440   2.903   2.053   1.871
  478TIP3    H2 1441   2.812   2.148   1.946
  479TIP3   OH2 1442   4.355   2.984   3.575
  479TIP3    H1 1443   4.295   2.941   3.637
  479TIP3    H2 1444   4.440   2.943   3.592
  480TIP3   OH2 1445   3.497   3.241   1.360
  480TIP3    H1 1446   3.502   3.146   1.346
  480TIP3    H2 1447   3.404   3.261   1.354
  481TIP3   OH2 1448   2.872   4.048   4.740
  481TIP3    H1 1449   2.946   4.015   4.689
  481TIP3    H2 1450   2.898   4.037   4.831
  482TIP3   OH2 1451   2.808   1.404   4.959
  482TIP3    H1 1452   2.876   1.468   4.934
  482TIP3    H2 1453   2.783   1.431   5.048
  483TIP3   OH2 1454   2.388   0.793   3.797
  483TIP3    H1 1455   2.349   0.742   3.725
  483TIP3    H2 1456   2.382   0.884   3.767
  484TIP3   OH2 1457   5.671   3.809   2.839
  484TIP3    H1 1458   5.626   3.789   2.922
  484TIP3    H2 1459   5.730   3.881   2.861
  485TIP3   OH2 1460   2.523   0.495   1.953
  485TIP3    H1 1461   2.543   0.496   1.859
  485TIP3    H2 1462   2.446   0.440   1.960
  486TIP3   OH2 1463   3.671   3.760   0.512
  486TIP3    H1 1464   3.714   3.709   0.580
  486TIP3    H2 1465   3.582   3.774   0.545
  487TIP3   OH2 1466   4.487   2.081   3.078
  487TIP3    H1 1467   4.426   2.063   3.006
  487TIP3    H2 1468   4.434   2.126   3.144
  488TIP3   OH2 1469   1.573   4.448   1.207
  488TIP3    H1 1470   1.540   4.360   1.227
  488TIP3    H2 1471   1.594   4.486   1.292
  489TIP3   OH2 1472   1.123   1.268   1.587
  489TIP3    H1 1473   1.211   1.238   1.562
  489TIP3    H2 1474   1.108   1.346   1.534
  490TIP3   OH2 1475   1.107   4.214   0.891
  490TIP3    H1 1476   1.162   4.244   0.963
  490TIP3    H2 1477   1.020   4.250   0.910
  491TIP3   OH2 1478   4.959   5.217   0.586
  491TIP3    H1 1479   4.866   5.232   0.570
  491TIP3    H2 1480   4.991   5.301   0.619
  492TIP3   OH2 1481   5.596   5.079   2.167
  492TIP3    H1 1482   5.647   5.086   2.086
  492TIP3    H2 1483   5.661   5.059   2.235
  493TIP3   OH2 1484   5.932   5.012   1.477
  493TIP3    H1 1485   5.951   5.091   1.527
  493TIP3    H2 1486   5.969   5.028   1.390
  494TIP3   OH2 1487   5.366   2.343   2.955
  494TIP3    H1 1488   5.356   2.438   2.948
  494TIP3    H2 1489   5.366   2.313   2.864
  495TIP3   OH2 1490   5.573   2.638   0.297
  495TIP3    H1 1491   5.480   2.639   0.320
  495TIP3    H2 1492   5.616   2.598   0.372
  496TIP3   OH2 1493   1.178   1.428   4.325
  496TIP3    H1 1494   1.261   1.461   4.290
  496TIP3    H2 1495   1.203   1.351   4.377
  497TIP3   OH2 1496   3.104   1.108   1.990
  497TIP3    H1 1497   3.159   1.165   2.045
  497TIP3    H2 1498   3.018   1.151   1.990
  498TIP3   OH2 1499   2.317   3.608   2.308
  498TIP3    H1 1500   2.353   3.541   2.367
  498TIP3    H2 1501   2.225   3.614   2.333
  499TIP3   OH2 1502   5.300   1.108   2.787
  499TIP3    H1 1503   5.308   1.152   2.871
  499TIP3    H2 1504   5.227   1.153   2.743
  500TIP3   OH2 1505   5.121   5.796   3.734
  500TIP3    H1 1506   5.200   5.758   3.696
  500TIP3    H2 1507   5.095   5.735   3.803
  501TIP3   OH2 1508   1.041   5.162   5.014
  501TIP3    H1 1509   1.098   5.234   4.988
  501TIP3    H2 1510   1.076   5.132   5.098
  502TIP3   OH2 1511   2.314   4.688   3.934
  502TIP3    H1 1512   2.393   4.633   3.932
  502TIP3    H2 1513   2.319   4.734   4.017
  503TIP3   OH2 1514   4.043   4.299   4.939
  503TIP3    H1 1515   4.069   4.348   4.861
  503TIP3    H2 1516   4.117   4.310   4.999
  504TIP3   OH2 1517   0.667   5.311   1.016
  504TIP3    H1 1518   0.611   5.233   1.013
  504TIP3    H2 1519   0.740   5.290   0.957
  505TIP3   OH2 1520   1.975   3.284   1.964
  505TIP3    H1 1521   1.944   3.338   1.891
  505TIP3    H2 1522   2.010   3.346   2.027
  506TIP3   OH2 1523   6.018   1.916   0.225
  506TIP3    H1 1524   6.094   1.964   0.258
  506TIP3    H2 1525   6.020   1.832   0.272
  507TIP3   OH2 1526   4.092   3.535   3.521
  507TIP3    H1 1527   4.085   3.440   3.530
  507TIP3    H2 1528   4.144   3.548   3.442
  508TIP3   OH2 1529   2.621   2.219   3.009
  508TIP3    H1 1530   2.687   2.226   3.078
  508TIP3    H2 1531   2.662   2.166   2.942
  509TIP3   OH2 1532   2.868   3.239   1.323
  509TIP3    H1 1533   2.847   3.170   1.260
  509TIP3    H2 1534   2.934   3.200   1.380
  510TIP3   OH2 1535   1.059   1.387   3.940
  510TIP3    H1 1536   1.089   1.322   4.003
  510TIP3    H2 1537   1.091   1.354   3.855
  511TIP3   OH2 1538   5.545   0.199   1.049
  511TIP3    H1 1539   5.519   0.228   1.137
  511TIP3    H2 1540   5.623   0.251   1.029
  512TIP3   OH2 1541   2.611   3.862   1.989
  512TIP3    H1 1542   2.548   3.864   2.061
  512TIP3    H2 1543   2.696   3.849   2.031
  513TIP3   OH2 1544   0.663   5.963   3.847
  513TIP3    H1 1545   0.695   6.053   3.846
  513TIP3    H2 1546   0.664   5.938   3.939
  514TIP3   OH2 1547   1.439   3.626   3.534
  514TIP3    H1 1548   1.366   3.615   3.595
  514TIP3    H2 1549   1.412   3.578   3.455
  515TIP3   OH2 1550   4.157   4.738   1.576
  515TIP3    H1 1551   4.123   4.689   1.652
  515TIP3    H2 1552   4.226   4.682   1.541
  516TIP3   OH2 1553   2.753   0.513   3.225
  516TIP3    H1 1554   2.804   0.549   3.152
  516TIP3    H2 1555   2.819   0.488   3.290
  517TIP3   OH2 1556   1.527   5.369   2.917
  517TIP3    H1 1557   1.484   5.283   2.918
  517TIP3    H2 1558   1.620   5.349   2.926
  518TIP3   OH2 1559   0.252   0.450   5.017
  518TIP3    H1 1560   0.219   0.407   4.938
  518TIP3    H2 1561   0.187   0.518   5.036
  519TIP3   OH2 1562   4.743   3.381   4.835
  519TIP3    H1 1563   4.790   3.329   4.901
  519TIP3    H2 1564   4.651   3.373   4.860
  520TIP3   OH2 1565   6.228   2.005   0.530
  520TIP3    H1 1566   6.177   2.053   0.465
  520TIP3    H2 1567   6.256   2.072   0.593
  521TIP3   OH2 1568   1.139   2.588   0.185
  521TIP3    H1 1569   1.185   2.611   0.266
  521TIP3    H2 1570   1.119   2.672   0.143
  522TIP3   OH2 1571   3.461   3.616   3.534
  522TIP3    H1 1572   3.413   3.536   3.514
  522TIP3    H2 1573   3.400   3.687   3.512
  523TIP3   OH2 1574   3.989   3.896   0.035
  523TIP3    H1 1575   4.065   3.872  -0.017
  523TIP3    H2 1576   4.001   3.852   0.119
  524TIP3   OH2 1577   1.118   5.294   1.145
  524TIP3    H1 1578   1.086   5.299   1.055
  524TIP3    H2 1579   1.188   5.228   1.142
  525TIP3   OH2 1580   4.122   1.662   0.880
  525TIP3    H1 1581   4.106   1.644   0.972
  525TIP3    H2 1582   4.193   1.603   0.856
  526TIP3   OH2 1583   3.888   0.369   3.392
  526TIP3    H1 1584   3.915   0.381   3.483
  526TIP3    H2 1585   3.845   0.284   3.390
  527TIP3   OH2 1586   2.719   5.912   4.845
  527TIP3    H1 1587   2.731   5.860   4.925
  527TIP3    H2 1588   2.767   5.863   4.778
  528TIP3   OH2 1589   4.866   3.298   1.546
  528TIP3    H1 1590   4.960   3.305   1.531
  528TIP3    H2 1591   4.848   3.363   1.613
  529TIP3   OH2 1592   4.959   0.500   2.916
  529TIP3    H1 1593   4.967   0.452   2.998
  529TIP3    H2 1594   5.023   0.570   2.922
  530TIP3   OH2 1595   2.570   5.255   0.592
  530TIP3    H1 1596   2.535   5.168   0.609
  530TIP3    H2 1597   2.658   5.240   0.558
  531TIP3   OH2 1598   5.879   2.845   1.974
  531TIP3    H1 1599   5.926   2.786   1.915
  531TIP3    H2 1600   5.787   2.835   1.950
  532TIP3   OH2 1601   4.345   3.815   0.704
  532TIP3    H1 1602   4.317   3.872   0.633
  532TIP3    H2 1603   4.405   3.869   0.756
  533TIP3   OH2 1604   0.781   5.963   4.305
  533TIP3    H1 1605   0.776   6.059   4.302
  533TIP3    H2 1606   0.717   5.934   4.241
  534TIP3   OH2 1607   4.359   1.517   2.372
  534TIP3    H1 1608   4.429   1.582   2.383
  534TIP3    H2 1609   4.295   1.540   2.440
  535TIP3   OH2 1610   6.044   4.009   1.781
  535TIP3    H1 1611   6.106   4.079   1.762
  535TIP3    H2 1612   6.002   4.035   1.863
  536TIP3   OH2 1613   2.634   0.701   2.408
  536TIP3    H1 1614   2.702   0.652   2.362
  536TIP3    H2 1615   2.579   0.738   2.339
  537TIP3   OH2 1616   0.370   1.884   3.413
  537TIP3    H1 1617   0.323   1.942   3.354
  537TIP3    H2 1618   0.451   1.931   3.434
  538TIP3   OH2 1619   1.185   0.273   2.044
  538TIP3    H1 1620   1.165   0.232   1.959
  538TIP3    H2 1621   1.099   0.297   2.079
  539TIP3   OH2 1622   2.705   1.427   4.054
  539TIP3    H1 1623   2.720   1.383   4.138
  539TIP3    H2 1624   2.703   1.520   4.077
  540TIP3   OH2 1625   4.954   5.210   2.503
  540TIP3    H1 1626   4.968   5.178   2.592
  540TIP3    H2 1627   5.013   5.285   2.495
  541TIP3   OH2 1628   4.230   1.129   4.529
  541TIP3    H1 1629   4.136   1.117   4.522
  541TIP3    H2 1630   4.256   1.166   4.445
  542TIP3   OH2 1631   2.367   0.035   4.769
  542TIP3    H1 1632   2.411   0.072   4.692
  542TIP3    H2 1633   2.295   0.096   4.787
  543TIP3   OH2 1634   3.387   2.160   2.279
  543TIP3    H1 1635   3.461   2.211   2.311
  543TIP3    H2 1636   3.420   2.120   2.198
  544TIP3   OH2 1637   6.052   3.822   0.069
  544TIP3    H1 1638   6.084   3.737   0.041
  544TIP3    H2 1639   5.957   3.813   0.070
  545TIP3   OH2 1640   1.434   0.649   4.961
  545TIP3    H1 1641   1.365   0.615   4.905
  545TIP3    H2 1642   1.398   0.730   4.998
  546TIP3   OH2 1643   0.364   3.623   3.488
  546TIP3    H1 1644   0.390   3.679   3.561
  546TIP3    H2 1645   0.406   3.539   3.507
  547TIP3   OH2 1646   5.064   0.236   4.917
  547TIP3    H1 1647   5.049   0.212   4.825
  547TIP3    H2 1648   5.048   0.155   4.966
  548TIP3   OH2 1649   4.169   1.740   3.172
  548TIP3    H1 1650   4.083   1.778   3.154
  548TIP3    H2 1651   4.151   1.647   3.189
  549TIP3   OH2 1652   2.861   2.041   4.406
  549TIP3    H1 1653   2.854   2.039   4.501
  549TIP3    H2 1654   2.789   2.097   4.377
  550TIP3   OH2 1655   0.911   2.247   3.241
  550TIP3    H1 1656   0.915   2.201   3.325
  550TIP3    H2 1657   0.998   2.286   3.232
  551TIP3   OH2 1658   4.805   4.677   0.264
  551TIP3    H1 1659   4.870   4.731   0.307
  551TIP3    H2 1660   4.808   4.705   0.172
  552TIP3   OH2 1661   1.876   3.445   1.763
  552TIP3    H1 1662   1.881   3.527   1.813
  552TIP3    H2 1663   1.827   3.468   1.684
  553TIP3   OH2 1664   6.082   2.450   1.545
  553TIP3    H1 1665   6.115   2.452   1.634
  553TIP3    H2 1666   6.137   2.387   1.499
  554TIP3   OH2 1667   1.512   2.582   0.430
  554TIP3    H1 1668   1.445   2.545   0.373
  554TIP3    H2 1669   1.580   2.514   0.434
  555TIP3   OH2 1670   5.483   1.365   2.825
  555TIP3    H1 1671   5.506   1.373   2.918
  555TIP3    H2 1672   5.568   1.367   2.780
  556TIP3   OH2 1673   4.439   0.031   2.179
  556TIP3    H1 1674   4.415   0.039   2.086
  556TIP3    H2 1675   4.432   0.120   2.213
  557TIP3   OH2 1676   0.506   2.923   0.845
  557TIP3    H1 1677   0.469   2.982   0.779
  557TIP3    H2 1678   0.430   2.873   0.877
  558TIP3   OH2 1679   1.309   2.505   1.841
  558TIP3    H1 1680   1.382   2.522   1.901
  558TIP3    H2 1681   1.336   2.425   1.795
  559TIP3   OH2 1682   4.954   4.186   5.002
  559TIP3    H1 1683   4.881   4.246   4.989
  559TIP3    H2 1684   4.919   4.100   4.976
  560TIP3   OH2 1685   4.062   3.641   4.093
  560TIP3    H1 1686   4.045   3.552   4.063
  560TIP3    H2 1687   4.138   3.633   4.151
  561TIP3   OH2 1688   0.697   3.349   4.516
  561TIP3    H1 1689   0.628   3.396   4.564
  561TIP3    H2 1690   0.701   3.263   4.558
  562TIP3   OH2 1691   0.972   5.218   3.227
  562TIP3    H1 1692   1.064   5.237   3.207
  562TIP3    H2 1693   0.971   5.125   3.251
  563TIP3   OH2 1694   3.898   4.986   2.929
  563TIP3    H1 1695   3.885   4.967   3.022
  563TIP3    H2 1696   3.983   5.029   2.925
  564TIP3   OH2 1697   0.723   4.902   3.693
  564TIP3    H1 1698   0.666   4.861   3.758
  564TIP3    H2 1699   0.667   4.965   3.648
  565TIP3   OH2 1700   2.503   5.585   4.117
  565TIP3    H1 1701   2.553   5.666   4.108
  565TIP3    H2 1702   2.468   5.569   4.029
  566TIP3   OH2 1703   5.997   4.625   5.040
  566TIP3    H1 1704   5.988   4.567   4.964
  566TIP3    H2 1705   6.037   4.704   5.004
  567TIP3   OH2 1706   5.441   5.906   3.847
  567TIP3    H1 1707   5.384   5.935   3.776
  567TIP3    H2 1708   5.380   5.878   3.916
  568TIP3   OH2 1709   4.962   5.507   1.201
  568TIP3    H1 1710   4.896   5.542   1.141
  568TIP3    H2 1711   5.040   5.558   1.185
  569TIP3   OH2 1712   0.717   5.374   1.612
  569TIP3    H1 1713   0.706   5.281   1.629
  569TIP3    H2 1714   0.777   5.379   1.538
  570TIP3   OH2 1715   2.936   3.287   0.547
  570TIP3    H1 1716   3.026   3.270   0.521
  570TIP3    H2 1717   2.897   3.330   0.471
  571TIP3   OH2 1718   5.575   0.012   4.704
  571TIP3    H1 1719   5.566  -0.029   4.790
  571TIP3    H2 1720   5.501   0.073   4.698
  572TIP3   OH2 1721   1.364   1.710   0.345
  572TIP3    H1 1722   1.280   1.755   0.353
  572TIP3    H2 1723   1.376   1.699   0.251
  573TIP3   OH2 1724   2.016   4.444   1.463
  573TIP3    H1 1725   2.104   4.416   1.435
  573TIP3    H2 1726   1.959   4.371   1.439
  574TIP3   OH2 1727   4.633   0.763   3.063
  574TIP3    H1 1728   4.556   0.816   3.080
  574TIP3    H2 1729   4.660   0.731   3.149
  575TIP3   OH2 1730   2.066   3.408   2.171
  575TIP3    H1 1731   2.158   3.406   2.144
  575TIP3    H2 1732   2.069   3.433   2.264
  576TIP3   OH2 1733   5.319   2.889   1.660
  576TIP3    H1 1734   5.390   2.871   1.722
  576TIP3    H2 1735   5.363   2.919   1.581
  577TIP3   OH2 1736   6.162   5.227   0.288
  577TIP3    H1 1737   6.152   5.319   0.312
  577TIP3    H2 1738   6.136   5.223   0.196
  578TIP3   OH2 1739   5.629   1.774   3.729
  578TIP3    H1 1740   5.655   1.866   3.722
  578TIP3    H2 1741   5.572   1.759   3.653
  579TIP3   OH2 1742   5.420   3.082   3.381
  579TIP3    H1 1743   5.344   3.133   3.408
  579TIP3    H2 1744   5.392   2.991   3.390
  580TIP3   OH2 1745   1.904   1.644   0.260
  580TIP3    H1 1746   1.878   1.677   0.346
  580TIP3    H2 1747   1.945   1.718   0.217
  581TIP3   OH2 1748   0.248   5.256   3.391
  581TIP3    H1 1749   0.170   5.213   3.427
  581TIP3    H2 1750   0.221   5.285   3.304
  582TIP3   OH2 1751   5.629   0.212   3.611
  582TIP3    H1 1752   5.611   0.128   3.569
  582TIP3    H2 1753   5.613   0.277   3.542
  583TIP3   OH2 1754   3.743   5.466   5.056
  583TIP3    H1 1755   3.658   5.491   5.092
  583TIP3    H2 1756   3.789   5.549   5.043
  584TIP3   OH2 1757   4.842   3.107   2.388
  584TIP3    H1 1758   4.920   3.159   2.408
  584TIP3    H2 1759   4.872   3.017   2.387
  585TIP3   OH2 1760   2.626   1.638   3.633
  585TIP3    H1 1761   2.670   1.723   3.639
  585TIP3    H2 1762   2.631   1.615   3.540
  586TIP3   OH2 1763   6.230   4.044   3.495
  586TIP3    H1 1764   6.295   3.985   3.457
  586TIP3    H2 1765   6.174   3.987   3.548
  587TIP3   OH2 1766   2.073   0.168   0.844
  587TIP3    H1 1767   2.012   0.229   0.888
  587TIP3    H2 1768   2.135   0.143   0.913
  588TIP3   OH2 1769   2.202  -0.017   3.564
  588TIP3    H1 1770   2.276   0.012   3.617
  588TIP3    H2 1771   2.205   0.039   3.486
  589TIP3   OH2 1772   6.044   3.852   0.654
  589TIP3    H1 1773   6.019   3.822   0.567
  589TIP3    H2 1774   5.963   3.888   0.691
  590TIP3   OH2 1775   3.455   4.412   3.895
  590TIP3    H1 1776   3.366   4.417   3.860
  590TIP3    H2 1777   3.500   4.487   3.856
  591TIP3   OH2 1778   5.834   0.282   2.888
  591TIP3    H1 1779   5.879   0.318   2.811
  591TIP3    H2 1780   5.786   0.356   2.924
  592TIP3   OH2 1781   0.961   5.344  -0.026
  592TIP3    H1 1782   0.987   5.288   0.047
  592TIP3    H2 1783   0.866   5.335  -0.031
  593TIP3   OH2 1784   6.324   2.166   4.856
  593TIP3    H1 1785   6.310   2.182   4.763
  593TIP3    H2 1786   6.259   2.221   4.900
  594TIP3   OH2 1787   2.112   2.774   4.747
  594TIP3    H1 1788   2.053   2.760   4.821
  594TIP3    H2 1789   2.197   2.793   4.787
  595TIP3   OH2 1790   4.677   2.498   2.224
  595TIP3    H1 1791   4.643   2.433   2.286
  595TIP3    H2 1792   4.620   2.574   2.236
  596TIP3   OH2 1793   2.500   3.916   3.129
  596TIP3    H1 1794   2.517   3.822   3.139
  596TIP3    H2 1795   2.458   3.924   3.044
  597TIP3   OH2 1796   2.352   4.824   2.572
  597TIP3    H1 1797   2.374   4.903   2.524
  597TIP3    H2 1798   2.381   4.841   2.662
  598TIP3   OH2 1799   2.186   0.288   4.076
  598TIP3    H1 1800   2.190   0.196   4.047
  598TIP3    H2 1801   2.254   0.331   4.025
  599TIP3   OH2 1802   2.895   2.124   0.045
  599TIP3    H1 1803   2.929   2.037   0.065
  599TIP3    H2 1804   2.956   2.159  -0.020
  600TIP3   OH2 1805   0.727   0.887   0.396
  600TIP3    H1 1806   0.697   0.861   0.309
  600TIP3    H2 1807   0.815   0.850   0.403
  601TIP3   OH2 1808   5.719   5.536   0.132
  601TIP3    H1 1809   5.747   5.588   0.057
  601TIP3    H2 1810   5.645   5.585   0.168
  602TIP3   OH2 1811   5.772   5.534   2.102
  602TIP3    H1 1812   5.727   5.478   2.165
  602TIP3    H2 1813   5.845   5.481   2.071
  603TIP3   OH2 1814   4.942   1.033   0.611
  603TIP3    H1 1815   4.906   0.959   0.563
  603TIP3    H2 1816   4.954   1.000   0.700
  604TIP3   OH2 1817   2.281   1.596   0.136
  604TIP3    H1 1818   2.363   1.612   0.090
  604TIP3    H2 1819   2.279   1.502   0.150
  605TIP3   OH2 1820   0.695   0.368   1.644
  605TIP3    H1 1821   0.774   0.317   1.623
  605TIP3    H2 1822   0.708   0.393   1.736
  606TIP3   OH2 1823   2.267   3.420   0.115
  606TIP3    H1 1824   2.299   3.481   0.048
  606TIP3    H2 1825   2.293   3.334   0.083
  607TIP3   OH2 1826   5.161   2.380   0.203
  607TIP3    H1 1827   5.214   2.324   0.260
  607TIP3    H2 1828   5.101   2.320   0.159
  608TIP3   OH2 1829   3.533   3.547   1.306
  608TIP3    H1 1830   3.559   3.571   1.217
  608TIP3    H2 1831   3.496   3.460   1.298
  609TIP3   OH2 1832   3.805   3.127   5.002
  609TIP3    H1 1833   3.841   3.087   4.923
  609TIP3    H2 1834   3.880   3.165   5.048
  610TIP3   OH2 1835   3.871   3.846   2.042
  610TIP3    H1 1836   3.832   3.806   1.964
  610TIP3    H2 1837   3.963   3.820   2.039
  611TIP3   OH2 1838   5.589   4.888   2.725
  611TIP3    H1 1839   5.519   4.900   2.661
  611TIP3    H2 1840   5.617   4.977   2.747
  612TIP3   OH2 1841   5.446   0.861   0.498
  612TIP3    H1 1842   5.528   0.907   0.512
  612TIP3    H2 1843   5.455   0.824   0.410
  613TIP3   OH2 1844   5.549   3.855   3.637
  613TIP3    H1 1845   5.504   3.809   3.708
  613TIP3    H2 1846   5.535   3.948   3.656
  614TIP3   OH2 1847   0.032   4.453   4.087
  614TIP3    H1 1848   0.094   4.508   4.038
  614TIP3    H2 1849   0.078   4.370   4.099
  615TIP3   OH2 1850   4.812   3.266   5.096
  615TIP3    H1 1851   4.722   3.253   5.066
  615TIP3    H2 1852   4.810   3.249   5.190
  616TIP3   OH2 1853   4.505   0.304   4.619
  616TIP3    H1 1854   4.508   0.215   4.655
  616TIP3    H2 1855   4.544   0.296   4.532
  617TIP3   OH2 1856   1.031   0.048   2.178
  617TIP3    H1 1857   1.109   0.082   2.221
  617TIP3    H2 1858   1.065  -0.009   2.109
  618TIP3   OH2 1859   0.762   2.126   5.009
  618TIP3    H1 1860   0.703   2.161   4.942
  618TIP3    H2 1861   0.788   2.202   5.061
  619TIP3   OH2 1862   2.004   4.757   2.203
  619TIP3    H1 1863   1.944   4.688   2.229
  619TIP3    H2 1864   1.992   4.766   2.109
  620TIP3   OH2 1865   5.550   5.549   4.295
  620TIP3    H1 1866   5.479   5.546   4.230
  620TIP3    H2 1867   5.603   5.471   4.275
  621TIP3   OH2 1868   1.592   5.826   0.826
  621TIP3    H1 1869   1.636   5.788   0.902
  621TIP3    H2 1870   1.501   5.838   0.855
  622TIP3   OH2 1871   3.992   3.245   1.624
  622TIP3    H1 1872   3.950   3.239   1.538
  622TIP3    H2 1873   4.086   3.253   1.605
  623TIP3   OH2 1874   0.247   1.225   3.418
  623TIP3    H1 1875   0.255   1.264   3.331
  623TIP3    H2 1876   0.274   1.294   3.478
  624TIP3   OH2 1877   1.487   5.416   2.569
  624TIP3    H1 1878   1.557   5.426   2.505
  624TIP3    H2 1879   1.461   5.324   2.563
  625TIP3   OH2 1880   1.051   4.077   1.155
  625TIP3    H1 1881   0.981   4.016   1.131
  625TIP3    H2 1882   1.005   4.159   1.173
  626TIP3   OH2 1883   4.851   3.821   4.263
  626TIP3    H1 1884   4.757   3.836   4.257
  626TIP3    H2 1885   4.890   3.900   4.226
  627TIP3   OH2 1886   5.687   1.109   3.275
  627TIP3    H1 1887   5.723   1.128   3.189
  627TIP3    H2 1888   5.613   1.051   3.259
  628TIP3   OH2 1889   3.667   2.792   5.133
  628TIP3    H1 1890   3.714   2.836   5.204
  628TIP3    H2 1891   3.632   2.863   5.079
  629TIP3   OH2 1892   1.658   0.865   3.460
  629TIP3    H1 1893   1.588   0.854   3.396
  629TIP3    H2 1894   1.614   0.860   3.545
  630TIP3   OH2 1895   2.477   3.252   0.271
  630TIP3    H1 1896   2.536   3.247   0.347
  630TIP3    H2 1897   2.431   3.335   0.282
  631TIP3   OH2 1898   1.855   2.065   4.084
  631TIP3    H1 1899   1.895   2.150   4.105
  631TIP3    H2 1900   1.832   2.072   3.992
  632TIP3   OH2 1901   3.467   3.565   2.869
  632TIP3    H1 1902   3.474   3.501   2.940
  632TIP3    H2 1903   3.424   3.641   2.910
  633TIP3   OH2 1904   3.317   1.658   1.136
  633TIP3    H1 1905   3.300   1.573   1.097
  633TIP3    H2 1906   3.413   1.663   1.144
  634TIP3   OH2 1907   4.139   3.655   0.276
  634TIP3    H1 1908   4.064   3.655   0.216
  634TIP3    H2 1909   4.188   3.734   0.254
  635TIP3   OH2 1910   3.790   0.861   0.814
  635TIP3    H1 1911   3.720   0.837   0.875
  635TIP3    H2 1912   3.758   0.830   0.729
  636TIP3   OH2 1913   0.959   5.130   0.171
  636TIP3    H1 1914   0.960   5.055   0.110
  636TIP3    H2 1915   0.932   5.092   0.255
  637TIP3   OH2 1916   0.927   2.910   4.437
  637TIP3    H1 1917   0.901   2.972   4.505
  637TIP3    H2 1918   0.917   2.824   4.478
  638TIP3   OH2 1919   0.599   1.098   3.206
  638TIP3    H1 1920   0.553   1.125   3.127
  638TIP3    H2 1921   0.630   1.179   3.245
  639TIP3   OH2 1922   4.374   0.154   1.149
  639TIP3    H1 1923   4.464   0.120   1.139
  639TIP3    H2 1924   4.382   0.224   1.214
  640TIP3   OH2 1925   5.403   5.151   0.608
  640TIP3    H1 1926   5.477   5.170   0.550
  640TIP3    H2 1927   5.426   5.192   0.691
  641TIP3   OH2 1928   5.224   4.955   2.994
  641TIP3    H1 1929   5.130   4.975   2.999
  641TIP3    H2 1930   5.232   4.870   3.037
  642TIP3   OH2 1931   3.823   5.928   1.010
  642TIP3    H1 1932   3.817   6.019   1.038
  642TIP3    H2 1933   3.772   5.880   1.075
  643TIP3   OH2 1934   1.219   3.627   1.017
  643TIP3    H1 1935   1.130   3.626   0.982
  643TIP3    H2 1936   1.271   3.580   0.952
  644TIP3   OH2 1937   1.200   3.641   3.699
  644TIP3    H1 1938   1.233   3.678   3.781
  644TIP3    H2 1939   1.117   3.599   3.723
  645TIP3   OH2 1940   2.958   0.984   1.775
  645TIP3    H1 1941   2.913   0.900   1.779
  645TIP3    H2 1942   2.986   1.001   1.865
  646TIP3   OH2 1943   0.908   2.366   1.763
  646TIP3    H1 1944   0.991   2.329   1.794
  646TIP3    H2 1945   0.930   2.408   1.680
  647TIP3   OH2 1946   1.268   5.041   1.183
  647TIP3    H1 1947   1.281   4.953   1.148
  647TIP3    H2 1948   1.324   5.097   1.129
  648TIP3   OH2 1949   3.876   2.235   4.734
  648TIP3    H1 1950   3.793   2.187   4.740
  648TIP3    H2 1951   3.930   2.181   4.677
  649TIP3   OH2 1952   2.009   0.346   2.640
  649TIP3    H1 1953   2.078   0.391   2.592
  649TIP3    H2 1954   2.054   0.296   2.708
  650TIP3   OH2 1955   6.147   5.810   1.781
  650TIP3    H1 1956   6.068   5.769   1.746
  650TIP3    H2 1957   6.114   5.876   1.843
  651TIP3   OH2 1958   3.347   2.171   5.161
  651TIP3    H1 1959   3.264   2.148   5.202
  651TIP3    H2 1960   3.358   2.107   5.091
  652TIP3   OH2 1961   1.621   5.617   4.384
  652TIP3    H1 1962   1.634   5.667   4.464
  652TIP3    H2 1963   1.527   5.627   4.365
  653TIP3   OH2 1964   1.023   2.675   4.255
  653TIP3    H1 1965   0.952   2.671   4.318
  653TIP3    H2 1966   1.012   2.760   4.212
  654TIP3   OH2 1967   4.156   2.293   4.452
  654TIP3    H1 1968   4.193   2.362   4.507
  654TIP3    H2 1969   4.228   2.264   4.396
  655TIP3   OH2 1970   4.490   1.855   0.663
  655TIP3    H1 1971   4.482   1.888   0.753
  655TIP3    H2 1972   4.582   1.869   0.641
  656TIP3   OH2 1973   1.503   2.821   3.756
  656TIP3    H1 1974   1.514   2.776   3.840
  656TIP3    H2 1975   1.569   2.891   3.758
  657TIP3   OH2 1976   0.436   3.598   4.926
  657TIP3    H1 1977   0.530   3.587   4.915
  657TIP3    H2 1978   0.412   3.532   4.991
  658TIP3   OH2 1979   3.686   1.741   0.073
  658TIP3    H1 1980   3.728   1.824   0.096
  658TIP3    H2 1981   3.755   1.689   0.032
  659TIP3   OH2 1982   1.134   1.705   4.073
  659TIP3    H1 1983   1.104   1.616   4.054
  659TIP3    H2 1984   1.055   1.751   4.101
  660TIP3   OH2 1985   3.452   2.586   0.343
  660TIP3    H1 1986   3.502   2.579   0.261
  660TIP3    H2 1987   3.377   2.529   0.330
  661TIP3   OH2 1988   2.815   2.370   2.236
  661TIP3    H1 1989   2.903   2.382   2.271
  661TIP3    H2 1990   2.757   2.412   2.299
  662TIP3   OH2 1991   3.155   1.726   3.551
  662TIP3    H1 1992   3.210   1.668   3.604
  662TIP3    H2 1993   3.067   1.717   3.590
  663TIP3   OH2 1994   4.765   5.947   3.972
  663TIP3    H1 1995   4.709   5.944   3.895
  663TIP3    H2 1996   4.791   6.039   3.979
  664TIP3   OH2 1997   4.993   0.106   2.730
  664TIP3    H1 1998   5.069   0.136   2.781
  664TIP3    H2 1999   5.002   0.150   2.645
  665TIP3   OH2 2000   5.792   1.341   2.840
  665TIP3    H1 2001   5.787   1.357   2.934
  665TIP3    H2 2002   5.858   1.404   2.809
  666TIP3   OH2 2003   0.603   4.173   2.415
  666TIP3    H1 2004   0.541   4.239   2.381
  666TIP3    H2 2005   0.616   4.113   2.341
  667TIP3   OH2 2006   1.204   3.093   2.616
  667TIP3    H1 2007   1.136   3.159   2.610
  667TIP3    H2 2008   1.270   3.120   2.551
  668TIP3   OH2 2009   4.209   1.540   1.417
  668TIP3    H1 2010   4.298   1.518   1.389
  668TIP3    H2 2011   4.152   1.502   1.350
  669TIP3   OH2 2012   1.747   5.190   3.105
  669TIP3    H1 2013   1.795   5.117   3.144
  669TIP3    H2 2014   1.790   5.204   3.021
  670TIP3   OH2 2015   5.632   5.347   4.629
  670TIP3    H1 2016   5.557   5.305   4.589
  670TIP3    H2 2017   5.706   5.321   4.575
  671TIP3   OH2 2018   1.733   2.742   1.698
  671TIP3    H1 2019   1.679   2.736   1.619
  671TIP3    H2 2020   1.791   2.666   1.693
  672TIP3   OH2 2021   1.174   5.701   3.129
  672TIP3    H1 2022   1.177   5.654   3.212
  672TIP3    H2 2023   1.234   5.653   3.072
  673TIP3   OH2 2024   3.556   1.156   2.120
  673TIP3    H1 2025   3.501   1.161   2.198
  673TIP3    H2 2026   3.627   1.096   2.145
  674TIP3   OH2 2027   1.346   3.100   2.906
  674TIP3    H1 2028   1.431   3.089   2.863
  674TIP3    H2 2029   1.282   3.085   2.836
  675TIP3   OH2 2030   0.016   1.742   2.108
  675TIP3    H1 2031  -0.018   1.655   2.088
  675TIP3    H2 2032   0.090   1.726   2.166
  676TIP3   OH2 2033   1.606   2.299   4.388
  676TIP3    H1 2034   1.596   2.394   4.394
  676TIP3    H2 2035   1.628   2.272   4.477
  677TIP3   OH2 2036   4.821   5.884   1.231
  677TIP3    H1 2037   4.749   5.849   1.179
  677TIP3    H2 2038   4.813   5.979   1.224
  678TIP3   OH2 2039   4.644   4.887   5.139
  678TIP3    H1 2040   4.649   4.928   5.053
  678TIP3    H2 2041   4.567   4.927   5.180
  679TIP3   OH2 2042   4.950   1.246   0.445
  679TIP3    H1 2043   4.961   1.176   0.510
  679TIP3    H2 2044   5.034   1.249   0.399
  680TIP3   OH2 2045   5.102   1.082   1.070
  680TIP3    H1 2046   5.085   1.045   0.983
  680TIP3    H2 2047   5.107   1.177   1.054
  681TIP3   OH2 2048   2.900   1.714   3.662
  681TIP3    H1 2049   2.855   1.632   3.682
  681TIP3    H2 2050   2.843   1.783   3.696
  682TIP3   OH2 2051   1.574   3.893   4.876
  682TIP3    H1 2052   1.489   3.850   4.874
  682TIP3    H2 2053   1.557   3.979   4.913
  683TIP3   OH2 2054   1.380   2.635   2.815
  683TIP3    H1 2055   1.320   2.679   2.754
  683TIP3    H2 2056   1.360   2.673   2.900
  684TIP3   OH2 2057   2.434   3.834   2.208
  684TIP3    H1 2058   2.396   3.920   2.226
  684TIP3    H2 2059   2.388   3.774   2.267
  685TIP3   OH2 2060   0.875   4.603   3.024
  685TIP3    H1 2061   0.856   4.693   2.999
  685TIP3    H2 2062   0.863   4.552   2.944
  686TIP3   OH2 2063   3.199   5.405   3.002
  686TIP3    H1 2064   3.234   5.345   3.068
  686TIP3    H2 2065   3.223   5.365   2.919
  687TIP3   OH2 2066   2.784   4.184   2.087
  687TIP3    H1 2067   2.716   4.231   2.135
  687TIP3    H2 2068   2.747   4.172   2.000
  688TIP3   OH2 2069   4.664   4.186   3.375
  688TIP3    H1 2070   4.681   4.127   3.448
  688TIP3    H2 2071   4.638   4.128   3.303
  689TIP3   OH2 2072   2.840   0.248   3.018
  689TIP3    H1 2073   2.799   0.325   3.057
  689TIP3    H2 2074   2.921   0.281   2.978
  690TIP3   OH2 2075   3.829   3.607   1.830
  690TIP3    H1 2076   3.798   3.519   1.809
  690TIP3    H2 2077   3.902   3.593   1.889
  691TIP3   OH2 2078   2.584   1.695   4.174
  691TIP3    H1 2079   2.668   1.692   4.220
  691TIP3    H2 2080   2.521   1.722   4.242
  692TIP3   OH2 2081   1.195   5.141   2.522
  692TIP3    H1 2082   1.138   5.069   2.549
  692TIP3    H2 2083   1.134   5.210   2.495
  693TIP3   OH2 2084   6.158   4.855   2.443
  693TIP3    H1 2085   6.189   4.780   2.495
  693TIP3    H2 2086   6.175   4.829   2.352
  694TIP3   OH2 2087   0.247   2.042   4.118
  694TIP3    H1 2088   0.341   2.029   4.109
  694TIP3    H2 2089   0.235   2.137   4.106
  695TIP3   OH2 2090   5.451   5.776   1.613
  695TIP3    H1 2091   5.505   5.729   1.549
  695TIP3    H2 2092   5.494   5.759   1.697
  696TIP3   OH2 2093   5.224   4.970   1.327
  696TIP3    H1 2094   5.171   4.941   1.402
  696TIP3    H2 2095   5.265   5.051   1.357
  697TIP3   OH2 2096   1.492   4.186   3.731
  697TIP3    H1 2097   1.576   4.143   3.714
  697TIP3    H2 2098   1.501   4.226   3.817
  698TIP3   OH2 2099   3.308   0.631   4.618
  698TIP3    H1 2100   3.301   0.612   4.524
  698TIP3    H2 2101   3.395   0.599   4.642
  699TIP3   OH2 2102   4.287   1.772   3.978
  699TIP3    H1 2103   4.307   1.835   3.909
  699TIP3    H2 2104   4.275   1.825   4.056
  700TIP3   OH2 2105   0.286   5.430   1.687
  700TIP3    H1 2106   0.364   5.380   1.709
  700TIP3    H2 2107   0.292   5.510   1.739
  701TIP3   OH2 2108   1.116   4.164   1.762
  701TIP3    H1 2109   1.025   4.168   1.734
  701TIP3    H2 2110   1.166   4.165   1.681
  702TIP3   OH2 2111   2.900   5.163   3.351
  702TIP3    H1 2112   2.852   5.227   3.299
  702TIP3    H2 2113   2.909   5.204   3.437
  703TIP3   OH2 2114   3.434   4.036   3.589
  703TIP3    H1 2115   3.501   3.977   3.623
  703TIP3    H2 2116   3.461   4.054   3.499
  704TIP3   OH2 2117   1.814   3.578   3.995
  704TIP3    H1 2118   1.848   3.646   3.938
  704TIP3    H2 2119   1.860   3.498   3.968
  705TIP3   OH2 2120   3.047   3.001   3.498
  705TIP3    H1 2121   3.066   2.935   3.431
  705TIP3    H2 2122   3.123   2.998   3.556
  706TIP3   OH2 2123   0.523   3.179   2.062
  706TIP3    H1 2124   0.483   3.216   2.141
  706TIP3    H2 2125   0.537   3.087   2.083
  707TIP3   OH2 2126   4.061   5.253   0.367
  707TIP3    H1 2127   4.075   5.313   0.440
  707TIP3    H2 2128   4.135   5.268   0.308
  708TIP3   OH2 2129   5.799   2.638   1.685
  708TIP3    H1 2130   5.877   2.670   1.639
  708TIP3    H2 2131   5.728   2.694   1.654
  709TIP3   OH2 2132   0.838   0.376   4.264
  709TIP3    H1 2133   0.918   0.339   4.228
  709TIP3    H2 2134   0.780   0.385   4.188
  710TIP3   OH2 2135   0.670   1.764   0.360
  710TIP3    H1 2136   0.620   1.844   0.353
  710TIP3    H2 2137   0.721   1.760   0.279
  711TIP3   OH2 2138   4.129   4.852   2.055
  711TIP3    H1 2139   4.213   4.846   2.010
  711TIP3    H2 2140   4.138   4.929   2.111
  712TIP3   OH2 2141   5.265   1.910   0.011
  712TIP3    H1 2142   5.266   1.844  -0.058
  712TIP3    H2 2143   5.289   1.863   0.090
  713TIP3   OH2 2144   1.205   4.628   4.555
  713TIP3    H1 2145   1.164   4.544   4.535
  713TIP3    H2 2146   1.297   4.615   4.530
  714TIP3   OH2 2147   3.114   3.209   2.946
  714TIP3    H1 2148   3.175   3.171   3.009
  714TIP3    H2 2149   3.028   3.182   2.977
  715TIP3   OH2 2150   1.339   5.418   1.733
  715TIP3    H1 2151   1.265   5.468   1.698
  715TIP3    H2 2152   1.315   5.401   1.824
  716TIP3   OH2 2153   2.616   0.360   4.343
  716TIP3    H1 2154   2.609   0.307   4.264
  716TIP3    H2 2155   2.612   0.451   4.312
  717TIP3   OH2 2156   3.476   4.176   0.202
  717TIP3    H1 2157   3.490   4.248   0.142
  717TIP3    H2 2158   3.430   4.110   0.151
  718TIP3   OH2 2159   0.786   0.401   0.756
  718TIP3    H1 2160   0.866   0.388   0.807
  718TIP3    H2 2161   0.719   0.351   0.803
  719TIP3   OH2 2162   0.216   4.356   0.239
  719TIP3    H1 2163   0.270   4.375   0.163
  719TIP3    H2 2164   0.276   4.317   0.303
  720TIP3   OH2 2165   3.564   3.390   2.527
  720TIP3    H1 2166   3.548   3.485   2.523
  720TIP3    H2 2167   3.484   3.352   2.491
  721TIP3   OH2 2168   1.027   3.811   0.822
  721TIP3    H1 2169   1.105   3.866   0.827
  721TIP3    H2 2170   1.009   3.804   0.728
  722TIP3   OH2 2171   0.150   4.719   1.878
  722TIP3    H1 2172   0.065   4.757   1.897
  722TIP3    H2 2173   0.135   4.624   1.883
  723TIP3   OH2 2174   0.593   5.763   2.785
  723TIP3    H1 2175   0.668   5.813   2.752
  723TIP3    H2 2176   0.633   5.687   2.827
  724TIP3   OH2 2177   2.284   5.658   0.386
  724TIP3    H1 2178   2.307   5.571   0.419
  724TIP3    H2 2179   2.344   5.671   0.311
  725TIP3   OH2 2180   5.026   2.052   0.329
  725TIP3    H1 2181   5.108   2.097   0.350
  725TIP3    H2 2182   4.958   2.108   0.366
  726TIP3   OH2 2183   4.756   0.072   1.643
  726TIP3    H1 2184   4.676   0.077   1.591
  726TIP3    H2 2185   4.738   0.127   1.720
  727TIP3   OH2 2186   3.338   3.368   1.580
  727TIP3    H1 2187   3.427   3.357   1.548
  727TIP3    H2 2188   3.283   3.333   1.509
  728TIP3   OH2 2189   5.328   1.551   0.480
  728TIP3    H1 2190   5.259   1.541   0.546
  728TIP3    H2 2191   5.355   1.642   0.488
  729TIP3   OH2 2192   1.049   1.645   2.053
  729TIP3    H1 2193   1.024   1.717   2.111
  729TIP3    H2 2194   0.972   1.631   1.998
  730TIP3   OH2 2195   5.778   5.915   1.532
  730TIP3    H1 2196   5.686   5.939   1.539
  730TIP3    H2 2197   5.821   5.994   1.499
  731TIP3   OH2 2198   1.598   4.492   3.304
  731TIP3    H1 2199   1.619   4.433   3.377
  731TIP3    H2 2200   1.518   4.537   3.332
  732TIP3   OH2 2201   2.031   0.793   3.954
  732TIP3    H1 2202   2.106   0.754   3.998
  732TIP3    H2 2203   1.962   0.795   4.020
  733TIP3   OH2 2204   1.469   4.523   1.685
  733TIP3    H1 2205   1.476   4.429   1.695
  733TIP3    H2 2206   1.456   4.557   1.773
  734TIP3   OH2 2207   0.382   1.471   4.304
  734TIP3    H1 2208   0.380   1.376   4.319
  734TIP3    H2 2209   0.309   1.487   4.244
  735TIP3   OH2 2210   5.657   3.539   2.782
  735TIP3    H1 2211   5.652   3.633   2.802
  735TIP3    H2 2212   5.748   3.515   2.803
  736TIP3   OH2 2213   6.215   3.138   0.545
  736TIP3    H1 2214   6.177   3.121   0.458
  736TIP3    H2 2215   6.160   3.207   0.582
  737TIP3   OH2 2216   3.624   5.557   4.658
  737TIP3    H1 2217   3.540   5.604   4.666
  737TIP3    H2 2218   3.600   5.471   4.624
  738TIP3   OH2 2219   3.273   1.374   1.042
  738TIP3    H1 2220   3.315   1.291   1.062
  738TIP3    H2 2221   3.218   1.355   0.965
  739TIP3   OH2 2222   3.329   0.044   4.331
  739TIP3    H1 2223   3.297  -0.046   4.327
  739TIP3    H2 2224   3.423   0.037   4.312
  740TIP3   OH2 2225   3.850   4.955   1.780
  740TIP3    H1 2226   3.934   4.941   1.736
  740TIP3    H2 2227   3.809   4.869   1.781
  741TIP3   OH2 2228   4.015   0.507   1.908
  741TIP3    H1 2229   4.108   0.507   1.885
  741TIP3    H2 2230   3.989   0.415   1.900
  742TIP3   OH2 2231   4.456   0.448   4.850
  742TIP3    H1 2232   4.493   0.425   4.764
  742TIP3    H2 2233   4.531   0.453   4.908
  743TIP3   OH2 2234   6.244   2.158   3.565
  743TIP3    H1 2235   6.251   2.249   3.537
  743TIP3    H2 2236   6.164   2.156   3.617
  744TIP3   OH2 2237   3.788   4.286   0.572
  744TIP3    H1 2238   3.785   4.281   0.477
  744TIP3    H2 2239   3.765   4.377   0.591
  745TIP3   OH2 2240   0.471   1.197   2.076
  745TIP3    H1 2241   0.537   1.143   2.031
  745TIP3    H2 2242   0.493   1.287   2.053
  746TIP3   OH2 2243   4.964   1.241   3.814
  746TIP3    H1 2244   4.885   1.207   3.855
  746TIP3    H2 2245   5.036   1.203   3.865
  747TIP3   OH2 2246   1.340   0.470   1.766
  747TIP3    H1 2247   1.281   0.537   1.802
  747TIP3    H2 2248   1.404   0.520   1.715
  748TIP3   OH2 2249   4.023   5.855   0.616
  748TIP3    H1 2250   3.947   5.872   0.671
  748TIP3    H2 2251   4.044   5.939   0.576
  749TIP3   OH2 2252   3.184   5.191   4.165
  749TIP3    H1 2253   3.266   5.218   4.205
  749TIP3    H2 2254   3.121   5.190   4.237
  750TIP3   OH2 2255   5.848   0.407   1.018
  750TIP3    H1 2256   5.908   0.403   1.093
  750TIP3    H2 2257   5.840   0.501   0.999
  751TIP3   OH2 2258   5.731   3.518   3.073
  751TIP3    H1 2259   5.688   3.601   3.054
  751TIP3    H2 2260   5.699   3.494   3.160
  752TIP3   OH2 2261   3.496   4.963   0.161
  752TIP3    H1 2262   3.529   5.052   0.171
  752TIP3    H2 2263   3.419   4.971   0.105
  753TIP3   OH2 2264   2.567   2.045   2.181
  753TIP3    H1 2265   2.595   2.094   2.259
  753TIP3    H2 2266   2.632   1.975   2.171
  754TIP3   OH2 2267   1.322   1.186   2.041
  754TIP3    H1 2268   1.245   1.153   1.994
  754TIP3    H2 2269   1.310   1.281   2.041
  755TIP3   OH2 2270   3.408   2.824   3.328
  755TIP3    H1 2271   3.356   2.824   3.408
  755TIP3    H2 2272   3.347   2.793   3.260
  756TIP3   OH2 2273   1.563   0.611   2.573
  756TIP3    H1 2274   1.579   0.681   2.636
  756TIP3    H2 2275   1.642   0.557   2.577
  757TIP3   OH2 2276   1.562   2.928   0.073
  757TIP3    H1 2277   1.517   2.911   0.156
  757TIP3    H2 2278   1.635   2.867   0.072
  758TIP3   OH2 2279   3.278   4.827   2.113
  758TIP3    H1 2280   3.315   4.781   2.038
  758TIP3    H2 2281   3.206   4.772   2.142
  759TIP3   OH2 2282   3.419   5.367   4.276
  759TIP3    H1 2283   3.506   5.386   4.241
  759TIP3    H2 2284   3.433   5.359   4.371
  760TIP3   OH2 2285   0.788   5.921   3.050
  760TIP3    H1 2286   0.720   5.873   3.095
  760TIP3    H2 2287   0.779   6.011   3.080
  761TIP3   OH2 2288   0.233   1.097   2.008
  761TIP3    H1 2289   0.232   1.077   1.914
  761TIP3    H2 2290   0.326   1.106   2.030
  762TIP3   OH2 2291   1.815   2.880   0.288
  762TIP3    H1 2292   1.750   2.950   0.282
  762TIP3    H2 2293   1.780   2.820   0.353
  763TIP3   OH2 2294   2.167  -0.027   2.667
  763TIP3    H1 2295   2.136   0.055   2.706
  763TIP3    H2 2296   2.238   0.000   2.609
  764TIP3   OH2 2297   0.746   4.194   2.700
  764TIP3    H1 2298   0.730   4.209   2.607
  764TIP3    H2 2299   0.737   4.099   2.711
  765TIP3   OH2 2300   1.649   1.062   5.159
  765TIP3    H1 2301   1.676   1.127   5.094
  765TIP3    H2 2302   1.731   1.026   5.193
  766TIP3   OH2 2303   1.422   1.107   3.453
  766TIP3    H1 2304   1.422   1.029   3.509
  766TIP3    H2 2305   1.413   1.072   3.364
  767TIP3   OH2 2306   0.108   3.591   3.176
  767TIP3    H1 2307   0.159   3.626   3.103
  767TIP3    H2 2308   0.051   3.525   3.136
  768TIP3   OH2 2309   2.914   4.660   0.760
  768TIP3    H1 2310   2.883   4.750   0.761
  768TIP3    H2 2311   2.872   4.621   0.683
  769TIP3   OH2 2312   5.629   3.983   2.636
  769TIP3    H1 2313   5.702   3.987   2.574
  769TIP3    H2 2314   5.625   3.891   2.663
  770TIP3   OH2 2315   3.824   4.375   0.111
  770TIP3    H1 2316   3.888   4.375   0.039
  770TIP3    H2 2317   3.875   4.395   0.189
  771TIP3   OH2 2318   0.766   5.328   4.433
  771TIP3    H1 2319   0.844   5.273   4.419
  771TIP3    H2 2320   0.770   5.352   4.525
  772TIP3   OH2 2321   3.991   3.776   2.861
  772TIP3    H1 2322   3.913   3.751   2.911
  772TIP3    H2 2323   3.987   3.723   2.782
  773TIP3   OH2 2324   0.468   3.399   3.579
  773TIP3    H1 2325   0.528   3.327   3.556
  773TIP3    H2 2326   0.391   3.355   3.615
  774TIP3   OH2 2327   2.327   4.437   4.713
  774TIP3    H1 2328   2.298   4.526   4.735
  774TIP3    H2 2329   2.417   4.433   4.745
  775TIP3   OH2 2330   1.835   0.652   2.129
  775TIP3    H1 2331   1.876   0.643   2.216
  775TIP3    H2 2332   1.764   0.715   2.142
  776TIP3   OH2 2333   1.760   4.795   1.455
  776TIP3    H1 2334   1.821   4.842   1.398
  776TIP3    H2 2335   1.760   4.845   1.537
  777TIP3   OH2 2336   1.225   4.333   2.532
  777TIP3    H1 2337   1.245   4.247   2.569
  777TIP3    H2 2338   1.301   4.355   2.479
  778TIP3   OH2 2339   1.054   0.643   0.276
  778TIP3    H1 2340   1.080   0.557   0.308
  778TIP3    H2 2341   1.131   0.678   0.233
  779TIP3   OH2 2342   5.863   5.677   4.580
  779TIP3    H1 2343   5.905   5.736   4.516
  779TIP3    H2 2344   5.890   5.590   4.553
  780TIP3   OH2 2345   5.704   5.370   2.315
  780TIP3    H1 2346   5.675   5.295   2.366
  780TIP3    H2 2347   5.639   5.438   2.334
  781TIP3   OH2 2348   1.542   5.613   1.530
  781TIP3    H1 2349   1.486   5.575   1.597
  781TIP3    H2 2350   1.556   5.542   1.467
  782TIP3   OH2 2351   2.307   1.680   3.682
  782TIP3    H1 2352   2.364   1.754   3.704
  782TIP3    H2 2353   2.222   1.703   3.718
  783TIP3   OH2 2354   0.757   3.857   2.265
  783TIP3    H1 2355   0.845   3.823   2.276
  783TIP3    H2 2356   0.769   3.946   2.231
  784TIP3   OH2 2357   4.719   2.409   0.226
  784TIP3    H1 2358   4.675   2.453   0.153
  784TIP3    H2 2359   4.719   2.473   0.297
  785TIP3   OH2 2360   5.791   5.126   1.988
  785TIP3    H1 2361   5.770   5.201   1.933
  785TIP3    H2 2362   5.780   5.050   1.930
  786TIP3   OH2 2363   1.414   1.507   2.264
  786TIP3    H1 2364   1.429   1.576   2.329
  786TIP3    H2 2365   1.457   1.430   2.301
  787TIP3   OH2 2366   0.166   2.762   0.451
  787TIP3    H1 2367   0.197   2.711   0.526
  787TIP3    H2 2368   0.135   2.845   0.488
  788TIP3   OH2 2369   1.647   2.176   0.028
  788TIP3    H1 2370   1.734   2.148   0.003
  788TIP3    H2 2371   1.601   2.096   0.054
  789TIP3   OH2 2372   2.557   2.562   3.224
  789TIP3    H1 2373   2.492   2.514   3.276
  789TIP3    H2 2374   2.520   2.563   3.136
  790TIP3   OH2 2375   1.489   4.868   3.985
  790TIP3    H1 2376   1.572   4.903   4.019
  790TIP3    H2 2377   1.511   4.781   3.953
  791TIP3   OH2 2378   6.234   0.174   3.752
  791TIP3    H1 2379   6.151   0.178   3.704
  791TIP3    H2 2380   6.275   0.258   3.734
  792TIP3   OH2 2381   5.887   2.491   3.125
  792TIP3    H1 2382   5.800   2.480   3.163
  792TIP3    H2 2383   5.914   2.578   3.152
  793TIP3   OH2 2384   0.116   1.550   3.341
  793TIP3    H1 2385   0.177   1.520   3.408
  793TIP3    H2 2386   0.063   1.617   3.385
  794TIP3   OH2 2387   5.874   5.786   2.736
  794TIP3    H1 2388   5.877   5.881   2.722
  794TIP3    H2 2389   5.961   5.756   2.712
  795TIP3   OH2 2390   3.945   4.904   3.667
  795TIP3    H1 2391   3.905   4.818   3.680
  795TIP3    H2 2392   4.012   4.910   3.735
  796TIP3   OH2 2393   4.910   2.848   4.074
  796TIP3    H1 2394   5.003   2.867   4.072
  796TIP3    H2 2395   4.868   2.934   4.073
  797TIP3   OH2 2396   1.933   5.685   3.840
  797TIP3    H1 2397   1.916   5.594   3.814
  797TIP3    H2 2398   1.860   5.707   3.898
  798TIP3   OH2 2399   3.257   5.369   4.991
  798TIP3    H1 2400   3.219   5.300   5.046
  798TIP3    H2 2401   3.314   5.322   4.931
  799TIP3   OH2 2402   3.027   3.100   1.503
  799TIP3    H1 2403   2.992   3.024   1.457
  799TIP3    H2 2404   3.115   3.074   1.528
  800TIP3   OH2 2405   2.254   1.561   4.818
  800TIP3    H1 2406   2.184   1.575   4.882
  800TIP3    H2 2407   2.280   1.470   4.830
  801TIP3   OH2 2408   4.674   5.806   2.839
  801TIP3    H1 2409   4.769   5.817   2.834
  801TIP3    H2 2410   4.655   5.805   2.932
  802TIP3   OH2 2411   5.655   2.302   1.148
  802TIP3    H1 2412   5.634   2.376   1.205
  802TIP3    H2 2413   5.750   2.304   1.139
  803TIP3   OH2 2414   2.252   4.269   3.227
  803TIP3    H1 2415   2.235   4.344   3.284
  803TIP3    H2 2416   2.184   4.274   3.160
  804TIP3   OH2 2417   2.433   1.219   4.556
  804TIP3    H1 2418   2.346   1.180   4.551
  804TIP3    H2 2419   2.487   1.153   4.598
  805TIP3   OH2 2420   0.810   0.241   1.117
  805TIP3    H1 2421   0.793   0.166   1.060
  805TIP3    H2 2422   0.878   0.291   1.071
  806TIP3   OH2 2423   5.166   3.319   1.573
  806TIP3    H1 2424   5.139   3.402   1.612
  806TIP3    H2 2425   5.242   3.291   1.624
  807TIP3   OH2 2426   5.477   1.753   3.410
  807TIP3    H1 2427   5.489   1.659   3.396
  807TIP3    H2 2428   5.384   1.768   3.391
  808TIP3   OH2 2429   5.294   0.695   0.945
  808TIP3    H1 2430   5.298   0.754   0.870
  808TIP3    H2 2431   5.353   0.623   0.922
  809TIP3   OH2 2432   0.467   0.467   2.799
  809TIP3    H1 2433   0.519   0.547   2.794
  809TIP3    H2 2434   0.407   0.483   2.872
  810TIP3   OH2 2435   3.224   0.406   1.984
  810TIP3    H1 2436   3.152   0.363   2.030
  810TIP3    H2 2437   3.294   0.341   1.982
  811TIP3   OH2 2438   5.010   4.131   0.865
  811TIP3    H1 2439   4.959   4.079   0.928
  811TIP3    H2 2440   5.097   4.136   0.903
  812TIP3   OH2 2441   1.825   3.948   3.410
  812TIP3    H1 2442   1.747   3.901   3.440
  812TIP3    H2 2443   1.894   3.881   3.409
  813TIP3   OH2 2444   3.580   0.776   3.099
  813TIP3    H1 2445   3.595   0.867   3.123
  813TIP3    H2 2446   3.650   0.728   3.143
  814TIP3   OH2 2447   2.566   4.047   4.221
  814TIP3    H1 2448   2.567   4.045   4.126
  814TIP3    H2 2449   2.481   4.086   4.243
  815TIP3   OH2 2450   2.450   3.395   5.068
  815TIP3    H1 2451   2.392   3.457   5.111
  815TIP3    H2 2452   2.494   3.349   5.139
  816TIP3   OH2 2453   6.105   3.083   3.747
  816TIP3    H1 2454   6.084   3.138   3.822
  816TIP3    H2 2455   6.062   3.126   3.672
  817TIP3   OH2 2456   3.763   2.041   2.198
  817TIP3    H1 2457   3.730   2.129   2.213
  817TIP3    H2 2458   3.849   2.053   2.159
  818TIP3   OH2 2459   1.785   1.697   3.393
  818TIP3    H1 2460   1.838   1.705   3.314
  818TIP3    H2 2461   1.842   1.653   3.456
  819TIP3   OH2 2462   2.375   1.621   2.441
  819TIP3    H1 2463   2.460   1.662   2.457
  819TIP3    H2 2464   2.383   1.535   2.481
  820TIP3   OH2 2465   5.790   2.703   3.519
  820TIP3    H1 2466   5.777   2.763   3.446
  820TIP3    H2 2467   5.841   2.754   3.583
  821TIP3   OH2 2468   3.994   5.259   2.563
  821TIP3    H1 2469   3.980   5.353   2.552
  821TIP3    H2 2470   4.058   5.252   2.633
  822TIP3   OH2 2471   0.292   0.906   1.038
  822TIP3    H1 2472   0.382   0.897   1.069
  822TIP3    H2 2473   0.280   1.001   1.026
  823TIP3   OH2 2474   5.441   5.162   4.026
  823TIP3    H1 2475   5.470   5.076   4.055
  823TIP3    H2 2476   5.520   5.216   4.027
  824TIP3   OH2 2477   4.602   1.842   3.048
  824TIP3    H1 2478   4.551   1.913   3.087
  824TIP3    H2 2479   4.536   1.777   3.023
  825TIP3   OH2 2480   1.367   0.550   0.389
  825TIP3    H1 2481   1.388   0.540   0.296
  825TIP3    H2 2482   1.272   0.540   0.393
  826TIP3   OH2 2483   3.894   0.524   0.372
  826TIP3    H1 2484   3.811   0.529   0.326
  826TIP3    H2 2485   3.885   0.448   0.430
  827TIP3   OH2 2486   5.184   5.199   4.096
  827TIP3    H1 2487   5.160   5.287   4.066
  827TIP3    H2 2488   5.278   5.193   4.077
  828TIP3   OH2 2489   3.140   3.491   1.958
  828TIP3    H1 2490   3.104   3.465   1.873
  828TIP3    H2 2491   3.231   3.516   1.938
  829TIP3   OH2 2492   2.229   2.971   0.284
  829TIP3    H1 2493   2.324   2.979   0.297
  829TIP3    H2 2494   2.192   2.973   0.372
  830TIP3   OH2 2495   0.856   5.706   0.454
  830TIP3    H1 2496   0.931   5.670   0.406
  830TIP3    H2 2497   0.780   5.686   0.400
  831TIP3   OH2 2498   1.085   2.634   4.904
  831TIP3    H1 2499   1.163   2.660   4.855
  831TIP3    H2 2500   1.014   2.685   4.865
  832TIP3   OH2 2501   0.140   4.453   5.129
  832TIP3    H1 2502   0.047   4.434   5.131
  832TIP3    H2 2503   0.148   4.539   5.171
  833TIP3   OH2 2504   2.950   5.273   0.771
  833TIP3    H1 2505   2.938   5.219   0.849
  833TIP3    H2 2506   3.003   5.347   0.799
  834TIP3   OH2 2507   5.060   3.547   4.516
  834TIP3    H1 2508   5.147   3.584   4.530
  834TIP3    H2 2509   5.050   3.544   4.421
  835TIP3   OH2 2510   0.362   1.861   2.850
  835TIP3    H1 2511   0.334   1.941   2.807
  835TIP3    H2 2512   0.310   1.858   2.930
  836TIP3   OH2 2513   1.266   1.462   2.038
  836TIP3    H1 2514   1.320   1.471   2.116
  836TIP3    H2 2515   1.185   1.508   2.059
  837TIP3   OH2 2516   5.799   1.374   2.057
  837TIP3    H1 2517   5.873   1.317   2.035
  837TIP3    H2 2518   5.730   1.348   1.996
  838TIP3   OH2 2519   0.557   0.539   3.812
  838TIP3    H1 2520   0.593   0.482   3.880
  838TIP3    H2 2521   0.609   0.519   3.734
  839TIP3   OH2 2522   3.830   1.595   5.156
  839TIP3    H1 2523   3.801   1.661   5.092
  839TIP3    H2 2524   3.754   1.580   5.211
  840TIP3   OH2 2525   2.784   5.767   2.974
  840TIP3    H1 2526   2.834   5.735   2.899
  840TIP3    H2 2527   2.821   5.854   2.992
  841TIP3   OH2 2528   6.089   1.657   0.307
  841TIP3    H1 2529   6.163   1.597   0.301
  841TIP3    H2 2530   6.026   1.624   0.243
  842TIP3   OH2 2531   6.002   1.416   0.968
  842TIP3    H1 2532   6.056   1.404   0.890
  842TIP3    H2 2533   6.062   1.401   1.041
  843TIP3   OH2 2534   4.463   1.351   3.964
  843TIP3    H1 2535   4.417   1.275   3.929
  843TIP3    H2 2536   4.466   1.337   4.059
  844TIP3   OH2 2537   4.369   5.654   0.775
  844TIP3    H1 2538   4.400   5.580   0.826
  844TIP3    H2 2539   4.294   5.688   0.824
  845TIP3   OH2 2540   2.197   3.955   3.168
  845TIP3    H1 2541   2.237   3.989   3.088
  845TIP3    H2 2542   2.205   4.026   3.232
  846TIP3   OH2 2543   5.757   1.283   4.826
  846TIP3    H1 2544   5.723   1.255   4.741
  846TIP3    H2 2545   5.820   1.215   4.851
  847TIP3   OH2 2546   5.164   1.483   2.373
  847TIP3    H1 2547   5.225   1.538   2.323
  847TIP3    H2 2548   5.117   1.545   2.429
  848TIP3   OH2 2549   1.182   3.871   1.439
  848TIP3    H1 2550   1.276   3.889   1.434
  848TIP3    H2 2551   1.172   3.785   1.398
  849TIP3   OH2 2552   4.945   1.930   3.578
  849TIP3    H1 2553   4.931   1.836   3.563
  849TIP3    H2 2554   4.898   1.972   3.505
  850TIP3   OH2 2555   1.544   2.766   2.081
  850TIP3    H1 2556   1.543   2.688   2.025
  850TIP3    H2 2557   1.637   2.783   2.097
  851TIP3   OH2 2558   5.874   1.751   0.434
  851TIP3    H1 2559   5.907   1.665   0.408
  851TIP3    H2 2560   5.950   1.798   0.467
  852TIP3   OH2 2561   0.612   2.891   4.214
  852TIP3    H1 2562   0.633   2.923   4.302
  852TIP3    H2 2563   0.582   2.969   4.167
  853TIP3   OH2 2564   1.713   1.876   1.416
  853TIP3    H1 2565   1.665   1.841   1.491
  853TIP3    H2 2566   1.797   1.904   1.452
  854TIP3   OH2 2567   0.378   4.142   0.375
  854TIP3    H1 2568   0.350   4.108   0.460
  854TIP3    H2 2569   0.311   4.111   0.314
  855TIP3   OH2 2570   4.627   1.872   2.052
  855TIP3    H1 2571   4.624   1.964   2.079
  855TIP3    H2 2572   4.638   1.875   1.957
  856TIP3   OH2 2573   4.919   1.321   2.477
  856TIP3    H1 2574   4.899   1.231   2.452
  856TIP3    H2 2575   4.835   1.367   2.470
  857TIP3   OH2 2576   0.993   4.205   2.794
  857TIP3    H1 2577   1.023   4.163   2.713
  857TIP3    H2 2578   0.898   4.195   2.794
  858TIP3   OH2 2579   5.099   2.680   0.496
  858TIP3    H1 2580   5.080   2.755   0.440
  858TIP3    H2 2581   5.050   2.697   0.576
  859TIP3   OH2 2582   1.441   0.665   1.428
  859TIP3    H1 2583   1.515   0.639   1.483
  859TIP3    H2 2584   1.479   0.724   1.363
  860TIP3   OH2 2585   1.162   3.139   5.146
  860TIP3    H1 2586   1.178   3.087   5.068
  860TIP3    H2 2587   1.205   3.223   5.128
  861TIP3   OH2 2588   0.364   3.676   1.324
  861TIP3    H1 2589   0.440   3.624   1.297
  861TIP3    H2 2590   0.328   3.709   1.242
  862TIP3   OH2 2591   5.318   3.288   1.185
  862TIP3    H1 2592   5.333   3.351   1.115
  862TIP3    H2 2593   5.403   3.279   1.228
  863TIP3   OH2 2594   3.158   3.707   4.479
  863TIP3    H1 2595   3.173   3.663   4.396
  863TIP3    H2 2596   3.245   3.738   4.505
  864TIP3   OH2 2597   5.652   3.991   1.513
  864TIP3    H1 2598   5.663   3.976   1.607
  864TIP3    H2 2599   5.620   3.907   1.479
  865TIP3   OH2 2600   0.526   1.287   3.988
  865TIP3    H1 2601   0.608   1.319   3.948
  865TIP3    H2 2602   0.554   1.212   4.042
  866TIP3   OH2 2603   5.216   3.824   3.710
  866TIP3    H1 2604   5.143   3.865   3.756
  866TIP3    H2 2605   5.294   3.854   3.757
  867TIP3   OH2 2606   5.247   3.583   2.707
  867TIP3    H1 2607   5.184   3.585   2.779
  867TIP3    H2 2608   5.240   3.669   2.665
  868TIP3   OH2 2609   2.850   4.371   4.882
  868TIP3    H1 2610   2.917   4.334   4.824
  868TIP3    H2 2611   2.779   4.396   4.823
  869TIP3   OH2 2612   6.296   1.058   3.553
  869TIP3    H1 2613   6.259   1.122   3.614
  869TIP3    H2 2614   6.228   0.992   3.543
  870TIP3   OH2 2615   5.786   2.262   0.549
  870TIP3    H1 2616   5.807   2.188   0.606
  870TIP3    H2 2617   5.746   2.222   0.471
  871TIP3   OH2 2618   1.097   1.253   0.291
  871TIP3    H1 2619   1.110   1.181   0.352
  871TIP3    H2 2620   1.141   1.327   0.333
  872TIP3   OH2 2621   1.016   3.933   2.169
  872TIP3    H1 2622   1.111   3.942   2.166
  872TIP3    H2 2623   0.997   3.859   2.111
  873TIP3   OH2 2624   2.236   4.866   4.479
  873TIP3    H1 2625   2.183   4.867   4.559
  873TIP3    H2 2626   2.179   4.829   4.412
  874TIP3   OH2 2627   3.913   5.102   2.287
  874TIP3    H1 2628   3.849   5.097   2.217
  874TIP3    H2 2629   3.997   5.085   2.245
  875TIP3   OH2 2630   3.153   1.277   2.212
  875TIP3    H1 2631   3.213   1.351   2.224
  875TIP3    H2 2632   3.130   1.251   2.301
  876TIP3   OH2 2633   1.637   4.237   0.035
  876TIP3    H1 2634   1.675   4.249  -0.052
  876TIP3    H2 2635   1.633   4.326   0.071
  877TIP3   OH2 2636   4.240   2.544   0.670
  877TIP3    H1 2637   4.202   2.551   0.757
  877TIP3    H2 2638   4.240   2.450   0.651
  878TIP3   OH2 2639   3.871   0.014   2.964
  878TIP3    H1 2640   3.778   0.013   2.990
  878TIP3    H2 2641   3.892   0.106   2.951
  879TIP3   OH2 2642   0.297   3.819   1.992
  879TIP3    H1 2643   0.391   3.802   1.981
  879TIP3    H2 2644   0.273   3.772   2.072
  880TIP3   OH2 2645   1.688   1.123   4.082
  880TIP3    H1 2646   1.632   1.124   4.159
  880TIP3    H2 2647   1.628   1.134   4.008
  881TIP3   OH2 2648   0.160   4.215   4.152
  881TIP3    H1 2649   0.076   4.172   4.139
  881TIP3    H2 2650   0.222   4.161   4.105
  882TIP3   OH2 2651   3.245   1.396   3.418
  882TIP3    H1 2652   3.157   1.359   3.432
  882TIP3    H2 2653   3.303   1.337   3.467
  883TIP3   OH2 2654   4.800   4.537  -0.005
  883TIP3    H1 2655   4.796   4.632  -0.013
  883TIP3    H2 2656   4.708   4.509  -0.002
  884TIP3   OH2 2657   3.370   2.517   4.606
  884TIP3    H1 2658   3.423   2.596   4.596
  884TIP3    H2 2659   3.347   2.515   4.699
  885TIP3   OH2 2660   1.871   2.874   4.083
  885TIP3    H1 2661   1.949   2.849   4.132
  885TIP3    H2 2662   1.825   2.936   4.140
  886TIP3   OH2 2663   2.397   0.419   0.474
  886TIP3    H1 2664   2.334   0.354   0.507
  886TIP3    H2 2665   2.458   0.433   0.546
  887TIP3   OH2 2666   2.730   1.789   1.835
  887TIP3    H1 2667   2.734   1.740   1.753
  887TIP3    H2 2668   2.644   1.831   1.833
  888TIP3   OH2 2669   4.097   3.384   2.706
  888TIP3    H1 2670   4.031   3.452   2.691
  888TIP3    H2 2671   4.137   3.408   2.789
  889TIP3   OH2 2672   1.200   4.506   4.821
  889TIP3    H1 2673   1.270   4.448   4.850
  889TIP3    H2 2674   1.239   4.558   4.750
  890TIP3   OH2 2675   1.960   1.497   3.521
  890TIP3    H1 2676   1.980   1.417   3.568
  890TIP3    H2 2677   1.940   1.468   3.432
  891TIP3   OH2 2678   1.826   3.249   3.881
  891TIP3    H1 2679   1.876   3.326   3.852
  891TIP3    H2 2680   1.863   3.177   3.830
  892TIP3   OH2 2681   0.930   1.224   4.989
  892TIP3    H1 2682   0.950   1.239   5.082
  892TIP3    H2 2683   0.945   1.130   4.977
  893TIP3   OH2 2684   5.534   3.307   2.581
  893TIP3    H1 2685   5.578   3.382   2.620
  893TIP3    H2 2686   5.441   3.331   2.578
  894TIP3   OH2 2687   5.152   1.316   2.143
  894TIP3    H1 2688   5.164   1.221   2.143
  894TIP3    H2 2689   5.148   1.340   2.235
  895TIP3   OH2 2690   4.381   4.612   2.151
  895TIP3    H1 2691   4.459   4.588   2.101
  895TIP3    H2 2692   4.338   4.679   2.099
  896TIP3   OH2 2693   6.308   4.302  -0.018
  896TIP3    H1 2694   6.317   4.264   0.069
  896TIP3    H2 2695   6.331   4.231  -0.078
  897TIP3   OH2 2696   5.924   5.271   3.948
  897TIP3    H1 2697   5.899   5.292   3.858
  897TIP3    H2 2698   6.019   5.262   3.946
  898TIP3   OH2 2699   2.674   3.627   3.625
  898TIP3    H1 2700   2.683   3.539   3.662
  898TIP3    H2 2701   2.740   3.630   3.555
  899TIP3   OH2 2702   3.533   0.172   3.487
  899TIP3    H1 2703   3.469   0.139   3.425
  899TIP3    H2 2704   3.523   0.267   3.485
  900TIP3   OH2 2705   2.310   4.266   0.335
  900TIP3    H1 2706   2.385   4.208   0.346
  900TIP3    H2 2707   2.235   4.207   0.329
  901TIP3   OH2 2708   1.939   0.290   3.091
  901TIP3    H1 2709   1.958   0.289   3.185
  901TIP3    H2 2710   1.955   0.381   3.064
  902TIP3   OH2 2711   3.516   0.835   2.206
  902TIP3    H1 2712   3.448   0.891   2.168
  902TIP3    H2 2713   3.593   0.891   2.211
  903TIP3   OH2 2714   5.873   3.290   1.255
  903TIP3    H1 2715   5.849   3.345   1.330
  903TIP3    H2 2716   5.966   3.271   1.268
  904TIP3   OH2 2717   2.232   1.065   0.080
  904TIP3    H1 2718   2.189   1.143   0.045
  904TIP3    H2 2719   2.238   1.005   0.006
  905TIP3   OH2 2720   0.594   3.063   4.425
  905TIP3    H1 2721   0.629   3.128   4.364
  905TIP3    H2 2722   0.659   3.059   4.496
  906TIP3   OH2 2723   1.553   2.488   2.000
  906TIP3    H1 2724   1.571   2.413   1.943
  906TIP3    H2 2725   1.543   2.450   2.087
  907TIP3   OH2 2726   1.630   5.731   4.630
  907TIP3    H1 2727   1.554   5.705   4.682
  907TIP3    H2 2728   1.698   5.749   4.695
  908TIP3   OH2 2729   6.000   0.030   4.831
  908TIP3    H1 2730   6.035   0.014   4.918
  908TIP3    H2 2731   5.966   0.119   4.834
  909TIP3   OH2 2732   1.830   2.209   2.854
  909TIP3    H1 2733   1.759   2.272   2.869
  909TIP3    H2 2734   1.799   2.128   2.894
  910TIP3   OH2 2735   4.060   1.208   3.804
  910TIP3    H1 2736   4.043   1.129   3.753
  910TIP3    H2 2737   3.994   1.206   3.874
  911TIP3   OH2 2738   2.399   3.616   3.039
  911TIP3    H1 2739   2.337   3.646   3.105
  911TIP3    H2 2740   2.442   3.540   3.079
  912TIP3   OH2 2741   5.910   5.299   1.226
  912TIP3    H1 2742   5.939   5.215   1.193
  912TIP3    H2 2743   5.988   5.355   1.224
  913TIP3   OH2 2744   1.539   5.491   4.751
  913TIP3    H1 2745   1.598   5.448   4.690
  913TIP3    H2 2746   1.455   5.447   4.737
  914TIP3   OH2 2747   1.577   2.217   3.608
  914TIP3    H1 2748   1.653   2.210   3.665
  914TIP3    H2 2749   1.613   2.234   3.521
  915TIP3   OH2 2750   4.397   1.150   3.331
  915TIP3    H1 2751   4.368   1.160   3.422
  915TIP3    H2 2752   4.450   1.228   3.314
  916TIP3   OH2 2753   4.719   0.371   0.874
  916TIP3    H1 2754   4.771   0.422   0.813
  916TIP3    H2 2755   4.678   0.436   0.931
  917TIP3   OH2 2756   3.706   3.399   2.176
  917TIP3    H1 2757   3.666   3.327   2.127
  917TIP3    H2 2758   3.634   3.460   2.193
  918TIP3   OH2 2759   1.134   4.179   0.624
  918TIP3    H1 2760   1.119   4.093   0.585
  918TIP3    H2 2761   1.131   4.163   0.718
  919TIP3   OH2 2762   5.192   5.738   4.820
  919TIP3    H1 2763   5.205   5.764   4.729
  919TIP3    H2 2764   5.207   5.644   4.821
  920TIP3   OH2 2765   4.672   4.968   3.540
  920TIP3    H1 2766   4.692   4.904   3.608
  920TIP3    H2 2767   4.754   4.974   3.490
  921TIP3   OH2 2768   3.851   5.940   3.231
  921TIP3    H1 2769   3.940   5.964   3.255
  921TIP3    H2 2770   3.819   6.015   3.181
  922TIP3   OH2 2771   4.980   0.348   4.133
  922TIP3    H1 2772   5.022   0.418   4.084
  922TIP3    H2 2773   4.983   0.272   4.075
  923TIP3   OH2 2774   4.994   4.123   3.318
  923TIP3    H1 2775   4.926   4.060   3.298
  923TIP3    H2 2776   5.006   4.116   3.413
  924TIP3   OH2 2777   3.843   3.549   3.069
  924TIP3    H1 2778   3.824   3.545   2.975
  924TIP3    H2 2779   3.757   3.545   3.111
  925TIP3   OH2 2780   1.694   3.467   3.312
  925TIP3    H1 2781   1.680   3.373   3.303
  925TIP3    H2 2782   1.619   3.507   3.267
  926TIP3   OH2 2783   3.828   4.067   4.783
  926TIP3    H1 2784   3.781   4.101   4.859
  926TIP3    H2 2785   3.792   4.116   4.709
  927TIP3   OH2 2786   3.742   1.001   3.651
  927TIP3    H1 2787   3.721   0.971   3.740
  927TIP3    H2 2788   3.725   1.095   3.653
  928TIP3   OH2 2789   5.727   3.989   4.176
  928TIP3    H1 2790   5.643   4.024   4.145
  928TIP3    H2 2791   5.792   4.032   4.120
  929TIP3   OH2 2792   5.039   5.380   0.803
  929TIP3    H1 2793   4.957   5.365   0.849
  929TIP3    H2 2794   5.094   5.305   0.826
  930TIP3   OH2 2795   0.212   0.873   2.919
  930TIP3    H1 2796   0.224   0.862   3.013
  930TIP3    H2 2797   0.218   0.968   2.905
  931TIP3   OH2 2798   3.173   0.703   3.243
  931TIP3    H1 2799   3.111   0.766   3.279
  931TIP3    H2 2800   3.213   0.749   3.169
  932TIP3   OH2 2801   0.165   2.173   0.419
  932TIP3    H1 2802   0.172   2.113   0.344
  932TIP3    H2 2803   0.150   2.259   0.380
  933TIP3   OH2 2804   1.409   3.073   4.572
  933TIP3    H1 2805   1.395   3.163   4.602
  933TIP3    H2 2806   1.331   3.053   4.520
  934TIP3   OH2 2807   2.185   2.252   3.824
  934TIP3    H1 2808   2.200   2.186   3.757
  934TIP3    H2 2809   2.166   2.332   3.775
  935TIP3   OH2 2810   2.433   0.424   4.031
  935TIP3    H1 2811   2.484   0.502   4.052
  935TIP3    H2 2812   2.499   0.355   4.023
  936TIP3   OH2 2813   0.041   1.827   4.161
  936TIP3    H1 2814  -0.001   1.865   4.083
  936TIP3    H2 2815   0.126   1.871   4.166
  937TIP3   OH2 2816   1.676   0.901   0.451
  937TIP3    H1 2817   1.636   0.968   0.506
  937TIP3    H2 2818   1.678   0.822   0.505
  938TIP3   OH2 2819   0.526   0.874   4.620
  938TIP3    H1 2820   0.597   0.938   4.609
  938TIP3    H2 2821   0.562   0.793   4.585
  939TIP3   OH2 2822   1.447   2.039   2.260
  939TIP3    H1 2823   1.357   2.005   2.259
  939TIP3    H2 2824   1.472   2.038   2.352
  940TIP3   OH2 2825   0.891   2.097   2.637
  940TIP3    H1 2826   0.926   2.093   2.726
  940TIP3    H2 2827   0.919   2.015   2.597
  941TIP3   OH2 2828   4.612   5.819   1.071
  941TIP3    H1 2829   4.551   5.824   1.144
  941TIP3    H2 2830   4.577   5.881   1.006
  942TIP3   OH2 2831   5.267   1.430   4.115
  942TIP3    H1 2832   5.236   1.346   4.081
  942TIP3    H2 2833   5.334   1.458   4.053
  943TIP3   OH2 2834   5.010   2.294   2.831
  943TIP3    H1 2835   5.035   2.322   2.919
  943TIP3    H2 2836   4.950   2.363   2.800
  944TIP3   OH2 2837   2.359   2.426   0.105
  944TIP3    H1 2838   2.376   2.505   0.156
  944TIP3    H2 2839   2.325   2.363   0.169
  945TIP3   OH2 2840   0.407   3.377   4.526
  945TIP3    H1 2841   0.362   3.295   4.507
  945TIP3    H2 2842   0.345   3.427   4.578
  946TIP3   OH2 2843   1.958   5.610   0.024
  946TIP3    H1 2844   2.016   5.685   0.035
  946TIP3    H2 2845   2.005   5.551  -0.035
  947TIP3   OH2 2846   4.638   1.322   3.645
  947TIP3    H1 2847   4.690   1.381   3.700
  947TIP3    H2 2848   4.686   1.316   3.563
  948TIP3   OH2 2849   5.485   1.496   3.382
  948TIP3    H1 2850   5.420   1.439   3.341
  948TIP3    H2 2851   5.546   1.435   3.424
  949TIP3   OH2 2852   2.684   2.151   4.975
  949TIP3    H1 2853   2.636   2.108   5.045
  949TIP3    H2 2854   2.746   2.209   5.020
  950TIP3   OH2 2855   0.377   4.852   0.861
  950TIP3    H1 2856   0.336   4.833   0.777
  950TIP3    H2 2857   0.394   4.767   0.900
  951TIP3   OH2 2858   5.645   4.170   0.786
  951TIP3    H1 2859   5.725   4.219   0.764
  951TIP3    H2 2860   5.580   4.204   0.724
  952TIP3   OH2 2861   5.185   4.002   4.945
  952TIP3    H1 2862   5.175   4.029   5.036
  952TIP3    H2 2863   5.192   3.907   4.948
  953TIP3   OH2 2864   5.062   3.818   1.716
  953TIP3    H1 2865   4.967   3.810   1.725
  953TIP3    H2 2866   5.074   3.872   1.638
  954TIP3   OH2 2867   1.843   3.065   2.056
  954TIP3    H1 2868   1.767   3.058   1.999
  954TIP3    H2 2869   1.891   3.141   2.023
  955TIP3   OH2 2870   6.294   1.364   1.757
  955TIP3    H1 2871   6.252   1.352   1.672
  955TIP3    H2 2872   6.388   1.357   1.740
  956TIP3   OH2 2873   5.901   1.050   0.978
  956TIP3    H1 2874   5.967   1.014   0.919
  956TIP3    H2 2875   5.854   0.973   1.010
  957TIP3   OH2 2876   0.857   5.181   4.805
  957TIP3    H1 2877   0.780   5.133   4.836
  957TIP3    H2 2878   0.921   5.170   4.875
  958TIP3   OH2 2879   4.447   5.552   5.026
  958TIP3    H1 2880   4.532   5.596   5.025
  958TIP3    H2 2881   4.446   5.504   5.109
  959TIP3   OH2 2882   3.345   0.453   3.202
  959TIP3    H1 2883   3.360   0.465   3.108
  959TIP3    H2 2884   3.300   0.533   3.229
  960TIP3   OH2 2885   0.707   0.121   3.070
  960TIP3    H1 2886   0.673   0.183   3.005
  960TIP3    H2 2887   0.632   0.103   3.128
  961TIP3   OH2 2888   0.480   0.395   0.335
  961TIP3    H1 2889   0.485   0.317   0.390
  961TIP3    H2 2890   0.565   0.438   0.346
  962TIP3   OH2 2891   2.196   1.327   1.245
  962TIP3    H1 2892   2.237   1.288   1.322
  962TIP3    H2 2893   2.189   1.255   1.182
  963TIP3   OH2 2894   4.351   0.857   4.507
  963TIP3    H1 2895   4.306   0.922   4.561
  963TIP3    H2 2896   4.444   0.869   4.527
  964TIP3   OH2 2897   6.358   5.362   1.674
  964TIP3    H1 2898   6.444   5.394   1.702
  964TIP3    H2 2899   6.313   5.440   1.641
  965TIP3   OH2 2900   2.456   1.448   3.716
  965TIP3    H1 2901   2.367   1.479   3.697
  965TIP3    H2 2902   2.513   1.509   3.670
  966TIP3   OH2 2903   5.820   4.978   2.386
  966TIP3    H1 2904   5.804   4.884   2.378
  966TIP3    H2 2905   5.806   4.997   2.478
  967TIP3   OH2 2906   4.347   5.862   1.880
  967TIP3    H1 2907   4.386   5.920   1.814
  967TIP3    H2 2908   4.417   5.801   1.903
  968TIP3   OH2 2909   3.214   1.878   2.546
  968TIP3    H1 2910   3.306   1.859   2.528
  968TIP3    H2 2911   3.216   1.931   2.626
  969TIP3   OH2 2912   0.927   5.009   1.153
  969TIP3    H1 2913   0.988   5.027   1.224
  969TIP3    H2 2914   0.958   4.927   1.116
  970TIP3   OH2 2915   0.531   4.898   4.755
  970TIP3    H1 2916   0.537   4.989   4.725
  970TIP3    H2 2917   0.455   4.863   4.710
  971TIP3   OH2 2918   6.057   5.583   3.333
  971TIP3    H1 2919   6.139   5.632   3.326
  971TIP3    H2 2920   6.041   5.577   3.427
  972TIP3   OH2 2921   1.174   4.578   1.932
  972TIP3    H1 2922   1.080   4.589   1.947
  972TIP3    H2 2923   1.185   4.483   1.922
  973TIP3   OH2 2924   0.701   3.377   2.704
  973TIP3    H1 2925   0.623   3.402   2.753
  973TIP3    H2 2926   0.695   3.282   2.696
  974TIP3   OH2 2927   0.347   0.368   0.659
  974TIP3    H1 2928   0.424   0.340   0.610
  974TIP3    H2 2929   0.329   0.457   0.628
  975TIP3   OH2 2930   6.360   5.103   3.412
  975TIP3    H1 2931   6.377   5.026   3.466
  975TIP3    H2 2932   6.265   5.108   3.406
  976TIP3   OH2 2933   2.038   2.302   3.053
  976TIP3    H1 2934   1.969   2.271   3.111
  976TIP3    H2 2935   2.018   2.262   2.968
  977TIP3   OH2 2936   0.270   4.877   2.270
  977TIP3    H1 2937   0.214   4.800   2.279
  977TIP3    H2 2938   0.227   4.943   2.324
  978TIP3   OH2 2939   1.790   3.859   4.642
  978TIP3    H1 2940   1.725   3.873   4.712
  978TIP3    H2 2941   1.869   3.904   4.674
  979TIP3   OH2 2942   1.817   3.302   4.720
  979TIP3    H1 2943   1.772   3.371   4.768
  979TIP3    H2 2944   1.878   3.264   4.784
  980TIP3   OH2 2945   1.145   1.446   1.047
  980TIP3    H1 2946   1.194   1.398   0.980
  980TIP3    H2 2947   1.097   1.512   0.998
  981TIP3   OH2 2948   2.124   1.655   1.859
  981TIP3    H1 2949   2.068   1.634   1.934
  981TIP3    H2 2950   2.210   1.620   1.883
  982TIP3   OH2 2951   2.246   4.382   0.610
  982TIP3    H1 2952   2.171   4.439   0.591
  982TIP3    H2 2953   2.293   4.377   0.527
  983TIP3   OH2 2954   5.398   3.510   0.984
  983TIP3    H1 2955   5.423   3.589   1.032
  983TIP3    H2 2956   5.477   3.483   0.938
  984TIP3   OH2 2957   6.052   1.923   4.888
  984TIP3    H1 2958   6.147   1.924   4.897
  984TIP3    H2 2959   6.029   1.830   4.885
  985TIP3   OH2 2960   2.134   4.955   3.984
  985TIP3    H1 2961   2.064   5.019   3.998
  985TIP3    H2 2962   2.100   4.896   3.918
  986TIP3   OH2 2963   0.767   3.743   1.196
  986TIP3    H1 2964   0.796   3.802   1.127
  986TIP3    H2 2965   0.765   3.798   1.275
  987TIP3   OH2 2966   3.646   0.098   0.589
  987TIP3    H1 2967   3.695   0.130   0.665
  987TIP3    H2 2968   3.554   0.104   0.615
  988TIP3   OH2 2969   2.367   2.780   0.765
  988TIP3    H1 2970   2.383   2.762   0.672
  988TIP3    H2 2971   2.276   2.807   0.768
  989TIP3   OH2 2972   0.104   5.583   0.694
  989TIP3    H1 2973   0.131   5.614   0.608
  989TIP3    H2 2974   0.103   5.488   0.687
  990TIP3   OH2 2975   4.187   2.410   2.199
  990TIP3    H1 2976   4.256   2.343   2.200
  990TIP3    H2 2977   4.231   2.490   2.230
  991TIP3   OH2 2978   3.930   4.109   2.211
  991TIP3    H1 2979   3.927   4.200   2.182
  991TIP3    H2 2980   3.892   4.060   2.139
  992TIP3   OH2 2981   4.046   0.100   2.096
  992TIP3    H1 2982   4.083   0.155   2.165
  992TIP3    H2 2983   3.952   0.101   2.112
  993TIP3   OH2 2984   5.596   5.129   1.615
  993TIP3    H1 2985   5.593   5.196   1.684
  993TIP3    H2 2986   5.674   5.077   1.635
  994TIP3   OH2 2987   6.290   0.604   4.049
  994TIP3    H1 2988   6.259   0.684   4.007
  994TIP3    H2 2989   6.281   0.621   4.143
  995TIP3   OH2 2990   1.457   0.544   3.502
  995TIP3    H1 2991   1.436   0.550   3.409
  995TIP3    H2 2992   1.422   0.625   3.540
  996TIP3   OH2 2993   0.054   0.962   4.650
  996TIP3    H1 2994  -0.027   1.010   4.668
  996TIP3    H2 2995   0.051   0.886   4.708
  997TIP3   OH2 2996   5.572   5.467   2.661
  997TIP3    H1 2997   5.644   5.437   2.717
  997TIP3    H2 2998   5.584   5.562   2.657
  998TIP3   OH2 2999   0.197   4.433   4.356
  998TIP3    H1 3000   0.204   4.361   4.292
  998TIP3    H2 3001   0.257   4.408   4.426
  999TIP3   OH2 3002   2.445   3.525   4.388
  999TIP3    H1 3003   2.409   3.603   4.429
  999TIP3    H2 3004   2.429   3.537   4.295
 1000TIP3   OH2 3005   4.930   2.173   3.737
 1000TIP3    H1 3006   4.857   2.227   3.706
 1000TIP3    H2 3007   4.926   2.094   3.684
 1001TIP3   OH2 3008   3.784   5.865   0.756
 1001TIP3    H1 3009   3.798   5.860   0.850
 1001TIP3    H2 3010   3.711   5.926   0.746
 1002TIP3   OH2 3011   4.464   5.241   4.183
 1002TIP3    H1 3012   4.499   5.278   4.102
 1002TIP3    H2 3013   4.437   5.152   4.159
 1003TIP3   OH2 3014   0.642   4.336   3.097
 1003TIP3    H1 3015   0.674   4.417   3.138
 1003TIP3    H2 3016   0.720   4.295   3.061
 1004TIP3   OH2 3017   3.940   0.048   1.821
 1004TIP3    H1 3018   3.882   0.124   1.830
 1004TIP3    H2 3019   3.934   0.003   1.905
 1005TIP3   OH2 3020   2.365   4.460   2.003
 1005TIP3    H1 3021   2.406   4.497   2.081
 1005TIP3    H2 3022   2.271   4.458   2.025
 1006TIP3   OH2 3023   1.066   0.129   2.556
 1006TIP3    H1 3024   1.105   0.143   2.470
 1006TIP3    H2 3025   1.051   0.217   2.590
 1007TIP3   OH2 3026   2.467   2.500   2.951
 1007TIP3    H1 3027   2.391   2.452   2.986
 1007TIP3    H2 3028   2.540   2.439   2.960
 1008TIP3   OH2 3029   2.971   4.768   1.358
 1008TIP3    H1 3030   3.005   4.679   1.367
 1008TIP3    H2 3031   2.963   4.799   1.448
 1009TIP3   OH2 3032   2.295   0.264   3.028
 1009TIP3    H1 3033   2.308   0.351   3.068
 1009TIP3    H2 3034   2.383   0.238   3.000
 1010TIP3   OH2 3035   4.126   2.729   0.145
 1010TIP3    H1 3036   4.221   2.734   0.160
 1010TIP3    H2 3037   4.092   2.810   0.183
 1011TIP3   OH2 3038   0.624   3.157   3.123
 1011TIP3    H1 3039   0.621   3.121   3.211
 1011TIP3    H2 3040   0.576   3.240   3.129
 1012TIP3   OH2 3041   5.803   5.551   3.197
 1012TIP3    H1 3042   5.881   5.588   3.239
 1012TIP3    H2 3043   5.837   5.508   3.118
 1013TIP3   OH2 3044   2.284   2.178   4.193
 1013TIP3    H1 3045   2.261   2.221   4.276
 1013TIP3    H2 3046   2.367   2.135   4.211
 1014TIP3   OH2 3047   4.224   2.497   3.493
 1014TIP3    H1 3048   4.182   2.500   3.407
 1014TIP3    H2 3049   4.168   2.552   3.549
 1015TIP3   OH2 3050   6.108   0.857   3.544
 1015TIP3    H1 3051   6.097   0.764   3.564
 1015TIP3    H2 3052   6.068   0.902   3.618
 1016TIP3   OH2 3053   1.488   3.143   3.563
 1016TIP3    H1 3054   1.406   3.110   3.527
 1016TIP3    H2 3055   1.467   3.170   3.653
 1017TIP3   OH2 3056   5.066   0.492   2.264
 1017TIP3    H1 3057   4.994   0.532   2.313
 1017TIP3    H2 3058   5.139   0.554   2.273
 1018TIP3   OH2 3059   4.129   5.706   3.498
 1018TIP3    H1 3060   4.156   5.728   3.409
 1018TIP3    H2 3061   4.142   5.611   3.505
 1019TIP3   OH2 3062   3.241   5.127   0.992
 1019TIP3    H1 3063   3.232   5.038   0.959
 1019TIP3    H2 3064   3.335   5.136   1.011
 1020TIP3   OH2 3065   2.062   4.064   4.302
 1020TIP3    H1 3066   2.127   4.021   4.357
 1020TIP3    H2 3067   2.108   4.085   4.221
 1021TIP3   OH2 3068   5.564   2.549   2.039
 1021TIP3    H1 3069   5.515   2.613   1.988
 1021TIP3    H2 3070   5.497   2.499   2.086
 1022TIP3   OH2 3071   5.679   4.278   3.444
 1022TIP3    H1 3072   5.625   4.348   3.408
 1022TIP3    H2 3073   5.701   4.222   3.370
 1023TIP3   OH2 3074   1.696   0.957   1.489
 1023TIP3    H1 3075   1.649   0.927   1.412
 1023TIP3    H2 3076   1.665   0.901   1.560
 1024TIP3   OH2 3077   0.488   1.033   0.364
 1024TIP3    H1 3078   0.565   0.975   0.370
 1024TIP3    H2 3079   0.432   0.991   0.299
 1025TIP3   OH2 3080   5.412   4.257   3.936
 1025TIP3    H1 3081   5.395   4.343   3.975
 1025TIP3    H2 3082   5.507   4.246   3.943
 1026TIP3   OH2 3083   5.513   5.445   1.464
 1026TIP3    H1 3084   5.430   5.405   1.492
 1026TIP3    H2 3085   5.559   5.375   1.419
 1027TIP3   OH2 3086   0.006   0.165   3.056
 1027TIP3    H1 3087   0.069   0.097   3.033
 1027TIP3    H2 3088  -0.037   0.188   2.973
 1028TIP3   OH2 3089   1.822   3.031   4.313
 1028TIP3    H1 3090   1.896   3.090   4.298
 1028TIP3    H2 3091   1.771   3.073   4.382
 1029TIP3   OH2 3092   3.168   5.265   3.226
 1029TIP3    H1 3093   3.143   5.353   3.255
 1029TIP3    H2 3094   3.111   5.207   3.276
 1030TIP3   OH2 3095   4.206   1.446   4.784
 1030TIP3    H1 3096   4.260   1.524   4.788
 1030TIP3    H2 3097   4.158   1.445   4.867
 1031TIP3   OH2 3098   5.896   1.261   0.086
 1031TIP3    H1 3099   5.870   1.331   0.026
 1031TIP3    H2 3100   5.841   1.187   0.062
 1032TIP3   OH2 3101   2.668   5.664   0.539
 1032TIP3    H1 3102   2.594   5.603   0.534
 1032TIP3    H2 3103   2.715   5.651   0.457
 1033TIP3   OH2 3104   0.453   0.719   3.981
 1033TIP3    H1 3105   0.477   0.653   4.047
 1033TIP3    H2 3106   0.465   0.674   3.897
 1034TIP3   OH2 3107   0.625   5.629   3.966
 1034TIP3    H1 3108   0.534   5.605   3.948
 1034TIP3    H2 3109   0.676   5.559   3.927
 1035TIP3   OH2 3110   0.403   1.458   4.964
 1035TIP3    H1 3111   0.329   1.436   4.908
 1035TIP3    H2 3112   0.474   1.402   4.933
 1036TIP3   OH2 3113   3.215   0.527   2.318
 1036TIP3    H1 3114   3.309   0.511   2.318
 1036TIP3    H2 3115   3.200   0.584   2.243
 1037TIP3   OH2 3116   2.676   0.018   3.239
 1037TIP3    H1 3117   2.597   0.058   3.276
 1037TIP3    H2 3118   2.746   0.041   3.300
 1038TIP3   OH2 3119   0.527   5.495   1.471
 1038TIP3    H1 3120   0.584   5.433   1.515
 1038TIP3    H2 3121   0.467   5.440   1.420
 1039TIP3   OH2 3122   0.010   4.796   0.065
 1039TIP3    H1 3123  -0.075   4.767   0.098
 1039TIP3    H2 3124   0.066   4.798   0.142
 1040TIP3   OH2 3125   3.675   6.002   1.600
 1040TIP3    H1 3126   3.750   6.050   1.564
 1040TIP3    H2 3127   3.653   5.938   1.532
 1041TIP3   OH2 3128   1.852   0.195   4.038
 1041TIP3    H1 3129   1.818   0.269   4.088
 1041TIP3    H2 3130   1.947   0.205   4.041
 1042TIP3   OH2 3131   5.862   2.698   2.224
 1042TIP3    H1 3132   5.837   2.778   2.270
 1042TIP3    H2 3133   5.922   2.727   2.156
 1043TIP3   OH2 3134   1.010   5.098   2.213
 1043TIP3    H1 3135   0.949   5.088   2.140
 1043TIP3    H2 3136   1.097   5.097   2.172
 1044TIP3   OH2 3137   0.339   5.644   2.680
 1044TIP3    H1 3138   0.378   5.579   2.622
 1044TIP3    H2 3139   0.249   5.613   2.693
 1045TIP3   OH2 3140   2.017   3.499   0.150
 1045TIP3    H1 3141   2.095   3.449   0.125
 1045TIP3    H2 3142   2.016   3.573   0.090
 1046TIP3   OH2 3143   6.057   3.784   4.125
 1046TIP3    H1 3144   6.034   3.806   4.215
 1046TIP3    H2 3145   6.108   3.859   4.094
 1047TIP3   OH2 3146   3.112   5.605   3.551
 1047TIP3    H1 3147   3.195   5.626   3.595
 1047TIP3    H2 3148   3.051   5.671   3.584
 1048TIP3   OH2 3149   1.006   0.402   2.984
 1048TIP3    H1 3150   1.085   0.358   2.953
 1048TIP3    H2 3151   0.976   0.349   3.058
 1049TIP3   OH2 3152   0.198   5.758   3.318
 1049TIP3    H1 3153   0.108   5.771   3.347
 1049TIP3    H2 3154   0.251   5.780   3.394
 1050TIP3   OH2 3155   0.792   4.160   1.136
 1050TIP3    H1 3156   0.800   4.114   1.053
 1050TIP3    H2 3157   0.804   4.252   1.113
 1051TIP3   OH2 3158   4.312   2.088   3.492
 1051TIP3    H1 3159   4.222   2.085   3.526
 1051TIP3    H2 3160   4.357   2.017   3.539
 1052TIP3   OH2 3161   6.333   2.436   2.407
 1052TIP3    H1 3162   6.314   2.466   2.496
 1052TIP3    H2 3163   6.258   2.383   2.382
 1053TIP3   OH2 3164   4.686   3.327   3.901
 1053TIP3    H1 3165   4.641   3.395   3.850
 1053TIP3    H2 3166   4.777   3.358   3.907
 1054TIP3   OH2 3167   2.250   0.667   3.593
 1054TIP3    H1 3168   2.161   0.697   3.579
 1054TIP3    H2 3169   2.242   0.573   3.604
 1055TIP3   OH2 3170   6.310   0.922   0.961
 1055TIP3    H1 3171   6.356   0.843   0.987
 1055TIP3    H2 3172   6.300   0.972   1.042
 1056TIP3   OH2 3173   4.859   4.360   2.699
 1056TIP3    H1 3174   4.782   4.410   2.726
 1056TIP3    H2 3175   4.927   4.425   2.685
 1057TIP3   OH2 3176   3.712   5.834   4.038
 1057TIP3    H1 3177   3.689   5.862   3.949
 1057TIP3    H2 3178   3.807   5.818   4.034
 1058TIP3   OH2 3179   4.211   0.004   1.537
 1058TIP3    H1 3180   4.187   0.089   1.500
 1058TIP3    H2 3181   4.232   0.022   1.628
 1059TIP3   OH2 3182   3.660   1.587   2.156
 1059TIP3    H1 3183   3.617   1.642   2.223
 1059TIP3    H2 3184   3.590   1.530   2.125
 1060TIP3   OH2 3185   5.842   2.205   1.539
 1060TIP3    H1 3186   5.813   2.251   1.618
 1060TIP3    H2 3187   5.926   2.166   1.563
 1061TIP3   OH2 3188   2.942   0.448   0.631
 1061TIP3    H1 3189   2.946   0.406   0.545
 1061TIP3    H2 3190   2.864   0.502   0.628
 1062TIP3   OH2 3191   5.024   4.022   4.723
 1062TIP3    H1 3192   5.084   4.033   4.797
 1062TIP3    H2 3193   4.965   3.952   4.749
 1063TIP3   OH2 3194   5.915   4.057   2.617
 1063TIP3    H1 3195   5.877   4.020   2.696
 1063TIP3    H2 3196   5.888   4.149   2.618
 1064TIP3   OH2 3197   0.787   5.449   3.853
 1064TIP3    H1 3198   0.873   5.443   3.893
 1064TIP3    H2 3199   0.777   5.366   3.805
 1065TIP3   OH2 3200   1.998   4.012   0.616
 1065TIP3    H1 3201   2.065   4.059   0.665
 1065TIP3    H2 3202   1.952   4.080   0.566
 1066TIP3   OH2 3203   5.356   4.268   0.188
 1066TIP3    H1 3204   5.383   4.313   0.108
 1066TIP3    H2 3205   5.394   4.320   0.259
 1067TIP3   OH2 3206   3.261   5.621   0.685
 1067TIP3    H1 3207   3.341   5.625   0.736
 1067TIP3    H2 3208   3.236   5.529   0.686
 1068TIP3   OH2 3209   5.247   4.604   0.211
 1068TIP3    H1 3210   5.178   4.557   0.163
 1068TIP3    H2 3211   5.209   4.622   0.297
 1069TIP3   OH2 3212   2.427   5.381   3.329
 1069TIP3    H1 3213   2.489   5.441   3.287
 1069TIP3    H2 3214   2.341   5.415   3.307
 1070TIP3   OH2 3215   4.308   3.055   3.897
 1070TIP3    H1 3216   4.236   2.994   3.878
 1070TIP3    H2 3217   4.273   3.113   3.964
 1071TIP3   OH2 3218   1.472   5.108   3.010
 1071TIP3    H1 3219   1.515   5.052   2.945
 1071TIP3    H2 3220   1.539   5.125   3.076
 1072TIP3   OH2 3221   4.917   1.396   1.578
 1072TIP3    H1 3222   4.900   1.368   1.668
 1072TIP3    H2 3223   4.953   1.484   1.586
 1073TIP3   OH2 3224   1.322   0.514   2.856
 1073TIP3    H1 3225   1.298   0.587   2.913
 1073TIP3    H2 3226   1.417   0.520   2.847
 1074TIP3   OH2 3227   3.140   0.338   4.803
 1074TIP3    H1 3228   3.212   0.401   4.816
 1074TIP3    H2 3229   3.183   0.261   4.767
 1075TIP3   OH2 3230   6.182   5.267   4.712
 1075TIP3    H1 3231   6.130   5.331   4.760
 1075TIP3    H2 3232   6.227   5.318   4.645
 1076TIP3   OH2 3233   4.948   5.443   3.379
 1076TIP3    H1 3234   5.028   5.427   3.329
 1076TIP3    H2 3235   4.978   5.460   3.468
 1077TIP3   OH2 3236   4.810   0.726   1.427
 1077TIP3    H1 3237   4.783   0.722   1.518
 1077TIP3    H2 3238   4.893   0.680   1.423
 1078TIP3   OH2 3239   1.013   4.776   3.366
 1078TIP3    H1 3240   1.018   4.830   3.287
 1078TIP3    H2 3241   1.026   4.837   3.438
 1079TIP3   OH2 3242   4.723   4.448   0.356
 1079TIP3    H1 3243   4.746   4.372   0.301
 1079TIP3    H2 3244   4.751   4.524   0.304
 1080TIP3   OH2 3245   1.409   3.274   0.970
 1080TIP3    H1 3246   1.427   3.345   1.032
 1080TIP3    H2 3247   1.450   3.303   0.888
 1081TIP3   OH2 3248   5.440   4.027   2.837
 1081TIP3    H1 3249   5.489   4.049   2.915
 1081TIP3    H2 3250   5.506   4.000   2.773
 1082TIP3   OH2 3251   4.453   1.483   1.293
 1082TIP3    H1 3252   4.528   1.510   1.239
 1082TIP3    H2 3253   4.453   1.387   1.287
 1083TIP3   OH2 3254   4.296   0.090   4.843
 1083TIP3    H1 3255   4.359   0.070   4.773
 1083TIP3    H2 3256   4.229   0.143   4.800
 1084TIP3   OH2 3257   4.112   2.130   3.953
 1084TIP3    H1 3258   4.091   2.206   3.899
 1084TIP3    H2 3259   4.168   2.165   4.023
 1085TIP3   OH2 3260   3.754   3.611   3.410
 1085TIP3    H1 3261   3.788   3.693   3.444
 1085TIP3    H2 3262   3.659   3.624   3.406
 1086TIP3   OH2 3263   2.419   4.116   2.592
 1086TIP3    H1 3264   2.326   4.108   2.573
 1086TIP3    H2 3265   2.435   4.210   2.593
 1087TIP3   OH2 3266   3.610   5.203   0.141
 1087TIP3    H1 3267   3.685   5.221   0.085
 1087TIP3    H2 3268   3.640   5.222   0.229
 1088TIP3   OH2 3269   5.870   5.684   1.323
 1088TIP3    H1 3270   5.840   5.769   1.356
 1088TIP3    H2 3271   5.965   5.694   1.317
 1089TIP3   OH2 3272   4.900   1.094   1.994
 1089TIP3    H1 3273   4.922   1.126   1.906
 1089TIP3    H2 3274   4.864   1.171   2.039
 1090TIP3   OH2 3275   0.280   3.972   4.409
 1090TIP3    H1 3276   0.274   3.997   4.502
 1090TIP3    H2 3277   0.365   4.003   4.381
 1091TIP3   OH2 3278   5.990   0.640   1.522
 1091TIP3    H1 3279   6.052   0.588   1.573
 1091TIP3    H2 3280   6.036   0.722   1.505
 1092TIP3   OH2 3281   5.395   2.030   4.595
 1092TIP3    H1 3282   5.457   2.079   4.542
 1092TIP3    H2 3283   5.380   1.949   4.547
 1093TIP3   OH2 3284   3.836   1.353   3.400
 1093TIP3    H1 3285   3.887   1.273   3.388
 1093TIP3    H2 3286   3.762   1.326   3.455
 1094TIP3   OH2 3287   2.911   0.216   4.020
 1094TIP3    H1 3288   2.968   0.276   3.972
 1094TIP3    H2 3289   2.970   0.172   4.082
 1095TIP3   OH2 3290   0.235   4.518   3.113
 1095TIP3    H1 3291   0.312   4.553   3.069
 1095TIP3    H2 3292   0.171   4.589   3.111
 1096TIP3   OH2 3293   4.707   2.328   3.626
 1096TIP3    H1 3294   4.618   2.339   3.591
 1096TIP3    H2 3295   4.727   2.412   3.667
 1097TIP3   OH2 3296   4.084   0.274   2.747
 1097TIP3    H1 3297   4.122   0.352   2.705
 1097TIP3    H2 3298   4.110   0.201   2.691
 1098TIP3   OH2 3299   5.992   4.728   4.524
 1098TIP3    H1 3300   5.950   4.642   4.522
 1098TIP3    H2 3301   5.920   4.790   4.519
 1099TIP3   OH2 3302   4.217   4.849   4.339
 1099TIP3    H1 3303   4.305   4.878   4.361
 1099TIP3    H2 3304   4.211   4.761   4.375
 1100TIP3   OH2 3305   2.178   3.565   0.772
 1100TIP3    H1 3306   2.263   3.579   0.730
 1100TIP3    H2 3307   2.119   3.625   0.725
 1101TIP3   OH2 3308   3.423   4.856   1.463
 1101TIP3    H1 3309   3.501   4.890   1.509
 1101TIP3    H2 3310   3.359   4.843   1.532
 1102TIP3   OH2 3311   2.888   4.913   0.898
 1102TIP3    H1 3312   2.981   4.908   0.878
 1102TIP3    H2 3313   2.885   4.927   0.993
 1103TIP3   OH2 3314   1.216   3.707   2.470
 1103TIP3    H1 3315   1.133   3.719   2.515
 1103TIP3    H2 3316   1.279   3.691   2.540
 1104TIP3   OH2 3317   0.130   1.322   3.934
 1104TIP3    H1 3318   0.069   1.373   3.986
 1104TIP3    H2 3319   0.205   1.379   3.921
 1105TIP3   OH2 3320   0.594   2.078   3.102
 1105TIP3    H1 3321   0.607   2.065   3.008
 1105TIP3    H2 3322   0.666   2.029   3.143
 1106TIP3   OH2 3323   2.186   3.971   3.466
 1106TIP3    H1 3324   2.138   3.889   3.483
 1106TIP3    H2 3325   2.144   4.035   3.523
 1107TIP3   OH2 3326   5.937   1.429   4.580
 1107TIP3    H1 3327   5.987   1.375   4.519
 1107TIP3    H2 3328   5.988   1.426   4.661
 1108TIP3   OH2 3329   0.519   2.959   1.799
 1108TIP3    H1 3330   0.547   2.901   1.870
 1108TIP3    H2 3331   0.523   2.905   1.720
 1109TIP3   OH2 3332   2.391   2.146   3.126
 1109TIP3    H1 3333   2.459   2.170   3.063
 1109TIP3    H2 3334   2.341   2.226   3.140
 1110TIP3   OH2 3335   2.825   2.744   2.243
 1110TIP3    H1 3336   2.769   2.801   2.191
 1110TIP3    H2 3337   2.873   2.692   2.179
 1111TIP3   OH2 3338   0.272   2.936   5.121
 1111TIP3    H1 3339   0.209   2.969   5.057
 1111TIP3    H2 3340   0.269   3.000   5.192
 1112TIP3   OH2 3341   4.669   2.546   3.842
 1112TIP3    H1 3342   4.744   2.605   3.844
 1112TIP3    H2 3343   4.701   2.465   3.881
 1113TIP3   OH2 3344   5.555   3.762   4.888
 1113TIP3    H1 3345   5.598   3.843   4.915
 1113TIP3    H2 3346   5.623   3.695   4.894
 1114TIP3   OH2 3347   2.607   3.989   0.848
 1114TIP3    H1 3348   2.671   4.016   0.783
 1114TIP3    H2 3349   2.612   3.893   0.848
 1115TIP3   OH2 3350   4.430   5.277   1.408
 1115TIP3    H1 3351   4.348   5.275   1.360
 1115TIP3    H2 3352   4.483   5.343   1.363
 1116TIP3   OH2 3353   6.319   1.478   1.288
 1116TIP3    H1 3354   6.327   1.447   1.198
 1116TIP3    H2 3355   6.244   1.536   1.287
 1117TIP3   OH2 3356   5.424   1.293   4.298
 1117TIP3    H1 3357   5.368   1.221   4.269
 1117TIP3    H2 3358   5.375   1.372   4.274
 1118TIP3   OH2 3359   3.117   5.898   1.233
 1118TIP3    H1 3360   3.147   5.831   1.295
 1118TIP3    H2 3361   3.121   5.980   1.282
 1119TIP3   OH2 3362   4.154   2.355   3.731
 1119TIP3    H1 3363   4.240   2.377   3.765
 1119TIP3    H2 3364   4.165   2.353   3.636
 1120TIP3   OH2 3365   2.742   2.714   4.396
 1120TIP3    H1 3366   2.674   2.707   4.328
 1120TIP3    H2 3367   2.706   2.777   4.459
 1121TIP3   OH2 3368   1.058   1.087   0.543
 1121TIP3    H1 3369   1.021   0.999   0.541
 1121TIP3    H2 3370   0.998   1.137   0.599
 1122TIP3   OH2 3371   2.569   1.579   2.217
 1122TIP3    H1 3372   2.601   1.669   2.213
 1122TIP3    H2 3373   2.633   1.534   2.272
 1123TIP3   OH2 3374   5.475   4.338   3.263
 1123TIP3    H1 3375   5.466   4.407   3.328
 1123TIP3    H2 3376   5.418   4.267   3.295
 1124TIP3   OH2 3377   5.249   4.479   1.113
 1124TIP3    H1 3378   5.320   4.430   1.154
 1124TIP3    H2 3379   5.282   4.569   1.109
 1125TIP3   OH2 3380   4.586   1.355   3.288
 1125TIP3    H1 3381   4.674   1.342   3.253
 1125TIP3    H2 3382   4.581   1.449   3.306
 1126TIP3   OH2 3383   5.099   3.852   3.448
 1126TIP3    H1 3384   5.159   3.873   3.520
 1126TIP3    H2 3385   5.028   3.915   3.457
 1127TIP3   OH2 3386   2.449   3.363   2.418
 1127TIP3    H1 3387   2.477   3.294   2.358
 1127TIP3    H2 3388   2.369   3.329   2.458
 1128TIP3   OH2 3389   2.782   3.118   0.250
 1128TIP3    H1 3390   2.788   3.056   0.322
 1128TIP3    H2 3391   2.734   3.193   0.287
 1129TIP3   OH2 3392   3.920   0.789   0.368
 1129TIP3    H1 3393   4.000   0.820   0.411
 1129TIP3    H2 3394   3.916   0.695   0.389
 1130TIP3   OH2 3395   0.729   5.069   3.483
 1130TIP3    H1 3396   0.821   5.048   3.501
 1130TIP3    H2 3397   0.697   4.995   3.433
 1131TIP3   OH2 3398   1.191   2.413   1.153
 1131TIP3    H1 3399   1.257   2.360   1.198
 1131TIP3    H2 3400   1.223   2.420   1.063
 1132TIP3   OH2 3401   6.064   2.610   3.750
 1132TIP3    H1 3402   6.073   2.608   3.845
 1132TIP3    H2 3403   6.146   2.572   3.717
 1133TIP3   OH2 3404   6.259   4.792   2.010
 1133TIP3    H1 3405   6.193   4.818   2.074
 1133TIP3    H2 3406   6.269   4.698   2.023
 1134TIP3   OH2 3407   2.630   0.655   3.834
 1134TIP3    H1 3408   2.641   0.634   3.927
 1134TIP3    H2 3409   2.542   0.693   3.828
 1135TIP3   OH2 3410   0.306   0.246   1.005
 1135TIP3    H1 3411   0.213   0.231   1.020
 1135TIP3    H2 3412   0.344   0.246   1.093
 1136TIP3   OH2 3413   4.991   0.219   1.591
 1136TIP3    H1 3414   4.911   0.167   1.597
 1136TIP3    H2 3415   5.029   0.214   1.679
 1137TIP3   OH2 3416   4.752   2.449   0.821
 1137TIP3    H1 3417   4.781   2.539   0.805
 1137TIP3    H2 3418   4.829   2.395   0.805
 1138TIP3   OH2 3419   3.536   1.847   3.810
 1138TIP3    H1 3420   3.593   1.778   3.776
 1138TIP3    H2 3421   3.564   1.926   3.764
 1139TIP3   OH2 3422   2.472   5.596   1.395
 1139TIP3    H1 3423   2.421   5.520   1.369
 1139TIP3    H2 3424   2.529   5.615   1.320
 1140TIP3   OH2 3425   3.847   1.232   3.977
 1140TIP3    H1 3426   3.785   1.162   3.961
 1140TIP3    H2 3427   3.799   1.312   3.957
 1141TIP3   OH2 3428   5.335   0.770   4.717
 1141TIP3    H1 3429   5.287   0.689   4.701
 1141TIP3    H2 3430   5.276   0.823   4.771
 1142TIP3   OH2 3431   4.108   0.739   1.066
 1142TIP3    H1 3432   4.046   0.667   1.060
 1142TIP3    H2 3433   4.079   0.789   1.143
 1143TIP3   OH2 3434   0.458   4.126   0.942
 1143TIP3    H1 3435   0.504   4.056   0.989
 1143TIP3    H2 3436   0.369   4.091   0.931
 1144TIP3   OH2 3437   1.109   3.748   4.041
 1144TIP3    H1 3438   1.181   3.691   4.068
 1144TIP3    H2 3439   1.152   3.822   3.998
 1145TIP3   OH2 3440   2.585   3.600   2.815
 1145TIP3    H1 3441   2.678   3.583   2.836
 1145TIP3    H2 3442   2.544   3.611   2.901
 1146TIP3   OH2 3443   4.668   0.870   4.587
 1146TIP3    H1 3444   4.636   0.799   4.530
 1146TIP3    H2 3445   4.755   0.890   4.553
 1147TIP3   OH2 3446   6.085   1.898   4.230
 1147TIP3    H1 3447   6.105   1.920   4.321
 1147TIP3    H2 3448   5.989   1.902   4.225
 1148TIP3   OH2 3449   0.489   2.701   2.407
 1148TIP3    H1 3450   0.456   2.659   2.487
 1148TIP3    H2 3451   0.458   2.646   2.336
 1149TIP3   OH2 3452   2.391   2.247   5.129
 1149TIP3    H1 3453   2.461   2.297   5.089
 1149TIP3    H2 3454   2.424   2.158   5.134
 1150TIP3   OH2 3455   1.523   4.002   4.491
 1150TIP3    H1 3456   1.475   3.938   4.439
 1150TIP3    H2 3457   1.612   3.998   4.456
 1151TIP3   OH2 3458   2.636   1.508   3.361
 1151TIP3    H1 3459   2.551   1.483   3.326
 1151TIP3    H2 3460   2.687   1.534   3.285
 1152TIP3   OH2 3461   5.095   1.285   0.757
 1152TIP3    H1 3462   5.099   1.191   0.739
 1152TIP3    H2 3463   5.082   1.291   0.852
 1153TIP3   OH2 3464   5.362   5.314   2.770
 1153TIP3    H1 3465   5.273   5.350   2.770
 1153TIP3    H2 3466   5.417   5.386   2.740
 1154TIP3   OH2 3467   4.233   2.622   1.273
 1154TIP3    H1 3468   4.146   2.644   1.239
 1154TIP3    H2 3469   4.289   2.693   1.243
 1155TIP3   OH2 3470   4.185   3.326   4.987
 1155TIP3    H1 3471   4.103   3.283   5.011
 1155TIP3    H2 3472   4.250   3.288   5.047
 1156TIP3   OH2 3473   0.756   3.188   4.231
 1156TIP3    H1 3474   0.839   3.179   4.278
 1156TIP3    H2 3475   0.782   3.215   4.143
 1157TIP3   OH2 3476   3.194   1.107   0.701
 1157TIP3    H1 3477   3.232   1.187   0.665
 1157TIP3    H2 3478   3.119   1.089   0.645
 1158TIP3   OH2 3479   1.797   1.740   0.485
 1158TIP3    H1 3480   1.709   1.711   0.512
 1158TIP3    H2 3481   1.856   1.699   0.548
 1159TIP3   OH2 3482   2.410   4.594   1.410
 1159TIP3    H1 3483   2.425   4.500   1.405
 1159TIP3    H2 3484   2.316   4.605   1.391
 1160TIP3   OH2 3485   5.349   2.366   2.109
 1160TIP3    H1 3486   5.385   2.296   2.164
 1160TIP3    H2 3487   5.306   2.320   2.036
 1161TIP3   OH2 3488   5.442   3.365   4.516
 1161TIP3    H1 3489   5.531   3.348   4.546
 1161TIP3    H2 3490   5.389   3.360   4.596
 1162TIP3   OH2 3491   1.487   4.973   1.928
 1162TIP3    H1 3492   1.534   5.056   1.925
 1162TIP3    H2 3493   1.458   4.959   1.838
 1163TIP3   OH2 3494   3.642   1.223   2.455
 1163TIP3    H1 3495   3.546   1.219   2.451
 1163TIP3    H2 3496   3.667   1.139   2.493
 1164TIP3   OH2 3497   2.090   1.469   2.586
 1164TIP3    H1 3498   2.056   1.439   2.502
 1164TIP3    H2 3499   2.177   1.432   2.592
 1165TIP3   OH2 3500   0.453   2.218   1.104
 1165TIP3    H1 3501   0.434   2.138   1.054
 1165TIP3    H2 3502   0.548   2.224   1.104
 1166TIP3   OH2 3503   0.657   2.528   2.144
 1166TIP3    H1 3504   0.566   2.537   2.117
 1166TIP3    H2 3505   0.706   2.584   2.084
 1167TIP3   OH2 3506   3.980   0.770   3.981
 1167TIP3    H1 3507   3.941   0.727   4.057
 1167TIP3    H2 3508   3.924   0.744   3.908
 1168TIP3   OH2 3509   0.405   1.829   1.203
 1168TIP3    H1 3510   0.500   1.836   1.212
 1168TIP3    H2 3511   0.388   1.856   1.113
 1169TIP3   OH2 3512   2.167   0.631   2.169
 1169TIP3    H1 3513   2.229   0.685   2.120
 1169TIP3    H2 3514   2.119   0.694   2.223
 1170TIP3   OH2 3515   4.653   1.050   3.166
 1170TIP3    H1 3516   4.722   1.079   3.226
 1170TIP3    H2 3517   4.572   1.058   3.216
 1171TIP3   OH2 3518   3.816   5.723   1.856
 1171TIP3    H1 3519   3.845   5.741   1.945
 1171TIP3    H2 3520   3.879   5.768   1.801
 1172TIP3   OH2 3521   5.780   0.318   0.752
 1172TIP3    H1 3522   5.732   0.398   0.731
 1172TIP3    H2 3523   5.811   0.331   0.842
 1173TIP3   OH2 3524   3.707   4.463   4.724
 1173TIP3    H1 3525   3.725   4.467   4.630
 1173TIP3    H2 3526   3.612   4.452   4.731
 1174TIP3   OH2 3527   0.058   4.701   2.294
 1174TIP3    H1 3528  -0.020   4.712   2.239
 1174TIP3    H2 3529   0.025   4.662   2.374
 1175TIP3   OH2 3530   4.999   2.059   2.730
 1175TIP3    H1 3531   4.972   2.028   2.817
 1175TIP3    H2 3532   5.005   2.154   2.740
 1176TIP3   OH2 3533   1.339   0.343   3.600
 1176TIP3    H1 3534   1.397   0.402   3.552
 1176TIP3    H2 3535   1.281   0.401   3.650
 1177TIP3   OH2 3536   0.512   4.574   1.531
 1177TIP3    H1 3537   0.452   4.501   1.545
 1177TIP3    H2 3538   0.585   4.537   1.482
 1178TIP3   OH2 3539   2.168   3.684   2.025
 1178TIP3    H1 3540   2.154   3.709   2.117
 1178TIP3    H2 3541   2.195   3.592   2.029
 1179TIP3   OH2 3542   1.722   5.026   4.507
 1179TIP3    H1 3543   1.687   5.037   4.596
 1179TIP3    H2 3544   1.763   5.110   4.487
 1180TIP3   OH2 3545   4.671   3.209   2.985
 1180TIP3    H1 3546   4.684   3.139   3.049
 1180TIP3    H2 3547   4.710   3.175   2.904
 1181TIP3   OH2 3548   5.896   4.527   0.568
 1181TIP3    H1 3549   5.897   4.597   0.632
 1181TIP3    H2 3550   5.984   4.531   0.528
 1182TIP3   OH2 3551   4.032   0.794   4.717
 1182TIP3    H1 3552   4.066   0.881   4.737
 1182TIP3    H2 3553   4.103   0.734   4.740
 1183TIP3   OH2 3554   0.996   5.788   2.960
 1183TIP3    H1 3555   1.050   5.769   3.036
 1183TIP3    H2 3556   0.913   5.819   2.996
 1184TIP3   OH2 3557   0.531   2.705   2.858
 1184TIP3    H1 3558   0.465   2.743   2.916
 1184TIP3    H2 3559   0.614   2.724   2.902
 1185TIP3   OH2 3560   0.583   3.530   1.227
 1185TIP3    H1 3561   0.640   3.599   1.195
 1185TIP3    H2 3562   0.556   3.482   1.148
 1186TIP3   OH2 3563   1.051   3.885   2.979
 1186TIP3    H1 3564   1.116   3.918   3.042
 1186TIP3    H2 3565   1.062   3.790   2.981
 1187TIP3   OH2 3566   3.305   4.482   1.584
 1187TIP3    H1 3567   3.241   4.430   1.632
 1187TIP3    H2 3568   3.288   4.463   1.492
 1188TIP3   OH2 3569   4.486   2.681   2.603
 1188TIP3    H1 3570   4.570   2.667   2.560
 1188TIP3    H2 3571   4.452   2.762   2.565
 1189TIP3   OH2 3572   2.856   1.046   0.614
 1189TIP3    H1 3573   2.839   1.000   0.697
 1189TIP3    H2 3574   2.850   0.977   0.548
 1190TIP3   OH2 3575   3.543   3.079   4.972
 1190TIP3    H1 3576   3.560   3.053   4.881
 1190TIP3    H2 3577   3.619   3.132   4.996
 1191TIP3   OH2 3578   4.253   4.189   4.058
 1191TIP3    H1 3579   4.347   4.175   4.072
 1191TIP3    H2 3580   4.236   4.275   4.096
 1192TIP3   OH2 3581   4.768   1.786   0.902
 1192TIP3    H1 3582   4.685   1.750   0.931
 1192TIP3    H2 3583   4.816   1.711   0.866
 1193TIP3   OH2 3584   2.296   3.757   1.193
 1193TIP3    H1 3585   2.258   3.803   1.268
 1193TIP3    H2 3586   2.220   3.726   1.143
 1194TIP3   OH2 3587   3.544   2.775   0.817
 1194TIP3    H1 3588   3.492   2.731   0.884
 1194TIP3    H2 3589   3.481   2.793   0.746
 1195TIP3   OH2 3590   2.932   5.377   1.648
 1195TIP3    H1 3591   2.957   5.382   1.556
 1195TIP3    H2 3592   2.837   5.386   1.647
 1196TIP3   OH2 3593   5.461   3.969   3.882
 1196TIP3    H1 3594   5.499   4.042   3.832
 1196TIP3    H2 3595   5.406   4.012   3.948
 1197TIP3   OH2 3596   0.044   5.648   1.199
 1197TIP3    H1 3597   0.002   5.618   1.118
 1197TIP3    H2 3598   0.138   5.647   1.180
 1198TIP3   OH2 3599   5.199   5.179   5.007
 1198TIP3    H1 3600   5.287   5.142   5.000
 1198TIP3    H2 3601   5.199   5.253   4.946
 1199TIP3   OH2 3602   5.563   0.587   2.335
 1199TIP3    H1 3603   5.579   0.555   2.246
 1199TIP3    H2 3604   5.592   0.678   2.334
 1200TIP3   OH2 3605   3.203   3.440   1.031
 1200TIP3    H1 3606   3.114   3.405   1.029
 1200TIP3    H2 3607   3.202   3.505   1.102
 1201TIP3   OH2 3608   4.948   5.452   4.965
 1201TIP3    H1 3609   5.042   5.432   4.963
 1201TIP3    H2 3610   4.943   5.545   4.945
 1202TIP3   OH2 3611   5.358   1.650   2.232
 1202TIP3    H1 3612   5.334   1.698   2.311
 1202TIP3    H2 3613   5.452   1.633   2.242
 1203TIP3   OH2 3614   5.812   0.369   3.732
 1203TIP3    H1 3615   5.784   0.445   3.682
 1203TIP3    H2 3616   5.758   0.297   3.700
 1204TIP3   OH2 3617   6.061   4.920   2.140
 1204TIP3    H1 3618   5.978   4.897   2.098
 1204TIP3    H2 3619   6.057   5.014   2.154
 1205TIP3   OH2 3620   5.597   2.924   4.895
 1205TIP3    H1 3621   5.533   2.871   4.943
 1205TIP3    H2 3622   5.544   2.971   4.830
 1206TIP3   OH2 3623   3.373   0.506   2.926
 1206TIP3    H1 3624   3.387   0.586   2.876
 1206TIP3    H2 3625   3.443   0.447   2.898
 1207TIP3   OH2 3626   5.508   0.097   1.765
 1207TIP3    H1 3627   5.533   0.100   1.857
 1207TIP3    H2 3628   5.500   0.003   1.746
 1208TIP3   OH2 3629   4.998   3.224   4.551
 1208TIP3    H1 3630   5.086   3.187   4.543
 1208TIP3    H2 3631   4.991   3.285   4.478
 1209TIP3   OH2 3632   2.147   0.791   0.850
 1209TIP3    H1 3633   2.206   0.721   0.879
 1209TIP3    H2 3634   2.196   0.837   0.782
 1210TIP3   OH2 3635   5.348   5.713   2.759
 1210TIP3    H1 3636   5.344   5.661   2.839
 1210TIP3    H2 3637   5.441   5.713   2.735
 1211TIP3   OH2 3638   3.383   4.469   3.047
 1211TIP3    H1 3639   3.378   4.499   2.956
 1211TIP3    H2 3640   3.374   4.374   3.041
 1212TIP3   OH2 3641   4.502   5.095   1.140
 1212TIP3    H1 3642   4.532   5.079   1.051
 1212TIP3    H2 3643   4.570   5.150   1.179
 1213TIP3   OH2 3644   6.009   2.840   4.633
 1213TIP3    H1 3645   6.077   2.889   4.680
 1213TIP3    H2 3646   6.001   2.885   4.549
 1214TIP3   OH2 3647   3.887   5.084   4.258
 1214TIP3    H1 3648   3.829   5.015   4.291
 1214TIP3    H2 3649   3.959   5.085   4.321
 1215TIP3   OH2 3650   1.105   2.635   1.358
 1215TIP3    H1 3651   1.020   2.677   1.373
 1215TIP3    H2 3652   1.084   2.557   1.307
 1216TIP3   OH2 3653   4.710   2.047   1.505
 1216TIP3    H1 3654   4.646   2.007   1.564
 1216TIP3    H2 3655   4.665   2.052   1.420
 1217TIP3   OH2 3656   0.992   4.557   3.750
 1217TIP3    H1 3657   1.011   4.504   3.673
 1217TIP3    H2 3658   1.029   4.507   3.823
 1218TIP3   OH2 3659   4.751   0.457   2.086
 1218TIP3    H1 3660   4.789   0.373   2.111
 1218TIP3    H2 3661   4.731   0.500   2.169
 1219TIP3   OH2 3662   1.399   3.013   0.925
 1219TIP3    H1 3663   1.390   3.013   1.020
 1219TIP3    H2 3664   1.417   3.104   0.902
 1220TIP3   OH2 3665   2.247   5.184   0.130
 1220TIP3    H1 3666   2.313   5.144   0.074
 1220TIP3    H2 3667   2.181   5.217   0.070
 1221TIP3   OH2 3668   4.316   1.376   2.930
 1221TIP3    H1 3669   4.409   1.393   2.942
 1221TIP3    H2 3670   4.313   1.304   2.866
 1222TIP3   OH2 3671   4.238   3.366   1.564
 1222TIP3    H1 3672   4.308   3.431   1.551
 1222TIP3    H2 3673   4.158   3.414   1.544
 1223TIP3   OH2 3674   2.328   0.949   4.001
 1223TIP3    H1 3675   2.323   0.914   3.912
 1223TIP3    H2 3676   2.313   0.874   4.058
 1224TIP3   OH2 3677   2.040   3.764   1.542
 1224TIP3    H1 3678   2.094   3.816   1.482
 1224TIP3    H2 3679   2.061   3.673   1.521
 1225TIP3   OH2 3680   5.098   0.890   2.254
 1225TIP3    H1 3681   5.139   0.803   2.252
 1225TIP3    H2 3682   5.150   0.940   2.318
 1226TIP3   OH2 3683   3.881   2.303   3.661
 1226TIP3    H1 3684   3.836   2.387   3.654
 1226TIP3    H2 3685   3.970   2.324   3.686
 1227TIP3   OH2 3686   5.142   4.976   2.452
 1227TIP3    H1 3687   5.122   4.882   2.448
 1227TIP3    H2 3688   5.072   5.013   2.507
 1228TIP3   OH2 3689   2.179   3.570   1.460
 1228TIP3    H1 3690   2.148   3.521   1.384
 1228TIP3    H2 3691   2.179   3.507   1.532
 1229TIP3   OH2 3692   4.147   5.169   4.684
 1229TIP3    H1 3693   4.135   5.124   4.767
 1229TIP3    H2 3694   4.239   5.154   4.661
 1230TIP3   OH2 3695   0.836   0.440   5.172
 1230TIP3    H1 3696   0.863   0.432   5.081
 1230TIP3    H2 3697   0.741   0.427   5.170
 1231TIP3   OH2 3698   1.941   0.954   3.500
 1231TIP3    H1 3699   1.854   0.982   3.474
 1231TIP3    H2 3700   1.962   1.006   3.578
 1232TIP3   OH2 3701   2.256   3.259   1.214
 1232TIP3    H1 3702   2.191   3.317   1.254
 1232TIP3    H2 3703   2.328   3.318   1.190
 1233TIP3   OH2 3704   5.235   5.782   4.554
 1233TIP3    H1 3705   5.320   5.739   4.564
 1233TIP3    H2 3706   5.235   5.817   4.465
 1234TIP3   OH2 3707   6.180   0.718   5.003
 1234TIP3    H1 3708   6.160   0.752   4.917
 1234TIP3    H2 3709   6.104   0.663   5.026
 1235TIP3   OH2 3710   0.184   1.174   0.149
 1235TIP3    H1 3711   0.093   1.149   0.132
 1235TIP3    H2 3712   0.233   1.091   0.145
 1236TIP3   OH2 3713   4.812   3.654   2.381
 1236TIP3    H1 3714   4.777   3.611   2.304
 1236TIP3    H2 3715   4.899   3.616   2.393
 1237TIP3   OH2 3716   2.825   3.061   2.612
 1237TIP3    H1 3717   2.870   3.116   2.548
 1237TIP3    H2 3718   2.895   3.009   2.653
 1238TIP3   OH2 3719   3.624   2.720   4.064
 1238TIP3    H1 3720   3.603   2.632   4.030
 1238TIP3    H2 3721   3.562   2.778   4.021
 1239TIP3   OH2 3722   1.744   0.877   2.476
 1239TIP3    H1 3723   1.687   0.817   2.428
 1239TIP3    H2 3724   1.723   0.861   2.568
 1240TIP3   OH2 3725   0.540   0.651   4.439
 1240TIP3    H1 3726   0.496   0.717   4.386
 1240TIP3    H2 3727   0.605   0.612   4.381
 1241TIP3   OH2 3728   2.896   1.458   2.280
 1241TIP3    H1 3729   2.829   1.434   2.344
 1241TIP3    H2 3730   2.979   1.430   2.320
 1242TIP3   OH2 3731   5.644   3.403   4.213
 1242TIP3    H1 3732   5.664   3.372   4.124
 1242TIP3    H2 3733   5.686   3.339   4.271
 1243TIP3   OH2 3734   6.092   1.954   1.322
 1243TIP3    H1 3735   6.092   2.027   1.383
 1243TIP3    H2 3736   6.184   1.939   1.301
 1244TIP3   OH2 3737   1.586   5.703   1.150
 1244TIP3    H1 3738   1.565   5.611   1.134
 1244TIP3    H2 3739   1.672   5.700   1.193
 1245TIP3   OH2 3740   2.756   2.276   4.278
 1245TIP3    H1 3741   2.825   2.329   4.238
 1245TIP3    H2 3742   2.677   2.329   4.268
 1246TIP3   OH2 3743   0.433   0.229   3.692
 1246TIP3    H1 3744   0.512   0.230   3.745
 1246TIP3    H2 3745   0.464   0.236   3.602
 1247TIP3   OH2 3746   1.082   2.057   3.679
 1247TIP3    H1 3747   1.087   2.027   3.770
 1247TIP3    H2 3748   1.081   2.153   3.686
 1248TIP3   OH2 3749   0.036   3.093   4.001
 1248TIP3    H1 3750   0.039   3.178   3.957
 1248TIP3    H2 3751   0.090   3.036   3.946
 1249TIP3   OH2 3752   5.129   0.740   5.152
 1249TIP3    H1 3753   5.082   0.732   5.235
 1249TIP3    H2 3754   5.138   0.651   5.120
 1250TIP3   OH2 3755   3.309   4.702   0.023
 1250TIP3    H1 3756   3.291   4.709  -0.071
 1250TIP3    H2 3757   3.276   4.783   0.061
 1251TIP3   OH2 3758   3.273   5.309   0.715
 1251TIP3    H1 3759   3.205   5.328   0.780
 1251TIP3    H2 3760   3.237   5.238   0.662
 1252TIP3   OH2 3761   1.411   2.238   1.143
 1252TIP3    H1 3762   1.350   2.174   1.108
 1252TIP3    H2 3763   1.482   2.185   1.179
 1253TIP3   OH2 3764   3.111   5.862   0.232
 1253TIP3    H1 3765   3.137   5.775   0.262
 1253TIP3    H2 3766   3.066   5.902   0.306
 1254TIP3   OH2 3767   0.928   5.191   0.956
 1254TIP3    H1 3768   0.992   5.126   0.927
 1254TIP3    H2 3769   0.910   5.167   1.047
 1255TIP3   OH2 3770   5.320   0.211   3.462
 1255TIP3    H1 3771   5.226   0.199   3.478
 1255TIP3    H2 3772   5.361   0.199   3.548
 1256TIP3   OH2 3773   1.152   5.011   0.410
 1256TIP3    H1 3774   1.188   5.100   0.414
 1256TIP3    H2 3775   1.211   4.963   0.352
 1257TIP3   OH2 3776   4.572   1.986   0.360
 1257TIP3    H1 3777   4.655   1.974   0.313
 1257TIP3    H2 3778   4.597   2.029   0.442
 1258TIP3   OH2 3779   1.057   2.416   5.052
 1258TIP3    H1 3780   1.041   2.508   5.030
 1258TIP3    H2 3781   1.148   2.414   5.082
 1259TIP3   OH2 3782   1.163   5.266   4.574
 1259TIP3    H1 3783   1.155   5.253   4.480
 1259TIP3    H2 3784   1.102   5.203   4.613
 1260TIP3   OH2 3785   3.432   4.266   0.461
 1260TIP3    H1 3786   3.454   4.227   0.377
 1260TIP3    H2 3787   3.486   4.345   0.466
 1261TIP3   OH2 3788   2.232   2.308   4.435
 1261TIP3    H1 3789   2.254   2.273   4.521
 1261TIP3    H2 3790   2.163   2.372   4.451
 1262TIP3   OH2 3791   5.638   1.053   1.704
 1262TIP3    H1 3792   5.552   1.029   1.671
 1262TIP3    H2 3793   5.698   0.990   1.664
 1263TIP3   OH2 3794   1.797   2.475   0.452
 1263TIP3    H1 3795   1.880   2.522   0.462
 1263TIP3    H2 3796   1.774   2.448   0.541
 1264TIP3   OH2 3797   0.609   4.670   0.756
 1264TIP3    H1 3798   0.655   4.716   0.826
 1264TIP3    H2 3799   0.555   4.737   0.715
 1265TIP3   OH2 3800   2.099   2.586   2.616
 1265TIP3    H1 3801   2.119   2.594   2.523
 1265TIP3    H2 3802   2.061   2.499   2.626
 1266TIP3   OH2 3803   4.727   4.627   0.731
 1266TIP3    H1 3804   4.726   4.679   0.811
 1266TIP3    H2 3805   4.636   4.603   0.716
 1267TIP3   OH2 3806   5.308   3.365   3.757
 1267TIP3    H1 3807   5.296   3.301   3.688
 1267TIP3    H2 3808   5.261   3.443   3.727
 1268TIP3   OH2 3809   0.081   4.200   3.609
 1268TIP3    H1 3810  -0.004   4.170   3.577
 1268TIP3    H2 3811   0.077   4.187   3.704
 1269TIP3   OH2 3812   0.115   3.152   0.269
 1269TIP3    H1 3813   0.036   3.145   0.216
 1269TIP3    H2 3814   0.157   3.066   0.260
 1270TIP3   OH2 3815   4.510   3.334   0.370
 1270TIP3    H1 3816   4.420   3.303   0.376
 1270TIP3    H2 3817   4.512   3.387   0.290
 1271TIP3   OH2 3818   2.637   5.201   1.056
 1271TIP3    H1 3819   2.674   5.152   0.983
 1271TIP3    H2 3820   2.705   5.265   1.079
 1272TIP3   OH2 3821   4.349   0.264   1.990
 1272TIP3    H1 3822   4.321   0.340   1.939
 1272TIP3    H2 3823   4.312   0.279   2.077
 1273TIP3   OH2 3824   2.414   1.497   4.445
 1273TIP3    H1 3825   2.387   1.429   4.508
 1273TIP3    H2 3826   2.426   1.575   4.498
 1274TIP3   OH2 3827   2.287   1.985   0.066
 1274TIP3    H1 3828   2.238   1.923   0.012
 1274TIP3    H2 3829   2.256   2.071   0.037
 1275TIP3   OH2 3830   2.244   2.535   0.387
 1275TIP3    H1 3831   2.184   2.555   0.315
 1275TIP3    H2 3832   2.187   2.527   0.464
 1276TIP3   OH2 3833   3.124   1.901   0.548
 1276TIP3    H1 3834   3.200   1.905   0.491
 1276TIP3    H2 3835   3.050   1.888   0.488
 1277TIP3   OH2 3836   4.591   5.002   3.271
 1277TIP3    H1 3837   4.620   4.950   3.347
 1277TIP3    H2 3838   4.496   5.004   3.278
 1278TIP3   OH2 3839   3.022   1.529   0.376
 1278TIP3    H1 3840   3.034   1.437   0.402
 1278TIP3    H2 3841   3.075   1.578   0.438
 1279TIP3   OH2 3842   1.646   4.883   0.606
 1279TIP3    H1 3843   1.729   4.912   0.567
 1279TIP3    H2 3844   1.613   4.817   0.545
 1280TIP3   OH2 3845   0.793   1.719   0.926
 1280TIP3    H1 3846   0.860   1.753   0.866
 1280TIP3    H2 3847   0.742   1.658   0.873
 1281TIP3   OH2 3848   4.418   1.509   1.735
 1281TIP3    H1 3849   4.445   1.563   1.661
 1281TIP3    H2 3850   4.485   1.440   1.740
 1282TIP3   OH2 3851   1.185   0.123   4.354
 1282TIP3    H1 3852   1.101   0.079   4.346
 1282TIP3    H2 3853   1.217   0.131   4.264
 1283TIP3   OH2 3854   3.092   3.331   4.015
 1283TIP3    H1 3855   3.139   3.411   3.990
 1283TIP3    H2 3856   3.162   3.269   4.036
 1284TIP3   OH2 3857   3.435   2.824   3.869
 1284TIP3    H1 3858   3.511   2.828   3.810
 1284TIP3    H2 3859   3.416   2.915   3.890
 1285TIP3   OH2 3860   0.053   2.186   0.657
 1285TIP3    H1 3861   0.047   2.281   0.646
 1285TIP3    H2 3862   0.091   2.155   0.575
 1286TIP3   OH2 3863   1.434   3.406   4.322
 1286TIP3    H1 3864   1.405   3.448   4.402
 1286TIP3    H2 3865   1.529   3.400   4.330
 1287TIP3   OH2 3866   4.555   0.822   5.224
 1287TIP3    H1 3867   4.637   0.824   5.175
 1287TIP3    H2 3868   4.496   0.770   5.170
 1288TIP3   OH2 3869   4.332   1.863   1.835
 1288TIP3    H1 3870   4.326   1.792   1.898
 1288TIP3    H2 3871   4.263   1.844   1.770
 1289TIP3   OH2 3872   1.478   5.171   2.507
 1289TIP3    H1 3873   1.391   5.132   2.507
 1289TIP3    H2 3874   1.510   5.159   2.418
 1290TIP3   OH2 3875   2.762   2.848   1.005
 1290TIP3    H1 3876   2.792   2.771   1.052
 1290TIP3    H2 3877   2.667   2.836   0.996
 1291TIP3   OH2 3878   3.178   0.740   3.794
 1291TIP3    H1 3879   3.230   0.721   3.716
 1291TIP3    H2 3880   3.103   0.789   3.762
 1292TIP3   OH2 3881   2.852   5.672   2.714
 1292TIP3    H1 3882   2.931   5.657   2.766
 1292TIP3    H2 3883   2.854   5.604   2.647
 1293TIP3   OH2 3884   1.035   3.246   3.115
 1293TIP3    H1 3885   1.057   3.267   3.206
 1293TIP3    H2 3886   1.094   3.300   3.063
 1294TIP3   OH2 3887   4.135   5.600   4.050
 1294TIP3    H1 3888   4.076   5.535   4.090
 1294TIP3    H2 3889   4.085   5.682   4.055
 1295TIP3   OH2 3890   2.155   5.949   5.128
 1295TIP3    H1 3891   2.179   5.918   5.040
 1295TIP3    H2 3892   2.137   6.043   5.116
 1296TIP3   OH2 3893   1.956   4.644   0.239
 1296TIP3    H1 3894   2.020   4.711   0.264
 1296TIP3    H2 3895   1.949   4.653   0.144
 1297TIP3   OH2 3896  -0.010   2.009   1.063
 1297TIP3    H1 3897   0.050   1.940   1.033
 1297TIP3    H2 3898   0.022   2.089   1.020
 1298TIP3   OH2 3899   5.908   0.695   0.583
 1298TIP3    H1 3900   5.851   0.645   0.641
 1298TIP3    H2 3901   5.969   0.631   0.547
 1299TIP3   OH2 3902   4.516   5.823   0.080
 1299TIP3    H1 3903   4.433   5.861   0.050
 1299TIP3    H2 3904   4.582   5.868   0.028
 1300TIP3   OH2 3905   2.841   0.638   2.201
 1300TIP3    H1 3906   2.892   0.716   2.178
 1300TIP3    H2 3907   2.813   0.603   2.117
 1301TIP3   OH2 3908   0.224   0.883   1.528
 1301TIP3    H1 3909   0.240   0.789   1.518
 1301TIP3    H2 3910   0.306   0.924   1.500
 1302TIP3   OH2 3911   5.686   5.764   0.715
 1302TIP3    H1 3912   5.638   5.751   0.633
 1302TIP3    H2 3913   5.749   5.692   0.718
 1303TIP3   OH2 3914   2.372   4.074   2.319
 1303TIP3    H1 3915   2.369   4.072   2.415
 1303TIP3    H2 3916   2.438   4.141   2.299
 1304TIP3   OH2 3917   4.434   0.023   3.584
 1304TIP3    H1 3918   4.345   0.046   3.556
 1304TIP3    H2 3919   4.427   0.013   3.679
 1305TIP3   OH2 3920   0.730   2.164   4.162
 1305TIP3    H1 3921   0.708   2.074   4.187
 1305TIP3    H2 3922   0.822   2.173   4.187
 1306TIP3   OH2 3923   6.298   1.334   0.991
 1306TIP3    H1 3924   6.292   1.331   0.895
 1306TIP3    H2 3925   6.325   1.246   1.016
 1307TIP3   OH2 3926   5.929   4.837   2.634
 1307TIP3    H1 3927   5.985   4.838   2.556
 1307TIP3    H2 3928   5.906   4.928   2.649
 1308TIP3   OH2 3929   4.221   5.137   1.761
 1308TIP3    H1 3930   4.271   5.062   1.728
 1308TIP3    H2 3931   4.146   5.143   1.703
 1309TIP3   OH2 3932   1.334   4.391   4.395
 1309TIP3    H1 3933   1.405   4.355   4.448
 1309TIP3    H2 3934   1.259   4.395   4.454
 1310TIP3   OH2 3935   0.901   3.369   3.379
 1310TIP3    H1 3936   0.939   3.286   3.408
 1310TIP3    H2 3937   0.858   3.404   3.458
 1311TIP3   OH2 3938   3.655   5.456   2.176
 1311TIP3    H1 3939   3.645   5.538   2.224
 1311TIP3    H2 3940   3.567   5.419   2.170
 1312TIP3   OH2 3941   3.629   4.154   4.956
 1312TIP3    H1 3942   3.623   4.245   4.983
 1312TIP3    H2 3943   3.542   4.118   4.971
 1313TIP3   OH2 3944   1.071   4.291   5.094
 1313TIP3    H1 3945   1.053   4.200   5.116
 1313TIP3    H2 3946   1.071   4.338   5.177
 1314TIP3   OH2 3947   3.100   1.341   1.228
 1314TIP3    H1 3948   3.165   1.381   1.170
 1314TIP3    H2 3949   3.149   1.317   1.306
 1315TIP3   OH2 3950   3.958   4.553   2.552
 1315TIP3    H1 3951   4.025   4.509   2.500
 1315TIP3    H2 3952   3.891   4.578   2.489
 1316TIP3   OH2 3953   3.555   4.369   1.010
 1316TIP3    H1 3954   3.604   4.351   0.929
 1316TIP3    H2 3955   3.503   4.290   1.024
 1317TIP3   OH2 3956   0.021   3.917   1.109
 1317TIP3    H1 3957  -0.057   3.957   1.147
 1317TIP3    H2 3958  -0.008   3.830   1.080
 1318TIP3   OH2 3959   3.738   5.405   1.703
 1318TIP3    H1 3960   3.672   5.474   1.699
 1318TIP3    H2 3961   3.731   5.371   1.792
 1319TIP3   OH2 3962   0.447   2.095   3.821
 1319TIP3    H1 3963   0.351   2.100   3.817
 1319TIP3    H2 3964   0.465   2.060   3.909
 1320TIP3   OH2 3965   0.981   3.142   0.880
 1320TIP3    H1 3966   1.060   3.089   0.871
 1320TIP3    H2 3967   0.986   3.178   0.969
 1321TIP3   OH2 3968   0.895   4.375   1.000
 1321TIP3    H1 3969   0.892   4.460   1.044
 1321TIP3    H2 3970   0.826   4.380   0.933
 1322TIP3   OH2 3971   0.110   4.235   3.207
 1322TIP3    H1 3972   0.143   4.302   3.148
 1322TIP3    H2 3973   0.185   4.214   3.263
 1323TIP3   OH2 3974   0.485   3.316   5.063
 1323TIP3    H1 3975   0.578   3.292   5.053
 1323TIP3    H2 3976   0.448   3.245   5.116
 1324TIP3   OH2 3977   0.068   3.617   3.447
 1324TIP3    H1 3978   0.149   3.607   3.496
 1324TIP3    H2 3979   0.091   3.595   3.357
 1325TIP3   OH2 3980   1.207   3.945   4.605
 1325TIP3    H1 3981   1.181   3.869   4.657
 1325TIP3    H2 3982   1.259   3.909   4.533
 1326TIP3   OH2 3983   6.016   3.010   4.968
 1326TIP3    H1 3984   6.033   3.097   5.005
 1326TIP3    H2 3985   6.093   2.992   4.914
 1327TIP3   OH2 3986   6.173   0.825   4.405
 1327TIP3    H1 3987   6.201   0.776   4.482
 1327TIP3    H2 3988   6.123   0.763   4.352
 1328TIP3   OH2 3989   5.667   2.890   4.484
 1328TIP3    H1 3990   5.622   2.971   4.508
 1328TIP3    H2 3991   5.759   2.916   4.476
 1329TIP3   OH2 3992   6.104   1.654   4.047
 1329TIP3    H1 3993   6.070   1.670   3.959
 1329TIP3    H2 3994   6.081   1.732   4.096
 1330TIP3   OH2 3995   5.524   3.443   0.043
 1330TIP3    H1 3996   5.602   3.391   0.064
 1330TIP3    H2 3997   5.553   3.534   0.049
 1331TIP3   OH2 3998   0.820   2.648   2.767
 1331TIP3    H1 3999   0.800   2.706   2.693
 1331TIP3    H2 4000   0.839   2.708   2.840
 1332TIP3   OH2 4001   0.940   3.601   0.963
 1332TIP3    H1 4002   0.966   3.678   0.913
 1332TIP3    H2 4003   0.845   3.598   0.954
 1333TIP3   OH2 4004   1.788   2.393   3.759
 1333TIP3    H1 4005   1.755   2.367   3.845
 1333TIP3    H2 4006   1.880   2.414   3.774
 1334TIP3   OH2 4007   0.058   5.074   3.912
 1334TIP3    H1 4008   0.151   5.062   3.894
 1334TIP3    H2 4009   0.049   5.056   4.006
 1335TIP3   OH2 4010   4.067   2.819   1.119
 1335TIP3    H1 4011   3.993   2.843   1.175
 1335TIP3    H2 4012   4.096   2.902   1.080
 1336TIP3   OH2 4013   3.655   2.087   4.692
 1336TIP3    H1 4014   3.655   1.993   4.674
 1336TIP3    H2 4015   3.585   2.122   4.637
 1337TIP3   OH2 4016   4.903   2.555   4.886
 1337TIP3    H1 4017   4.984   2.556   4.835
 1337TIP3    H2 4018   4.927   2.592   4.970
 1338TIP3   OH2 4019   4.616   4.055   2.386
 1338TIP3    H1 4020   4.585   4.069   2.476
 1338TIP3    H2 4021   4.644   3.964   2.384
 1339TIP3   OH2 4022   5.150   4.347   2.841
 1339TIP3    H1 4023   5.120   4.434   2.814
 1339TIP3    H2 4024   5.229   4.364   2.893
 1340TIP3   OH2 4025   5.132   4.720   3.378
 1340TIP3    H1 4026   5.190   4.795   3.366
 1340TIP3    H2 4027   5.179   4.646   3.339
 1341TIP3   OH2 4028   2.667   3.339   3.685
 1341TIP3    H1 4029   2.597   3.286   3.723
 1341TIP3    H2 4030   2.747   3.289   3.703
 1342TIP3   OH2 4031   1.155   3.853   2.730
 1342TIP3    H1 4032   1.110   3.872   2.812
 1342TIP3    H2 4033   1.085   3.847   2.665
 1343TIP3   OH2 4034   4.458   1.625   3.816
 1343TIP3    H1 4035   4.398   1.657   3.883
 1343TIP3    H2 4036   4.464   1.530   3.832
 1344TIP3   OH2 4037   1.024   1.511   1.336
 1344TIP3    H1 4038   1.027   1.570   1.411
 1344TIP3    H2 4039   0.941   1.532   1.293
 1345TIP3   OH2 4040   5.606   1.563   1.785
 1345TIP3    H1 4041   5.639   1.474   1.800
 1345TIP3    H2 4042   5.511   1.555   1.798
 1346TIP3   OH2 4043   5.160   5.246   1.200
 1346TIP3    H1 4044   5.073   5.208   1.191
 1346TIP3    H2 4045   5.182   5.233   1.293
 1347TIP3   OH2 4046   3.395   0.269   2.419
 1347TIP3    H1 4047   3.420   0.293   2.509
 1347TIP3    H2 4048   3.300   0.254   2.424
 1348TIP3   OH2 4049   0.104  -0.001   0.826
 1348TIP3    H1 4050   0.051   0.018   0.904
 1348TIP3    H2 4051   0.058   0.043   0.755
 1349TIP3   OH2 4052   0.926   5.354   1.458
 1349TIP3    H1 4053   0.952   5.354   1.366
 1349TIP3    H2 4054   0.979   5.285   1.498
 1350TIP3   OH2 4055   3.863   4.045   2.480
 1350TIP3    H1 4056   3.884   4.089   2.397
 1350TIP3    H2 4057   3.928   3.976   2.487
 1351TIP3   OH2 4058   0.380   0.221   0.088
 1351TIP3    H1 4059   0.290   0.224   0.118
 1351TIP3    H2 4060   0.430   0.261   0.159
 1352TIP3   OH2 4061   5.400   5.564   1.960
 1352TIP3    H1 4062   5.482   5.598   1.925
 1352TIP3    H2 4063   5.425   5.487   2.012
 1353TIP3   OH2 4064   0.488   2.775   5.045
 1353TIP3    H1 4065   0.570   2.822   5.061
 1353TIP3    H2 4066   0.420   2.832   5.080
 1354TIP3   OH2 4067   3.583   3.104   0.474
 1354TIP3    H1 4068   3.672   3.096   0.507
 1354TIP3    H2 4069   3.573   3.032   0.412
 1355TIP3   OH2 4070   1.262   0.354   3.233
 1355TIP3    H1 4071   1.296   0.439   3.204
 1355TIP3    H2 4072   1.193   0.376   3.295
 1356TIP3   OH2 4073   0.405   3.186   2.585
 1356TIP3    H1 4074   0.440   3.100   2.562
 1356TIP3    H2 4075   0.465   3.219   2.652
 1357TIP3   OH2 4076   0.226   1.429   0.085
 1357TIP3    H1 4077   0.220   1.336   0.105
 1357TIP3    H2 4078   0.305   1.437   0.031
 1358TIP3   OH2 4079   0.611   1.925   4.295
 1358TIP3    H1 4080   0.593   1.962   4.382
 1358TIP3    H2 4081   0.624   1.831   4.312
 1359TIP3   OH2 4082   5.440   2.237   3.566
 1359TIP3    H1 4083   5.504   2.268   3.630
 1359TIP3    H2 4084   5.359   2.226   3.616
 1360TIP3   OH2 4085   5.702   5.750   3.877
 1360TIP3    H1 4086   5.716   5.792   3.792
 1360TIP3    H2 4087   5.630   5.800   3.917
 1361TIP3   OH2 4088   3.797   0.182   0.814
 1361TIP3    H1 4089   3.772   0.270   0.842
 1361TIP3    H2 4090   3.749   0.123   0.873
 1362TIP3   OH2 4091   2.801   1.880   3.947
 1362TIP3    H1 4092   2.799   1.821   4.023
 1362TIP3    H2 4093   2.752   1.957   3.975
 1363TIP3   OH2 4094   0.464   1.459   0.886
 1363TIP3    H1 4095   0.412   1.518   0.940
 1363TIP3    H2 4096   0.450   1.490   0.797
 1364TIP3   OH2 4097   0.464   2.372   0.416
 1364TIP3    H1 4098   0.437   2.332   0.333
 1364TIP3    H2 4099   0.412   2.328   0.482
 1365TIP3   OH2 4100   2.703   5.501   4.295
 1365TIP3    H1 4101   2.610   5.492   4.274
 1365TIP3    H2 4102   2.708   5.582   4.345
 1366TIP3   OH2 4103   6.007   5.260   3.287
 1366TIP3    H1 4104   6.050   5.179   3.314
 1366TIP3    H2 4105   5.918   5.234   3.264
 1367TIP3   OH2 4106   4.363   2.720   0.467
 1367TIP3    H1 4107   4.406   2.678   0.392
 1367TIP3    H2 4108   4.424   2.707   0.540
 1368TIP3   OH2 4109   4.165   2.524   1.904
 1368TIP3    H1 4110   4.117   2.441   1.903
 1368TIP3    H2 4111   4.097   2.592   1.904
 1369TIP3   OH2 4112   2.253   2.477   1.903
 1369TIP3    H1 4113   2.229   2.469   1.995
 1369TIP3    H2 4114   2.322   2.543   1.902
 1370TIP3   OH2 4115   5.295   3.067   3.624
 1370TIP3    H1 4116   5.366   3.009   3.652
 1370TIP3    H2 4117   5.216   3.012   3.630
 1371TIP3   OH2 4118   5.923   5.421   4.495
 1371TIP3    H1 4119   5.897   5.341   4.448
 1371TIP3    H2 4120   6.018   5.414   4.502
 1372TIP3   OH2 4121   5.857   1.134   3.053
 1372TIP3    H1 4122   5.946   1.103   3.044
 1372TIP3    H2 4123   5.812   1.105   2.973
 1373TIP3   OH2 4124   2.587   4.308   1.531
 1373TIP3    H1 4125   2.523   4.253   1.484
 1373TIP3    H2 4126   2.670   4.289   1.489
 1374TIP3   OH2 4127   4.698   1.498   4.066
 1374TIP3    H1 4128   4.631   1.448   4.019
 1374TIP3    H2 4129   4.659   1.515   4.152
 1375TIP3   OH2 4130   4.746   0.110   3.588
 1375TIP3    H1 4131   4.720   0.150   3.505
 1375TIP3    H2 4132   4.677   0.134   3.650
 1376TIP3   OH2 4133   3.891   4.975   1.261
 1376TIP3    H1 4134   3.889   5.069   1.242
 1376TIP3    H2 4135   3.978   4.960   1.298
 1377TIP3   OH2 4136   3.818   3.363   3.441
 1377TIP3    H1 4137   3.778   3.441   3.405
 1377TIP3    H2 4138   3.912   3.381   3.438
 1378TIP3   OH2 4139   3.775   4.573   4.163
 1378TIP3    H1 4140   3.711   4.637   4.193
 1378TIP3    H2 4141   3.819   4.615   4.088
 1379TIP3   OH2 4142   0.120   2.409   3.337
 1379TIP3    H1 4143   0.216   2.400   3.341
 1379TIP3    H2 4144   0.101   2.416   3.243
 1380TIP3   OH2 4145   1.688   3.767   1.685
 1380TIP3    H1 4146   1.754   3.834   1.702
 1380TIP3    H2 4147   1.726   3.714   1.614
 1381TIP3   OH2 4148   1.428   5.653   0.633
 1381TIP3    H1 4149   1.334   5.669   0.628
 1381TIP3    H2 4150   1.461   5.718   0.695
 1382TIP3   OH2 4151   2.950   2.052   2.574
 1382TIP3    H1 4152   2.997   2.119   2.523
 1382TIP3    H2 4153   2.990   1.969   2.547
 1383TIP3   OH2 4154   5.572   4.882   0.516
 1383TIP3    H1 4155   5.599   4.905   0.605
 1383TIP3    H2 4156   5.587   4.962   0.465
 1384TIP3   OH2 4157   4.864   0.022   3.301
 1384TIP3    H1 4158   4.859   0.054   3.211
 1384TIP3    H2 4159   4.778  -0.016   3.318
 1385TIP3   OH2 4160   0.449   4.333   1.288
 1385TIP3    H1 4161   0.527   4.370   1.327
 1385TIP3    H2 4162   0.447   4.242   1.320
 1386TIP3   OH2 4163   1.619   0.110   1.210
 1386TIP3    H1 4164   1.660   0.152   1.286
 1386TIP3    H2 4165   1.525   0.113   1.228
 1387TIP3   OH2 4166   1.022   3.340   1.448
 1387TIP3    H1 4167   0.989   3.392   1.521
 1387TIP3    H2 4168   0.982   3.379   1.371
 1388TIP3   OH2 4169   4.586   2.368   4.271
 1388TIP3    H1 4170   4.515   2.411   4.319
 1388TIP3    H2 4171   4.634   2.440   4.229
 1389TIP3   OH2 4172   1.814   5.608   4.841
 1389TIP3    H1 4173   1.829   5.693   4.882
 1389TIP3    H2 4174   1.719   5.594   4.847
 1390TIP3   OH2 4175   6.029   0.814   0.054
 1390TIP3    H1 4176   5.982   0.890   0.088
 1390TIP3    H2 4177   6.120   0.842   0.048
 1391TIP3   OH2 4178   1.996   2.312   2.641
 1391TIP3    H1 4179   2.027   2.234   2.594
 1391TIP3    H2 4180   1.923   2.280   2.693
 1392TIP3   OH2 4181   4.797   5.076   3.845
 1392TIP3    H1 4182   4.863   5.049   3.909
 1392TIP3    H2 4183   4.758   4.994   3.814
 1393TIP3   OH2 4184   0.040   2.946   0.657
 1393TIP3    H1 4185   0.066   2.985   0.740
 1393TIP3    H2 4186  -0.009   3.015   0.612
 1394TIP3   OH2 4187   2.895   4.676   2.529
 1394TIP3    H1 4188   2.982   4.635   2.531
 1394TIP3    H2 4189   2.897   4.732   2.451
 1395TIP3   OH2 4190   3.959   3.891   3.334
 1395TIP3    H1 4191   3.891   3.907   3.399
 1395TIP3    H2 4192   3.922   3.924   3.252
 1396TIP3   OH2 4193   0.574   5.212   1.881
 1396TIP3    H1 4194   0.584   5.171   1.795
 1396TIP3    H2 4195   0.483   5.195   1.906
 1397TIP3   OH2 4196   1.298   4.958   4.422
 1397TIP3    H1 4197   1.203   4.954   4.432
 1397TIP3    H2 4198   1.313   5.031   4.361
 1398TIP3   OH2 4199   3.106   4.526   4.678
 1398TIP3    H1 4200   3.067   4.597   4.627
 1398TIP3    H2 4201   3.101   4.556   4.769
 1399TIP3   OH2 4202   4.488   0.853   1.768
 1399TIP3    H1 4203   4.399   0.820   1.756
 1399TIP3    H2 4204   4.485   0.902   1.851
 1400TIP3   OH2 4205   0.003   1.518   4.072
 1400TIP3    H1 4206  -0.083   1.559   4.077
 1400TIP3    H2 4207   0.064   1.591   4.058
 1401TIP3   OH2 4208   1.017   5.949   1.912
 1401TIP3    H1 4209   1.064   5.943   1.829
 1401TIP3    H2 4210   0.949   6.014   1.897
 1402TIP3   OH2 4211   5.891   3.037   1.522
 1402TIP3    H1 4212   5.968   3.013   1.572
 1402TIP3    H2 4213   5.880   3.130   1.537
 1403TIP3   OH2 4214   4.129   1.045   3.006
 1403TIP3    H1 4215   4.203   1.071   2.951
 1403TIP3    H2 4216   4.071   1.121   3.005
 1404TIP3   OH2 4217   0.071   3.336   2.823
 1404TIP3    H1 4218  -0.010   3.385   2.808
 1404TIP3    H2 4219   0.140   3.403   2.820
 1405TIP3   OH2 4220   2.593   2.344   0.005
 1405TIP3    H1 4221   2.638   2.359   0.088
 1405TIP3    H2 4222   2.501   2.365   0.024
 1406TIP3   OH2 4223   1.651   3.262   2.714
 1406TIP3    H1 4224   1.652   3.356   2.734
 1406TIP3    H2 4225   1.665   3.258   2.619
 1407TIP3   OH2 4226   4.376   0.874   1.168
 1407TIP3    H1 4227   4.460   0.834   1.145
 1407TIP3    H2 4228   4.314   0.835   1.107
 1408TIP3   OH2 4229   1.207   2.913   0.578
 1408TIP3    H1 4230   1.122   2.904   0.536
 1408TIP3    H2 4231   1.220   2.831   0.626
 1409TIP3   OH2 4232   1.744   3.935   2.905
 1409TIP3    H1 4233   1.829   3.972   2.884
 1409TIP3    H2 4234   1.699   4.002   2.956
 1410TIP3   OH2 4235   1.123   4.668   0.010
 1410TIP3    H1 4236   1.034   4.674  -0.026
 1410TIP3    H2 4237   1.169   4.742  -0.028
 1411TIP3   OH2 4238   1.888   1.374   0.261
 1411TIP3    H1 4239   1.908   1.468   0.268
 1411TIP3    H2 4240   1.962   1.331   0.304
 1412TIP3   OH2 4241   1.760   1.357   2.022
 1412TIP3    H1 4242   1.723   1.273   2.049
 1412TIP3    H2 4243   1.685   1.415   2.015
 1413TIP3   OH2 4244   1.711   0.082   2.696
 1413TIP3    H1 4245   1.763   0.098   2.617
 1413TIP3    H2 4246   1.732   0.155   2.754
 1414TIP3   OH2 4247   3.077   2.838   0.878
 1414TIP3    H1 4248   3.091   2.933   0.871
 1414TIP3    H2 4249   2.989   2.825   0.845
 1415TIP3   OH2 4250   1.947   5.858   2.765
 1415TIP3    H1 4251   1.933   5.764   2.778
 1415TIP3    H2 4252   1.871   5.900   2.806
 1416TIP3   OH2 4253   1.164   1.019   3.806
 1416TIP3    H1 4254   1.226   0.978   3.747
 1416TIP3    H2 4255   1.178   1.113   3.794
 1417TIP3   OH2 4256   1.233   0.687   0.093
 1417TIP3    H1 4257   1.311   0.631   0.088
 1417TIP3    H2 4258   1.204   0.696   0.002
 1418TIP3   OH2 4259   0.523   4.671   4.383
 1418TIP3    H1 4260   0.573   4.605   4.335
 1418TIP3    H2 4261   0.461   4.621   4.436
 1419TIP3   OH2 4262   5.369   1.207   3.063
 1419TIP3    H1 4263   5.417   1.290   3.073
 1419TIP3    H2 4264   5.283   1.226   3.100
 1420TIP3   OH2 4265   2.604   3.976   2.707
 1420TIP3    H1 4266   2.689   4.001   2.669
 1420TIP3    H2 4267   2.542   4.040   2.673
 1421TIP3   OH2 4268   6.099   2.737   1.857
 1421TIP3    H1 4269   6.148   2.710   1.935
 1421TIP3    H2 4270   6.162   2.786   1.805
 1422TIP3   OH2 4271   2.012   0.982   3.101
 1422TIP3    H1 4272   1.956   1.049   3.063
 1422TIP3    H2 4273   1.956   0.937   3.164
 1423TIP3   OH2 4274   3.877   3.676   4.666
 1423TIP3    H1 4275   3.866   3.585   4.695
 1423TIP3    H2 4276   3.808   3.724   4.710
 1424TIP3   OH2 4277   4.965   3.403   3.944
 1424TIP3    H1 4278   5.044   3.395   3.999
 1424TIP3    H2 4279   4.962   3.496   3.921
 1425TIP3   OH2 4280   4.857   3.621   0.107
 1425TIP3    H1 4281   4.887   3.712   0.115
 1425TIP3    H2 4282   4.785   3.614   0.170
 1426TIP3   OH2 4283   2.470   1.331   2.157
 1426TIP3    H1 4284   2.517   1.404   2.196
 1426TIP3    H2 4285   2.379   1.361   2.154
 1427TIP3   OH2 4286   5.597   2.203   0.816
 1427TIP3    H1 4287   5.667   2.137   0.810
 1427TIP3    H2 4288   5.643   2.287   0.812
 1428TIP3   OH2 4289   0.005   1.333   4.279
 1428TIP3    H1 4290   0.063   1.270   4.238
 1428TIP3    H2 4291   0.008   1.410   4.222
 1429TIP3   OH2 4292   1.044   3.165   3.494
 1429TIP3    H1 4293   1.042   3.113   3.575
 1429TIP3    H2 4294   0.998   3.111   3.430
 1430TIP3   OH2 4295   4.363   1.130   2.815
 1430TIP3    H1 4296   4.453   1.111   2.839
 1430TIP3    H2 4297   4.366   1.150   2.721
 1431TIP3   OH2 4298   2.630   1.764   0.455
 1431TIP3    H1 4299   2.633   1.805   0.368
 1431TIP3    H2 4300   2.648   1.836   0.515
 1432TIP3   OH2 4301   3.441   0.974   1.957
 1432TIP3    H1 4302   3.356   0.956   1.998
 1432TIP3    H2 4303   3.483   1.037   2.016
 1433TIP3   OH2 4304   1.442   4.518   1.958
 1433TIP3    H1 4305   1.442   4.600   2.008
 1433TIP3    H2 4306   1.350   4.494   1.953
 1434TIP3   OH2 4307   4.583   3.799   4.300
 1434TIP3    H1 4308   4.538   3.757   4.373
 1434TIP3    H2 4309   4.516   3.854   4.259
 1435TIP3   OH2 4310   3.113   1.951   1.453
 1435TIP3    H1 4311   3.165   1.983   1.380
 1435TIP3    H2 4312   3.030   1.924   1.414
 1436TIP3   OH2 4313   3.381   5.530   0.180
 1436TIP3    H1 4314   3.331   5.470   0.235
 1436TIP3    H2 4315   3.405   5.479   0.103
 1437TIP3   OH2 4316   3.996   5.587   0.599
 1437TIP3    H1 4317   4.014   5.680   0.591
 1437TIP3    H2 4318   3.901   5.581   0.596
 1438TIP3   OH2 4319   2.947   0.096   1.508
 1438TIP3    H1 4320   3.041   0.082   1.516
 1438TIP3    H2 4321   2.918   0.119   1.596
 1439TIP3   OH2 4322   2.290   2.234   0.318
 1439TIP3    H1 4323   2.194   2.231   0.318
 1439TIP3    H2 4324   2.315   2.222   0.409
 1440TIP3   OH2 4325   5.081   5.865   1.397
 1440TIP3    H1 4326   5.075   5.795   1.462
 1440TIP3    H2 4327   5.009   5.848   1.336
 1441TIP3   OH2 4328   4.645   5.336   4.679
 1441TIP3    H1 4329   4.696   5.265   4.639
 1441TIP3    H2 4330   4.669   5.334   4.771
 1442TIP3   OH2 4331   5.725   0.581   3.594
 1442TIP3    H1 4332   5.630   0.577   3.601
 1442TIP3    H2 4333   5.743   0.668   3.560
 1443TIP3   OH2 4334   1.867   4.974   0.162
 1443TIP3    H1 4335   1.818   5.050   0.131
 1443TIP3    H2 4336   1.930   5.010   0.224
 1444TIP3   OH2 4337   4.137   5.365   0.658
 1444TIP3    H1 4338   4.088   5.288   0.687
 1444TIP3    H2 4339   4.069   5.431   0.641
 1445TIP3   OH2 4340   2.069   3.484   2.422
 1445TIP3    H1 4341   2.119   3.408   2.452
 1445TIP3    H2 4342   2.006   3.500   2.492
 1446TIP3   OH2 4343   2.063   5.883   3.322
 1446TIP3    H1 4344   2.078   5.967   3.366
 1446TIP3    H2 4345   2.061   5.819   3.393
 1447TIP3   OH2 4346   1.945   3.930   0.926
 1447TIP3    H1 4347   1.852   3.950   0.925
 1447TIP3    H2 4348   1.982   3.986   0.857
 1448TIP3   OH2 4349   3.710   5.282   1.937
 1448TIP3    H1 4350   3.646   5.215   1.961
 1448TIP3    H2 4351   3.686   5.358   1.990
 1449TIP3   OH2 4352   2.834   3.861   3.652
 1449TIP3    H1 4353   2.816   3.835   3.742
 1449TIP3    H2 4354   2.759   3.828   3.602
 1450TIP3   OH2 4355   3.918   5.872   2.828
 1450TIP3    H1 4356   3.858   5.884   2.755
 1450TIP3    H2 4357   3.875   5.915   2.902
 1451TIP3   OH2 4358   0.346   0.805   2.265
 1451TIP3    H1 4359   0.406   0.824   2.338
 1451TIP3    H2 4360   0.299   0.727   2.293
 1452TIP3   OH2 4361   2.671   0.996   4.309
 1452TIP3    H1 4362   2.682   1.091   4.307
 1452TIP3    H2 4363   2.719   0.967   4.386
 1453TIP3   OH2 4364   3.880   1.968   3.153
 1453TIP3    H1 4365   3.847   1.897   3.209
 1453TIP3    H2 4366   3.896   1.926   3.069
 1454TIP3   OH2 4367   2.478   1.455   1.801
 1454TIP3    H1 4368   2.445   1.528   1.853
 1454TIP3    H2 4369   2.570   1.476   1.785
 1455TIP3   OH2 4370   3.641   2.777   3.698
 1455TIP3    H1 4371   3.653   2.814   3.611
 1455TIP3    H2 4372   3.666   2.685   3.690
 1456TIP3   OH2 4373   3.808   5.661   1.200
 1456TIP3    H1 4374   3.747   5.629   1.134
 1456TIP3    H2 4375   3.876   5.593   1.204
 1457TIP3   OH2 4376   0.267   4.002   4.683
 1457TIP3    H1 4377   0.305   3.938   4.743
 1457TIP3    H2 4378   0.311   4.084   4.705
 1458TIP3   OH2 4379   4.963   1.459   0.098
 1458TIP3    H1 4380   4.936   1.516   0.170
 1458TIP3    H2 4381   4.983   1.518   0.026
 1459TIP3   OH2 4382   1.127   2.341   2.427
 1459TIP3    H1 4383   1.149   2.270   2.488
 1459TIP3    H2 4384   1.155   2.309   2.341
 1460TIP3   OH2 4385   1.935   0.102   5.024
 1460TIP3    H1 4386   1.840   0.106   5.033
 1460TIP3    H2 4387   1.950   0.087   4.930
 1461TIP3   OH2 4388   4.639   2.825   4.216
 1461TIP3    H1 4389   4.574   2.883   4.176
 1461TIP3    H2 4390   4.681   2.880   4.283
 1462TIP3   OH2 4391   2.013   4.583   1.168
 1462TIP3    H1 4392   2.044   4.665   1.128
 1462TIP3    H2 4393   1.979   4.610   1.253
 1463TIP3   OH2 4394   3.989   4.105   1.659
 1463TIP3    H1 4395   3.899   4.127   1.634
 1463TIP3    H2 4396   3.996   4.011   1.643
 1464TIP3   OH2 4397   4.763   5.039   2.483
 1464TIP3    H1 4398   4.701   5.063   2.552
 1464TIP3    H2 4399   4.829   5.108   2.485
 1465TIP3   OH2 4400   4.260   5.077   2.458
 1465TIP3    H1 4401   4.208   5.012   2.507
 1465TIP3    H2 4402   4.299   5.132   2.526
 1466TIP3   OH2 4403   5.965   5.877   1.055
 1466TIP3    H1 4404   5.919   5.801   1.021
 1466TIP3    H2 4405   5.905   5.914   1.121
 1467TIP3   OH2 4406   5.130   1.240   3.208
 1467TIP3    H1 4407   5.098   1.326   3.182
 1467TIP3    H2 4408   5.057   1.181   3.191
 1468TIP3   OH2 4409   2.058   4.282   3.017
 1468TIP3    H1 4410   1.988   4.276   3.082
 1468TIP3    H2 4411   2.029   4.351   2.957
 1469TIP3   OH2 4412   4.249   1.907   4.211
 1469TIP3    H1 4413   4.158   1.878   4.211
 1469TIP3    H2 4414   4.274   1.906   4.303
 1470TIP3   OH2 4415   5.711   2.585   4.457
 1470TIP3    H1 4416   5.690   2.676   4.479
 1470TIP3    H2 4417   5.697   2.536   4.538
 1471TIP3   OH2 4418   3.964   5.602   2.924
 1471TIP3    H1 4419   3.936   5.688   2.892
 1471TIP3    H2 4420   4.005   5.620   3.008
 1472TIP3   OH2 4421   4.049   3.569   1.965
 1472TIP3    H1 4422   4.093   3.599   2.045
 1472TIP3    H2 4423   4.095   3.490   1.940
 1473TIP3   OH2 4424   5.961   1.845   1.678
 1473TIP3    H1 4425   6.034   1.901   1.652
 1473TIP3    H2 4426   5.901   1.849   1.604
 1474TIP3   OH2 4427   0.955   1.369   2.357
 1474TIP3    H1 4428   0.872   1.377   2.311
 1474TIP3    H2 4429   0.932   1.384   2.449
 1475TIP3   OH2 4430   4.567   0.237   3.834
 1475TIP3    H1 4431   4.475   0.214   3.842
 1475TIP3    H2 4432   4.567   0.324   3.795
 1476TIP3   OH2 4433   2.955   4.015   1.361
 1476TIP3    H1 4434   3.004   4.016   1.279
 1476TIP3    H2 4435   3.022   4.023   1.429
 1477TIP3   OH2 4436   4.356   5.778   4.707
 1477TIP3    H1 4437   4.350   5.683   4.697
 1477TIP3    H2 4438   4.437   5.802   4.662
 1478TIP3   OH2 4439   3.117   2.733   3.884
 1478TIP3    H1 4440   3.207   2.709   3.861
 1478TIP3    H2 4441   3.123   2.823   3.914
 1479TIP3   OH2 4442   1.422   5.737   4.833
 1479TIP3    H1 4443   1.346   5.769   4.881
 1479TIP3    H2 4444   1.409   5.642   4.829
 1480TIP3   OH2 4445   2.072   2.473   4.598
 1480TIP3    H1 4446   2.134   2.503   4.664
 1480TIP3    H2 4447   2.009   2.544   4.590
 1481TIP3   OH2 4448   4.934   0.280   4.392
 1481TIP3    H1 4449   4.894   0.193   4.398
 1481TIP3    H2 4450   4.941   0.296   4.298
 1482TIP3   OH2 4451   2.461   3.750   2.557
 1482TIP3    H1 4452   2.529   3.700   2.513
 1482TIP3    H2 4453   2.508   3.811   2.614
 1483TIP3   OH2 4454   4.783   3.884   0.769
 1483TIP3    H1 4455   4.838   3.883   0.847
 1483TIP3    H2 4456   4.836   3.839   0.703
 1484TIP3   OH2 4457   3.250   0.028   5.068
 1484TIP3    H1 4458   3.341   0.012   5.094
 1484TIP3    H2 4459   3.234   0.119   5.091
 1485TIP3   OH2 4460   1.968   4.781   5.145
 1485TIP3    H1 4461   2.058   4.794   5.177
 1485TIP3    H2 4462   1.979   4.728   5.065
 1486TIP3   OH2 4463   3.700   3.454   5.010
 1486TIP3    H1 4464   3.771   3.438   5.072
 1486TIP3    H2 4465   3.743   3.463   4.925
 1487TIP3   OH2 4466   6.057   4.181   4.736
 1487TIP3    H1 4467   6.050   4.139   4.650
 1487TIP3    H2 4468   6.073   4.108   4.796
 1488TIP3   OH2 4469   1.526   0.339   4.148
 1488TIP3    H1 4470   1.577   0.312   4.224
 1488TIP3    H2 4471   1.440   0.361   4.183
 1489TIP3   OH2 4472   3.776   2.460   2.384
 1489TIP3    H1 4473   3.864   2.423   2.392
 1489TIP3    H2 4474   3.778   2.539   2.439
 1490TIP3   OH2 4475   3.623   4.132   2.091
 1490TIP3    H1 4476   3.697   4.165   2.041
 1490TIP3    H2 4477   3.564   4.095   2.025
 1491TIP3   OH2 4478   5.236   3.115   4.513
 1491TIP3    H1 4479   5.292   3.165   4.572
 1491TIP3    H2 4480   5.285   3.111   4.431
 1492TIP3   OH2 4481   2.827   2.943   0.744
 1492TIP3    H1 4482   2.898   3.001   0.773
 1492TIP3    H2 4483   2.800   2.898   0.824
 1493TIP3   OH2 4484   2.084   5.360   2.754
 1493TIP3    H1 4485   2.169   5.370   2.711
 1493TIP3    H2 4486   2.063   5.267   2.744
 1494TIP3   OH2 4487   5.383   0.293   2.239
 1494TIP3    H1 4488   5.404   0.274   2.330
 1494TIP3    H2 4489   5.433   0.372   2.219
 1495TIP3   OH2 4490   4.285   5.527   1.175
 1495TIP3    H1 4491   4.310   5.509   1.084
 1495TIP3    H2 4492   4.190   5.517   1.176
 1496TIP3   OH2 4493   3.533   3.346   0.583
 1496TIP3    H1 4494   3.535   3.266   0.530
 1496TIP3    H2 4495   3.574   3.320   0.666
 1497TIP3   OH2 4496   2.541   1.938   1.155
 1497TIP3    H1 4497   2.473   1.987   1.201
 1497TIP3    H2 4498   2.509   1.931   1.065
 1498TIP3   OH2 4499   1.871   3.062   3.680
 1498TIP3    H1 4500   1.928   3.095   3.610
 1498TIP3    H2 4501   1.812   3.001   3.636
 1499TIP3   OH2 4502   0.130   5.434   2.211
 1499TIP3    H1 4503   0.081   5.396   2.138
 1499TIP3    H2 4504   0.104   5.526   2.212
 1500TIP3   OH2 4505   5.122   4.042   1.858
 1500TIP3    H1 4506   5.043   4.091   1.878
 1500TIP3    H2 4507   5.091   3.958   1.825
 1501TIP3   OH2 4508   0.152   0.720   1.146
 1501TIP3    H1 4509   0.223   0.683   1.198
 1501TIP3    H2 4510   0.190   0.798   1.105
 1502TIP3   OH2 4511   1.125   0.945   1.401
 1502TIP3    H1 4512   1.186   0.926   1.472
 1502TIP3    H2 4513   1.064   0.872   1.401
 1503TIP3   OH2 4514   3.199   3.148   4.435
 1503TIP3    H1 4515   3.146   3.141   4.515
 1503TIP3    H2 4516   3.180   3.235   4.401
 1504TIP3   OH2 4517   2.517   0.688   3.149
 1504TIP3    H1 4518   2.528   0.757   3.215
 1504TIP3    H2 4519   2.567   0.614   3.183
 1505TIP3   OH2 4520   5.060   0.166   4.649
 1505TIP3    H1 4521   5.035   0.222   4.575
 1505TIP3    H2 4522   5.046   0.077   4.617
 1506TIP3   OH2 4523   5.039   2.895   3.640
 1506TIP3    H1 4524   5.026   2.980   3.682
 1506TIP3    H2 4525   4.981   2.835   3.686
 1507TIP3   OH2 4526   0.623   4.261   4.516
 1507TIP3    H1 4527   0.628   4.177   4.471
 1507TIP3    H2 4528   0.547   4.252   4.575
 1508TIP3   OH2 4529   1.320   3.659   2.012
 1508TIP3    H1 4530   1.414   3.668   1.995
 1508TIP3    H2 4531   1.301   3.723   2.080
 1509TIP3   OH2 4532   5.789   5.407   2.804
 1509TIP3    H1 4533   5.809   5.384   2.895
 1509TIP3    H2 4534   5.870   5.388   2.756
 1510TIP3   OH2 4535   5.360   2.759   0.676
 1510TIP3    H1 4536   5.315   2.679   0.701
 1510TIP3    H2 4537   5.437   2.730   0.628
 1511TIP3   OH2 4538   5.141   5.197   0.294
 1511TIP3    H1 4539   5.091   5.273   0.263
 1511TIP3    H2 4540   5.209   5.234   0.350
 1512TIP3   OH2 4541   0.392   2.284   0.150
 1512TIP3    H1 4542   0.333   2.357   0.130
 1512TIP3    H2 4543   0.462   2.291   0.085
 1513TIP3   OH2 4544   2.063   0.170   2.863
 1513TIP3    H1 4545   2.116   0.100   2.901
 1513TIP3    H2 4546   2.018   0.210   2.937
 1514TIP3   OH2 4547   3.656   1.779   4.739
 1514TIP3    H1 4548   3.577   1.733   4.768
 1514TIP3    H2 4549   3.714   1.710   4.708
 1515TIP3   OH2 4550   6.297   4.214   2.272
 1515TIP3    H1 4551   6.366   4.267   2.313
 1515TIP3    H2 4552   6.337   4.180   2.192
 1516TIP3   OH2 4553   5.193   5.434   3.759
 1516TIP3    H1 4554   5.224   5.401   3.675
 1516TIP3    H2 4555   5.099   5.449   3.746
 1517TIP3   OH2 4556   1.234   5.357   5.013
 1517TIP3    H1 4557   1.322   5.364   5.050
 1517TIP3    H2 4558   1.240   5.400   4.928
 1518TIP3   OH2 4559   1.889   4.762   2.962
 1518TIP3    H1 4560   1.849   4.758   2.875
 1518TIP3    H2 4561   1.853   4.687   3.009
 1519TIP3   OH2 4562   1.960   5.100   4.667
 1519TIP3    H1 4563   1.998   5.186   4.651
 1519TIP3    H2 4564   1.868   5.118   4.688
 1520TIP3   OH2 4565   2.197   4.140   0.737
 1520TIP3    H1 4566   2.217   4.220   0.688
 1520TIP3    H2 4567   2.275   4.086   0.727
 1521TIP3   OH2 4568   3.819   0.691   3.774
 1521TIP3    H1 4569   3.809   0.664   3.682
 1521TIP3    H2 4570   3.730   0.690   3.809
 1522TIP3   OH2 4571   1.469   5.207   1.593
 1522TIP3    H1 4572   1.513   5.274   1.542
 1522TIP3    H2 4573   1.429   5.255   1.666
 1523TIP3   OH2 4574   0.169   3.941   2.574
 1523TIP3    H1 4575   0.258   3.956   2.543
 1523TIP3    H2 4576   0.117   3.931   2.495
 1524TIP3   OH2 4577   4.978   0.836   0.264
 1524TIP3    H1 4578   5.021   0.848   0.180
 1524TIP3    H2 4579   5.019   0.901   0.322
 1525TIP3   OH2 4580   2.350   5.394   0.506
 1525TIP3    H1 4581   2.432   5.347   0.517
 1525TIP3    H2 4582   2.282   5.330   0.527
 1526TIP3   OH2 4583   0.889   3.089   2.104
 1526TIP3    H1 4584   0.975   3.051   2.120
 1526TIP3    H2 4585   0.879   3.087   2.008
 1527TIP3   OH2 4586   4.384   5.916   4.953
 1527TIP3    H1 4587   4.424   6.000   4.931
 1527TIP3    H2 4588   4.364   5.876   4.868
 1528TIP3   OH2 4589   1.357   4.872   0.287
 1528TIP3    H1 4590   1.391   4.869   0.198
 1528TIP3    H2 4591   1.343   4.780   0.310
 1529TIP3   OH2 4592   1.225   1.271   3.734
 1529TIP3    H1 4593   1.235   1.320   3.652
 1529TIP3    H2 4594   1.302   1.296   3.785
 1530TIP3   OH2 4595   4.408   4.688   2.652
 1530TIP3    H1 4596   4.501   4.708   2.659
 1530TIP3    H2 4597   4.391   4.688   2.557
 1531TIP3   OH2 4598   4.763   3.136   4.653
 1531TIP3    H1 4599   4.849   3.152   4.616
 1531TIP3    H2 4600   4.732   3.223   4.680
 1532TIP3   OH2 4601   2.464   3.055   2.176
 1532TIP3    H1 4602   2.536   3.061   2.240
 1532TIP3    H2 4603   2.459   3.143   2.138
 1533TIP3   OH2 4604   2.832   4.365   3.138
 1533TIP3    H1 4605   2.795   4.279   3.118
 1533TIP3    H2 4606   2.925   4.356   3.118
 1534TIP3   OH2 4607   0.536   0.539   4.162
 1534TIP3    H1 4608   0.559   0.476   4.095
 1534TIP3    H2 4609   0.492   0.487   4.230
 1535TIP3   OH2 4610   1.242   0.097   1.544
 1535TIP3    H1 4611   1.319   0.145   1.572
 1535TIP3    H2 4612   1.238   0.021   1.602
 1536TIP3   OH2 4613   3.219   4.876   0.848
 1536TIP3    H1 4614   3.240   4.838   0.763
 1536TIP3    H2 4615   3.301   4.873   0.898
 1537TIP3   OH2 4616   5.760   5.023   3.987
 1537TIP3    H1 4617   5.844   4.987   4.016
 1537TIP3    H2 4618   5.778   5.117   3.974
 1538TIP3   OH2 4619   5.749   1.646   3.940
 1538TIP3    H1 4620   5.720   1.681   3.856
 1538TIP3    H2 4621   5.845   1.640   3.932
 1539TIP3   OH2 4622   0.060   2.629   0.985
 1539TIP3    H1 4623   0.058   2.641   1.080
 1539TIP3    H2 4624  -0.025   2.593   0.963
 1540TIP3   OH2 4625   3.796   0.504   0.777
 1540TIP3    H1 4626   3.760   0.505   0.689
 1540TIP3    H2 4627   3.720   0.497   0.835
 1541TIP3   OH2 4628   3.688   3.809   4.791
 1541TIP3    H1 4629   3.593   3.798   4.792
 1541TIP3    H2 4630   3.701   3.903   4.781
 1542TIP3   OH2 4631   0.232   4.851   1.192
 1542TIP3    H1 4632   0.294   4.795   1.146
 1542TIP3    H2 4633   0.244   4.937   1.152
 1543TIP3   OH2 4634   0.762   3.573   1.880
 1543TIP3    H1 4635   0.705   3.496   1.893
 1543TIP3    H2 4636   0.819   3.548   1.808
 1544TIP3   OH2 4637   5.207   1.499   4.503
 1544TIP3    H1 4638   5.215   1.549   4.421
 1544TIP3    H2 4639   5.294   1.503   4.543
 1545TIP3   OH2 4640   2.372   2.724   3.533
 1545TIP3    H1 4641   2.300   2.787   3.529
 1545TIP3    H2 4642   2.450   2.778   3.550
 1546TIP3   OH2 4643   5.155   1.026   5.150
 1546TIP3    H1 4644   5.138   0.932   5.151
 1546TIP3    H2 4645   5.106   1.059   5.075
 1547TIP3   OH2 4646   6.334   0.400   3.422
 1547TIP3    H1 4647   6.377   0.476   3.462
 1547TIP3    H2 4648   6.257   0.437   3.378
 1548TIP3   OH2 4649   1.818   4.494   1.854
 1548TIP3    H1 4650   1.752   4.437   1.815
 1548TIP3    H2 4651   1.828   4.463   1.944
 1549TIP3   OH2 4652   0.118   2.439   0.393
 1549TIP3    H1 4653   0.165   2.522   0.393
 1549TIP3    H2 4654   0.067   2.440   0.474
 1550TIP3   OH2 4655   2.642   0.228   4.099
 1550TIP3    H1 4656   2.616   0.136   4.092
 1550TIP3    H2 4657   2.735   0.228   4.074
 1551TIP3   OH2 4658   2.474   3.133   0.793
 1551TIP3    H1 4659   2.408   3.161   0.730
 1551TIP3    H2 4660   2.442   3.047   0.824
 1552TIP3   OH2 4661   2.939   2.869   2.820
 1552TIP3    H1 4662   3.022   2.841   2.858
 1552TIP3    H2 4663   2.887   2.900   2.894
 1553TIP3   OH2 4664   5.561  -0.040   3.874
 1553TIP3    H1 4665   5.596   0.042   3.908
 1553TIP3    H2 4666   5.635  -0.081   3.830
 1554TIP3   OH2 4667   3.712   2.685   1.322
 1554TIP3    H1 4668   3.673   2.772   1.307
 1554TIP3    H2 4669   3.666   2.627   1.262
 1555TIP3   OH2 4670   2.145   1.454   3.932
 1555TIP3    H1 4671   2.134   1.541   3.894
 1555TIP3    H2 4672   2.064   1.407   3.909
 1556TIP3   OH2 4673   4.581   5.893   0.771
 1556TIP3    H1 4674   4.581   5.986   0.748
 1556TIP3    H2 4675   4.494   5.876   0.805
 1557TIP3   OH2 4676   4.065   0.752   2.513
 1557TIP3    H1 4677   4.021   0.672   2.485
 1557TIP3    H2 4678   4.035   0.818   2.451
 1558TIP3   OH2 4679   0.055   2.614   0.081
 1558TIP3    H1 4680   0.074   2.560   0.004
 1558TIP3    H2 4681   0.140   2.636   0.117
 1559TIP3   OH2 4682   0.906   5.905   2.236
 1559TIP3    H1 4683   0.865   5.839   2.180
 1559TIP3    H2 4684   0.839   5.972   2.248
 1560TIP3   OH2 4685   5.019   1.637   1.637
 1560TIP3    H1 4686   5.009   1.647   1.731
 1560TIP3    H2 4687   4.983   1.718   1.600
 1561TIP3   OH2 4688   5.790   3.657   1.123
 1561TIP3    H1 4689   5.847   3.714   1.071
 1561TIP3    H2 4690   5.706   3.702   1.126
 1562TIP3   OH2 4691   4.465   3.399   1.236
 1562TIP3    H1 4692   4.484   3.358   1.321
 1562TIP3    H2 4693   4.492   3.490   1.248
 1563TIP3   OH2 4694   3.837   3.800   4.241
 1563TIP3    H1 4695   3.865   3.822   4.330
 1563TIP3    H2 4696   3.916   3.764   4.199
 1564TIP3   OH2 4697   3.908   5.557   3.209
 1564TIP3    H1 4698   3.850   5.608   3.153
 1564TIP3    H2 4699   3.890   5.590   3.298
 1565TIP3   OH2 4700   3.429   3.357   3.872
 1565TIP3    H1 4701   3.460   3.372   3.961
 1565TIP3    H2 4702   3.490   3.406   3.817
 1566TIP3   OH2 4703   1.999   1.432   4.272
 1566TIP3    H1 4704   2.066   1.486   4.232
 1566TIP3    H2 4705   1.934   1.494   4.304
 1567TIP3   OH2 4706   1.612   3.520   2.728
 1567TIP3    H1 4707   1.536   3.572   2.700
 1567TIP3    H2 4708   1.645   3.564   2.805
 1568TIP3   OH2 4709   2.962   4.268   0.083
 1568TIP3    H1 4710   2.875   4.271   0.124
 1568TIP3    H2 4711   3.022   4.290   0.154
 1569TIP3   OH2 4712   0.318   0.360   4.693
 1569TIP3    H1 4713   0.365   0.303   4.633
 1569TIP3    H2 4714   0.226   0.343   4.675
 1570TIP3   OH2 4715   5.107   3.759   0.908
 1570TIP3    H1 4716   5.038   3.706   0.867
 1570TIP3    H2 4717   5.065   3.843   0.926
 1571TIP3   OH2 4718   4.610   5.792   4.156
 1571TIP3    H1 4719   4.533   5.751   4.116
 1571TIP3    H2 4720   4.644   5.851   4.089
 1572TIP3   OH2 4721   3.171   3.329   2.704
 1572TIP3    H1 4722   3.243   3.274   2.673
 1572TIP3    H2 4723   3.162   3.306   2.797
 1573TIP3   OH2 4724   6.058   0.114   2.553
 1573TIP3    H1 4725   6.107   0.114   2.635
 1573TIP3    H2 4726   6.002   0.192   2.557
 1574TIP3   OH2 4727   1.901   2.718   3.440
 1574TIP3    H1 4728   1.853   2.774   3.379
 1574TIP3    H2 4729   1.954   2.778   3.492
 1575TIP3   OH2 4730   5.082   2.475   1.126
 1575TIP3    H1 4731   5.156   2.533   1.148
 1575TIP3    H2 4732   5.124   2.392   1.101
 1576TIP3   OH2 4733   4.142   5.548   1.939
 1576TIP3    H1 4734   4.216   5.608   1.951
 1576TIP3    H2 4735   4.080   5.597   1.885
 1577TIP3   OH2 4736   2.329   4.316   2.945
 1577TIP3    H1 4737   2.241   4.301   2.979
 1577TIP3    H2 4738   2.386   4.264   3.001
 1578TIP3   OH2 4739   0.594   2.057   4.559
 1578TIP3    H1 4740   0.667   2.118   4.561
 1578TIP3    H2 4741   0.516   2.112   4.559
 1579TIP3   OH2 4742   5.778   0.086   3.398
 1579TIP3    H1 4743   5.684   0.066   3.396
 1579TIP3    H2 4744   5.818   0.018   3.344
 1580TIP3   OH2 4745   1.487   4.407   2.470
 1580TIP3    H1 4746   1.551   4.474   2.493
 1580TIP3    H2 4747   1.478   4.414   2.375
 1581TIP3   OH2 4748   6.003   2.277   3.900
 1581TIP3    H1 4749   6.038   2.193   3.870
 1581TIP3    H2 4750   5.932   2.252   3.960
 1582TIP3   OH2 4751   1.504   0.052   3.234
 1582TIP3    H1 4752   1.505   0.047   3.139
 1582TIP3    H2 4753   1.530   0.143   3.253
 1583TIP3   OH2 4754   6.267   5.805   3.366
 1583TIP3    H1 4755   6.229   5.853   3.292
 1583TIP3    H2 4756   6.280   5.871   3.434
 1584TIP3   OH2 4757   2.806   4.037   2.547
 1584TIP3    H1 4758   2.754   3.972   2.500
 1584TIP3    H2 4759   2.867   4.071   2.481
 1585TIP3   OH2 4760   5.338   2.258   3.278
 1585TIP3    H1 4761   5.417   2.255   3.333
 1585TIP3    H2 4762   5.370   2.285   3.192
 1586TIP3   OH2 4763   0.481   5.002   2.159
 1586TIP3    H1 4764   0.403   4.951   2.183
 1586TIP3    H2 4765   0.551   4.938   2.154
 1587TIP3   OH2 4766   2.877   1.697   4.149
 1587TIP3    H1 4767   2.913   1.609   4.160
 1587TIP3    H2 4768   2.949   1.756   4.172
 1588TIP3   OH2 4769   1.628   1.662   0.894
 1588TIP3    H1 4770   1.556   1.629   0.948
 1588TIP3    H2 4771   1.665   1.584   0.852
 1589TIP3   OH2 4772   4.575   0.141   0.339
 1589TIP3    H1 4773   4.541   0.119   0.252
 1589TIP3    H2 4774   4.523   0.216   0.367
 1590TIP3   OH2 4775   0.053   3.891   3.272
 1590TIP3    H1 4776   0.132   3.933   3.306
 1590TIP3    H2 4777   0.078   3.799   3.261
 1591TIP3   OH2 4778   2.245   2.662   1.074
 1591TIP3    H1 4779   2.317   2.707   1.030
 1591TIP3    H2 4780   2.198   2.618   1.004
 1592TIP3   OH2 4781   3.505   2.922   1.836
 1592TIP3    H1 4782   3.425   2.875   1.859
 1592TIP3    H2 4783   3.480   3.015   1.841
 1593TIP3   OH2 4784   4.047   2.181   3.176
 1593TIP3    H1 4785   3.993   2.103   3.190
 1593TIP3    H2 4786   3.986   2.248   3.146
 1594TIP3   OH2 4787   1.732   2.711   2.890
 1594TIP3    H1 4788   1.711   2.804   2.887
 1594TIP3    H2 4789   1.804   2.701   2.827
 1595TIP3   OH2 4790   1.655   3.174   1.603
 1595TIP3    H1 4791   1.637   3.137   1.517
 1595TIP3    H2 4792   1.744   3.209   1.596
 1596TIP3   OH2 4793   2.189   5.844   2.922
 1596TIP3    H1 4794   2.184   5.939   2.911
 1596TIP3    H2 4795   2.098   5.814   2.915
 1597TIP3   OH2 4796   3.244   1.150   0.344
 1597TIP3    H1 4797   3.331   1.121   0.374
 1597TIP3    H2 4798   3.208   1.073   0.300
 1598TIP3   OH2 4799   3.138   3.264   0.141
 1598TIP3    H1 4800   3.091   3.181   0.146
 1598TIP3    H2 4801   3.072   3.328   0.114
 1599TIP3   OH2 4802   5.650   4.746   0.121
 1599TIP3    H1 4803   5.663   4.841   0.121
 1599TIP3    H2 4804   5.696   4.715   0.199
 1600TIP3   OH2 4805   4.268   2.358   4.886
 1600TIP3    H1 4806   4.174   2.344   4.900
 1600TIP3    H2 4807   4.309   2.320   4.964
 1601TIP3   OH2 4808   4.938   2.736   4.546
 1601TIP3    H1 4809   4.980   2.804   4.493
 1601TIP3    H2 4810   5.005   2.711   4.610
 1602TIP3   OH2 4811   2.681   0.173   0.177
 1602TIP3    H1 4812   2.603   0.122   0.158
 1602TIP3    H2 4813   2.648   0.254   0.216
 1603TIP3   OH2 4814   0.945   1.289   0.082
 1603TIP3    H1 4815   0.995   1.282   0.164
 1603TIP3    H2 4816   1.011   1.308   0.016
 1604TIP3   OH2 4817   4.201   0.074   2.617
 1604TIP3    H1 4818   4.224   0.026   2.537
 1604TIP3    H2 4819   4.164   0.008   2.675
 1605TIP3   OH2 4820   1.307   5.869   2.516
 1605TIP3    H1 4821   1.220   5.906   2.504
 1605TIP3    H2 4822   1.299   5.813   2.593
 1606TIP3   OH2 4823   2.978   5.611   4.343
 1606TIP3    H1 4824   2.928   5.533   4.320
 1606TIP3    H2 4825   3.067   5.593   4.312
 1607TIP3   OH2 4826   3.086   1.403   0.810
 1607TIP3    H1 4827   3.161   1.405   0.750
 1607TIP3    H2 4828   3.024   1.342   0.769
 1608TIP3   OH2 4829   4.512   4.296   1.092
 1608TIP3    H1 4830   4.556   4.267   1.012
 1608TIP3    H2 4831   4.576   4.281   1.161
 1609TIP3   OH2 4832   2.956   3.563   3.894
 1609TIP3    H1 4833   2.981   3.508   3.820
 1609TIP3    H2 4834   2.910   3.503   3.954
 1610TIP3   OH2 4835   6.090   3.541   1.196
 1610TIP3    H1 4836   6.064   3.461   1.151
 1610TIP3    H2 4837   6.011   3.595   1.196
 1611TIP3   OH2 4838   3.029   3.977   4.171
 1611TIP3    H1 4839   2.998   3.909   4.231
 1611TIP3    H2 4840   3.048   3.930   4.090
 1612TIP3   OH2 4841   3.898   4.461   3.512
 1612TIP3    H1 4842   3.869   4.374   3.483
 1612TIP3    H2 4843   3.851   4.522   3.456
 1613TIP3   OH2 4844   0.876   4.025   4.719
 1613TIP3    H1 4845   0.919   3.959   4.774
 1613TIP3    H2 4846   0.904   4.109   4.757
 1614TIP3   OH2 4847   1.935   1.068   1.396
 1614TIP3    H1 4848   1.855   1.028   1.430
 1614TIP3    H2 4849   1.941   1.152   1.442
 1615TIP3   OH2 4850   3.355   4.699   4.052
 1615TIP3    H1 4851   3.420   4.766   4.073
 1615TIP3    H2 4852   3.375   4.627   4.113
 1616TIP3   OH2 4853   3.027   3.974   1.093
 1616TIP3    H1 4854   3.108   3.943   1.054
 1616TIP3    H2 4855   2.981   3.895   1.121
 1617TIP3   OH2 4856   0.230   0.857   4.062
 1617TIP3    H1 4857   0.320   0.850   4.032
 1617TIP3    H2 4858   0.222   0.948   4.093
 1618TIP3   OH2 4859   4.602   3.206   3.336
 1618TIP3    H1 4860   4.638   3.285   3.376
 1618TIP3    H2 4861   4.508   3.211   3.353
 1619TIP3   OH2 4862   4.880   4.181   1.945
 1619TIP3    H1 4863   4.821   4.157   2.016
 1619TIP3    H2 4864   4.823   4.208   1.873
 1620TIP3   OH2 4865   2.784   3.305   5.130
 1620TIP3    H1 4866   2.846   3.352   5.186
 1620TIP3    H2 4867   2.815   3.214   5.131
 1621TIP3   OH2 4868   0.508   4.912   1.684
 1621TIP3    H1 4869   0.476   5.001   1.674
 1621TIP3    H2 4870   0.505   4.875   1.596
 1622TIP3   OH2 4871   6.031   0.653   4.228
 1622TIP3    H1 4872   6.011   0.693   4.143
 1622TIP3    H2 4873   5.946   0.623   4.261
 1623TIP3   OH2 4874   0.924   3.025   3.269
 1623TIP3    H1 4875   0.947   2.933   3.252
 1623TIP3    H2 4876   0.961   3.073   3.196
 1624TIP3   OH2 4877   0.774   0.809   3.386
 1624TIP3    H1 4878   0.779   0.760   3.304
 1624TIP3    H2 4879   0.857   0.856   3.391
 1625TIP3   OH2 4880   0.909   1.014   0.843
 1625TIP3    H1 4881   0.870   1.075   0.780
 1625TIP3    H2 4882   0.974   1.066   0.890
 1626TIP3   OH2 4883   0.881   4.476   4.211
 1626TIP3    H1 4884   0.855   4.430   4.131
 1626TIP3    H2 4885   0.845   4.564   4.202
 1627TIP3   OH2 4886   1.601   3.478   4.901
 1627TIP3    H1 4887   1.660   3.551   4.883
 1627TIP3    H2 4888   1.547   3.507   4.974
 1628TIP3   OH2 4889   0.184   1.119   3.718
 1628TIP3    H1 4890   0.172   1.193   3.777
 1628TIP3    H2 4891   0.168   1.042   3.773
 1629TIP3   OH2 4892   6.093   1.100   4.496
 1629TIP3    H1 4893   6.102   1.012   4.459
 1629TIP3    H2 4894   6.145   1.097   4.577
 1630TIP3   OH2 4895   4.705   0.779   1.191
 1630TIP3    H1 4896   4.683   0.872   1.181
 1630TIP3    H2 4897   4.744   0.773   1.278
 1631TIP3   OH2 4898   5.393   5.883   1.969
 1631TIP3    H1 4899   5.466   5.945   1.959
 1631TIP3    H2 4900   5.435   5.798   1.980
 1632TIP3   OH2 4901   5.627   1.539   0.506
 1632TIP3    H1 4902   5.568   1.464   0.502
 1632TIP3    H2 4903   5.622   1.569   0.597
 1633TIP3   OH2 4904   1.310   5.108   0.081
 1633TIP3    H1 4905   1.282   5.172   0.015
 1633TIP3    H2 4906   1.400   5.133   0.102
 1634TIP3   OH2 4907   3.889   5.964   1.423
 1634TIP3    H1 4908   3.974   6.004   1.445
 1634TIP3    H2 4909   3.887   5.884   1.475
 1635TIP3   OH2 4910   3.061   4.685   4.897
 1635TIP3    H1 4911   3.053   4.771   4.857
 1635TIP3    H2 4912   3.128   4.695   4.965
 1636TIP3   OH2 4913   1.639   2.008   2.922
 1636TIP3    H1 4914   1.549   2.037   2.904
 1636TIP3    H2 4915   1.629   1.943   2.991
 1637TIP3   OH2 4916   3.084   1.565   2.555
 1637TIP3    H1 4917   3.137   1.577   2.477
 1637TIP3    H2 4918   3.045   1.478   2.545
 1638TIP3   OH2 4919   4.544   2.264   4.647
 1638TIP3    H1 4920   4.589   2.182   4.627
 1638TIP3    H2 4921   4.551   2.273   4.742
 1639TIP3   OH2 4922   4.513   5.365   3.284
 1639TIP3    H1 4923   4.531   5.301   3.354
 1639TIP3    H2 4924   4.569   5.440   3.306
 1640TIP3   OH2 4925   5.733   2.435   0.849
 1640TIP3    H1 4926   5.755   2.529   0.847
 1640TIP3    H2 4927   5.809   2.394   0.890
 1641TIP3   OH2 4928   3.268   4.882   2.492
 1641TIP3    H1 4929   3.295   4.815   2.429
 1641TIP3    H2 4930   3.313   4.859   2.573
 1642TIP3   OH2 4931   6.087   3.950   1.174
 1642TIP3    H1 4932   6.059   3.942   1.084
 1642TIP3    H2 4933   6.039   4.026   1.208
 1643TIP3   OH2 4934   1.757   1.653   0.004
 1643TIP3    H1 4935   1.743   1.578  -0.054
 1643TIP3    H2 4936   1.832   1.628   0.057
 1644TIP3   OH2 4937   3.295   2.994   3.630
 1644TIP3    H1 4938   3.389   3.007   3.621
 1644TIP3    H2 4939   3.268   3.056   3.698
 1645TIP3   OH2 4940   5.934   4.148   1.997
 1645TIP3    H1 4941   5.838   4.138   1.998
 1645TIP3    H2 4942   5.959   4.140   2.089
 1646TIP3   OH2 4943   5.080   3.458   0.045
 1646TIP3    H1 4944   5.067   3.477  -0.048
 1646TIP3    H2 4945   5.001   3.490   0.088
 1647TIP3   OH2 4946   6.203   3.511   2.747
 1647TIP3    H1 4947   6.111   3.535   2.754
 1647TIP3    H2 4948   6.250   3.594   2.739
 1648TIP3   OH2 4949   1.441   5.946   1.190
 1648TIP3    H1 4950   1.416   5.904   1.108
 1648TIP3    H2 4951   1.501   5.884   1.232
 1649TIP3   OH2 4952   3.773   0.096   2.128
 1649TIP3    H1 4953   3.678   0.095   2.142
 1649TIP3    H2 4954   3.795   0.005   2.109
 1650TIP3   OH2 4955   0.354   0.842   0.745
 1650TIP3    H1 4956   0.374   0.838   0.838
 1650TIP3    H2 4957   0.439   0.854   0.703
 1651TIP3   OH2 4958   1.976   2.683   0.139
 1651TIP3    H1 4959   1.937   2.758   0.185
 1651TIP3    H2 4960   2.058   2.717   0.103
 1652TIP3   OH2 4961   4.920   1.987   2.094
 1652TIP3    H1 4962   4.860   2.011   2.165
 1652TIP3    H2 4963   4.874   2.012   2.014
 1653TIP3   OH2 4964   5.829   0.896   1.583
 1653TIP3    H1 4965   5.800   0.908   1.493
 1653TIP3    H2 4966   5.922   0.916   1.581
 1654TIP3   OH2 4967   5.782   3.917   3.473
 1654TIP3    H1 4968   5.709   3.934   3.532
 1654TIP3    H2 4969   5.859   3.942   3.522
 1655TIP3   OH2 4970   5.107   3.183   2.374
 1655TIP3    H1 4971   5.130   3.090   2.373
 1655TIP3    H2 4972   5.152   3.219   2.298
 1656TIP3   OH2 4973   3.300   3.614   2.414
 1656TIP3    H1 4974   3.217   3.644   2.376
 1656TIP3    H2 4975   3.285   3.522   2.436
 1657TIP3   OH2 4976   4.607   2.404   0.543
 1657TIP3    H1 4977   4.520   2.442   0.530
 1657TIP3    H2 4978   4.667   2.470   0.509
 1658TIP3   OH2 4979   5.416   2.911   3.116
 1658TIP3    H1 4980   5.431   2.931   3.208
 1658TIP3    H2 4981   5.504   2.904   3.078
 1659TIP3   OH2 4982   0.101   5.350   0.946
 1659TIP3    H1 4983   0.196   5.358   0.932
 1659TIP3    H2 4984   0.064   5.366   0.859
 1660TIP3   OH2 4985   3.583   1.673   0.711
 1660TIP3    H1 4986   3.569   1.739   0.779
 1660TIP3    H2 4987   3.600   1.724   0.631
 1661TIP3   OH2 4988   1.632   5.365   1.438
 1661TIP3    H1 4989   1.589   5.374   1.353
 1661TIP3    H2 4990   1.719   5.331   1.417
 1662TIP3   OH2 4991   2.219   1.285   3.418
 1662TIP3    H1 4992   2.287   1.351   3.404
 1662TIP3    H2 4993   2.193   1.258   3.329
 1663TIP3   OH2 4994   1.488   1.486   1.452
 1663TIP3    H1 4995   1.452   1.557   1.504
 1663TIP3    H2 4996   1.492   1.412   1.512
 1664TIP3   OH2 4997   2.307   3.400   2.048
 1664TIP3    H1 4998   2.322   3.321   1.997
 1664TIP3    H2 4999   2.389   3.449   2.043
 1665TIP3   OH2 5000   5.289   0.490   0.185
 1665TIP3    H1 5001   5.239   0.415   0.155
 1665TIP3    H2 5002   5.266   0.560   0.125
 1666TIP3   OH2 5003   5.305   4.122   3.307
 1666TIP3    H1 5004   5.217   4.141   3.340
 1666TIP3    H2 5005   5.294   4.046   3.249
 1667TIP3   OH2 5006   3.750   2.265   0.114
 1667TIP3    H1 5007   3.690   2.320   0.064
 1667TIP3    H2 5008   3.836   2.304   0.099
 1668TIP3   OH2 5009   0.665   5.460   2.753
 1668TIP3    H1 5010   0.662   5.492   2.843
 1668TIP3    H2 5011   0.573   5.450   2.728
 1669TIP3   OH2 5012   1.531   1.662   0.580
 1669TIP3    H1 5013   1.461   1.618   0.627
 1669TIP3    H2 5014   1.518   1.638   0.489
 1670TIP3   OH2 5015   2.045   0.479   4.781
 1670TIP3    H1 5016   2.126   0.523   4.806
 1670TIP3    H2 5017   2.073   0.393   4.749
 1671TIP3   OH2 5018   5.731   5.342   1.818
 1671TIP3    H1 5019   5.818   5.377   1.801
 1671TIP3    H2 5020   5.673   5.418   1.817
 1672TIP3   OH2 5021   0.418   2.563   2.646
 1672TIP3    H1 5022   0.339   2.589   2.694
 1672TIP3    H2 5023   0.490   2.594   2.700
 1673TIP3   OH2 5024   5.493   2.222   0.516
 1673TIP3    H1 5025   5.547   2.189   0.444
 1673TIP3    H2 5026   5.549   2.218   0.592
 1674TIP3   OH2 5027   5.757   2.964   0.266
 1674TIP3    H1 5028   5.737   3.054   0.241
 1674TIP3    H2 5029   5.804   2.927   0.191
 1675TIP3   OH2 5030   2.389   0.035   5.052
 1675TIP3    H1 5031   2.353   0.124   5.049
 1675TIP3    H2 5032   2.408   0.014   4.961
 1676TIP3   OH2 5033   4.763   5.604   1.017
 1676TIP3    H1 5034   4.701   5.677   1.025
 1676TIP3    H2 5035   4.837   5.641   0.969
 1677TIP3   OH2 5036   0.146   2.164   1.535
 1677TIP3    H1 5037   0.141   2.090   1.474
 1677TIP3    H2 5038   0.238   2.190   1.532
 1678TIP3   OH2 5039   1.627   1.979   1.891
 1678TIP3    H1 5040   1.703   2.035   1.878
 1678TIP3    H2 5041   1.617   1.973   1.986
 1679TIP3   OH2 5042   4.801   1.980   1.825
 1679TIP3    H1 5043   4.793   2.075   1.829
 1679TIP3    H2 5044   4.736   1.952   1.762
 1680TIP3   OH2 5045   3.480   1.805   0.223
 1680TIP3    H1 5046   3.557   1.760   0.190
 1680TIP3    H2 5047   3.498   1.898   0.210
 1681TIP3   OH2 5048   1.758   3.552   1.525
 1681TIP3    H1 5049   1.679   3.506   1.555
 1681TIP3    H2 5050   1.763   3.532   1.431
 1682TIP3   OH2 5051   4.607   5.775   5.026
 1682TIP3    H1 5052   4.529   5.823   4.998
 1682TIP3    H2 5053   4.661   5.841   5.070
 1683TIP3   OH2 5054   3.496   0.689   1.965
 1683TIP3    H1 5055   3.564   0.753   1.945
 1683TIP3    H2 5056   3.448   0.726   2.039
 1684TIP3   OH2 5057   3.805   1.350   2.274
 1684TIP3    H1 5058   3.754   1.429   2.258
 1684TIP3    H2 5059   3.751   1.298   2.334
 1685TIP3   OH2 5060   0.094   2.221   0.938
 1685TIP3    H1 5061   0.163   2.285   0.955
 1685TIP3    H2 5062   0.071   2.233   0.846
 1686TIP3   OH2 5063   3.293   5.224   1.294
 1686TIP3    H1 5064   3.303   5.265   1.208
 1686TIP3    H2 5065   3.248   5.141   1.276
 1687TIP3   OH2 5066   0.599   3.137   0.208
 1687TIP3    H1 5067   0.578   3.138   0.114
 1687TIP3    H2 5068   0.522   3.176   0.250
 1688TIP3   OH2 5069   5.848   3.379   1.547
 1688TIP3    H1 5070   5.815   3.384   1.636
 1688TIP3    H2 5071   5.930   3.428   1.549
 1689TIP3   OH2 5072   5.383   3.915   1.687
 1689TIP3    H1 5073   5.334   3.855   1.743
 1689TIP3    H2 5074   5.420   3.980   1.748
 1690TIP3   OH2 5075   4.446   4.838   4.573
 1690TIP3    H1 5076   4.475   4.792   4.652
 1690TIP3    H2 5077   4.521   4.833   4.513
 1691TIP3   OH2 5078   0.476   4.512   3.699
 1691TIP3    H1 5079   0.413   4.446   3.672
 1691TIP3    H2 5080   0.521   4.537   3.618
 1692TIP3   OH2 5081   3.262   4.698   5.073
 1692TIP3    H1 5082   3.264   4.602   5.080
 1692TIP3    H2 5083   3.274   4.728   5.163
 1693TIP3   OH2 5084   0.316   4.961   3.491
 1693TIP3    H1 5085   0.234   4.935   3.531
 1693TIP3    H2 5086   0.377   4.972   3.564
 1694TIP3   OH2 5087   5.359   3.361   4.240
 1694TIP3    H1 5088   5.450   3.384   4.220
 1694TIP3    H2 5089   5.360   3.339   4.334
 1695TIP3   OH2 5090   4.029   2.628   0.485
 1695TIP3    H1 5091   3.978   2.577   0.549
 1695TIP3    H2 5092   4.032   2.573   0.408
 1696TIP3   OH2 5093   2.194   0.510   2.529
 1696TIP3    H1 5094   2.250   0.544   2.598
 1696TIP3    H2 5095   2.245   0.520   2.449
 1697TIP3   OH2 5096   1.141   2.256   1.821
 1697TIP3    H1 5097   1.235   2.250   1.805
 1697TIP3    H2 5098   1.120   2.178   1.872
 1698TIP3   OH2 5099   1.900   5.632   1.981
 1698TIP3    H1 5100   1.925   5.551   2.024
 1698TIP3    H2 5101   1.837   5.605   1.913
 1699TIP3   OH2 5102   1.123   5.915   4.707
 1699TIP3    H1 5103   1.066   5.885   4.777
 1699TIP3    H2 5104   1.065   5.963   4.648
 1700TIP3   OH2 5105   5.448   3.280   1.485
 1700TIP3    H1 5106   5.429   3.371   1.508
 1700TIP3    H2 5107   5.500   3.286   1.405
 1701TIP3   OH2 5108   5.279   2.539  -0.008
 1701TIP3    H1 5109   5.257   2.509   0.081
 1701TIP3    H2 5110   5.332   2.468  -0.044
 1702TIP3   OH2 5111   2.839   5.146   0.498
 1702TIP3    H1 5112   2.862   5.127   0.589
 1702TIP3    H2 5113   2.850   5.063   0.452
 1703TIP3   OH2 5114   3.067   1.882   4.922
 1703TIP3    H1 5115   3.048   1.930   4.842
 1703TIP3    H2 5116   3.011   1.923   4.988
 1704TIP3   OH2 5117   5.346   0.152   4.621
 1704TIP3    H1 5118   5.337   0.210   4.546
 1704TIP3    H2 5119   5.260   0.154   4.663
 1705TIP3   OH2 5120   0.894   4.316   0.602
 1705TIP3    H1 5121   0.889   4.327   0.697
 1705TIP3    H2 5122   0.966   4.254   0.589
 1706TIP3   OH2 5123   3.173   2.661   2.219
 1706TIP3    H1 5124   3.190   2.627   2.131
 1706TIP3    H2 5125   3.187   2.755   2.212
 1707TIP3   OH2 5126   0.445   2.990   2.365
 1707TIP3    H1 5127   0.469   2.907   2.407
 1707TIP3    H2 5128   0.472   2.980   2.274
 1708TIP3   OH2 5129   0.991   2.390   2.880
 1708TIP3    H1 5130   1.002   2.299   2.907
 1708TIP3    H2 5131   1.029   2.441   2.952
 1709TIP3   OH2 5132   5.535   2.189   2.431
 1709TIP3    H1 5133   5.594   2.265   2.435
 1709TIP3    H2 5134   5.533   2.165   2.339
 1710TIP3   OH2 5135   1.331   0.581   1.122
 1710TIP3    H1 5136   1.385   0.660   1.114
 1710TIP3    H2 5137   1.246   0.613   1.152
 1711TIP3   OH2 5138   1.655   4.438   4.704
 1711TIP3    H1 5139   1.618   4.369   4.648
 1711TIP3    H2 5140   1.581   4.496   4.723
 1712TIP3   OH2 5141   4.072   1.846   3.712
 1712TIP3    H1 5142   4.093   1.781   3.645
 1712TIP3    H2 5143   4.149   1.846   3.770
 1713TIP3   OH2 5144   6.149   2.566   0.894
 1713TIP3    H1 5145   6.092   2.643   0.896
 1713TIP3    H2 5146   6.095   2.497   0.856
 1714TIP3   OH2 5147   2.637   1.785   2.935
 1714TIP3    H1 5148   2.666   1.841   3.006
 1714TIP3    H2 5149   2.706   1.719   2.926
 1715TIP3   OH2 5150   3.642   0.057   2.567
 1715TIP3    H1 5151   3.555   0.034   2.533
 1715TIP3    H2 5152   3.667  -0.016   2.623
 1716TIP3   OH2 5153   1.453   4.362   2.733
 1716TIP3    H1 5154   1.448   4.272   2.763
 1716TIP3    H2 5155   1.435   4.357   2.639
 1717TIP3   OH2 5156   2.985   0.848   0.980
 1717TIP3    H1 5157   2.908   0.865   0.924
 1717TIP3    H2 5158   3.012   0.935   1.009
 1718TIP3   OH2 5159   1.948   1.471   1.210
 1718TIP3    H1 5160   1.994   1.401   1.258
 1718TIP3    H2 5161   1.857   1.442   1.208
 1719TIP3   OH2 5162   3.961   2.422   3.981
 1719TIP3    H1 5163   3.925   2.356   4.039
 1719TIP3    H2 5164   4.015   2.477   4.038
 1720TIP3   OH2 5165   1.183   0.635   0.627
 1720TIP3    H1 5166   1.198   0.588   0.709
 1720TIP3    H2 5167   1.248   0.705   0.626
 1721TIP3   OH2 5168   4.157   5.232   4.055
 1721TIP3    H1 5169   4.200   5.191   3.980
 1721TIP3    H2 5170   4.227   5.278   4.101
 1722TIP3   OH2 5171   5.804   3.104   3.582
 1722TIP3    H1 5172   5.886   3.150   3.565
 1722TIP3    H2 5173   5.768   3.087   3.495
 1723TIP3   OH2 5174   5.349   0.755   2.054
 1723TIP3    H1 5175   5.437   0.765   2.018
 1723TIP3    H2 5176   5.322   0.845   2.074
 1724TIP3   OH2 5177   5.788   0.970   1.334
 1724TIP3    H1 5178   5.792   1.061   1.307
 1724TIP3    H2 5179   5.716   0.933   1.283
 1725TIP3   OH2 5180   4.515   0.478   3.707
 1725TIP3    H1 5181   4.506   0.482   3.612
 1725TIP3    H2 5182   4.557   0.561   3.731
 1726TIP3   OH2 5183   2.836   1.076   4.542
 1726TIP3    H1 5184   2.919   1.121   4.525
 1726TIP3    H2 5185   2.856   0.983   4.532
 1727TIP3   OH2 5186   6.189   1.682   3.471
 1727TIP3    H1 5187   6.247   1.758   3.474
 1727TIP3    H2 5188   6.215   1.630   3.547
 1728TIP3   OH2 5189   5.008   3.135   3.787
 1728TIP3    H1 5190   5.061   3.183   3.851
 1728TIP3    H2 5191   4.995   3.196   3.716
 1729TIP3   OH2 5192   4.332   3.242   3.389
 1729TIP3    H1 5193   4.369   3.224   3.476
 1729TIP3    H2 5194   4.239   3.259   3.406
 1730TIP3   OH2 5195   1.723   4.339   0.860
 1730TIP3    H1 5196   1.744   4.390   0.938
 1730TIP3    H2 5197   1.645   4.382   0.823
 1731TIP3   OH2 5198   5.555   3.730   3.066
 1731TIP3    H1 5199   5.537   3.781   3.145
 1731TIP3    H2 5200   5.497   3.654   3.073
 1732TIP3   OH2 5201   0.053   5.277  -0.018
 1732TIP3    H1 5202   0.068   5.197   0.032
 1732TIP3    H2 5203  -0.040   5.274  -0.041
 1733TIP3   OH2 5204   5.751   4.502   3.222
 1733TIP3    H1 5205   5.835   4.466   3.251
 1733TIP3    H2 5206   5.700   4.426   3.195
 1734TIP3   OH2 5207   2.797   3.779   3.155
 1734TIP3    H1 5208   2.786   3.862   3.202
 1734TIP3    H2 5209   2.773   3.800   3.064
 1735TIP3   OH2 5210   0.387   2.963   3.269
 1735TIP3    H1 5211   0.465   2.966   3.324
 1735TIP3    H2 5212   0.405   2.893   3.206
 1736TIP3   OH2 5213   1.317   4.598   0.321
 1736TIP3    H1 5214   1.322   4.539   0.246
 1736TIP3    H2 5215   1.238   4.569   0.368
 1737TIP3   OH2 5216   3.329   2.715   0.974
 1737TIP3    H1 5217   3.262   2.777   0.945
 1737TIP3    H2 5218   3.330   2.724   1.070
 1738TIP3   OH2 5219   4.848   1.503   2.171
 1738TIP3    H1 5220   4.894   1.586   2.172
 1738TIP3    H2 5221   4.911   1.440   2.207
 1739TIP3   OH2 5222   4.624   0.280   1.841
 1739TIP3    H1 5223   4.556   0.246   1.898
 1739TIP3    H2 5224   4.692   0.313   1.900
 1740TIP3   OH2 5225   2.636   1.302   4.335
 1740TIP3    H1 5226   2.554   1.274   4.376
 1740TIP3    H2 5227   2.664   1.376   4.388
 1741TIP3   OH2 5228   1.859   2.558   4.318
 1741TIP3    H1 5229   1.815   2.641   4.340
 1741TIP3    H2 5230   1.894   2.527   4.402
 1742TIP3   OH2 5231   0.169   2.396   4.685
 1742TIP3    H1 5232   0.089   2.359   4.650
 1742TIP3    H2 5233   0.156   2.396   4.780
 1743TIP3   OH2 5234   3.688   0.419   4.939
 1743TIP3    H1 5235   3.757   0.371   4.892
 1743TIP3    H2 5236   3.621   0.353   4.956
 1744TIP3   OH2 5237   4.836   0.543   2.378
 1744TIP3    H1 5238   4.810   0.452   2.365
 1744TIP3    H2 5239   4.865   0.548   2.468
 1745TIP3   OH2 5240   6.253   5.475   2.950
 1745TIP3    H1 5241   6.283   5.487   3.040
 1745TIP3    H2 5242   6.246   5.564   2.915
 1746TIP3   OH2 5243   3.749   0.477   4.583
 1746TIP3    H1 5244   3.781   0.426   4.657
 1746TIP3    H2 5245   3.740   0.414   4.512
 1747TIP3   OH2 5246   0.526   5.532   3.691
 1747TIP3    H1 5247   0.488   5.448   3.666
 1747TIP3    H2 5248   0.620   5.515   3.699
 1748TIP3   OH2 5249   5.078   5.236   1.989
 1748TIP3    H1 5250   5.113   5.182   2.059
 1748TIP3    H2 5251   5.097   5.326   2.016
 1749TIP3   OH2 5252   3.435   0.225   2.686
 1749TIP3    H1 5253   3.426   0.130   2.688
 1749TIP3    H2 5254   3.484   0.245   2.766
 1750TIP3   OH2 5255   3.231   3.618   4.887
 1750TIP3    H1 5256   3.260   3.545   4.941
 1750TIP3    H2 5257   3.210   3.578   4.802
 1751TIP3   OH2 5258   5.738   3.732   1.711
 1751TIP3    H1 5259   5.800   3.742   1.783
 1751TIP3    H2 5260   5.667   3.678   1.747
 1752TIP3   OH2 5261   1.605   1.002   2.927
 1752TIP3    H1 5262   1.683   1.046   2.961
 1752TIP3    H2 5263   1.547   0.995   3.003
 1753TIP3   OH2 5264   2.823   5.434   3.298
 1753TIP3    H1 5265   2.913   5.466   3.306
 1753TIP3    H2 5266   2.803   5.447   3.205
 1754TIP3   OH2 5267   5.384   4.351   2.970
 1754TIP3    H1 5268   5.445   4.377   2.901
 1754TIP3    H2 5269   5.409   4.261   2.991
 1755TIP3   OH2 5270   3.609   4.487   0.432
 1755TIP3    H1 5271   3.587   4.567   0.386
 1755TIP3    H2 5272   3.625   4.514   0.522
 1756TIP3   OH2 5273   3.275   4.170   0.989
 1756TIP3    H1 5274   3.196   4.191   1.038
 1756TIP3    H2 5275   3.271   4.226   0.912
 1757TIP3   OH2 5276   2.400   5.322   3.032
 1757TIP3    H1 5277   2.482   5.280   3.057
 1757TIP3    H2 5278   2.346   5.317   3.111
 1758TIP3   OH2 5279   6.319   4.923   2.979
 1758TIP3    H1 5280   6.239   4.936   3.030
 1758TIP3    H2 5281   6.372   5.000   2.996
 1759TIP3   OH2 5282   5.672   4.682   2.528
 1759TIP3    H1 5283   5.672   4.755   2.590
 1759TIP3    H2 5284   5.587   4.640   2.541
 1760TIP3   OH2 5285   1.235   4.885   3.784
 1760TIP3    H1 5286   1.303   4.844   3.837
 1760TIP3    H2 5287   1.155   4.876   3.836
 1761TIP3   OH2 5288   5.372   0.724   3.842
 1761TIP3    H1 5289   5.302   0.773   3.798
 1761TIP3    H2 5290   5.452   0.768   3.817
 1762TIP3   OH2 5291   3.091   5.848   4.201
 1762TIP3    H1 5292   3.172   5.819   4.243
 1762TIP3    H2 5293   3.047   5.766   4.177
 1763TIP3   OH2 5294   1.328   5.118   4.719
 1763TIP3    H1 5295   1.303   5.176   4.647
 1763TIP3    H2 5296   1.296   5.032   4.692
 1764TIP3   OH2 5297   0.545   3.835   1.021
 1764TIP3    H1 5298   0.528   3.883   1.102
 1764TIP3    H2 5299   0.476   3.769   1.017
 1765TIP3   OH2 5300   4.057   4.521   0.588
 1765TIP3    H1 5301   4.085   4.599   0.635
 1765TIP3    H2 5302   4.109   4.450   0.624
 1766TIP3   OH2 5303   0.226   5.800   0.205
 1766TIP3    H1 5304   0.183   5.732   0.152
 1766TIP3    H2 5305   0.290   5.839   0.146
 1767TIP3   OH2 5306   5.970   5.405   3.028
 1767TIP3    H1 5307   6.021   5.385   3.107
 1767TIP3    H2 5308   6.030   5.455   2.973
 1768TIP3   OH2 5309   0.093   0.308   0.592
 1768TIP3    H1 5310   0.023   0.287   0.654
 1768TIP3    H2 5311   0.169   0.329   0.647
 1769TIP3   OH2 5312   1.629   2.274   4.023
 1769TIP3    H1 5313   1.669   2.196   3.984
 1769TIP3    H2 5314   1.537   2.251   4.035
 1770TIP3   OH2 5315   1.065   3.583   4.293
 1770TIP3    H1 5316   0.978   3.548   4.309
 1770TIP3    H2 5317   1.061   3.619   4.204
 1771TIP3   OH2 5318   4.169   1.174   2.249
 1771TIP3    H1 5319   4.218   1.234   2.306
 1771TIP3    H2 5320   4.235   1.109   2.222
 1772TIP3   OH2 5321   2.725   4.628   1.232
 1772TIP3    H1 5322   2.762   4.623   1.320
 1772TIP3    H2 5323   2.738   4.541   1.196
 1773TIP3   OH2 5324   5.050   0.146   3.473
 1773TIP3    H1 5325   4.974   0.123   3.420
 1773TIP3    H2 5326   5.015   0.154   3.562
 1774TIP3   OH2 5327   3.447   2.631   2.458
 1774TIP3    H1 5328   3.433   2.574   2.382
 1774TIP3    H2 5329   3.359   2.657   2.484
 1775TIP3   OH2 5330   4.082   1.479   3.721
 1775TIP3    H1 5331   4.055   1.387   3.727
 1775TIP3    H2 5332   4.027   1.515   3.652
 1776TIP3   OH2 5333   3.932   3.604   0.096
 1776TIP3    H1 5334   3.979   3.559   0.025
 1776TIP3    H2 5335   3.895   3.681   0.055
 1777TIP3   OH2 5336   2.640   3.229   0.547
 1777TIP3    H1 5337   2.727   3.203   0.578
 1777TIP3    H2 5338   2.580   3.198   0.615
 1778TIP3   OH2 5339   1.932   3.523   3.206
 1778TIP3    H1 5340   1.928   3.610   3.164
 1778TIP3    H2 5341   1.840   3.500   3.219
 1779TIP3   OH2 5342   4.091   4.477   3.910
 1779TIP3    H1 5343   4.104   4.474   4.005
 1779TIP3    H2 5344   4.051   4.393   3.888
 1780TIP3   OH2 5345   3.075   1.587   1.481
 1780TIP3    H1 5346   3.057   1.523   1.413
 1780TIP3    H2 5347   3.154   1.632   1.451
 1781TIP3   OH2 5348   1.434   5.108   4.980
 1781TIP3    H1 5349   1.387   5.122   4.898
 1781TIP3    H2 5350   1.447   5.196   5.015
 1782TIP3   OH2 5351   2.526   2.738   4.108
 1782TIP3    H1 5352   2.508   2.781   4.024
 1782TIP3    H2 5353   2.473   2.787   4.171
 1783TIP3   OH2 5354   4.872   5.574   0.483
 1783TIP3    H1 5355   4.794   5.612   0.524
 1783TIP3    H2 5356   4.905   5.644   0.427
 1784TIP3   OH2 5357   5.781   2.929   2.359
 1784TIP3    H1 5358   5.856   2.940   2.417
 1784TIP3    H2 5359   5.746   3.017   2.347
 1785TIP3   OH2 5360   0.547   4.978   4.435
 1785TIP3    H1 5361   0.633   4.990   4.475
 1785TIP3    H2 5362   0.545   4.886   4.410
 1786TIP3   OH2 5363   3.128   2.312   1.016
 1786TIP3    H1 5364   3.106   2.399   1.050
 1786TIP3    H2 5365   3.179   2.330   0.937
 1787TIP3   OH2 5366   3.102   2.409   3.847
 1787TIP3    H1 5367   3.024   2.358   3.871
 1787TIP3    H2 5368   3.080   2.499   3.873
 1788TIP3   OH2 5369   4.391   1.169   1.287
 1788TIP3    H1 5370   4.302   1.195   1.264
 1788TIP3    H2 5371   4.405   1.087   1.239
 1789TIP3   OH2 5372   5.647   3.075   2.651
 1789TIP3    H1 5373   5.620   3.029   2.571
 1789TIP3    H2 5374   5.600   3.158   2.648
 1790TIP3   OH2 5375   3.650   0.119   1.556
 1790TIP3    H1 5376   3.722   0.173   1.586
 1790TIP3    H2 5377   3.618   0.163   1.477
 1791TIP3   OH2 5378   4.238   3.418   1.084
 1791TIP3    H1 5379   4.290   3.494   1.057
 1791TIP3    H2 5380   4.277   3.391   1.167
 1792TIP3   OH2 5381   2.475   5.541   3.861
 1792TIP3    H1 5382   2.472   5.598   3.784
 1792TIP3    H2 5383   2.418   5.468   3.839
 1793TIP3   OH2 5384   6.192   0.871   3.992
 1793TIP3    H1 5385   6.108   0.835   3.964
 1793TIP3    H2 5386   6.170   0.956   4.031
 1794TIP3   OH2 5387   4.115   3.452   0.526
 1794TIP3    H1 5388   4.110   3.357   0.526
 1794TIP3    H2 5389   4.062   3.479   0.451
 1795TIP3   OH2 5390   0.759   0.686   1.156
 1795TIP3    H1 5391   0.827   0.699   1.090
 1795TIP3    H2 5392   0.774   0.598   1.190
 1796TIP3   OH2 5393   1.969   4.102   3.872
 1796TIP3    H1 5394   1.999   4.137   3.956
 1796TIP3    H2 5395   1.873   4.103   3.879
 1797TIP3   OH2 5396   1.475   0.832   0.903
 1797TIP3    H1 5397   1.519   0.747   0.900
 1797TIP3    H2 5398   1.537   0.890   0.948
 1798TIP3   OH2 5399   4.256   2.837   0.720
 1798TIP3    H1 5400   4.293   2.925   0.719
 1798TIP3    H2 5401   4.289   2.797   0.801
 1799TIP3   OH2 5402   4.489   0.528   3.987
 1799TIP3    H1 5403   4.493   0.492   3.898
 1799TIP3    H2 5404   4.457   0.456   4.041
 1800TIP3   OH2 5405   0.674   1.900   0.720
 1800TIP3    H1 5406   0.684   1.814   0.678
 1800TIP3    H2 5407   0.602   1.941   0.671
 1801TIP3   OH2 5408   0.589   5.621   4.724
 1801TIP3    H1 5409   0.640   5.670   4.659
 1801TIP3    H2 5410   0.649   5.554   4.757
 1802TIP3   OH2 5411   1.875   2.524   1.570
 1802TIP3    H1 5412   1.941   2.526   1.501
 1802TIP3    H2 5413   1.918   2.481   1.643
 1803TIP3   OH2 5414   1.275   4.842   2.739
 1803TIP3    H1 5415   1.352   4.822   2.686
 1803TIP3    H2 5416   1.201   4.810   2.688
 1804TIP3   OH2 5417   3.363   0.457   4.925
 1804TIP3    H1 5418   3.382   0.376   4.878
 1804TIP3    H2 5419   3.387   0.438   5.016
 1805TIP3   OH2 5420   3.727   5.643   0.173
 1805TIP3    H1 5421   3.795   5.578   0.189
 1805TIP3    H2 5422   3.771   5.728   0.185
 1806TIP3   OH2 5423   3.166   0.316   0.950
 1806TIP3    H1 5424   3.260   0.335   0.957
 1806TIP3    H2 5425   3.124   0.401   0.944
 1807TIP3   OH2 5426   3.586   0.411   2.023
 1807TIP3    H1 5427   3.543   0.495   2.011
 1807TIP3    H2 5428   3.515   0.346   2.020
 1808TIP3   OH2 5429   4.667   4.415   3.533
 1808TIP3    H1 5430   4.647   4.334   3.486
 1808TIP3    H2 5431   4.591   4.430   3.589
 1809TIP3   OH2 5432   4.280   2.403   1.053
 1809TIP3    H1 5433   4.336   2.413   1.131
 1809TIP3    H2 5434   4.337   2.362   0.989
 1810TIP3   OH2 5435   2.263   3.028   0.927
 1810TIP3    H1 5436   2.228   3.018   1.015
 1810TIP3    H2 5437   2.195   3.076   0.879
 1811TIP3   OH2 5438   5.660   1.524   2.539
 1811TIP3    H1 5439   5.576   1.545   2.581
 1811TIP3    H2 5440   5.711   1.605   2.548
 1812TIP3   OH2 5441   2.828   4.651   3.473
 1812TIP3    H1 5442   2.771   4.585   3.434
 1812TIP3    H2 5443   2.908   4.647   3.421
 1813TIP3   OH2 5444   6.279   3.249   4.728
 1813TIP3    H1 5445   6.327   3.286   4.654
 1813TIP3    H2 5446   6.197   3.299   4.730
 1814TIP3   OH2 5447   2.872   1.814   1.470
 1814TIP3    H1 5448   2.885   1.775   1.383
 1814TIP3    H2 5449   2.911   1.751   1.530
 1815TIP3   OH2 5450   0.245   2.169   2.219
 1815TIP3    H1 5451   0.317   2.196   2.276
 1815TIP3    H2 5452   0.288   2.133   2.141
 1816TIP3   OH2 5453   0.741   2.655   1.746
 1816TIP3    H1 5454   0.667   2.622   1.694
 1816TIP3    H2 5455   0.709   2.656   1.836
 1817TIP3   OH2 5456   2.864   3.807   0.303
 1817TIP3    H1 5457   2.932   3.780   0.240
 1817TIP3    H2 5458   2.905   3.793   0.388
 1818TIP3   OH2 5459   4.746   2.238   1.892
 1818TIP3    H1 5460   4.663   2.264   1.932
 1818TIP3    H2 5461   4.807   2.308   1.914
 1819TIP3   OH2 5462   2.383   0.890   0.307
 1819TIP3    H1 5463   2.332   0.958   0.263
 1819TIP3    H2 5464   2.324   0.856   0.375
 1820TIP3   OH2 5465   3.537   4.639   1.642
 1820TIP3    H1 5466   3.557   4.656   1.550
 1820TIP3    H2 5467   3.475   4.566   1.641
 1821TIP3   OH2 5468   0.414   5.949   3.709
 1821TIP3    H1 5469   0.426   6.042   3.690
 1821TIP3    H2 5470   0.489   5.924   3.762
 1822TIP3   OH2 5471   1.319   3.470   1.485
 1822TIP3    H1 5472   1.278   3.498   1.404
 1822TIP3    H2 5473   1.329   3.549   1.537
 1823TIP3   OH2 5474   4.173   3.425   4.725
 1823TIP3    H1 5475   4.204   3.345   4.682
 1823TIP3    H2 5476   4.150   3.397   4.814
 1824TIP3   OH2 5477   5.467   5.726   0.073
 1824TIP3    H1 5478   5.374   5.703   0.076
 1824TIP3    H2 5479   5.471   5.797   0.009
 1825TIP3   OH2 5480   3.632   0.965   2.551
 1825TIP3    H1 5481   3.610   0.872   2.540
 1825TIP3    H2 5482   3.638   0.978   2.645
 1826TIP3   OH2 5483   0.836   1.614   4.626
 1826TIP3    H1 5484   0.787   1.632   4.707
 1826TIP3    H2 5485   0.900   1.547   4.652
 1827TIP3   OH2 5486   3.982   5.327   5.033
 1827TIP3    H1 5487   3.894   5.364   5.043
 1827TIP3    H2 5488   4.036   5.375   5.096
 1828TIP3   OH2 5489   4.234   1.844   2.371
 1828TIP3    H1 5490   4.299   1.813   2.434
 1828TIP3    H2 5491   4.274   1.829   2.286
 1829TIP3   OH2 5492   5.917   4.876   0.359
 1829TIP3    H1 5493   5.916   4.956   0.412
 1829TIP3    H2 5494   5.850   4.820   0.398
 1830TIP3   OH2 5495   3.272   5.821   4.500
 1830TIP3    H1 5496   3.350   5.804   4.448
 1830TIP3    H2 5497   3.293   5.900   4.551
 1831TIP3   OH2 5498   0.054   0.572   1.439
 1831TIP3    H1 5499   0.112   0.618   1.499
 1831TIP3    H2 5500   0.008   0.508   1.493
 1832TIP3   OH2 5501   4.542   4.001   0.844
 1832TIP3    H1 5502   4.634   3.978   0.832
 1832TIP3    H2 5503   4.540   4.096   0.840
 1833TIP3   OH2 5504   2.219   0.090   3.292
 1833TIP3    H1 5505   2.159   0.164   3.297
 1833TIP3    H2 5506   2.216   0.062   3.201
 1834TIP3   OH2 5507   0.411   0.461   1.827
 1834TIP3    H1 5508   0.432   0.376   1.867
 1834TIP3    H2 5509   0.485   0.517   1.849
 1835TIP3   OH2 5510   5.790   1.301   0.634
 1835TIP3    H1 5511   5.752   1.388   0.627
 1835TIP3    H2 5512   5.880   1.311   0.603
 1836TIP3   OH2 5513   5.707   3.618   3.638
 1836TIP3    H1 5514   5.636   3.672   3.603
 1836TIP3    H2 5515   5.757   3.592   3.561
 1837TIP3   OH2 5516   4.997   3.083   0.716
 1837TIP3    H1 5517   4.936   3.080   0.790
 1837TIP3    H2 5518   4.969   3.159   0.665
 1838TIP3   OH2 5519   1.992   2.429   0.088
 1838TIP3    H1 5520   1.963   2.378   0.164
 1838TIP3    H2 5521   1.976   2.520   0.112
 1839TIP3   OH2 5522   5.121   3.739   4.949
 1839TIP3    H1 5523   5.080   3.729   5.035
 1839TIP3    H2 5524   5.061   3.698   4.888
 1840TIP3   OH2 5525   3.733   0.981   2.259
 1840TIP3    H1 5526   3.685   0.986   2.342
 1840TIP3    H2 5527   3.819   0.945   2.282
 1841TIP3   OH2 5528   5.176   1.851   2.747
 1841TIP3    H1 5529   5.089   1.892   2.745
 1841TIP3    H2 5530   5.233   1.919   2.783
 1842TIP3   OH2 5531   0.553   3.723   4.136
 1842TIP3    H1 5532   0.593   3.735   4.050
 1842TIP3    H2 5533   0.570   3.631   4.158
 1843TIP3   OH2 5534   1.833   5.277   3.467
 1843TIP3    H1 5535   1.910   5.222   3.449
 1843TIP3    H2 5536   1.825   5.333   3.390
 1844TIP3   OH2 5537   1.863   5.849   1.619
 1844TIP3    H1 5538   1.947   5.883   1.589
 1844TIP3    H2 5539   1.836   5.909   1.688
 1845TIP3   OH2 5540   1.787   4.804   4.356
 1845TIP3    H1 5541   1.768   4.732   4.416
 1845TIP3    H2 5542   1.778   4.883   4.409
 1846TIP3   OH2 5543   0.315   2.925   0.281
 1846TIP3    H1 5544   0.280   2.882   0.359
 1846TIP3    H2 5545   0.398   2.963   0.309
 1847TIP3   OH2 5546   2.234   0.486   1.766
 1847TIP3    H1 5547   2.245   0.581   1.756
 1847TIP3    H2 5548   2.318   0.450   1.740
 1848TIP3   OH2 5549   5.457   5.345   2.141
 1848TIP3    H1 5550   5.436   5.394   2.221
 1848TIP3    H2 5551   5.515   5.274   2.171
 1849TIP3   OH2 5552   3.096   0.776   4.553
 1849TIP3    H1 5553   3.115   0.862   4.590
 1849TIP3    H2 5554   3.178   0.728   4.561
 1850TIP3   OH2 5555   1.395   3.914   1.773
 1850TIP3    H1 5556   1.415   3.842   1.713
 1850TIP3    H2 5557   1.319   3.883   1.823
 1851TIP3   OH2 5558   1.642   1.793   4.703
 1851TIP3    H1 5559   1.697   1.765   4.776
 1851TIP3    H2 5560   1.655   1.887   4.697
 1852TIP3   OH2 5561   6.317   0.963   2.597
 1852TIP3    H1 5562   6.236   0.926   2.632
 1852TIP3    H2 5563   6.300   0.974   2.504
 1853TIP3   OH2 5564   6.352   1.914   3.463
 1853TIP3    H1 5565   6.366   1.932   3.370
 1853TIP3    H2 5566   6.287   1.979   3.491
 1854TIP3   OH2 5567   5.477   0.334   1.640
 1854TIP3    H1 5568   5.475   0.241   1.665
 1854TIP3    H2 5569   5.387   0.352   1.610
 1855TIP3   OH2 5570   1.830   1.616   4.367
 1855TIP3    H1 5571   1.860   1.695   4.321
 1855TIP3    H2 5572   1.757   1.646   4.421
 1856TIP3   OH2 5573   2.416   1.533   3.991
 1856TIP3    H1 5574   2.481   1.578   4.045
 1856TIP3    H2 5575   2.461   1.515   3.908
 1857TIP3   OH2 5576   5.310   5.293   3.543
 1857TIP3    H1 5577   5.357   5.250   3.614
 1857TIP3    H2 5578   5.233   5.239   3.529
 1858TIP3   OH2 5579   3.479   5.811   2.566
 1858TIP3    H1 5580   3.489   5.789   2.659
 1858TIP3    H2 5581   3.492   5.905   2.563
 1859TIP3   OH2 5582   5.402   1.213   1.628
 1859TIP3    H1 5583   5.309   1.227   1.609
 1859TIP3    H2 5584   5.434   1.162   1.554
 1860TIP3   OH2 5585   1.582   0.731   4.650
 1860TIP3    H1 5586   1.534   0.651   4.633
 1860TIP3    H2 5587   1.569   0.785   4.572
 1861TIP3   OH2 5588   3.084   4.740   1.849
 1861TIP3    H1 5589   3.012   4.677   1.843
 1861TIP3    H2 5590   3.105   4.743   1.943
 1862TIP3   OH2 5591   5.425   4.644   0.000
 1862TIP3    H1 5592   5.506   4.651   0.050
 1862TIP3    H2 5593   5.356   4.654   0.065
 1863TIP3   OH2 5594   3.415   4.710   4.824
 1863TIP3    H1 5595   3.395   4.688   4.915
 1863TIP3    H2 5596   3.479   4.781   4.830
 1864TIP3   OH2 5597   0.613   2.808   3.797
 1864TIP3    H1 5598   0.706   2.816   3.818
 1864TIP3    H2 5599   0.578   2.896   3.810
 1865TIP3   OH2 5600   4.878   3.047   1.834
 1865TIP3    H1 5601   4.794   3.026   1.793
 1865TIP3    H2 5602   4.941   3.045   1.762
 1866TIP3   OH2 5603   2.077   5.421   0.859
 1866TIP3    H1 5604   2.035   5.342   0.892
 1866TIP3    H2 5605   2.138   5.446   0.929
 1867TIP3   OH2 5606   1.849   1.451   4.580
 1867TIP3    H1 5607   1.852   1.522   4.515
 1867TIP3    H2 5608   1.938   1.417   4.583
 1868TIP3   OH2 5609   5.986   3.378   0.997
 1868TIP3    H1 5610   5.988   3.467   0.962
 1868TIP3    H2 5611   5.902   3.373   1.044
 1869TIP3   OH2 5612   2.228   3.062   4.852
 1869TIP3    H1 5613   2.279   2.996   4.805
 1869TIP3    H2 5614   2.282   3.141   4.849
 1870TIP3   OH2 5615   5.727   1.237   2.410
 1870TIP3    H1 5616   5.710   1.280   2.494
 1870TIP3    H2 5617   5.641   1.232   2.368
 1871TIP3   OH2 5618   5.546   5.510   0.506
 1871TIP3    H1 5619   5.578   5.473   0.588
 1871TIP3    H2 5620   5.610   5.482   0.440
 1872TIP3   OH2 5621   2.277   3.127   3.963
 1872TIP3    H1 5622   2.299   3.115   4.056
 1872TIP3    H2 5623   2.203   3.068   3.948
 1873TIP3   OH2 5624   4.654   3.234   2.516
 1873TIP3    H1 5625   4.723   3.213   2.453
 1873TIP3    H2 5626   4.659   3.329   2.526
 1874TIP3   OH2 5627   5.142   5.099   3.465
 1874TIP3    H1 5628   5.103   5.071   3.547
 1874TIP3    H2 5629   5.068   5.109   3.405
 1875TIP3   OH2 5630   3.464   0.926   3.832
 1875TIP3    H1 5631   3.434   0.974   3.755
 1875TIP3    H2 5632   3.412   0.961   3.904
 1876TIP3   OH2 5633   0.706   5.831   2.462
 1876TIP3    H1 5634   0.686   5.916   2.423
 1876TIP3    H2 5635   0.784   5.847   2.515
 1877TIP3   OH2 5636   0.784   0.432   3.371
 1877TIP3    H1 5637   0.757   0.501   3.311
 1877TIP3    H2 5638   0.838   0.374   3.318
 1878TIP3   OH2 5639   0.994   1.901   1.332
 1878TIP3    H1 5640   0.914   1.884   1.281
 1878TIP3    H2 5641   1.010   1.995   1.320
 1879TIP3   OH2 5642   0.471   5.588   0.525
 1879TIP3    H1 5643   0.379   5.604   0.543
 1879TIP3    H2 5644   0.518   5.649   0.581
 1880TIP3   OH2 5645   5.668   2.338   3.687
 1880TIP3    H1 5646   5.723   2.397   3.739
 1880TIP3    H2 5647   5.701   2.347   3.597
 1881TIP3   OH2 5648   4.117   4.510   2.325
 1881TIP3    H1 5649   4.179   4.568   2.283
 1881TIP3    H2 5650   4.171   4.439   2.361
 1882TIP3   OH2 5651   2.720   0.712   2.901
 1882TIP3    H1 5652   2.627   0.705   2.923
 1882TIP3    H2 5653   2.724   0.788   2.842
 1883TIP3   OH2 5654   0.006   2.855   0.258
 1883TIP3    H1 5655   0.048   2.798   0.323
 1883TIP3    H2 5656   0.043   2.826   0.174
 1884TIP3   OH2 5657   1.386   2.704   1.189
 1884TIP3    H1 5658   1.331   2.631   1.217
 1884TIP3    H2 5659   1.360   2.777   1.245
 1885TIP3   OH2 5660   4.940   2.646   0.761
 1885TIP3    H1 5661   4.892   2.720   0.724
 1885TIP3    H2 5662   4.985   2.683   0.838
 1886TIP3   OH2 5663   1.286   0.744   2.998
 1886TIP3    H1 5664   1.270   0.825   2.950
 1886TIP3    H2 5665   1.350   0.767   3.065
 1887TIP3   OH2 5666   3.476   0.904   0.406
 1887TIP3    H1 5667   3.420   0.967   0.450
 1887TIP3    H2 5668   3.420   0.827   0.394
 1888TIP3   OH2 5669   1.496   4.656   5.125
 1888TIP3    H1 5670   1.570   4.714   5.145
 1888TIP3    H2 5671   1.454   4.697   5.049
 1889TIP3   OH2 5672   3.475   2.433   4.365
 1889TIP3    H1 5673   3.534   2.359   4.379
 1889TIP3    H2 5674   3.431   2.445   4.450
 1890TIP3   OH2 5675   5.092   3.568   1.644
 1890TIP3    H1 5676   5.111   3.656   1.678
 1890TIP3    H2 5677   4.999   3.554   1.662
 1891TIP3   OH2 5678   3.452   0.405   4.401
 1891TIP3    H1 5679   3.434   0.416   4.308
 1891TIP3    H2 5680   3.435   0.492   4.439
 1892TIP3   OH2 5681   0.315   3.060   4.515
 1892TIP3    H1 5682   0.309   2.979   4.566
 1892TIP3    H2 5683   0.405   3.063   4.485
 1893TIP3   OH2 5684   0.087   0.872   3.823
 1893TIP3    H1 5685   0.144   0.831   3.888
 1893TIP3    H2 5686   0.018   0.915   3.874
 1894TIP3   OH2 5687   5.910   5.553   3.873
 1894TIP3    H1 5688   5.833   5.604   3.850
 1894TIP3    H2 5689   5.879   5.488   3.935
 1895TIP3   OH2 5690   6.137   5.954   3.161
 1895TIP3    H1 5691   6.122   6.044   3.189
 1895TIP3    H2 5692   6.050   5.921   3.139
 1896TIP3   OH2 5693   5.663   5.798   0.997
 1896TIP3    H1 5694   5.685   5.711   1.031
 1896TIP3    H2 5695   5.659   5.787   0.902
 1897TIP3   OH2 5696   2.175   5.637   4.232
 1897TIP3    H1 5697   2.251   5.694   4.234
 1897TIP3    H2 5698   2.173   5.602   4.143
 1898TIP3   OH2 5699   4.088   4.903   0.475
 1898TIP3    H1 5700   4.097   4.846   0.552
 1898TIP3    H2 5701   4.176   4.912   0.440
 1899TIP3   OH2 5702   2.941   5.015   4.975
 1899TIP3    H1 5703   2.990   4.997   4.895
 1899TIP3    H2 5704   2.875   5.080   4.949
 1900TIP3   OH2 5705   4.482   1.739   3.559
 1900TIP3    H1 5706   4.545   1.800   3.597
 1900TIP3    H2 5707   4.455   1.683   3.632
 1901TIP3   OH2 5708   4.392   2.814   4.379
 1901TIP3    H1 5709   4.469   2.784   4.428
 1901TIP3    H2 5710   4.423   2.892   4.332
 1902TIP3   OH2 5711   5.034   5.361   1.640
 1902TIP3    H1 5712   4.968   5.393   1.579
 1902TIP3    H2 5713   5.003   5.388   1.726
 1903TIP3   OH2 5714   2.688   5.217   4.626
 1903TIP3    H1 5715   2.729   5.289   4.579
 1903TIP3    H2 5716   2.598   5.215   4.595
 1904TIP3   OH2 5717   4.258   3.957   4.408
 1904TIP3    H1 5718   4.231   3.936   4.319
 1904TIP3    H2 5719   4.181   3.937   4.462
 1905TIP3   OH2 5720   2.836   3.540   2.138
 1905TIP3    H1 5721   2.750   3.511   2.107
 1905TIP3    H2 5722   2.877   3.460   2.171
 1906TIP3   OH2 5723   0.984   3.752   4.762
 1906TIP3    H1 5724   0.911   3.721   4.709
 1906TIP3    H2 5725   1.029   3.672   4.790
 1907TIP3   OH2 5726   4.284   5.373   0.055
 1907TIP3    H1 5727   4.215   5.352  -0.008
 1907TIP3    H2 5728   4.365   5.347   0.011
 1908TIP3   OH2 5729   1.928   4.751   1.942
 1908TIP3    H1 5730   1.922   4.661   1.910
 1908TIP3    H2 5731   1.946   4.803   1.863
 1909TIP3   OH2 5732   1.745   5.278   0.665
 1909TIP3    H1 5733   1.653   5.286   0.690
 1909TIP3    H2 5734   1.792   5.271   0.747
 1910TIP3   OH2 5735   0.750   4.757   4.841
 1910TIP3    H1 5736   0.682   4.822   4.824
 1910TIP3    H2 5737   0.782   4.733   4.754
 1911TIP3   OH2 5738   0.433   4.089   1.927
 1911TIP3    H1 5739   0.511   4.141   1.907
 1911TIP3    H2 5740   0.405   4.053   1.843
 1912TIP3   OH2 5741   5.342   1.878   3.703
 1912TIP3    H1 5742   5.306   1.854   3.618
 1912TIP3    H2 5743   5.391   1.959   3.687
 1913TIP3   OH2 5744   4.335   5.394   2.516
 1913TIP3    H1 5745   4.304   5.452   2.447
 1913TIP3    H2 5746   4.426   5.376   2.493
 1914TIP3   OH2 5747   4.034   5.885   5.024
 1914TIP3    H1 5748   4.073   5.807   4.985
 1914TIP3    H2 5749   4.096   5.912   5.092
 1915TIP3   OH2 5750   3.002   1.267   4.684
 1915TIP3    H1 5751   2.971   1.294   4.597
 1915TIP3    H2 5752   2.948   1.317   4.745
 1916TIP3   OH2 5753   4.716   5.271   1.192
 1916TIP3    H1 5754   4.707   5.324   1.271
 1916TIP3    H2 5755   4.716   5.335   1.120
 1917TIP3   OH2 5756   4.930   1.338   4.171
 1917TIP3    H1 5757   4.922   1.401   4.099
 1917TIP3    H2 5758   4.851   1.350   4.223
 1918TIP3   OH2 5759   6.280   5.360   3.580
 1918TIP3    H1 5760   6.343   5.387   3.647
 1918TIP3    H2 5761   6.300   5.267   3.566
 1919TIP3   OH2 5762   3.672   1.412   3.882
 1919TIP3    H1 5763   3.627   1.381   3.803
 1919TIP3    H2 5764   3.679   1.507   3.870
 1920TIP3   OH2 5765   0.990   3.945   0.545
 1920TIP3    H1 5766   1.025   3.958   0.457
 1920TIP3    H2 5767   0.897   3.927   0.532
 1921TIP3   OH2 5768   3.551   4.595   0.787
 1921TIP3    H1 5769   3.553   4.613   0.881
 1921TIP3    H2 5770   3.631   4.545   0.770
 1922TIP3   OH2 5771   6.295   2.444   0.600
 1922TIP3    H1 5772   6.207   2.407   0.598
 1922TIP3    H2 5773   6.282   2.538   0.610
 1923TIP3   OH2 5774   2.388   2.091   2.003
 1923TIP3    H1 5775   2.316   2.053   2.054
 1923TIP3    H2 5776   2.460   2.097   2.065
 1924TIP3   OH2 5777   4.753   4.094   2.159
 1924TIP3    H1 5778   4.744   4.169   2.218
 1924TIP3    H2 5779   4.772   4.020   2.216
 1925TIP3   OH2 5780   0.757   2.981   2.300
 1925TIP3    H1 5781   0.825   2.933   2.348
 1925TIP3    H2 5782   0.805   3.031   2.235
 1926TIP3   OH2 5783   3.547   1.601   1.455
 1926TIP3    H1 5784   3.469   1.655   1.443
 1926TIP3    H2 5785   3.600   1.649   1.518
 1927TIP3   OH2 5786   2.283   3.811   0.210
 1927TIP3    H1 5787   2.254   3.767   0.130
 1927TIP3    H2 5788   2.374   3.835   0.192
 1928TIP3   OH2 5789   5.753   4.142   4.405
 1928TIP3    H1 5790   5.765   4.236   4.397
 1928TIP3    H2 5791   5.733   4.112   4.316
 1929TIP3   OH2 5792   1.130   0.865   4.656
 1929TIP3    H1 5793   1.146   0.942   4.711
 1929TIP3    H2 5794   1.187   0.878   4.580
 1930TIP3   OH2 5795   1.683   4.050   0.926
 1930TIP3    H1 5796   1.642   4.136   0.925
 1930TIP3    H2 5797   1.648   4.007   1.005
 1931TIP3   OH2 5798   3.869   0.412   3.971
 1931TIP3    H1 5799   3.831   0.450   4.051
 1931TIP3    H2 5800   3.928   0.344   4.003
 1932TIP3   OH2 5801   5.702   5.396   5.076
 1932TIP3    H1 5802   5.620   5.369   5.035
 1932TIP3    H2 5803   5.770   5.363   5.018
 1933TIP3   OH2 5804   6.212   4.497   1.713
 1933TIP3    H1 5805   6.142   4.562   1.721
 1933TIP3    H2 5806   6.279   4.540   1.660
 1934TIP3   OH2 5807   2.968   1.346   3.314
 1934TIP3    H1 5808   3.032   1.377   3.250
 1934TIP3    H2 5809   2.897   1.308   3.262
 1935TIP3   OH2 5810   1.409   0.919   3.963
 1935TIP3    H1 5811   1.432   1.009   3.937
 1935TIP3    H2 5812   1.408   0.870   3.881
 1936TIP3   OH2 5813   0.190   2.602   1.644
 1936TIP3    H1 5814   0.169   2.668   1.710
 1936TIP3    H2 5815   0.140   2.525   1.671
 1937TIP3   OH2 5816   0.097   5.690   1.672
 1937TIP3    H1 5817   0.168   5.652   1.621
 1937TIP3    H2 5818   0.017   5.664   1.625
 1938TIP3   OH2 5819   2.498   1.864   2.678
 1938TIP3    H1 5820   2.540   1.884   2.594
 1938TIP3    H2 5821   2.553   1.796   2.717
 1939TIP3   OH2 5822   2.687   2.713   1.932
 1939TIP3    H1 5823   2.729   2.627   1.928
 1939TIP3    H2 5824   2.593   2.694   1.923
 1940TIP3   OH2 5825   0.205   0.461   4.018
 1940TIP3    H1 5826   0.125   0.513   4.026
 1940TIP3    H2 5827   0.266   0.517   3.971
 1941TIP3   OH2 5828   2.949   2.297   1.677
 1941TIP3    H1 5829   2.919   2.268   1.592
 1941TIP3    H2 5830   2.979   2.218   1.721
 1942TIP3   OH2 5831   5.261   2.348   4.880
 1942TIP3    H1 5832   5.275   2.254   4.866
 1942TIP3    H2 5833   5.268   2.359   4.975
 1943TIP3   OH2 5834   0.627   1.499   0.317
 1943TIP3    H1 5835   0.701   1.444   0.344
 1943TIP3    H2 5836   0.646   1.584   0.357
 1944TIP3   OH2 5837   6.060   3.780   1.402
 1944TIP3    H1 5838   6.003   3.849   1.435
 1944TIP3    H2 5839   6.125   3.826   1.349
 1945TIP3   OH2 5840   2.353   5.066   1.801
 1945TIP3    H1 5841   2.329   4.998   1.739
 1945TIP3    H2 5842   2.270   5.100   1.834
 1946TIP3   OH2 5843   3.387   3.839   0.532
 1946TIP3    H1 5844   3.355   3.783   0.461
 1946TIP3    H2 5845   3.308   3.868   0.578
 1947TIP3   OH2 5846   0.088   1.826   0.539
 1947TIP3    H1 5847   0.151   1.855   0.472
 1947TIP3    H2 5848   0.021   1.894   0.540
 1948TIP3   OH2 5849   5.291   2.056   2.900
 1948TIP3    H1 5850   5.231   2.100   2.961
 1948TIP3    H2 5851   5.357   2.122   2.880
 1949TIP3   OH2 5852   4.965   4.481   1.032
 1949TIP3    H1 5853   4.996   4.534   0.958
 1949TIP3    H2 5854   5.037   4.483   1.095
 1950TIP3   OH2 5855   2.070   3.212   0.191
 1950TIP3    H1 5856   2.117   3.135   0.224
 1950TIP3    H2 5857   2.009   3.235   0.261
 1951TIP3   OH2 5858   3.164   0.431   4.040
 1951TIP3    H1 5859   3.097   0.466   4.098
 1951TIP3    H2 5860   3.126   0.438   3.952
 1952TIP3   OH2 5861   3.772   5.386   4.339
 1952TIP3    H1 5862   3.813   5.378   4.253
 1952TIP3    H2 5863   3.846   5.399   4.399
 1953TIP3   OH2 5864   4.647   2.183   0.040
 1953TIP3    H1 5865   4.694   2.110   0.080
 1953TIP3    H2 5866   4.664   2.257   0.098
 1954TIP3   OH2 5867   0.186   3.986   2.977
 1954TIP3    H1 5868   0.195   3.895   2.949
 1954TIP3    H2 5869   0.270   4.006   3.019
 1955TIP3   OH2 5870   6.342   3.064   1.260
 1955TIP3    H1 5871   6.317   3.086   1.171
 1955TIP3    H2 5872   6.434   3.039   1.254
 1956TIP3   OH2 5873   4.939   5.130   4.259
 1956TIP3    H1 5874   5.001   5.193   4.222
 1956TIP3    H2 5875   4.856   5.178   4.265
 1957TIP3   OH2 5876   6.054   0.300   0.187
 1957TIP3    H1 5877   6.083   0.375   0.135
 1957TIP3    H2 5878   5.964   0.321   0.211
 1958TIP3   OH2 5879   3.578   4.700   2.950
 1958TIP3    H1 5880   3.647   4.698   2.883
 1958TIP3    H2 5881   3.579   4.613   2.989
 1959TIP3   OH2 5882   5.270   5.952   1.722
 1959TIP3    H1 5883   5.278   5.945   1.818
 1959TIP3    H2 5884   5.325   5.883   1.688
 1960TIP3   OH2 5885   5.396   3.295   5.085
 1960TIP3    H1 5886   5.312   3.335   5.061
 1960TIP3    H2 5887   5.374   3.208   5.117
 1961TIP3   OH2 5888   5.073   0.865   4.291
 1961TIP3    H1 5889   5.144   0.832   4.235
 1961TIP3    H2 5890   5.026   0.928   4.237
 1962TIP3   OH2 5891   3.591   0.504   0.559
 1962TIP3    H1 5892   3.599   0.545   0.473
 1962TIP3    H2 5893   3.498   0.481   0.566
 1963TIP3   OH2 5894   1.452   1.568   4.967
 1963TIP3    H1 5895   1.410   1.650   4.941
 1963TIP3    H2 5896   1.519   1.553   4.901
 1964TIP3   OH2 5897   3.590   0.584   1.640
 1964TIP3    H1 5898   3.649   0.587   1.716
 1964TIP3    H2 5899   3.568   0.491   1.632
 1965TIP3   OH2 5900   4.282   1.085   5.061
 1965TIP3    H1 5901   4.287   1.005   5.113
 1965TIP3    H2 5902   4.373   1.101   5.035
 1966TIP3   OH2 5903   6.031   4.472   4.746
 1966TIP3    H1 5904   6.013   4.449   4.655
 1966TIP3    H2 5905   6.122   4.502   4.745
 1967TIP3   OH2 5906   3.820   4.781   2.460
 1967TIP3    H1 5907   3.792   4.830   2.382
 1967TIP3    H2 5908   3.741   4.734   2.489
 1968TIP3   OH2 5909   4.207   5.948   3.917
 1968TIP3    H1 5910   4.195   6.007   3.843
 1968TIP3    H2 5911   4.295   5.912   3.905
 1969TIP3   OH2 5912   0.816   1.372   2.601
 1969TIP3    H1 5913   0.840   1.305   2.665
 1969TIP3    H2 5914   0.729   1.401   2.628
 1970TIP3   OH2 5915   0.839   0.039   4.020
 1970TIP3    H1 5916   0.920   0.089   4.012
 1970TIP3    H2 5917   0.770   0.103   4.004
 1971TIP3   OH2 5918   5.868   3.818   2.113
 1971TIP3    H1 5919   5.865   3.741   2.170
 1971TIP3    H2 5920   5.901   3.784   2.030
 1972TIP3   OH2 5921   2.761   4.206   1.366
 1972TIP3    H1 5922   2.772   4.272   1.298
 1972TIP3    H2 5923   2.836   4.148   1.355
 1973TIP3   OH2 5924   2.427   3.708   3.546
 1973TIP3    H1 5925   2.507   3.659   3.567
 1973TIP3    H2 5926   2.454   3.800   3.552
 1974TIP3   OH2 5927   5.158   1.281   4.736
 1974TIP3    H1 5928   5.142   1.336   4.659
 1974TIP3    H2 5929   5.185   1.343   4.804
 1975TIP3   OH2 5930   1.093   3.481   2.084
 1975TIP3    H1 5931   1.187   3.497   2.099
 1975TIP3    H2 5932   1.081   3.388   2.104
 1976TIP3   OH2 5933   1.277   3.193   4.250
 1976TIP3    H1 5934   1.319   3.267   4.294
 1976TIP3    H2 5935   1.327   3.180   4.170
 1977TIP3   OH2 5936   2.193   4.375   0.097
 1977TIP3    H1 5937   2.236   4.355   0.180
 1977TIP3    H2 5938   2.183   4.471   0.097
 1978TIP3   OH2 5939   0.663   3.712   0.603
 1978TIP3    H1 5940   0.729   3.652   0.568
 1978TIP3    H2 5941   0.676   3.793   0.554
 1979TIP3   OH2 5942   1.609   5.656   2.956
 1979TIP3    H1 5943   1.697   5.627   2.932
 1979TIP3    H2 5944   1.553   5.583   2.931
 1980TIP3   OH2 5945   4.284   2.265   0.131
 1980TIP3    H1 5946   4.306   2.227   0.045
 1980TIP3    H2 5947   4.309   2.198   0.194
 1981TIP3   OH2 5948   4.873   2.010   1.173
 1981TIP3    H1 5949   4.896   2.097   1.206
 1981TIP3    H2 5950   4.828   2.027   1.090
 1982TIP3   OH2 5951   4.322   0.788   2.649
 1982TIP3    H1 5952   4.306   0.790   2.744
 1982TIP3    H2 5953   4.236   0.805   2.610
 1983TIP3   OH2 5954   3.277   2.435   0.820
 1983TIP3    H1 5955   3.345   2.462   0.758
 1983TIP3    H2 5956   3.235   2.517   0.847
 1984TIP3   OH2 5957   0.943   1.714   3.445
 1984TIP3    H1 5958   1.026   1.681   3.411
 1984TIP3    H2 5959   0.959   1.808   3.459
 1985TIP3   OH2 5960   3.877   4.715   2.164
 1985TIP3    H1 5961   3.848   4.792   2.115
 1985TIP3    H2 5962   3.944   4.675   2.110
 1986TIP3   OH2 5963   1.413   5.230   0.966
 1986TIP3    H1 5964   1.486   5.176   0.995
 1986TIP3    H2 5965   1.403   5.208   0.873
 1987TIP3   OH2 5966   0.305   0.409   2.595
 1987TIP3    H1 5967   0.355   0.359   2.530
 1987TIP3    H2 5968   0.369   0.434   2.661
 1988TIP3   OH2 5969   2.955   4.723   3.114
 1988TIP3    H1 5970   3.036   4.707   3.162
 1988TIP3    H2 5971   2.982   4.731   3.023
 1989TIP3   OH2 5972   5.767   3.578   4.894
 1989TIP3    H1 5973   5.781   3.595   4.987
 1989TIP3    H2 5974   5.716   3.497   4.891
 1990TIP3   OH2 5975   5.487   3.868   4.546
 1990TIP3    H1 5976   5.407   3.816   4.532
 1990TIP3    H2 5977   5.473   3.910   4.631
 1991TIP3   OH2 5978   3.724   5.322   0.359
 1991TIP3    H1 5979   3.780   5.371   0.299
 1991TIP3    H2 5980   3.780   5.251   0.392
 1992TIP3   OH2 5981   4.601   1.071   2.896
 1992TIP3    H1 5982   4.619   1.035   2.983
 1992TIP3    H2 5983   4.686   1.073   2.853
 1993TIP3   OH2 5984   1.023   0.517   1.145
 1993TIP3    H1 5985   1.060   0.587   1.199
 1993TIP3    H2 5986   0.958   0.475   1.201
 1994TIP3   OH2 5987   5.727   3.232   0.160
 1994TIP3    H1 5988   5.770   3.314   0.132
 1994TIP3    H2 5989   5.735   3.232   0.255
 1995TIP3   OH2 5990   1.476   2.887   0.637
 1995TIP3    H1 5991   1.394   2.924   0.605
 1995TIP3    H2 5992   1.475   2.907   0.731
 1996TIP3   OH2 5993   3.709   5.295   2.529
 1996TIP3    H1 5994   3.619   5.326   2.533
 1996TIP3    H2 5995   3.749   5.329   2.609
 1997TIP3   OH2 5996   2.617   3.849   4.692
 1997TIP3    H1 5997   2.692   3.794   4.711
 1997TIP3    H2 5998   2.604   3.841   4.598
 1998TIP3   OH2 5999   5.149   0.429   3.716
 1998TIP3    H1 6000   5.144   0.500   3.653
 1998TIP3    H2 6001   5.070   0.378   3.701
 1999TIP3   OH2 6002   1.310   3.956   0.804
 1999TIP3    H1 6003   1.366   4.000   0.741
 1999TIP3    H2 6004   1.351   3.975   0.889
 2000TIP3   OH2 6005   6.061   3.580   1.582
 2000TIP3    H1 6006   6.155   3.559   1.580
 2000TIP3    H2 6007   6.052   3.653   1.521
 2001TIP3   OH2 6008   4.236   5.478   4.567
 2001TIP3    H1 6009   4.291   5.440   4.499
 2001TIP3    H2 6010   4.289   5.472   4.647
 2002TIP3   OH2 6011   6.155   0.204   2.850
 2002TIP3    H1 6012   6.158   0.300   2.852
 2002TIP3    H2 6013   6.066   0.183   2.880
 2003TIP3   OH2 6014   4.789   1.806   2.347
 2003TIP3    H1 6015   4.877   1.836   2.370
 2003TIP3    H2 6016   4.793   1.789   2.253
 2004TIP3   OH2 6017   1.742   0.129   4.727
 2004TIP3    H1 6018   1.766   0.046   4.768
 2004TIP3    H2 6019   1.651   0.143   4.750
 2005TIP3   OH2 6020   0.606   5.684   0.303
 2005TIP3    H1 6021   0.564   5.768   0.318
 2005TIP3    H2 6022   0.557   5.622   0.356
 2006TIP3   OH2 6023   2.070   5.199   1.795
 2006TIP3    H1 6024   1.990   5.238   1.759
 2006TIP3    H2 6025   2.130   5.273   1.805
 2007TIP3   OH2 6026   1.413   3.360   4.738
 2007TIP3    H1 6027   1.428   3.401   4.653
 2007TIP3    H2 6028   1.478   3.401   4.796
 2008TIP3   OH2 6029   5.144   5.697   1.156
 2008TIP3    H1 6030   5.142   5.760   1.084
 2008TIP3    H2 6031   5.145   5.751   1.235
 2009TIP3   OH2 6032   5.702   3.967   5.009
 2009TIP3    H1 6033   5.708   3.980   5.104
 2009TIP3    H2 6034   5.792   3.956   4.981
 2010TIP3   OH2 6035   1.948   0.638   0.860
 2010TIP3    H1 6036   2.000   0.718   0.856
 2010TIP3    H2 6037   2.006   0.573   0.900
 2011TIP3   OH2 6038   5.958   0.580   5.101
 2011TIP3    H1 6039   5.983   0.490   5.122
 2011TIP3    H2 6040   5.949   0.622   5.187
 2012TIP3   OH2 6041   2.318   0.255   1.972
 2012TIP3    H1 6042   2.251   0.233   1.907
 2012TIP3    H2 6043   2.269   0.301   2.042
 2013TIP3   OH2 6044   4.310   0.697   0.563
 2013TIP3    H1 6045   4.334   0.675   0.473
 2013TIP3    H2 6046   4.373   0.649   0.617
 2014TIP3   OH2 6047   6.072   1.323   4.349
 2014TIP3    H1 6048   6.161   1.341   4.319
 2014TIP3    H2 6049   6.078   1.240   4.397
 2015TIP3   OH2 6050   3.336   5.060   2.854
 2015TIP3    H1 6051   3.347   5.051   2.949
 2015TIP3    H2 6052   3.242   5.073   2.842
 2016TIP3   OH2 6053   5.537   3.596   1.871
 2016TIP3    H1 6054   5.460   3.641   1.907
 2016TIP3    H2 6055   5.574   3.549   1.945
 2017TIP3   OH2 6056   3.587   4.444   2.093
 2017TIP3    H1 6057   3.495   4.454   2.067
 2017TIP3    H2 6058   3.594   4.353   2.122
 2018TIP3   OH2 6059   4.124   2.502   4.190
 2018TIP3    H1 6060   4.192   2.562   4.222
 2018TIP3    H2 6061   4.144   2.419   4.233
 2019TIP3   OH2 6062   0.043   2.014   3.862
 2019TIP3    H1 6063   0.033   2.095   3.911
 2019TIP3    H2 6064   0.103   2.036   3.791
 2020TIP3   OH2 6065   3.104   0.348   1.656
 2020TIP3    H1 6066   3.163   0.409   1.701
 2020TIP3    H2 6067   3.038   0.325   1.721
 2021TIP3   OH2 6068   2.235   2.381   3.391
 2021TIP3    H1 6069   2.322   2.388   3.428
 2021TIP3    H2 6070   2.244   2.414   3.301
 2022TIP3   OH2 6071   4.447   2.755   0.119
 2022TIP3    H1 6072   4.529   2.710   0.096
 2022TIP3    H2 6073   4.474   2.845   0.136
 2023TIP3   OH2 6074   2.367   5.153   3.962
 2023TIP3    H1 6075   2.359   5.199   4.045
 2023TIP3    H2 6076   2.301   5.083   3.967
 2024TIP3   OH2 6077   0.745   3.269   4.897
 2024TIP3    H1 6078   0.721   3.214   4.823
 2024TIP3    H2 6079   0.776   3.208   4.964
 2025TIP3   OH2 6080   1.015   0.415   3.821
 2025TIP3    H1 6081   0.965   0.471   3.880
 2025TIP3    H2 6082   1.023   0.466   3.740
 2026TIP3   OH2 6083   0.167   1.220   5.063
 2026TIP3    H1 6084   0.130   1.250   5.146
 2026TIP3    H2 6085   0.171   1.300   5.009
 2027TIP3   OH2 6086   5.475   2.127   4.841
 2027TIP3    H1 6087   5.444   2.101   4.754
 2027TIP3    H2 6088   5.535   2.056   4.866
 2028TIP3   OH2 6089   2.451   1.947   5.128
 2028TIP3    H1 6090   2.454   1.883   5.057
 2028TIP3    H2 6091   2.443   1.895   5.208
 2029TIP3   OH2 6092   0.590   1.797   2.027
 2029TIP3    H1 6093   0.659   1.779   1.964
 2029TIP3    H2 6094   0.511   1.809   1.974
 2030TIP3   OH2 6095   0.089   5.019   4.191
 2030TIP3    H1 6096   0.183   5.002   4.195
 2030TIP3    H2 6097   0.048   4.938   4.219
 2031TIP3   OH2 6098   4.615   2.522   4.852
 2031TIP3    H1 6099   4.631   2.532   4.758
 2031TIP3    H2 6100   4.703   2.525   4.891
 2032TIP3   OH2 6101   5.628   3.343   4.920
 2032TIP3    H1 6102   5.671   3.267   4.959
 2032TIP3    H2 6103   5.536   3.334   4.946
 2033TIP3   OH2 6104   4.800   1.800   3.282
 2033TIP3    H1 6105   4.805   1.759   3.196
 2033TIP3    H2 6106   4.768   1.889   3.265
 2034TIP3   OH2 6107   1.221   0.606   3.767
 2034TIP3    H1 6108   1.146   0.637   3.716
 2034TIP3    H2 6109   1.295   0.657   3.733
 2035TIP3   OH2 6110   2.074   4.062   1.172
 2035TIP3    H1 6111   2.083   4.137   1.113
 2035TIP3    H2 6112   2.022   3.999   1.123
 2036TIP3   OH2 6113   1.649   3.711   0.223
 2036TIP3    H1 6114   1.688   3.625   0.209
 2036TIP3    H2 6115   1.681   3.738   0.310
 2037TIP3   OH2 6116   0.255   0.388   2.215
 2037TIP3    H1 6117   0.199   0.356   2.286
 2037TIP3    H2 6118   0.220   0.346   2.137
 2038TIP3   OH2 6119   6.080   2.176   0.726
 2038TIP3    H1 6120   6.169   2.206   0.710
 2038TIP3    H2 6121   6.053   2.222   0.805
 2039TIP3   OH2 6122   3.009   0.848   2.073
 2039TIP3    H1 6123   2.930   0.835   2.020
 2039TIP3    H2 6124   3.077   0.799   2.027
 2040TIP3   OH2 6125   2.439   4.510   2.275
 2040TIP3    H1 6126   2.422   4.604   2.280
 2040TIP3    H2 6127   2.410   4.476   2.360
 2041TIP3   OH2 6128   4.233   4.558   4.529
 2041TIP3    H1 6129   4.150   4.517   4.505
 2041TIP3    H2 6130   4.260   4.513   4.609
 2042TIP3   OH2 6131   2.309   4.115   4.622
 2042TIP3    H1 6132   2.377   4.085   4.681
 2042TIP3    H2 6133   2.313   4.211   4.628
 2043TIP3   OH2 6134   3.051   0.732   4.272
 2043TIP3    H1 6135   3.138   0.757   4.241
 2043TIP3    H2 6136   3.063   0.715   4.366
 2044TIP3   OH2 6137   4.051   2.811   2.166
 2044TIP3    H1 6138   3.997   2.877   2.121
 2044TIP3    H2 6139   4.140   2.832   2.139
 2045TIP3   OH2 6140   3.957   4.429   1.354
 2045TIP3    H1 6141   4.028   4.369   1.329
 2045TIP3    H2 6142   3.896   4.425   1.280
 2046TIP3   OH2 6143   2.651   3.508   0.263
 2046TIP3    H1 6144   2.630   3.471   0.177
 2046TIP3    H2 6145   2.570   3.547   0.293
 2047TIP3   OH2 6146   1.818   3.729   2.365
 2047TIP3    H1 6147   1.803   3.672   2.290
 2047TIP3    H2 6148   1.758   3.802   2.352
 2048TIP3   OH2 6149   1.296   4.070   2.616
 2048TIP3    H1 6150   1.269   3.983   2.645
 2048TIP3    H2 6151   1.314   4.059   2.522
 2049TIP3   OH2 6152   5.895   2.493   4.256
 2049TIP3    H1 6153   5.887   2.586   4.234
 2049TIP3    H2 6154   5.868   2.487   4.347
 2050TIP3   OH2 6155   3.707   2.301   0.405
 2050TIP3    H1 6156   3.706   2.396   0.397
 2050TIP3    H2 6157   3.720   2.270   0.316
 2051TIP3   OH2 6158   5.402   3.239   2.854
 2051TIP3    H1 6159   5.409   3.280   2.768
 2051TIP3    H2 6160   5.490   3.245   2.891
 2052TIP3   OH2 6161   2.043   4.487   3.698
 2052TIP3    H1 6162   1.957   4.445   3.696
 2052TIP3    H2 6163   2.101   4.422   3.738
 2053TIP3   OH2 6164   0.711   4.365   0.792
 2053TIP3    H1 6165   0.659   4.446   0.795
 2053TIP3    H2 6166   0.649   4.297   0.767
 2054TIP3   OH2 6167   1.175   3.149   1.075
 2054TIP3    H1 6168   1.231   3.223   1.054
 2054TIP3    H2 6169   1.205   3.121   1.162
 2055TIP3   OH2 6170   4.337   2.643   4.890
 2055TIP3    H1 6171   4.407   2.610   4.833
 2055TIP3    H2 6172   4.294   2.564   4.924
 2056TIP3   OH2 6173   3.955   0.907   0.022
 2056TIP3    H1 6174   3.958   0.827   0.075
 2056TIP3    H2 6175   4.044   0.942   0.027
 2057TIP3   OH2 6176   4.329   2.656   2.836
 2057TIP3    H1 6177   4.265   2.728   2.838
 2057TIP3    H2 6178   4.387   2.679   2.764
 2058TIP3   OH2 6179   2.376   0.579   4.329
 2058TIP3    H1 6180   2.432   0.617   4.262
 2058TIP3    H2 6181   2.382   0.485   4.314
 2059TIP3   OH2 6182   2.338   4.783   2.287
 2059TIP3    H1 6183   2.298   4.867   2.266
 2059TIP3    H2 6184   2.305   4.762   2.375
 2060TIP3   OH2 6185   4.764   0.649   0.282
 2060TIP3    H1 6186   4.825   0.722   0.292
 2060TIP3    H2 6187   4.798   0.598   0.208
 2061TIP3   OH2 6188   1.674   5.603   2.197
 2061TIP3    H1 6189   1.616   5.671   2.231
 2061TIP3    H2 6190   1.757   5.618   2.243
 2062TIP3   OH2 6191   4.620   0.980   3.504
 2062TIP3    H1 6192   4.675   0.941   3.572
 2062TIP3    H2 6193   4.532   0.978   3.541
 2063TIP3   OH2 6194   1.612   3.538   3.723
 2063TIP3    H1 6195   1.556   3.545   3.646
 2063TIP3    H2 6196   1.701   3.544   3.688
 2064TIP3   OH2 6197   3.532   1.192   1.816
 2064TIP3    H1 6198   3.472   1.137   1.866
 2064TIP3    H2 6199   3.566   1.133   1.748
 2065TIP3   OH2 6200   6.082   0.993   2.992
 2065TIP3    H1 6201   6.082   0.968   2.900
 2065TIP3    H2 6202   6.098   0.911   3.039
 2066TIP3   OH2 6203   5.818   2.771   4.817
 2066TIP3    H1 6204   5.870   2.786   4.738
 2066TIP3    H2 6205   5.757   2.845   4.821
 2067TIP3   OH2 6206   5.057   2.948   4.412
 2067TIP3    H1 6207   4.990   2.992   4.360
 2067TIP3    H2 6208   5.109   3.019   4.449
 2068TIP3   OH2 6209   3.692   4.091   1.611
 2068TIP3    H1 6210   3.673   4.000   1.636
 2068TIP3    H2 6211   3.723   4.084   1.521
 2069TIP3   OH2 6212   4.948   2.338   4.712
 2069TIP3    H1 6213   4.907   2.378   4.635
 2069TIP3    H2 6214   4.920   2.392   4.785
 2070TIP3   OH2 6215   3.814   4.704  -0.011
 2070TIP3    H1 6216   3.780   4.623   0.026
 2070TIP3    H2 6217   3.877   4.736   0.054
 2071TIP3   OH2 6218   4.558   5.449   0.292
 2071TIP3    H1 6219   4.579   5.538   0.266
 2071TIP3    H2 6220   4.476   5.457   0.341
 2072TIP3   OH2 6221   1.396   5.978   4.692
 2072TIP3    H1 6222   1.429   5.893   4.723
 2072TIP3    H2 6223   1.301   5.970   4.700
 2073TIP3   OH2 6224   1.186   5.946   2.125
 2073TIP3    H1 6225   1.144   5.919   2.043
 2073TIP3    H2 6226   1.126   5.914   2.194
 2074TIP3   OH2 6227   2.020   3.739   0.598
 2074TIP3    H1 6228   1.990   3.827   0.621
 2074TIP3    H2 6229   1.989   3.726   0.508
 2075TIP3   OH2 6230   0.034   5.368   2.457
 2075TIP3    H1 6231  -0.030   5.301   2.434
 2075TIP3    H2 6232   0.063   5.404   2.373
 2076TIP3   OH2 6233   2.902   5.637   1.163
 2076TIP3    H1 6234   2.986   5.682   1.150
 2076TIP3    H2 6235   2.884   5.646   1.257
 2077TIP3   OH2 6236   3.859   1.057   2.757
 2077TIP3    H1 6237   3.919   1.092   2.692
 2077TIP3    H2 6238   3.853   0.964   2.736
 2078TIP3   OH2 6239   3.914   3.278   1.144
 2078TIP3    H1 6240   3.829   3.253   1.107
 2078TIP3    H2 6241   3.915   3.374   1.137
 2079TIP3   OH2 6242   0.677   5.405   2.066
 2079TIP3    H1 6243   0.633   5.356   1.996
 2079TIP3    H2 6244   0.766   5.369   2.068
 2080TIP3   OH2 6245   2.522   3.647   1.331
 2080TIP3    H1 6246   2.429   3.669   1.330
 2080TIP3    H2 6247   2.567   3.731   1.329
 2081TIP3   OH2 6248   4.654   5.700   0.276
 2081TIP3    H1 6249   4.610   5.733   0.198
 2081TIP3    H2 6250   4.649   5.772   0.339
 2082TIP3   OH2 6251   2.488   0.520   1.214
 2082TIP3    H1 6252   2.393   0.519   1.220
 2082TIP3    H2 6253   2.518   0.491   1.300
 2083TIP3   OH2 6254   4.002   4.279   4.551
 2083TIP3    H1 6255   3.951   4.318   4.621
 2083TIP3    H2 6256   3.969   4.321   4.471
 2084TIP3   OH2 6257   0.307   0.627   0.551
 2084TIP3    H1 6258   0.311   0.695   0.618
 2084TIP3    H2 6259   0.390   0.636   0.503
 2085TIP3   OH2 6260   6.020   0.896   1.904
 2085TIP3    H1 6261   5.978   0.977   1.877
 2085TIP3    H2 6262   5.961   0.827   1.873
 2086TIP3   OH2 6263   0.079   0.295   2.421
 2086TIP3    H1 6264  -0.015   0.287   2.407
 2086TIP3    H2 6265   0.100   0.226   2.483
 2087TIP3   OH2 6266   2.363   4.241   4.237
 2087TIP3    H1 6267   2.283   4.292   4.224
 2087TIP3    H2 6268   2.412   4.290   4.303
 2088TIP3   OH2 6269   4.728   2.059   0.930
 2088TIP3    H1 6270   4.733   2.105   0.845
 2088TIP3    H2 6271   4.749   1.968   0.909
 2089TIP3   OH2 6272   0.383   5.741   4.911
 2089TIP3    H1 6273   0.422   5.733   4.824
 2089TIP3    H2 6274   0.457   5.760   4.969
 2090TIP3   OH2 6275   5.595   5.900   4.613
 2090TIP3    H1 6276   5.654   5.918   4.540
 2090TIP3    H2 6277   5.587   5.805   4.614
 2091TIP3   OH2 6278   0.522   3.904   3.776
 2091TIP3    H1 6279   0.429   3.898   3.753
 2091TIP3    H2 6280   0.552   3.813   3.777
 2092TIP3   OH2 6281   6.032   5.350   2.710
 2092TIP3    H1 6282   6.024   5.333   2.616
 2092TIP3    H2 6283   6.122   5.382   2.720
 2093TIP3   OH2 6284   0.048   5.837   1.436
 2093TIP3    H1 6285  -0.047   5.841   1.431
 2093TIP3    H2 6286   0.072   5.759   1.386
 2094TIP3   OH2 6287   1.514   5.178   2.221
 2094TIP3    H1 6288   1.444   5.130   2.177
 2094TIP3    H2 6289   1.493   5.270   2.206
 2095TIP3   OH2 6290   3.107   5.455   0.915
 2095TIP3    H1 6291   3.073   5.409   0.992
 2095TIP3    H2 6292   3.139   5.538   0.950
 2096TIP3   OH2 6293   4.808   3.989   0.458
 2096TIP3    H1 6294   4.867   4.052   0.502
 2096TIP3    H2 6295   4.800   3.917   0.520
 2097TIP3   OH2 6296   5.702   5.650   3.526
 2097TIP3    H1 6297   5.691   5.559   3.496
 2097TIP3    H2 6298   5.786   5.677   3.490
 2098TIP3   OH2 6299   5.663   1.096   3.688
 2098TIP3    H1 6300   5.641   1.188   3.695
 2098TIP3    H2 6301   5.734   1.093   3.623
 2099TIP3   OH2 6302   1.835   5.028   3.903
 2099TIP3    H1 6303   1.872   4.958   3.850
 2099TIP3    H2 6304   1.813   5.097   3.841
 2100TIP3   OH2 6305   4.172   5.902   0.356
 2100TIP3    H1 6306   4.219   5.833   0.405
 2100TIP3    H2 6307   4.241   5.948   0.308
 2101TIP3   OH2 6308   0.824   4.981   3.096
 2101TIP3    H1 6309   0.749   4.953   3.043
 2101TIP3    H2 6310   0.860   5.056   3.049
 2102TIP3   OH2 6311   5.640   4.945   0.769
 2102TIP3    H1 6312   5.546   4.925   0.771
 2102TIP3    H2 6313   5.658   4.982   0.855
 2103TIP3   OH2 6314   1.471   1.131   2.726
 2103TIP3    H1 6315   1.539   1.115   2.793
 2103TIP3    H2 6316   1.519   1.168   2.652
 2104TIP3   OH2 6317   5.486   0.279   1.315
 2104TIP3    H1 6318   5.395   0.273   1.287
 2104TIP3    H2 6319   5.496   0.207   1.378
 2105TIP3   OH2 6320   1.334   5.713   2.219
 2105TIP3    H1 6321   1.323   5.800   2.181
 2105TIP3    H2 6322   1.260   5.704   2.280
 2106TIP3   OH2 6323   5.442   3.268   0.683
 2106TIP3    H1 6324   5.534   3.247   0.700
 2106TIP3    H2 6325   5.394   3.220   0.750
 2107TIP3   OH2 6326   4.322   2.917   3.313
 2107TIP3    H1 6327   4.244   2.927   3.258
 2107TIP3    H2 6328   4.304   2.971   3.390
 2108TIP3   OH2 6329   0.763   0.174   2.245
 2108TIP3    H1 6330   0.853   0.204   2.230
 2108TIP3    H2 6331   0.770   0.079   2.252
 2109TIP3   OH2 6332   1.716   1.319   3.763
 2109TIP3    H1 6333   1.779   1.361   3.704
 2109TIP3    H2 6334   1.761   1.314   3.847
 2110TIP3   OH2 6335   3.486   4.041   4.132
 2110TIP3    H1 6336   3.513   4.131   4.111
 2110TIP3    H2 6337   3.412   4.051   4.192
 2111TIP3   OH2 6338   5.219   5.599   0.146
 2111TIP3    H1 6339   5.145   5.654   0.170
 2111TIP3    H2 6340   5.273   5.595   0.225
 2112TIP3   OH2 6341   0.306   3.957   4.119
 2112TIP3    H1 6342   0.318   3.915   4.204
 2112TIP3    H2 6343   0.393   3.992   4.097
 2113TIP3   OH2 6344   3.013   2.489   4.777
 2113TIP3    H1 6345   3.021   2.486   4.682
 2113TIP3    H2 6346   3.101   2.471   4.810
 2114TIP3   OH2 6347   3.880   3.481   0.344
 2114TIP3    H1 6348   3.805   3.423   0.334
 2114TIP3    H2 6349   3.898   3.513   0.255
 2115TIP3   OH2 6350   1.990   1.737   1.216
 2115TIP3    H1 6351   2.004   1.643   1.207
 2115TIP3    H2 6352   1.950   1.763   1.133
 2116TIP3   OH2 6353   5.068   3.794   1.295
 2116TIP3    H1 6354   4.977   3.781   1.322
 2116TIP3    H2 6355   5.106   3.847   1.365
 2117TIP3   OH2 6356   6.317   5.637   0.954
 2117TIP3    H1 6357   6.231   5.609   0.924
 2117TIP3    H2 6358   6.364   5.660   0.873
 2118TIP3   OH2 6359   2.603   0.723   0.210
 2118TIP3    H1 6360   2.611   0.782   0.135
 2118TIP3    H2 6361   2.545   0.769   0.270
 2119TIP3   OH2 6362   5.504   1.095   2.117
 2119TIP3    H1 6363   5.486   1.177   2.162
 2119TIP3    H2 6364   5.420   1.068   2.081
 2120TIP3   OH2 6365   1.000   4.887   4.883
 2120TIP3    H1 6366   0.913   4.850   4.870
 2120TIP3    H2 6367   0.985   4.977   4.909
 2121TIP3   OH2 6368   3.265   3.227   3.281
 2121TIP3    H1 6369   3.308   3.186   3.206
 2121TIP3    H2 6370   3.294   3.175   3.356
 2122TIP3   OH2 6371   5.619   5.747   2.673
 2122TIP3    H1 6372   5.590   5.837   2.660
 2122TIP3    H2 6373   5.715   5.753   2.676
 2123TIP3   OH2 6374   3.458   5.329   3.887
 2123TIP3    H1 6375   3.502   5.394   3.941
 2123TIP3    H2 6376   3.385   5.298   3.941
 2124TIP3   OH2 6377   4.266   2.754   4.115
 2124TIP3    H1 6378   4.320   2.683   4.081
 2124TIP3    H2 6379   4.317   2.791   4.187
 2125TIP3   OH2 6380   2.042   0.943   0.256
 2125TIP3    H1 6381   1.973   0.930   0.191
 2125TIP3    H2 6382   2.121   0.960   0.205
 2126TIP3   OH2 6383   2.759   5.497   0.768
 2126TIP3    H1 6384   2.819   5.423   0.764
 2126TIP3    H2 6385   2.778   5.547   0.688
 2127TIP3   OH2 6386   5.013   1.877   0.118
 2127TIP3    H1 6387   5.038   1.951   0.173
 2127TIP3    H2 6388   5.044   1.900   0.031
 2128TIP3   OH2 6389   3.315   3.193   4.085
 2128TIP3    H1 6390   3.333   3.124   4.150
 2128TIP3    H2 6391   3.400   3.234   4.070
 2129TIP3   OH2 6392   6.196   0.419   3.857
 2129TIP3    H1 6393   6.173   0.335   3.898
 2129TIP3    H2 6394   6.242   0.467   3.926
 2130TIP3   OH2 6395   5.055   2.742   3.401
 2130TIP3    H1 6396   4.985   2.677   3.415
 2130TIP3    H2 6397   5.057   2.792   3.482
 2131TIP3   OH2 6398   4.278   4.458   3.203
 2131TIP3    H1 6399   4.272   4.457   3.299
 2131TIP3    H2 6400   4.334   4.384   3.182
 2132TIP3   OH2 6401   1.967   3.050   4.702
 2132TIP3    H1 6402   2.043   3.055   4.760
 2132TIP3    H2 6403   2.002   3.070   4.615
 2133TIP3   OH2 6404   4.636   2.088   2.244
 2133TIP3    H1 6405   4.623   2.059   2.334
 2133TIP3    H2 6406   4.633   2.184   2.250
 2134TIP3   OH2 6407   1.647   0.955   4.434
 2134TIP3    H1 6408   1.692   0.871   4.427
 2134TIP3    H2 6409   1.666   0.986   4.523
 2135TIP3   OH2 6410   2.161   1.311   3.109
 2135TIP3    H1 6411   2.126   1.388   3.065
 2135TIP3    H2 6412   2.089   1.279   3.164
 2136TIP3   OH2 6413   5.947   3.626   2.732
 2136TIP3    H1 6414   5.984   3.669   2.654
 2136TIP3    H2 6415   5.888   3.692   2.769
 2137TIP3   OH2 6416   3.388   2.030   3.326
 2137TIP3    H1 6417   3.297   2.052   3.307
 2137TIP3    H2 6418   3.436   2.057   3.247
 2138TIP3   OH2 6419  -0.021   5.954   4.518
 2138TIP3    H1 6420  -0.058   6.035   4.483
 2138TIP3    H2 6421   0.069   5.952   4.486
 2139TIP3   OH2 6422   2.305   3.478   4.754
 2139TIP3    H1 6423   2.326   3.387   4.732
 2139TIP3    H2 6424   2.210   3.483   4.745
 2140TIP3   OH2 6425   3.897   2.575   0.785
 2140TIP3    H1 6426   3.949   2.568   0.865
 2140TIP3    H2 6427   3.838   2.500   0.788
 2141TIP3   OH2 6428   1.288   4.539   4.175
 2141TIP3    H1 6429   1.230   4.614   4.162
 2141TIP3    H2 6430   1.285   4.523   4.270
 2142TIP3   OH2 6431   4.732   0.468   0.516
 2142TIP3    H1 6432   4.720   0.554   0.475
 2142TIP3    H2 6433   4.657   0.459   0.574
 2143TIP3   OH2 6434   1.962   0.738   0.420
 2143TIP3    H1 6435   1.995   0.810   0.367
 2143TIP3    H2 6436   2.022   0.732   0.494
 2144TIP3   OH2 6437   1.217   5.311   3.193
 2144TIP3    H1 6438   1.295   5.340   3.146
 2144TIP3    H2 6439   1.243   5.231   3.237
 2145TIP3   OH2 6440   1.662   5.414   3.866
 2145TIP3    H1 6441   1.756   5.395   3.872
 2145TIP3    H2 6442   1.619   5.337   3.901
 2146TIP3   OH2 6443   0.801   1.215   4.660
 2146TIP3    H1 6444   0.748   1.231   4.738
 2146TIP3    H2 6445   0.867   1.285   4.661
 2147TIP3   OH2 6446   0.711   0.153   4.492
 2147TIP3    H1 6447   0.686   0.192   4.408
 2147TIP3    H2 6448   0.782   0.208   4.524
 2148TIP3   OH2 6449   5.309   4.885   3.729
 2148TIP3    H1 6450   5.241   4.904   3.665
 2148TIP3    H2 6451   5.379   4.843   3.678
 2149TIP3   OH2 6452   0.489   2.188   5.195
 2149TIP3    H1 6453   0.516   2.265   5.145
 2149TIP3    H2 6454   0.422   2.146   5.141
 2150TIP3   OH2 6455   5.012   0.061   5.118
 2150TIP3    H1 6456   4.969  -0.022   5.097
 2150TIP3    H2 6457   5.035   0.053   5.210
 2151TIP3   OH2 6458   2.008   1.023   1.144
 2151TIP3    H1 6459   1.986   1.023   1.237
 2151TIP3    H2 6460   2.040   0.935   1.126
 2152TIP3   OH2 6461   4.657   4.509   2.812
 2152TIP3    H1 6462   4.614   4.593   2.795
 2152TIP3    H2 6463   4.650   4.497   2.907
 2153TIP3   OH2 6464   5.771   0.828   4.795
 2153TIP3    H1 6465   5.703   0.892   4.773
 2153TIP3    H2 6466   5.741   0.747   4.755
 2154TIP3   OH2 6467   4.751   3.908   5.170
 2154TIP3    H1 6468   4.747   3.984   5.112
 2154TIP3    H2 6469   4.740   3.832   5.113
 2155TIP3   OH2 6470   4.941   5.683   0.173
 2155TIP3    H1 6471   4.952   5.750   0.106
 2155TIP3    H2 6472   4.847   5.686   0.194
 2156TIP3   OH2 6473   2.146   5.121   1.460
 2156TIP3    H1 6474   2.240   5.138   1.455
 2156TIP3    H2 6475   2.138   5.043   1.515
 2157TIP3   OH2 6476   6.161   0.190   2.209
 2157TIP3    H1 6477   6.204   0.119   2.256
 2157TIP3    H2 6478   6.123   0.245   2.278
 2158TIP3   OH2 6479   0.506   0.223   2.904
 2158TIP3    H1 6480   0.515   0.175   2.821
 2158TIP3    H2 6481   0.485   0.312   2.877
 2159TIP3   OH2 6482   0.275   3.311   4.868
 2159TIP3    H1 6483   0.288   3.274   4.781
 2159TIP3    H2 6484   0.351   3.281   4.919
 2160TIP3   OH2 6485   3.927   2.647   1.985
 2160TIP3    H1 6486   3.883   2.719   1.941
 2160TIP3    H2 6487   3.965   2.686   2.064
 2161TIP3   OH2 6488   5.847   4.670   2.315
 2161TIP3    H1 6489   5.783   4.670   2.386
 2161TIP3    H2 6490   5.856   4.578   2.291
 2162TIP3   OH2 6491   2.491   2.114   0.524
 2162TIP3    H1 6492   2.493   2.210   0.529
 2162TIP3    H2 6493   2.510   2.095   0.433
 2163TIP3   OH2 6494   0.081   0.531   0.416
 2163TIP3    H1 6495   0.160   0.565   0.457
 2163TIP3    H2 6496   0.078   0.438   0.441
 2164TIP3   OH2 6497   0.010   4.344   1.157
 2164TIP3    H1 6498   0.082   4.350   1.219
 2164TIP3    H2 6499  -0.069   4.348   1.210
 2165TIP3   OH2 6500   5.751   2.359   4.888
 2165TIP3    H1 6501   5.683   2.420   4.861
 2165TIP3    H2 6502   5.833   2.404   4.870
 2166TIP3   OH2 6503   2.962   0.124   4.975
 2166TIP3    H1 6504   3.010   0.191   4.928
 2166TIP3    H2 6505   2.982   0.043   4.929
 2167TIP3   OH2 6506   4.179   4.732   0.722
 2167TIP3    H1 6507   4.114   4.789   0.762
 2167TIP3    H2 6508   4.251   4.729   0.785
 2168TIP3   OH2 6509   2.226   0.064   3.924
 2168TIP3    H1 6510   2.304   0.008   3.931
 2168TIP3    H2 6511   2.160   0.007   3.884
 2169TIP3   OH2 6512   3.065   5.559   0.305
 2169TIP3    H1 6513   2.998   5.492   0.289
 2169TIP3    H2 6514   3.143   5.510   0.330
 2170TIP3   OH2 6515   5.394   4.022   1.401
 2170TIP3    H1 6516   5.375   4.115   1.417
 2170TIP3    H2 6517   5.397   3.983   1.488
 2171TIP3   OH2 6518   1.252   1.975   1.508
 2171TIP3    H1 6519   1.297   1.984   1.592
 2171TIP3    H2 6520   1.175   1.923   1.527
 2172TIP3   OH2 6521   0.981   2.910   4.094
 2172TIP3    H1 6522   0.912   2.893   4.031
 2172TIP3    H2 6523   0.937   2.953   4.168
 2173TIP3   OH2 6524   0.494   0.526   2.115
 2173TIP3    H1 6525   0.414   0.521   2.168
 2173TIP3    H2 6526   0.508   0.436   2.085
 2174TIP3   OH2 6527   1.845   3.293   3.020
 2174TIP3    H1 6528   1.906   3.348   3.069
 2174TIP3    H2 6529   1.881   3.290   2.931
 2175TIP3   OH2 6530   3.860   3.969   0.458
 2175TIP3    H1 6531   3.785   3.910   0.461
 2175TIP3    H2 6532   3.832   4.040   0.399
 2176TIP3   OH2 6533   0.919   1.157   1.428
 2176TIP3    H1 6534   0.960   1.077   1.394
 2176TIP3    H2 6535   0.984   1.192   1.489
 2177TIP3   OH2 6536   0.930   2.908   1.856
 2177TIP3    H1 6537   0.928   2.866   1.770
 2177TIP3    H2 6538   1.016   2.950   1.859
 2178TIP3   OH2 6539   4.954   1.334   1.290
 2178TIP3    H1 6540   4.920   1.280   1.219
 2178TIP3    H2 6541   4.882   1.337   1.354
 2179TIP3   OH2 6542   4.523   1.719   4.998
 2179TIP3    H1 6543   4.466   1.659   5.046
 2179TIP3    H2 6544   4.610   1.705   5.035
 2180TIP3   OH2 6545   4.000   0.048   0.447
 2180TIP3    H1 6546   4.017  -0.044   0.465
 2180TIP3    H2 6547   4.016   0.058   0.353
 2181TIP3   OH2 6548   2.683   4.694   4.095
 2181TIP3    H1 6549   2.614   4.656   4.040
 2181TIP3    H2 6550   2.686   4.786   4.069
 2182TIP3   OH2 6551   0.700   1.723   1.424
 2182TIP3    H1 6552   0.743   1.802   1.455
 2182TIP3    H2 6553   0.720   1.721   1.330
 2183TIP3   OH2 6554   5.603   2.533   4.735
 2183TIP3    H1 6555   5.553   2.488   4.666
 2183TIP3    H2 6556   5.551   2.612   4.754
 2184TIP3   OH2 6557   0.719   0.998   3.693
 2184TIP3    H1 6558   0.772   0.961   3.763
 2184TIP3    H2 6559   0.716   0.929   3.627
 2185TIP3   OH2 6560   4.325   4.325   5.064
 2185TIP3    H1 6561   4.369   4.348   5.146
 2185TIP3    H2 6562   4.388   4.269   5.019
 2186TIP3   OH2 6563   4.771   0.553   3.909
 2186TIP3    H1 6564   4.715   0.624   3.879
 2186TIP3    H2 6565   4.739   0.533   3.997
 2187TIP3   OH2 6566   5.069   5.616   0.679
 2187TIP3    H1 6567   5.078   5.528   0.718
 2187TIP3    H2 6568   5.017   5.601   0.600
 2188TIP3   OH2 6569   3.039   4.135   4.469
 2188TIP3    H1 6570   2.984   4.116   4.393
 2188TIP3    H2 6571   3.111   4.188   4.433
 2189TIP3   OH2 6572   2.985   2.893   2.439
 2189TIP3    H1 6573   2.944   2.879   2.354
 2189TIP3    H2 6574   2.922   2.855   2.502
 2190TIP3   OH2 6575   6.201   1.253   4.990
 2190TIP3    H1 6576   6.287   1.231   5.026
 2190TIP3    H2 6577   6.155   1.295   5.062
 2191TIP3   OH2 6578   5.080   3.347   4.291
 2191TIP3    H1 6579   5.056   3.435   4.264
 2191TIP3    H2 6580   5.172   3.338   4.265
 2192TIP3   OH2 6581   4.282   0.531   4.543
 2192TIP3    H1 6582   4.254   0.616   4.576
 2192TIP3    H2 6583   4.360   0.549   4.492
 2193TIP3   OH2 6584   2.150   5.050   4.282
 2193TIP3    H1 6585   2.126   4.964   4.247
 2193TIP3    H2 6586   2.196   5.031   4.364
 2194TIP3   OH2 6587   4.032   5.443   3.551
 2194TIP3    H1 6588   4.066   5.404   3.632
 2194TIP3    H2 6589   4.101   5.426   3.486
 2195TIP3   OH2 6590   5.868   3.211   2.700
 2195TIP3    H1 6591   5.958   3.180   2.715
 2195TIP3    H2 6592   5.818   3.131   2.685
 2196TIP3   OH2 6593   1.526   4.674   0.473
 2196TIP3    H1 6594   1.605   4.633   0.436
 2196TIP3    H2 6595   1.455   4.644   0.417
 2197TIP3   OH2 6596   4.910   2.336   5.135
 2197TIP3    H1 6597   4.843   2.339   5.068
 2197TIP3    H2 6598   4.882   2.266   5.195
 2198TIP3   OH2 6599   2.941   5.911   2.505
 2198TIP3    H1 6600   2.931   6.002   2.532
 2198TIP3    H2 6601   2.880   5.863   2.561
 2199TIP3   OH2 6602   5.879   0.128   4.182
 2199TIP3    H1 6603   5.803   0.081   4.148
 2199TIP3    H2 6604   5.949   0.063   4.184
 2200TIP3   OH2 6605   3.414   3.850   4.804
 2200TIP3    H1 6606   3.398   3.943   4.819
 2200TIP3    H2 6607   3.359   3.806   4.870
 2201TIP3   OH2 6608   3.631   0.087   0.062
 2201TIP3    H1 6609   3.656   0.104  -0.029
 2201TIP3    H2 6610   3.698   0.026   0.094
 2202TIP3   OH2 6611   4.965   5.031   4.912
 2202TIP3    H1 6612   4.895   5.093   4.892
 2202TIP3    H2 6613   5.044   5.085   4.915
 2203TIP3   OH2 6614   0.003   2.662   1.250
 2203TIP3    H1 6615  -0.040   2.745   1.228
 2203TIP3    H2 6616   0.019   2.667   1.344
 2204TIP3   OH2 6617   3.099   5.522   3.289
 2204TIP3    H1 6618   3.151   5.593   3.251
 2204TIP3    H2 6619   3.106   5.536   3.384
 2205TIP3   OH2 6620   5.580   0.790   1.862
 2205TIP3    H1 6621   5.629   0.861   1.820
 2205TIP3    H2 6622   5.634   0.712   1.848
 2206TIP3   OH2 6623   1.037   4.913   4.447
 2206TIP3    H1 6624   1.042   4.842   4.511
 2206TIP3    H2 6625   1.019   4.869   4.364
 2207TIP3   OH2 6626   4.190   1.799   0.061
 2207TIP3    H1 6627   4.231   1.801   0.147
 2207TIP3    H2 6628   4.238   1.864   0.009
 2208TIP3   OH2 6629   5.252   3.947   4.159
 2208TIP3    H1 6630   5.216   3.876   4.107
 2208TIP3    H2 6631   5.340   3.917   4.183
 2209TIP3   OH2 6632   3.781   0.106   3.383
 2209TIP3    H1 6633   3.692   0.115   3.418
 2209TIP3    H2 6634   3.768   0.092   3.289
 2210TIP3   OH2 6635   4.163   3.354   0.014
 2210TIP3    H1 6636   4.154   3.259   0.005
 2210TIP3    H2 6637   4.089   3.390  -0.035
 2211TIP3   OH2 6638   3.225   3.886   5.105
 2211TIP3    H1 6639   3.144   3.836   5.097
 2211TIP3    H2 6640   3.223   3.920   5.195
 2212TIP3   OH2 6641   2.945   0.503   4.945
 2212TIP3    H1 6642   2.938   0.578   4.885
 2212TIP3    H2 6643   3.011   0.447   4.904
 2213TIP3   OH2 6644   0.417   3.286   2.307
 2213TIP3    H1 6645   0.353   3.357   2.316
 2213TIP3    H2 6646   0.410   3.236   2.388
 2214TIP3   OH2 6647   2.267   0.327   2.736
 2214TIP3    H1 6648   2.271   0.423   2.740
 2214TIP3    H2 6649   2.293   0.298   2.823
 2215TIP3   OH2 6650   5.346   2.522   4.505
 2215TIP3    H1 6651   5.265   2.474   4.523
 2215TIP3    H2 6652   5.382   2.479   4.427
 2216TIP3   OH2 6653   2.316   2.130   3.587
 2216TIP3    H1 6654   2.273   2.070   3.526
 2216TIP3    H2 6655   2.344   2.204   3.532
 2217TIP3   OH2 6656   5.934   5.805   3.061
 2217TIP3    H1 6657   5.967   5.716   3.068
 2217TIP3    H2 6658   5.839   5.795   3.048
 2218TIP3   OH2 6659   1.793   1.451   0.799
 2218TIP3    H1 6660   1.756   1.376   0.846
 2218TIP3    H2 6661   1.761   1.441   0.710
 2219TIP3   OH2 6662   0.667   1.868   1.158
 2219TIP3    H1 6663   0.732   1.929   1.193
 2219TIP3    H2 6664   0.705   1.838   1.075
 2220TIP3   OH2 6665   0.589   1.353   3.297
 2220TIP3    H1 6666   0.626   1.441   3.290
 2220TIP3    H2 6667   0.503   1.360   3.255
 2221TIP3   OH2 6668   3.751   0.315   2.638
 2221TIP3    H1 6669   3.708   0.331   2.722
 2221TIP3    H2 6670   3.700   0.243   2.599
 2222TIP3   OH2 6671   5.563   1.567   0.766
 2222TIP3    H1 6672   5.504   1.494   0.782
 2222TIP3    H2 6673   5.510   1.645   0.787
 2223TIP3   OH2 6674   4.153   0.815   3.170
 2223TIP3    H1 6675   4.127   0.874   3.099
 2223TIP3    H2 6676   4.242   0.842   3.193
 2224TIP3   OH2 6677   4.070   2.048   2.627
 2224TIP3    H1 6678   4.095   1.957   2.639
 2224TIP3    H2 6679   4.034   2.052   2.538
 2225TIP3   OH2 6680   1.845   1.758   3.972
 2225TIP3    H1 6681   1.841   1.852   3.954
 2225TIP3    H2 6682   1.878   1.753   4.062
 2226TIP3   OH2 6683   6.217   1.267   3.701
 2226TIP3    H1 6684   6.244   1.244   3.790
 2226TIP3    H2 6685   6.233   1.362   3.695
 2227TIP3   OH2 6686   0.932   0.562   4.435
 2227TIP3    H1 6687   0.892   0.499   4.375
 2227TIP3    H2 6688   0.937   0.643   4.385
 2228TIP3   OH2 6689   2.273   1.097   1.403
 2228TIP3    H1 6690   2.195   1.058   1.363
 2228TIP3    H2 6691   2.321   1.022   1.438
 2229TIP3   OH2 6692   1.315   4.810   1.029
 2229TIP3    H1 6693   1.290   4.740   0.969
 2229TIP3    H2 6694   1.361   4.765   1.100
 2230TIP3   OH2 6695   3.116   2.531   2.973
 2230TIP3    H1 6696   3.114   2.620   2.940
 2230TIP3    H2 6697   3.167   2.482   2.908
 2231TIP3   OH2 6698   5.286   0.134   5.173
 2231TIP3    H1 6699   5.192   0.133   5.157
 2231TIP3    H2 6700   5.325   0.111   5.089
 2232TIP3   OH2 6701   2.269   0.965   3.196
 2232TIP3    H1 6702   2.265   0.957   3.291
 2232TIP3    H2 6703   2.180   0.946   3.166
 2233TIP3   OH2 6704   0.800   4.598   5.059
 2233TIP3    H1 6705   0.893   4.608   5.040
 2233TIP3    H2 6706   0.755   4.635   4.984
 2234TIP3   OH2 6707   5.779   2.087   2.591
 2234TIP3    H1 6708   5.748   2.085   2.500
 2234TIP3    H2 6709   5.825   2.171   2.599
 2235TIP3   OH2 6710   3.141   1.034   1.465
 2235TIP3    H1 6711   3.177   1.088   1.535
 2235TIP3    H2 6712   3.048   1.026   1.486
 2236TIP3   OH2 6713   6.299   3.248   3.092
 2236TIP3    H1 6714   6.208   3.268   3.113
 2236TIP3    H2 6715   6.327   3.190   3.163
 2237TIP3   OH2 6716   5.755   5.104   4.836
 2237TIP3    H1 6717   5.812   5.141   4.769
 2237TIP3    H2 6718   5.802   5.116   4.918
 2238TIP3   OH2 6719   2.117   5.695   1.833
 2238TIP3    H1 6720   2.028   5.660   1.839
 2238TIP3    H2 6721   2.110   5.783   1.871
 2239TIP3   OH2 6722   0.179   0.202   1.981
 2239TIP3    H1 6723   0.213   0.147   1.910
 2239TIP3    H2 6724   0.167   0.142   2.054
 2240TIP3   OH2 6725   4.328   2.214   3.248
 2240TIP3    H1 6726   4.314   2.172   3.333
 2240TIP3    H2 6727   4.252   2.189   3.195
 2241TIP3   OH2 6728   3.186   3.239   0.423
 2241TIP3    H1 6729   3.252   3.308   0.414
 2241TIP3    H2 6730   3.174   3.205   0.334
 2242TIP3   OH2 6731   5.389   0.379   0.417
 2242TIP3    H1 6732   5.310   0.330   0.442
 2242TIP3    H2 6733   5.376   0.399   0.324
 2243TIP3   OH2 6734   6.030   0.242   4.422
 2243TIP3    H1 6735   5.973   0.229   4.346
 2243TIP3    H2 6736   6.108   0.284   4.386
 2244TIP3   OH2 6737   5.949   5.748   2.197
 2244TIP3    H1 6738   6.022   5.700   2.157
 2244TIP3    H2 6739   5.877   5.685   2.199
 2245TIP3   OH2 6740   5.382   4.101   1.904
 2245TIP3    H1 6741   5.392   4.128   1.995
 2245TIP3    H2 6742   5.289   4.079   1.896
 2246TIP3   OH2 6743   4.933   4.717   1.539
 2246TIP3    H1 6744   4.999   4.760   1.594
 2246TIP3    H2 6745   4.982   4.688   1.462
 2247TIP3   OH2 6746   5.290   4.173   0.827
 2247TIP3    H1 6747   5.385   4.187   0.822
 2247TIP3    H2 6748   5.274   4.152   0.919
 2248TIP3   OH2 6749   1.579   1.620   4.484
 2248TIP3    H1 6750   1.601   1.679   4.556
 2248TIP3    H2 6751   1.523   1.553   4.524
 2249TIP3   OH2 6752   0.396   5.706   1.626
 2249TIP3    H1 6753   0.439   5.672   1.547
 2249TIP3    H2 6754   0.382   5.799   1.608
 2250TIP3   OH2 6755   2.333   0.936   4.894
 2250TIP3    H1 6756   2.331   0.983   4.811
 2250TIP3    H2 6757   2.328   0.844   4.870
 2251TIP3   OH2 6758   3.350   4.161   2.988
 2251TIP3    H1 6759   3.296   4.117   2.922
 2251TIP3    H2 6760   3.300   4.154   3.069
 2252TIP3   OH2 6761   3.559   2.699   1.702
 2252TIP3    H1 6762   3.545   2.790   1.726
 2252TIP3    H2 6763   3.532   2.649   1.779
 2253TIP3   OH2 6764   2.913   3.349   4.755
 2253TIP3    H1 6765   2.984   3.405   4.723
 2253TIP3    H2 6766   2.839   3.368   4.698
 2254TIP3   OH2 6767   3.887   0.474   0.049
 2254TIP3    H1 6768   3.852   0.420   0.119
 2254TIP3    H2 6769   3.818   0.539   0.032
 2255TIP3   OH2 6770   3.216   1.338   1.513
 2255TIP3    H1 6771   3.164   1.407   1.554
 2255TIP3    H2 6772   3.258   1.292   1.585
 2256TIP3   OH2 6773   0.293   0.682   4.276
 2256TIP3    H1 6774   0.323   0.604   4.228
 2256TIP3    H2 6775   0.250   0.736   4.209
 2257TIP3   OH2 6776   5.556   3.868   0.406
 2257TIP3    H1 6777   5.494   3.929   0.446
 2257TIP3    H2 6778   5.555   3.792   0.464
 2258TIP3   OH2 6779   3.266   3.334   2.161
 2258TIP3    H1 6780   3.215   3.393   2.105
 2258TIP3    H2 6781   3.346   3.317   2.110
 2259TIP3   OH2 6782   3.063   3.380   1.692
 2259TIP3    H1 6783   3.021   3.299   1.664
 2259TIP3    H2 6784   3.157   3.360   1.691
 2260TIP3   OH2 6785   0.163   1.454   2.634
 2260TIP3    H1 6786   0.138   1.372   2.591
 2260TIP3    H2 6787   0.218   1.426   2.707
 2261TIP3   OH2 6788   1.237   5.627   3.416
 2261TIP3    H1 6789   1.232   5.533   3.437
 2261TIP3    H2 6790   1.164   5.666   3.463
 2262TIP3   OH2 6791   2.691   4.465   3.356
 2262TIP3    H1 6792   2.621   4.406   3.385
 2262TIP3    H2 6793   2.727   4.425   3.278
 2263TIP3   OH2 6794   5.031   4.954   3.677
 2263TIP3    H1 6795   4.997   4.974   3.765
 2263TIP3    H2 6796   5.004   4.863   3.662
 2264TIP3   OH2 6797   3.482   2.966   2.191
 2264TIP3    H1 6798   3.454   2.959   2.282
 2264TIP3    H2 6799   3.574   2.941   2.192
 2265TIP3   OH2 6800   0.731   1.297   1.002
 2265TIP3    H1 6801   0.653   1.330   0.956
 2265TIP3    H2 6802   0.786   1.262   0.933
 2266TIP3   OH2 6803   2.930   2.182   0.889
 2266TIP3    H1 6804   2.996   2.227   0.941
 2266TIP3    H2 6805   2.847   2.217   0.919
 2267TIP3   OH2 6806   1.204   5.701   4.560
 2267TIP3    H1 6807   1.129   5.657   4.519
 2267TIP3    H2 6808   1.164   5.758   4.626
 2268TIP3   OH2 6809   4.056   1.075   0.562
 2268TIP3    H1 6810   4.078   1.032   0.480
 2268TIP3    H2 6811   4.028   1.004   0.620
 2269TIP3   OH2 6812   5.791   2.866   0.551
 2269TIP3    H1 6813   5.832   2.942   0.592
 2269TIP3    H2 6814   5.741   2.902   0.478
 2270TIP3   OH2 6815   0.044   0.100   2.632
 2270TIP3    H1 6816  -0.006   0.088   2.713
 2270TIP3    H2 6817   0.134   0.078   2.657
 2271TIP3   OH2 6818   2.677   4.542   3.016
 2271TIP3    H1 6819   2.698   4.628   2.981
 2271TIP3    H2 6820   2.761   4.507   3.047
 2272TIP3   OH2 6821   4.330   1.846   1.419
 2272TIP3    H1 6822   4.358   1.755   1.421
 2272TIP3    H2 6823   4.408   1.894   1.389
 2273TIP3   OH2 6824   0.490   5.883   5.164
 2273TIP3    H1 6825   0.568   5.931   5.135
 2273TIP3    H2 6826   0.417   5.938   5.135
 2274TIP3   OH2 6827   3.907   2.931   4.207
 2274TIP3    H1 6828   3.914   2.993   4.135
 2274TIP3    H2 6829   3.945   2.850   4.172
 2275TIP3   OH2 6830   0.011   2.144   1.790
 2275TIP3    H1 6831   0.054   2.160   1.706
 2275TIP3    H2 6832   0.054   2.064   1.823
 2276TIP3   OH2 6833   1.424   5.438   2.211
 2276TIP3    H1 6834   1.370   5.452   2.288
 2276TIP3    H2 6835   1.443   5.526   2.178
 2277TIP3   OH2 6836   3.119   0.690   2.853
 2277TIP3    H1 6837   3.110   0.728   2.766
 2277TIP3    H2 6838   3.213   0.695   2.872
 2278TIP3   OH2 6839   6.089   5.065   3.464
 2278TIP3    H1 6840   5.996   5.050   3.450
 2278TIP3    H2 6841   6.104   5.046   3.556
 2279TIP3   OH2 6842   5.880   1.018   2.559
 2279TIP3    H1 6843   5.813   1.003   2.626
 2279TIP3    H2 6844   5.839   1.076   2.496
 2280TIP3   OH2 6845   1.630   2.975   3.084
 2280TIP3    H1 6846   1.635   3.070   3.075
 2280TIP3    H2 6847   1.545   2.951   3.049
 2281TIP3   OH2 6848   4.582   5.243   3.894
 2281TIP3    H1 6849   4.665   5.198   3.882
 2281TIP3    H2 6850   4.602   5.336   3.883
 2282TIP3   OH2 6851   0.563   0.214   1.227
 2282TIP3    H1 6852   0.527   0.299   1.201
 2282TIP3    H2 6853   0.654   0.216   1.199
 2283TIP3   OH2 6854   5.557   5.227   2.515
 2283TIP3    H1 6855   5.506   5.150   2.540
 2283TIP3    H2 6856   5.575   5.272   2.598
 2284TIP3   OH2 6857   6.276   2.492   3.543
 2284TIP3    H1 6858   6.219   2.551   3.494
 2284TIP3    H2 6859   6.327   2.447   3.477
 2285TIP3   OH2 6860   3.392   5.176   2.406
 2285TIP3    H1 6861   3.406   5.101   2.348
 2285TIP3    H2 6862   3.425   5.148   2.491
 2286TIP3   OH2 6863   6.149   4.067   0.529
 2286TIP3    H1 6864   6.110   3.980   0.534
 2286TIP3    H2 6865   6.088   4.119   0.477
 2287TIP3   OH2 6866   2.223   1.806   0.355
 2287TIP3    H1 6867   2.292   1.872   0.349
 2287TIP3    H2 6868   2.247   1.741   0.288
 2288TIP3   OH2 6869   2.421   5.389   4.837
 2288TIP3    H1 6870   2.496   5.425   4.884
 2288TIP3    H2 6871   2.411   5.445   4.760
 2289TIP3   OH2 6872   1.317   3.068   3.824
 2289TIP3    H1 6873   1.329   3.064   3.919
 2289TIP3    H2 6874   1.384   3.009   3.789
 2290TIP3   OH2 6875   3.009   2.753   0.452
 2290TIP3    H1 6876   3.064   2.675   0.444
 2290TIP3    H2 6877   3.066   2.819   0.490
 2291TIP3   OH2 6878   1.606   3.050   5.192
 2291TIP3    H1 6879   1.630   3.130   5.145
 2291TIP3    H2 6880   1.608   2.981   5.125
 2292TIP3   OH2 6881   1.072   1.539   0.804
 2292TIP3    H1 6882   1.034   1.624   0.781
 2292TIP3    H2 6883   1.035   1.478   0.739
 2293TIP3   OH2 6884   4.578   3.014   3.829
 2293TIP3    H1 6885   4.501   3.036   3.881
 2293TIP3    H2 6886   4.644   2.989   3.894
 2294TIP3   OH2 6887   1.884   1.473   5.091
 2294TIP3    H1 6888   1.974   1.450   5.116
 2294TIP3    H2 6889   1.892   1.560   5.050
 2295TIP3   OH2 6890   0.543   4.468   0.130
 2295TIP3    H1 6891   0.505   4.408   0.066
 2295TIP3    H2 6892   0.537   4.421   0.213
 2296TIP3   OH2 6893   3.658   4.852   0.880
 2296TIP3    H1 6894   3.619   4.783   0.827
 2296TIP3    H2 6895   3.589   4.876   0.943
 2297TIP3   OH2 6896   3.080   4.344   2.826
 2297TIP3    H1 6897   3.078   4.253   2.854
 2297TIP3    H2 6898   3.006   4.351   2.765
 2298TIP3   OH2 6899   1.070   4.421   3.203
 2298TIP3    H1 6900   1.106   4.407   3.115
 2298TIP3    H2 6901   0.996   4.480   3.190
 2299TIP3   OH2 6902   3.309   0.575   1.683
 2299TIP3    H1 6903   3.403   0.589   1.669
 2299TIP3    H2 6904   3.266   0.622   1.611
 2300TIP3   OH2 6905   5.087   2.124   4.310
 2300TIP3    H1 6906   5.061   2.184   4.379
 2300TIP3    H2 6907   5.173   2.155   4.282
 2301TIP3   OH2 6908   0.098   5.704   2.145
 2301TIP3    H1 6909   0.160   5.695   2.073
 2301TIP3    H2 6910   0.039   5.774   2.118
 2302TIP3   OH2 6911   5.506   1.651   4.897
 2302TIP3    H1 6912   5.526   1.742   4.872
 2302TIP3    H2 6913   5.587   1.617   4.933
 2303TIP3   OH2 6914   1.071   3.626   3.022
 2303TIP3    H1 6915   1.159   3.588   3.020
 2303TIP3    H2 6916   1.013   3.554   2.996
 2304TIP3   OH2 6917   3.705   1.046   4.536
 2304TIP3    H1 6918   3.743   0.993   4.606
 2304TIP3    H2 6919   3.616   1.013   4.526
 2305TIP3   OH2 6920   3.380   2.050   0.655
 2305TIP3    H1 6921   3.430   1.969   0.650
 2305TIP3    H2 6922   3.295   2.024   0.689
 2306TIP3   OH2 6923   2.029   2.365   4.990
 2306TIP3    H1 6924   1.943   2.339   4.956
 2306TIP3    H2 6925   2.029   2.461   4.982
 2307TIP3   OH2 6926   1.382   2.861   3.039
 2307TIP3    H1 6927   1.300   2.847   3.086
 2307TIP3    H2 6928   1.379   2.952   3.011
 2308TIP3   OH2 6929   0.075   5.563   5.096
 2308TIP3    H1 6930   0.097   5.632   5.033
 2308TIP3    H2 6931   0.111   5.594   5.179
 2309TIP3   OH2 6932   2.071   4.908   0.934
 2309TIP3    H1 6933   2.126   4.981   0.964
 2309TIP3    H2 6934   2.129   4.832   0.937
 2310TIP3   OH2 6935   5.290   5.785   0.655
 2310TIP3    H1 6936   5.211   5.741   0.685
 2310TIP3    H2 6937   5.359   5.754   0.714
 2311TIP3   OH2 6938   5.865   4.768   0.738
 2311TIP3    H1 6939   5.795   4.832   0.725
 2311TIP3    H2 6940   5.934   4.817   0.784
 2312TIP3   OH2 6941   3.380   0.438   0.862
 2312TIP3    H1 6942   3.369   0.528   0.893
 2312TIP3    H2 6943   3.346   0.440   0.772
 2313TIP3   OH2 6944   5.212   1.645   4.259
 2313TIP3    H1 6945   5.240   1.581   4.194
 2313TIP3    H2 6946   5.134   1.685   4.222
 2314TIP3   OH2 6947   0.061   0.970   4.336
 2314TIP3    H1 6948   0.081   0.993   4.245
 2314TIP3    H2 6949  -0.008   0.904   4.329
 2315TIP3   OH2 6950   4.388   1.220   4.749
 2315TIP3    H1 6951   4.338   1.299   4.767
 2315TIP3    H2 6952   4.347   1.181   4.672
 2316TIP3   OH2 6953   0.150   5.001   0.621
 2316TIP3    H1 6954   0.160   4.907   0.605
 2316TIP3    H2 6955   0.228   5.041   0.583
 2317TIP3   OH2 6956   0.296   3.848   3.642
 2317TIP3    H1 6957   0.215   3.807   3.673
 2317TIP3    H2 6958   0.273   3.882   3.556
 2318TIP3   OH2 6959   1.607   1.530   1.199
 2318TIP3    H1 6960   1.604   1.625   1.185
 2318TIP3    H2 6961   1.564   1.516   1.283
 2319TIP3   OH2 6962   3.051   5.502   2.509
 2319TIP3    H1 6963   3.085   5.430   2.456
 2319TIP3    H2 6964   3.111   5.575   2.492
 2320TIP3   OH2 6965   4.625   1.604   1.944
 2320TIP3    H1 6966   4.536   1.636   1.928
 2320TIP3    H2 6967   4.623   1.575   2.036
 2321TIP3   OH2 6968   4.863   0.137   3.014
 2321TIP3    H1 6969   4.830   0.137   2.924
 2321TIP3    H2 6970   4.934   0.072   3.013
 2322TIP3   OH2 6971   4.650   3.572   0.720
 2322TIP3    H1 6972   4.628   3.623   0.643
 2322TIP3    H2 6973   4.630   3.482   0.696
 2323TIP3   OH2 6974   5.053   1.596   0.989
 2323TIP3    H1 6975   5.064   1.589   1.084
 2323TIP3    H2 6976   4.968   1.556   0.972
 2324TIP3   OH2 6977   1.483   1.788   2.125
 2324TIP3    H1 6978   1.563   1.829   2.158
 2324TIP3    H2 6979   1.414   1.817   2.185
 2325TIP3   OH2 6980   4.205   2.340   2.850
 2325TIP3    H1 6981   4.233   2.389   2.773
 2325TIP3    H2 6982   4.110   2.350   2.852
 2326TIP3   OH2 6983   4.755   2.308   3.930
 2326TIP3    H1 6984   4.850   2.298   3.936
 2326TIP3    H2 6985   4.721   2.253   4.001
 2327TIP3   OH2 6986   3.041   0.892   0.137
 2327TIP3    H1 6987   3.104   0.877   0.066
 2327TIP3    H2 6988   3.068   0.832   0.206
 2328TIP3   OH2 6989   6.123   5.658   4.688
 2328TIP3    H1 6990   6.145   5.598   4.759
 2328TIP3    H2 6991   6.028   5.655   4.681
 2329TIP3   OH2 6992   0.340   5.278   4.465
 2329TIP3    H1 6993   0.393   5.279   4.385
 2329TIP3    H2 6994   0.326   5.371   4.484
 2330TIP3   OH2 6995   0.309   0.360   4.280
 2330TIP3    H1 6996   0.262   0.370   4.197
 2330TIP3    H2 6997   0.243   0.325   4.340
 2331TIP3   OH2 6998   1.733   2.013   0.715
 2331TIP3    H1 6999   1.809   2.022   0.772
 2331TIP3    H2 7000   1.768   2.021   0.626
 2332TIP3   OH2 7001   1.504   5.879   5.058
 2332TIP3    H1 7002   1.463   5.817   5.119
 2332TIP3    H2 7003   1.494   5.837   4.972
 2333TIP3   OH2 7004   4.677   0.060   4.424
 2333TIP3    H1 7005   4.638  -0.026   4.410
 2333TIP3    H2 7006   4.667   0.075   4.518
 2334TIP3   OH2 7007   5.592   3.384   1.255
 2334TIP3    H1 7008   5.680   3.369   1.220
 2334TIP3    H2 7009   5.565   3.468   1.217
 2335TIP3   OH2 7010   4.727   5.723   4.411
 2335TIP3    H1 7011   4.665   5.656   4.440
 2335TIP3    H2 7012   4.673   5.785   4.361
 2336TIP3   OH2 7013   1.841   4.705   0.774
 2336TIP3    H1 7014   1.756   4.734   0.740
 2336TIP3    H2 7015   1.846   4.743   0.862
 2337TIP3   OH2 7016   0.001   4.380   2.564
 2337TIP3    H1 7017   0.070   4.344   2.508
 2337TIP3    H2 7018  -0.019   4.309   2.625
 2338TIP3   OH2 7019   1.594   0.557   2.891
 2338TIP3    H1 7020   1.650   0.604   2.953
 2338TIP3    H2 7021   1.654   0.524   2.824
 2339TIP3   OH2 7022   0.767   0.256   3.682
 2339TIP3    H1 7023   0.763   0.166   3.652
 2339TIP3    H2 7024   0.792   0.250   3.775
 2340TIP3   OH2 7025   0.726   5.547   4.289
 2340TIP3    H1 7026   0.722   5.469   4.344
 2340TIP3    H2 7027   0.732   5.514   4.200
 2341TIP3   OH2 7028   6.223   3.248   0.961
 2341TIP3    H1 7029   6.154   3.314   0.968
 2341TIP3    H2 7030   6.197   3.180   1.023
 2342TIP3   OH2 7031   1.214   0.880   3.357
 2342TIP3    H1 7032   1.252   0.860   3.442
 2342TIP3    H2 7033   1.289   0.896   3.299
 2343TIP3   OH2 7034   3.170   1.736   4.365
 2343TIP3    H1 7035   3.206   1.676   4.430
 2343TIP3    H2 7036   3.213   1.712   4.283
 2344TIP3   OH2 7037   4.382   3.681   1.023
 2344TIP3    H1 7038   4.473   3.709   1.011
 2344TIP3    H2 7039   4.330   3.749   0.982
 2345TIP3   OH2 7040   2.682   4.090   3.261
 2345TIP3    H1 7041   2.620   4.138   3.316
 2345TIP3    H2 7042   2.633   4.069   3.181
 2346TIP3   OH2 7043   3.786   1.373   4.823
 2346TIP3    H1 7044   3.862   1.371   4.880
 2346TIP3    H2 7045   3.720   1.320   4.869
 2347TIP3   OH2 7046   0.348   2.967   2.956
 2347TIP3    H1 7047   0.271   3.021   2.938
 2347TIP3    H2 7048   0.410   3.028   2.999
 2348TIP3   OH2 7049   2.144   5.702   4.847
 2348TIP3    H1 7050   2.173   5.628   4.900
 2348TIP3    H2 7051   2.208   5.706   4.776
 2349TIP3   OH2 7052   3.506   0.491   2.303
 2349TIP3    H1 7053   3.507   0.398   2.329
 2349TIP3    H2 7054   3.560   0.495   2.224
 2350TIP3   OH2 7055   1.535   0.147   0.310
 2350TIP3    H1 7056   1.580   0.122   0.229
 2350TIP3    H2 7057   1.554   0.075   0.371
 2351TIP3   OH2 7058   5.195   4.673   2.397
 2351TIP3    H1 7059   5.249   4.689   2.319
 2351TIP3    H2 7060   5.115   4.633   2.363
 2352TIP3   OH2 7061   4.551   5.197   3.506
 2352TIP3    H1 7062   4.459   5.175   3.525
 2352TIP3    H2 7063   4.598   5.115   3.523
 2353TIP3   OH2 7064   2.111   0.179   4.329
 2353TIP3    H1 7065   2.100   0.239   4.255
 2353TIP3    H2 7066   2.189   0.128   4.308
 2354TIP3   OH2 7067   5.341   4.925   3.385
 2354TIP3    H1 7068   5.298   5.010   3.399
 2354TIP3    H2 7069   5.370   4.927   3.294
 2355TIP3   OH2 7070   0.079   1.994   1.331
 2355TIP3    H1 7071   0.053   2.001   1.239
 2355TIP3    H2 7072   0.092   1.900   1.344
 2356TIP3   OH2 7073   2.691   0.149   5.048
 2356TIP3    H1 7074   2.651   0.236   5.037
 2356TIP3    H2 7075   2.785   0.166   5.048
 2357TIP3   OH2 7076   1.666   1.459   4.789
 2357TIP3    H1 7077   1.593   1.421   4.740
 2357TIP3    H2 7078   1.737   1.466   4.724
 2358TIP3   OH2 7079   4.637   2.753   2.398
 2358TIP3    H1 7080   4.724   2.793   2.400
 2358TIP3    H2 7081   4.577   2.827   2.384
 2359TIP3   OH2 7082   1.998   2.822   0.953
 2359TIP3    H1 7083   1.939   2.772   0.896
 2359TIP3    H2 7084   1.990   2.779   1.038
 2360TIP3   OH2 7085   1.775   5.429   4.585
 2360TIP3    H1 7086   1.815   5.464   4.505
 2360TIP3    H2 7087   1.815   5.479   4.656
 2361TIP3   OH2 7088   4.299   4.935   3.700
 2361TIP3    H1 7089   4.296   4.851   3.745
 2361TIP3    H2 7090   4.283   4.913   3.608
 2362TIP3   OH2 7091   1.913   5.069   5.070
 2362TIP3    H1 7092   1.942   4.993   5.120
 2362TIP3    H2 7093   1.853   5.033   5.005
 2363TIP3   OH2 7094   1.313   5.213   4.302
 2363TIP3    H1 7095   1.302   5.263   4.221
 2363TIP3    H2 7096   1.390   5.252   4.344
 2364TIP3   OH2 7097   3.185   1.896   1.179
 2364TIP3    H1 7098   3.204   1.803   1.166
 2364TIP3    H2 7099   3.254   1.942   1.131
 2365TIP3   OH2 7100   1.788   1.677   4.893
 2365TIP3    H1 7101   1.758   1.698   4.982
 2365TIP3    H2 7102   1.733   1.604   4.866
 2366TIP3   OH2 7103   4.734   2.688   1.435
 2366TIP3    H1 7104   4.772   2.644   1.359
 2366TIP3    H2 7105   4.697   2.769   1.399
 2367TIP3   OH2 7106   4.645   3.765   3.128
 2367TIP3    H1 7107   4.611   3.686   3.086
 2367TIP3    H2 7108   4.731   3.778   3.088
 2368TIP3   OH2 7109   0.889   4.921   2.370
 2368TIP3    H1 7110   0.851   4.884   2.290
 2368TIP3    H2 7111   0.955   4.983   2.339
 2369TIP3   OH2 7112   5.349   5.181   1.961
 2369TIP3    H1 7113   5.396   5.243   2.017
 2369TIP3    H2 7114   5.303   5.123   2.022
 2370TIP3   OH2 7115   5.367   0.924   1.605
 2370TIP3    H1 7116   5.298   0.911   1.540
 2370TIP3    H2 7117   5.431   0.855   1.586
 2371TIP3   OH2 7118   4.738   2.384   2.675
 2371TIP3    H1 7119   4.706   2.465   2.714
 2371TIP3    H2 7120   4.824   2.407   2.640
 2372TIP3   OH2 7121   2.940   2.568   4.501
 2372TIP3    H1 7122   2.873   2.619   4.457
 2372TIP3    H2 7123   2.988   2.524   4.431
 2373TIP3   OH2 7124   1.936   0.129   1.516
 2373TIP3    H1 7125   1.993   0.055   1.534
 2373TIP3    H2 7126   1.966   0.162   1.432
 2374TIP3   OH2 7127   0.137   5.064   0.169
 2374TIP3    H1 7128   0.142   4.982   0.218
 2374TIP3    H2 7129   0.134   5.132   0.237
 2375TIP3   OH2 7130   2.043   0.266   3.364
 2375TIP3    H1 7131   1.967   0.255   3.422
 2375TIP3    H2 7132   2.098   0.330   3.409
 2376TIP3   OH2 7133   3.853   5.711   5.151
 2376TIP3    H1 7134   3.895   5.679   5.231
 2376TIP3    H2 7135   3.921   5.763   5.108
 2377TIP3   OH2 7136   0.354   5.036   4.225
 2377TIP3    H1 7137   0.349   5.131   4.210
 2377TIP3    H2 7138   0.395   5.029   4.311
 2378TIP3   OH2 7139   3.310   2.056   0.975
 2378TIP3    H1 7140   3.237   2.029   0.920
 2378TIP3    H2 7141   3.386   2.010   0.938
 2379TIP3   OH2 7142   3.951   4.507   4.387
 2379TIP3    H1 7143   3.892   4.556   4.443
 2379TIP3    H2 7144   3.913   4.513   4.299
 2380TIP3   OH2 7145   2.907   0.515   1.412
 2380TIP3    H1 7146   2.980   0.455   1.427
 2380TIP3    H2 7147   2.924   0.551   1.325
 2381TIP3   OH2 7148   1.780   4.548   1.018
 2381TIP3    H1 7149   1.723   4.535   1.094
 2381TIP3    H2 7150   1.869   4.548   1.054
 2382TIP3   OH2 7151   4.099   3.664   0.699
 2382TIP3    H1 7152   4.133   3.602   0.634
 2382TIP3    H2 7153   4.176   3.708   0.733
 2383TIP3   OH2 7154   4.845  -0.027   1.222
 2383TIP3    H1 7155   4.919   0.031   1.204
 2383TIP3    H2 7156   4.805  -0.043   1.136
 2384TIP3   OH2 7157   4.151   0.165   1.348
 2384TIP3    H1 7158   4.165   0.114   1.268
 2384TIP3    H2 7159   4.145   0.255   1.318
 2385TIP3   OH2 7160   5.825   0.038   2.982
 2385TIP3    H1 7161   5.841   0.131   2.967
 2385TIP3    H2 7162   5.734   0.025   2.954
 2386TIP3   OH2 7163   4.117   5.840   0.036
 2386TIP3    H1 7164   4.044   5.871   0.090
 2386TIP3    H2 7165   4.171   5.918   0.021
 2387TIP3   OH2 7166   4.592   1.288   5.206
 2387TIP3    H1 7167   4.573   1.253   5.119
 2387TIP3    H2 7168   4.560   1.220   5.266
 2388TIP3   OH2 7169   4.874   2.763   1.694
 2388TIP3    H1 7170   4.933   2.835   1.672
 2388TIP3    H2 7171   4.914   2.722   1.770
 2389TIP3   OH2 7172   1.725   5.834   1.997
 2389TIP3    H1 7173   1.766   5.748   2.010
 2389TIP3    H2 7174   1.645   5.815   1.948
 2390TIP3   OH2 7175   4.007   0.586   5.133
 2390TIP3    H1 7176   4.030   0.496   5.113
 2390TIP3    H2 7177   3.960   0.617   5.055
 2391TIP3   OH2 7178   1.817   4.331   0.409
 2391TIP3    H1 7179   1.732   4.367   0.381
 2391TIP3    H2 7180   1.798   4.285   0.490
 2392TIP3   OH2 7181   3.113   1.827   2.140
 2392TIP3    H1 7182   3.154   1.747   2.108
 2392TIP3    H2 7183   3.131   1.892   2.072
 2393TIP3   OH2 7184   6.097   5.379   0.558
 2393TIP3    H1 7185   6.013   5.401   0.518
 2393TIP3    H2 7186   6.162   5.426   0.506
 2394TIP3   OH2 7187   5.431   0.598   1.212
 2394TIP3    H1 7188   5.339   0.611   1.191
 2394TIP3    H2 7189   5.468   0.558   1.133
 2395TIP3   OH2 7190   5.161   2.322   4.520
 2395TIP3    H1 7191   5.123   2.309   4.607
 2395TIP3    H2 7192   5.228   2.255   4.513
 2396TIP3   OH2 7193   2.348   2.824   2.989
 2396TIP3    H1 7194   2.343   2.730   3.009
 2396TIP3    H2 7195   2.260   2.848   2.960
 2397TIP3   OH2 7196   5.528   4.888   4.007
 2397TIP3    H1 7197   5.547   4.823   3.939
 2397TIP3    H2 7198   5.610   4.937   4.016
 2398TIP3   OH2 7199   4.158   5.088   2.962
 2398TIP3    H1 7200   4.200   5.038   2.891
 2398TIP3    H2 7201   4.231   5.128   3.009
 2399TIP3   OH2 7202   3.124   3.832   0.683
 2399TIP3    H1 7203   3.128   3.736   0.676
 2399TIP3    H2 7204   3.159   3.851   0.770
 2400TIP3   OH2 7205   5.774   1.684   2.922
 2400TIP3    H1 7206   5.841   1.734   2.968
 2400TIP3    H2 7207   5.778   1.716   2.832
 2401TIP3   OH2 7208   3.411   4.176   1.655
 2401TIP3    H1 7209   3.349   4.122   1.607
 2401TIP3    H2 7210   3.494   4.165   1.608
 2402TIP3   OH2 7211   1.679   5.006   1.631
 2402TIP3    H1 7212   1.664   5.096   1.658
 2402TIP3    H2 7213   1.593   4.965   1.632
 2403TIP3   OH2 7214   4.607   1.735   1.491
 2403TIP3    H1 7215   4.627   1.645   1.519
 2403TIP3    H2 7216   4.636   1.739   1.400
 2404TIP3   OH2 7217   6.042   2.705   0.433
 2404TIP3    H1 7218   6.095   2.702   0.512
 2404TIP3    H2 7219   5.960   2.747   0.461
 2405TIP3   OH2 7220   5.286   0.399   3.250
 2405TIP3    H1 7221   5.225   0.362   3.188
 2405TIP3    H2 7222   5.299   0.330   3.315
 2406TIP3   OH2 7223   3.010   4.386   2.380
 2406TIP3    H1 7224   3.077   4.409   2.445
 2406TIP3    H2 7225   3.029   4.443   2.305
 2407TIP3   OH2 7226   5.165   5.181   2.244
 2407TIP3    H1 7227   5.125   5.139   2.320
 2407TIP3    H2 7228   5.235   5.235   2.282
 2408TIP3   OH2 7229   2.207   4.626   2.706
 2408TIP3    H1 7230   2.291   4.672   2.696
 2408TIP3    H2 7231   2.178   4.611   2.616
 2409TIP3   OH2 7232   2.345   1.221   3.928
 2409TIP3    H1 7233   2.314   1.138   3.965
 2409TIP3    H2 7234   2.341   1.208   3.833
 2410TIP3   OH2 7235   4.110   0.618   0.057
 2410TIP3    H1 7236   4.140   0.630  -0.033
 2410TIP3    H2 7237   4.021   0.584   0.049
 2411TIP3   OH2 7238   1.574   0.334   3.849
 2411TIP3    H1 7239   1.587   0.314   3.942
 2411TIP3    H2 7240   1.481   0.317   3.833
 2412TIP3   OH2 7241   1.176   0.668   1.316
 2412TIP3    H1 7242   1.126   0.664   1.398
 2412TIP3    H2 7243   1.264   0.640   1.341
 2413TIP3   OH2 7244   1.142   3.866   3.443
 2413TIP3    H1 7245   1.187   3.844   3.361
 2413TIP3    H2 7246   1.208   3.911   3.495
 2414TIP3   OH2 7247   1.681   4.069   1.487
 2414TIP3    H1 7248   1.699   4.045   1.578
 2414TIP3    H2 7249   1.766   4.095   1.452
 2415TIP3   OH2 7250   4.331   5.144   3.873
 2415TIP3    H1 7251   4.349   5.085   3.800
 2415TIP3    H2 7252   4.417   5.178   3.898
 2416TIP3   OH2 7253   4.155   5.974   2.377
 2416TIP3    H1 7254   4.095   5.900   2.387
 2416TIP3    H2 7255   4.149   6.021   2.460
 2417TIP3   OH2 7256   5.944   4.456   4.492
 2417TIP3    H1 7257   6.009   4.435   4.425
 2417TIP3    H2 7258   5.865   4.411   4.463
 2418TIP3   OH2 7259   6.119   4.582   4.215
 2418TIP3    H1 7260   6.157   4.531   4.287
 2418TIP3    H2 7261   6.195   4.619   4.170
 2419TIP3   OH2 7262   3.905   2.281   2.734
 2419TIP3    H1 7263   3.912   2.186   2.744
 2419TIP3    H2 7264   3.925   2.298   2.642
 2420TIP3   OH2 7265   5.995   3.308   3.952
 2420TIP3    H1 7266   5.902   3.292   3.965
 2420TIP3    H2 7267   6.036   3.277   4.033
 2421TIP3   OH2 7268   5.338   1.611   1.916
 2421TIP3    H1 7269   5.278   1.537   1.908
 2421TIP3    H2 7270   5.338   1.632   2.009
 2422TIP3   OH2 7271   2.361   1.604   5.142
 2422TIP3    H1 7272   2.394   1.515   5.129
 2422TIP3    H2 7273   2.270   1.600   5.113
 2423TIP3   OH2 7274   5.234   2.538   0.747
 2423TIP3    H1 7275   5.264   2.450   0.769
 2423TIP3    H2 7276   5.141   2.527   0.727
 2424TIP3   OH2 7277   0.713   3.877   2.675
 2424TIP3    H1 7278   0.695   3.839   2.761
 2424TIP3    H2 7279   0.628   3.906   2.642
 2425TIP3   OH2 7280   4.136   2.898   0.461
 2425TIP3    H1 7281   4.208   2.956   0.437
 2425TIP3    H2 7282   4.058   2.940   0.425
 2426TIP3   OH2 7283   2.506   2.949   0.349
 2426TIP3    H1 7284   2.581   2.895   0.324
 2426TIP3    H2 7285   2.537   3.039   0.340
 2427TIP3   OH2 7286   4.062   2.695   3.621
 2427TIP3    H1 7287   4.087   2.762   3.557
 2427TIP3    H2 7288   4.104   2.722   3.702
 2428TIP3   OH2 7289   5.268   4.753   1.176
 2428TIP3    H1 7290   5.344   4.761   1.118
 2428TIP3    H2 7291   5.270   4.832   1.229
 2429TIP3   OH2 7292   3.477   5.414   3.223
 2429TIP3    H1 7293   3.489   5.320   3.234
 2429TIP3    H2 7294   3.515   5.452   3.302
 2430TIP3   OH2 7295   5.605   1.095   4.215
 2430TIP3    H1 7296   5.554   1.162   4.259
 2430TIP3    H2 7297   5.696   1.116   4.235
 2431TIP3   OH2 7298   4.466   1.362   4.238
 2431TIP3    H1 7299   4.536   1.357   4.304
 2431TIP3    H2 7300   4.445   1.455   4.233
 2432TIP3   OH2 7301   3.926   4.902   0.847
 2432TIP3    H1 7302   3.840   4.861   0.853
 2432TIP3    H2 7303   3.907   4.995   0.834
 2433TIP3   OH2 7304   5.708   4.243   1.402
 2433TIP3    H1 7305   5.752   4.270   1.482
 2433TIP3    H2 7306   5.669   4.158   1.423
 2434TIP3   OH2 7307   2.160   4.997   2.267
 2434TIP3    H1 7308   2.104   5.060   2.222
 2434TIP3    H2 7309   2.111   4.914   2.263
 2435TIP3   OH2 7310   0.357   4.550   4.157
 2435TIP3    H1 7311   0.438   4.515   4.193
 2435TIP3    H2 7312   0.288   4.509   4.209
 2436TIP3   OH2 7313   3.813   2.581   3.601
 2436TIP3    H1 7314   3.901   2.609   3.624
 2436TIP3    H2 7315   3.805   2.600   3.507
 2437TIP3   OH2 7316   1.599   4.340   3.530
 2437TIP3    H1 7317   1.534   4.290   3.579
 2437TIP3    H2 7318   1.667   4.362   3.594
 2438TIP3   OH2 7319   3.961   1.144   4.502
 2438TIP3    H1 7320   3.938   1.142   4.410
 2438TIP3    H2 7321   3.906   1.077   4.542
 2439TIP3   OH2 7322   0.246   0.063   1.715
 2439TIP3    H1 7323   0.180   0.039   1.650
 2439TIP3    H2 7324   0.318   0.100   1.663
 2440TIP3   OH2 7325   0.674   4.945   2.579
 2440TIP3    H1 7326   0.689   5.035   2.607
 2440TIP3    H2 7327   0.750   4.923   2.526
 2441TIP3   OH2 7328   2.998   4.127   3.277
 2441TIP3    H1 7329   2.908   4.149   3.254
 2441TIP3    H2 7330   3.051   4.187   3.224
 2442TIP3   OH2 7331   5.333   5.145   4.334
 2442TIP3    H1 7332   5.274   5.169   4.263
 2442TIP3    H2 7333   5.321   5.051   4.345
 2443TIP3   OH2 7334   2.969   2.887   5.045
 2443TIP3    H1 7335   3.023   2.820   5.003
 2443TIP3    H2 7336   2.972   2.961   4.986
 2444TIP3   OH2 7337   5.211   1.846   3.420
 2444TIP3    H1 7338   5.150   1.913   3.452
 2444TIP3    H2 7339   5.166   1.806   3.346
 2445TIP3   OH2 7340   0.089   0.946   0.711
 2445TIP3    H1 7341   0.067   0.948   0.804
 2445TIP3    H2 7342   0.173   0.901   0.708
 2446TIP3   OH2 7343   4.778   5.230   4.931
 2446TIP3    H1 7344   4.839   5.303   4.944
 2446TIP3    H2 7345   4.730   5.225   5.014
 2447TIP3   OH2 7346   3.357   1.803   1.449
 2447TIP3    H1 7347   3.273   1.846   1.465
 2447TIP3    H2 7348   3.413   1.872   1.413
 2448TIP3   OH2 7349   0.432   1.261   1.130
 2448TIP3    H1 7350   0.522   1.249   1.162
 2448TIP3    H2 7351   0.440   1.261   1.034
 2449TIP3   OH2 7352   0.037   5.476   3.818
 2449TIP3    H1 7353   0.066   5.556   3.775
 2449TIP3    H2 7354   0.053   5.491   3.911
 2450TIP3   OH2 7355   2.004   2.882   1.783
 2450TIP3    H1 7356   1.914   2.877   1.751
 2450TIP3    H2 7357   2.055   2.834   1.717
 2451TIP3   OH2 7358   4.453   5.895   4.441
 2451TIP3    H1 7359   4.442   5.910   4.347
 2451TIP3    H2 7360   4.397   5.820   4.460
 2452TIP3   OH2 7361   2.034   2.992   3.907
 2452TIP3    H1 7362   1.962   2.951   3.954
 2452TIP3    H2 7363   1.996   3.022   3.825
 2453TIP3   OH2 7364   0.951   3.531   1.659
 2453TIP3    H1 7365   0.929   3.616   1.621
 2453TIP3    H2 7366   1.035   3.545   1.702
 2454TIP3   OH2 7367   0.146   0.352   0.188
 2454TIP3    H1 7368   0.123   0.444   0.175
 2454TIP3    H2 7369   0.096   0.305   0.121
 2455TIP3   OH2 7370   1.720   0.028   2.073
 2455TIP3    H1 7371   1.715  -0.067   2.081
 2455TIP3    H2 7372   1.667   0.061   2.146
 2456TIP3   OH2 7373   4.814   3.108   3.999
 2456TIP3    H1 7374   4.745   3.173   3.982
 2456TIP3    H2 7375   4.884   3.131   3.938
 2457TIP3   OH2 7376   2.823   3.679   0.863
 2457TIP3    H1 7377   2.844   3.585   0.865
 2457TIP3    H2 7378   2.855   3.709   0.779
 2458TIP3   OH2 7379   0.815   3.236   3.949
 2458TIP3    H1 7380   0.907   3.210   3.941
 2458TIP3    H2 7381   0.818   3.330   3.964
 2459TIP3   OH2 7382   0.122   3.094   0.894
 2459TIP3    H1 7383   0.043   3.148   0.891
 2459TIP3    H2 7384   0.193   3.156   0.910
 2460TIP3   OH2 7385   5.359   1.906   1.969
 2460TIP3    H1 7386   5.397   1.961   1.900
 2460TIP3    H2 7387   5.338   1.824   1.925
 2461TIP3   OH2 7388   0.976   3.501   3.765
 2461TIP3    H1 7389   0.894   3.483   3.719
 2461TIP3    H2 7390   0.952   3.504   3.858
 2462TIP3   OH2 7391   6.278   1.215   2.983
 2462TIP3    H1 7392   6.192   1.175   2.972
 2462TIP3    H2 7393   6.298   1.203   3.075
 2463TIP3   OH2 7394   3.630   3.851   2.220
 2463TIP3    H1 7395   3.612   3.913   2.149
 2463TIP3    H2 7396   3.720   3.824   2.205
 2464TIP3   OH2 7397   4.769   4.818   0.944
 2464TIP3    H1 7398   4.854   4.840   0.906
 2464TIP3    H2 7399   4.716   4.897   0.930
 2465TIP3   OH2 7400   1.915   1.828   4.209
 2465TIP3    H1 7401   2.004   1.818   4.245
 2465TIP3    H2 7402   1.902   1.923   4.207
 2466TIP3   OH2 7403   3.327   3.981   1.339
 2466TIP3    H1 7404   3.340   3.932   1.420
 2466TIP3    H2 7405   3.400   4.042   1.336
 2467TIP3   OH2 7406   2.033   3.196   1.069
 2467TIP3    H1 7407   2.101   3.251   1.108
 2467TIP3    H2 7408   2.008   3.136   1.140
 2468TIP3   OH2 7409   5.754   1.539   4.962
 2468TIP3    H1 7410   5.756   1.453   4.921
 2468TIP3    H2 7411   5.791   1.598   4.896
 2469TIP3   OH2 7412   2.187   4.666   0.036
 2469TIP3    H1 7413   2.277   4.688   0.061
 2469TIP3    H2 7414   2.138   4.746   0.051
 2470TIP3   OH2 7415   5.832   4.785   1.368
 2470TIP3    H1 7416   5.863   4.859   1.420
 2470TIP3    H2 7417   5.902   4.769   1.305
 2471TIP3   OH2 7418   0.509   0.220   2.389
 2471TIP3    H1 7419   0.571   0.243   2.319
 2471TIP3    H2 7420   0.427   0.261   2.362
 2472TIP3   OH2 7421   2.478   3.195   3.805
 2472TIP3    H1 7422   2.419   3.166   3.875
 2472TIP3    H2 7423   2.421   3.238   3.742
 2473TIP3   OH2 7424   3.436   1.618   4.822
 2473TIP3    H1 7425   3.351   1.584   4.849
 2473TIP3    H2 7426   3.491   1.540   4.811
 2474TIP3   OH2 7427   4.653   4.770   2.730
 2474TIP3    H1 7428   4.744   4.790   2.753
 2474TIP3    H2 7429   4.602   4.826   2.789
 2475TIP3   OH2 7430   4.088   2.128   0.902
 2475TIP3    H1 7431   4.106   2.203   0.844
 2475TIP3    H2 7432   4.041   2.166   0.976
 2476TIP3   OH2 7433   2.154   1.294   2.153
 2476TIP3    H1 7434   2.116   1.297   2.065
 2476TIP3    H2 7435   2.158   1.386   2.180
 2477TIP3   OH2 7436   2.457   1.858   1.815
 2477TIP3    H1 7437   2.427   1.940   1.853
 2477TIP3    H2 7438   2.438   1.866   1.722
 2478TIP3   OH2 7439   2.240   5.429   1.901
 2478TIP3    H1 7440   2.206   5.514   1.874
 2478TIP3    H2 7441   2.323   5.449   1.944
 2479TIP3   OH2 7442   4.900   2.420   2.038
 2479TIP3    H1 7443   4.971   2.371   2.078
 2479TIP3    H2 7444   4.840   2.439   2.110
 2480TIP3   OH2 7445   1.883   2.180   1.315
 2480TIP3    H1 7446   1.949   2.243   1.344
 2480TIP3    H2 7447   1.928   2.096   1.318
 2481TIP3   OH2 7448   3.730   1.932   1.518
 2481TIP3    H1 7449   3.649   1.963   1.558
 2481TIP3    H2 7450   3.741   1.843   1.551
 2482TIP3   OH2 7451   5.858   3.771   3.820
 2482TIP3    H1 7452   5.922   3.702   3.833
 2482TIP3    H2 7453   5.786   3.728   3.774
 2483TIP3   OH2 7454   5.829   4.434   3.603
 2483TIP3    H1 7455   5.769   4.368   3.568
 2483TIP3    H2 7456   5.910   4.386   3.621
 2484TIP3   OH2 7457   2.393   4.571   3.125
 2484TIP3    H1 7458   2.479   4.568   3.082
 2484TIP3    H2 7459   2.346   4.496   3.087
 2485TIP3   OH2 7460   2.848   5.232   1.298
 2485TIP3    H1 7461   2.878   5.215   1.209
 2485TIP3    H2 7462   2.900   5.306   1.327
 2486TIP3   OH2 7463   3.802   5.279   1.464
 2486TIP3    H1 7464   3.766   5.318   1.543
 2486TIP3    H2 7465   3.765   5.331   1.392
 2487TIP3   OH2 7466   5.007   4.088   3.588
 2487TIP3    H1 7467   4.974   4.176   3.605
 2487TIP3    H2 7468   4.997   4.042   3.671
 2488TIP3   OH2 7469   1.181   3.962   4.994
 2488TIP3    H1 7470   1.132   3.985   5.074
 2488TIP3    H2 7471   1.150   4.025   4.929
 2489TIP3   OH2 7472   4.491   4.844   2.941
 2489TIP3    H1 7473   4.508   4.910   3.008
 2489TIP3    H2 7474   4.527   4.763   2.976
 2490TIP3   OH2 7475   1.014   2.347   3.786
 2490TIP3    H1 7476   0.961   2.416   3.826
 2490TIP3    H2 7477   1.089   2.338   3.845
 2491TIP3   OH2 7478   0.270   4.841   4.667
 2491TIP3    H1 7479   0.216   4.766   4.691
 2491TIP3    H2 7480   0.238   4.912   4.723
 2492TIP3   OH2 7481   5.558   1.373   3.110
 2492TIP3    H1 7482   5.641   1.354   3.153
 2492TIP3    H2 7483   5.557   1.468   3.099
 2493TIP3   OH2 7484   2.924   3.144   3.858
 2493TIP3    H1 7485   2.987   3.102   3.915
 2493TIP3    H2 7486   2.968   3.223   3.827
 2494TIP3   OH2 7487   5.008   4.881   0.745
 2494TIP3    H1 7488   5.047   4.797   0.721
 2494TIP3    H2 7489   5.044   4.942   0.681
 2495TIP3   OH2 7490   1.698   3.331   2.450
 2495TIP3    H1 7491   1.753   3.406   2.473
 2495TIP3    H2 7492   1.760   3.266   2.416
 2496TIP3   OH2 7493   3.188   1.639   0.615
 2496TIP3    H1 7494   3.222   1.672   0.698
 2496TIP3    H2 7495   3.160   1.717   0.567
 2497TIP3   OH2 7496   1.283   0.240   0.552
 2497TIP3    H1 7497   1.218   0.229   0.621
 2497TIP3    H2 7498   1.313   0.151   0.533
 2498TIP3   OH2 7499   0.372   0.719   4.791
 2498TIP3    H1 7500   0.438   0.650   4.786
 2498TIP3    H2 7501   0.412   0.795   4.748
 2499TIP3   OH2 7502   6.119   1.702   4.616
 2499TIP3    H1 7503   6.132   1.614   4.651
 2499TIP3    H2 7504   6.142   1.694   4.523
 2500TIP3   OH2 7505   4.086   5.325   2.825
 2500TIP3    H1 7506   4.012   5.264   2.831
 2500TIP3    H2 7507   4.089   5.366   2.911
 2501TIP3   OH2 7508   0.359   2.927   0.022
 2501TIP3    H1 7509   0.321   2.980  -0.048
 2501TIP3    H2 7510   0.301   2.941   0.097
 2502TIP3   OH2 7511   0.164   4.813   0.282
 2502TIP3    H1 7512   0.126   4.730   0.313
 2502TIP3    H2 7513   0.247   4.820   0.329
 2503TIP3   OH2 7514   0.536   1.058   5.022
 2503TIP3    H1 7515   0.472   1.074   5.092
 2503TIP3    H2 7516   0.602   1.002   5.062
 2504TIP3   OH2 7517   5.860   1.104   1.883
 2504TIP3    H1 7518   5.900   1.190   1.872
 2504TIP3    H2 7519   5.809   1.091   1.803
 2505TIP3   OH2 7520   2.631   5.983   2.671
 2505TIP3    H1 7521   2.677   6.057   2.710
 2505TIP3    H2 7522   2.696   5.913   2.668
 2506TIP3   OH2 7523   2.528   2.515   5.061
 2506TIP3    H1 7524   2.439   2.547   5.051
 2506TIP3    H2 7525   2.575   2.586   5.105
 2507TIP3   OH2 7526   1.401   3.275   4.002
 2507TIP3    H1 7527   1.485   3.246   4.038
 2507TIP3    H2 7528   1.415   3.368   3.982
 2508TIP3   OH2 7529   3.447   4.765   3.733
 2508TIP3    H1 7530   3.392   4.809   3.668
 2508TIP3    H2 7531   3.387   4.710   3.783
 2509TIP3   OH2 7532   3.764   5.765   0.478
 2509TIP3    H1 7533   3.795   5.838   0.424
 2509TIP3    H2 7534   3.754   5.802   0.565
 2510TIP3   OH2 7535   4.387   0.358   0.438
 2510TIP3    H1 7536   4.372   0.309   0.519
 2510TIP3    H2 7537   4.305   0.402   0.420
 2511TIP3   OH2 7538   5.314   2.161   0.309
 2511TIP3    H1 7539   5.391   2.168   0.366
 2511TIP3    H2 7540   5.348   2.175   0.221
 2512TIP3   OH2 7541   4.688   0.785   0.613
 2512TIP3    H1 7542   4.783   0.795   0.610
 2512TIP3    H2 7543   4.664   0.755   0.526
 2513TIP3   OH2 7544   3.391   4.875   1.065
 2513TIP3    H1 7545   3.415   4.786   1.090
 2513TIP3    H2 7546   3.330   4.904   1.133
 2514TIP3   OH2 7547   3.408   4.115   1.917
 2514TIP3    H1 7548   3.315   4.138   1.923
 2514TIP3    H2 7549   3.432   4.136   1.827
 2515TIP3   OH2 7550   5.179   0.968   1.788
 2515TIP3    H1 7551   5.256   0.956   1.733
 2515TIP3    H2 7552   5.148   1.055   1.766
 2516TIP3   OH2 7553   2.111   3.502   2.981
 2516TIP3    H1 7554   2.135   3.459   3.063
 2516TIP3    H2 7555   2.101   3.595   3.004
 2517TIP3   OH2 7556   4.772   0.219   5.088
 2517TIP3    H1 7557   4.702   0.169   5.046
 2517TIP3    H2 7558   4.853   0.181   5.054
 2518TIP3   OH2 7559   1.743   0.683   0.241
 2518TIP3    H1 7560   1.812   0.734   0.200
 2518TIP3    H2 7561   1.697   0.745   0.298
 2519TIP3   OH2 7562   4.390   0.827   3.632
 2519TIP3    H1 7563   4.373   0.916   3.602
 2519TIP3    H2 7564   4.313   0.803   3.684
 2520TIP3   OH2 7565   0.866   3.754   3.178
 2520TIP3    H1 7566   0.939   3.728   3.123
 2520TIP3    H2 7567   0.892   3.838   3.215
 2521TIP3   OH2 7568   0.442   3.194   1.340
 2521TIP3    H1 7569   0.527   3.223   1.375
 2521TIP3    H2 7570   0.459   3.174   1.248
 2522TIP3   OH2 7571   5.944   5.154   2.215
 2522TIP3    H1 7572   5.881   5.166   2.144
 2522TIP3    H2 7573   5.907   5.084   2.269
 2523TIP3   OH2 7574   0.675   5.607   0.019
 2523TIP3    H1 7575   0.637   5.646   0.097
 2523TIP3    H2 7576   0.675   5.512   0.036
 2524TIP3   OH2 7577   3.983   3.061   0.302
 2524TIP3    H1 7578   3.925   3.072   0.377
 2524TIP3    H2 7579   3.924   3.058   0.226
 2525TIP3   OH2 7580   6.127   5.154   1.662
 2525TIP3    H1 7581   6.054   5.214   1.676
 2525TIP3    H2 7582   6.205   5.209   1.668
 2526TIP3   OH2 7583   3.184   5.840   1.533
 2526TIP3    H1 7584   3.116   5.772   1.534
 2526TIP3    H2 7585   3.235   5.824   1.613
 2527TIP3   OH2 7586   2.895   2.916   1.333
 2527TIP3    H1 7587   2.924   2.829   1.306
 2527TIP3    H2 7588   2.818   2.934   1.280
 2528TIP3   OH2 7589   2.037   5.190   2.083
 2528TIP3    H1 7590   2.071   5.227   2.001
 2528TIP3    H2 7591   1.966   5.132   2.055
 2529TIP3   OH2 7592   4.108   3.969   4.161
 2529TIP3    H1 7593   4.016   3.995   4.165
 2529TIP3    H2 7594   4.151   4.042   4.117
 2530TIP3   OH2 7595   2.502   4.107   4.817
 2530TIP3    H1 7596   2.564   4.138   4.884
 2530TIP3    H2 7597   2.551   4.043   4.766
 2531TIP3   OH2 7598   4.715   1.866   4.049
 2531TIP3    H1 7599   4.808   1.881   4.064
 2531TIP3    H2 7600   4.711   1.827   3.962
 2532TIP3   OH2 7601   6.060   0.909   2.724
 2532TIP3    H1 7602   6.003   0.836   2.747
 2532TIP3    H2 7603   6.015   0.953   2.651
 2533TIP3   OH2 7604   5.506   1.964   2.628
 2533TIP3    H1 7605   5.417   1.976   2.595
 2533TIP3    H2 7606   5.557   2.035   2.587
 2534TIP3   OH2 7607   1.829   3.595   2.089
 2534TIP3    H1 7608   1.879   3.550   2.157
 2534TIP3    H2 7609   1.785   3.526   2.040
 2535TIP3   OH2 7610   2.841   5.120   0.140
 2535TIP3    H1 7611   2.820   5.110   0.233
 2535TIP3    H2 7612   2.757   5.136   0.097
 2536TIP3   OH2 7613   3.085   0.924   4.903
 2536TIP3    H1 7614   3.120   0.855   4.959
 2536TIP3    H2 7615   2.991   0.904   4.895
 2537TIP3   OH2 7616   1.764   5.536   0.614
 2537TIP3    H1 7617   1.700   5.475   0.651
 2537TIP3    H2 7618   1.815   5.484   0.552
 2538TIP3   OH2 7619   2.730   4.579   3.723
 2538TIP3    H1 7620   2.785   4.634   3.779
 2538TIP3    H2 7621   2.764   4.594   3.634
 2539TIP3   OH2 7622   3.882   1.837   2.881
 2539TIP3    H1 7623   3.825   1.764   2.857
 2539TIP3    H2 7624   3.868   1.902   2.812
 2540TIP3   OH2 7625   2.455   0.650   5.167
 2540TIP3    H1 7626   2.410   0.644   5.082
 2540TIP3    H2 7627   2.402   0.598   5.227
 2541TIP3   OH2 7628   5.608   4.614   0.808
 2541TIP3    H1 7629   5.669   4.682   0.778
 2541TIP3    H2 7630   5.656   4.532   0.796
 2542TIP3   OH2 7631   1.937   2.229   4.642
 2542TIP3    H1 7632   1.971   2.318   4.634
 2542TIP3    H2 7633   1.843   2.241   4.659
 2543TIP3   OH2 7634   0.589   0.813   3.085
 2543TIP3    H1 7635   0.575   0.786   2.994
 2543TIP3    H2 7636   0.573   0.907   3.085
 2544TIP3   OH2 7637   4.761   1.623   2.620
 2544TIP3    H1 7638   4.692   1.636   2.686
 2544TIP3    H2 7639   4.717   1.582   2.546
 2545TIP3   OH2 7640   2.641   1.203   4.937
 2545TIP3    H1 7641   2.726   1.240   4.915
 2545TIP3    H2 7642   2.617   1.152   4.860
 2546TIP3   OH2 7643   3.809   5.806   4.633
 2546TIP3    H1 7644   3.839   5.883   4.681
 2546TIP3    H2 7645   3.855   5.809   4.550
 2547TIP3   OH2 7646   3.164   4.116   0.589
 2547TIP3    H1 7647   3.217   4.156   0.658
 2547TIP3    H2 7648   3.143   4.028   0.623
 2548TIP3   OH2 7649   4.046   3.078   1.035
 2548TIP3    H1 7650   3.984   3.138   1.077
 2548TIP3    H2 7651   4.127   3.129   1.025
 2549TIP3   OH2 7652   2.480   2.839   3.848
 2549TIP3    H1 7653   2.479   2.798   3.761
 2549TIP3    H2 7654   2.534   2.917   3.836
 2550TIP3   OH2 7655   3.001   1.732   2.774
 2550TIP3    H1 7656   3.038   1.711   2.688
 2550TIP3    H2 7657   3.069   1.783   2.818
 2551TIP3   OH2 7658   6.090   5.524   2.092
 2551TIP3    H1 7659   6.133   5.445   2.125
 2551TIP3    H2 7660   6.152   5.559   2.027
 2552TIP3   OH2 7661   0.296   4.719   3.939
 2552TIP3    H1 7662   0.202   4.734   3.944
 2552TIP3    H2 7663   0.318   4.678   4.022
 2553TIP3   OH2 7664   0.708   4.268   3.734
 2553TIP3    H1 7665   0.653   4.301   3.805
 2553TIP3    H2 7666   0.671   4.308   3.655
 2554TIP3   OH2 7667   2.167   0.327   1.149
 2554TIP3    H1 7668   2.081   0.288   1.161
 2554TIP3    H2 7669   2.204   0.282   1.073
 2555TIP3   OH2 7670   3.674   1.167   4.286
 2555TIP3    H1 7671   3.670   1.182   4.381
 2555TIP3    H2 7672   3.768   1.161   4.267
 2556TIP3   OH2 7673   3.351   1.842   4.695
 2556TIP3    H1 7674   3.298   1.795   4.630
 2556TIP3    H2 7675   3.392   1.772   4.746
 2557TIP3   OH2 7676   1.653   0.771   5.075
 2557TIP3    H1 7677   1.637   0.862   5.101
 2557TIP3    H2 7678   1.573   0.744   5.030
 2558TIP3   OH2 7679   2.940   1.920   3.051
 2558TIP3    H1 7680   2.862   1.942   3.101
 2558TIP3    H2 7681   2.920   1.947   2.961
 2559TIP3   OH2 7682   5.275   1.811   2.470
 2559TIP3    H1 7683   5.296   1.779   2.558
 2559TIP3    H2 7684   5.183   1.838   2.475
 2560TIP3   OH2 7685   3.788   3.267   1.416
 2560TIP3    H1 7686   3.710   3.212   1.412
 2560TIP3    H2 7687   3.838   3.243   1.337
 2561TIP3   OH2 7688   5.262   5.922   0.985
 2561TIP3    H1 7689   5.284   6.002   0.938
 2561TIP3    H2 7690   5.333   5.861   0.963
 2562TIP3   OH2 7691   2.014   0.774   2.374
 2562TIP3    H1 7692   2.045   0.768   2.464
 2562TIP3    H2 7693   1.931   0.822   2.380
 2563TIP3   OH2 7694   4.634   2.386   1.104
 2563TIP3    H1 7695   4.610   2.443   1.031
 2563TIP3    H2 7696   4.583   2.419   1.178
 2564TIP3   OH2 7697   1.421   1.964   0.051
 2564TIP3    H1 7698   1.435   1.871   0.073
 2564TIP3    H2 7699   1.411   1.965  -0.044
 2565TIP3   OH2 7700   1.856   4.362   2.137
 2565TIP3    H1 7701   1.773   4.353   2.090
 2565TIP3    H2 7702   1.844   4.308   2.216
 2566TIP3   OH2 7703   5.064   1.221   1.745
 2566TIP3    H1 7704   5.089   1.302   1.789
 2566TIP3    H2 7705   5.031   1.250   1.660
 2567TIP3   OH2 7706   5.285   3.873   2.131
 2567TIP3    H1 7707   5.256   3.962   2.150
 2567TIP3    H2 7708   5.374   3.868   2.166
 2568TIP3   OH2 7709   3.344   0.991   5.171
 2568TIP3    H1 7710   3.298   1.051   5.230
 2568TIP3    H2 7711   3.417   1.042   5.136
 2569TIP3   OH2 7712   4.300   3.588   3.305
 2569TIP3    H1 7713   4.220   3.630   3.274
 2569TIP3    H2 7714   4.327   3.533   3.232
 2570TIP3   OH2 7715   4.768   5.091   4.612
 2570TIP3    H1 7716   4.774   5.015   4.670
 2570TIP3    H2 7717   4.856   5.100   4.575
 2571TIP3   OH2 7718   1.426   0.221   1.708
 2571TIP3    H1 7719   1.390   0.293   1.760
 2571TIP3    H2 7720   1.502   0.260   1.664
 2572TIP3   OH2 7721   4.968   0.217   3.714
 2572TIP3    H1 7722   4.879   0.187   3.699
 2572TIP3    H2 7723   4.987   0.193   3.805
 2573TIP3   OH2 7724   2.045   5.777   0.455
 2573TIP3    H1 7725   2.022   5.741   0.540
 2573TIP3    H2 7726   2.127   5.733   0.432
 2574TIP3   OH2 7727   2.896   5.235   2.690
 2574TIP3    H1 7728   2.971   5.184   2.659
 2574TIP3    H2 7729   2.903   5.318   2.643
 2575TIP3   OH2 7730   2.943   4.631   4.031
 2575TIP3    H1 7731   2.948   4.540   4.058
 2575TIP3    H2 7732   2.849   4.650   4.028
 2576TIP3   OH2 7733   3.511   1.252   4.052
 2576TIP3    H1 7734   3.577   1.301   4.003
 2576TIP3    H2 7735   3.561   1.206   4.120
 2577TIP3   OH2 7736   1.125   2.181   0.437
 2577TIP3    H1 7737   1.062   2.239   0.393
 2577TIP3    H2 7738   1.183   2.151   0.367
 2578TIP3   OH2 7739   1.762   0.920   0.909
 2578TIP3    H1 7740   1.820   0.945   0.980
 2578TIP3    H2 7741   1.770   0.825   0.903
 2579TIP3   OH2 7742   4.010   1.755   4.234
 2579TIP3    H1 7743   4.074   1.728   4.301
 2579TIP3    H2 7744   3.954   1.679   4.222
 2580TIP3   OH2 7745  -0.023   4.425   4.674
 2580TIP3    H1 7746   0.058   4.443   4.722
 2580TIP3    H2 7747  -0.079   4.383   4.739
 2581TIP3   OH2 7748   2.793   1.731   0.754
 2581TIP3    H1 7749   2.798   1.657   0.693
 2581TIP3    H2 7750   2.758   1.803   0.702
 2582TIP3   OH2 7751   3.624   2.866   4.291
 2582TIP3    H1 7752   3.610   2.956   4.262
 2582TIP3    H2 7753   3.613   2.813   4.212
 2583TIP3   OH2 7754   1.454   4.291   4.866
 2583TIP3    H1 7755   1.464   4.227   4.936
 2583TIP3    H2 7756   1.518   4.359   4.887
 2584TIP3   OH2 7757   1.202   4.874   4.689
 2584TIP3    H1 7758   1.204   4.791   4.642
 2584TIP3    H2 7759   1.129   4.865   4.751
 2585TIP3   OH2 7760   1.502   2.625   5.097
 2585TIP3    H1 7761   1.430   2.682   5.122
 2585TIP3    H2 7762   1.535   2.590   5.180
 2586TIP3   OH2 7763   1.511   5.960   4.414
 2586TIP3    H1 7764   1.596   5.955   4.459
 2586TIP3    H2 7765   1.450   5.992   4.480
 2587TIP3   OH2 7766   2.452   1.522   3.023
 2587TIP3    H1 7767   2.518   1.590   3.006
 2587TIP3    H2 7768   2.469   1.455   2.957
 2588TIP3   OH2 7769   3.159   4.769   3.887
 2588TIP3    H1 7770   3.081   4.730   3.926
 2588TIP3    H2 7771   3.229   4.748   3.949
 2589TIP3   OH2 7772   6.291   1.553   2.845
 2589TIP3    H1 7773   6.245   1.633   2.817
 2589TIP3    H2 7774   6.338   1.525   2.767
 2590TIP3   OH2 7775   0.510   2.277   1.615
 2590TIP3    H1 7776   0.513   2.242   1.704
 2590TIP3    H2 7777   0.601   2.278   1.586
 2591TIP3   OH2 7778   4.458   3.017   4.172
 2591TIP3    H1 7779   4.369   3.034   4.143
 2591TIP3    H2 7780   4.499   3.103   4.179
 2592TIP3   OH2 7781   0.218   4.686   2.589
 2592TIP3    H1 7782   0.216   4.685   2.685
 2592TIP3    H2 7783   0.268   4.765   2.567
 2593TIP3   OH2 7784   5.827   3.487   0.102
 2593TIP3    H1 7785   5.807   3.580   0.094
 2593TIP3    H2 7786   5.888   3.469   0.031
 2594TIP3   OH2 7787   2.130   5.287   0.633
 2594TIP3    H1 7788   2.150   5.199   0.666
 2594TIP3    H2 7789   2.132   5.343   0.711
 2595TIP3   OH2 7790   0.135   0.513   2.787
 2595TIP3    H1 7791   0.173   0.441   2.737
 2595TIP3    H2 7792   0.182   0.590   2.758
 2596TIP3   OH2 7793   5.745   0.450   1.731
 2596TIP3    H1 7794   5.810   0.404   1.678
 2596TIP3    H2 7795   5.663   0.403   1.714
 2597TIP3   OH2 7796   4.219   4.819   5.073
 2597TIP3    H1 7797   4.216   4.748   5.009
 2597TIP3    H2 7798   4.139   4.810   5.124
 2598TIP3   OH2 7799   3.510   1.969   2.090
 2598TIP3    H1 7800   3.603   1.979   2.110
 2598TIP3    H2 7801   3.506   1.893   2.032
 2599TIP3   OH2 7802   2.676   3.868   2.378
 2599TIP3    H1 7803   2.597   3.877   2.325
 2599TIP3    H2 7804   2.748   3.875   2.315
 2600TIP3   OH2 7805   1.295   1.696   4.735
 2600TIP3    H1 7806   1.254   1.666   4.654
 2600TIP3    H2 7807   1.349   1.771   4.709
 2601TIP3   OH2 7808   4.932   4.112   2.778
 2601TIP3    H1 7809   4.973   4.103   2.864
 2601TIP3    H2 7810   4.923   4.207   2.766
 2602TIP3   OH2 7811   0.680   0.843   5.131
 2602TIP3    H1 7812   0.624   0.785   5.079
 2602TIP3    H2 7813   0.749   0.785   5.165
 2603TIP3   OH2 7814   6.034   1.336   0.489
 2603TIP3    H1 7815   5.981   1.358   0.412
 2603TIP3    H2 7816   6.121   1.320   0.454
 2604TIP3   OH2 7817   4.496   0.296   2.341
 2604TIP3    H1 7818   4.512   0.237   2.416
 2604TIP3    H2 7819   4.437   0.363   2.375
 2605TIP3   OH2 7820   1.554   4.847   3.162
 2605TIP3    H1 7821   1.602   4.797   3.228
 2605TIP3    H2 7822   1.475   4.877   3.206
 2606TIP3   OH2 7823   6.201   5.254   3.919
 2606TIP3    H1 7824   6.275   5.200   3.893
 2606TIP3    H2 7825   6.236   5.343   3.923
 2607TIP3   OH2 7826   5.891   5.810   5.118
 2607TIP3    H1 7827   5.815   5.850   5.076
 2607TIP3    H2 7828   5.895   5.851   5.205
 2608TIP3   OH2 7829   4.983   2.889   3.153
 2608TIP3    H1 7830   4.888   2.893   3.167
 2608TIP3    H2 7831   5.019   2.868   3.239
 2609TIP3   OH2 7832   2.853   1.391   1.127
 2609TIP3    H1 7833   2.935   1.376   1.174
 2609TIP3    H2 7834   2.855   1.484   1.104
 2610TIP3   OH2 7835   6.054   3.143   3.213
 2610TIP3    H1 7836   6.046   3.062   3.163
 2610TIP3    H2 7837   6.031   3.212   3.151
 2611TIP3   OH2 7838   3.139   2.710   1.523
 2611TIP3    H1 7839   3.189   2.791   1.533
 2611TIP3    H2 7840   3.047   2.737   1.534
 2612TIP3   OH2 7841   3.806   0.425   2.198
 2612TIP3    H1 7842   3.735   0.414   2.134
 2612TIP3    H2 7843   3.835   0.336   2.216
 2613TIP3   OH2 7844   4.521   3.719   4.830
 2613TIP3    H1 7845   4.497   3.748   4.742
 2613TIP3    H2 7846   4.612   3.747   4.840
 2614TIP3   OH2 7847   5.616   2.427   1.645
 2614TIP3    H1 7848   5.636   2.377   1.724
 2614TIP3    H2 7849   5.675   2.502   1.649
 2615TIP3   OH2 7850   4.522   1.227   1.930
 2615TIP3    H1 7851   4.440   1.266   1.960
 2615TIP3    H2 7852   4.535   1.262   1.842
 2616TIP3   OH2 7853   4.537   2.293   1.632
 2616TIP3    H1 7854   4.618   2.334   1.662
 2616TIP3    H2 7855   4.562   2.204   1.607
 2617TIP3   OH2 7856   1.367   4.013   3.978
 2617TIP3    H1 7857   1.284   4.012   3.930
 2617TIP3    H2 7858   1.346   4.058   4.060
 2618TIP3   OH2 7859   1.927   0.248   2.079
 2618TIP3    H1 7860   1.898   0.166   2.041
 2618TIP3    H2 7861   1.850   0.305   2.074
 2619TIP3   OH2 7862   2.439   5.912   1.249
 2619TIP3    H1 7863   2.524   5.945   1.279
 2619TIP3    H2 7864   2.432   5.824   1.285
 2620TIP3   OH2 7865   4.680   2.082   4.396
 2620TIP3    H1 7866   4.774   2.095   4.392
 2620TIP3    H2 7867   4.666   2.038   4.480
 2621TIP3   OH2 7868   0.274   2.687   4.875
 2621TIP3    H1 7869   0.285   2.690   4.780
 2621TIP3    H2 7870   0.362   2.705   4.910
 2622TIP3   OH2 7871   2.448   2.233   3.898
 2622TIP3    H1 7872   2.494   2.287   3.834
 2622TIP3    H2 7873   2.356   2.240   3.874
 2623TIP3   OH2 7874   3.655   3.250   3.232
 2623TIP3    H1 7875   3.724   3.283   3.289
 2623TIP3    H2 7876   3.631   3.165   3.270
 2624TIP3   OH2 7877   4.877   1.504   0.512
 2624TIP3    H1 7878   4.890   1.416   0.476
 2624TIP3    H2 7879   4.871   1.561   0.436
 2625TIP3   OH2 7880   5.319   3.347   4.761
 2625TIP3    H1 7881   5.349   3.421   4.813
 2625TIP3    H2 7882   5.234   3.324   4.799
 2626TIP3   OH2 7883   0.243   5.082   0.980
 2626TIP3    H1 7884   0.221   5.151   0.917
 2626TIP3    H2 7885   0.280   5.012   0.926
 2627TIP3   OH2 7886   0.731   5.302   3.638
 2627TIP3    H1 7887   0.691   5.226   3.596
 2627TIP3    H2 7888   0.720   5.374   3.576
 2628TIP3   OH2 7889   3.304   3.821   3.394
 2628TIP3    H1 7890   3.211   3.833   3.415
 2628TIP3    H2 7891   3.333   3.906   3.362
 2629TIP3   OH2 7892   1.462   2.204   0.494
 2629TIP3    H1 7893   1.422   2.249   0.420
 2629TIP3    H2 7894   1.464   2.112   0.468
 2630TIP3   OH2 7895   6.286   0.691   2.334
 2630TIP3    H1 7896   6.298   0.672   2.241
 2630TIP3    H2 7897   6.370   0.671   2.374
 2631TIP3   OH2 7898   2.734   0.876   0.855
 2631TIP3    H1 7899   2.673   0.842   0.919
 2631TIP3    H2 7900   2.703   0.965   0.836
 2632TIP3   OH2 7901   0.072   3.147   4.430
 2632TIP3    H1 7902   0.026   3.063   4.429
 2632TIP3    H2 7903   0.146   3.133   4.490
 2633TIP3   OH2 7904   1.157   4.359   2.946
 2633TIP3    H1 7905   1.153   4.432   2.884
 2633TIP3    H2 7906   1.108   4.289   2.903
 2634TIP3   OH2 7907   1.147   3.953   3.854
 2634TIP3    H1 7908   1.073   4.004   3.820
 2634TIP3    H2 7909   1.159   3.883   3.789
 2635TIP3   OH2 7910   5.497   5.543   2.327
 2635TIP3    H1 7911   5.556   5.612   2.357
 2635TIP3    H2 7912   5.439   5.526   2.401
 2636TIP3   OH2 7913   4.585   5.059   1.497
 2636TIP3    H1 7914   4.559   5.145   1.464
 2636TIP3    H2 7915   4.680   5.059   1.494
 2637TIP3   OH2 7916   4.951   5.487   3.671
 2637TIP3    H1 7917   4.913   5.400   3.666
 2637TIP3    H2 7918   4.889   5.538   3.723
 2638TIP3   OH2 7919   2.261   5.011   3.001
 2638TIP3    H1 7920   2.195   4.984   2.937
 2638TIP3    H2 7921   2.249   4.950   3.074
 2639TIP3   OH2 7922   1.294   3.343   0.311
 2639TIP3    H1 7923   1.342   3.421   0.282
 2639TIP3    H2 7924   1.213   3.345   0.261
 2640TIP3   OH2 7925   5.264   0.419   1.417
 2640TIP3    H1 7926   5.329   0.442   1.351
 2640TIP3    H2 7927   5.244   0.327   1.401
 2641TIP3   OH2 7928   1.793   3.024   0.700
 2641TIP3    H1 7929   1.871   3.053   0.748
 2641TIP3    H2 7930   1.739   2.980   0.765
 2642TIP3   OH2 7931   3.947   3.003   2.689
 2642TIP3    H1 7932   3.993   2.982   2.607
 2642TIP3    H2 7933   3.863   3.037   2.661
 2643TIP3   OH2 7934   3.275   1.578   2.336
 2643TIP3    H1 7935   3.291   1.672   2.346
 2643TIP3    H2 7936   3.247   1.569   2.245
 2644TIP3   OH2 7937   3.170   3.452   4.682
 2644TIP3    H1 7938   3.152   3.499   4.600
 2644TIP3    H2 7939   3.235   3.387   4.657
 2645TIP3   OH2 7940   2.190   2.109   4.691
 2645TIP3    H1 7941   2.107   2.132   4.649
 2645TIP3    H2 7942   2.196   2.167   4.767
 2646TIP3   OH2 7943   1.489   1.841   4.321
 2646TIP3    H1 7944   1.521   1.756   4.351
 2646TIP3    H2 7945   1.562   1.901   4.336
 2647TIP3   OH2 7946   2.548   4.541   3.906
 2647TIP3    H1 7947   2.601   4.545   3.826
 2647TIP3    H2 7948   2.543   4.448   3.927
 2648TIP3   OH2 7949   5.296   1.314   2.535
 2648TIP3    H1 7950   5.331   1.386   2.586
 2648TIP3    H2 7951   5.239   1.355   2.470
 2649TIP3   OH2 7952   2.850   4.067   2.980
 2649TIP3    H1 7953   2.802   4.136   2.935
 2649TIP3    H2 7954   2.845   3.991   2.921
 2650TIP3   OH2 7955   6.192   5.224   1.046
 2650TIP3    H1 7956   6.283   5.248   1.024
 2650TIP3    H2 7957   6.146   5.229   0.962
 2651TIP3   OH2 7958   1.371   2.631   3.603
 2651TIP3    H1 7959   1.427   2.698   3.642
 2651TIP3    H2 7960   1.299   2.621   3.665
 2652TIP3   OH2 7961   4.573   4.447   2.439
 2652TIP3    H1 7962   4.606   4.413   2.356
 2652TIP3    H2 7963   4.478   4.434   2.434
 2653TIP3   OH2 7964   5.012   2.663   0.183
 2653TIP3    H1 7965   5.069   2.698   0.114
 2653TIP3    H2 7966   5.059   2.586   0.216
 2654TIP3   OH2 7967   5.549   4.099   3.088
 2654TIP3    H1 7968   5.503   4.134   3.164
 2654TIP3    H2 7969   5.622   4.049   3.125
 2655TIP3   OH2 7970   5.606   4.204   2.233
 2655TIP3    H1 7971   5.591   4.109   2.236
 2655TIP3    H2 7972   5.673   4.220   2.299
 2656TIP3   OH2 7973   5.620   0.244   3.905
 2656TIP3    H1 7974   5.696   0.301   3.907
 2656TIP3    H2 7975   5.566   0.278   3.834
 2657TIP3   OH2 7976   1.482   4.045   0.610
 2657TIP3    H1 7977   1.459   4.041   0.517
 2657TIP3    H2 7978   1.543   4.118   0.617
 2658TIP3   OH2 7979   5.836   1.801   4.196
 2658TIP3    H1 7980   5.828   1.725   4.253
 2658TIP3    H2 7981   5.785   1.778   4.118
 2659TIP3   OH2 7982   2.631   4.015   3.941
 2659TIP3    H1 7983   2.677   3.932   3.956
 2659TIP3    H2 7984   2.618   4.017   3.846
 2660TIP3   OH2 7985   4.698   4.029   3.944
 2660TIP3    H1 7986   4.697   4.100   3.880
 2660TIP3    H2 7987   4.783   3.988   3.934
 2661TIP3   OH2 7988   0.430   5.283   1.331
 2661TIP3    H1 7989   0.476   5.199   1.330
 2661TIP3    H2 7990   0.338   5.260   1.322
 2662TIP3   OH2 7991   3.438   1.351   1.368
 2662TIP3    H1 7992   3.363   1.343   1.426
 2662TIP3    H2 7993   3.478   1.435   1.391
 2663TIP3   OH2 7994   2.061   0.541   0.590
 2663TIP3    H1 7995   1.987   0.582   0.635
 2663TIP3    H2 7996   2.021   0.474   0.534
 2664TIP3   OH2 7997   4.035   3.995   3.700
 2664TIP3    H1 7998   4.045   3.904   3.672
 2664TIP3    H2 7999   3.998   3.989   3.788
 2665TIP3   OH2 8000   2.965   0.011   3.367
 2665TIP3    H1 8001   3.010   0.096   3.371
 2665TIP3    H2 8002   3.031  -0.049   3.332
 2666TIP3   OH2 8003   5.132   0.066   0.069
 2666TIP3    H1 8004   5.215   0.110   0.053
 2666TIP3    H2 8005   5.154  -0.006   0.128
 2667TIP3   OH2 8006   4.848   0.841   2.057
 2667TIP3    H1 8007   4.920   0.778   2.058
 2667TIP3    H2 8008   4.890   0.926   2.040
 2668TIP3   OH2 8009   3.375   1.915   4.038
 2668TIP3    H1 8010   3.409   1.925   3.949
 2668TIP3    H2 8011   3.281   1.908   4.027
 2669TIP3   OH2 8012   2.216   1.906   2.611
 2669TIP3    H1 8013   2.309   1.888   2.622
 2669TIP3    H2 8014   2.209   2.001   2.612
 2670TIP3   OH2 8015   4.893   0.162   0.859
 2670TIP3    H1 8016   4.817   0.216   0.881
 2670TIP3    H2 8017   4.902   0.172   0.764
 2671TIP3   OH2 8018   0.929   1.240   1.184
 2671TIP3    H1 8019   0.846   1.277   1.153
 2671TIP3    H2 8020   0.912   1.216   1.275
 2672TIP3   OH2 8021   5.964   2.725   3.221
 2672TIP3    H1 8022   6.040   2.703   3.275
 2672TIP3    H2 8023   5.979   2.815   3.193
 2673TIP3   OH2 8024   4.098   1.054   4.859
 2673TIP3    H1 8025   4.165   1.077   4.923
 2673TIP3    H2 8026   4.057   1.137   4.836
 2674TIP3   OH2 8027   1.130   0.047   4.682
 2674TIP3    H1 8028   1.088   0.008   4.605
 2674TIP3    H2 8029   1.218   0.010   4.683
 2675TIP3   OH2 8030   2.342   5.221   0.883
 2675TIP3    H1 8031   2.307   5.152   0.827
 2675TIP3    H2 8032   2.406   5.177   0.939
 2676TIP3   OH2 8033   2.124   4.277   4.810
 2676TIP3    H1 8034   2.069   4.254   4.735
 2676TIP3    H2 8035   2.196   4.327   4.773
 2677TIP3   OH2 8036   1.585   3.629   1.925
 2677TIP3    H1 8037   1.623   3.543   1.943
 2677TIP3    H2 8038   1.611   3.648   1.834
 2678TIP3   OH2 8039   5.042   3.621   4.242
 2678TIP3    H1 8040   5.078   3.666   4.165
 2678TIP3    H2 8041   4.956   3.661   4.256
 2679TIP3   OH2 8042   1.124   1.711   3.745
 2679TIP3    H1 8043   1.051   1.770   3.764
 2679TIP3    H2 8044   1.084   1.625   3.738
 2680TIP3   OH2 8045   6.302   2.324   2.083
 2680TIP3    H1 8046   6.329   2.310   2.174
 2680TIP3    H2 8047   6.233   2.259   2.068
 2681TIP3   OH2 8048   5.564   1.518   0.152
 2681TIP3    H1 8049   5.496   1.565   0.201
 2681TIP3    H2 8050   5.604   1.585   0.096
 2682TIP3   OH2 8051   1.062   4.403   4.495
 2682TIP3    H1 8052   1.010   4.415   4.416
 2682TIP3    H2 8053   1.039   4.316   4.527
 2683TIP3   OH2 8054   5.426   5.546   3.838
 2683TIP3    H1 8055   5.408   5.627   3.790
 2683TIP3    H2 8056   5.352   5.489   3.818
 2684TIP3   OH2 8057   4.663   1.993   3.620
 2684TIP3    H1 8058   4.643   2.066   3.678
 2684TIP3    H2 8059   4.707   1.929   3.676
 2685TIP3   OH2 8060   1.705   5.810   0.588
 2685TIP3    H1 8061   1.671   5.849   0.668
 2685TIP3    H2 8062   1.743   5.727   0.615
 2686TIP3   OH2 8063   5.497   0.028   1.442
 2686TIP3    H1 8064   5.565   0.010   1.507
 2686TIP3    H2 8065   5.436  -0.045   1.449
 2687TIP3   OH2 8066   5.220   3.873   3.210
 2687TIP3    H1 8067   5.195   3.862   3.302
 2687TIP3    H2 8068   5.267   3.793   3.189
 2688TIP3   OH2 8069   0.488   1.537   1.792
 2688TIP3    H1 8070   0.402   1.556   1.829
 2688TIP3    H2 8071   0.477   1.552   1.698
 2689TIP3   OH2 8072   5.254   2.995   0.603
 2689TIP3    H1 8073   5.283   2.906   0.624
 2689TIP3    H2 8074   5.172   3.005   0.652
 2690TIP3   OH2 8075   2.092   0.777   2.635
 2690TIP3    H1 8076   2.170   0.825   2.608
 2690TIP3    H2 8077   2.124   0.689   2.656
 2691TIP3   OH2 8078   5.925   0.939   0.455
 2691TIP3    H1 8079   5.905   0.862   0.509
 2691TIP3    H2 8080   6.018   0.957   0.474
 2692TIP3   OH2 8081   3.639   0.542   0.273
 2692TIP3    H1 8082   3.578   0.470   0.264
 2692TIP3    H2 8083   3.598   0.615   0.226
 2693TIP3   OH2 8084   1.638   1.540   0.329
 2693TIP3    H1 8085   1.614   1.470   0.268
 2693TIP3    H2 8086   1.699   1.595   0.280
 2694TIP3   OH2 8087   5.207   3.957   4.444
 2694TIP3    H1 8088   5.115   3.939   4.464
 2694TIP3    H2 8089   5.208   3.971   4.349
 2695TIP3   OH2 8090   0.307   5.661   1.132
 2695TIP3    H1 8091   0.394   5.621   1.142
 2695TIP3    H2 8092   0.309   5.701   1.045
 2696TIP3   OH2 8093   1.903   4.279   4.626
 2696TIP3    H1 8094   1.848   4.290   4.703
 2696TIP3    H2 8095   1.873   4.198   4.586
 2697TIP3   OH2 8096   6.013   3.705   2.497
 2697TIP3    H1 8097   6.071   3.779   2.516
 2697TIP3    H2 8098   6.038   3.677   2.409
 2698TIP3   OH2 8099   4.446   2.720   1.094
 2698TIP3    H1 8100   4.466   2.777   1.019
 2698TIP3    H2 8101   4.494   2.759   1.167
 2699TIP3   OH2 8102   5.231   1.499   0.122
 2699TIP3    H1 8103   5.222   1.582   0.075
 2699TIP3    H2 8104   5.142   1.464   0.126
 2700TIP3   OH2 8105   2.412   1.649   1.474
 2700TIP3    H1 8106   2.318   1.637   1.487
 2700TIP3    H2 8107   2.426   1.631   1.381
 2701TIP3   OH2 8108   4.590   0.485   1.661
 2701TIP3    H1 8109   4.629   0.545   1.724
 2701TIP3    H2 8110   4.597   0.398   1.701
 2702TIP3   OH2 8111   3.969   5.451   0.961
 2702TIP3    H1 8112   3.933   5.381   0.908
 2702TIP3    H2 8113   4.032   5.496   0.904
 2703TIP3   OH2 8114   4.344   2.321   4.062
 2703TIP3    H1 8115   4.423   2.266   4.056
 2703TIP3    H2 8116   4.376   2.405   4.093
 2704TIP3   OH2 8117   4.902   2.487   4.470
 2704TIP3    H1 8118   4.919   2.581   4.476
 2704TIP3    H2 8119   4.948   2.460   4.390
 2705TIP3   OH2 8120   1.985   2.412   2.375
 2705TIP3    H1 8121   1.895   2.403   2.345
 2705TIP3    H2 8122   1.983   2.385   2.467
 2706TIP3   OH2 8123   4.675   5.547   3.385
 2706TIP3    H1 8124   4.678   5.643   3.393
 2706TIP3    H2 8125   4.764   5.519   3.409
 2707TIP3   OH2 8126   3.216   3.244   5.148
 2707TIP3    H1 8127   3.293   3.257   5.203
 2707TIP3    H2 8128   3.244   3.271   5.061
 2708TIP3   OH2 8129   1.022   0.745   3.197
 2708TIP3    H1 8130   1.064   0.819   3.241
 2708TIP3    H2 8131   1.068   0.737   3.114
 2709TIP3   OH2 8132   6.004   1.608   1.802
 2709TIP3    H1 8133   6.017   1.634   1.893
 2709TIP3    H2 8134   6.017   1.688   1.752
 2710TIP3   OH2 8135   4.861   3.831   2.950
 2710TIP3    H1 8136   4.928   3.768   2.923
 2710TIP3    H2 8137   4.897   3.917   2.928
 2711TIP3   OH2 8138   5.247   4.187   1.651
 2711TIP3    H1 8139   5.233   4.107   1.701
 2711TIP3    H2 8140   5.318   4.232   1.696
 2712TIP3   OH2 8141   5.808   5.512   0.703
 2712TIP3    H1 8142   5.801   5.508   0.607
 2712TIP3    H2 8143   5.779   5.426   0.733
 2713TIP3   OH2 8144   6.241   5.949   4.796
 2713TIP3    H1 8145   6.242   5.952   4.700
 2713TIP3    H2 8146   6.302   5.879   4.818
 2714TIP3   OH2 8147   3.674   2.205   2.853
 2714TIP3    H1 8148   3.691   2.218   2.946
 2714TIP3    H2 8149   3.750   2.244   2.809
 2715TIP3   OH2 8150   4.296   1.338   1.988
 2715TIP3    H1 8151   4.231   1.273   1.962
 2715TIP3    H2 8152   4.254   1.388   2.058
 2716TIP3   OH2 8153   0.111   0.016   2.160
 2716TIP3    H1 8154   0.066   0.013   2.245
 2716TIP3    H2 8155   0.132  -0.076   2.142
 2717TIP3   OH2 8156   2.337   0.616   0.911
 2717TIP3    H1 8157   2.328   0.601   0.817
 2717TIP3    H2 8158   2.386   0.540   0.943
 2718TIP3   OH2 8159   5.420   4.567   2.530
 2718TIP3    H1 8160   5.357   4.504   2.495
 2718TIP3    H2 8161   5.382   4.652   2.511
 2719TIP3   OH2 8162   2.972   1.420   1.755
 2719TIP3    H1 8163   3.064   1.445   1.746
 2719TIP3    H2 8164   2.924   1.497   1.724
 2720TIP3   OH2 8165   0.460   3.982   2.594
 2720TIP3    H1 8166   0.464   4.003   2.500
 2720TIP3    H2 8167   0.466   4.067   2.637
 2721TIP3   OH2 8168   3.029   4.778   2.771
 2721TIP3    H1 8169   2.980   4.728   2.707
 2721TIP3    H2 8170   2.978   4.858   2.785
 2722TIP3   OH2 8171   5.985   5.407   1.744
 2722TIP3    H1 8172   6.048   5.468   1.781
 2722TIP3    H2 8173   5.983   5.427   1.651
 2723TIP3   OH2 8174   1.485   1.457   3.239
 2723TIP3    H1 8175   1.492   1.525   3.305
 2723TIP3    H2 8176   1.426   1.493   3.173
 2724TIP3   OH2 8177   2.113   4.855   2.816
 2724TIP3    H1 8178   2.135   4.777   2.766
 2724TIP3    H2 8179   2.045   4.826   2.877
 2725TIP3   OH2 8180   3.816   0.968   4.805
 2725TIP3    H1 8181   3.818   0.876   4.831
 2725TIP3    H2 8182   3.903   1.000   4.825
 2726TIP3   OH2 8183   0.367   2.898   3.659
 2726TIP3    H1 8184   0.419   2.820   3.674
 2726TIP3    H2 8185   0.329   2.918   3.745
 2727TIP3   OH2 8186   2.830   2.494   3.256
 2727TIP3    H1 8187   2.843   2.507   3.162
 2727TIP3    H2 8188   2.735   2.505   3.268
 2728TIP3   OH2 8189   1.443   3.631   0.763
 2728TIP3    H1 8190   1.384   3.706   0.767
 2728TIP3    H2 8191   1.526   3.663   0.798
 2729TIP3   OH2 8192   1.852   4.578   3.906
 2729TIP3    H1 8193   1.943   4.580   3.935
 2729TIP3    H2 8194   1.808   4.645   3.960
 2730TIP3   OH2 8195   3.139   0.179   0.702
 2730TIP3    H1 8196   3.096   0.247   0.651
 2730TIP3    H2 8197   3.107   0.191   0.791
 2731TIP3   OH2 8198   1.815   3.791   4.962
 2731TIP3    H1 8199   1.731   3.829   4.936
 2731TIP3    H2 8200   1.805   3.771   5.055
 2732TIP3   OH2 8201   4.997   3.157   3.031
 2732TIP3    H1 8202   5.002   3.073   3.077
 2732TIP3    H2 8203   4.941   3.140   2.955
 2733TIP3   OH2 8204   1.757   3.477   0.615
 2733TIP3    H1 8205   1.717   3.564   0.611
 2733TIP3    H2 8206   1.682   3.417   0.616
 2734TIP3   OH2 8207   1.982   5.810   4.171
 2734TIP3    H1 8208   2.028   5.894   4.163
 2734TIP3    H2 8209   2.048   5.750   4.206
 2735TIP3   OH2 8210   5.327   0.218   1.976
 2735TIP3    H1 8211   5.377   0.289   1.936
 2735TIP3    H2 8212   5.337   0.233   2.070
 2736TIP3   OH2 8213   2.548   0.777   4.805
 2736TIP3    H1 8214   2.523   0.745   4.718
 2736TIP3    H2 8215   2.504   0.718   4.866
 2737TIP3   OH2 8216   6.048   0.766   4.737
 2737TIP3    H1 8217   6.009   0.760   4.650
 2737TIP3    H2 8218   5.975   0.792   4.794
 2738TIP3   OH2 8219   1.717   4.903   4.924
 2738TIP3    H1 8220   1.682   4.865   5.005
 2738TIP3    H2 8221   1.759   4.830   4.879
 2739TIP3   OH2 8222   3.586   0.373   3.895
 2739TIP3    H1 8223   3.571   0.467   3.883
 2739TIP3    H2 8224   3.677   0.367   3.923
 2740TIP3   OH2 8225   0.477   3.550   0.442
 2740TIP3    H1 8226   0.524   3.624   0.480
 2740TIP3    H2 8227   0.532   3.474   0.459
 2741TIP3   OH2 8228   4.952   4.820   1.168
 2741TIP3    H1 8229   5.046   4.810   1.158
 2741TIP3    H2 8230   4.917   4.805   1.080
 2742TIP3   OH2 8231   1.937   0.163   1.172
 2742TIP3    H1 8232   1.848   0.157   1.136
 2742TIP3    H2 8233   1.975   0.076   1.156
 2743TIP3   OH2 8234   3.207   1.361   4.362
 2743TIP3    H1 8235   3.242   1.424   4.426
 2743TIP3    H2 8236   3.279   1.347   4.301
 2744TIP3   OH2 8237   4.970   5.955   3.562
 2744TIP3    H1 8238   5.018   5.891   3.616
 2744TIP3    H2 8239   5.036   5.989   3.502
 2745TIP3   OH2 8240   0.916   0.763   0.944
 2745TIP3    H1 8241   0.920   0.853   0.911
 2745TIP3    H2 8242   1.008   0.740   0.961
 2746TIP3   OH2 8243   2.245   0.599   3.119
 2746TIP3    H1 8244   2.237   0.593   3.214
 2746TIP3    H2 8245   2.334   0.630   3.104
 2747TIP3   OH2 8246   0.296   0.643   3.380
 2747TIP3    H1 8247   0.369   0.637   3.319
 2747TIP3    H2 8248   0.310   0.571   3.441
 2748TIP3   OH2 8249   5.645   2.048   2.894
 2748TIP3    H1 8250   5.598   2.006   2.823
 2748TIP3    H2 8251   5.737   2.034   2.874
 2749TIP3   OH2 8252   2.698   3.451   1.620
 2749TIP3    H1 8253   2.672   3.374   1.569
 2749TIP3    H2 8254   2.686   3.525   1.561
 2750TIP3   OH2 8255   3.473   3.417   1.031
 2750TIP3    H1 8256   3.379   3.403   1.034
 2750TIP3    H2 8257   3.487   3.468   0.951
 2751TIP3   OH2 8258   1.381   3.914   0.354
 2751TIP3    H1 8259   1.370   3.888   0.262
 2751TIP3    H2 8260   1.404   3.833   0.400
 2752TIP3   OH2 8261   1.599   5.973   4.153
 2752TIP3    H1 8262   1.516   5.962   4.106
 2752TIP3    H2 8263   1.574   5.993   4.243
 2753TIP3   OH2 8264   3.917   5.044   0.258
 2753TIP3    H1 8265   3.956   4.957   0.254
 2753TIP3    H2 8266   3.973   5.092   0.320
 2754TIP3   OH2 8267   4.361   3.564   2.662
 2754TIP3    H1 8268   4.439   3.529   2.619
 2754TIP3    H2 8269   4.288   3.532   2.610
 2755TIP3   OH2 8270   0.477   5.383   2.567
 2755TIP3    H1 8271   0.516   5.451   2.513
 2755TIP3    H2 8272   0.471   5.307   2.510
 2756TIP3   OH2 8273   0.259   3.206   3.314
 2756TIP3    H1 8274   0.263   3.225   3.407
 2756TIP3    H2 8275   0.292   3.116   3.306
 2757TIP3   OH2 8276   2.869   5.897   4.525
 2757TIP3    H1 8277   2.856   5.914   4.432
 2757TIP3    H2 8278   2.952   5.850   4.530
 2758TIP3   OH2 8279   3.245   1.903   0.304
 2758TIP3    H1 8280   3.193   1.839   0.255
 2758TIP3    H2 8281   3.336   1.878   0.287
 2759TIP3   OH2 8282   0.365   5.733   3.559
 2759TIP3    H1 8283   0.396   5.818   3.590
 2759TIP3    H2 8284   0.428   5.670   3.595
 2760TIP3   OH2 8285   5.403   0.571   2.567
 2760TIP3    H1 8286   5.462   0.560   2.492
 2760TIP3    H2 8287   5.447   0.636   2.622
 2761TIP3   OH2 8288   5.848   4.509   1.905
 2761TIP3    H1 8289   5.922   4.566   1.886
 2761TIP3    H2 8290   5.773   4.552   1.865
 2762TIP3   OH2 8291   0.815   3.756   0.257
 2762TIP3    H1 8292   0.778   3.844   0.246
 2762TIP3    H2 8293   0.906   3.770   0.281
 2763TIP3   OH2 8294   3.201   4.056   2.815
 2763TIP3    H1 8295   3.218   4.008   2.734
 2763TIP3    H2 8296   3.142   3.999   2.865
 2764TIP3   OH2 8297   2.984   1.822   2.384
 2764TIP3    H1 8298   3.017   1.819   2.295
 2764TIP3    H2 8299   3.062   1.831   2.439
 2765TIP3   OH2 8300   4.662   4.446   2.156
 2765TIP3    H1 8301   4.715   4.512   2.202
 2765TIP3    H2 8302   4.641   4.487   2.073
 2766TIP3   OH2 8303   0.865   2.250   0.953
 2766TIP3    H1 8304   0.790   2.191   0.947
 2766TIP3    H2 8305   0.846   2.320   0.891
 2767TIP3   OH2 8306   1.660   0.650   0.590
 2767TIP3    H1 8307   1.670   0.568   0.542
 2767TIP3    H2 8308   1.639   0.622   0.679
 2768TIP3   OH2 8309   1.240   5.769   2.798
 2768TIP3    H1 8310   1.239   5.678   2.768
 2768TIP3    H2 8311   1.163   5.775   2.856
 2769TIP3   OH2 8312   4.343   0.922   1.475
 2769TIP3    H1 8313   4.369   0.923   1.383
 2769TIP3    H2 8314   4.331   1.014   1.498
 2770TIP3   OH2 8315   3.962   0.508   1.060
 2770TIP3    H1 8316   3.953   0.475   0.970
 2770TIP3    H2 8317   3.873   0.531   1.086
 2771TIP3   OH2 8318   4.570   1.903   1.713
 2771TIP3    H1 8319   4.578   1.823   1.660
 2771TIP3    H2 8320   4.481   1.900   1.747
 2772TIP3   OH2 8321   6.008   5.860   2.452
 2772TIP3    H1 8322   6.011   5.952   2.428
 2772TIP3    H2 8323   5.972   5.816   2.374
 2773TIP3   OH2 8324   2.808   3.703   0.581
 2773TIP3    H1 8325   2.755   3.630   0.613
 2773TIP3    H2 8326   2.760   3.736   0.506
 2774TIP3   OH2 8327   4.448   4.473   3.695
 2774TIP3    H1 8328   4.400   4.390   3.687
 2774TIP3    H2 8329   4.510   4.457   3.765
 2775TIP3   OH2 8330   2.657   5.232   2.398
 2775TIP3    H1 8331   2.744   5.209   2.366
 2775TIP3    H2 8332   2.659   5.327   2.408
 2776TIP3   OH2 8333   0.737   5.863   1.696
 2776TIP3    H1 8334   0.728   5.955   1.674
 2776TIP3    H2 8335   0.738   5.818   1.611
 2777TIP3   OH2 8336   4.743   1.063   3.904
 2777TIP3    H1 8337   4.670   1.120   3.928
 2777TIP3    H2 8338   4.736   0.989   3.964
 2778TIP3   OH2 8339   4.804   3.574   2.754
 2778TIP3    H1 8340   4.835   3.500   2.702
 2778TIP3    H2 8341   4.742   3.535   2.816
 2779TIP3   OH2 8342   0.304   4.105   2.181
 2779TIP3    H1 8343   0.331   4.104   2.089
 2779TIP3    H2 8344   0.357   4.038   2.222
 2780TIP3   OH2 8345   1.970   4.068   2.776
 2780TIP3    H1 8346   2.016   4.117   2.844
 2780TIP3    H2 8347   1.934   4.135   2.718
 2781TIP3   OH2 8348   4.634   4.872   1.820
 2781TIP3    H1 8349   4.640   4.859   1.725
 2781TIP3    H2 8350   4.698   4.941   1.838
 2782TIP3   OH2 8351   5.356   4.940   0.809
 2782TIP3    H1 8352   5.333   4.994   0.733
 2782TIP3    H2 8353   5.310   4.980   0.882
 2783TIP3   OH2 8354   3.761   2.278   3.107
 2783TIP3    H1 8355   3.711   2.357   3.127
 2783TIP3    H2 8356   3.783   2.242   3.193
 2784TIP3   OH2 8357   3.412   2.418   5.109
 2784TIP3    H1 8358   3.379   2.330   5.130
 2784TIP3    H2 8359   3.409   2.465   5.193
 2785TIP3   OH2 8360   4.406   5.600   4.025
 2785TIP3    H1 8361   4.311   5.586   4.030
 2785TIP3    H2 8362   4.434   5.547   3.951
 2786TIP3   OH2 8363   3.632   5.387   1.111
 2786TIP3    H1 8364   3.577   5.314   1.084
 2786TIP3    H2 8365   3.620   5.453   1.042
 2787TIP3   OH2 8366   3.737   2.067   1.288
 2787TIP3    H1 8367   3.761   2.017   1.365
 2787TIP3    H2 8368   3.689   2.143   1.323
 2788TIP3   OH2 8369   0.748   3.428   3.629
 2788TIP3    H1 8370   0.730   3.336   3.610
 2788TIP3    H2 8371   0.662   3.468   3.642
 2789TIP3   OH2 8372   5.686   3.094   3.331
 2789TIP3    H1 8373   5.694   3.063   3.241
 2789TIP3    H2 8374   5.592   3.098   3.348
 2790TIP3   OH2 8375   1.483   5.380   0.686
 2790TIP3    H1 8376   1.470   5.475   0.682
 2790TIP3    H2 8377   1.406   5.348   0.732
 2791TIP3   OH2 8378   0.699   3.167   0.807
 2791TIP3    H1 8379   0.787   3.132   0.823
 2791TIP3    H2 8380   0.640   3.094   0.828
 2792TIP3   OH2 8381   2.642   5.819   4.114
 2792TIP3    H1 8382   2.609   5.908   4.106
 2792TIP3    H2 8383   2.658   5.807   4.207
 2793TIP3   OH2 8384   5.716   0.864   0.845
 2793TIP3    H1 8385   5.624   0.884   0.831
 2793TIP3    H2 8386   5.763   0.934   0.799
 2794TIP3   OH2 8387   0.500   0.017  -0.045
 2794TIP3    H1 8388   0.554  -0.026   0.021
 2794TIP3    H2 8389   0.451   0.084   0.003
 2795TIP3   OH2 8390   0.283   1.866   0.351
 2795TIP3    H1 8391   0.302   1.930   0.282
 2795TIP3    H2 8392   0.273   1.783   0.305
 2796TIP3   OH2 8393   3.834   0.239   0.187
 2796TIP3    H1 8394   3.853   0.279   0.272
 2796TIP3    H2 8395   3.747   0.202   0.197
 2797TIP3   OH2 8396   0.580   2.244   4.811
 2797TIP3    H1 8397   0.605   2.295   4.734
 2797TIP3    H2 8398   0.491   2.213   4.792
 2798TIP3   OH2 8399   6.156   2.109   3.137
 2798TIP3    H1 8400   6.116   2.187   3.177
 2798TIP3    H2 8401   6.082   2.050   3.123
 2799TIP3   OH2 8402   6.286   2.918   3.521
 2799TIP3    H1 8403   6.276   2.996   3.576
 2799TIP3    H2 8404   6.320   2.851   3.580
 2800TIP3   OH2 8405   2.518   3.898   1.446
 2800TIP3    H1 8406   2.505   3.963   1.378
 2800TIP3    H2 8407   2.567   3.944   1.514
 2801TIP3   OH2 8408   0.913   4.551   1.981
 2801TIP3    H1 8409   0.878   4.496   2.051
 2801TIP3    H2 8410   0.862   4.528   1.904
 2802TIP3   OH2 8411   4.151   1.544   2.567
 2802TIP3    H1 8412   4.096   1.617   2.538
 2802TIP3    H2 8413   4.159   1.556   2.661
 2803TIP3   OH2 8414   1.433   2.984   1.196
 2803TIP3    H1 8415   1.495   3.052   1.221
 2803TIP3    H2 8416   1.413   2.938   1.277
 2804TIP3   OH2 8417   1.336   0.293   1.058
 2804TIP3    H1 8418   1.330   0.386   1.082
 2804TIP3    H2 8419   1.311   0.246   1.137
 2805TIP3   OH2 8420   0.884   3.484   4.052
 2805TIP3    H1 8421   0.848   3.522   4.132
 2805TIP3    H2 8422   0.956   3.428   4.083
 2806TIP3   OH2 8423   2.228   3.594   5.136
 2806TIP3    H1 8424   2.207   3.645   5.214
 2806TIP3    H2 8425   2.290   3.650   5.088
 2807TIP3   OH2 8426   0.027   3.408   2.237
 2807TIP3    H1 8427   0.019   3.325   2.189
 2807TIP3    H2 8428  -0.039   3.465   2.197
 2808TIP3   OH2 8429   3.201   1.734   0.896
 2808TIP3    H1 8430   3.248   1.719   0.978
 2808TIP3    H2 8431   3.111   1.707   0.915
 2809TIP3   OH2 8432   2.330   1.025   3.669
 2809TIP3    H1 8433   2.400   1.038   3.606
 2809TIP3    H2 8434   2.255   0.998   3.616
 2810TIP3   OH2 8435   0.316   3.138   1.890
 2810TIP3    H1 8436   0.365   3.193   1.951
 2810TIP3    H2 8437   0.378   3.071   1.862
 2811TIP3   OH2 8438   5.322   2.838   2.382
 2811TIP3    H1 8439   5.358   2.923   2.410
 2811TIP3    H2 8440   5.399   2.784   2.364
 2812TIP3   OH2 8441   5.002   3.830   2.079
 2812TIP3    H1 8442   4.981   3.915   2.042
 2812TIP3    H2 8443   5.094   3.836   2.104
 2813TIP3   OH2 8444   5.695   0.579   3.222
 2813TIP3    H1 8445   5.614   0.603   3.176
 2813TIP3    H2 8446   5.666   0.523   3.294
 2814TIP3   OH2 8447   3.205   0.022  -0.007
 2814TIP3    H1 8448   3.114   0.000   0.016
 2814TIP3    H2 8449   3.252  -0.061  -0.001
 2815TIP3   OH2 8450   0.643   0.953   2.698
 2815TIP3    H1 8451   0.736   0.975   2.684
 2815TIP3    H2 8452   0.618   1.008   2.773
 2816TIP3   OH2 8453   3.098   4.502   3.478
 2816TIP3    H1 8454   3.103   4.587   3.522
 2816TIP3    H2 8455   3.150   4.444   3.533
 2817TIP3   OH2 8456   2.854   4.288   2.700
 2817TIP3    H1 8457   2.805   4.340   2.636
 2817TIP3    H2 8458   2.847   4.198   2.668
 2818TIP3   OH2 8459   4.537   3.006   2.385
 2818TIP3    H1 8460   4.582   3.073   2.436
 2818TIP3    H2 8461   4.572   3.015   2.297
 2819TIP3   OH2 8462   3.576   5.823   4.486
 2819TIP3    H1 8463   3.578   5.917   4.506
 2819TIP3    H2 8464   3.658   5.789   4.523
 2820TIP3   OH2 8465   1.941   0.786   2.870
 2820TIP3    H1 8466   1.992   0.796   2.790
 2820TIP3    H2 8467   1.962   0.864   2.922
 2821TIP3   OH2 8468   6.235   5.950   3.783
 2821TIP3    H1 8469   6.291   5.979   3.712
 2821TIP3    H2 8470   6.149   5.939   3.742
 2822TIP3   OH2 8471   1.973   2.780   2.799
 2822TIP3    H1 8472   2.008   2.702   2.756
 2822TIP3    H2 8473   1.962   2.843   2.728
 2823TIP3   OH2 8474   4.334   4.716   2.381
 2823TIP3    H1 8475   4.396   4.788   2.395
 2823TIP3    H2 8476   4.357   4.681   2.296
 2824TIP3   OH2 8477   6.051   5.572   0.904
 2824TIP3    H1 8478   6.030   5.486   0.868
 2824TIP3    H2 8479   5.986   5.586   0.973
 2825TIP3   OH2 8480   0.826   1.195   1.910
 2825TIP3    H1 8481   0.750   1.252   1.904
 2825TIP3    H2 8482   0.797   1.121   1.963
 2826TIP3   OH2 8483   3.366   5.529   1.917
 2826TIP3    H1 8484   3.440   5.573   1.959
 2826TIP3    H2 8485   3.315   5.492   1.989
 2827TIP3   OH2 8486   0.274   0.070   2.960
 2827TIP3    H1 8487   0.297   0.021   3.039
 2827TIP3    H2 8488   0.352   0.122   2.939
 2828TIP3   OH2 8489   0.089   4.748   4.277
 2828TIP3    H1 8490   0.154   4.686   4.309
 2828TIP3    H2 8491   0.026   4.757   4.348
 2829TIP3   OH2 8492   5.431   1.182   4.594
 2829TIP3    H1 8493   5.399   1.256   4.646
 2829TIP3    H2 8494   5.501   1.219   4.541
 2830TIP3   OH2 8495   4.648   4.218   1.425
 2830TIP3    H1 8496   4.727   4.269   1.407
 2830TIP3    H2 8497   4.647   4.208   1.520
 2831TIP3   OH2 8498   0.189   4.191   4.975
 2831TIP3    H1 8499   0.209   4.100   4.997
 2831TIP3    H2 8500   0.248   4.242   5.031
 2832TIP3   OH2 8501   0.201   1.948   2.009
 2832TIP3    H1 8502   0.169   2.002   2.081
 2832TIP3    H2 8503   0.160   1.862   2.023
 2833TIP3   OH2 8504   6.258   3.957   3.052
 2833TIP3    H1 8505   6.276   3.939   3.144
 2833TIP3    H2 8506   6.335   4.007   3.022
 2834TIP3   OH2 8507   5.956   0.136   3.619
 2834TIP3    H1 8508   5.891   0.118   3.552
 2834TIP3    H2 8509   5.925   0.216   3.662
 2835TIP3   OH2 8510   2.529   3.584   2.132
 2835TIP3    H1 8511   2.451   3.611   2.180
 2835TIP3    H2 8512   2.549   3.659   2.076
 2836TIP3   OH2 8513   3.463   3.505   4.371
 2836TIP3    H1 8514   3.529   3.570   4.394
 2836TIP3    H2 8515   3.401   3.507   4.444
 2837TIP3   OH2 8516   4.252   5.203   5.121
 2837TIP3    H1 8517   4.205   5.271   5.170
 2837TIP3    H2 8518   4.319   5.250   5.072
 2838TIP3   OH2 8519   4.296   3.763   1.943
 2838TIP3    H1 8520   4.255   3.697   1.999
 2838TIP3    H2 8521   4.252   3.845   1.966
 2839TIP3   OH2 8522   5.282   5.695   3.324
 2839TIP3    H1 8523   5.265   5.600   3.328
 2839TIP3    H2 8524   5.360   5.703   3.268
 2840TIP3   OH2 8525   4.268   4.332   0.726
 2840TIP3    H1 8526   4.245   4.291   0.809
 2840TIP3    H2 8527   4.205   4.298   0.663
 2841TIP3   OH2 8528   4.785   1.253   1.073
 2841TIP3    H1 8529   4.775   1.249   0.978
 2841TIP3    H2 8530   4.742   1.173   1.104
 2842TIP3   OH2 8531   1.321   0.239   0.177
 2842TIP3    H1 8532   1.395   0.204   0.227
 2842TIP3    H2 8533   1.244   0.217   0.230
 2843TIP3   OH2 8534   1.180   3.032   4.439
 2843TIP3    H1 8535   1.105   2.981   4.406
 2843TIP3    H2 8536   1.200   3.093   4.368
 2844TIP3   OH2 8537   0.981   2.765   0.545
 2844TIP3    H1 8538   0.947   2.833   0.603
 2844TIP3    H2 8539   0.977   2.685   0.597
 2845TIP3   OH2 8540   6.262   1.871   3.169
 2845TIP3    H1 8541   6.223   1.951   3.133
 2845TIP3    H2 8542   6.189   1.809   3.173
 2846TIP3   OH2 8543   0.099   3.633   3.801
 2846TIP3    H1 8544   0.013   3.645   3.760
 2846TIP3    H2 8545   0.100   3.697   3.873
 2847TIP3   OH2 8546   4.749   2.575   4.166
 2847TIP3    H1 8547   4.718   2.665   4.153
 2847TIP3    H2 8548   4.845   2.583   4.165
 2848TIP3   OH2 8549   4.609   5.035   4.368
 2848TIP3    H1 8550   4.602   5.127   4.342
 2848TIP3    H2 8551   4.659   5.037   4.450
 2849TIP3   OH2 8552   2.135   1.665   0.935
 2849TIP3    H1 8553   2.206   1.614   0.973
 2849TIP3    H2 8554   2.055   1.620   0.962
 2850TIP3   OH2 8555   3.825   4.881   5.048
 2850TIP3    H1 8556   3.892   4.937   5.089
 2850TIP3    H2 8557   3.830   4.799   5.096
 2851TIP3   OH2 8558   3.735   4.323   3.749
 2851TIP3    H1 8559   3.671   4.394   3.751
 2851TIP3    H2 8560   3.730   4.288   3.660
 2852TIP3   OH2 8561   6.272   0.387   1.598
 2852TIP3    H1 8562   6.211   0.445   1.642
 2852TIP3    H2 8563   6.346   0.379   1.658
 2853TIP3   OH2 8564   6.302   0.055   1.067
 2853TIP3    H1 8565   6.256   0.132   1.102
 2853TIP3    H2 8566   6.278  -0.016   1.127
 2854TIP3   OH2 8567   2.010   2.177   2.140
 2854TIP3    H1 8568   2.033   2.090   2.174
 2854TIP3    H2 8569   1.942   2.208   2.200
 2855TIP3   OH2 8570   5.946   1.756   2.036
 2855TIP3    H1 8571   5.859   1.745   1.999
 2855TIP3    H2 8572   5.935   1.740   2.130
 2856TIP3   OH2 8573   3.156   5.148   0.558
 2856TIP3    H1 8574   3.070   5.185   0.576
 2856TIP3    H2 8575   3.139   5.075   0.499
 2857TIP3   OH2 8576   4.805   2.859   0.660
 2857TIP3    H1 8577   4.854   2.942   0.661
 2857TIP3    H2 8578   4.766   2.855   0.573
 2858TIP3   OH2 8579   4.482   1.251   2.583
 2858TIP3    H1 8580   4.565   1.244   2.630
 2858TIP3    H2 8581   4.467   1.163   2.547
 2859TIP3   OH2 8582   2.784   2.599   1.119
 2859TIP3    H1 8583   2.769   2.569   1.030
 2859TIP3    H2 8584   2.719   2.554   1.172
 2860TIP3   OH2 8585   5.479   2.573   0.945
 2860TIP3    H1 8586   5.551   2.594   0.886
 2860TIP3    H2 8587   5.403   2.561   0.888
 2861TIP3   OH2 8588   1.499   1.152   4.271
 2861TIP3    H1 8589   1.555   1.099   4.328
 2861TIP3    H2 8590   1.488   1.235   4.318
 2862TIP3   OH2 8591   2.384   4.089   1.246
 2862TIP3    H1 8592   2.439   4.098   1.168
 2862TIP3    H2 8593   2.302   4.131   1.222
 2863TIP3   OH2 8594   4.923   0.594   0.021
 2863TIP3    H1 8595   4.939   0.515   0.073
 2863TIP3    H2 8596   4.940   0.566  -0.069
 2864TIP3   OH2 8597   1.892   2.742   1.232
 2864TIP3    H1 8598   1.803   2.717   1.204
 2864TIP3    H2 8599   1.935   2.658   1.250
 2865TIP3   OH2 8600   1.031   0.823   2.784
 2865TIP3    H1 8601   1.114   0.871   2.786
 2865TIP3    H2 8602   0.970   0.883   2.741
 2866TIP3   OH2 8603   1.427   3.696   1.613
 2866TIP3    H1 8604   1.514   3.720   1.645
 2866TIP3    H2 8605   1.423   3.731   1.524
 2867TIP3   OH2 8606   3.136   2.692   4.932
 2867TIP3    H1 8607   3.085   2.612   4.919
 2867TIP3    H2 8608   3.223   2.671   4.899
 2868TIP3   OH2 8609   1.443   5.060   3.695
 2868TIP3    H1 8610   1.362   5.012   3.713
 2868TIP3    H2 8611   1.473   5.027   3.611
 2869TIP3   OH2 8612   6.229   5.913   2.105
 2869TIP3    H1 8613   6.280   5.983   2.147
 2869TIP3    H2 8614   6.141   5.923   2.140
 2870TIP3   OH2 8615   0.792   4.786   2.139
 2870TIP3    H1 8616   0.825   4.764   2.052
 2870TIP3    H2 8617   0.706   4.743   2.143
 2871TIP3   OH2 8618   5.509   1.554   4.007
 2871TIP3    H1 8619   5.445   1.582   3.941
 2871TIP3    H2 8620   5.592   1.587   3.975
 2872TIP3   OH2 8621   4.286   0.038   4.539
 2872TIP3    H1 8622   4.215  -0.026   4.530
 2872TIP3    H2 8623   4.250   0.118   4.501
 2873TIP3   OH2 8624   2.903  -0.003   0.079
 2873TIP3    H1 8625   2.853   0.074   0.107
 2873TIP3    H2 8626   2.875  -0.072   0.139
 2874TIP3   OH2 8627   1.081   2.997   3.716
 2874TIP3    H1 8628   1.156   3.014   3.773
 2874TIP3    H2 8629   1.094   2.907   3.686
 2875TIP3   OH2 8630   6.276   5.013   4.736
 2875TIP3    H1 8631   6.357   5.022   4.686
 2875TIP3    H2 8632   6.224   5.089   4.709
 2876TIP3   OH2 8633   5.234   0.209   4.338
 2876TIP3    H1 8634   5.230   0.248   4.251
 2876TIP3    H2 8635   5.147   0.223   4.375
 2877TIP3   OH2 8636   5.124   5.935   3.281
 2877TIP3    H1 8637   5.044   5.940   3.229
 2877TIP3    H2 8638   5.169   5.857   3.249
 2878TIP3   OH2 8639   4.092   2.799   4.888
 2878TIP3    H1 8640   4.162   2.734   4.879
 2878TIP3    H2 8641   4.012   2.746   4.898
 2879TIP3   OH2 8642   1.794   1.555   2.644
 2879TIP3    H1 8643   1.795   1.485   2.710
 2879TIP3    H2 8644   1.826   1.513   2.564
 2880TIP3   OH2 8645   4.744   3.296   1.243
 2880TIP3    H1 8646   4.774   3.219   1.290
 2880TIP3    H2 8647   4.806   3.306   1.171
 2881TIP3   OH2 8648   4.369   3.661   0.453
 2881TIP3    H1 8649   4.282   3.624   0.440
 2881TIP3    H2 8650   4.363   3.713   0.533
 2882TIP3   OH2 8651   5.284   3.289   0.023
 2882TIP3    H1 8652   5.218   3.359   0.022
 2882TIP3    H2 8653   5.366   3.334   0.044
 2883TIP3   OH2 8654   1.594   2.712   1.458
 2883TIP3    H1 8655   1.618   2.735   1.368
 2883TIP3    H2 8656   1.531   2.641   1.449
 2884TIP3   OH2 8657   3.484   2.507   0.625
 2884TIP3    H1 8658   3.512   2.488   0.536
 2884TIP3    H2 8659   3.429   2.584   0.618
 2885TIP3   OH2 8660   2.471   1.748   4.926
 2885TIP3    H1 8661   2.418   1.706   4.994
 2885TIP3    H2 8662   2.411   1.762   4.853
 2886TIP3   OH2 8663   3.290   2.776   1.834
 2886TIP3    H1 8664   3.286   2.686   1.865
 2886TIP3    H2 8665   3.201   2.810   1.847
 2887TIP3   OH2 8666   6.104   1.107   1.343
 2887TIP3    H1 8667   6.026   1.133   1.295
 2887TIP3    H2 8668   6.126   1.184   1.396
 2888TIP3   OH2 8669   3.280   2.436   4.864
 2888TIP3    H1 8670   3.295   2.342   4.854
 2888TIP3    H2 8671   3.326   2.459   4.945
 2889TIP3   OH2 8672   0.175   4.054   0.865
 2889TIP3    H1 8673   0.154   4.026   0.954
 2889TIP3    H2 8674   0.101   4.025   0.812
 2890TIP3   OH2 8675   3.757   2.960   0.204
 2890TIP3    H1 8676   3.711   2.915   0.275
 2890TIP3    H2 8677   3.696   3.029   0.177
 2891TIP3   OH2 8678   6.295   1.624   0.969
 2891TIP3    H1 8679   6.278   1.533   0.994
 2891TIP3    H2 8680   6.294   1.623   0.873
 2892TIP3   OH2 8681   2.663   5.481   2.252
 2892TIP3    H1 8682   2.742   5.528   2.277
 2892TIP3    H2 8683   2.685   5.437   2.170
 2893TIP3   OH2 8684   1.749   2.394   0.727
 2893TIP3    H1 8685   1.677   2.354   0.775
 2893TIP3    H2 8686   1.822   2.332   0.737
 2894TIP3   OH2 8687   3.434   5.262   2.091
 2894TIP3    H1 8688   3.430   5.201   2.017
 2894TIP3    H2 8689   3.348   5.306   2.090
 2895TIP3   OH2 8690   5.752   3.672   3.335
 2895TIP3    H1 8691   5.657   3.669   3.331
 2895TIP3    H2 8692   5.772   3.760   3.369
 2896TIP3   OH2 8693   1.653   3.237   4.110
 2896TIP3    H1 8694   1.692   3.268   4.029
 2896TIP3    H2 8695   1.703   3.281   4.179
 2897TIP3   OH2 8696   6.284   2.604   2.008
 2897TIP3    H1 8697   6.363   2.625   2.057
 2897TIP3    H2 8698   6.247   2.528   2.053
 2898TIP3   OH2 8699   3.208   0.785   0.728
 2898TIP3    H1 8700   3.296   0.783   0.765
 2898TIP3    H2 8701   3.167   0.862   0.767
 2899TIP3   OH2 8702   4.394   5.757   0.521
 2899TIP3    H1 8703   4.392   5.731   0.613
 2899TIP3    H2 8704   4.375   5.677   0.472
 2900TIP3   OH2 8705   5.076   2.871   1.245
 2900TIP3    H1 8706   5.100   2.794   1.296
 2900TIP3    H2 8707   5.123   2.943   1.286
 2901TIP3   OH2 8708   2.295   3.507   4.137
 2901TIP3    H1 8709   2.221   3.545   4.185
 2901TIP3    H2 8710   2.334   3.581   4.090
 2902TIP3   OH2 8711   0.275   0.917   3.191
 2902TIP3    H1 8712   0.355   0.948   3.233
 2902TIP3    H2 8713   0.279   0.822   3.198
 2903TIP3   OH2 8714   3.983   2.124   2.085
 2903TIP3    H1 8715   3.972   2.211   2.046
 2903TIP3    H2 8716   4.065   2.092   2.047
 2904TIP3   OH2 8717   5.004   1.288   4.458
 2904TIP3    H1 8718   5.071   1.356   4.449
 2904TIP3    H2 8719   5.004   1.244   4.373
 2905TIP3   OH2 8720   4.224   0.065   1.810
 2905TIP3    H1 8721   4.249   0.138   1.866
 2905TIP3    H2 8722   4.128   0.071   1.806
 2906TIP3   OH2 8723   0.792   2.948   0.209
 2906TIP3    H1 8724   0.774   2.863   0.248
 2906TIP3    H2 8725   0.727   3.007   0.247
 2907TIP3   OH2 8726   6.046   3.481   1.833
 2907TIP3    H1 8727   6.056   3.504   1.740
 2907TIP3    H2 8728   5.959   3.443   1.839
 2908TIP3   OH2 8729   1.220   0.558   4.768
 2908TIP3    H1 8730   1.162   0.631   4.787
 2908TIP3    H2 8731   1.180   0.513   4.694
 2909TIP3   OH2 8732   6.202   1.335   1.501
 2909TIP3    H1 8733   6.222   1.410   1.445
 2909TIP3    H2 8734   6.109   1.343   1.520
 2910TIP3   OH2 8735   2.239   0.782   1.746
 2910TIP3    H1 8736   2.172   0.826   1.693
 2910TIP3    H2 8737   2.229   0.820   1.833
 2911TIP3   OH2 8738   2.693   2.231   1.001
 2911TIP3    H1 8739   2.685   2.150   1.052
 2911TIP3    H2 8740   2.607   2.273   1.009
 2912TIP3   OH2 8741   4.754   1.917   0.582
 2912TIP3    H1 8742   4.845   1.890   0.586
 2912TIP3    H2 8743   4.755   2.009   0.605
 2913TIP3   OH2 8744   1.349   5.611   4.336
 2913TIP3    H1 8745   1.302   5.633   4.416
 2913TIP3    H2 8746   1.283   5.622   4.266
 2914TIP3   OH2 8747   2.479   4.922   3.386
 2914TIP3    H1 8748   2.425   4.999   3.366
 2914TIP3    H2 8749   2.553   4.928   3.327
 2915TIP3   OH2 8750   0.508   3.418   3.951
 2915TIP3    H1 8751   0.488   3.334   3.910
 2915TIP3    H2 8752   0.480   3.408   4.042
 2916TIP3   OH2 8753   3.527   4.395   0.040
 2916TIP3    H1 8754   3.532   4.451  -0.038
 2916TIP3    H2 8755   3.619   4.384   0.067
 2917TIP3   OH2 8756   1.036   2.345   0.206
 2917TIP3    H1 8757   1.098   2.317   0.140
 2917TIP3    H2 8758   1.060   2.436   0.225
 2918TIP3   OH2 8759   3.404   3.785   1.143
 2918TIP3    H1 8760   3.392   3.864   1.195
 2918TIP3    H2 8761   3.353   3.718   1.188
 2919TIP3   OH2 8762   4.172   5.664   4.930
 2919TIP3    H1 8763   4.228   5.599   4.973
 2919TIP3    H2 8764   4.232   5.719   4.880
 2920TIP3   OH2 8765   5.354   3.552   3.417
 2920TIP3    H1 8766   5.404   3.473   3.439
 2920TIP3    H2 8767   5.278   3.549   3.475
 2921TIP3   OH2 8768   0.217   4.436   1.795
 2921TIP3    H1 8769   0.255   4.445   1.883
 2921TIP3    H2 8770   0.130   4.400   1.810
 2922TIP3   OH2 8771   0.322   3.144   3.586
 2922TIP3    H1 8772   0.344   3.052   3.575
 2922TIP3    H2 8773   0.246   3.143   3.644
 2923TIP3   OH2 8774   5.745   3.095   1.044
 2923TIP3    H1 8775   5.810   3.106   1.113
 2923TIP3    H2 8776   5.703   3.011   1.064
 2924TIP3   OH2 8777   0.211   2.879   1.738
 2924TIP3    H1 8778   0.246   2.957   1.696
 2924TIP3    H2 8779   0.284   2.847   1.792
 2925TIP3   OH2 8780   1.807   2.810   2.158
 2925TIP3    H1 8781   1.885   2.756   2.169
 2925TIP3    H2 8782   1.839   2.890   2.118
 2926TIP3   OH2 8783   2.356   1.475   3.282
 2926TIP3    H1 8784   2.283   1.535   3.290
 2926TIP3    H2 8785   2.400   1.500   3.201
 2927TIP3   OH2 8786   2.680   3.061   3.944
 2927TIP3    H1 8787   2.609   3.102   3.894
 2927TIP3    H2 8788   2.760   3.098   3.906
 2928TIP3   OH2 8789   0.996   5.319   0.360
 2928TIP3    H1 8790   0.988   5.274   0.276
 2928TIP3    H2 8791   1.072   5.279   0.402
 2929TIP3   OH2 8792   3.053   4.372   4.039
 2929TIP3    H1 8793   3.002   4.338   3.965
 2929TIP3    H2 8794   3.131   4.409   3.998
 2930TIP3   OH2 8795   4.564   0.287   2.940
 2930TIP3    H1 8796   4.653   0.283   2.905
 2930TIP3    H2 8797   4.510   0.314   2.866
 2931TIP3   OH2 8798   4.570   5.871   3.694
 2931TIP3    H1 8799   4.478   5.844   3.698
 2931TIP3    H2 8800   4.569   5.951   3.641
 2932TIP3   OH2 8801   1.931   5.335   0.167
 2932TIP3    H1 8802   1.896   5.423   0.153
 2932TIP3    H2 8803   1.960   5.334   0.258
 2933TIP3   OH2 8804   2.185   1.663   3.444
 2933TIP3    H1 8805   2.234   1.672   3.526
 2933TIP3    H2 8806   2.109   1.609   3.467
 2934TIP3   OH2 8807   0.653   2.374   4.546
 2934TIP3    H1 8808   0.615   2.457   4.520
 2934TIP3    H2 8809   0.736   2.369   4.498
 2935TIP3   OH2 8810   2.052   0.208   1.830
 2935TIP3    H1 8811   1.977   0.151   1.813
 2935TIP3    H2 8812   2.014   0.285   1.873
 2936TIP3   OH2 8813   5.240   2.010   1.240
 2936TIP3    H1 8814   5.318   2.012   1.185
 2936TIP3    H2 8815   5.189   1.935   1.208
 2937TIP3   OH2 8816   3.407   5.575   2.766
 2937TIP3    H1 8817   3.358   5.493   2.777
 2937TIP3    H2 8818   3.473   5.554   2.700
 2938TIP3   OH2 8819   1.765   4.559   4.499
 2938TIP3    H1 8820   1.705   4.514   4.559
 2938TIP3    H2 8821   1.823   4.491   4.466
 2939TIP3   OH2 8822   4.050   4.907   3.385
 2939TIP3    H1 8823   4.059   4.826   3.435
 2939TIP3    H2 8824   3.998   4.882   3.308
 2940TIP3   OH2 8825   3.525   1.181   2.849
 2940TIP3    H1 8826   3.561   1.150   2.932
 2940TIP3    H2 8827   3.494   1.102   2.805
 2941TIP3   OH2 8828   4.735   0.454   4.710
 2941TIP3    H1 8829   4.683   0.375   4.695
 2941TIP3    H2 8830   4.716   0.478   4.801
 2942TIP3   OH2 8831   2.487   2.453   3.471
 2942TIP3    H1 8832   2.439   2.505   3.535
 2942TIP3    H2 8833   2.575   2.491   3.470
 2943TIP3   OH2 8834   2.028   3.359   0.673
 2943TIP3    H1 8835   2.076   3.422   0.727
 2943TIP3    H2 8836   1.953   3.407   0.639
 2944TIP3   OH2 8837   3.538   1.673   4.052
 2944TIP3    H1 8838   3.504   1.754   4.015
 2944TIP3    H2 8839   3.631   1.673   4.028
 2945TIP3   OH2 8840   4.291   3.428   3.852
 2945TIP3    H1 8841   4.356   3.475   3.904
 2945TIP3    H2 8842   4.324   3.432   3.763
 2946TIP3   OH2 8843   4.580   5.510   4.230
 2946TIP3    H1 8844   4.507   5.518   4.169
 2946TIP3    H2 8845   4.631   5.590   4.216
 2947TIP3   OH2 8846   4.813   1.001   1.509
 2947TIP3    H1 8847   4.874   0.987   1.437
 2947TIP3    H2 8848   4.793   0.914   1.542
 2948TIP3   OH2 8849   1.829   0.431   4.159
 2948TIP3    H1 8850   1.879   0.478   4.225
 2948TIP3    H2 8851   1.742   0.470   4.162
 2949TIP3   OH2 8852   6.189   0.905   0.338
 2949TIP3    H1 8853   6.117   0.954   0.299
 2949TIP3    H2 8854   6.205   0.948   0.422
 2950TIP3   OH2 8855   5.215   2.165   2.426
 2950TIP3    H1 8856   5.246   2.256   2.428
 2950TIP3    H2 8857   5.275   2.117   2.483
 2951TIP3   OH2 8858   2.367   0.403   3.398
 2951TIP3    H1 8859   2.424   0.480   3.401
 2951TIP3    H2 8860   2.300   0.419   3.465
 2952TIP3   OH2 8861   5.434   0.463   1.882
 2952TIP3    H1 8862   5.392   0.542   1.848
 2952TIP3    H2 8863   5.485   0.428   1.809
 2953TIP3   OH2 8864   1.097   4.504   0.469
 2953TIP3    H1 8865   1.016   4.474   0.510
 2953TIP3    H2 8866   1.083   4.597   0.453
 2954TIP3   OH2 8867   5.212   3.861   2.814
 2954TIP3    H1 8868   5.267   3.936   2.835
 2954TIP3    H2 8869   5.221   3.803   2.889
 2955TIP3   OH2 8870   3.095   1.168   3.069
 2955TIP3    H1 8871   3.135   1.244   3.112
 2955TIP3    H2 8872   3.050   1.204   2.993
 2956TIP3   OH2 8873   0.347   0.955   0.110
 2956TIP3    H1 8874   0.360   0.861   0.098
 2956TIP3    H2 8875   0.416   0.995   0.055
 2957TIP3   OH2 8876   6.126   3.397   2.411
 2957TIP3    H1 8877   6.175   3.467   2.368
 2957TIP3    H2 8878   6.114   3.331   2.342
 2958TIP3   OH2 8879   0.283   2.479   2.391
 2958TIP3    H1 8880   0.335   2.481   2.470
 2958TIP3    H2 8881   0.199   2.441   2.418
 2959TIP3   OH2 8882   0.051   3.460   4.907
 2959TIP3    H1 8883   0.112   3.386   4.902
 2959TIP3    H2 8884  -0.036   3.420   4.897
 2960TIP3   OH2 8885   3.577   3.669   1.882
 2960TIP3    H1 8886   3.575   3.727   1.806
 2960TIP3    H2 8887   3.668   3.640   1.888
 2961TIP3   OH2 8888   5.485   4.526   3.444
 2961TIP3    H1 8889   5.505   4.521   3.537
 2961TIP3    H2 8890   5.526   4.607   3.414
 2962TIP3   OH2 8891   5.231   4.838   2.743
 2962TIP3    H1 8892   5.171   4.878   2.680
 2962TIP3    H2 8893   5.233   4.899   2.817
 2963TIP3   OH2 8894   0.479   5.702   4.368
 2963TIP3    H1 8895   0.565   5.664   4.355
 2963TIP3    H2 8896   0.494   5.778   4.423
 2964TIP3   OH2 8897   4.515   3.379   2.096
 2964TIP3    H1 8898   4.583   3.358   2.161
 2964TIP3    H2 8899   4.507   3.300   2.043
 2965TIP3   OH2 8900   3.877   5.167   3.758
 2965TIP3    H1 8901   3.857   5.074   3.763
 2965TIP3    H2 8902   3.972   5.171   3.766
 2966TIP3   OH2 8903   1.764   5.081   2.274
 2966TIP3    H1 8904   1.670   5.098   2.272
 2966TIP3    H2 8905   1.789   5.075   2.181
 2967TIP3   OH2 8906   2.060   3.463   1.236
 2967TIP3    H1 8907   2.072   3.534   1.172
 2967TIP3    H2 8908   1.965   3.454   1.244
 2968TIP3   OH2 8909   3.196   4.741   1.600
 2968TIP3    H1 8910   3.144   4.758   1.678
 2968TIP3    H2 8911   3.247   4.663   1.622
 2969TIP3   OH2 8912   1.275   5.924   3.734
 2969TIP3    H1 8913   1.187   5.932   3.698
 2969TIP3    H2 8914   1.303   6.014   3.749
 2970TIP3   OH2 8915   5.278   5.055   0.115
 2970TIP3    H1 8916   5.314   4.979   0.160
 2970TIP3    H2 8917   5.252   5.114   0.186
 2971TIP3   OH2 8918   5.476   3.701   0.134
 2971TIP3    H1 8919   5.384   3.689   0.159
 2971TIP3    H2 8920   5.475   3.778   0.076
 2972TIP3   OH2 8921   2.393   5.720   5.015
 2972TIP3    H1 8922   2.386   5.676   5.101
 2972TIP3    H2 8923   2.418   5.810   5.036
 2973TIP3   OH2 8924   0.454   1.324   2.326
 2973TIP3    H1 8925   0.413   1.329   2.239
 2973TIP3    H2 8926   0.422   1.242   2.363
 2974TIP3   OH2 8927   0.021   4.532   2.063
 2974TIP3    H1 8928   0.002   4.527   2.157
 2974TIP3    H2 8929   0.029   4.441   2.035
 2975TIP3   OH2 8930   5.451   0.559   3.089
 2975TIP3    H1 8931   5.384   0.618   3.054
 2975TIP3    H2 8932   5.402   0.488   3.130
 2976TIP3   OH2 8933   0.206   5.926   1.179
 2976TIP3    H1 8934   0.243   5.840   1.200
 2976TIP3    H2 8935   0.209   5.974   1.261
 2977TIP3   OH2 8936   0.820   1.648   1.845
 2977TIP3    H1 8937   0.813   1.591   1.767
 2977TIP3    H2 8938   0.774   1.728   1.820
 2978TIP3   OH2 8939   4.027   5.166   1.586
 2978TIP3    H1 8940   4.057   5.120   1.508
 2978TIP3    H2 8941   3.943   5.203   1.561
 2979TIP3   OH2 8942   3.971   3.133   3.243
 2979TIP3    H1 8943   3.985   3.202   3.179
 2979TIP3    H2 8944   4.022   3.059   3.211
 2980TIP3   OH2 8945   2.154   1.079   5.023
 2980TIP3    H1 8946   2.199   1.002   4.986
 2980TIP3    H2 8947   2.061   1.059   5.013
 2981TIP3   OH2 8948   2.825   3.256   4.351
 2981TIP3    H1 8949   2.732   3.247   4.373
 2981TIP3    H2 8950   2.853   3.167   4.329
 2982TIP3   OH2 8951   1.114   0.565   1.602
 2982TIP3    H1 8952   1.027   0.529   1.618
 2982TIP3    H2 8953   1.132   0.620   1.679
 2983TIP3   OH2 8954   5.240   1.063   0.059
 2983TIP3    H1 8955   5.238   1.085   0.152
 2983TIP3    H2 8956   5.158   1.017   0.043
 2984TIP3   OH2 8957   3.894   2.444   1.303
 2984TIP3    H1 8958   3.839   2.518   1.329
 2984TIP3    H2 8959   3.933   2.413   1.385
 2985TIP3   OH2 8960   4.935   0.684   3.291
 2985TIP3    H1 8961   4.849   0.716   3.319
 2985TIP3    H2 8962   4.919   0.642   3.206
 2986TIP3   OH2 8963   1.504   1.885   0.819
 2986TIP3    H1 8964   1.549   1.814   0.864
 2986TIP3    H2 8965   1.566   1.915   0.753
 2987TIP3   OH2 8966   1.338   1.658   1.595
 2987TIP3    H1 8967   1.357   1.621   1.681
 2987TIP3    H2 8968   1.244   1.645   1.583
 2988TIP3   OH2 8969   6.243   4.498   2.976
 2988TIP3    H1 8970   6.171   4.561   2.970
 2988TIP3    H2 8971   6.200   4.413   2.973
 2989TIP3   OH2 8972   0.826   5.877   2.716
 2989TIP3    H1 8973   0.876   5.862   2.796
 2989TIP3    H2 8974   0.848   5.968   2.692
 2990TIP3   OH2 8975   2.809   2.829   4.119
 2990TIP3    H1 8976   2.716   2.806   4.130
 2990TIP3    H2 8977   2.808   2.899   4.054
 2991TIP3   OH2 8978   4.525   0.518   0.713
 2991TIP3    H1 8979   4.549   0.596   0.762
 2991TIP3    H2 8980   4.449   0.483   0.758
 2992TIP3   OH2 8981   2.007   2.245   0.324
 2992TIP3    H1 8982   1.946   2.305   0.367
 2992TIP3    H2 8983   1.961   2.161   0.323
 2993TIP3   OH2 8984   0.367   4.583   3.429
 2993TIP3    H1 8985   0.389   4.662   3.380
 2993TIP3    H2 8986   0.370   4.513   3.364
 2994TIP3   OH2 8987   1.436   2.676   4.008
 2994TIP3    H1 8988   1.372   2.637   4.067
 2994TIP3    H2 8989   1.509   2.615   4.008
 2995TIP3   OH2 8990   1.192   0.087   3.258
 2995TIP3    H1 8991   1.232   0.174   3.256
 2995TIP3    H2 8992   1.181   0.063   3.166
 2996TIP3   OH2 8993   3.281   3.185   4.878
 2996TIP3    H1 8994   3.338   3.109   4.884
 2996TIP3    H2 8995   3.315   3.235   4.804
 2997TIP3   OH2 8996   2.461   1.108   2.527
 2997TIP3    H1 8997   2.545   1.145   2.554
 2997TIP3    H2 8998   2.472   1.088   2.434
 2998TIP3   OH2 8999   0.505   4.191   0.689
 2998TIP3    H1 9000   0.482   4.186   0.782
 2998TIP3    H2 9001   0.445   4.129   0.646
 2999TIP3   OH2 9002   2.717   2.523   4.777
 2999TIP3    H1 9003   2.811   2.541   4.771
 2999TIP3    H2 9004   2.690   2.565   4.859
 3000TIP3   OH2 9005   3.118   2.349   0.626
 3000TIP3    H1 9006   3.134   2.267   0.578
 3000TIP3    H2 9007   3.179   2.344   0.700
 3001TIP3   OH2 9008   5.084   1.087   3.581
 3001TIP3    H1 9009   5.046   1.138   3.653
 3001TIP3    H2 9010   5.161   1.137   3.555
 3002TIP3   OH2 9011   1.081   2.022   1.952
 3002TIP3    H1 9012   1.133   1.956   1.906
 3002TIP3    H2 9013   1.044   1.976   2.027
 3003TIP3   OH2 9014   5.692   1.206   0.886
 3003TIP3    H1 9015   5.767   1.176   0.936
 3003TIP3    H2 9016   5.729   1.263   0.818
 3004TIP3   OH2 9017   4.871   2.285   1.185
 3004TIP3    H1 9018   4.782   2.299   1.152
 3004TIP3    H2 9019   4.927   2.334   1.125
 3005TIP3   OH2 9020   1.044   2.867   0.131
 3005TIP3    H1 9021   1.096   2.946   0.116
 3005TIP3    H2 9022   0.961   2.900   0.167
 3006TIP3   OH2 9023   5.620   5.201   4.353
 3006TIP3    H1 9024   5.526   5.208   4.334
 3006TIP3    H2 9025   5.662   5.260   4.290
 3007TIP3   OH2 9026   3.763   1.334   0.061
 3007TIP3    H1 9027   3.680   1.381   0.050
 3007TIP3    H2 9028   3.794   1.319  -0.028
 3008TIP3   OH2 9029   1.795   4.351   3.762
 3008TIP3    H1 9030   1.838   4.425   3.807
 3008TIP3    H2 9031   1.762   4.297   3.834
 3009TIP3   OH2 9032   2.724   4.228   0.215
 3009TIP3    H1 9033   2.716   4.170   0.291
 3009TIP3    H2 9034   2.645   4.210   0.164
 3010TIP3   OH2 9035   4.519   3.809   3.606
 3010TIP3    H1 9036   4.496   3.761   3.527
 3010TIP3    H2 9037   4.612   3.828   3.597
 3011TIP3   OH2 9038   6.220   2.699   0.632
 3011TIP3    H1 9039   6.277   2.773   0.653
 3011TIP3    H2 9040   6.167   2.687   0.711
 3012TIP3   OH2 9041   4.447   2.646   3.700
 3012TIP3    H1 9042   4.486   2.660   3.613
 3012TIP3    H2 9043   4.512   2.595   3.748
 3013TIP3   OH2 9044   3.681   0.570   2.916
 3013TIP3    H1 9045   3.625   0.631   2.964
 3013TIP3    H2 9046   3.684   0.606   2.827
 3014TIP3   OH2 9047   2.031   3.116   2.732
 3014TIP3    H1 9048   2.020   3.095   2.639
 3014TIP3    H2 9049   2.012   3.210   2.738
 3015TIP3   OH2 9050   1.346   0.906   1.598
 3015TIP3    H1 9051   1.323   0.940   1.685
 3015TIP3    H2 9052   1.432   0.867   1.610
 3016TIP3   OH2 9053   6.020   5.721   0.644
 3016TIP3    H1 9054   6.044   5.778   0.717
 3016TIP3    H2 9055   5.989   5.640   0.686
 3017TIP3   OH2 9056   5.192   3.901   0.354
 3017TIP3    H1 9057   5.196   3.843   0.278
 3017TIP3    H2 9058   5.169   3.986   0.318
 3018TIP3   OH2 9059   1.950   3.849   0.081
 3018TIP3    H1 9060   1.899   3.820   0.005
 3018TIP3    H2 9061   1.889   3.903   0.131
 3019TIP3   OH2 9062   1.480   0.162   2.489
 3019TIP3    H1 9063   1.550   0.144   2.426
 3019TIP3    H2 9064   1.518   0.141   2.574
 3020TIP3   OH2 9065   4.292   4.242   4.758
 3020TIP3    H1 9066   4.298   4.250   4.663
 3020TIP3    H2 9067   4.231   4.169   4.772
 3021TIP3   OH2 9068   2.028   1.040   1.838
 3021TIP3    H1 9069   2.064   1.012   1.753
 3021TIP3    H2 9070   1.938   1.009   1.837
 3022TIP3   OH2 9071   2.603   5.113   0.283
 3022TIP3    H1 9072   2.605   5.114   0.188
 3022TIP3    H2 9073   2.631   5.201   0.309
 3023TIP3   OH2 9074   5.978   0.164   0.650
 3023TIP3    H1 9075   5.984   0.150   0.556
 3023TIP3    H2 9076   5.900   0.218   0.661
 3024TIP3   OH2 9077   3.447   1.216   4.681
 3024TIP3    H1 9078   3.482   1.290   4.632
 3024TIP3    H2 9079   3.378   1.254   4.735
 3025TIP3   OH2 9080   0.948   0.769   0.493
 3025TIP3    H1 9081   0.983   0.734   0.411
 3025TIP3    H2 9082   0.993   0.719   0.561
 3026TIP3   OH2 9083   3.287   1.546   4.533
 3026TIP3    H1 9084   3.268   1.527   4.625
 3026TIP3    H2 9085   3.382   1.539   4.526
 3027TIP3   OH2 9086   2.700   0.833   0.481
 3027TIP3    H1 9087   2.634   0.898   0.503
 3027TIP3    H2 9088   2.672   0.798   0.396
 3028TIP3   OH2 9089   4.684   1.762   3.782
 3028TIP3    H1 9090   4.730   1.685   3.750
 3028TIP3    H2 9091   4.595   1.732   3.800
 3029TIP3   OH2 9092   6.105   2.244   2.786
 3029TIP3    H1 9093   6.034   2.186   2.758
 3029TIP3    H2 9094   6.183   2.208   2.742
 3030TIP3   OH2 9095   1.205   3.295   1.724
 3030TIP3    H1 9096   1.202   3.304   1.629
 3030TIP3    H2 9097   1.171   3.378   1.757
 3031TIP3   OH2 9098   3.323   5.062   3.958
 3031TIP3    H1 9099   3.331   4.972   3.989
 3031TIP3    H2 9100   3.295   5.112   4.035
 3032TIP3   OH2 9101   1.228   4.219   0.343
 3032TIP3    H1 9102   1.263   4.131   0.353
 3032TIP3    H2 9103   1.207   4.246   0.433
 3033TIP3   OH2 9104   6.173   5.797   2.652
 3033TIP3    H1 9105   6.241   5.863   2.647
 3033TIP3    H2 9106   6.119   5.811   2.574
 3034TIP3   OH2 9107   5.572   5.160   3.458
 3034TIP3    H1 9108   5.507   5.109   3.505
 3034TIP3    H2 9109   5.572   5.245   3.502
 3035TIP3   OH2 9110   3.606   4.557   3.667
 3035TIP3    H1 9111   3.565   4.644   3.661
 3035TIP3    H2 9112   3.565   4.506   3.597
 3036TIP3   OH2 9113   1.263   5.525   1.002
 3036TIP3    H1 9114   1.174   5.555   0.983
 3036TIP3    H2 9115   1.273   5.445   0.951
 3037TIP3   OH2 9116   2.851   5.321   3.898
 3037TIP3    H1 9117   2.819   5.287   3.981
 3037TIP3    H2 9118   2.808   5.406   3.888
 3038TIP3   OH2 9119   2.224   3.835   1.800
 3038TIP3    H1 9120   2.235   3.776   1.875
 3038TIP3    H2 9121   2.265   3.789   1.727
 3039TIP3   OH2 9122   5.318   2.819   3.399
 3039TIP3    H1 9123   5.235   2.785   3.367
 3039TIP3    H2 9124   5.368   2.742   3.425
 3040TIP3   OH2 9125   0.541   0.961   4.087
 3040TIP3    H1 9126   0.511   0.881   4.044
 3040TIP3    H2 9127   0.636   0.957   4.081
 3041TIP3   OH2 9128   0.158   0.452   1.732
 3041TIP3    H1 9129   0.242   0.412   1.758
 3041TIP3    H2 9130   0.147   0.525   1.793
 3042TIP3   OH2 9131   1.142   3.882   1.874
 3042TIP3    H1 9132   1.080   3.818   1.909
 3042TIP3    H2 9133   1.092   3.963   1.866
 3043TIP3   OH2 9134   0.453   0.142   3.252
 3043TIP3    H1 9135   0.496   0.188   3.324
 3043TIP3    H2 9136   0.380   0.198   3.227
 3044TIP3   OH2 9137   2.458   3.024   1.234
 3044TIP3    H1 9138   2.415   3.106   1.207
 3044TIP3    H2 9139   2.397   2.955   1.208
 3045TIP3   OH2 9140   2.338   3.317   3.601
 3045TIP3    H1 9141   2.347   3.412   3.601
 3045TIP3    H2 9142   2.329   3.294   3.508
 3046TIP3   OH2 9143   4.562   1.128   0.628
 3046TIP3    H1 9144   4.538   1.184   0.554
 3046TIP3    H2 9145   4.528   1.041   0.604
 3047TIP3   OH2 9146   3.345   2.554   3.752
 3047TIP3    H1 9147   3.409   2.580   3.818
 3047TIP3    H2 9148   3.286   2.495   3.799
 3048TIP3   OH2 9149   0.141   5.973   1.722
 3048TIP3    H1 9150   0.085   5.987   1.799
 3048TIP3    H2 9151   0.137   5.878   1.706
 3049TIP3   OH2 9152   4.275   5.641   2.348
 3049TIP3    H1 9153   4.191   5.658   2.390
 3049TIP3    H2 9154   4.334   5.707   2.385
 3050TIP3   OH2 9155   5.926   0.327   3.386
 3050TIP3    H1 9156   5.864   0.254   3.392
 3050TIP3    H2 9157   6.003   0.289   3.344
 3051TIP3   OH2 9158   3.309   2.303   3.031
 3051TIP3    H1 9159   3.215   2.313   3.045
 3051TIP3    H2 9160   3.344   2.279   3.117
 3052TIP3   OH2 9161   0.673   5.727   1.466
 3052TIP3    H1 9162   0.629   5.642   1.460
 3052TIP3    H2 9163   0.765   5.707   1.450
 3053TIP3   OH2 9164   3.642   1.036   1.616
 3053TIP3    H1 9165   3.589   1.051   1.537
 3053TIP3    H2 9166   3.712   1.102   1.609
 3054TIP3   OH2 9167   3.720   0.904   3.405
 3054TIP3    H1 9168   3.726   0.931   3.496
 3054TIP3    H2 9169   3.719   0.808   3.408
 3055TIP3   OH2 9170   5.483   1.035   0.850
 3055TIP3    H1 9171   5.548   1.104   0.862
 3055TIP3    H2 9172   5.459   1.008   0.939
 3056TIP3   OH2 9173   2.264   2.439   3.121
 3056TIP3    H1 9174   2.195   2.385   3.082
 3056TIP3    H2 9175   2.226   2.526   3.130
 3057TIP3   OH2 9176   0.419   2.411   3.365
 3057TIP3    H1 9177   0.456   2.355   3.434
 3057TIP3    H2 9178   0.412   2.497   3.406
 3058TIP3   OH2 9179   5.930   2.448   0.252
 3058TIP3    H1 9180   6.024   2.459   0.269
 3058TIP3    H2 9181   5.926   2.378   0.187
 3059TIP3   OH2 9182   4.091   4.652   1.863
 3059TIP3    H1 9183   4.091   4.742   1.898
 3059TIP3    H2 9184   4.005   4.617   1.886
 3060TIP3   OH2 9185   2.465   1.109   1.109
 3060TIP3    H1 9186   2.372   1.130   1.101
 3060TIP3    H2 9187   2.469   1.047   1.183
 3061TIP3   OH2 9188   1.088   1.133   1.849
 3061TIP3    H1 9189   1.099   1.190   1.773
 3061TIP3    H2 9190   0.994   1.137   1.869
 3062TIP3   OH2 9191   5.507   1.698   1.531
 3062TIP3    H1 9192   5.590   1.744   1.517
 3062TIP3    H2 9193   5.518   1.654   1.615
 3063TIP3   OH2 9194   1.384   0.433   2.478
 3063TIP3    H1 9195   1.422   0.346   2.464
 3063TIP3    H2 9196   1.458   0.488   2.503
 3064TIP3   OH2 9197   5.582   1.016   4.781
 3064TIP3    H1 9198   5.524   1.063   4.722
 3064TIP3    H2 9199   5.587   1.070   4.859
 3065TIP3   OH2 9200   6.235   2.104   4.078
 3065TIP3    H1 9201   6.253   2.069   4.165
 3065TIP3    H2 9202   6.157   2.058   4.049
 3066TIP3   OH2 9203   0.991   5.951   0.489
 3066TIP3    H1 9204   1.010   5.949   0.583
 3066TIP3    H2 9205   0.944   5.870   0.473
 3067TIP3   OH2 9206   4.363   2.575   1.721
 3067TIP3    H1 9207   4.305   2.591   1.646
 3067TIP3    H2 9208   4.308   2.592   1.797
 3068TIP3   OH2 9209   2.724   2.055   3.473
 3068TIP3    H1 9210   2.681   2.010   3.545
 3068TIP3    H2 9211   2.817   2.034   3.483
 3069TIP3   OH2 9212   4.504   4.148   0.473
 3069TIP3    H1 9213   4.452   4.225   0.451
 3069TIP3    H2 9214   4.555   4.175   0.550
 3070TIP3   OH2 9215   4.255   4.201   0.960
 3070TIP3    H1 9216   4.306   4.259   1.016
 3070TIP3    H2 9217   4.273   4.113   0.993
 3071TIP3   OH2 9218   4.958   5.011   3.068
 3071TIP3    H1 9219   4.943   5.105   3.078
 3071TIP3    H2 9220   4.959   4.978   3.158
 3072TIP3   OH2 9221   5.035   0.358   0.209
 3072TIP3    H1 9222   5.010   0.303   0.134
 3072TIP3    H2 9223   5.034   0.298   0.283
 3073TIP3   OH2 9224   2.582   5.864   0.313
 3073TIP3    H1 9225   2.605   5.868   0.405
 3073TIP3    H2 9226   2.506   5.922   0.304
 3074TIP3   OH2 9227   4.975   5.630   2.717
 3074TIP3    H1 9228   4.922   5.709   2.719
 3074TIP3    H2 9229   4.972   5.601   2.625
 3075TIP3   OH2 9230   4.419   5.354   4.423
 3075TIP3    H1 9231   4.431   5.317   4.335
 3075TIP3    H2 9232   4.475   5.431   4.424
 3076TIP3   OH2 9233   5.477   1.158   0.354
 3076TIP3    H1 9234   5.531   1.097   0.404
 3076TIP3    H2 9235   5.445   1.221   0.419
 3077TIP3   OH2 9236   4.051   3.259   3.495
 3077TIP3    H1 9237   4.040   3.193   3.564
 3077TIP3    H2 9238   4.011   3.220   3.417
 3078TIP3   OH2 9239   4.060   0.077   0.141
 3078TIP3    H1 9240   4.116   0.154   0.143
 3078TIP3    H2 9241   3.971   0.111   0.133
 3079TIP3   OH2 9242   3.450   2.114   1.496
 3079TIP3    H1 9243   3.512   2.183   1.473
 3079TIP3    H2 9244   3.385   2.115   1.427
 3080TIP3   OH2 9245   2.799   5.280   4.178
 3080TIP3    H1 9246   2.754   5.362   4.199
 3080TIP3    H2 9247   2.855   5.263   4.254
 3081TIP3   OH2 9248   4.032   0.988   3.649
 3081TIP3    H1 9249   4.069   1.010   3.564
 3081TIP3    H2 9250   3.938   0.977   3.633
 3082TIP3   OH2 9251   5.445   3.069   4.716
 3082TIP3    H1 9252   5.371   3.066   4.777
 3082TIP3    H2 9253   5.473   3.160   4.716
 3083TIP3   OH2 9254   1.685   2.956   3.530
 3083TIP3    H1 9255   1.639   3.038   3.513
 3083TIP3    H2 9256   1.637   2.890   3.480
 3084TIP3   OH2 9257   2.436   5.239   1.437
 3084TIP3    H1 9258   2.452   5.283   1.521
 3084TIP3    H2 9259   2.349   5.268   1.411
 3085TIP3   OH2 9260   5.597   4.924   1.262
 3085TIP3    H1 9261   5.666   4.887   1.317
 3085TIP3    H2 9262   5.550   4.848   1.227
 3086TIP3   OH2 9263   0.743   5.463   2.356
 3086TIP3    H1 9264   0.729   5.417   2.439
 3086TIP3    H2 9265   0.831   5.437   2.329
 3087TIP3   OH2 9266   4.141   0.197   3.016
 3087TIP3    H1 9267   4.073   0.251   3.057
 3087TIP3    H2 9268   4.131   0.213   2.922
 3088TIP3   OH2 9269   0.531   0.102   2.655
 3088TIP3    H1 9270   0.569   0.020   2.622
 3088TIP3    H2 9271   0.531   0.161   2.579
 3089TIP3   OH2 9272   3.934   1.523   1.758
 3089TIP3    H1 9273   4.015   1.476   1.741
 3089TIP3    H2 9274   3.878   1.461   1.804
 3090TIP3   OH2 9275   5.782   1.607   4.414
 3090TIP3    H1 9276   5.835   1.541   4.460
 3090TIP3    H2 9277   5.731   1.556   4.351
 3091TIP3   OH2 9278   4.468   2.574   4.028
 3091TIP3    H1 9279   4.520   2.551   3.951
 3091TIP3    H2 9280   4.532   2.593   4.096
 3092TIP3   OH2 9281   0.297   5.860   3.935
 3092TIP3    H1 9282   0.316   5.770   3.911
 3092TIP3    H2 9283   0.340   5.913   3.868
 3093TIP3   OH2 9284   3.488   5.211   1.517
 3093TIP3    H1 9285   3.424   5.197   1.447
 3093TIP3    H2 9286   3.483   5.304   1.536
 3094TIP3   OH2 9287   2.075   5.447   4.937
 3094TIP3    H1 9288   2.059   5.431   4.844
 3094TIP3    H2 9289   1.991   5.476   4.971
 3095TIP3   OH2 9290   0.619   3.620   0.080
 3095TIP3    H1 9291   0.675   3.547   0.108
 3095TIP3    H2 9292   0.601   3.668   0.160
 3096TIP3   OH2 9293   6.209   5.130   2.399
 3096TIP3    H1 9294   6.181   5.041   2.379
 3096TIP3    H2 9295   6.224   5.131   2.493
 3097TIP3   OH2 9296   6.261   1.585   3.756
 3097TIP3    H1 9297   6.177   1.613   3.791
 3097TIP3    H2 9298   6.325   1.618   3.819
 3098TIP3   OH2 9299   4.454   4.072   2.626
 3098TIP3    H1 9300   4.382   4.022   2.589
 3098TIP3    H2 9301   4.418   4.160   2.638
 3099TIP3   OH2 9302   1.941   5.954   3.836
 3099TIP3    H1 9303   1.906   5.965   3.748
 3099TIP3    H2 9304   1.952   5.859   3.846
 3100TIP3   OH2 9305   4.112   1.906   1.263
 3100TIP3    H1 9306   4.178   1.876   1.326
 3100TIP3    H2 9307   4.160   1.962   1.202
 3101TIP3   OH2 9308   4.739   5.666   2.307
 3101TIP3    H1 9309   4.768   5.690   2.219
 3101TIP3    H2 9310   4.654   5.710   2.317
 3102TIP3   OH2 9311   2.033   0.479   1.549
 3102TIP3    H1 9312   2.042   0.535   1.626
 3102TIP3    H2 9313   2.097   0.409   1.562
 3103TIP3   OH2 9314   1.461   2.855   1.737
 3103TIP3    H1 9315   1.390   2.817   1.686
 3103TIP3    H2 9316   1.533   2.793   1.728
 3104TIP3   OH2 9317   0.230   2.447   4.396
 3104TIP3    H1 9318   0.136   2.447   4.378
 3104TIP3    H2 9319   0.236   2.441   4.491
 3105TIP3   OH2 9320   0.940   1.064   4.359
 3105TIP3    H1 9321   0.916   1.030   4.445
 3105TIP3    H2 9322   1.001   0.999   4.324
 3106TIP3   OH2 9323   5.678   3.598   4.444
 3106TIP3    H1 9324   5.607   3.654   4.475
 3106TIP3    H2 9325   5.646   3.562   4.361
 3107TIP3   OH2 9326   0.041   5.920   3.001
 3107TIP3    H1 9327  -0.027   5.946   3.063
 3107TIP3    H2 9328  -0.001   5.858   2.943
 3108TIP3   OH2 9329   1.262   4.155   1.479
 3108TIP3    H1 9330   1.335   4.160   1.417
 3108TIP3    H2 9331   1.224   4.068   1.465
 3109TIP3   OH2 9332   3.259   0.929   2.136
 3109TIP3    H1 9333   3.174   0.940   2.092
 3109TIP3    H2 9334   3.236   0.897   2.223
 3110TIP3   OH2 9335   0.419   4.759   1.909
 3110TIP3    H1 9336   0.325   4.772   1.892
 3110TIP3    H2 9337   0.463   4.808   1.840
 3111TIP3   OH2 9338   3.274   4.910   3.484
 3111TIP3    H1 9339   3.269   4.999   3.517
 3111TIP3    H2 9340   3.202   4.864   3.528
 3112TIP3   OH2 9341   2.558   2.425   1.219
 3112TIP3    H1 9342   2.554   2.375   1.300
 3112TIP3    H2 9343   2.504   2.376   1.157
 3113TIP3   OH2 9344   0.661   1.413   1.931
 3113TIP3    H1 9345   0.597   1.476   1.898
 3113TIP3    H2 9346   0.744   1.462   1.932
 3114TIP3   OH2 9347   6.312   5.309   5.010
 3114TIP3    H1 9348   6.272   5.327   4.925
 3114TIP3    H2 9349   6.346   5.394   5.039
 3115TIP3   OH2 9350   0.929   2.669   3.602
 3115TIP3    H1 9351   0.903   2.709   3.519
 3115TIP3    H2 9352   0.995   2.604   3.577
 3116TIP3   OH2 9353   5.383   0.372   0.750
 3116TIP3    H1 9354   5.373   0.279   0.730
 3116TIP3    H2 9355   5.295   0.408   0.737
 3117TIP3   OH2 9356   5.679   1.076   0.543
 3117TIP3    H1 9357   5.759   1.030   0.518
 3117TIP3    H2 9358   5.710   1.157   0.583
 3118TIP3   OH2 9359   3.740   5.088   0.488
 3118TIP3    H1 9360   3.658   5.070   0.533
 3118TIP3    H2 9361   3.761   5.005   0.443
 3119TIP3   OH2 9362   0.462   0.408   5.179
 3119TIP3    H1 9363   0.396   0.425   5.112
 3119TIP3    H2 9364   0.465   0.313   5.186
 3120TIP3   OH2 9365   4.651   2.169   0.687
 3120TIP3    H1 9366   4.556   2.174   0.702
 3120TIP3    H2 9367   4.669   2.241   0.627
 3121TIP3   OH2 9368   3.632   5.040   1.276
 3121TIP3    H1 9369   3.630   5.103   1.347
 3121TIP3    H2 9370   3.718   4.998   1.283
 3122TIP3   OH2 9371   4.249   3.160   2.680
 3122TIP3    H1 9372   4.189   3.234   2.671
 3122TIP3    H2 9373   4.261   3.128   2.591
 3123TIP3   OH2 9374   0.948   2.539   1.561
 3123TIP3    H1 9375   0.863   2.556   1.600
 3123TIP3    H2 9376   0.992   2.624   1.561
 3124TIP3   OH2 9377   6.011   1.762   2.702
 3124TIP3    H1 9378   6.092   1.783   2.656
 3124TIP3    H2 9379   6.002   1.667   2.694
 3125TIP3   OH2 9380   5.763   3.800   2.444
 3125TIP3    H1 9381   5.701   3.738   2.483
 3125TIP3    H2 9382   5.849   3.762   2.463
 3126TIP3   OH2 9383   5.911   1.460   2.365
 3126TIP3    H1 9384   5.882   1.369   2.372
 3126TIP3    H2 9385   5.997   1.455   2.324
 3127TIP3   OH2 9386   4.582   3.291   0.974
 3127TIP3    H1 9387   4.525   3.311   1.048
 3127TIP3    H2 9388   4.665   3.333   0.996
 3128TIP3   OH2 9389   0.732   5.106   1.658
 3128TIP3    H1 9390   0.821   5.094   1.691
 3128TIP3    H2 9391   0.685   5.026   1.685
 3129TIP3   OH2 9392   2.191   1.164   1.034
 3129TIP3    H1 9393   2.167   1.231   0.970
 3129TIP3    H2 9394   2.108   1.121   1.057
 3130TIP3   OH2 9395   5.357   4.277   2.147
 3130TIP3    H1 9396   5.452   4.264   2.151
 3130TIP3    H2 9397   5.332   4.297   2.238
 3131TIP3   OH2 9398   1.644   0.472   4.867
 3131TIP3    H1 9399   1.659   0.476   4.773
 3131TIP3    H2 9400   1.592   0.550   4.886
 3132TIP3   OH2 9401   4.172   5.506   3.127
 3132TIP3    H1 9402   4.186   5.600   3.139
 3132TIP3    H2 9403   4.083   5.490   3.160
 3133TIP3   OH2 9404   1.082   3.215   3.954
 3133TIP3    H1 9405   1.144   3.188   4.021
 3133TIP3    H2 9406   1.137   3.250   3.883
 3134TIP3   OH2 9407   4.567   1.579   2.880
 3134TIP3    H1 9408   4.585   1.487   2.898
 3134TIP3    H2 9409   4.505   1.605   2.948
 3135TIP3   OH2 9410   6.246   2.287   1.428
 3135TIP3    H1 9411   6.252   2.315   1.337
 3135TIP3    H2 9412   6.334   2.256   1.450
 3136TIP3   OH2 9413   3.265   4.368   0.794
 3136TIP3    H1 9414   3.247   4.355   0.701
 3136TIP3    H2 9415   3.211   4.443   0.819
 3137TIP3   OH2 9416   2.288   3.008   3.611
 3137TIP3    H1 9417   2.372   3.021   3.654
 3137TIP3    H2 9418   2.295   3.058   3.529
 3138TIP3   OH2 9419   2.631   1.440   4.719
 3138TIP3    H1 9420   2.680   1.385   4.779
 3138TIP3    H2 9421   2.542   1.405   4.721
 3139TIP3   OH2 9422   4.582   5.415   0.664
 3139TIP3    H1 9423   4.498   5.420   0.618
 3139TIP3    H2 9424   4.644   5.390   0.596
 3140TIP3   OH2 9425   4.979   5.411   0.252
 3140TIP3    H1 9426   4.986   5.503   0.226
 3140TIP3    H2 9427   4.933   5.413   0.336
 3141TIP3   OH2 9428   1.007   2.534   2.589
 3141TIP3    H1 9429   1.044   2.493   2.511
 3141TIP3    H2 9430   1.033   2.626   2.583
 3142TIP3   OH2 9431   1.610   0.652   3.801
 3142TIP3    H1 9432   1.582   0.561   3.786
 3142TIP3    H2 9433   1.573   0.701   3.727
 3143TIP3   OH2 9434   5.547   1.648   3.061
 3143TIP3    H1 9435   5.540   1.730   3.109
 3143TIP3    H2 9436   5.629   1.656   3.012
 3144TIP3   OH2 9437   6.065   3.543   3.826
 3144TIP3    H1 9438   6.038   3.458   3.861
 3144TIP3    H2 9439   6.122   3.579   3.894
 3145TIP3   OH2 9440   1.338   4.551   3.333
 3145TIP3    H1 9441   1.308   4.586   3.417
 3145TIP3    H2 9442   1.272   4.485   3.310
 3146TIP3   OH2 9443   5.991   5.084   0.514
 3146TIP3    H1 9444   6.067   5.108   0.460
 3146TIP3    H2 9445   5.926   5.151   0.495
 3147TIP3   OH2 9446   1.890   5.314   4.006
 3147TIP3    H1 9447   1.871   5.225   4.035
 3147TIP3    H2 9448   1.842   5.370   4.066
 3148TIP3   OH2 9449   2.631   1.711   1.069
 3148TIP3    H1 9450   2.686   1.729   0.992
 3148TIP3    H2 9451   2.627   1.795   1.115
 3149TIP3   OH2 9452   6.002   2.313   0.946
 3149TIP3    H1 9453   5.997   2.222   0.977
 3149TIP3    H2 9454   6.012   2.365   1.026
 3150TIP3   OH2 9455   1.535   4.967   1.047
 3150TIP3    H1 9456   1.544   4.956   1.141
 3150TIP3    H2 9457   1.486   4.890   1.018
 3151TIP3   OH2 9458   3.336   1.028   4.060
 3151TIP3    H1 9459   3.390   1.107   4.061
 3151TIP3    H2 9460   3.248   1.059   4.039
 3152TIP3   OH2 9461   5.375   4.290   1.307
 3152TIP3    H1 9462   5.463   4.274   1.274
 3152TIP3    H2 9463   5.387   4.347   1.383
 3153TIP3   OH2 9464   5.504   3.776   3.339
 3153TIP3    H1 9465   5.540   3.827   3.412
 3153TIP3    H2 9466   5.449   3.710   3.380
 3154TIP3   OH2 9467   0.408   2.726   4.030
 3154TIP3    H1 9468   0.410   2.780   4.109
 3154TIP3    H2 9469   0.500   2.714   4.007
 3155TIP3   OH2 9470   4.478   2.637   2.077
 3155TIP3    H1 9471   4.564   2.672   2.052
 3155TIP3    H2 9472   4.485   2.543   2.060
 3156TIP3   OH2 9473   5.782   1.606   0.934
 3156TIP3    H1 9474   5.822   1.519   0.932
 3156TIP3    H2 9475   5.701   1.597   0.884
 3157TIP3   OH2 9476   3.177   1.028   4.681
 3157TIP3    H1 9477   3.134   0.988   4.757
 3157TIP3    H2 9478   3.232   1.097   4.719
 3158TIP3   OH2 9479   5.951   5.692   1.602
 3158TIP3    H1 9480   5.888   5.621   1.595
 3158TIP3    H2 9481   5.907   5.767   1.563
 3159TIP3   OH2 9482   0.609   2.768   3.468
 3159TIP3    H1 9483   0.645   2.746   3.553
 3159TIP3    H2 9484   0.517   2.741   3.473
 3160TIP3   OH2 9485   2.122   1.334   5.177
 3160TIP3    H1 9486   2.060   1.280   5.225
 3160TIP3    H2 9487   2.167   1.272   5.119
 3161TIP3   OH2 9488   5.041   5.071   4.495
 3161TIP3    H1 9489   5.009   5.059   4.405
 3161TIP3    H2 9490   5.122   5.021   4.498
 3162TIP3   OH2 9491   5.484   0.952   3.147
 3162TIP3    H1 9492   5.471   1.041   3.113
 3162TIP3    H2 9493   5.395   0.918   3.160
 3163TIP3   OH2 9494   5.236   1.048   2.438
 3163TIP3    H1 9495   5.320   1.005   2.427
 3163TIP3    H2 9496   5.255   1.126   2.490
 3164TIP3   OH2 9497   5.140   1.838   3.100
 3164TIP3    H1 9498   5.136   1.934   3.097
 3164TIP3    H2 9499   5.054   1.809   3.070
 3165TIP3   OH2 9500   1.226   0.865   2.504
 3165TIP3    H1 9501   1.206   0.782   2.547
 3165TIP3    H2 9502   1.185   0.859   2.418
 3166TIP3   OH2 9503   0.340   3.272   0.858
 3166TIP3    H1 9504   0.413   3.298   0.913
 3166TIP3    H2 9505   0.302   3.355   0.829
 3167TIP3   OH2 9506   4.324   2.639   2.320
 3167TIP3    H1 9507   4.375   2.651   2.240
 3167TIP3    H2 9508   4.337   2.720   2.370
 3168TIP3   OH2 9509   1.503   3.606   4.630
 3168TIP3    H1 9510   1.549   3.641   4.554
 3168TIP3    H2 9511   1.438   3.672   4.653
 3169TIP3   OH2 9512   0.081   5.583   2.638
 3169TIP3    H1 9513   0.018   5.654   2.642
 3169TIP3    H2 9514   0.063   5.539   2.555
 3170TIP3   OH2 9515   4.678   4.651   3.396
 3170TIP3    H1 9516   4.610   4.668   3.461
 3170TIP3    H2 9517   4.719   4.569   3.425
 3171TIP3   OH2 9518   1.908   4.976   3.168
 3171TIP3    H1 9519   1.893   4.926   3.088
 3171TIP3    H2 9520   1.975   4.926   3.215
 3172TIP3   OH2 9521   4.233   1.473   3.168
 3172TIP3    H1 9522   4.298   1.435   3.228
 3172TIP3    H2 9523   4.278   1.476   3.083
 3173TIP3   OH2 9524   2.298   5.152   4.730
 3173TIP3    H1 9525   2.204   5.167   4.742
 3173TIP3    H2 9526   2.336   5.239   4.722
 3174TIP3   OH2 9527   3.785   5.885   2.556
 3174TIP3    H1 9528   3.856   5.950   2.557
 3174TIP3    H2 9529   3.708   5.935   2.527
 3175TIP3   OH2 9530   0.903   1.583   4.181
 3175TIP3    H1 9531   0.821   1.535   4.191
 3175TIP3    H2 9532   0.971   1.519   4.202
 3176TIP3   OH2 9533   5.250   0.824   3.208
 3176TIP3    H1 9534   5.184   0.887   3.179
 3176TIP3    H2 9535   5.262   0.843   3.301
 3177TIP3   OH2 9536   0.768   4.569   0.221
 3177TIP3    H1 9537   0.686   4.522   0.206
 3177TIP3    H2 9538   0.782   4.564   0.316
 3178TIP3   OH2 9539   1.747   0.521   3.471
 3178TIP3    H1 9540   1.778   0.453   3.531
 3178TIP3    H2 9541   1.652   0.522   3.484
 3179TIP3   OH2 9542   1.237   0.533   0.865
 3179TIP3    H1 9543   1.306   0.468   0.878
 3179TIP3    H2 9544   1.239   0.586   0.945
 3180TIP3   OH2 9545   5.912   4.134   1.253
 3180TIP3    H1 9546   5.828   4.125   1.209
 3180TIP3    H2 9547   5.896   4.104   1.342
 3181TIP3   OH2 9548   3.374   4.077   4.973
 3181TIP3    H1 9549   3.346   4.003   5.026
 3181TIP3    H2 9550   3.302   4.139   4.978
 3182TIP3   OH2 9551   1.267   4.346   3.703
 3182TIP3    H1 9552   1.252   4.336   3.609
 3182TIP3    H2 9553   1.349   4.299   3.720
 3183TIP3   OH2 9554   0.722   4.155   1.635
 3183TIP3    H1 9555   0.680   4.189   1.714
 3183TIP3    H2 9556   0.712   4.060   1.642
 3184TIP3   OH2 9557   3.413   3.043   0.711
 3184TIP3    H1 9558   3.490   3.073   0.663
 3184TIP3    H2 9559   3.385   3.119   0.762
 3185TIP3   OH2 9560   0.795   4.805   4.296
 3185TIP3    H1 9561   0.701   4.799   4.278
 3185TIP3    H2 9562   0.834   4.826   4.212
 3186TIP3   OH2 9563   1.005   5.568   0.912
 3186TIP3    H1 9564   0.948   5.525   0.848
 3186TIP3    H2 9565   0.947   5.624   0.963
 3187TIP3   OH2 9566   6.034   5.924   4.203
 3187TIP3    H1 9567   6.006   5.925   4.112
 3187TIP3    H2 9568   6.056   6.016   4.222
 3188TIP3   OH2 9569   6.191   4.153   0.775
 3188TIP3    H1 9570   6.237   4.070   0.762
 3188TIP3    H2 9571   6.161   4.179   0.688
 3189TIP3   OH2 9572   1.153   2.418   0.578
 3189TIP3    H1 9573   1.068   2.434   0.618
 3189TIP3    H2 9574   1.156   2.323   0.566
 3190TIP3   OH2 9575   5.660   1.428   4.254
 3190TIP3    H1 9576   5.597   1.368   4.294
 3190TIP3    H2 9577   5.609   1.477   4.190
 3191TIP3   OH2 9578   4.422   5.888   1.278
 3191TIP3    H1 9579   4.415   5.977   1.312
 3191TIP3    H2 9580   4.337   5.848   1.297
 3192TIP3   OH2 9581   4.932   1.643   4.039
 3192TIP3    H1 9582   4.841   1.619   4.055
 3192TIP3    H2 9583   4.937   1.653   3.944
 3193TIP3   OH2 9584   5.621   5.777   0.280
 3193TIP3    H1 9585   5.555   5.813   0.339
 3193TIP3    H2 9586   5.577   5.773   0.195
 3194TIP3   OH2 9587   1.939   0.944   4.446
 3194TIP3    H1 9588   1.904   0.866   4.401
 3194TIP3    H2 9589   1.913   1.017   4.391
 3195TIP3   OH2 9590   1.910   5.309   1.418
 3195TIP3    H1 9591   1.988   5.253   1.421
 3195TIP3    H2 9592   1.920   5.360   1.338
 3196TIP3   OH2 9593   4.645   4.401   4.208
 3196TIP3    H1 9594   4.583   4.471   4.228
 3196TIP3    H2 9595   4.706   4.402   4.283
 3197TIP3   OH2 9596   0.975   2.817   1.070
 3197TIP3    H1 9597   1.044   2.842   1.008
 3197TIP3    H2 9598   0.993   2.726   1.091
 3198TIP3   OH2 9599   1.397   2.210   1.466
 3198TIP3    H1 9600   1.450   2.184   1.391
 3198TIP3    H2 9601   1.344   2.133   1.486
 3199TIP3   OH2 9602   4.171   4.445   3.466
 3199TIP3    H1 9603   4.171   4.354   3.495
 3199TIP3    H2 9604   4.079   4.472   3.475
 3200TIP3   OH2 9605   4.747   3.465   3.038
 3200TIP3    H1 9606   4.744   3.370   3.040
 3200TIP3    H2 9607   4.805   3.489   3.110
 3201TIP3   OH2 9608   0.121   1.727   3.861
 3201TIP3    H1 9609   0.128   1.817   3.892
 3201TIP3    H2 9610   0.142   1.732   3.768
 3202TIP3   OH2 9611   0.159   0.217   1.336
 3202TIP3    H1 9612   0.133   0.276   1.266
 3202TIP3    H2 9613   0.167   0.274   1.413
 3203TIP3   OH2 9614   4.015   5.438   1.649
 3203TIP3    H1 9615   4.071   5.362   1.634
 3203TIP3    H2 9616   3.928   5.402   1.665
 3204TIP3   OH2 9617   4.088   0.977   4.292
 3204TIP3    H1 9618   4.030   1.046   4.260
 3204TIP3    H2 9619   4.176   1.010   4.274
 3205TIP3   OH2 9620   5.957   2.154   5.058
 3205TIP3    H1 9621   5.970   2.076   5.003
 3205TIP3    H2 9622   5.883   2.132   5.114
 3206TIP3   OH2 9623   4.498   4.190   2.154
 3206TIP3    H1 9624   4.539   4.145   2.228
 3206TIP3    H2 9625   4.554   4.267   2.140
 3207TIP3   OH2 9626   2.868   3.409   0.779
 3207TIP3    H1 9627   2.901   3.379   0.694
 3207TIP3    H2 9628   2.778   3.437   0.761
 3208TIP3   OH2 9629   5.490   0.484   0.971
 3208TIP3    H1 9630   5.468   0.430   0.895
 3208TIP3    H2 9631   5.585   0.499   0.963
 3209TIP3   OH2 9632   4.156   3.939   2.642
 3209TIP3    H1 9633   4.120   3.987   2.717
 3209TIP3    H2 9634   4.113   3.854   2.645
 3210TIP3   OH2 9635   5.904   1.209   1.215
 3210TIP3    H1 9636   5.926   1.203   1.122
 3210TIP3    H2 9637   5.868   1.297   1.226
 3211TIP3   OH2 9638   3.435   2.242   4.132
 3211TIP3    H1 9639   3.510   2.203   4.178
 3211TIP3    H2 9640   3.422   2.326   4.176
 3212TIP3   OH2 9641   3.442   3.419   4.953
 3212TIP3    H1 9642   3.459   3.379   4.868
 3212TIP3    H2 9643   3.527   3.417   4.998
 3213TIP3   OH2 9644   3.769   1.063   0.162
 3213TIP3    H1 9645   3.849   1.017   0.135
 3213TIP3    H2 9646   3.768   1.142   0.109
 3214TIP3   OH2 9647   1.333   4.398   0.157
 3214TIP3    H1 9648   1.252   4.389   0.107
 3214TIP3    H2 9649   1.317   4.349   0.238
 3215TIP3   OH2 9650   2.321   1.143   2.995
 3215TIP3    H1 9651   2.245   1.192   3.026
 3215TIP3    H2 9652   2.328   1.070   3.057
 3216TIP3   OH2 9653   0.537   1.687   3.846
 3216TIP3    H1 9654   0.529   1.646   3.759
 3216TIP3    H2 9655   0.630   1.681   3.866
 3217TIP3   OH2 9656   5.850   1.402   3.107
 3217TIP3    H1 9657   5.931   1.452   3.114
 3217TIP3    H2 9658   5.878   1.311   3.122
 3218TIP3   OH2 9659   2.483   4.850   0.860
 3218TIP3    H1 9660   2.547   4.788   0.895
 3218TIP3    H2 9661   2.461   4.907   0.933
 3219TIP3   OH2 9662   0.758   1.392   3.886
 3219TIP3    H1 9663   0.760   1.430   3.798
 3219TIP3    H2 9664   0.842   1.417   3.924
 3220TIP3   OH2 9665   5.728   2.364   1.906
 3220TIP3    H1 9666   5.699   2.444   1.947
 3220TIP3    H2 9667   5.719   2.297   1.973
 3221TIP3   OH2 9668   2.573   1.432   0.676
 3221TIP3    H1 9669   2.643   1.368   0.689
 3221TIP3    H2 9670   2.536   1.445   0.764
 3222TIP3   OH2 9671   4.139   4.926   1.375
 3222TIP3    H1 9672   4.122   4.869   1.450
 3222TIP3    H2 9673   4.214   4.885   1.331
 3223TIP3   OH2 9674   0.884   5.694   1.997
 3223TIP3    H1 9675   0.824   5.680   1.923
 3223TIP3    H2 9676   0.946   5.759   1.965
 3224TIP3   OH2 9677   1.634   3.713   0.514
 3224TIP3    H1 9678   1.540   3.695   0.516
 3224TIP3    H2 9679   1.647   3.778   0.584
 3225TIP3   OH2 9680   3.738   4.288   2.944
 3225TIP3    H1 9681   3.808   4.233   2.980
 3225TIP3    H2 9682   3.714   4.244   2.862
 3226TIP3   OH2 9683   4.363   4.964   1.620
 3226TIP3    H1 9684   4.308   4.912   1.562
 3226TIP3    H2 9685   4.437   4.990   1.565
 3227TIP3   OH2 9686   2.712   4.681   0.958
 3227TIP3    H1 9687   2.801   4.716   0.956
 3227TIP3    H2 9688   2.703   4.646   1.047
 3228TIP3   OH2 9689   1.804   5.414   2.504
 3228TIP3    H1 9690   1.820   5.328   2.465
 3228TIP3    H2 9691   1.868   5.471   2.461
 3229TIP3   OH2 9692   6.163   5.721   2.906
 3229TIP3    H1 9693   6.172   5.747   2.814
 3229TIP3    H2 9694   6.100   5.784   2.942
 3230TIP3   OH2 9695   5.516   2.530   5.193
 3230TIP3    H1 9696   5.588   2.546   5.133
 3230TIP3    H2 9697   5.472   2.453   5.158
 3231TIP3   OH2 9698   1.624   2.432   1.078
 3231TIP3    H1 9699   1.555   2.378   1.116
 3231TIP3    H2 9700   1.591   2.522   1.084
 3232TIP3   OH2 9701   5.407   5.607   0.836
 3232TIP3    H1 9702   5.329   5.582   0.886
 3232TIP3    H2 9703   5.477   5.551   0.871
 3233TIP3   OH2 9704   2.255   5.473   1.107
 3233TIP3    H1 9705   2.351   5.471   1.115
 3233TIP3    H2 9706   2.235   5.564   1.085
 3234TIP3   OH2 9707   1.184   5.383   0.790
 3234TIP3    H1 9708   1.148   5.464   0.755
 3234TIP3    H2 9709   1.179   5.321   0.716
 3235TIP3   OH2 9710   5.521   2.504   4.272
 3235TIP3    H1 9711   5.580   2.537   4.341
 3235TIP3    H2 9712   5.566   2.527   4.190
 3236TIP3   OH2 9713   2.562   2.209   2.404
 3236TIP3    H1 9714   2.485   2.248   2.363
 3236TIP3    H2 9715   2.533   2.188   2.493
 3237TIP3   OH2 9716   0.089   5.291   0.383
 3237TIP3    H1 9717   0.005   5.254   0.357
 3237TIP3    H2 9718   0.073   5.384   0.392
 3238TIP3   OH2 9719   4.690   2.824   0.422
 3238TIP3    H1 9720   4.697   2.775   0.340
 3238TIP3    H2 9721   4.641   2.902   0.398
 3239TIP3   OH2 9722   2.708   3.157  -0.014
 3239TIP3    H1 9723   2.702   3.067  -0.047
 3239TIP3    H2 9724   2.740   3.148   0.076
 3240TIP3   OH2 9725   2.402   2.704   1.965
 3240TIP3    H1 9726   2.390   2.710   2.059
 3240TIP3    H2 9727   2.380   2.791   1.932
 3241TIP3   OH2 9728   2.008   1.084   2.629
 3241TIP3    H1 9729   1.973   1.157   2.579
 3241TIP3    H2 9730   1.973   1.006   2.586
 3242TIP3   OH2 9731   5.064   4.463   3.798
 3242TIP3    H1 9732   5.097   4.534   3.852
 3242TIP3    H2 9733   5.105   4.384   3.833
 3243TIP3   OH2 9734   0.685   4.878   3.291
 3243TIP3    H1 9735   0.733   4.926   3.223
 3243TIP3    H2 9736   0.629   4.817   3.242
 3244TIP3   OH2 9737   0.415   5.169   1.652
 3244TIP3    H1 9738   0.331   5.144   1.615
 3244TIP3    H2 9739   0.467   5.200   1.578
 3245TIP3   OH2 9740   3.630   2.476   1.120
 3245TIP3    H1 9741   3.711   2.507   1.078
 3245TIP3    H2 9742   3.576   2.444   1.047
 3246TIP3   OH2 9743   3.140   2.120   3.295
 3246TIP3    H1 9744   3.080   2.050   3.320
 3246TIP3    H2 9745   3.090   2.200   3.308
 3247TIP3   OH2 9746   0.926   1.657   0.487
 3247TIP3    H1 9747   0.945   1.569   0.454
 3247TIP3    H2 9748   0.831   1.667   0.478
 3248TIP3   OH2 9749   5.182   4.432   3.439
 3248TIP3    H1 9750   5.184   4.414   3.345
 3248TIP3    H2 9751   5.091   4.451   3.458
 3249TIP3   OH2 9752   4.253   2.100   2.033
 3249TIP3    H1 9753   4.289   2.138   1.953
 3249TIP3    H2 9754   4.285   2.010   2.033
 3250TIP3   OH2 9755   5.203   3.376   3.031
 3250TIP3    H1 9756   5.124   3.322   3.028
 3250TIP3    H2 9757   5.275   3.315   3.020
 3251TIP3   OH2 9758   0.565   4.410   4.271
 3251TIP3    H1 9759   0.625   4.353   4.223
 3251TIP3    H2 9760   0.557   4.368   4.357
 3252TIP3   OH2 9761   2.779   1.517   4.471
 3252TIP3    H1 9762   2.731   1.505   4.553
 3252TIP3    H2 9763   2.778   1.612   4.457
 3253TIP3   OH2 9764   4.132   5.291   3.739
 3253TIP3    H1 9765   4.193   5.220   3.756
 3253TIP3    H2 9766   4.109   5.324   3.826
 3254TIP3   OH2 9767   3.016   3.733   5.036
 3254TIP3    H1 9768   3.077   3.706   4.968
 3254TIP3    H2 9769   2.940   3.675   5.025
 3255TIP3   OH2 9770   5.092   1.857   1.091
 3255TIP3    H1 9771   5.055   1.785   1.041
 3255TIP3    H2 9772   5.016   1.905   1.123
 3256TIP3   OH2 9773   5.415   4.035   4.774
 3256TIP3    H1 9774   5.471   4.098   4.819
 3256TIP3    H2 9775   5.334   4.034   4.825
 3257TIP3   OH2 9776   2.130   1.661   4.168
 3257TIP3    H1 9777   2.150   1.621   4.084
 3257TIP3    H2 9778   2.191   1.734   4.175
 3258TIP3   OH2 9779   2.638   0.723   1.527
 3258TIP3    H1 9780   2.629   0.641   1.479
 3258TIP3    H2 9781   2.732   0.743   1.523
 3259TIP3   OH2 9782   3.463   0.741   4.988
 3259TIP3    H1 9783   3.468   0.654   4.948
 3259TIP3    H2 9784   3.369   0.755   5.003
 3260TIP3   OH2 9785   1.394   0.287   4.856
 3260TIP3    H1 9786   1.371   0.266   4.766
 3260TIP3    H2 9787   1.470   0.344   4.850
 3261TIP3   OH2 9788   0.369   2.201   0.633
 3261TIP3    H1 9789   0.279   2.170   0.642
 3261TIP3    H2 9790   0.423   2.122   0.636
 3262TIP3   OH2 9791   2.992   2.127   3.993
 3262TIP3    H1 9792   3.036   2.149   4.076
 3262TIP3    H2 9793   2.995   2.032   3.989
 3263TIP3   OH2 9794   3.973   3.047   4.796
 3263TIP3    H1 9795   4.021   3.104   4.736
 3263TIP3    H2 9796   4.033   2.975   4.813
 3264TIP3   OH2 9797   1.900   4.974   0.473
 3264TIP3    H1 9798   1.951   5.002   0.397
 3264TIP3    H2 9799   1.965   4.949   0.538
 3265TIP3   OH2 9800   3.501   5.022   1.906
 3265TIP3    H1 9801   3.413   4.993   1.931
 3265TIP3    H2 9802   3.489   5.068   1.823
 3266TIP3   OH2 9803   2.622   2.827   3.590
 3266TIP3    H1 9804   2.692   2.890   3.606
 3266TIP3    H2 9805   2.667   2.744   3.576
 3267TIP3   OH2 9806   3.061   2.312   2.552
 3267TIP3    H1 9807   3.136   2.352   2.597
 3267TIP3    H2 9808   3.092   2.298   2.462
 3268TIP3   OH2 9809   1.514   4.744   2.105
 3268TIP3    H1 9810   1.575   4.801   2.152
 3268TIP3    H2 9811   1.480   4.798   2.034
 3269TIP3   OH2 9812   5.463   1.920   5.086
 3269TIP3    H1 9813   5.500   1.971   5.158
 3269TIP3    H2 9814   5.371   1.945   5.084
 3270TIP3   OH2 9815   4.284   1.719   4.722
 3270TIP3    H1 9816   4.333   1.703   4.641
 3270TIP3    H2 9817   4.286   1.814   4.734
 3271TIP3   OH2 9818   0.665   5.170   0.240
 3271TIP3    H1 9819   0.701   5.196   0.325
 3271TIP3    H2 9820   0.730   5.110   0.204
 3272TIP3   OH2 9821   0.439   5.114   3.725
 3272TIP3    H1 9822   0.421   5.204   3.697
 3272TIP3    H2 9823   0.383   5.102   3.802
 3273TIP3   OH2 9824   0.109   5.481   4.722
 3273TIP3    H1 9825   0.043   5.454   4.658
 3273TIP3    H2 9826   0.181   5.515   4.668
 3274TIP3   OH2 9827   6.301   3.898   0.268
 3274TIP3    H1 9828   6.276   3.986   0.238
 3274TIP3    H2 9829   6.221   3.846   0.256
 3275TIP3   OH2 9830   1.848   3.267   0.376
 3275TIP3    H1 9831   1.871   3.302   0.462
 3275TIP3    H2 9832   1.773   3.209   0.393
 3276TIP3   OH2 9833   2.807   4.359   1.148
 3276TIP3    H1 9834   2.783   4.333   1.059
 3276TIP3    H2 9835   2.903   4.354   1.150
 3277TIP3   OH2 9836   0.579   4.467   4.802
 3277TIP3    H1 9837   0.591   4.373   4.808
 3277TIP3    H2 9838   0.668   4.503   4.805
 3278TIP3   OH2 9839   2.923   4.425   1.723
 3278TIP3    H1 9840   2.879   4.340   1.726
 3278TIP3    H2 9841   2.880   4.471   1.651
 3279TIP3   OH2 9842   5.403   1.329   3.656
 3279TIP3    H1 9843   5.367   1.299   3.572
 3279TIP3    H2 9844   5.344   1.400   3.683
 3280TIP3   OH2 9845   5.189   4.309   1.937
 3280TIP3    H1 9846   5.145   4.227   1.959
 3280TIP3    H2 9847   5.269   4.308   1.989
 3281TIP3   OH2 9848   5.495   4.197   4.218
 3281TIP3    H1 9849   5.540   4.280   4.237
 3281TIP3    H2 9850   5.483   4.156   4.304
 3282TIP3   OH2 9851   3.335   0.651   4.338
 3282TIP3    H1 9852   3.421   0.691   4.351
 3282TIP3    H2 9853   3.322   0.653   4.243
 3283TIP3   OH2 9854   2.070   4.274   4.103
 3283TIP3    H1 9855   2.076   4.348   4.043
 3283TIP3    H2 9856   2.001   4.300   4.165
 3284TIP3   OH2 9857   0.221   2.364   4.992
 3284TIP3    H1 9858   0.130   2.364   5.021
 3284TIP3    H2 9859   0.241   2.456   4.976
 3285TIP3   OH2 9860   3.808   3.138   2.250
 3285TIP3    H1 9861   3.853   3.104   2.172
 3285TIP3    H2 9862   3.800   3.232   2.234
 3286TIP3   OH2 9863   5.665   4.193   1.067
 3286TIP3    H1 9864   5.684   4.170   0.976
 3286TIP3    H2 9865   5.613   4.119   1.100
 3287TIP3   OH2 9866   1.342   1.958   1.757
 3287TIP3    H1 9867   1.412   2.004   1.804
 3287TIP3    H2 9868   1.331   1.876   1.805
 3288TIP3   OH2 9869   1.413   2.882   2.614
 3288TIP3    H1 9870   1.492   2.881   2.561
 3288TIP3    H2 9871   1.427   2.953   2.677
 3289TIP3   OH2 9872   5.633   5.662   1.884
 3289TIP3    H1 9873   5.693   5.734   1.869
 3289TIP3    H2 9874   5.672   5.613   1.956
 3290TIP3   OH2 9875   3.782   5.537   3.475
 3290TIP3    H1 9876   3.867   5.495   3.488
 3290TIP3    H2 9877   3.720   5.464   3.466
 3291TIP3   OH2 9878   5.771   3.110   4.962
 3291TIP3    H1 9879   5.850   3.059   4.945
 3291TIP3    H2 9880   5.699   3.054   4.933
 3292TIP3   OH2 9881   3.968   0.148   4.046
 3292TIP3    H1 9882   4.000   0.120   3.960
 3292TIP3    H2 9883   3.876   0.120   4.048
 3293TIP3   OH2 9884   4.689   3.593   1.203
 3293TIP3    H1 9885   4.712   3.500   1.202
 3293TIP3    H2 9886   4.667   3.614   1.113
 3294TIP3   OH2 9887   5.957   1.495   2.668
 3294TIP3    H1 9888   5.914   1.484   2.583
 3294TIP3    H2 9889   6.031   1.434   2.666
 3295TIP3   OH2 9890   1.716   4.544   0.291
 3295TIP3    H1 9891   1.803   4.581   0.278
 3295TIP3    H2 9892   1.685   4.524   0.202
 3296TIP3   OH2 9893   4.960   1.961   4.087
 3296TIP3    H1 9894   5.050   1.934   4.068
 3296TIP3    H2 9895   4.943   1.929   4.175
 3297TIP3   OH2 9896   0.270   3.108   1.586
 3297TIP3    H1 9897   0.242   3.175   1.649
 3297TIP3    H2 9898   0.319   3.157   1.520
 3298TIP3   OH2 9899   1.362   2.193   4.335
 3298TIP3    H1 9900   1.450   2.228   4.350
 3298TIP3    H2 9901   1.303   2.265   4.357
 3299TIP3   OH2 9902   1.988   5.549   3.065
 3299TIP3    H1 9903   1.962   5.542   2.973
 3299TIP3    H2 9904   1.990   5.644   3.081
 3300TIP3   OH2 9905   0.455   1.180   0.868
 3300TIP3    H1 9906   0.458   1.139   0.781
 3300TIP3    H2 9907   0.437   1.272   0.850
 3301TIP3   OH2 9908   0.447   5.204   0.731
 3301TIP3    H1 9909   0.399   5.273   0.779
 3301TIP3    H2 9910   0.412   5.208   0.642
 3302TIP3   OH2 9911   5.452   4.674   2.818
 3302TIP3    H1 9912   5.375   4.711   2.776
 3302TIP3    H2 9913   5.517   4.745   2.816
 3303TIP3   OH2 9914   5.868   0.257   4.966
 3303TIP3    H1 9915   5.952   0.279   5.006
 3303TIP3    H2 9916   5.852   0.328   4.904
 3304TIP3   OH2 9917   0.349   5.466   5.173
 3304TIP3    H1 9918   0.426   5.518   5.150
 3304TIP3    H2 9919   0.353   5.390   5.114
 3305TIP3   OH2 9920   0.973   5.676   3.468
 3305TIP3    H1 9921   0.963   5.673   3.563
 3305TIP3    H2 9922   0.888   5.649   3.434
 3306TIP3   OH2 9923   2.577   4.862   3.833
 3306TIP3    H1 9924   2.505   4.877   3.894
 3306TIP3    H2 9925   2.543   4.890   3.748
 3307TIP3   OH2 9926   5.157   3.112   1.359
 3307TIP3    H1 9927   5.174   3.144   1.270
 3307TIP3    H2 9928   5.188   3.182   1.416
 3308TIP3   OH2 9929   5.271   5.584   2.483
 3308TIP3    H1 9930   5.201   5.633   2.438
 3308TIP3    H2 9931   5.272   5.620   2.571
 3309TIP3   OH2 9932   6.302   3.538   1.412
 3309TIP3    H1 9933   6.373   3.603   1.414
 3309TIP3    H2 9934   6.239   3.573   1.349
 3310TIP3   OH2 9935   3.199   2.185   0.350
 3310TIP3    H1 9936   3.118   2.138   0.370
 3310TIP3    H2 9937   3.265   2.116   0.340
 3311TIP3   OH2 9938   0.415   2.422   3.083
 3311TIP3    H1 9939   0.501   2.390   3.059
 3311TIP3    H2 9940   0.408   2.406   3.177
 3312TIP3   OH2 9941   3.659   5.212   4.949
 3312TIP3    H1 9942   3.702   5.190   5.032
 3312TIP3    H2 9943   3.686   5.302   4.931
 3313TIP3   OH2 9944   0.427   4.498   4.563
 3313TIP3    H1 9945   0.504   4.473   4.614
 3313TIP3    H2 9946   0.360   4.518   4.628
 3314TIP3   OH2 9947   4.633   2.958   5.208
 3314TIP3    H1 9948   4.634   3.032   5.147
 3314TIP3    H2 9949   4.656   2.882   5.154
 3315TIP3   OH2 9950   1.304   5.951   0.278
 3315TIP3    H1 9951   1.338   5.932   0.191
 3315TIP3    H2 9952   1.252   5.874   0.301
 3316TIP3   OH2 9953   4.603   5.114   2.706
 3316TIP3    H1 9954   4.642   5.154   2.783
 3316TIP3    H2 9955   4.509   5.112   2.724
 3317TIP3   OH2 9956   5.482   2.670   3.708
 3317TIP3    H1 9957   5.447   2.702   3.791
 3317TIP3    H2 9958   5.570   2.708   3.702
 3318TIP3   OH2 9959   0.766   4.191   4.260
 3318TIP3    H1 9960   0.836   4.156   4.316
 3318TIP3    H2 9961   0.805   4.197   4.173
 3319TIP3   OH2 9962   2.061   5.846   2.065
 3319TIP3    H1 9963   2.026   5.929   2.035
 3319TIP3    H2 9964   2.001   5.780   2.032
 3320TIP3   OH2 9965   1.373   3.830   0.097
 3320TIP3    H1 9966   1.301   3.891   0.082
 3320TIP3    H2 9967   1.385   3.786   0.013
 3321TIP3   OH2 9968   1.236   0.176   2.334
 3321TIP3    H1 9969   1.328   0.171   2.360
 3321TIP3    H2 9970   1.230   0.255   2.280
 3322TIP3   OH2 9971   0.226   4.121   3.862
 3322TIP3    H1 9972   0.140   4.079   3.863
 3322TIP3    H2 9973   0.282   4.062   3.913
 3323TIP3   OH2 9974   0.674   3.198   1.532
 3323TIP3    H1 9975   0.662   3.293   1.529
 3323TIP3    H2 9976   0.692   3.178   1.624
 3324TIP3   OH2 9977   3.281   4.412   2.289
 3324TIP3    H1 9978   3.287   4.408   2.194
 3324TIP3    H2 9979   3.308   4.325   2.319
 3325TIP3   OH2 9980   4.881   4.381   1.363
 3325TIP3    H1 9981   4.941   4.327   1.414
 3325TIP3    H2 9982   4.902   4.471   1.386
 3326TIP3   OH2 9983   4.311   1.665   0.514
 3326TIP3    H1 9984   4.331   1.728   0.583
 3326TIP3    H2 9985   4.216   1.670   0.504
 3327TIP3   OH2 9986   0.125   3.173   2.083
 3327TIP3    H1 9987   0.173   3.110   2.137
 3327TIP3    H2 9988   0.160   3.160   1.995
 3328TIP3   OH2 9989   5.451   0.608   3.532
 3328TIP3    H1 9990   5.358   0.588   3.520
 3328TIP3    H2 9991   5.452   0.702   3.552
 3329TIP3   OH2 9992   3.112   5.272   2.321
 3329TIP3    H1 9993   3.156   5.302   2.242
 3329TIP3    H2 9994   3.137   5.179   2.329
 3330TIP3   OH2 9995   4.894   0.677   4.892
 3330TIP3    H1 9996   4.838   0.643   4.823
 3330TIP3    H2 9997   4.935   0.755   4.854
 3331TIP3   OH2 9998   1.913   4.346   0.076
 3331TIP3    H1 9999   2.007   4.337   0.091
 3331TIP3    H210000   1.873   4.313   0.156
 3332TIP3   OH210001   1.310   2.385   0.861
 3332TIP3    H110002   1.376   2.329   0.821
 3332TIP3    H210003   1.358   2.463   0.889
 3333TIP3   OH210004   2.291   3.975   4.984
 3333TIP3    H110005   2.345   3.896   4.975
 3333TIP3    H210006   2.324   4.034   4.916
 3334TIP3   OH210007   4.804   5.959   1.811
 3334TIP3    H110008   4.831   5.890   1.750
 3334TIP3    H210009   4.741   6.011   1.761
 3335TIP3   OH210010  -0.023   3.514   1.693
 3335TIP3    H110011   0.027   3.496   1.613
 3335TIP3    H210012   0.019   3.591   1.730
 3336TIP3   OH210013   0.601   0.240   0.914
 3336TIP3    H110014   0.588   0.207   1.003
 3336TIP3    H210015   0.513   0.258   0.882
 3337TIP3   OH210016   5.086   3.551   2.421
 3337TIP3    H110017   5.120   3.640   2.430
 3337TIP3    H210018   5.145   3.509   2.359
 3338TIP3   OH210019   3.888   5.797   2.102
 3338TIP3    H110020   3.917   5.887   2.085
 3338TIP3    H210021   3.916   5.779   2.191
 3339TIP3   OH210022   3.123   0.364   3.007
 3339TIP3    H110023   3.041   0.412   3.007
 3339TIP3    H210024   3.180   0.414   2.949
 3340TIP3   OH210025  -0.039   2.728   4.730
 3340TIP3    H110026  -0.084   2.797   4.779
 3340TIP3    H210027   0.048   2.764   4.713
 3341TIP3   OH210028   1.901   2.045   0.011
 3341TIP3    H110029   1.940   1.997   0.084
 3341TIP3    H210030   1.973   2.098  -0.024
 3342TIP3   OH210031   4.643   4.781   1.568
 3342TIP3    H110032   4.634   4.845   1.498
 3342TIP3    H210033   4.737   4.768   1.576
 3343TIP3   OH210034   4.507   4.614   0.401
 3343TIP3    H110035   4.481   4.610   0.493
 3343TIP3    H210036   4.550   4.530   0.384
 3344TIP3   OH210037   3.962   1.693   1.366
 3344TIP3    H110038   4.048   1.667   1.399
 3344TIP3    H210039   3.976   1.778   1.325
 3345TIP3   OH210040   1.797   4.747   3.563
 3345TIP3    H110041   1.883   4.786   3.548
 3345TIP3    H210042   1.815   4.658   3.591
 3346TIP3   OH210043   3.850   3.010   1.244
 3346TIP3    H110044   3.774   2.981   1.293
 3346TIP3    H210045   3.817   3.076   1.184
 3347TIP3   OH210046   5.830   2.495   3.841
 3347TIP3    H110047   5.909   2.451   3.872
 3347TIP3    H210048   5.863   2.566   3.786
 3348TIP3   OH210049   1.749   3.437   4.273
 3348TIP3    H110050   1.802   3.455   4.351
 3348TIP3    H210051   1.772   3.507   4.212
 3349TIP3   OH210052   4.567   5.564   4.533
 3349TIP3    H110053   4.561   5.474   4.565
 3349TIP3    H210054   4.612   5.612   4.603
 3350TIP3   OH210055   2.927   2.707   0.210
 3350TIP3    H110056   2.946   2.746   0.296
 3350TIP3    H210057   2.989   2.634   0.202
 3351TIP3   OH210058   6.259   0.621   0.905
 3351TIP3    H110059   6.219   0.622   0.818
 3351TIP3    H210060   6.330   0.557   0.899
 3352TIP3   OH210061   2.619   2.432   3.754
 3352TIP3    H110062   2.659   2.518   3.767
 3352TIP3    H210063   2.660   2.398   3.675
 3353TIP3   OH210064   3.328   2.495   4.027
 3353TIP3    H110065   3.257   2.436   4.004
 3353TIP3    H210066   3.406   2.458   3.986
 3354TIP3   OH210067   4.287   2.080   2.874
 3354TIP3    H110068   4.245   2.027   2.806
 3354TIP3    H210069   4.248   2.167   2.864
 3355TIP3   OH210070   4.242   4.728   3.065
 3355TIP3    H110071   4.328   4.719   3.024
 3355TIP3    H210072   4.229   4.645   3.111
 3356TIP3   OH210073   5.583   1.929   4.020
 3356TIP3    H110074   5.605   1.885   3.938
 3356TIP3    H210075   5.517   1.995   3.995
 3357TIP3   OH210076   0.975   5.107   2.896
 3357TIP3    H110077   1.066   5.076   2.890
 3357TIP3    H210078   0.981   5.200   2.873
 3358TIP3   OH210079   2.527   4.830   5.147
 3358TIP3    H110080   2.621   4.839   5.163
 3358TIP3    H210081   2.521   4.797   5.058
 3359TIP3   OH210082   2.091   2.737   4.185
 3359TIP3    H110083   2.131   2.651   4.170
 3359TIP3    H210084   2.115   2.759   4.275
 3360TIP3   OH210085   1.027   4.009   0.289
 3360TIP3    H110086   0.983   4.092   0.308
 3360TIP3    H210087   1.092   4.030   0.222
 3361TIP3   OH210088   6.289   2.289   5.127
 3361TIP3    H110089   6.238   2.289   5.208
 3361TIP3    H210090   6.235   2.339   5.065
 3362TIP3   OH210091   0.554   4.921   0.627
 3362TIP3    H110092   0.519   4.998   0.671
 3362TIP3    H210093   0.648   4.938   0.621
 3363TIP3   OH210094   2.955   0.503   0.924
 3363TIP3    H110095   2.958   0.510   0.828
 3363TIP3    H210096   2.943   0.592   0.954
 3364TIP3   OH210097   1.846   0.173   3.508
 3364TIP3    H110098   1.821   0.237   3.574
 3364TIP3    H210099   1.856   0.091   3.556
 3365TIP3   OH210100   3.406   4.332   4.285
 3365TIP3    H110101   3.390   4.279   4.363
 3365TIP3    H210102   3.320   4.344   4.247
 3366TIP3   OH210103   5.946   5.144   4.627
 3366TIP3    H110104   5.990   5.222   4.662
 3366TIP3    H210105   5.968   5.145   4.534
 3367TIP3   OH210106   0.789   4.643   4.022
 3367TIP3    H110107   0.853   4.696   3.974
 3367TIP3    H210108   0.704   4.676   3.992
 3368TIP3   OH210109   1.487   0.321   3.039
 3368TIP3    H110110   1.397   0.318   3.070
 3368TIP3    H210111   1.508   0.414   3.035
 3369TIP3   OH210112   5.568   2.234   3.087
 3369TIP3    H110113   5.612   2.169   3.033
 3369TIP3    H210114   5.495   2.266   3.033
 3370TIP3   OH210115   3.222   5.589   4.227
 3370TIP3    H110116   3.265   5.505   4.241
 3370TIP3    H210117   3.240   5.611   4.136
 3371TIP3   OH210118   0.750   2.532   4.842
 3371TIP3    H110119   0.765   2.463   4.777
 3371TIP3    H210120   0.699   2.489   4.911
 3372TIP3   OH210121   0.895   4.239   3.076
 3372TIP3    H110122   0.952   4.194   3.013
 3372TIP3    H210123   0.954   4.288   3.131
 3373TIP3   OH210124   5.379   0.960   3.450
 3373TIP3    H110125   5.458   0.915   3.419
 3373TIP3    H210126   5.392   0.970   3.544
 3374TIP3   OH210127   3.944   4.493   3.132
 3374TIP3    H110128   4.028   4.453   3.153
 3374TIP3    H210129   3.878   4.430   3.162
 3375TIP3   OH210130   4.092   2.972   2.428
 3375TIP3    H110131   4.088   3.066   2.408
 3375TIP3    H210132   4.030   2.932   2.367
 3376TIP3   OH210133   2.344   0.600   2.723
 3376TIP3    H110134   2.325   0.685   2.762
 3376TIP3    H210135   2.440   0.597   2.717
 3377TIP3   OH210136   1.643   4.407   5.039
 3377TIP3    H110137   1.727   4.448   5.018
 3377TIP3    H210138   1.589   4.479   5.072
 3378TIP3   OH210139   4.184   1.913   0.739
 3378TIP3    H110140   4.139   1.978   0.793
 3378TIP3    H210141   4.164   1.829   0.780
 3379TIP3   OH210142   2.036   0.738   5.038
 3379TIP3    H110143   1.964   0.677   5.032
 3379TIP3    H210144   2.112   0.691   5.003
 3380TIP3   OH210145   3.513   3.089   0.143
 3380TIP3    H110146   3.455   3.126   0.077
 3380TIP3    H210147   3.494   2.995   0.142
 3381TIP3   OH210148   2.107   5.345   4.293
 3381TIP3    H110149   2.106   5.253   4.264
 3381TIP3    H210150   2.193   5.377   4.269
 3382TIP3   OH210151   4.886   0.623   3.672
 3382TIP3    H110152   4.880   0.550   3.610
 3382TIP3    H210153   4.870   0.584   3.757
 3383TIP3   OH210154   0.575   5.695   3.217
 3383TIP3    H110155   0.585   5.790   3.213
 3383TIP3    H210156   0.494   5.677   3.169
 3384TIP3   OH210157   2.192   3.333   4.341
 3384TIP3    H110158   2.111   3.306   4.296
 3384TIP3    H210159   2.256   3.343   4.270
 3385TIP3   OH210160   3.087   5.220   0.085
 3385TIP3    H110161   2.992   5.212   0.096
 3385TIP3    H210162   3.098   5.285   0.016
 3386TIP3   OH210163   4.629   2.003   4.663
 3386TIP3    H110164   4.632   1.909   4.678
 3386TIP3    H210165   4.668   2.042   4.741
 3387TIP3   OH210166   4.978   0.731   0.616
 3387TIP3    H110167   4.949   0.644   0.642
 3387TIP3    H210168   5.055   0.716   0.561
 3388TIP3   OH210169   1.940   4.172   1.419
 3388TIP3    H110170   1.978   4.122   1.491
 3388TIP3    H210171   1.965   4.124   1.340
 3389TIP3   OH210172   2.215   4.457   4.442
 3389TIP3    H110173   2.218   4.530   4.504
 3389TIP3    H210174   2.291   4.404   4.464
 3390TIP3   OH210175   1.293   4.123   2.348
 3390TIP3    H110176   1.285   4.092   2.258
 3390TIP3    H210177   1.257   4.212   2.346
 3391TIP3   OH210178   2.426   5.377   2.152
 3391TIP3    H110179   2.505   5.418   2.185
 3391TIP3    H210180   2.456   5.295   2.111
 3392TIP3   OH210181   3.147   4.598   2.543
 3392TIP3    H110182   3.184   4.567   2.625
 3392TIP3    H210183   3.223   4.628   2.492
 3393TIP3   OH210184   4.885   5.855   0.460
 3393TIP3    H110185   4.795   5.876   0.485
 3393TIP3    H210186   4.939   5.918   0.507
 3394TIP3   OH210187   0.404   2.161   1.846
 3394TIP3    H110188   0.392   2.101   1.773
 3394TIP3    H210189   0.467   2.118   1.903
 3395TIP3   OH210190   3.517   1.787   4.441
 3395TIP3    H110191   3.561   1.863   4.404
 3395TIP3    H210192   3.512   1.804   4.535
 3396TIP3   OH210193   3.506   5.727   2.031
 3396TIP3    H110194   3.471   5.812   2.006
 3396TIP3    H210195   3.545   5.742   2.117
 3397TIP3   OH210196   1.716   4.330   4.241
 3397TIP3    H110197   1.790   4.340   4.301
 3397TIP3    H210198   1.708   4.416   4.199
 3398TIP3   OH210199   3.558   5.224   0.770
 3398TIP3    H110200   3.485   5.286   0.769
 3398TIP3    H210201   3.532   5.155   0.709
 3399TIP3   OH210202   6.309   2.469   3.018
 3399TIP3    H110203   6.315   2.555   3.061
 3399TIP3    H210204   6.219   2.465   2.986
 3400TIP3   OH210205   3.875   0.770   1.508
 3400TIP3    H110206   3.896   0.859   1.479
 3400TIP3    H210207   3.789   0.753   1.470
 3401TIP3   OH210208   4.386   3.531   0.153
 3401TIP3    H110209   4.320   3.485   0.101
 3401TIP3    H210210   4.339   3.560   0.231
 3402TIP3   OH210211   3.563   0.667   3.910
 3402TIP3    H110212   3.533   0.683   3.999
 3402TIP3    H210213   3.517   0.733   3.858
 3403TIP3   OH210214   2.901   0.804   3.680
 3403TIP3    H110215   2.865   0.892   3.669
 3403TIP3    H210216   2.838   0.759   3.737
 3404TIP3   OH210217   3.764   4.904   4.552
 3404TIP3    H110218   3.840   4.958   4.530
 3404TIP3    H210219   3.792   4.854   4.629
 3405TIP3   OH210220   2.936   4.322   0.679
 3405TIP3    H110221   2.898   4.409   0.668
 3405TIP3    H210222   2.924   4.302   0.772
 3406TIP3   OH210223   4.825   3.751   1.412
 3406TIP3    H110224   4.790   3.760   1.501
 3406TIP3    H210225   4.764   3.691   1.369
 3407TIP3   OH210226   2.741   5.150   1.745
 3407TIP3    H110227   2.724   5.228   1.692
 3407TIP3    H210228   2.684   5.160   1.821
 3408TIP3   OH210229   0.552   3.083   1.082
 3408TIP3    H110230   0.640   3.061   1.113
 3408TIP3    H210231   0.542   3.034   1.000
 3409TIP3   OH210232   2.257   3.681   2.763
 3409TIP3    H110233   2.276   3.602   2.814
 3409TIP3    H210234   2.334   3.691   2.706
 3410TIP3   OH210235   5.135   4.133   0.106
 3410TIP3    H110236   5.203   4.161   0.168
 3410TIP3    H210237   5.144   4.192   0.032
 3411TIP3   OH210238   0.634   3.963   4.606
 3411TIP3    H110239   0.568   3.985   4.672
 3411TIP3    H210240   0.717   3.988   4.645
 3412TIP3   OH210241   0.465   3.912   2.317
 3412TIP3    H110242   0.547   3.901   2.269
 3412TIP3    H210243   0.448   3.826   2.357
 3413TIP3   OH210244   2.077   4.861   4.696
 3413TIP3    H110245   2.010   4.797   4.720
 3413TIP3    H210246   2.031   4.945   4.696
 3414TIP3   OH210247   5.601   4.726   3.790
 3414TIP3    H110248   5.555   4.644   3.772
 3414TIP3    H210249   5.585   4.780   3.712
 3415TIP3   OH210250   5.701   1.323   3.439
 3415TIP3    H110251   5.772   1.382   3.411
 3415TIP3    H210252   5.708   1.248   3.380
 3416TIP3   OH210253   2.214   1.910   2.100
 3416TIP3    H110254   2.210   1.844   2.031
 3416TIP3    H210255   2.165   1.872   2.173
 3417TIP3   OH210256   4.599   1.002   1.089
 3417TIP3    H110257   4.510   1.038   1.084
 3417TIP3    H210258   4.615   0.966   1.002
 3418TIP3   OH210259   2.126   4.752   1.440
 3418TIP3    H110260   2.080   4.745   1.524
 3418TIP3    H210261   2.097   4.836   1.404
 3419TIP3   OH210262   1.016   1.876   1.622
 3419TIP3    H110263   0.998   1.959   1.666
 3419TIP3    H210264   0.957   1.876   1.547
 3420TIP3   OH210265   2.256   0.929   1.985
 3420TIP3    H110266   2.162   0.937   1.973
 3420TIP3    H210267   2.274   0.970   2.069
 3421TIP3   OH210268   5.882   0.247   4.647
 3421TIP3    H110269   5.912   0.244   4.556
 3421TIP3    H210270   5.793   0.284   4.642
 3422TIP3   OH210271   4.623   3.983   1.131
 3422TIP3    H110272   4.680   4.059   1.118
 3422TIP3    H210273   4.575   4.003   1.211
 3423TIP3   OH210274   1.475   2.481   1.374
 3423TIP3    H110275   1.565   2.448   1.371
 3423TIP3    H210276   1.424   2.409   1.412
 3424TIP3   OH210277   3.910   1.013   1.020
 3424TIP3    H110278   3.848   1.059   0.963
 3424TIP3    H210279   3.923   0.928   0.979
 3425TIP3   OH210280   2.030   2.722   2.010
 3425TIP3    H110281   2.048   2.649   1.950
 3425TIP3    H210282   2.023   2.799   1.953
 3426TIP3   OH210283   2.537   1.454   0.934
 3426TIP3    H110284   2.459   1.502   0.960
 3426TIP3    H210285   2.610   1.512   0.958
 3427TIP3   OH210286   5.519   3.223   1.787
 3427TIP3    H110287   5.511   3.273   1.705
 3427TIP3    H210288   5.430   3.194   1.806
 3428TIP3   OH210289   1.367   1.175   1.500
 3428TIP3    H110290   1.386   1.082   1.517
 3428TIP3    H210291   1.441   1.221   1.540
 3429TIP3   OH210292   4.164   2.291   0.616
 3429TIP3    H110293   4.099   2.287   0.546
 3429TIP3    H210294   4.242   2.250   0.579
 3430TIP3   OH210295   3.744   0.611   3.218
 3430TIP3    H110296   3.834   0.607   3.249
 3430TIP3    H210297   3.711   0.522   3.226
 3431TIP3   OH210298   6.245   2.392   0.233
 3431TIP3    H110299   6.265   2.362   0.145
 3431TIP3    H210300   6.328   2.421   0.269
 3432TIP3   OH210301   1.837   4.535   3.122
 3432TIP3    H110302   1.907   4.485   3.164
 3432TIP3    H210303   1.775   4.554   3.193
 3433TIP3   OH210304   5.000   0.221   1.212
 3433TIP3    H110305   5.052   0.239   1.134
 3433TIP3    H210306   5.062   0.226   1.285
 3434TIP3   OH210307   3.400   3.776   4.095
 3434TIP3    H110308   3.403   3.851   4.153
 3434TIP3    H210309   3.482   3.780   4.047
 3435TIP3   OH210310   1.924   5.597   2.788
 3435TIP3    H110311   1.963   5.516   2.755
 3435TIP3    H210312   1.844   5.609   2.737
 3436TIP3   OH210313   4.245   0.781   5.118
 3436TIP3    H110314   4.182   0.815   5.182
 3436TIP3    H210315   4.194   0.722   5.063
 3437TIP3   OH210316   2.008   4.494   2.825
 3437TIP3    H110317   2.046   4.581   2.813
 3437TIP3    H210318   1.916   4.504   2.802
 3438TIP3   OH210319   4.120   5.720   0.946
 3438TIP3    H110320   4.168   5.743   1.026
 3438TIP3    H210321   4.051   5.787   0.940
 3439TIP3   OH210322   3.404   4.631   1.307
 3439TIP3    H110323   3.485   4.623   1.257
 3439TIP3    H210324   3.414   4.711   1.358
 3440TIP3   OH210325   5.827   2.443   3.445
 3440TIP3    H110326   5.805   2.531   3.476
 3440TIP3    H210327   5.761   2.424   3.378
 3441TIP3   OH210328   1.872   0.309   4.548
 3441TIP3    H110329   1.949   0.277   4.501
 3441TIP3    H210330   1.847   0.237   4.605
 3442TIP3   OH210331   5.229   4.901   4.331
 3442TIP3    H110332   5.295   4.833   4.345
 3442TIP3    H210333   5.149   4.865   4.371
 3443TIP3   OH210334   5.061   2.978   1.616
 3443TIP3    H110335   5.061   3.017   1.529
 3443TIP3    H210336   5.142   2.927   1.620
 3444TIP3   OH210337   1.838   3.493   3.545
 3444TIP3    H110338   1.878   3.408   3.530
 3444TIP3    H210339   1.779   3.505   3.470
 3445TIP3   OH210340   1.705   2.775   4.354
 3445TIP3    H110341   1.769   2.844   4.336
 3445TIP3    H210342   1.625   2.803   4.309
 3446TIP3   OH210343   1.188   3.623   0.092
 3446TIP3    H110344   1.159   3.661   0.174
 3446TIP3    H210345   1.173   3.691   0.027
 3447TIP3   OH210346   2.275   3.084   1.635
 3447TIP3    H110347   2.315   3.000   1.614
 3447TIP3    H210348   2.256   3.080   1.728
 3448TIP3   OH210349   1.548   2.484   2.648
 3448TIP3    H110350   1.499   2.544   2.704
 3448TIP3    H210351   1.578   2.537   2.575
 3449TIP3   OH210352   2.713   0.534   2.692
 3449TIP3    H110353   2.722   0.603   2.758
 3449TIP3    H210354   2.696   0.581   2.611
 3450TIP3   OH210355   5.058   0.906   0.850
 3450TIP3    H110356   5.119   0.840   0.816
 3450TIP3    H210357   4.983   0.855   0.882
 3451TIP3   OH210358   1.481   3.361   0.721
 3451TIP3    H110359   1.486   3.358   0.626
 3451TIP3    H210360   1.471   3.454   0.742
 3452TIP3   OH210361   4.616   3.208   0.071
 3452TIP3    H110362   4.542   3.235   0.016
 3452TIP3    H210363   4.662   3.143   0.019
 3453TIP3   OH210364   2.711   2.551   2.422
 3453TIP3    H110365   2.773   2.560   2.494
 3453TIP3    H210366   2.726   2.628   2.367
 3454TIP3   OH210367   5.095   1.275   2.695
 3454TIP3    H110368   5.170   1.266   2.636
 3454TIP3    H210369   5.022   1.298   2.637
 3455TIP3   OH210370   1.756   2.240   4.951
 3455TIP3    H110371   1.780   2.229   5.043
 3455TIP3    H210372   1.686   2.176   4.937
 3456TIP3   OH210373   5.583   4.587   4.161
 3456TIP3    H110374   5.605   4.678   4.142
 3456TIP3    H210375   5.549   4.553   4.078
 3457TIP3   OH210376   5.649   2.175   3.342
 3457TIP3    H110377   5.733   2.212   3.369
 3457TIP3    H210378   5.649   2.182   3.247
 3458TIP3   OH210379   2.944   0.761   3.403
 3458TIP3    H110380   2.919   0.784   3.492
 3458TIP3    H210381   2.917   0.837   3.350
 3459TIP3   OH210382   4.825   1.654   3.062
 3459TIP3    H110383   4.896   1.653   2.997
 3459TIP3    H210384   4.746   1.662   3.010
 3460TIP3   OH210385   1.950   4.376   4.356
 3460TIP3    H110386   2.041   4.403   4.343
 3460TIP3    H210387   1.949   4.341   4.445
 3461TIP3   OH210388   3.463   4.997   2.206
 3461TIP3    H110389   3.411   4.936   2.154
 3461TIP3    H210390   3.498   5.059   2.142
 3462TIP3   OH210391   2.753   5.529   4.600
 3462TIP3    H110392   2.660   5.543   4.582
 3462TIP3    H210393   2.765   5.565   4.688
 3463TIP3   OH210394   3.867   1.241   2.967
 3463TIP3    H110395   3.775   1.256   2.988
 3463TIP3    H210396   3.865   1.194   2.883
 3464TIP3   OH210397   0.147   2.604   2.731
 3464TIP3    H110398   0.119   2.666   2.798
 3464TIP3    H210399   0.069   2.587   2.679
 3465TIP3   OH210400   0.151   1.416   4.858
 3465TIP3    H110401   0.093   1.486   4.888
 3465TIP3    H210402   0.130   1.406   4.765
 3466TIP3   OH210403   1.555   3.188   0.174
 3466TIP3    H110404   1.549   3.146   0.088
 3466TIP3    H210405   1.498   3.135   0.230
 3467TIP3   OH210406   1.665   0.016   3.905
 3467TIP3    H110407   1.719   0.036   3.828
 3467TIP3    H210408   1.711   0.057   3.978
 3468TIP3   OH210409   1.321   2.355   5.155
 3468TIP3    H110410   1.382   2.324   5.222
 3468TIP3    H210411   1.371   2.351   5.073
 3469TIP3   OH210412   3.171   2.695   3.197
 3469TIP3    H110413   3.082   2.721   3.224
 3469TIP3    H210414   3.157   2.636   3.123
 3470TIP3   OH210415   2.474   0.166   3.339
 3470TIP3    H110416   2.393   0.115   3.327
 3470TIP3    H210417   2.444   0.250   3.373
 3471TIP3   OH210418   2.734   1.808   5.159
 3471TIP3    H110419   2.816   1.856   5.146
 3471TIP3    H210420   2.674   1.845   5.094
 3472TIP3   OH210421   1.356   5.469   0.293
 3472TIP3    H110422   1.319   5.548   0.334
 3472TIP3    H210423   1.333   5.477   0.201
 3473TIP3   OH210424   0.884   2.862   3.843
 3473TIP3    H110425   0.938   2.934   3.811
 3473TIP3    H210426   0.892   2.795   3.775
 3474TIP3   OH210427   4.913   2.338   3.091
 3474TIP3    H110428   4.871   2.393   3.156
 3474TIP3    H210429   4.841   2.296   3.044
 3475TIP3   OH210430   2.754   0.640   0.666
 3475TIP3    H110431   2.758   0.704   0.595
 3475TIP3    H210432   2.717   0.688   0.740
 3476TIP3   OH210433   4.216   0.783   1.696
 3476TIP3    H110434   4.255   0.845   1.634
 3476TIP3    H210435   4.129   0.819   1.713
 3477TIP3   OH210436   3.487   0.573   1.274
 3477TIP3    H110437   3.392   0.581   1.275
 3477TIP3    H210438   3.518   0.649   1.324
 3478TIP3   OH210439   4.255   3.243   4.111
 3478TIP3    H110440   4.284   3.297   4.037
 3478TIP3    H210441   4.219   3.306   4.173
 3479TIP3   OH210442   1.613   2.104   1.308
 3479TIP3    H110443   1.702   2.132   1.287
 3479TIP3    H210444   1.624   2.027   1.363
 3480TIP3   OH210445   2.387   1.388   2.602
 3480TIP3    H110446   2.383   1.294   2.585
 3480TIP3    H210447   2.418   1.395   2.693
 3481TIP3   OH210448   1.670   0.636   0.860
 3481TIP3    H110449   1.633   0.556   0.896
 3481TIP3    H210450   1.765   0.623   0.866
 3482TIP3   OH210451   1.006   0.337   0.942
 3482TIP3    H110452   1.027   0.406   1.005
 3482TIP3    H210453   1.083   0.331   0.886
 3483TIP3   OH210454   0.692   3.015   0.516
 3483TIP3    H110455   0.706   3.109   0.507
 3483TIP3    H210456   0.758   2.986   0.580
 3484TIP3   OH210457   0.031  -0.010   1.553
 3484TIP3    H110458  -0.028   0.062   1.532
 3484TIP3    H210459  -0.015  -0.088   1.522
 3485TIP3   OH210460   4.897   0.378   3.204
 3485TIP3    H110461   4.820   0.323   3.198
 3485TIP3    H210462   4.967   0.327   3.163
 3486TIP3   OH210463   5.845   5.599   1.076
 3486TIP3    H110464   5.775   5.540   1.048
 3486TIP3    H210465   5.841   5.599   1.171
 3487TIP3   OH210466   1.586   1.319   1.038
 3487TIP3    H110467   1.682   1.314   1.042
 3487TIP3    H210468   1.563   1.392   1.095
 3488TIP3   OH210469   4.797   1.288   0.218
 3488TIP3    H110470   4.822   1.278   0.310
 3488TIP3    H210471   4.866   1.344   0.181
 3489TIP3   OH210472   1.733   0.899   3.808
 3489TIP3    H110473   1.696   0.811   3.799
 3489TIP3    H210474   1.771   0.901   3.895
 3490TIP3   OH210475   0.732   2.694   0.363
 3490TIP3    H110476   0.680   2.730   0.435
 3490TIP3    H210477   0.792   2.633   0.406
 3491TIP3   OH210478   0.157   3.220   0.544
 3491TIP3    H110479   0.074   3.181   0.573
 3491TIP3    H210480   0.151   3.220   0.448
 3492TIP3   OH210481   5.454   5.270   0.867
 3492TIP3    H110482   5.413   5.354   0.885
 3492TIP3    H210483   5.416   5.210   0.932
 3493TIP3   OH210484   1.949   5.585   2.358
 3493TIP3    H110485   1.994   5.516   2.308
 3493TIP3    H210486   2.017   5.651   2.372
 3494TIP3   OH210487   3.568   1.549   4.307
 3494TIP3    H110488   3.525   1.559   4.222
 3494TIP3    H210489   3.573   1.638   4.342
 3495TIP3   OH210490   1.336   1.884   4.085
 3495TIP3    H110491   1.383   1.892   4.168
 3495TIP3    H210492   1.265   1.822   4.103
 3496TIP3   OH210493   4.166   2.913   1.835
 3496TIP3    H110494   4.185   3.002   1.804
 3496TIP3    H210495   4.128   2.870   1.758
 3497TIP3   OH210496   1.294   2.384   2.864
 3497TIP3    H110497   1.336   2.454   2.814
 3497TIP3    H210498   1.200   2.400   2.853
 3498TIP3   OH210499   2.496   3.220   1.920
 3498TIP3    H110500   2.487   3.154   1.852
 3498TIP3    H210501   2.567   3.277   1.890
 3499TIP3   OH210502   4.223   5.584   0.244
 3499TIP3    H110503   4.197   5.669   0.211
 3499TIP3    H210504   4.268   5.542   0.171
 3500TIP3   OH210505   4.805   4.345   3.999
 3500TIP3    H110506   4.900   4.350   3.988
 3500TIP3    H210507   4.789   4.371   4.089
 3501TIP3   OH210508   2.729   4.492   0.568
 3501TIP3    H110509   2.705   4.424   0.505
 3501TIP3    H210510   2.661   4.558   0.561
 3502TIP3   OH210511   4.182   1.632   4.400
 3502TIP3    H110512   4.274   1.644   4.425
 3502TIP3    H210513   4.154   1.554   4.447
 3503TIP3   OH210514   5.808   3.978   0.650
 3503TIP3    H110515   5.735   4.008   0.704
 3503TIP3    H210516   5.840   4.058   0.607
 3504TIP3   OH210517   0.455   5.160   2.393
 3504TIP3    H110518   0.490   5.113   2.317
 3504TIP3    H210519   0.394   5.099   2.433
 3505TIP3   OH210520   3.790   0.305   1.830
 3505TIP3    H110521   3.766   0.398   1.829
 3505TIP3    H210522   3.731   0.265   1.893
 3506TIP3   OH210523   5.315   5.068   1.056
 3506TIP3    H110524   5.290   5.157   1.079
 3506TIP3    H210525   5.299   5.018   1.136
 3507TIP3   OH210526   2.746   5.184   4.879
 3507TIP3    H110527   2.716   5.183   4.788
 3507TIP3    H210528   2.670   5.158   4.931
 3508TIP3   OH210529   4.626   0.889   2.194
 3508TIP3    H110530   4.696   0.869   2.132
 3508TIP3    H210531   4.652   0.845   2.275
 3509TIP3   OH210532   4.354   3.393   3.147
 3509TIP3    H110533   4.397   3.338   3.212
 3509TIP3    H210534   4.359   3.341   3.066
 3510TIP3   OH210535   5.065   4.116   2.181
 3510TIP3    H110536   5.011   4.083   2.253
 3510TIP3    H210537   5.012   4.183   2.140
 3511TIP3   OH210538   0.329   3.531   2.047
 3511TIP3    H110539   0.275   3.452   2.045
 3511TIP3    H210540   0.304   3.576   2.128
 3512TIP3   OH210541   3.140   5.129   2.563
 3512TIP3    H110542   3.157   5.037   2.546
 3512TIP3    H210543   3.192   5.175   2.496
 3513TIP3   OH210544   3.671   0.183   1.066
 3513TIP3    H110545   3.741   0.195   1.130
 3513TIP3    H210546   3.623   0.107   1.098
 3514TIP3   OH210547   3.623   3.106   2.945
 3514TIP3    H110548   3.689   3.125   2.879
 3514TIP3    H210549   3.661   3.134   3.028
 3515TIP3   OH210550   1.228   5.158   1.911
 3515TIP3    H110551   1.289   5.115   1.971
 3515TIP3    H210552   1.238   5.251   1.931
 3516TIP3   OH210553   3.645   4.274   4.044
 3516TIP3    H110554   3.561   4.300   4.007
 3516TIP3    H210555   3.703   4.348   4.025
 3517TIP3   OH210556   4.487   2.207   0.962
 3517TIP3    H110557   4.521   2.118   0.950
 3517TIP3    H210558   4.563   2.259   0.985
 3518TIP3   OH210559   5.974   0.570   3.105
 3518TIP3    H110560   6.018   0.612   3.179
 3518TIP3    H210561   5.884   0.556   3.135
 3519TIP3   OH210562   2.406   5.790   4.751
 3519TIP3    H110563   2.424   5.760   4.841
 3519TIP3    H210564   2.372   5.713   4.707
 3520TIP3   OH210565   1.986   1.904   1.607
 3520TIP3    H110566   2.057   1.937   1.663
 3520TIP3    H210567   1.907   1.917   1.660
 3521TIP3   OH210568   0.802   2.208   0.203
 3521TIP3    H110569   0.895   2.232   0.197
 3521TIP3    H210570   0.801   2.130   0.258
 3522TIP3   OH210571   2.478   4.168   0.071
 3522TIP3    H110572   2.426   4.196   0.146
 3522TIP3    H210573   2.416   4.169  -0.002
 3523TIP3   OH210574   3.115   5.195   5.129
 3523TIP3    H110575   3.037   5.249   5.142
 3523TIP3    H210576   3.082   5.112   5.095
 3524TIP3   OH210577   3.840   3.423   4.749
 3524TIP3    H110578   3.932   3.402   4.737
 3524TIP3    H210579   3.792   3.351   4.708
 3525TIP3   OH210580   1.837   2.648   4.609
 3525TIP3    H110581   1.765   2.671   4.550
 3525TIP3    H210582   1.833   2.713   4.679
 3526TIP3   OH210583   2.056   4.567   1.689
 3526TIP3    H110584   2.052   4.536   1.599
 3526TIP3    H210585   1.970   4.547   1.725
 3527TIP3   OH210586   1.001   4.285   2.132
 3527TIP3    H110587   0.980   4.191   2.130
 3527TIP3    H210588   0.923   4.326   2.171
 3528TIP3   OH210589   1.525   3.394   0.457
 3528TIP3    H110590   1.579   3.429   0.386
 3528TIP3    H210591   1.443   3.370   0.415
 3529TIP3   OH210592   4.103   0.494   4.248
 3529TIP3    H110593   4.166   0.562   4.274
 3529TIP3    H210594   4.136   0.461   4.165
 3530TIP3   OH210595   3.722   3.009   4.729
 3530TIP3    H110596   3.734   2.917   4.705
 3530TIP3    H210597   3.810   3.039   4.752
 3531TIP3   OH210598   6.180   1.882   2.498
 3531TIP3    H110599   6.117   1.928   2.442
 3531TIP3    H210600   6.262   1.930   2.487
 3532TIP3   OH210601   3.854   4.757   0.469
 3532TIP3    H110602   3.929   4.812   0.447
 3532TIP3    H210603   3.804   4.750   0.388
 3533TIP3   OH210604   5.482   5.625   1.249
 3533TIP3    H110605   5.473   5.574   1.329
 3533TIP3    H210606   5.435   5.707   1.267
 3534TIP3   OH210607   2.157   5.450   2.173
 3534TIP3    H110608   2.250   5.431   2.168
 3534TIP3    H210609   2.114   5.365   2.159
 3535TIP3   OH210610   2.274   1.294   4.867
 3535TIP3    H110611   2.322   1.326   4.943
 3535TIP3    H210612   2.222   1.221   4.899
 3536TIP3   OH210613   4.742   5.303   4.362
 3536TIP3    H110614   4.697   5.355   4.295
 3536TIP3    H210615   4.778   5.368   4.422
 3537TIP3   OH210616   5.425   2.133   0.064
 3537TIP3    H110617   5.518   2.144   0.044
 3537TIP3    H210618   5.407   2.041   0.047
 3538TIP3   OH210619   1.319   5.031   2.130
 3538TIP3    H110620   1.268   4.953   2.153
 3538TIP3    H210621   1.381   5.000   2.064
 3539TIP3   OH210622   1.198   0.145   0.868
 3539TIP3    H110623   1.287   0.121   0.841
 3539TIP3    H210624   1.210   0.193   0.950
 3540TIP3   OH210625   2.449   2.391   0.465
 3540TIP3    H110626   2.376   2.422   0.411
 3540TIP3    H210627   2.527   2.410   0.413
 3541TIP3   OH210628   5.533   0.380  -0.011
 3541TIP3    H110629   5.511   0.371   0.082
 3541TIP3    H210630   5.629   0.383  -0.013
 3542TIP3   OH210631   3.526   1.494   0.061
 3542TIP3    H110632   3.472   1.467   0.135
 3542TIP3    H210633   3.567   1.576   0.090
 3543TIP3   OH210634   3.616   2.831   0.392
 3543TIP3    H110635   3.554   2.758   0.396
 3543TIP3    H210636   3.640   2.847   0.483
 3544TIP3   OH210637   0.554   2.607   0.571
 3544TIP3    H110638   0.536   2.559   0.491
 3544TIP3    H210639   0.520   2.551   0.641
 3545TIP3   OH210640   2.851   2.588   3.848
 3545TIP3    H110641   2.925   2.631   3.890
 3545TIP3    H210642   2.832   2.513   3.903
 3546TIP3   OH210643   2.740   1.854   0.163
 3546TIP3    H110644   2.777   1.766   0.156
 3546TIP3    H210645   2.721   1.880   0.073
 3547TIP3   OH210646   4.829   1.375   1.882
 3547TIP3    H110647   4.760   1.438   1.902
 3547TIP3    H210648   4.783   1.300   1.844
 3548TIP3   OH210649   2.183   3.421   3.240
 3548TIP3    H110650   2.225   3.497   3.279
 3548TIP3    H210651   2.090   3.443   3.239
 3549TIP3   OH210652   3.784   4.563   0.650
 3549TIP3    H110653   3.873   4.536   0.628
 3549TIP3    H210654   3.780   4.654   0.621
 3550TIP3   OH210655   1.202   0.514   5.154
 3550TIP3    H110656   1.141   0.478   5.219
 3550TIP3    H210657   1.163   0.491   5.069
 3551TIP3   OH210658   1.431   0.491   4.592
 3551TIP3    H110659   1.409   0.401   4.566
 3551TIP3    H210660   1.357   0.519   4.645
 3552TIP3   OH210661   1.151   0.430   4.502
 3552TIP3    H110662   1.173   0.357   4.445
 3552TIP3    H210663   1.071   0.466   4.465
 3553TIP3   OH210664   5.099   0.753   2.738
 3553TIP3    H110665   5.070   0.786   2.653
 3553TIP3    H210666   5.131   0.830   2.784
 3554TIP3   OH210667   3.362   4.209   4.558
 3554TIP3    H110668   3.375   4.264   4.636
 3554TIP3    H210669   3.443   4.159   4.551
 3555TIP3   OH210670   0.116   3.460   0.157
 3555TIP3    H110671   0.033   3.416   0.177
 3555TIP3    H210672   0.145   3.421   0.075
 3556TIP3   OH210673   2.152   2.711   1.623
 3556TIP3    H110674   2.151   2.674   1.535
 3556TIP3    H210675   2.245   2.722   1.643
 3557TIP3   OH210676   1.594   5.489   1.948
 3557TIP3    H110677   1.643   5.515   2.026
 3557TIP3    H210678   1.567   5.572   1.908
 3558TIP3   OH210679   2.534   4.940   0.601
 3558TIP3    H110680   2.548   4.854   0.562
 3558TIP3    H210681   2.514   4.921   0.693
 3559TIP3   OH210682   2.905   2.013   1.211
 3559TIP3    H110683   2.853   1.981   1.138
 3559TIP3    H210684   2.990   1.969   1.201
 3560TIP3   OH210685   3.352   2.747   0.579
 3560TIP3    H110686   3.313   2.715   0.497
 3560TIP3    H210687   3.315   2.835   0.589
 3561TIP3   OH210688   0.101   3.796   4.037
 3561TIP3    H110689   0.187   3.837   4.034
 3561TIP3    H210690   0.043   3.864   4.070
 3562TIP3   OH210691   0.821   3.950   1.362
 3562TIP3    H110692   0.747   3.961   1.421
 3562TIP3    H210693   0.809   4.017   1.295
 3563TIP3   OH210694   3.113   0.100   3.747
 3563TIP3    H110695   3.077   0.152   3.675
 3563TIP3    H210696   3.181   0.155   3.786
 3564TIP3   OH210697   6.152   4.766   4.811
 3564TIP3    H110698   6.168   4.860   4.805
 3564TIP3    H210699   6.090   4.747   4.740
 3565TIP3   OH210700   5.538   2.167   4.415
 3565TIP3    H110701   5.591   2.119   4.351
 3565TIP3    H210702   5.600   2.224   4.459
 3566TIP3   OH210703   1.522   3.554   2.362
 3566TIP3    H110704   1.550   3.480   2.416
 3566TIP3    H210705   1.466   3.515   2.295
 3567TIP3   OH210706   3.848   1.501   0.828
 3567TIP3    H110707   3.900   1.420   0.827
 3567TIP3    H210708   3.895   1.558   0.889
 3568TIP3   OH210709   3.287   0.181   3.327
 3568TIP3    H110710   3.258   0.089   3.329
 3568TIP3    H210711   3.305   0.198   3.235
 3569TIP3   OH210712   0.835   4.729   4.570
 3569TIP3    H110713   0.788   4.647   4.561
 3569TIP3    H210714   0.836   4.766   4.481
 3570TIP3   OH210715   3.928   0.107   4.947
 3570TIP3    H110716   3.886   0.085   5.030
 3570TIP3    H210717   3.971   0.026   4.920
 3571TIP3   OH210718   1.153   2.893   0.862
 3571TIP3    H110719   1.230   2.948   0.877
 3571TIP3    H210720   1.188   2.814   0.820
 3572TIP3   OH210721   1.321   5.655   1.226
 3572TIP3    H110722   1.416   5.669   1.235
 3572TIP3    H210723   1.313   5.600   1.148
 3573TIP3   OH210724   2.343   3.930   2.917
 3573TIP3    H110725   2.306   3.850   2.879
 3573TIP3    H210726   2.386   3.974   2.843
 3574TIP3   OH210727   1.830   0.325   0.729
 3574TIP3    H110728   1.744   0.291   0.706
 3574TIP3    H210729   1.892   0.264   0.689
 3575TIP3   OH210730   1.094   5.688   0.675
 3575TIP3    H110731   1.013   5.641   0.652
 3575TIP3    H210732   1.077   5.721   0.763
 3576TIP3   OH210733   2.533   4.654   0.504
 3576TIP3    H110734   2.538   4.699   0.419
 3576TIP3    H210735   2.442   4.664   0.531
 3577TIP3   OH210736   6.338   1.767   4.771
 3577TIP3    H110737   6.277   1.731   4.707
 3577TIP3    H210738   6.342   1.700   4.840
 3578TIP3   OH210739   5.628   2.487   3.217
 3578TIP3    H110740   5.600   2.410   3.167
 3578TIP3    H210741   5.551   2.511   3.269
 3579TIP3   OH210742   1.935   2.317   4.166
 3579TIP3    H110743   1.908   2.396   4.213
 3579TIP3    H210744   2.027   2.333   4.143
 3580TIP3   OH210745   4.320   0.698   2.202
 3580TIP3    H110746   4.254   0.752   2.158
 3580TIP3    H210747   4.397   0.705   2.146
 3581TIP3   OH210748   5.800   0.770   3.425
 3581TIP3    H110749   5.860   0.841   3.402
 3581TIP3    H210750   5.837   0.692   3.383
 3582TIP3   OH210751   4.086   3.657   5.040
 3582TIP3    H110752   4.115   3.620   4.956
 3582TIP3    H210753   4.097   3.751   5.029
 3583TIP3   OH210754   1.348   1.251   0.879
 3583TIP3    H110755   1.430   1.245   0.929
 3583TIP3    H210756   1.354   1.182   0.814
 3584TIP3   OH210757   6.041   3.004   2.514
 3584TIP3    H110758   6.100   2.987   2.440
 3584TIP3    H210759   6.051   3.097   2.532
 3585TIP3   OH210760   2.939   0.928   2.642
 3585TIP3    H110761   2.849   0.896   2.649
 3585TIP3    H210762   2.933   1.005   2.586
 3586TIP3   OH210763   5.949   5.302   2.462
 3586TIP3    H110764   5.872   5.345   2.426
 3586TIP3    H210765   5.993   5.264   2.386
 3587TIP3   OH210766   1.631   1.295   0.176
 3587TIP3    H110767   1.717   1.304   0.218
 3587TIP3    H210768   1.602   1.207   0.202
 3588TIP3   OH210769   2.590   2.664   2.739
 3588TIP3    H110770   2.576   2.759   2.738
 3588TIP3    H210771   2.551   2.635   2.822
 3589TIP3   OH210772   6.174   3.963   2.113
 3589TIP3    H110773   6.159   3.991   2.022
 3589TIP3    H210774   6.087   3.964   2.153
 3590TIP3   OH210775   4.819   0.881   3.643
 3590TIP3    H110776   4.866   0.799   3.629
 3590TIP3    H210777   4.852   0.914   3.726
 3591TIP3   OH210778   2.120   4.061   0.217
 3591TIP3    H110779   2.135   3.978   0.171
 3591TIP3    H210780   2.025   4.074   0.212
 3592TIP3   OH210781   2.747   4.718   4.873
 3592TIP3    H110782   2.827   4.693   4.920
 3592TIP3    H210783   2.778   4.768   4.798
 3593TIP3   OH210784   6.175   3.748   3.476
 3593TIP3    H110785   6.256   3.697   3.481
 3593TIP3    H210786   6.147   3.740   3.385
 3594TIP3   OH210787   3.850   4.115   4.139
 3594TIP3    H110788   3.761   4.144   4.119
 3594TIP3    H210789   3.902   4.140   4.063
 3595TIP3   OH210790   1.809   5.253   4.274
 3595TIP3    H110791   1.770   5.337   4.250
 3595TIP3    H210792   1.891   5.276   4.317
 3596TIP3   OH210793   6.311   3.915   0.755
 3596TIP3    H110794   6.340   3.828   0.725
 3596TIP3    H210795   6.223   3.924   0.718
 3597TIP3   OH210796   3.817   3.393   4.343
 3597TIP3    H110797   3.893   3.356   4.387
 3597TIP3    H210798   3.823   3.362   4.253
 3598TIP3   OH210799   4.738   0.806   1.682
 3598TIP3    H110800   4.769   0.745   1.749
 3598TIP3    H210801   4.645   0.817   1.700
 3599TIP3   OH210802   6.334   4.008   3.834
 3599TIP3    H110803   6.312   4.019   3.926
 3599TIP3    H210804   6.291   3.926   3.808
 3600TIP3   OH210805   1.555   3.504   3.985
 3600TIP3    H110806   1.632   3.547   4.022
 3600TIP3    H210807   1.572   3.504   3.890
 3601TIP3   OH210808   4.796   0.689   2.693
 3601TIP3    H110809   4.718   0.672   2.746
 3601TIP3    H210810   4.863   0.633   2.731
 3602TIP3   OH210811   5.337   5.319   4.566
 3602TIP3    H110812   5.286   5.383   4.517
 3602TIP3    H210813   5.323   5.236   4.519
 3603TIP3   OH210814   5.805   1.874   1.082
 3603TIP3    H110815   5.797   1.781   1.062
 3603TIP3    H210816   5.890   1.899   1.045
 3604TIP3   OH210817   6.027   4.082   3.284
 3604TIP3    H110818   6.094   4.148   3.267
 3604TIP3    H210819   6.043   4.055   3.374
 3605TIP3   OH210820   1.250   4.410   0.688
 3605TIP3    H110821   1.218   4.320   0.702
 3605TIP3    H210822   1.202   4.440   0.611
 3606TIP3   OH210823   2.800   5.843   0.902
 3606TIP3    H110824   2.881   5.834   0.852
 3606TIP3    H210825   2.758   5.921   0.865
 3607TIP3   OH210826   5.151   5.017   0.542
 3607TIP3    H110827   5.085   5.087   0.539
 3607TIP3    H210828   5.233   5.062   0.562
 3608TIP3   OH210829   5.336   1.785   4.448
 3608TIP3    H110830   5.295   1.759   4.365
 3608TIP3    H210831   5.262   1.796   4.508
 3609TIP3   OH210832   1.092   4.503   2.720
 3609TIP3    H110833   1.118   4.595   2.717
 3609TIP3    H210834   1.132   4.464   2.642
 3610TIP3   OH210835   4.402   0.119   0.124
 3610TIP3    H110836   4.331   0.175   0.094
 3610TIP3    H210837   4.381   0.101   0.216
 3611TIP3   OH210838   6.336   3.652   1.060
 3611TIP3    H110839   6.260   3.619   1.108
 3611TIP3    H210840   6.342   3.594   0.984
 3612TIP3   OH210841   0.517   0.176   4.280
 3612TIP3    H110842   0.448   0.242   4.283
 3612TIP3    H210843   0.555   0.185   4.193
 3613TIP3   OH210844   2.099   3.667   1.025
 3613TIP3    H110845   2.028   3.727   1.002
 3613TIP3    H210846   2.122   3.625   0.942
 3614TIP3   OH210847   5.401   0.467   4.552
 3614TIP3    H110848   5.320   0.487   4.599
 3614TIP3    H210849   5.396   0.519   4.472
 3615TIP3   OH210850   5.986   1.234   3.321
 3615TIP3    H110851   6.075   1.230   3.285
 3615TIP3    H210852   5.975   1.326   3.347
 3616TIP3   OH210853   1.217   5.491   4.747
 3616TIP3    H110854   1.212   5.570   4.695
 3616TIP3    H210855   1.190   5.421   4.688
 3617TIP3   OH210856   3.961   5.758   2.390
 3617TIP3    H110857   3.931   5.668   2.399
 3617TIP3    H210858   3.891   5.811   2.427
 3618TIP3   OH210859   3.901   4.370   2.176
 3618TIP3    H110860   3.830   4.430   2.155
 3618TIP3    H210861   3.959   4.420   2.234
 3619TIP3   OH210862   5.628   3.447   2.081
 3619TIP3    H110863   5.591   3.359   2.078
 3619TIP3    H210864   5.640   3.465   2.175
 3620TIP3   OH210865   3.740   3.495   2.830
 3620TIP3    H110866   3.779   3.407   2.831
 3620TIP3    H210867   3.648   3.480   2.808
 3621TIP3   OH210868   3.715   5.515   0.608
 3621TIP3    H110869   3.688   5.454   0.539
 3621TIP3    H210870   3.703   5.602   0.568
 3622TIP3   OH210871   1.316   2.872   1.968
 3622TIP3    H110872   1.324   2.868   1.872
 3622TIP3    H210873   1.400   2.839   2.000
 3623TIP3   OH210874   5.996   1.421   3.647
 3623TIP3    H110875   5.933   1.391   3.714
 3623TIP3    H210876   6.044   1.342   3.623
 3624TIP3   OH210877   5.137   0.182   0.648
 3624TIP3    H110878   5.097   0.106   0.607
 3624TIP3    H210879   5.222   0.152   0.678
 3625TIP3   OH210880   2.738   5.902   1.997
 3625TIP3    H110881   2.739   5.996   2.017
 3625TIP3    H210882   2.748   5.898   1.902
 3626TIP3   OH210883   3.808   0.271   0.450
 3626TIP3    H110884   3.809   0.189   0.499
 3626TIP3    H210885   3.716   0.283   0.425
 3627TIP3   OH210886   2.494   0.628   3.438
 3627TIP3    H110887   2.418   0.662   3.485
 3627TIP3    H210888   2.545   0.705   3.414
 3628TIP3   OH210889   3.766   0.671   1.221
 3628TIP3    H110890   3.691   0.624   1.255
 3628TIP3    H210891   3.744   0.764   1.232
 3629TIP3   OH210892   2.561   4.514   4.914
 3629TIP3    H110893   2.560   4.533   5.008
 3629TIP3    H210894   2.628   4.573   4.879
 3630TIP3   OH210895   4.747   4.079   3.081
 3630TIP3    H110896   4.761   3.985   3.067
 3630TIP3    H210897   4.708   4.110   3.000
 3631TIP3   OH210898   0.704   2.489   0.920
 3631TIP3    H110899   0.692   2.581   0.896
 3631TIP3    H210900   0.624   2.446   0.892
 3632TIP3   OH210901   4.791   3.753   4.943
 3632TIP3    H110902   4.823   3.817   4.880
 3632TIP3    H210903   4.807   3.668   4.901
 3633TIP3   OH210904   3.039   5.785   1.902
 3633TIP3    H110905   3.050   5.690   1.894
 3633TIP3    H210906   2.949   5.801   1.872
 3634TIP3   OH210907   5.581   1.078   2.771
 3634TIP3    H110908   5.599   1.154   2.827
 3634TIP3    H210909   5.486   1.070   2.772
 3635TIP3   OH210910   6.040   3.230   2.171
 3635TIP3    H110911   6.099   3.197   2.103
 3635TIP3    H210912   5.955   3.194   2.147
 3636TIP3   OH210913   3.678   1.387   2.716
 3636TIP3    H110914   3.726   1.351   2.642
 3636TIP3    H210915   3.594   1.340   2.716
 3637TIP3   OH210916   1.135   2.281   2.159
 3637TIP3    H110917   1.153   2.322   2.075
 3637TIP3    H210918   1.061   2.222   2.142
 3638TIP3   OH210919   3.205   1.570   2.068
 3638TIP3    H110920   3.177   1.544   1.980
 3638TIP3    H210921   3.289   1.526   2.081
 3639TIP3   OH210922   5.633   1.786   4.590
 3639TIP3    H110923   5.679   1.724   4.534
 3639TIP3    H210924   5.552   1.805   4.543
 3640TIP3   OH210925   0.079   0.590   3.599
 3640TIP3    H110926   0.171   0.570   3.616
 3640TIP3    H210927   0.070   0.682   3.623
 3641TIP3   OH210928   1.639   4.646   2.456
 3641TIP3    H110929   1.554   4.690   2.455
 3641TIP3    H210930   1.701   4.713   2.428
 3642TIP3   OH210931   4.752   0.849   4.095
 3642TIP3    H110932   4.680   0.801   4.054
 3642TIP3    H210933   4.735   0.843   4.189
 3643TIP3   OH210934   4.489   1.621   0.940
 3643TIP3    H110935   4.459   1.577   0.861
 3643TIP3    H210936   4.524   1.549   0.994
 3644TIP3   OH210937   3.243   2.738   3.574
 3644TIP3    H110938   3.280   2.811   3.624
 3644TIP3    H210939   3.286   2.661   3.610
 3645TIP3   OH210940   5.056   2.150   4.899
 3645TIP3    H110941   5.047   2.245   4.903
 3645TIP3    H210942   5.074   2.132   4.806
 3646TIP3   OH210943   5.107   5.449   4.036
 3646TIP3    H110944   5.025   5.481   4.072
 3646TIP3    H210945   5.107   5.479   3.945
 3647TIP3   OH210946   6.023   1.313   1.861
 3647TIP3    H110947   6.005   1.407   1.854
 3647TIP3    H210948   6.116   1.304   1.843
 3648TIP3   OH210949   1.821   1.098   4.736
 3648TIP3    H110950   1.897   1.089   4.678
 3648TIP3    H210951   1.819   1.016   4.785
 3649TIP3   OH210952   4.719   5.265   0.447
 3649TIP3    H110953   4.729   5.176   0.412
 3649TIP3    H210954   4.662   5.309   0.384
 3650TIP3   OH210955   1.516   1.895   5.061
 3650TIP3    H110956   1.450   1.899   5.130
 3650TIP3    H210957   1.568   1.817   5.082
 3651TIP3   OH210958   0.435   1.936   0.588
 3651TIP3    H110959   0.392   1.917   0.504
 3651TIP3    H210960   0.420   1.857   0.640
 3652TIP3   OH210961   5.442   1.924   3.076
 3652TIP3    H110962   5.353   1.950   3.050
 3652TIP3    H210963   5.494   1.937   2.996
 3653TIP3   OH210964   4.018   2.328   4.978
 3653TIP3    H110965   3.950   2.279   5.024
 3653TIP3    H210966   3.990   2.329   4.887
 3654TIP3   OH210967   2.866   4.344   3.560
 3654TIP3    H110968   2.808   4.376   3.492
 3654TIP3    H210969   2.952   4.378   3.536
 3655TIP3   OH210970   6.228   4.637   0.774
 3655TIP3    H110971   6.306   4.584   0.757
 3655TIP3    H210972   6.206   4.675   0.689
 3656TIP3   OH210973   5.687   5.877   2.973
 3656TIP3    H110974   5.602   5.915   2.948
 3656TIP3    H210975   5.729   5.855   2.890
 3657TIP3   OH210976   0.567   5.035   0.997
 3657TIP3    H110977   0.533   4.948   0.977
 3657TIP3    H210978   0.574   5.078   0.911
 3658TIP3   OH210979   2.382   5.345   1.681
 3658TIP3    H110980   2.326   5.421   1.669
 3658TIP3    H210981   2.361   5.313   1.769
 3659TIP3   OH210982   6.023   5.012   3.131
 3659TIP3    H110983   5.955   4.951   3.103
 3659TIP3    H210984   6.039   5.068   3.055
 3660TIP3   OH210985   6.120   2.093   1.592
 3660TIP3    H110986   6.183   2.076   1.662
 3660TIP3    H210987   6.157   2.167   1.544
 3661TIP3   OH210988   1.125   0.088   0.282
 3661TIP3    H110989   1.030   0.075   0.282
 3661TIP3    H210990   1.155   0.039   0.205
 3662TIP3   OH210991   5.811   1.736   3.428
 3662TIP3    H110992   5.721   1.766   3.416
 3662TIP3    H210993   5.852   1.746   3.342
 3663TIP3   OH210994   5.458   4.567   5.040
 3663TIP3    H110995   5.507   4.650   5.034
 3663TIP3    H210996   5.499   4.520   5.113
 3664TIP3   OH210997   0.304   5.710   0.854
 3664TIP3    H110998   0.221   5.682   0.815
 3664TIP3    H210999   0.332   5.783   0.798
 3665TIP3   OH211000   5.738   1.408   1.318
 3665TIP3    H111001   5.742   1.381   1.410
 3665TIP3    H211002   5.756   1.502   1.320
 3666TIP3   OH211003   0.920   4.457   4.768
 3666TIP3    H111004   1.011   4.473   4.794
 3666TIP3    H211005   0.919   4.467   4.673
 3667TIP3   OH211006   3.698   4.337   4.367
 3667TIP3    H111007   3.618   4.322   4.316
 3667TIP3    H211008   3.754   4.387   4.307
 3668TIP3   OH211009   5.899   0.700   2.776
 3668TIP3    H111010   5.866   0.639   2.710
 3668TIP3    H211011   5.911   0.646   2.855
 3669TIP3   OH211012   3.805   1.784   4.986
 3669TIP3    H111013   3.886   1.833   4.974
 3669TIP3    H211014   3.762   1.788   4.901
 3670TIP3   OH211015   0.022   1.544   4.587
 3670TIP3    H111016   0.118   1.540   4.596
 3670TIP3    H211017   0.007   1.569   4.496
 3671TIP3   OH211018   5.447   1.263   2.316
 3671TIP3    H111019   5.380   1.271   2.383
 3671TIP3    H211020   5.472   1.354   2.296
 3672TIP3   OH211021   3.916   5.357   4.119
 3672TIP3    H111022   4.001   5.315   4.127
 3672TIP3    H211023   3.904   5.369   4.024
 3673TIP3   OH211024   1.940   5.828   0.905
 3673TIP3    H111025   1.994   5.786   0.838
 3673TIP3    H211026   1.989   5.907   0.930
 3674TIP3   OH211027   3.724   5.725   3.127
 3674TIP3    H111028   3.765   5.811   3.132
 3674TIP3    H211029   3.656   5.727   3.194
 3675TIP3   OH211030   3.591   1.711   1.150
 3675TIP3    H111031   3.635   1.632   1.181
 3675TIP3    H211032   3.662   1.771   1.126
 3676TIP3   OH211033   4.811   4.386   3.225
 3676TIP3    H111034   4.904   4.368   3.213
 3676TIP3    H211035   4.778   4.312   3.276
 3677TIP3   OH211036   4.077   4.208   2.601
 3677TIP3    H111037   4.106   4.117   2.599
 3677TIP3    H211038   3.984   4.203   2.578
 3678TIP3   OH211039   0.183   4.394   2.823
 3678TIP3    H111040   0.194   4.419   2.915
 3678TIP3    H211041   0.149   4.473   2.781
 3679TIP3   OH211042   3.551   2.362   1.397
 3679TIP3    H111043   3.579   2.387   1.309
 3679TIP3    H211044   3.484   2.426   1.420
 3680TIP3   OH211045   2.166   4.792   0.379
 3680TIP3    H111046   2.223   4.869   0.386
 3680TIP3    H211047   2.217   4.728   0.329
 3681TIP3   OH211048   4.599   0.080   4.734
 3681TIP3    H111049   4.574  -0.013   4.736
 3681TIP3    H211050   4.685   0.082   4.777
 3682TIP3   OH211051   5.484   0.705   1.495
 3682TIP3    H111052   5.463   0.712   1.402
 3682TIP3    H211053   5.565   0.654   1.497
 3683TIP3   OH211054   0.916   5.295   1.821
 3683TIP3    H111055   0.918   5.220   1.881
 3683TIP3    H211056   0.835   5.341   1.844
 3684TIP3   OH211057   1.214   0.045   2.973
 3684TIP3    H111058   1.253   0.116   2.922
 3684TIP3    H211059   1.128   0.031   2.934
 3685TIP3   OH211060   0.121   3.990   1.388
 3685TIP3    H111061   0.092   3.985   1.297
 3685TIP3    H211062   0.070   4.062   1.425
 3686TIP3   OH211063   2.869   5.810   2.218
 3686TIP3    H111064   2.806   5.832   2.150
 3686TIP3    H211065   2.913   5.892   2.238
 3687TIP3   OH211066   1.382   4.823   2.449
 3687TIP3    H111067   1.355   4.867   2.369
 3687TIP3    H211068   1.313   4.760   2.467
 3688TIP3   OH211069   2.643   3.942   5.081
 3688TIP3    H111070   2.663   4.032   5.059
 3688TIP3    H211071   2.600   3.907   5.003
 3689TIP3   OH211072   6.235   2.011   2.102
 3689TIP3    H111073   6.165   2.007   2.037
 3689TIP3    H211074   6.279   1.926   2.094
 3690TIP3   OH211075   2.644   3.087   1.718
 3690TIP3    H111076   2.690   3.164   1.686
 3690TIP3    H211077   2.620   3.039   1.639
 3691TIP3   OH211078   5.353   4.504   4.017
 3691TIP3    H111079   5.314   4.568   3.956
 3691TIP3    H211080   5.298   4.509   4.095
 3692TIP3   OH211081   5.429   0.368   2.799
 3692TIP3    H111082   5.442   0.436   2.733
 3692TIP3    H211083   5.487   0.392   2.870
 3693TIP3   OH211084   2.591   5.902   0.639
 3693TIP3    H111085   2.537   5.879   0.715
 3693TIP3    H211086   2.622   5.818   0.605
 3694TIP3   OH211087   0.002   4.014   4.638
 3694TIP3    H111088   0.011   4.062   4.555
 3694TIP3    H211089   0.093   4.001   4.667
 3695TIP3   OH211090   0.724   1.257   4.399
 3695TIP3    H111091   0.781   1.185   4.372
 3695TIP3    H211092   0.729   1.256   4.495
 3696TIP3   OH211093   0.996   5.630   4.400
 3696TIP3    H111094   0.968   5.554   4.348
 3696TIP3    H211095   1.001   5.701   4.336
 3697TIP3   OH211096   4.261   2.453   2.581
 3697TIP3    H111097   4.343   2.503   2.583
 3697TIP3    H211098   4.201   2.509   2.531
 3698TIP3   OH211099   3.320   5.833   0.531
 3698TIP3    H111100   3.282   5.766   0.587
 3698TIP3    H211101   3.404   5.797   0.504
 3699TIP3   OH211102   2.143   1.541   2.972
 3699TIP3    H111103   2.226   1.571   3.008
 3699TIP3    H211104   2.136   1.586   2.887
 3700TIP3   OH211105   2.552   1.530   0.111
 3700TIP3    H111106   2.602   1.605   0.145
 3700TIP3    H211107   2.619   1.469   0.080
 3701TIP3   OH211108   0.441   5.407   2.291
 3701TIP3    H111109   0.444   5.311   2.289
 3701TIP3    H211110   0.348   5.428   2.301
 3702TIP3   OH211111   6.191   3.246   1.697
 3702TIP3    H111112   6.226   3.332   1.722
 3702TIP3    H211113   6.140   3.218   1.774
 3703TIP3   OH211114   1.228   5.027   2.920
 3703TIP3    H111115   1.257   4.950   2.870
 3703TIP3    H211116   1.308   5.059   2.962
 3704TIP3   OH211117   5.487   3.030   0.243
 3704TIP3    H111118   5.566   2.982   0.265
 3704TIP3    H211119   5.518   3.115   0.214
 3705TIP3   OH211120   6.104   5.637   5.098
 3705TIP3    H111121   6.162   5.677   5.163
 3705TIP3    H211122   6.049   5.709   5.067
 3706TIP3   OH211123   3.425   5.921   3.497
 3706TIP3    H111124   3.357   5.902   3.432
 3706TIP3    H211125   3.383   5.904   3.581
 3707TIP3   OH211126   4.318   5.620   2.726
 3707TIP3    H111127   4.369   5.566   2.786
 3707TIP3    H211128   4.285   5.559   2.660
 3708TIP3   OH211129   4.453   1.556   4.451
 3708TIP3    H111130   4.524   1.492   4.450
 3708TIP3    H211131   4.486   1.629   4.399
 3709TIP3   OH211132   2.459   1.985   0.266
 3709TIP3    H111133   2.470   1.904   0.216
 3709TIP3    H211134   2.409   2.043   0.208
 3710TIP3   OH211135   3.499   4.615   4.329
 3710TIP3    H111136   3.482   4.526   4.298
 3710TIP3    H211137   3.424   4.635   4.386
 3711TIP3   OH211138   2.199   1.369   1.648
 3711TIP3    H111139   2.125   1.322   1.610
 3711TIP3    H211140   2.176   1.462   1.639
 3712TIP3   OH211141   1.694   3.674   2.971
 3712TIP3    H111142   1.696   3.758   2.926
 3712TIP3    H211143   1.780   3.667   3.012
 3713TIP3   OH211144   3.940   5.521   0.278
 3713TIP3    H111145   4.023   5.549   0.240
 3713TIP3    H211146   3.950   5.538   0.372
 3714TIP3   OH211147   3.198   5.937   2.441
 3714TIP3    H111148   3.111   5.920   2.478
 3714TIP3    H211149   3.214   5.862   2.384
 3715TIP3   OH211150   0.622   3.711   4.451
 3715TIP3    H111151   0.639   3.805   4.465
 3715TIP3    H211152   0.532   3.699   4.482
 3716TIP3   OH211153   1.303   2.132   0.222
 3716TIP3    H111154   1.347   2.070   0.164
 3716TIP3    H211155   1.349   2.215   0.209
 3717TIP3   OH211156   0.825   2.099   0.512
 3717TIP3    H111157   0.791   2.029   0.568
 3717TIP3    H211158   0.919   2.101   0.531
 3718TIP3   OH211159   2.452   5.277   4.483
 3718TIP3    H111160   2.395   5.205   4.511
 3718TIP3    H211161   2.403   5.356   4.506
 3719TIP3   OH211162   0.157   1.610   2.302
 3719TIP3    H111163   0.214   1.545   2.345
 3719TIP3    H211164   0.215   1.683   2.282
 3720TIP3   OH211165   3.526   3.051   4.496
 3720TIP3    H111166   3.514   3.004   4.413
 3720TIP3    H211167   3.564   2.985   4.554
 3721TIP3   OH211168   1.015   0.158   3.820
 3721TIP3    H111169   1.010   0.253   3.829
 3721TIP3    H211170   1.020   0.143   3.726
 3722TIP3   OH211171   1.826   3.549   2.578
 3722TIP3    H111172   1.748   3.552   2.633
 3722TIP3    H211173   1.826   3.632   2.531
 3723TIP3   OH211174   3.080   2.724   1.218
 3723TIP3    H111175   3.067   2.673   1.138
 3723TIP3    H211176   3.175   2.724   1.231
 3724TIP3   OH211177   4.103   5.815   1.228
 3724TIP3    H111178   4.076   5.736   1.275
 3724TIP3    H211179   4.034   5.878   1.247
 3725TIP3   OH211180   4.994   2.928   0.424
 3725TIP3    H111181   4.982   3.022   0.438
 3725TIP3    H211182   5.017   2.921   0.331
 3726TIP3   OH211183   4.692   4.284   1.706
 3726TIP3    H111184   4.760   4.349   1.693
 3726TIP3    H211185   4.610   4.333   1.701
 3727TIP3   OH211186   2.324   0.188   1.316
 3727TIP3    H111187   2.270   0.235   1.253
 3727TIP3    H211188   2.290   0.214   1.401
 3728TIP3   OH211189   5.474   5.882   0.467
 3728TIP3    H111190   5.427   5.865   0.549
 3728TIP3    H211191   5.408   5.916   0.407
 3729TIP3   OH211192   1.836   5.381   2.119
 3729TIP3    H111193   1.755   5.403   2.165
 3729TIP3    H211194   1.863   5.297   2.156
 3730TIP3   OH211195   5.588   4.901   3.045
 3730TIP3    H111196   5.673   4.890   3.001
 3730TIP3    H211197   5.552   4.981   3.006
 3731TIP3   OH211198   5.673   0.729   3.978
 3731TIP3    H111199   5.586   0.755   4.008
 3731TIP3    H211200   5.685   0.641   4.012
 3732TIP3   OH211201   2.466   2.514   4.378
 3732TIP3    H111202   2.490   2.519   4.286
 3732TIP3    H211203   2.388   2.459   4.381
 3733TIP3   OH211204   1.941   1.865   2.860
 3733TIP3    H111205   1.977   1.918   2.931
 3733TIP3    H211206   2.014   1.811   2.831
 3734TIP3   OH211207   4.662   5.515   1.587
 3734TIP3    H111208   4.624   5.581   1.529
 3734TIP3    H211209   4.588   5.481   1.636
 3735TIP3   OH211210   3.481   0.780   0.730
 3735TIP3    H111211   3.545   0.751   0.665
 3735TIP3    H211212   3.506   0.734   0.810
 3736TIP3   OH211213   5.535   2.986   2.038
 3736TIP3    H111214   5.530   2.966   1.944
 3736TIP3    H211215   5.487   2.915   2.080
 3737TIP3   OH211216   3.593   1.566   0.391
 3737TIP3    H111217   3.505   1.533   0.375
 3737TIP3    H211218   3.581   1.659   0.412
 3738TIP3   OH211219   0.209   0.158   0.392
 3738TIP3    H111220   0.160   0.196   0.465
 3738TIP3    H211221   0.197   0.221   0.320
 3739TIP3   OH211222   3.175   2.336   4.561
 3739TIP3    H111223   3.140   2.374   4.481
 3739TIP3    H211224   3.255   2.385   4.578
 3740TIP3   OH211225   3.306   2.315   2.041
 3740TIP3    H111226   3.343   2.286   2.124
 3740TIP3    H211227   3.243   2.246   2.018
 3741TIP3   OH211228   1.448   0.052   4.065
 3741TIP3    H111229   1.397   0.109   4.008
 3741TIP3    H211230   1.518   0.018   4.009
 3742TIP3   OH211231   0.676   4.630   1.801
 3742TIP3    H111232   0.668   4.547   1.849
 3742TIP3    H211233   0.616   4.621   1.727
 3743TIP3   OH211234   5.626   0.136   0.175
 3743TIP3    H111235   5.547   0.088   0.148
 3743TIP3    H211236   5.697   0.095   0.125
 3744TIP3   OH211237   4.448   3.586   2.287
 3744TIP3    H111238   4.496   3.524   2.233
 3744TIP3    H211239   4.488   3.579   2.374
 3745TIP3   OH211240   2.375   2.814   2.370
 3745TIP3    H111241   2.351   2.818   2.462
 3745TIP3    H211242   2.428   2.893   2.355
 3746TIP3   OH211243   5.382   2.751   1.956
 3746TIP3    H111244   5.365   2.708   1.872
 3746TIP3    H211245   5.306   2.729   2.010
 3747TIP3   OH211246   2.811   5.623   2.417
 3747TIP3    H111247   2.827   5.690   2.351
 3747TIP3    H211248   2.899   5.601   2.449
 3748TIP3   OH211249   0.923   1.797   4.339
 3748TIP3    H111250   0.873   1.777   4.417
 3748TIP3    H211251   0.893   1.734   4.274
 3749TIP3   OH211252   0.259   2.811   0.898
 3749TIP3    H111253   0.217   2.897   0.893
 3749TIP3    H211254   0.190   2.752   0.926
 3750TIP3   OH211255   0.729   1.575   0.688
 3750TIP3    H111256   0.769   1.497   0.727
 3750TIP3    H211257   0.664   1.539   0.626
 3751TIP3   OH211258   0.316   5.186   1.967
 3751TIP3    H111259   0.332   5.107   2.018
 3751TIP3    H211260   0.223   5.205   1.980
 3752TIP3   OH211261   4.675   0.756   3.354
 3752TIP3    H111262   4.648   0.840   3.393
 3752TIP3    H211263   4.648   0.691   3.418
 3753TIP3   OH211264   1.126   5.855   1.658
 3753TIP3    H111265   1.111   5.927   1.597
 3753TIP3    H211266   1.113   5.776   1.605
 3754TIP3   OH211267   5.607   2.074   1.489
 3754TIP3    H111268   5.679   2.136   1.501
 3754TIP3    H211269   5.545   2.119   1.433
 3755TIP3   OH211270   2.749   1.832   2.144
 3755TIP3    H111271   2.803   1.876   2.079
 3755TIP3    H211272   2.783   1.863   2.228
 3756TIP3   OH211273   0.413   4.882   2.627
 3756TIP3    H111274   0.498   4.908   2.591
 3756TIP3    H211275   0.434   4.849   2.715
 3757TIP3   OH211276   4.055   3.847   2.333
 3757TIP3    H111277   4.106   3.775   2.297
 3757TIP3    H211278   3.970   3.843   2.289
 3758TIP3   OH211279   5.915   4.524   2.712
 3758TIP3    H111280   5.917   4.597   2.650
 3758TIP3    H211281   5.931   4.564   2.798
 3759TIP3   OH211282   3.879   5.813   4.354
 3759TIP3    H111283   3.961   5.837   4.311
 3759TIP3    H211284   3.886   5.718   4.368
 3760TIP3   OH211285   4.841   2.551   3.460
 3760TIP3    H111286   4.868   2.485   3.396
 3760TIP3    H211287   4.906   2.545   3.530
 3761TIP3   OH211288   2.347   0.195   2.509
 3761TIP3    H111289   2.330   0.260   2.578
 3761TIP3    H211290   2.392   0.245   2.441
 3762TIP3   OH211291   4.512   0.323   1.333
 3762TIP3    H111292   4.602   0.300   1.308
 3762TIP3    H211293   4.522   0.397   1.393
 3763TIP3   OH211294   1.676   5.565   3.462
 3763TIP3    H111295   1.609   5.613   3.413
 3763TIP3    H211296   1.717   5.508   3.397
 3764TIP3   OH211297   1.684   0.155   2.313
 3764TIP3    H111298   1.702   0.224   2.249
 3764TIP3    H211299   1.752   0.166   2.379
 3765TIP3   OH211300   1.996   1.018   3.769
 3765TIP3    H111301   2.013   0.932   3.808
 3765TIP3    H211302   1.950   1.067   3.836
 3766TIP3   OH211303   5.036   4.741   4.457
 3766TIP3    H111304   5.064   4.649   4.461
 3766TIP3    H211305   4.975   4.745   4.384
 3767TIP3   OH211306   3.972   1.153   2.519
 3767TIP3    H111307   4.067   1.163   2.514
 3767TIP3    H211308   3.938   1.202   2.445
 3768TIP3   OH211309   2.528   1.030   0.576
 3768TIP3    H111310   2.560   1.061   0.660
 3768TIP3    H211311   2.433   1.023   0.587
 3769TIP3   OH211312   1.572   0.838   1.274
 3769TIP3    H111313   1.546   0.922   1.236
 3769TIP3    H211314   1.643   0.807   1.217
 3770TIP3   OH211315   0.355   0.661   1.318
 3770TIP3    H111316   0.413   0.736   1.329
 3770TIP3    H211317   0.358   0.615   1.402
 3771TIP3   OH211318   0.876   4.053   3.790
 3771TIP3    H111319   0.865   3.992   3.717
 3771TIP3    H211320   0.809   4.119   3.777
 3772TIP3   OH211321   5.966   5.408   1.473
 3772TIP3    H111322   6.058   5.409   1.446
 3772TIP3    H211323   5.917   5.407   1.392
 3773TIP3   OH211324   5.112   4.015   1.498
 3773TIP3    H111325   5.199   4.051   1.484
 3773TIP3    H211326   5.056   4.091   1.511
 3774TIP3   OH211327   0.208   2.149   3.704
 3774TIP3    H111328   0.266   2.141   3.629
 3774TIP3    H211329   0.122   2.169   3.667
 3775TIP3   OH211330   4.969   3.897   0.071
 3775TIP3    H111331   4.879   3.928   0.063
 3775TIP3    H211332   5.022   3.977   0.068
 3776TIP3   OH211333   0.067   3.676   2.675
 3776TIP3    H111334   0.106   3.605   2.623
 3776TIP3    H211335   0.101   3.756   2.637
 3777TIP3   OH211336   1.660   3.948   2.399
 3777TIP3    H111337   1.658   3.908   2.486
 3777TIP3    H211338   1.575   3.927   2.360
 3778TIP3   OH211339   4.278   1.438   0.217
 3778TIP3    H111340   4.329   1.515   0.191
 3778TIP3    H211341   4.191   1.454   0.181
 3779TIP3   OH211342   5.623   0.412   3.406
 3779TIP3    H111343   5.701   0.458   3.437
 3779TIP3    H211344   5.551   0.450   3.456
 3780TIP3   OH211345   4.249   4.597   0.165
 3780TIP3    H111346   4.218   4.625   0.078
 3780TIP3    H211347   4.334   4.638   0.174
 3781TIP3   OH211348   3.555   3.382   4.139
 3781TIP3    H111349   3.513   3.435   4.207
 3781TIP3    H211350   3.615   3.443   4.095
 3782TIP3   OH211351   4.936   4.366   3.598
 3782TIP3    H111352   4.985   4.421   3.658
 3782TIP3    H211353   4.849   4.407   3.594
 3783TIP3   OH211354   3.578   0.730   1.002
 3783TIP3    H111355   3.599   0.638   1.016
 3783TIP3    H211356   3.619   0.776   1.075
 3784TIP3   OH211357   2.655   0.512   4.590
 3784TIP3    H111358   2.737   0.485   4.549
 3784TIP3    H211359   2.651   0.460   4.671
 3785TIP3   OH211360   6.019   3.304   0.661
 3785TIP3    H111361   5.951   3.371   0.652
 3785TIP3    H211362   6.057   3.320   0.748
 3786TIP3   OH211363   2.928   1.600   4.797
 3786TIP3    H111364   2.995   1.630   4.736
 3786TIP3    H211365   2.849   1.647   4.770
 3787TIP3   OH211366   2.162   5.133   1.112
 3787TIP3    H111367   2.188   5.224   1.101
 3787TIP3    H211368   2.245   5.085   1.118
 3788TIP3   OH211369   5.937   1.052   4.879
 3788TIP3    H111370   5.988   1.017   4.953
 3788TIP3    H211371   5.883   0.978   4.852
 3789TIP3   OH211372   1.195   2.085   2.521
 3789TIP3    H111373   1.200   2.066   2.615
 3789TIP3    H211374   1.181   1.999   2.480
 3790TIP3   OH211375   1.585   3.266   2.975
 3790TIP3    H111376   1.603   3.235   2.886
 3790TIP3    H211377   1.669   3.304   3.004
 3791TIP3   OH211378   0.952   0.255   4.616
 3791TIP3    H111379   0.986   0.165   4.618
 3791TIP3    H211380   1.026   0.307   4.582
 3792TIP3   OH211381   2.885   5.687   4.807
 3792TIP3    H111382   2.953   5.702   4.740
 3792TIP3    H211383   2.923   5.720   4.888
 3793TIP3   OH211384   5.673   1.672   1.274
 3793TIP3    H111385   5.703   1.752   1.232
 3793TIP3    H211386   5.581   1.664   1.248
 3794TIP3   OH211387   3.179   1.406   3.144
 3794TIP3    H111388   3.215   1.437   3.228
 3794TIP3    H211389   3.253   1.408   3.084
 3795TIP3   OH211390   4.303   0.033   0.375
 3795TIP3    H111391   4.341   0.082   0.448
 3795TIP3    H211392   4.238  -0.024   0.415
 3796TIP3   OH211393   1.979   3.736   3.530
 3796TIP3    H111394   1.980   3.645   3.502
 3796TIP3    H211395   1.958   3.733   3.624
 3797TIP3   OH211396   2.990   2.596   4.121
 3797TIP3    H111397   2.924   2.665   4.117
 3797TIP3    H211398   3.070   2.640   4.149
 3798TIP3   OH211399   2.617   5.493   2.564
 3798TIP3    H111400   2.575   5.556   2.621
 3798TIP3    H211401   2.676   5.545   2.510
 3799TIP3   OH211402   3.714   5.896   3.777
 3799TIP3    H111403   3.788   5.838   3.757
 3799TIP3    H211404   3.742   5.982   3.745
 3800TIP3   OH211405   2.572   0.430   0.681
 3800TIP3    H111406   2.558   0.389   0.766
 3800TIP3    H211407   2.659   0.469   0.687
 3801TIP3   OH211408   4.646   3.205   0.564
 3801TIP3    H111409   4.597   3.239   0.489
 3801TIP3    H211410   4.734   3.240   0.554
 3802TIP3   OH211411   0.434   1.244   1.477
 3802TIP3    H111412   0.432   1.155   1.444
 3802TIP3    H211413   0.510   1.245   1.537
 3803TIP3   OH211414   4.533   0.093   3.133
 3803TIP3    H111415   4.571   0.154   3.071
 3803TIP3    H211416   4.459   0.140   3.172
 3804TIP3   OH211417   4.504   1.007   2.533
 3804TIP3    H111418   4.460   0.932   2.574
 3804TIP3    H211419   4.557   0.967   2.463
 3805TIP3   OH211420   5.863   4.325   0.734
 3805TIP3    H111421   5.883   4.385   0.662
 3805TIP3    H211422   5.928   4.346   0.802
 3806TIP3   OH211423   2.205   1.553   2.239
 3806TIP3    H111424   2.158   1.636   2.223
 3806TIP3    H211425   2.273   1.576   2.303
 3807TIP3   OH211426   5.040   4.437   2.289
 3807TIP3    H111427   4.972   4.493   2.251
 3807TIP3    H211428   4.992   4.366   2.331
 3808TIP3   OH211429   0.547   3.678   3.261
 3808TIP3    H111430   0.480   3.685   3.329
 3808TIP3    H211431   0.628   3.702   3.305
 3809TIP3   OH211432   3.632   3.049   3.919
 3809TIP3    H111433   3.686   2.982   3.877
 3809TIP3    H211434   3.656   3.046   4.011
 3810TIP3   OH211435   5.023   0.554   1.466
 3810TIP3    H111436   5.117   0.544   1.448
 3810TIP3    H211437   4.999   0.473   1.511
 3811TIP3   OH211438   2.552   4.828   0.304
 3811TIP3    H111439   2.501   4.817   0.224
 3811TIP3    H211440   2.590   4.916   0.296
 3812TIP3   OH211441   3.409   0.873   1.708
 3812TIP3    H111442   3.395   0.906   1.797
 3812TIP3    H211443   3.495   0.906   1.684
 3813TIP3   OH211444   5.561   0.501   4.846
 3813TIP3    H111445   5.466   0.490   4.849
 3813TIP3    H211446   5.591   0.432   4.788
 3814TIP3   OH211447   5.847   1.086   4.407
 3814TIP3    H111448   5.849   0.993   4.384
 3814TIP3    H211449   5.905   1.093   4.483
 3815TIP3   OH211450   1.193   0.801   0.953
 3815TIP3    H111451   1.286   0.795   0.933
 3815TIP3    H211452   1.167   0.888   0.925
 3816TIP3   OH211453   2.527   0.704   2.142
 3816TIP3    H111454   2.579   0.763   2.087
 3816TIP3    H211455   2.512   0.627   2.086
 3817TIP3   OH211456   4.623   1.697   0.397
 3817TIP3    H111457   4.578   1.655   0.470
 3817TIP3    H211458   4.647   1.784   0.431
 3818TIP3   OH211459   2.809   0.908   1.339
 3818TIP3    H111460   2.787   0.972   1.271
 3818TIP3    H211461   2.788   0.953   1.422
 3819TIP3   OH211462   5.229   2.906   0.919
 3819TIP3    H111463   5.134   2.900   0.912
 3819TIP3    H211464   5.262   2.865   0.839
 3820TIP3   OH211465   4.521   1.737   2.390
 3820TIP3    H111466   4.492   1.816   2.436
 3820TIP3    H211467   4.615   1.749   2.378
 3821TIP3   OH211468   1.916   3.582   0.390
 3821TIP3    H111469   1.852   3.522   0.427
 3821TIP3    H211470   1.936   3.547   0.303
 3822TIP3   OH211471   5.741   2.312   2.322
 3822TIP3    H111472   5.772   2.221   2.325
 3822TIP3    H211473   5.806   2.358   2.269
 3823TIP3   OH211474   1.336   3.616   4.146
 3823TIP3    H111475   1.427   3.606   4.121
 3823TIP3    H211476   1.325   3.557   4.221
 3824TIP3   OH211477   0.673   3.838   2.946
 3824TIP3    H111478   0.658   3.932   2.952
 3824TIP3    H211479   0.721   3.816   3.026
 3825TIP3   OH211480   4.909   3.582   0.798
 3825TIP3    H111481   4.961   3.522   0.744
 3825TIP3    H211482   4.829   3.597   0.747
 3826TIP3   OH211483   0.893   5.485   0.654
 3826TIP3    H111484   0.897   5.390   0.652
 3826TIP3    H211485   0.823   5.508   0.592
 3827TIP3   OH211486   0.440   2.057   1.366
 3827TIP3    H111487   0.403   1.977   1.328
 3827TIP3    H211488   0.442   2.119   1.294
 3828TIP3   OH211489   0.018   3.013   3.258
 3828TIP3    H111490  -0.040   3.009   3.334
 3828TIP3    H211491   0.105   2.993   3.294
 3829TIP3   OH211492   1.571   5.787   2.358
 3829TIP3    H111493   1.584   5.879   2.379
 3829TIP3    H211494   1.486   5.785   2.313
 3830TIP3   OH211495   3.051   1.763   4.607
 3830TIP3    H111496   3.013   1.848   4.628
 3830TIP3    H211497   3.071   1.768   4.514
 3831TIP3   OH211498   3.235   5.905   3.009
 3831TIP3    H111499   3.225   5.866   2.923
 3831TIP3    H211500   3.259   5.832   3.066
 3832TIP3   OH211501   1.673   3.067   0.448
 3832TIP3    H111502   1.580   3.076   0.469
 3832TIP3    H211503   1.717   3.069   0.533
 3833TIP3   OH211504   1.583   3.221   4.985
 3833TIP3    H111505   1.593   3.313   4.959
 3833TIP3    H211506   1.537   3.181   4.911
 3834TIP3   OH211507   6.286   3.415   3.580
 3834TIP3    H111508   6.345   3.475   3.533
 3834TIP3    H211509   6.202   3.461   3.583
 3835TIP3   OH211510   5.146   3.715   4.001
 3835TIP3    H111511   5.063   3.755   3.974
 3835TIP3    H211512   5.202   3.722   3.924
 3836TIP3   OH211513   5.988   2.185   1.867
 3836TIP3    H111514   6.031   2.270   1.870
 3836TIP3    H211515   6.017   2.146   1.784
 3837TIP3   OH211516   2.421   4.839   0.024
 3837TIP3    H111517   2.400   4.912  -0.035
 3837TIP3    H211518   2.442   4.766  -0.035
 3838TIP3   OH211519   4.129   2.605   0.931
 3838TIP3    H111520   4.171   2.537   0.983
 3838TIP3    H211521   4.109   2.675   0.993
 3839TIP3   OH211522   5.693   0.068   0.692
 3839TIP3    H111523   5.668   0.065   0.600
 3839TIP3    H211524   5.726   0.157   0.705
 3840TIP3   OH211525   1.141   1.863   0.421
 3840TIP3    H111526   1.198   1.887   0.494
 3840TIP3    H211527   1.069   1.815   0.461
 3841TIP3   OH211528   1.143   4.530   1.328
 3841TIP3    H111529   1.182   4.610   1.364
 3841TIP3    H211530   1.217   4.483   1.289
 3842TIP3   OH211531   0.594   2.595   0.144
 3842TIP3    H111532   0.599   2.502   0.122
 3842TIP3    H211533   0.660   2.607   0.212
 3843TIP3   OH211534   5.298   3.709   1.926
 3843TIP3    H111535   5.292   3.767   2.001
 3843TIP3    H211536   5.211   3.670   1.917
 3844TIP3   OH211537   5.192   0.634   2.986
 3844TIP3    H111538   5.216   0.669   2.900
 3844TIP3    H211539   5.216   0.703   3.047
 3845TIP3   OH211540   6.193   1.251   0.104
 3845TIP3    H111541   6.107   1.222   0.074
 3845TIP3    H211542   6.252   1.231   0.032
 3846TIP3   OH211543   4.392   4.967   4.131
 3846TIP3    H111544   4.307   4.928   4.147
 3846TIP3    H211545   4.441   4.900   4.083
 3847TIP3   OH211546   0.654   3.021   3.360
 3847TIP3    H111547   0.653   2.934   3.400
 3847TIP3    H211548   0.742   3.029   3.323
 3848TIP3   OH211549   1.473   2.604   4.824
 3848TIP3    H111550   1.473   2.646   4.910
 3848TIP3    H211551   1.486   2.675   4.762
 3849TIP3   OH211552   5.211   1.321   0.362
 3849TIP3    H111553   5.249   1.381   0.426
 3849TIP3    H211554   5.203   1.373   0.282
 3850TIP3   OH211555   3.586   4.145   3.132
 3850TIP3    H111556   3.505   4.171   3.088
 3850TIP3    H211557   3.601   4.055   3.102
 3851TIP3   OH211558   2.126   4.537   5.098
 3851TIP3    H111559   2.182   4.571   5.028
 3851TIP3    H211560   2.185   4.488   5.154
 3852TIP3   OH211561   0.126   3.232   2.570
 3852TIP3    H111562   0.211   3.228   2.613
 3852TIP3    H211563   0.064   3.249   2.640
 3853TIP3   OH211564   0.319   3.709   4.505
 3853TIP3    H111565   0.281   3.667   4.428
 3853TIP3    H211566   0.303   3.803   4.492
 3854TIP3   OH211567   6.199   0.075   4.579
 3854TIP3    H111568   6.125   0.114   4.531
 3854TIP3    H211569   6.158   0.029   4.652
 3855TIP3   OH211570   4.306   2.078   1.154
 3855TIP3    H111571   4.245   2.148   1.179
 3855TIP3    H211572   4.326   2.095   1.062
 3856TIP3   OH211573   2.451   3.735   5.007
 3856TIP3    H111574   2.520   3.725   5.073
 3856TIP3    H211575   2.487   3.698   4.927
 3857TIP3   OH211576   3.229   0.462   0.260
 3857TIP3    H111577   3.235   0.384   0.316
 3857TIP3    H211578   3.144   0.453   0.216
 3858TIP3   OH211579   1.730   5.858   0.015
 3858TIP3    H111580   1.818   5.831   0.039
 3858TIP3    H211581   1.741   5.902  -0.069
 3859TIP3   OH211582   5.531   4.418   2.739
 3859TIP3    H111583   5.530   4.439   2.645
 3859TIP3    H211584   5.530   4.503   2.782
 3860TIP3   OH211585   3.996   1.739   2.449
 3860TIP3    H111586   4.083   1.778   2.447
 3860TIP3    H211587   3.974   1.727   2.357
 3861TIP3   OH211588   2.712   4.225   4.554
 3861TIP3    H111589   2.758   4.170   4.617
 3861TIP3    H211590   2.721   4.178   4.471
 3862TIP3   OH211591   3.269   0.166   0.409
 3862TIP3    H111592   3.294   0.111   0.334
 3862TIP3    H211593   3.199   0.116   0.453
 3863TIP3   OH211594   5.064   1.730   5.117
 3863TIP3    H111595   4.983   1.727   5.066
 3863TIP3    H211596   5.036   1.723   5.208
 3864TIP3   OH211597   2.347   3.935   4.410
 3864TIP3    H111598   2.340   4.009   4.470
 3864TIP3    H211599   2.343   3.858   4.466
 3865TIP3   OH211600   1.825   0.921   0.091
 3865TIP3    H111601   1.817   1.011   0.120
 3865TIP3    H211602   1.777   0.918   0.008
 3866TIP3   OH211603   5.955   2.841   3.698
 3866TIP3    H111604   6.029   2.781   3.710
 3866TIP3    H211605   5.994   2.928   3.702
 3867TIP3   OH211606   0.779   4.069   0.807
 3867TIP3    H111607   0.720   4.028   0.743
 3867TIP3    H211608   0.764   4.163   0.797
 3868TIP3   OH211609   5.503   0.156   4.346
 3868TIP3    H111610   5.490   0.098   4.271
 3868TIP3    H211611   5.415   0.173   4.379
 3869TIP3   OH211612   0.544   4.103   2.950
 3869TIP3    H111613   0.562   4.183   3.000
 3869TIP3    H211614   0.488   4.132   2.878
 3870TIP3   OH211615   0.379   4.803   3.238
 3870TIP3    H111616   0.408   4.883   3.280
 3870TIP3    H211617   0.300   4.828   3.190
 3871TIP3   OH211618   1.864   3.223   3.304
 3871TIP3    H111619   1.881   3.254   3.215
 3871TIP3    H211620   1.772   3.198   3.303
 3872TIP3   OH211621   2.937   0.940   2.964
 3872TIP3    H111622   2.984   0.866   2.925
 3872TIP3    H211623   3.006   1.000   2.993
 3873TIP3   OH211624   2.695   1.971   2.496
 3873TIP3    H111625   2.790   1.963   2.504
 3873TIP3    H211626   2.681   2.061   2.466
 3874TIP3   OH211627   4.464   3.565   4.000
 3874TIP3    H111628   4.497   3.540   4.086
 3874TIP3    H211629   4.426   3.652   4.013
 3875TIP3   OH211630   0.307   1.648   4.499
 3875TIP3    H111631   0.359   1.629   4.421
 3875TIP3    H211632   0.370   1.640   4.572
 3876TIP3   OH211633   2.299   3.127   0.587
 3876TIP3    H111634   2.222   3.074   0.606
 3876TIP3    H211635   2.269   3.190   0.522
 3877TIP3   OH211636   6.102   0.593   3.637
 3877TIP3    H111637   6.176   0.555   3.684
 3877TIP3    H211638   6.025   0.564   3.686
 3878TIP3   OH211639   4.925   1.742   1.879
 3878TIP3    H111640   4.907   1.736   1.973
 3878TIP3    H211641   4.869   1.814   1.848
 3879TIP3   OH211642   5.051   4.768   0.422
 3879TIP3    H111643   5.021   4.831   0.357
 3879TIP3    H211644   5.106   4.819   0.481
 3880TIP3   OH211645   4.728   2.980   4.408
 3880TIP3    H111646   4.791   3.011   4.342
 3880TIP3    H211647   4.731   3.046   4.477
 3881TIP3   OH211648   0.786   2.295   1.415
 3881TIP3    H111649   0.848   2.340   1.473
 3881TIP3    H211650   0.743   2.366   1.367
 3882TIP3   OH211651   3.523   3.921   0.079
 3882TIP3    H111652   3.573   3.868   0.142
 3882TIP3    H211653   3.589   3.970   0.031
 3883TIP3   OH211654   6.143   3.262   2.641
 3883TIP3    H111655   6.179   3.322   2.706
 3883TIP3    H211656   6.126   3.317   2.564
 3884TIP3   OH211657   0.785   2.339   2.608
 3884TIP3    H111658   0.693   2.342   2.634
 3884TIP3    H211659   0.808   2.246   2.613
 3885TIP3   OH211660   0.939   4.363   2.442
 3885TIP3    H111661   1.034   4.367   2.437
 3885TIP3    H211662   0.918   4.269   2.446
 3886TIP3   OH211663   2.539   5.185   1.934
 3886TIP3    H111664   2.566   5.119   1.998
 3886TIP3    H211665   2.463   5.147   1.890
 3887TIP3   OH211666   4.984   2.803   0.997
 3887TIP3    H111667   5.047   2.815   1.068
 3887TIP3    H211668   4.917   2.745   1.033
 3888TIP3   OH211669   4.311   3.897   0.177
 3888TIP3    H111670   4.330   3.933   0.090
 3888TIP3    H211671   4.396   3.876   0.214
 3889TIP3   OH211672   4.004   0.636   3.313
 3889TIP3    H111673   4.051   0.709   3.274
 3889TIP3    H211674   4.057   0.610   3.388
 3890TIP3   OH211675   4.926   3.130   4.234
 3890TIP3    H111676   4.884   3.121   4.148
 3890TIP3    H211677   4.998   3.191   4.219
 3891TIP3   OH211678   5.506   4.473   0.346
 3891TIP3    H111679   5.474   4.473   0.436
 3891TIP3    H211680   5.439   4.521   0.297
 3892TIP3   OH211681   4.374   3.430   0.795
 3892TIP3    H111682   4.457   3.411   0.840
 3892TIP3    H211683   4.370   3.526   0.793
 3893TIP3   OH211684   5.953   2.523   4.769
 3893TIP3    H111685   5.935   2.616   4.781
 3893TIP3    H211686   5.991   2.517   4.681
 3894TIP3   OH211687   0.676   3.880   1.647
 3894TIP3    H111688   0.760   3.834   1.636
 3894TIP3    H211689   0.610   3.812   1.632
 3895TIP3   OH211690   1.446   1.652   3.890
 3895TIP3    H111691   1.440   1.711   3.815
 3895TIP3    H211692   1.429   1.707   3.966
 3896TIP3   OH211693   2.638   5.757   4.406
 3896TIP3    H111694   2.688   5.798   4.477
 3896TIP3    H211695   2.548   5.754   4.438
 3897TIP3   OH211696   2.331   3.803   3.956
 3897TIP3    H111697   2.421   3.779   3.936
 3897TIP3    H211698   2.333   3.832   4.047
 3898TIP3   OH211699   1.801   0.360   3.692
 3898TIP3    H111700   1.719   0.358   3.741
 3898TIP3    H211701   1.866   0.391   3.755
 3899TIP3   OH211702   2.157   1.276   0.308
 3899TIP3    H111703   2.210   1.330   0.249
 3899TIP3    H211704   2.179   1.186   0.285
 3900TIP3   OH211705   5.545   0.032   2.190
 3900TIP3    H111706   5.551   0.119   2.151
 3900TIP3    H211707   5.461  -0.002   2.159
 3901TIP3   OH211708   3.881   2.012   1.817
 3901TIP3    H111709   3.836   2.074   1.874
 3901TIP3    H211710   3.814   1.984   1.754
 3902TIP3   OH211711   6.021   4.078   4.464
 3902TIP3    H111712   6.100   4.132   4.461
 3902TIP3    H211713   5.976   4.097   4.381
 3903TIP3   OH211714   0.911   5.474   3.166
 3903TIP3    H111715   0.946   5.492   3.079
 3903TIP3    H211716   0.947   5.388   3.188
 3904TIP3   OH211717   1.967   0.502   1.858
 3904TIP3    H111718   2.061   0.512   1.842
 3904TIP3    H211719   1.956   0.532   1.949
 3905TIP3   OH211720   2.323   5.596   3.035
 3905TIP3    H111721   2.329   5.500   3.043
 3905TIP3    H211722   2.332   5.627   3.125
 3906TIP3   OH211723   6.128   0.578   1.782
 3906TIP3    H111724   6.184   0.571   1.859
 3906TIP3    H211725   6.057   0.635   1.809
 3907TIP3   OH211726   1.470   5.766   1.870
 3907TIP3    H111727   1.441   5.847   1.828
 3907TIP3    H211728   1.389   5.724   1.898
 3908TIP3   OH211729   1.842   5.624   1.059
 3908TIP3    H111730   1.863   5.698   1.002
 3908TIP3    H211731   1.853   5.547   1.003
 3909TIP3   OH211732   5.726   2.242   4.626
 3909TIP3    H111733   5.807   2.192   4.632
 3909TIP3    H211734   5.711   2.273   4.715
 3910TIP3   OH211735   2.551   1.085   3.515
 3910TIP3    H111736   2.552   1.147   3.443
 3910TIP3    H211737   2.637   1.096   3.557
 3911TIP3   OH211738   3.984   3.730   3.703
 3911TIP3    H111739   3.922   3.679   3.755
 3911TIP3    H211740   4.021   3.666   3.641
 3912TIP3   OH211741   0.209   4.009   0.207
 3912TIP3    H111742   0.119   3.981   0.188
 3912TIP3    H211743   0.264   3.949   0.158
 3913TIP3   OH211744   3.573   2.016   1.755
 3913TIP3    H111745   3.493   2.053   1.717
 3913TIP3    H211746   3.598   2.079   1.823
 3914TIP3   OH211747   0.880   0.875   3.879
 3914TIP3    H111748   0.919   0.795   3.846
 3914TIP3    H211749   0.954   0.928   3.909
 3915TIP3   OH211750   3.287   0.879   3.059
 3915TIP3    H111751   3.259   0.889   2.968
 3915TIP3    H211752   3.383   0.874   3.055
 3916TIP3   OH211753   4.830   3.111   2.759
 3916TIP3    H111754   4.781   3.159   2.693
 3916TIP3    H211755   4.921   3.114   2.729
 3917TIP3   OH211756   6.254   4.494   3.524
 3917TIP3    H111757   6.264   4.410   3.481
 3917TIP3    H211758   6.343   4.522   3.545
 3918TIP3   OH211759   1.839   0.113   0.426
 3918TIP3    H111760   1.771   0.046   0.433
 3918TIP3    H211761   1.798   0.193   0.459
 3919TIP3   OH211762   3.041   3.005   0.175
 3919TIP3    H111763   3.058   2.924   0.127
 3919TIP3    H211764   2.946   3.013   0.176
 3920TIP3   OH211765   2.518   4.764   2.059
 3920TIP3    H111766   2.588   4.788   2.120
 3920TIP3    H211767   2.437   4.775   2.110
 3921TIP3   OH211768   2.718   1.689   2.664
 3921TIP3    H111769   2.785   1.653   2.721
 3921TIP3    H211770   2.762   1.759   2.616
 3922TIP3   OH211771   5.353   3.574   4.894
 3922TIP3    H111772   5.274   3.626   4.904
 3922TIP3    H211773   5.425   3.638   4.901
 3923TIP3   OH211774   1.764   3.199   0.981
 3923TIP3    H111775   1.856   3.182   1.003
 3923TIP3    H211776   1.734   3.260   1.048
 3924TIP3   OH211777   2.293   4.366   3.725
 3924TIP3    H111778   2.361   4.399   3.666
 3924TIP3    H211779   2.341   4.336   3.802
 3925TIP3   OH211780   3.469   2.364   2.806
 3925TIP3    H111781   3.533   2.296   2.784
 3925TIP3    H211782   3.429   2.333   2.888
 3926TIP3   OH211783   0.196   5.252   1.495
 3926TIP3    H111784   0.238   5.318   1.550
 3926TIP3    H211785   0.146   5.303   1.430
 3927TIP3   OH211786   4.796   3.717   1.925
 3927TIP3    H111787   4.856   3.754   1.989
 3927TIP3    H211788   4.709   3.743   1.955
 3928TIP3   OH211789   4.485   3.731   1.321
 3928TIP3    H111790   4.486   3.826   1.306
 3928TIP3    H211791   4.561   3.699   1.274
 3929TIP3   OH211792   1.638   4.161   3.332
 3929TIP3    H111793   1.613   4.244   3.374
 3929TIP3    H211794   1.712   4.130   3.383
 3930TIP3   OH211795   2.959   3.289   2.524
 3930TIP3    H111796   2.921   3.377   2.520
 3930TIP3    H211797   3.026   3.296   2.592
 3931TIP3   OH211798   3.750   2.081   0.816
 3931TIP3    H111799   3.755   2.174   0.794
 3931TIP3    H211800   3.768   2.036   0.733
 3932TIP3   OH211801   1.239   3.309   3.305
 3932TIP3    H111802   1.220   3.402   3.298
 3932TIP3    H211803   1.256   3.295   3.399
 3933TIP3   OH211804   0.356   0.508   3.625
 3933TIP3    H111805   0.416   0.519   3.698
 3933TIP3    H211806   0.344   0.413   3.619
 3934TIP3   OH211807   3.751   3.276   3.848
 3934TIP3    H111808   3.797   3.292   3.931
 3934TIP3    H211809   3.692   3.203   3.867
 3935TIP3   OH211810   3.519   5.715   4.220
 3935TIP3    H111811   3.534   5.745   4.310
 3935TIP3    H211812   3.589   5.756   4.169
 3936TIP3   OH211813   1.751   0.981   1.883
 3936TIP3    H111814   1.684   0.950   1.822
 3936TIP3    H211815   1.714   0.963   1.969
 3937TIP3   OH211816   5.457   1.349   1.041
 3937TIP3    H111817   5.524   1.293   1.001
 3937TIP3    H211818   5.491   1.369   1.128
 3938TIP3   OH211819   4.177   0.354   3.675
 3938TIP3    H111820   4.086   0.380   3.688
 3938TIP3    H211821   4.206   0.405   3.599
 3939TIP3   OH211822   0.092   4.670   2.856
 3939TIP3    H111823   0.059   4.754   2.888
 3939TIP3    H211824   0.041   4.604   2.903
 3940TIP3   OH211825   5.350   2.264   4.246
 3940TIP3    H111826   5.376   2.356   4.254
 3940TIP3    H211827   5.413   2.216   4.299
 3941TIP3   OH211828   4.768   5.660   1.357
 3941TIP3    H111829   4.789   5.753   1.355
 3941TIP3    H211830   4.838   5.619   1.305
 3942TIP3   OH211831   6.190   1.822   1.883
 3942TIP3    H111832   6.095   1.813   1.887
 3942TIP3    H211833   6.224   1.742   1.923
 3943TIP3   OH211834   5.412   3.580   0.627
 3943TIP3    H111835   5.413   3.555   0.534
 3943TIP3    H211836   5.379   3.503   0.672
 3944TIP3   OH211837   3.020   5.600   2.917
 3944TIP3    H111838   3.083   5.529   2.932
 3944TIP3    H211839   3.075   5.678   2.904
 3945TIP3   OH211840   1.650   3.051   1.834
 3945TIP3    H111841   1.659   3.107   1.757
 3945TIP3    H211842   1.617   2.968   1.799
 3946TIP3   OH211843   5.541   1.976   3.533
 3946TIP3    H111844   5.533   1.915   3.459
 3946TIP3    H211845   5.517   2.061   3.496
 3947TIP3   OH211846   1.499   1.443   4.243
 3947TIP3    H111847   1.542   1.505   4.302
 3947TIP3    H211848   1.559   1.436   4.168
 3948TIP3   OH211849   0.395   1.286   0.309
 3948TIP3    H111850   0.302   1.294   0.285
 3948TIP3    H211851   0.405   1.195   0.337
 3949TIP3   OH211852   5.880   0.507   2.198
 3949TIP3    H111853   5.950   0.573   2.190
 3949TIP3    H211854   5.799   0.558   2.198
 3950TIP3   OH211855   4.062   0.468   0.788
 3950TIP3    H111856   3.975   0.498   0.764
 3950TIP3    H211857   4.078   0.392   0.732
 3951TIP3   OH211858   2.694   0.843   2.636
 3951TIP3    H111859   2.609   0.870   2.671
 3951TIP3    H211860   2.675   0.817   2.545
 3952TIP3   OH211861   4.158   3.622   2.208
 3952TIP3    H111862   4.237   3.650   2.252
 3952TIP3    H211863   4.150   3.529   2.229
 3953TIP3   OH211864   3.790   2.934   3.171
 3953TIP3    H111865   3.851   3.007   3.164
 3953TIP3    H211866   3.776   2.905   3.081
 3954TIP3   OH211867   1.636   3.809   3.585
 3954TIP3    H111868   1.563   3.781   3.530
 3954TIP3    H211869   1.655   3.733   3.640
 3955TIP3   OH211870   2.829   3.383   4.090
 3955TIP3    H111871   2.907   3.329   4.077
 3955TIP3    H211872   2.756   3.327   4.061
 3956TIP3   OH211873   5.582   2.769   2.262
 3956TIP3    H111874   5.641   2.730   2.198
 3956TIP3    H211875   5.637   2.831   2.311
 3957TIP3   OH211876   4.509   1.027   4.086
 3957TIP3    H111877   4.495   0.932   4.093
 3957TIP3    H211878   4.426   1.066   4.115
 3958TIP3   OH211879   3.331   1.981   4.312
 3958TIP3    H111880   3.330   1.973   4.216
 3958TIP3    H211881   3.324   1.891   4.344
 3959TIP3   OH211882   0.847   5.926   0.793
 3959TIP3    H111883   0.829   6.018   0.773
 3959TIP3    H211884   0.762   5.882   0.784
 3960TIP3   OH211885   2.659   0.252   2.095
 3960TIP3    H111886   2.601   0.232   2.021
 3960TIP3    H211887   2.600   0.268   2.169
 3961TIP3   OH211888   5.093   0.449   0.724
 3961TIP3    H111889   5.099   0.360   0.689
 3961TIP3    H211890   5.076   0.438   0.817
 3962TIP3   OH211891   3.534   5.053   4.570
 3962TIP3    H111892   3.454   5.000   4.571
 3962TIP3    H211893   3.605   4.989   4.564
 3963TIP3   OH211894   0.503   2.955   4.712
 3963TIP3    H111895   0.474   2.986   4.798
 3963TIP3    H211896   0.598   2.965   4.712
 3964TIP3   OH211897   0.523   2.117   2.098
 3964TIP3    H111898   0.494   2.151   2.182
 3964TIP3    H211899   0.603   2.068   2.119
 3965TIP3   OH211900   5.737   0.369   1.321
 3965TIP3    H111901   5.644   0.344   1.326
 3965TIP3    H211902   5.737   0.462   1.340
 3966TIP3   OH211903   0.244   4.429   4.808
 3966TIP3    H111904   0.272   4.503   4.862
 3966TIP3    H211905   0.178   4.384   4.861
 3967TIP3   OH211906   6.217   3.330   0.246
 3967TIP3    H111907   6.154   3.378   0.300
 3967TIP3    H211908   6.188   3.239   0.251
 3968TIP3   OH211909   5.006   4.734   4.965
 3968TIP3    H111910   5.093   4.754   4.930
 3968TIP3    H211911   4.962   4.819   4.971
 3969TIP3   OH211912   5.993   3.338   3.033
 3969TIP3    H111913   6.069   3.395   3.023
 3969TIP3    H211914   5.918   3.397   3.028
 3970TIP3   OH211915   4.272   4.910   2.742
 3970TIP3    H111916   4.269   4.832   2.687
 3970TIP3    H211917   4.357   4.907   2.784
 3971TIP3   OH211918   3.193   4.219   0.288
 3971TIP3    H111919   3.178   4.199   0.380
 3971TIP3    H211920   3.234   4.305   0.289
 3972TIP3   OH211921   0.097   0.716   4.775
 3972TIP3    H111922   0.065   0.634   4.813
 3972TIP3    H211923   0.192   0.713   4.786
 3973TIP3   OH211924   4.982   5.671   4.341
 3973TIP3    H111925   4.893   5.665   4.376
 3973TIP3    H211926   4.991   5.762   4.314
 3974TIP3   OH211927   2.742   5.568   3.804
 3974TIP3    H111928   2.652   5.550   3.830
 3974TIP3    H211929   2.743   5.552   3.710
 3975TIP3   OH211930   2.166   1.919   3.082
 3975TIP3    H111931   2.225   1.868   3.025
 3975TIP3    H211932   2.207   2.006   3.087
 3976TIP3   OH211933   4.152   1.500   2.170
 3976TIP3    H111934   4.217   1.506   2.240
 3976TIP3    H211935   4.072   1.537   2.208
 3977TIP3   OH211936   5.185   4.585   1.921
 3977TIP3    H111937   5.151   4.497   1.937
 3977TIP3    H211938   5.107   4.637   1.900
 3978TIP3   OH211939   4.818   2.206   0.406
 3978TIP3    H111940   4.766   2.257   0.468
 3978TIP3    H211941   4.822   2.261   0.328
 3979TIP3   OH211942   1.871   1.444   2.950
 3979TIP3    H111943   1.826   1.528   2.955
 3979TIP3    H211944   1.963   1.466   2.938
 3980TIP3   OH211945   3.557   0.263   0.272
 3980TIP3    H111946   3.575   0.216   0.190
 3980TIP3    H211947   3.483   0.215   0.310
 3981TIP3   OH211948   2.277   2.668   5.023
 3981TIP3    H111949   2.182   2.668   5.028
 3981TIP3    H211950   2.305   2.744   5.074
 3982TIP3   OH211951   3.032   0.790   2.383
 3982TIP3    H111952   2.957   0.803   2.442
 3982TIP3    H211953   3.007   0.834   2.302
 3983TIP3   OH211954   1.969   3.260   4.212
 3983TIP3    H111955   2.000   3.268   4.122
 3983TIP3    H211956   1.920   3.341   4.229
 3984TIP3   OH211957   0.644   5.896   1.941
 3984TIP3    H111958   0.706   5.903   1.869
 3984TIP3    H211959   0.564   5.936   1.908
 3985TIP3   OH211960   2.659   5.798   3.529
 3985TIP3    H111961   2.662   5.881   3.577
 3985TIP3    H211962   2.610   5.818   3.450
 3986TIP3   OH211963   4.631   2.997   2.106
 3986TIP3    H111964   4.608   3.060   2.038
 3986TIP3    H211965   4.659   2.919   2.058
 3987TIP3   OH211966   3.804   2.086   5.055
 3987TIP3    H111967   3.800   2.031   5.134
 3987TIP3    H211968   3.713   2.113   5.040
 3988TIP3   OH211969   3.724   1.187   0.884
 3988TIP3    H111970   3.658   1.201   0.952
 3988TIP3    H211971   3.673   1.169   0.805
 3989TIP3   OH211972   3.834   0.480   1.444
 3989TIP3    H111973   3.920   0.439   1.436
 3989TIP3    H211974   3.854   0.574   1.451
 3990TIP3   OH211975   5.658   2.860   2.818
 3990TIP3    H111976   5.712   2.796   2.770
 3990TIP3    H211977   5.655   2.937   2.761
 3991TIP3   OH211978   1.133   2.252   4.859
 3991TIP3    H111979   1.097   2.304   4.931
 3991TIP3    H211980   1.228   2.256   4.872
 3992TIP3   OH211981   5.494   3.622   2.586
 3992TIP3    H111982   5.404   3.636   2.613
 3992TIP3    H211983   5.533   3.572   2.658
 3993TIP3   OH211984   1.981   4.812   3.807
 3993TIP3    H111985   1.928   4.737   3.835
 3993TIP3    H211986   2.045   4.775   3.747
 3994TIP3   OH211987   2.202   1.946   3.395
 3994TIP3    H111988   2.170   1.987   3.315
 3994TIP3    H211989   2.173   1.855   3.390
 3995TIP3   OH211990   0.484   4.600   3.072
 3995TIP3    H111991   0.558   4.589   3.132
 3995TIP3    H211992   0.456   4.691   3.085
 3996TIP3   OH211993   4.327   5.459   0.473
 3996TIP3    H111994   4.269   5.483   0.401
 3996TIP3    H211995   4.274   5.470   0.552
 3997TIP3   OH211996   4.311   4.332   2.379
 3997TIP3    H111997   4.271   4.259   2.426
 3997TIP3    H211998   4.337   4.294   2.295
 3998TIP3   OH211999   3.333   2.081   2.821
 3998TIP3    H112000   3.243   2.053   2.834
 3998TIP3    H212001   3.332   2.175   2.842
 3999TIP3   OH212002   1.738   5.219   1.062
 3999TIP3    H112003   1.819   5.183   1.025
 3999TIP3    H212004   1.699   5.147   1.110
 4000TIP3   OH212005   4.526   3.825   3.882
 4000TIP3    H112006   4.521   3.817   3.787
 4000TIP3    H212007   4.559   3.914   3.897
 4001TIP3   OH212008   3.692   2.189   1.910
 4001TIP3    H112009   3.677   2.223   1.998
 4001TIP3    H212010   3.718   2.265   1.859
 4002TIP3   OH212011   5.958   2.786   2.844
 4002TIP3    H112012   6.003   2.796   2.760
 4002TIP3    H212013   5.958   2.691   2.860
 4003TIP3   OH212014   1.727   4.171   3.076
 4003TIP3    H112015   1.699   4.261   3.061
 4003TIP3    H212016   1.691   4.149   3.162
 4004TIP3   OH212017   6.327   1.589   4.972
 4004TIP3    H112018   6.242   1.564   5.009
 4004TIP3    H212019   6.376   1.625   5.045
 4005TIP3   OH212020   5.024   4.277   1.564
 4005TIP3    H112021   5.108   4.259   1.605
 4005TIP3    H212022   4.979   4.333   1.627
 4006TIP3   OH212023   2.846   0.406   2.347
 4006TIP3    H112024   2.866   0.469   2.277
 4006TIP3    H212025   2.902   0.431   2.420
 4007TIP3   OH212026   6.041   0.571   3.370
 4007TIP3    H112027   6.056   0.585   3.463
 4007TIP3    H212028   6.004   0.483   3.364
 4008TIP3   OH212029   3.134   1.018   3.314
 4008TIP3    H112030   3.120   1.102   3.358
 4008TIP3    H212031   3.133   1.039   3.221
 4009TIP3   OH212032   3.599   0.398   3.291
 4009TIP3    H112033   3.507   0.423   3.294
 4009TIP3    H212034   3.598   0.304   3.275
 4010TIP3   OH212035   5.602   1.910   0.887
 4010TIP3    H112036   5.518   1.865   0.875
 4010TIP3    H212037   5.621   1.900   0.981
 4011TIP3   OH212038   4.110   3.913   1.276
 4011TIP3    H112039   4.147   3.856   1.209
 4011TIP3    H212040   4.173   3.907   1.349
 4012TIP3   OH212041   2.692   5.003   4.060
 4012TIP3    H112042   2.634   5.031   3.989
 4012TIP3    H212043   2.776   4.988   4.017
 4013TIP3   OH212044   2.075   5.268   5.164
 4013TIP3    H112045   2.060   5.323   5.088
 4013TIP3    H212046   2.035   5.184   5.141
 4014TIP3   OH212047   4.751   4.809   3.737
 4014TIP3    H112048   4.777   4.783   3.825
 4014TIP3    H212049   4.806   4.757   3.679
 4015TIP3   OH212050   0.210   4.317   2.323
 4015TIP3    H112051   0.250   4.244   2.277
 4015TIP3    H212052   0.276   4.386   2.321
 4016TIP3   OH212053   0.339   2.188   4.689
 4016TIP3    H112054   0.303   2.276   4.696
 4016TIP3    H212055   0.266   2.130   4.709
 4017TIP3   OH212056   3.534   3.223   2.072
 4017TIP3    H112057   3.499   3.219   1.983
 4017TIP3    H212058   3.522   3.135   2.107
 4018TIP3   OH212059   4.423   0.313   4.131
 4018TIP3    H112060   4.368   0.250   4.177
 4018TIP3    H212061   4.502   0.319   4.184
 4019TIP3   OH212062   4.716   3.014   3.182
 4019TIP3    H112063   4.692   3.073   3.253
 4019TIP3    H212064   4.636   2.965   3.164
 4020TIP3   OH212065   0.802   1.944   3.289
 4020TIP3    H112066   0.873   1.990   3.334
 4020TIP3    H212067   0.730   1.941   3.352
 4021TIP3   OH212068   4.632   2.580   1.705
 4021TIP3    H112069   4.542   2.553   1.687
 4021TIP3    H212070   4.626   2.630   1.786
 4022TIP3   OH212071   6.155   4.233   2.898
 4022TIP3    H112072   6.212   4.217   2.823
 4022TIP3    H212073   6.129   4.145   2.927
 4023TIP3   OH212074   4.099   4.846   2.466
 4023TIP3    H112075   4.019   4.829   2.417
 4023TIP3    H212076   4.161   4.781   2.434
 4024TIP3   OH212077   1.628   1.244   3.269
 4024TIP3    H112078   1.586   1.328   3.252
 4024TIP3    H212079   1.577   1.205   3.340
 4025TIP3   OH212080   4.633   3.700   0.941
 4025TIP3    H112081   4.604   3.636   0.876
 4025TIP3    H212082   4.677   3.768   0.890
 4026TIP3   OH212083   2.669   3.998   1.187
 4026TIP3    H112084   2.636   4.072   1.136
 4026TIP3    H212085   2.701   4.037   1.269
 4027TIP3   OH212086   0.362   2.547   1.415
 4027TIP3    H112087   0.380   2.608   1.343
 4027TIP3    H212088   0.308   2.597   1.476
 4028TIP3   OH212089   1.088   2.512   1.999
 4028TIP3    H112090   1.152   2.514   1.927
 4028TIP3    H212091   1.006   2.486   1.957
 4029TIP3   OH212092   2.719   1.903   3.195
 4029TIP3    H112093   2.740   1.887   3.287
 4029TIP3    H212094   2.624   1.896   3.191
 4030TIP3   OH212095   4.921   5.092   1.157
 4030TIP3    H112096   4.922   5.001   1.186
 4030TIP3    H212097   4.837   5.125   1.188
 4031TIP3   OH212098   0.289   5.844   2.366
 4031TIP3    H112099   0.225   5.777   2.341
 4031TIP3    H212100   0.316   5.883   2.283
 4032TIP3   OH212101   3.913   3.674   1.215
 4032TIP3    H112102   3.924   3.764   1.183
 4032TIP3    H212103   3.920   3.620   1.137
 4033TIP3   OH212104   0.056   5.523   0.110
 4033TIP3    H112105  -0.018   5.567   0.068
 4033TIP3    H212106   0.075   5.449   0.052
 4034TIP3   OH212107   0.002   0.247   4.034
 4034TIP3    H112108  -0.014   0.176   3.973
 4034TIP3    H212109   0.093   0.272   4.018
 4035TIP3   OH212110   4.502   5.953   2.674
 4035TIP3    H112111   4.559   6.028   2.693
 4035TIP3    H212112   4.531   5.886   2.735
 4036TIP3   OH212113   2.864   4.176   0.928
 4036TIP3    H112114   2.857   4.128   0.846
 4036TIP3    H212115   2.898   4.112   0.991
 4037TIP3   OH212116   1.492   4.171   1.324
 4037TIP3    H112117   1.555   4.164   1.396
 4037TIP3    H212118   1.517   4.102   1.263
 4038TIP3   OH212119   1.437   4.090   5.052
 4038TIP3    H112120   1.408   4.148   5.122
 4038TIP3    H212121   1.356   4.051   5.019
 4039TIP3   OH212122   4.321   4.474   1.174
 4039TIP3    H112123   4.386   4.410   1.143
 4039TIP3    H212124   4.268   4.426   1.238
 4040TIP3   OH212125   3.346   0.418   3.516
 4040TIP3    H112126   3.297   0.350   3.470
 4040TIP3    H212127   3.320   0.408   3.607
 4041TIP3   OH212128   0.341   4.571   0.820
 4041TIP3    H112129   0.415   4.528   0.864
 4041TIP3    H212130   0.267   4.555   0.879
 4042TIP3   OH212131   0.988   2.932   1.302
 4042TIP3    H112132   1.077   2.968   1.305
 4042TIP3    H212133   0.980   2.899   1.212
 4043TIP3   OH212134   0.307   2.292   4.174
 4043TIP3    H112135   0.249   2.331   4.239
 4043TIP3    H212136   0.395   2.306   4.209
 4044TIP3   OH212137   2.847   2.526   2.985
 4044TIP3    H112138   2.839   2.507   2.891
 4044TIP3    H212139   2.938   2.554   2.995
 4045TIP3   OH212140   3.251   4.141   0.032
 4045TIP3    H112141   3.231   4.173   0.121
 4045TIP3    H212142   3.187   4.072   0.016
 4046TIP3   OH212143   4.125   4.648   1.159
 4046TIP3    H112144   4.073   4.591   1.217
 4046TIP3    H212145   4.208   4.601   1.148
 4047TIP3   OH212146   3.474   1.818   2.788
 4047TIP3    H112147   3.436   1.902   2.812
 4047TIP3    H212148   3.427   1.754   2.841
 4048TIP3   OH212149   0.368   2.715   3.164
 4048TIP3    H112150   0.388   2.641   3.106
 4048TIP3    H212151   0.372   2.678   3.252
 4049TIP3   OH212152   1.063   3.026   4.887
 4049TIP3    H112153   1.084   3.116   4.860
 4049TIP3    H212154   0.976   3.010   4.850
 4050TIP3   OH212155   1.332   5.115   3.336
 4050TIP3    H112156   1.320   5.022   3.318
 4050TIP3    H212157   1.418   5.121   3.376
 4051TIP3   OH212158   3.895   1.911   0.095
 4051TIP3    H112159   3.942   1.970   0.154
 4051TIP3    H212160   3.962   1.877   0.036
 4052TIP3   OH212161   1.359   2.074   4.680
 4052TIP3    H112162   1.340   2.017   4.606
 4052TIP3    H212163   1.280   2.127   4.690
 4053TIP3   OH212164   6.022   5.907   3.620
 4053TIP3    H112165   6.043   5.818   3.593
 4053TIP3    H212166   5.927   5.912   3.612
 4054TIP3   OH212167   4.996   0.143   0.390
 4054TIP3    H112168   5.006   0.057   0.431
 4054TIP3    H212169   4.932   0.189   0.445
 4055TIP3   OH212170   5.866   1.731   2.340
 4055TIP3    H112171   5.871   1.636   2.350
 4055TIP3    H212172   5.798   1.758   2.402
 4056TIP3   OH212173   5.434   4.378   4.843
 4056TIP3    H112174   5.520   4.344   4.867
 4056TIP3    H212175   5.418   4.450   4.903
 4057TIP3   OH212176   1.455   4.722   4.473
 4057TIP3    H112177   1.536   4.731   4.423
 4057TIP3    H212178   1.411   4.807   4.462
 4058TIP3   OH212179   1.748   1.392   0.535
 4058TIP3    H112180   1.653   1.398   0.547
 4058TIP3    H212181   1.763   1.419   0.445
 4059TIP3   OH212182   0.652   2.627   4.233
 4059TIP3    H112183   0.637   2.721   4.227
 4059TIP3    H212184   0.644   2.595   4.143
 4060TIP3   OH212185   4.334   2.864   2.505
 4060TIP3    H112186   4.249   2.891   2.471
 4060TIP3    H212187   4.394   2.932   2.476
 4061TIP3   OH212188   0.533   2.944   2.742
 4061TIP3    H112189   0.545   2.850   2.726
 4061TIP3    H212190   0.461   2.948   2.806
 4062TIP3   OH212191   4.837   2.581   2.876
 4062TIP3    H112192   4.787   2.569   2.957
 4062TIP3    H212193   4.866   2.672   2.879
 4063TIP3   OH212194   3.395   1.200   2.350
 4063TIP3    H112195   3.346   1.131   2.395
 4063TIP3    H212196   3.388   1.276   2.408
 4064TIP3   OH212197   3.099   5.064   3.015
 4064TIP3    H112198   3.116   5.138   3.074
 4064TIP3    H212199   3.177   5.009   3.023
 4065TIP3   OH212200   3.432   3.761   4.549
 4065TIP3    H112201   3.517   3.745   4.509
 4065TIP3    H212202   3.452   3.788   4.639
 4066TIP3   OH212203   3.666   2.302   2.164
 4066TIP3    H112204   3.647   2.330   2.254
 4066TIP3    H212205   3.750   2.342   2.144
 4067TIP3   OH212206   3.285   4.498   2.755
 4067TIP3    H112207   3.344   4.428   2.728
 4067TIP3    H212208   3.207   4.452   2.787
 4068TIP3   OH212209   0.581   2.927   2.119
 4068TIP3    H112210   0.658   2.945   2.173
 4068TIP3    H212211   0.590   2.835   2.096
 4069TIP3   OH212212   4.224   3.213   0.722
 4069TIP3    H112213   4.258   3.298   0.750
 4069TIP3    H212214   4.301   3.165   0.691
 4070TIP3   OH212215   0.798   0.431   1.294
 4070TIP3    H112216   0.869   0.398   1.348
 4070TIP3    H212217   0.786   0.364   1.227
 4071TIP3   OH212218   1.360   5.811   0.946
 4071TIP3    H112219   1.273   5.845   0.926
 4071TIP3    H212220   1.345   5.720   0.971
 4072TIP3   OH212221   1.927   3.801   3.858
 4072TIP3    H112222   2.020   3.787   3.838
 4072TIP3    H212223   1.918   3.896   3.862
 4073TIP3   OH212224   3.574   4.732   0.285
 4073TIP3    H112225   3.504   4.677   0.250
 4073TIP3    H212226   3.546   4.822   0.267
 4074TIP3   OH212227   5.988   2.803   0.872
 4074TIP3    H112228   5.989   2.893   0.839
 4074TIP3    H212229   5.896   2.777   0.867
 4075TIP3   OH212230   2.133   3.083   1.907
 4075TIP3    H112231   2.071   3.153   1.926
 4075TIP3    H212232   2.079   3.012   1.872
 4076TIP3   OH212233   2.802   5.423   1.037
 4076TIP3    H112234   2.772   5.448   0.950
 4076TIP3    H212235   2.834   5.504   1.076
 4077TIP3   OH212236   3.163   3.597   2.738
 4077TIP3    H112237   3.155   3.504   2.716
 4077TIP3    H212238   3.240   3.602   2.795
 4078TIP3   OH212239   1.840   2.414   2.035
 4078TIP3    H112240   1.754   2.450   2.053
 4078TIP3    H212241   1.900   2.468   2.087
 4079TIP3   OH212242   0.588   5.059   1.363
 4079TIP3    H112243   0.543   4.976   1.345
 4079TIP3    H212244   0.681   5.039   1.353
 4080TIP3   OH212245   5.500   3.117   2.389
 4080TIP3    H112246   5.529   3.184   2.451
 4080TIP3    H212247   5.502   3.160   2.304
 4081TIP3   OH212248   1.196   5.660   4.104
 4081TIP3    H112249   1.134   5.718   4.147
 4081TIP3    H212250   1.255   5.718   4.057
 4082TIP3   OH212251   2.714   1.795   4.469
 4082TIP3    H112252   2.758   1.876   4.443
 4082TIP3    H212253   2.725   1.791   4.564
 4083TIP3   OH212254   0.218   3.696   2.243
 4083TIP3    H112255   0.163   3.769   2.271
 4083TIP3    H212256   0.197   3.625   2.304
 4084TIP3   OH212257   3.928   1.195   2.095
 4084TIP3    H112258   4.017   1.204   2.129
 4084TIP3    H212259   3.876   1.260   2.144
 4085TIP3   OH212260   5.336   2.612   1.166
 4085TIP3    H112261   5.372   2.541   1.219
 4085TIP3    H212262   5.396   2.619   1.091
 4086TIP3   OH212263   3.264   5.391   0.394
 4086TIP3    H112264   3.269   5.374   0.488
 4086TIP3    H212265   3.244   5.306   0.355
 4087TIP3   OH212266   1.150   1.657   4.498
 4087TIP3    H112267   1.056   1.673   4.501
 4087TIP3    H212268   1.159   1.584   4.437
 4088TIP3   OH212269   4.318   3.776   4.099
 4088TIP3    H112270   4.362   3.813   4.022
 4088TIP3    H212271   4.228   3.808   4.093
 4089TIP3   OH212272   6.028   2.324   3.274
 4089TIP3    H112273   5.982   2.375   3.208
 4089TIP3    H212274   6.006   2.366   3.357
 4090TIP3   OH212275   0.496   4.769   0.133
 4090TIP3    H112276   0.573   4.806   0.177
 4090TIP3    H212277   0.433   4.755   0.203
 4091TIP3   OH212278   4.520   0.573   4.411
 4091TIP3    H112279   4.577   0.517   4.463
 4091TIP3    H212280   4.534   0.543   4.321
 4092TIP3   OH212281   1.947   5.157   0.905
 4092TIP3    H112282   2.010   5.084   0.906
 4092TIP3    H212283   1.873   5.124   0.856
 4093TIP3   OH212284   3.143   0.357   1.271
 4093TIP3    H112285   3.106   0.310   1.196
 4093TIP3    H212286   3.218   0.303   1.298
 4094TIP3   OH212287   2.576   1.053   2.280
 4094TIP3    H112288   2.598   0.979   2.224
 4094TIP3    H212289   2.649   1.114   2.269
 4095TIP3   OH212290   5.922   5.228   0.925
 4095TIP3    H112291   5.871   5.164   0.975
 4095TIP3    H212292   5.863   5.257   0.855
 4096TIP3   OH212293   4.793   3.263   2.116
 4096TIP3    H112294   4.815   3.226   2.201
 4096TIP3    H212295   4.790   3.188   2.057
 4097TIP3   OH212296   0.779   2.340   2.315
 4097TIP3    H112297   0.714   2.410   2.310
 4097TIP3    H212298   0.810   2.344   2.406
 4098TIP3   OH212299   4.313   4.902   3.271
 4098TIP3    H112300   4.282   4.834   3.211
 4098TIP3    H212301   4.297   4.866   3.359
 4099TIP3   OH212302   1.319   5.491   3.805
 4099TIP3    H112303   1.343   5.564   3.747
 4099TIP3    H212304   1.381   5.422   3.783
 4100TIP3   OH212305   3.243   3.185   3.802
 4100TIP3    H112306   3.315   3.245   3.822
 4100TIP3    H212307   3.181   3.237   3.752
 4101TIP3   OH212308   0.224   1.318   1.712
 4101TIP3    H112309   0.246   1.323   1.619
 4101TIP3    H212310   0.235   1.225   1.734
 4102TIP3   OH212311   1.118   1.895   0.132
 4102TIP3    H112312   1.145   1.986   0.143
 4102TIP3    H212313   1.113   1.860   0.221
 4103TIP3   OH212314   4.876   2.453   1.580
 4103TIP3    H112315   4.962   2.459   1.622
 4103TIP3    H212316   4.879   2.370   1.532
 4104TIP3   OH212317   2.472   0.718   4.544
 4104TIP3    H112318   2.528   0.641   4.554
 4104TIP3    H212319   2.413   0.696   4.472
 4105TIP3   OH212320   5.526   2.299   5.046
 4105TIP3    H112321   5.473   2.259   4.978
 4105TIP3    H212322   5.611   2.315   5.005
 4106TIP3   OH212323   1.328   2.913   4.097
 4106TIP3    H112324   1.288   2.911   4.184
 4106TIP3    H212325   1.358   2.824   4.082
 4107TIP3   OH212326   1.708   1.686   2.868
 4107TIP3    H112327   1.784   1.743   2.883
 4107TIP3    H212328   1.725   1.643   2.784
 4108TIP3   OH212329   0.149   1.761   2.558
 4108TIP3    H112330   0.085   1.753   2.629
 4108TIP3    H212331   0.114   1.704   2.489
 4109TIP3   OH212332   0.698   5.571   2.981
 4109TIP3    H112333   0.630   5.535   3.039
 4109TIP3    H212334   0.767   5.600   3.041
 4110TIP3   OH212335   1.263   1.900   4.487
 4110TIP3    H112336   1.339   1.900   4.429
 4110TIP3    H212337   1.236   1.809   4.491
 4111TIP3   OH212338   6.149   0.193   3.276
 4111TIP3    H112339   6.216   0.200   3.344
 4111TIP3    H212340   6.197   0.206   3.194
 4112TIP3   OH212341   5.736   5.285   3.224
 4112TIP3    H112342   5.732   5.380   3.232
 4112TIP3    H212343   5.712   5.252   3.311
 4113TIP3   OH212344   3.386   0.958   3.475
 4113TIP3    H112345   3.419   0.868   3.475
 4113TIP3    H212346   3.304   0.954   3.427
 4114TIP3   OH212347   5.850   4.025   3.916
 4114TIP3    H112348   5.818   3.943   3.879
 4114TIP3    H212349   5.929   4.001   3.964
 4115TIP3   OH212350   4.873   2.729   3.838
 4115TIP3    H112351   4.870   2.772   3.924
 4115TIP3    H212352   4.952   2.674   3.842
 4116TIP3   OH212353   5.670   4.920   1.816
 4116TIP3    H112354   5.662   4.863   1.739
 4116TIP3    H212355   5.619   4.876   1.884
 4117TIP3   OH212356   5.941   4.102   0.945
 4117TIP3    H112357   5.935   4.195   0.967
 4117TIP3    H212358   6.025   4.093   0.901
 4118TIP3   OH212359   5.323   4.974   1.756
 4118TIP3    H112360   5.410   4.956   1.722
 4118TIP3    H212361   5.337   5.039   1.826
 4119TIP3   OH212362   0.605   4.404   3.930
 4119TIP3    H112363   0.665   4.464   3.974
 4119TIP3    H212364   0.563   4.458   3.863
 4120TIP3   OH212365   1.281   4.026   2.093
 4120TIP3    H112366   1.350   3.966   2.121
 4120TIP3    H212367   1.319   4.072   2.018
 4121TIP3   OH212368   4.023   4.979   4.486
 4121TIP3    H112369   4.079   5.033   4.543
 4121TIP3    H212370   4.083   4.940   4.423
 4122TIP3   OH212371   4.188   0.425   4.006
 4122TIP3    H112372   4.199   0.450   3.914
 4122TIP3    H212373   4.269   0.377   4.028
 4123TIP3   OH212374   6.021   2.438   0.615
 4123TIP3    H112375   6.017   2.498   0.541
 4123TIP3    H212376   5.952   2.374   0.598
 4124TIP3   OH212377   0.332   0.665   0.156
 4124TIP3    H112378   0.257   0.691   0.210
 4124TIP3    H212379   0.366   0.586   0.198
 4125TIP3   OH212380   3.276   4.003   4.306
 4125TIP3    H112381   3.190   4.012   4.265
 4125TIP3    H212382   3.258   3.974   4.395
 4126TIP3   OH212383   2.785   5.867   3.810
 4126TIP3    H112384   2.788   5.774   3.833
 4126TIP3    H212385   2.840   5.874   3.733
 4127TIP3   OH212386   1.036   2.034   3.417
 4127TIP3    H112387   1.123   2.020   3.380
 4127TIP3    H212388   1.051   2.046   3.511
 4128TIP3   OH212389   3.362   3.115   3.047
 4128TIP3    H112390   3.456   3.114   3.026
 4128TIP3    H212391   3.319   3.090   2.965
 4129TIP3   OH212392   4.143   3.978   2.065
 4129TIP3    H112393   4.091   4.008   2.140
 4129TIP3    H212394   4.138   4.049   2.002
 4130TIP3   OH212395   3.402   4.255   2.659
 4130TIP3    H112396   3.497   4.255   2.656
 4130TIP3    H212397   3.379   4.177   2.709
 4131TIP3   OH212398   1.555   5.899   3.144
 4131TIP3    H112399   1.587   5.837   3.078
 4131TIP3    H212400   1.542   5.846   3.222
 4132TIP3   OH212401   2.417   3.207   4.717
 4132TIP3    H112402   2.503   3.237   4.746
 4132TIP3    H212403   2.435   3.125   4.670
 4133TIP3   OH212404   2.005   3.785   2.819
 4133TIP3    H112405   2.010   3.880   2.803
 4133TIP3    H212406   2.080   3.749   2.773
 4134TIP3   OH212407   3.546   2.527   1.919
 4134TIP3    H112408   3.535   2.469   1.994
 4134TIP3    H212409   3.633   2.507   1.885
 4135TIP3   OH212410   2.406   4.528   0.797
 4135TIP3    H112411   2.352   4.496   0.724
 4135TIP3    H212412   2.418   4.621   0.779
 4136TIP3   OH212413   2.620   2.999   4.299
 4136TIP3    H112414   2.603   3.045   4.381
 4136TIP3    H212415   2.715   2.985   4.298
 4137TIP3   OH212416   5.788   3.786   0.024
 4137TIP3    H112417   5.708   3.796   0.075
 4137TIP3    H212418   5.762   3.808  -0.066
 4138TIP3   OH212419   5.171   2.931   4.014
 4138TIP3    H112420   5.217   2.864   3.963
 4138TIP3    H212421   5.220   3.011   3.999
 4139TIP3   OH212422   3.344   1.614   2.935
 4139TIP3    H112423   3.345   1.672   3.012
 4139TIP3    H212424   3.393   1.537   2.963
 4140TIP3   OH212425   2.197   4.156   2.102
 4140TIP3    H112426   2.114   4.113   2.121
 4140TIP3    H212427   2.260   4.111   2.159
 4141TIP3   OH212428   4.643   3.591   0.437
 4141TIP3    H112429   4.558   3.635   0.441
 4141TIP3    H212430   4.622   3.502   0.410
 4142TIP3   OH212431   1.948   4.169   1.852
 4142TIP3    H112432   1.877   4.222   1.815
 4142TIP3    H212433   1.914   4.140   1.937
 4143TIP3   OH212434   2.583   0.334   2.381
 4143TIP3    H112435   2.592   0.305   2.472
 4143TIP3    H212436   2.674   0.347   2.352
 4144TIP3   OH212437   4.557   3.194   1.894
 4144TIP3    H112438   4.508   3.143   1.830
 4144TIP3    H212439   4.573   3.277   1.851
 4145TIP3   OH212440   0.649   3.331   1.896
 4145TIP3    H112441   0.696   3.251   1.875
 4145TIP3    H212442   0.602   3.311   1.977
 4146TIP3   OH212443   2.935   0.702   1.608
 4146TIP3    H112444   2.917   0.624   1.555
 4146TIP3    H212445   3.031   0.710   1.606
 4147TIP3   OH212446   1.946   1.694   3.156
 4147TIP3    H112447   1.981   1.609   3.128
 4147TIP3    H212448   2.002   1.758   3.112
 4148TIP3   OH212449   1.996   0.678   3.500
 4148TIP3    H112450   1.949   0.761   3.494
 4148TIP3    H212451   1.934   0.613   3.467
 4149TIP3   OH212452   5.662   3.694   0.664
 4149TIP3    H112453   5.665   3.756   0.738
 4149TIP3    H212454   5.571   3.665   0.660
 4150TIP3   OH212455   1.283   0.409   1.459
 4150TIP3    H112456   1.229   0.447   1.529
 4150TIP3    H212457   1.346   0.477   1.437
 4151TIP3   OH212458   1.057   1.619   1.603
 4151TIP3    H112459   0.975   1.575   1.623
 4151TIP3    H212460   1.041   1.711   1.623
 4152TIP3   OH212461   4.903   5.224   3.627
 4152TIP3    H112462   4.887   5.157   3.562
 4152TIP3    H212463   4.869   5.187   3.709
 4153TIP3   OH212464   3.696   2.839   3.410
 4153TIP3    H112465   3.747   2.888   3.346
 4153TIP3    H212466   3.610   2.830   3.370
 4154TIP3   OH212467   3.807   5.446   2.760
 4154TIP3    H112468   3.752   5.424   2.835
 4154TIP3    H212469   3.881   5.494   2.798
 4155TIP3   OH212470   2.207   2.624   1.355
 4155TIP3    H112471   2.301   2.643   1.351
 4155TIP3    H212472   2.181   2.607   1.265
 4156TIP3   OH212473   1.908   2.471   1.168
 4156TIP3    H112474   1.823   2.435   1.141
 4156TIP3    H212475   1.941   2.409   1.233
 4157TIP3   OH212476   0.127   3.829   0.474
 4157TIP3    H112477   0.163   3.743   0.452
 4157TIP3    H212478   0.054   3.842   0.413
 4158TIP3   OH212479   6.127   3.801   4.464
 4158TIP3    H112480   6.114   3.891   4.492
 4158TIP3    H212481   6.203   3.805   4.405
 4159TIP3   OH212482   1.856   4.687   4.802
 4159TIP3    H112483   1.848   4.617   4.867
 4159TIP3    H212484   1.847   4.642   4.718
 4160TIP3   OH212485   6.057   4.272   3.586
 4160TIP3    H112486   6.109   4.335   3.538
 4160TIP3    H212487   6.102   4.262   3.670
 4161TIP3   OH212488   5.475   3.804   4.264
 4161TIP3    H112489   5.551   3.766   4.220
 4161TIP3    H212490   5.511   3.851   4.338
 4162TIP3   OH212491   3.501   0.182   4.923
 4162TIP3    H112492   3.507   0.173   4.827
 4162TIP3    H212493   3.556   0.112   4.957
 4163TIP3   OH212494   1.618   4.887   2.903
 4163TIP3    H112495   1.575   4.809   2.869
 4163TIP3    H212496   1.607   4.882   2.997
 4164TIP3   OH212497   4.071   5.826   1.816
 4164TIP3    H112498   4.050   5.918   1.832
 4164TIP3    H212499   4.163   5.818   1.841
 4165TIP3   OH212500   4.774   3.907   3.636
 4165TIP3    H112501   4.850   3.909   3.695
 4165TIP3    H212502   4.726   3.988   3.655
 4166TIP3   OH212503   0.393   4.328   3.226
 4166TIP3    H112504   0.480   4.336   3.186
 4166TIP3    H212505   0.340   4.394   3.182
 4167TIP3   OH212506   3.873   5.427   2.324
 4167TIP3    H112507   3.804   5.406   2.262
 4167TIP3    H212508   3.830   5.480   2.391
 4168TIP3   OH212509   4.692   4.831   0.480
 4168TIP3    H112510   4.715   4.830   0.573
 4168TIP3    H212511   4.707   4.741   0.451
 4169TIP3   OH212512   6.325   3.682   4.681
 4169TIP3    H112513   6.415   3.695   4.713
 4169TIP3    H212514   6.305   3.764   4.635
 4170TIP3   OH212515   0.922   5.209   0.680
 4170TIP3    H112516   0.965   5.228   0.764
 4170TIP3    H212517   0.913   5.113   0.680
 4171TIP3   OH212518   1.359   1.790   3.651
 4171TIP3    H112519   1.297   1.745   3.709
 4171TIP3    H212520   1.310   1.804   3.570
 4172TIP3   OH212521   1.267   3.820   3.209
 4172TIP3    H112522   1.302   3.733   3.193
 4172TIP3    H212523   1.339   3.879   3.187
 4173TIP3   OH212524   3.031   2.450   1.295
 4173TIP3    H112525   2.969   2.502   1.246
 4173TIP3    H212526   3.111   2.502   1.297
 4174TIP3   OH212527   1.304   1.580   1.289
 4174TIP3    H112528   1.374   1.546   1.345
 4174TIP3    H212529   1.317   1.675   1.289
 4175TIP3   OH212530   3.336   4.467   1.991
 4175TIP3    H112531   3.366   4.542   1.939
 4175TIP3    H212532   3.277   4.419   1.933
 4176TIP3   OH212533   2.485   2.013   0.873
 4176TIP3    H112534   2.412   2.059   0.832
 4176TIP3    H212535   2.483   1.925   0.833
 4177TIP3   OH212536   2.312   5.830   2.467
 4177TIP3    H112537   2.363   5.762   2.422
 4177TIP3    H212538   2.230   5.835   2.417
 4178TIP3   OH212539   3.365   5.772   1.736
 4178TIP3    H112540   3.444   5.721   1.720
 4178TIP3    H212541   3.318   5.724   1.804
 4179TIP3   OH212542   6.281   0.638   2.071
 4179TIP3    H112543   6.357   0.681   2.032
 4179TIP3    H212544   6.298   0.545   2.061
 4180TIP3   OH212545   4.005   3.195   4.370
 4180TIP3    H112546   4.062   3.184   4.446
 4180TIP3    H212547   3.993   3.105   4.337
 4181TIP3   OH212548   2.826   4.179   1.704
 4181TIP3    H112549   2.761   4.150   1.768
 4181TIP3    H212550   2.855   4.098   1.661
 4182TIP3   OH212551   4.129   0.756   3.723
 4182TIP3    H112552   4.100   0.841   3.691
 4182TIP3    H212553   4.155   0.772   3.814
 4183TIP3   OH212554   5.187   1.047   4.880
 4183TIP3    H112555   5.281   1.038   4.890
 4183TIP3    H212556   5.175   1.133   4.839
 4184TIP3   OH212557   1.040   2.112   2.903
 4184TIP3    H112558   1.096   2.051   2.855
 4184TIP3    H212559   1.060   2.097   2.995
 4185TIP3   OH212560   3.345   4.733   0.634
 4185TIP3    H112561   3.417   4.692   0.683
 4185TIP3    H212562   3.321   4.667   0.569
 4186TIP3   OH212563   4.293   3.070   1.299
 4186TIP3    H112564   4.295   3.141   1.235
 4186TIP3    H212565   4.202   3.040   1.298
 4187TIP3   OH212566   3.372   2.338   3.310
 4187TIP3    H112567   3.435   2.348   3.382
 4187TIP3    H212568   3.293   2.304   3.352
 4188TIP3   OH212569   0.273   5.260   4.827
 4188TIP3    H112570   0.214   5.323   4.867
 4188TIP3    H212571   0.276   5.284   4.734
 4189TIP3   OH212572   2.811   0.089   3.606
 4189TIP3    H112573   2.867   0.066   3.531
 4189TIP3    H212574   2.836   0.026   3.674
 4190TIP3   OH212575   0.482   2.601   4.463
 4190TIP3    H112576   0.520   2.619   4.377
 4190TIP3    H212577   0.400   2.555   4.443
 4191TIP3   OH212578   0.441   1.641   1.553
 4191TIP3    H112579   0.519   1.685   1.520
 4191TIP3    H212580   0.377   1.712   1.565
 4192TIP3   OH212581   4.975   0.515   1.002
 4192TIP3    H112582   4.899   0.459   1.019
 4192TIP3    H212583   4.938   0.592   0.958
 4193TIP3   OH212584   6.224   0.266   0.754
 4193TIP3    H112585   6.137   0.239   0.725
 4193TIP3    H212586   6.225   0.249   0.848
 4194TIP3   OH212587   3.043   2.579   0.984
 4194TIP3    H112588   3.048   2.671   0.960
 4194TIP3    H212589   2.949   2.558   0.979
 4195TIP3   OH212590   3.000   2.390   0.246
 4195TIP3    H112591   2.992   2.384   0.151
 4195TIP3    H212592   2.965   2.307   0.278
 4196TIP3   OH212593   3.434   3.553   0.748
 4196TIP3    H112594   3.479   3.476   0.715
 4196TIP3    H212595   3.346   3.548   0.711
 4197TIP3   OH212596   6.086   5.166   2.925
 4197TIP3    H112597   6.127   5.234   2.978
 4197TIP3    H212598   6.044   5.214   2.854
 4198TIP3   OH212599   1.734   5.496   4.172
 4198TIP3    H112600   1.705   5.526   4.259
 4198TIP3    H212601   1.714   5.569   4.114
 4199TIP3   OH212602   5.764   1.828   1.493
 4199TIP3    H112603   5.753   1.749   1.439
 4199TIP3    H212604   5.722   1.897   1.442
 4200TIP3   OH212605   2.584   4.359   1.792
 4200TIP3    H112606   2.611   4.282   1.843
 4200TIP3    H212607   2.597   4.332   1.701
 4201TIP3   OH212608   1.782   5.287   2.857
 4201TIP3    H112609   1.835   5.360   2.824
 4201TIP3    H212610   1.758   5.238   2.779
 4202TIP3   OH212611   5.806   4.810   2.076
 4202TIP3    H112612   5.832   4.756   2.151
 4202TIP3    H212613   5.722   4.774   2.049
 4203TIP3   OH212614   5.739   3.195   3.844
 4203TIP3    H112615   5.698   3.276   3.814
 4203TIP3    H212616   5.756   3.145   3.763
 4204TIP3   OH212617   2.786   5.763   1.408
 4204TIP3    H112618   2.726   5.779   1.481
 4204TIP3    H212619   2.767   5.833   1.346
 4205TIP3   OH212620   2.873   0.870   4.112
 4205TIP3    H112621   2.931   0.945   4.098
 4205TIP3    H212622   2.931   0.802   4.148
 4206TIP3   OH212623   2.021   4.496   0.812
 4206TIP3    H112624   2.042   4.461   0.726
 4206TIP3    H212625   1.951   4.560   0.796
 4207TIP3   OH212626   0.723   2.500   3.707
 4207TIP3    H112627   0.739   2.411   3.675
 4207TIP3    H212628   0.799   2.550   3.677
 4208TIP3   OH212629   0.942   3.764   2.560
 4208TIP3    H112630   0.876   3.816   2.606
 4208TIP3    H212631   0.896   3.686   2.532
 4209TIP3   OH212632   1.408   0.776   4.214
 4209TIP3    H112633   1.407   0.817   4.128
 4209TIP3    H212634   1.478   0.711   4.209
 4210TIP3   OH212635   0.571   1.680   5.185
 4210TIP3    H112636   0.564   1.732   5.105
 4210TIP3    H212637   0.626   1.606   5.160
 4211TIP3   OH212638   1.694   2.780   0.515
 4211TIP3    H112639   1.641   2.839   0.568
 4211TIP3    H212640   1.634   2.709   0.492
 4212TIP3   OH212641   4.229   5.768   3.233
 4212TIP3    H112642   4.220   5.794   3.141
 4212TIP3    H212643   4.311   5.809   3.262
 4213TIP3   OH212644   0.702   5.482   3.396
 4213TIP3    H112645   0.741   5.450   3.314
 4213TIP3    H212646   0.651   5.558   3.370
 4214TIP3   OH212647   5.933   0.783   3.960
 4214TIP3    H112648   5.910   0.821   3.875
 4214TIP3    H212649   5.860   0.725   3.980
 4215TIP3   OH212650   3.796   0.698   4.900
 4215TIP3    H112651   3.783   0.671   4.810
 4215TIP3    H212652   3.735   0.643   4.950
 4216TIP3   OH212653   3.874   5.734   1.559
 4216TIP3    H112654   3.903   5.698   1.643
 4216TIP3    H212655   3.915   5.678   1.493
 4217TIP3   OH212656   1.006   5.575   0.287
 4217TIP3    H112657   1.006   5.481   0.303
 4217TIP3    H212658   0.977   5.584   0.196
 4218TIP3   OH212659   1.398   1.048   1.819
 4218TIP3    H112660   1.470   1.100   1.785
 4218TIP3    H212661   1.369   1.095   1.897
 4219TIP3   OH212662   2.131   1.398   4.582
 4219TIP3    H112663   2.133   1.303   4.598
 4219TIP3    H212664   2.185   1.435   4.652
 4220TIP3   OH212665   5.975   3.746   1.861
 4220TIP3    H112666   6.014   3.818   1.812
 4220TIP3    H212667   5.993   3.668   1.809
 4221TIP3   OH212668   2.846   1.559   0.181
 4221TIP3    H112669   2.910   1.569   0.250
 4221TIP3    H212670   2.836   1.464   0.171
 4222TIP3   OH212671   1.232   4.808   4.076
 4222TIP3    H112672   1.177   4.887   4.075
 4222TIP3    H212673   1.317   4.838   4.044
 4223TIP3   OH212674   5.102   5.941   2.392
 4223TIP3    H112675   5.156   5.960   2.315
 4223TIP3    H212676   5.151   5.978   2.466
 4224TIP3   OH212677   0.724   0.066   0.682
 4224TIP3    H112678   0.755  -0.005   0.738
 4224TIP3    H212679   0.724   0.143   0.738
 4225TIP3   OH212680   0.156   4.629   3.597
 4225TIP3    H112681   0.192   4.606   3.683
 4225TIP3    H212682   0.224   4.603   3.535
 4226TIP3   OH212683   2.189   2.917   1.194
 4226TIP3    H112684   2.100   2.915   1.160
 4226TIP3    H212685   2.214   2.825   1.201
 4227TIP3   OH212686   5.635   2.896   4.179
 4227TIP3    H112687   5.727   2.896   4.152
 4227TIP3    H212688   5.637   2.869   4.271
 4228TIP3   OH212689   1.751   4.184   0.631
 4228TIP3    H112690   1.778   4.118   0.695
 4228TIP3    H212691   1.720   4.257   0.685
 4229TIP3   OH212692   1.935   0.374   0.975
 4229TIP3    H112693   1.875   0.404   1.044
 4229TIP3    H212694   1.879   0.362   0.899
 4230TIP3   OH212695   4.416   4.070   1.937
 4230TIP3    H112696   4.325   4.093   1.916
 4230TIP3    H212697   4.437   4.123   2.014
 4231TIP3   OH212698   1.604   1.578   1.998
 4231TIP3    H112699   1.552   1.638   2.050
 4231TIP3    H212700   1.661   1.634   1.946
 4232TIP3   OH212701   5.946   2.595   2.518
 4232TIP3    H112702   5.944   2.575   2.425
 4232TIP3    H212703   6.036   2.622   2.535
 4233TIP3   OH212704   4.390   5.145   0.238
 4233TIP3    H112705   4.350   5.176   0.156
 4233TIP3    H212706   4.482   5.171   0.230
 4234TIP3   OH212707   3.212   0.987   2.799
 4234TIP3    H112708   3.145   0.950   2.742
 4234TIP3    H212709   3.215   1.080   2.776
 4235TIP3   OH212710   5.543   0.118   3.035
 4235TIP3    H112711   5.479   0.048   3.021
 4235TIP3    H212712   5.552   0.123   3.130
 4236TIP3   OH212713   4.044   1.236   3.214
 4236TIP3    H112714   3.980   1.205   3.150
 4236TIP3    H212715   4.057   1.328   3.191
 4237TIP3   OH212716   3.165   5.633   3.959
 4237TIP3    H112717   3.190   5.542   3.943
 4237TIP3    H212718   3.073   5.627   3.986
 4238TIP3   OH212719   4.532   0.479   3.173
 4238TIP3    H112720   4.454   0.509   3.125
 4238TIP3    H212721   4.582   0.431   3.107
 4239TIP3   OH212722   5.422   0.434   3.826
 4239TIP3    H112723   5.417   0.529   3.819
 4239TIP3    H212724   5.341   0.403   3.785
 4240TIP3   OH212725   1.373   1.389   2.903
 4240TIP3    H112726   1.409   1.318   2.956
 4240TIP3    H212727   1.278   1.376   2.907
 4241TIP3   OH212728   0.776   4.543   2.562
 4241TIP3    H112729   0.790   4.521   2.655
 4241TIP3    H212730   0.833   4.482   2.515
 4242TIP3   OH212731   4.607   5.908   0.477
 4242TIP3    H112732   4.551   5.985   0.466
 4242TIP3    H212733   4.549   5.842   0.514
 4243TIP3   OH212734   2.661   0.460   5.029
 4243TIP3    H112735   2.627   0.528   5.088
 4243TIP3    H212736   2.751   0.486   5.012
 4244TIP3   OH212737   3.215   5.824   3.769
 4244TIP3    H112738   3.299   5.854   3.803
 4244TIP3    H212739   3.188   5.755   3.829
 4245TIP3   OH212740   2.728   2.715   4.946
 4245TIP3    H112741   2.729   2.795   4.895
 4245TIP3    H212742   2.816   2.710   4.984
 4246TIP3   OH212743   2.230   0.647   4.054
 4246TIP3    H112744   2.281   0.573   4.020
 4246TIP3    H212745   2.243   0.642   4.149
 4247TIP3   OH212746   3.891   0.898   1.968
 4247TIP3    H112747   3.925   0.830   2.026
 4247TIP3    H212748   3.824   0.943   2.020
 4248TIP3   OH212749   5.461   4.860   2.309
 4248TIP3    H112750   5.495   4.934   2.259
 4248TIP3    H212751   5.453   4.790   2.244
 4249TIP3   OH212752   5.407   0.282   4.095
 4249TIP3    H112753   5.479   0.255   4.151
 4249TIP3    H212754   5.449   0.306   4.012
 4250TIP3   OH212755   5.290   5.491   5.139
 4250TIP3    H112756   5.343   5.462   5.065
 4250TIP3    H212757   5.278   5.585   5.123
 4251TIP3   OH212758   3.828   4.245   1.935
 4251TIP3    H112759   3.851   4.335   1.959
 4251TIP3    H212760   3.882   4.227   1.858
 4252TIP3   OH212761   5.936   0.342   1.994
 4252TIP3    H112762   5.940   0.413   2.058
 4252TIP3    H212763   5.913   0.384   1.912
 4253TIP3   OH212764   5.363   5.519   4.107
 4253TIP3    H112765   5.274   5.484   4.101
 4253TIP3    H212766   5.396   5.517   4.018
 4254TIP3   OH212767   5.644   2.452   2.803
 4254TIP3    H112768   5.591   2.523   2.767
 4254TIP3    H212769   5.709   2.496   2.859
 4255TIP3   OH212770   2.180   4.365   1.228
 4255TIP3    H112771   2.107   4.423   1.206
 4255TIP3    H212772   2.250   4.391   1.168
 4256TIP3   OH212773   1.554   2.591   4.498
 4256TIP3    H112774   1.534   2.663   4.558
 4256TIP3    H212775   1.611   2.631   4.432
 4257TIP3   OH212776   3.894   5.233   0.053
 4257TIP3    H112777   3.957   5.295   0.090
 4257TIP3    H212778   3.882   5.167   0.121
 4258TIP3   OH212779   1.978   3.402   2.746
 4258TIP3    H112780   1.963   3.465   2.676
 4258TIP3    H212781   2.032   3.449   2.810
 4259TIP3   OH212782   2.644   0.454   1.440
 4259TIP3    H112783   2.639   0.363   1.412
 4259TIP3    H212784   2.738   0.472   1.446
 4260TIP3   OH212785   5.562   0.156   0.461
 4260TIP3    H112786   5.611   0.144   0.379
 4260TIP3    H212787   5.521   0.242   0.452
 4261TIP3   OH212788   5.795   4.269   2.730
 4261TIP3    H112789   5.702   4.294   2.731
 4261TIP3    H212790   5.842   4.351   2.740
 4262TIP3   OH212791   0.733   1.933   2.222
 4262TIP3    H112792   0.730   1.897   2.310
 4262TIP3    H212793   0.670   1.881   2.172
 4263TIP3   OH212794   2.018   0.210   0.216
 4263TIP3    H112795   1.971   0.151   0.275
 4263TIP3    H212796   1.988   0.298   0.242
 4264TIP3   OH212797   6.081   5.354   5.144
 4264TIP3    H112798   6.082   5.449   5.136
 4264TIP3    H212799   6.154   5.324   5.089
 4265TIP3   OH212800   5.574   4.714   1.967
 4265TIP3    H112801   5.590   4.647   1.901
 4265TIP3    H212802   5.498   4.682   2.016
 4266TIP3   OH212803   3.244   1.394   4.772
 4266TIP3    H112804   3.185   1.320   4.760
 4266TIP3    H212805   3.195   1.454   4.829
 4267TIP3   OH212806   3.939   1.674   2.199
 4267TIP3    H112807   3.858   1.624   2.208
 4267TIP3    H212808   3.950   1.685   2.104
 4268TIP3   OH212809   2.419   3.591   0.365
 4268TIP3    H112810   2.339   3.636   0.337
 4268TIP3    H212811   2.394   3.547   0.446
 4269TIP3   OH212812   4.299   1.989   4.797
 4269TIP3    H112813   4.216   2.023   4.832
 4269TIP3    H212814   4.358   1.988   4.872
 4270TIP3   OH212815   1.031   1.865   2.218
 4270TIP3    H112816   1.099   1.823   2.272
 4270TIP3    H212817   0.958   1.877   2.278
 4271TIP3   OH212818   1.545   5.374   3.611
 4271TIP3    H112819   1.589   5.443   3.562
 4271TIP3    H212820   1.604   5.355   3.684
 4272TIP3   OH212821   0.104   5.128   3.113
 4272TIP3    H112822   0.058   5.121   3.196
 4272TIP3    H212823   0.130   5.220   3.107
 4273TIP3   OH212824   1.071   5.511   1.665
 4273TIP3    H112825   0.994   5.458   1.686
 4273TIP3    H212826   1.059   5.534   1.573
 4274TIP3   OH212827   3.399   4.732   1.881
 4274TIP3    H112828   3.350   4.788   1.821
 4274TIP3    H212829   3.475   4.703   1.831
 4275TIP3   OH212830   2.578   2.860   3.262
 4275TIP3    H112831   2.596   2.873   3.355
 4275TIP3    H212832   2.562   2.766   3.253
 4276TIP3   OH212833   3.557   0.180   3.143
 4276TIP3    H112834   3.478   0.191   3.091
 4276TIP3    H212835   3.565   0.085   3.155
 4277TIP3   OH212836   4.925   3.262   3.565
 4277TIP3    H112837   4.949   3.268   3.473
 4277TIP3    H212838   4.833   3.237   3.564
 4278TIP3   OH212839   3.918   0.683   2.122
 4278TIP3    H112840   3.980   0.649   2.058
 4278TIP3    H212841   3.866   0.607   2.147
 4279TIP3   OH212842   2.111   0.793   1.120
 4279TIP3    H112843   2.157   0.719   1.159
 4279TIP3    H212844   2.138   0.791   1.028
 4280TIP3   OH212845   3.680   4.364   1.697
 4280TIP3    H112846   3.692   4.271   1.679
 4280TIP3    H212847   3.668   4.369   1.792
 4281TIP3   OH212848   4.812   0.277   2.340
 4281TIP3    H112849   4.801   0.185   2.314
 4281TIP3    H212850   4.724   0.305   2.364
 4282TIP3   OH212851   1.259   4.434   2.256
 4282TIP3    H112852   1.293   4.372   2.192
 4282TIP3    H212853   1.164   4.424   2.253
 4283TIP3   OH212854   3.647   2.037   3.549
 4283TIP3    H112855   3.708   2.015   3.619
 4283TIP3    H212856   3.688   2.110   3.504
 4284TIP3   OH212857   2.704   1.468   2.471
 4284TIP3    H112858   2.681   1.381   2.504
 4284TIP3    H212859   2.663   1.529   2.533
 4285TIP3   OH212860   3.304   4.360   1.324
 4285TIP3    H112861   3.368   4.288   1.318
 4285TIP3    H212862   3.358   4.439   1.322
 4286TIP3   OH212863   4.904   5.503   3.105
 4286TIP3    H112864   4.989   5.546   3.093
 4286TIP3    H212865   4.892   5.500   3.200
 4287TIP3   OH212866   1.380   2.355   4.886
 4287TIP3    H112867   1.411   2.445   4.869
 4287TIP3    H212868   1.453   2.299   4.859
 4288TIP3   OH212869   1.956   1.060   2.213
 4288TIP3    H112870   2.037   1.107   2.233
 4288TIP3    H212871   1.974   1.015   2.130
 4289TIP3   OH212872   1.563   4.383   3.032
 4289TIP3    H112873   1.585   4.409   3.121
 4289TIP3    H212874   1.496   4.446   3.004
 4290TIP3   OH212875   2.395   4.405   2.506
 4290TIP3    H112876   2.324   4.403   2.570
 4290TIP3    H212877   2.471   4.439   2.554
 4291TIP3   OH212878   4.237   0.725   4.268
 4291TIP3    H112879   4.280   0.757   4.347
 4291TIP3    H212880   4.158   0.778   4.259
 4292TIP3   OH212881   6.297   0.388   1.992
 4292TIP3    H112882   6.371   0.330   1.974
 4292TIP3    H212883   6.230   0.331   2.028
 4293TIP3   OH212884   4.597   4.819   4.830
 4293TIP3    H112885   4.561   4.898   4.872
 4293TIP3    H212886   4.581   4.749   4.894
 4294TIP3   OH212887   0.932   3.822   3.618
 4294TIP3    H112888   0.962   3.769   3.692
 4294TIP3    H212889   1.012   3.839   3.568
 4295TIP3   OH212890   4.944   5.598   2.459
 4295TIP3    H112891   4.859   5.609   2.415
 4295TIP3    H212892   4.992   5.537   2.403
 4296TIP3   OH212893   1.609   5.041   1.311
 4296TIP3    H112894   1.635   5.105   1.377
 4296TIP3    H212895   1.573   4.968   1.360
 4297TIP3   OH212896   3.194   3.092   1.828
 4297TIP3    H112897   3.161   3.003   1.819
 4297TIP3    H212898   3.135   3.132   1.893
 4298TIP3   OH212899   5.354   1.030   3.763
 4298TIP3    H112900   5.366   1.121   3.739
 4298TIP3    H212901   5.408   1.018   3.842
 4299TIP3   OH212902   0.857   0.593   2.817
 4299TIP3    H112903   0.902   0.531   2.873
 4299TIP3    H212904   0.917   0.667   2.808
 4300TIP3   OH212905   4.099   4.180   3.496
 4300TIP3    H112906   4.182   4.132   3.498
 4300TIP3    H212907   4.036   4.121   3.537
 4301TIP3   OH212908   0.653   4.079   5.065
 4301TIP3    H112909   0.590   4.111   5.130
 4301TIP3    H212910   0.692   4.158   5.028
 4302TIP3   OH212911   1.311   1.830   1.260
 4302TIP3    H112912   1.287   1.886   1.186
 4302TIP3    H212913   1.278   1.876   1.337
 4303TIP3   OH212914   4.033   0.211   0.683
 4303TIP3    H112915   3.967   0.185   0.747
 4303TIP3    H212916   4.003   0.172   0.600
 4304TIP3   OH212917   1.743   5.185   3.693
 4304TIP3    H112918   1.764   5.231   3.612
 4304TIP3    H212919   1.662   5.138   3.674
 4305TIP3   OH212920   6.055   5.036   1.228
 4305TIP3    H112921   6.075   4.956   1.179
 4305TIP3    H212922   6.134   5.089   1.220
 4306TIP3   OH212923   0.998   4.523   3.460
 4306TIP3    H112924   0.997   4.612   3.425
 4306TIP3    H212925   0.987   4.466   3.384
 4307TIP3   OH212926   0.367   3.731   2.667
 4307TIP3    H112927   0.364   3.822   2.698
 4307TIP3    H212928   0.387   3.739   2.574
 4308TIP3   OH212929   4.032   4.222   3.876
 4308TIP3    H112930   4.107   4.186   3.924
 4308TIP3    H212931   4.034   4.176   3.792
 4309TIP3   OH212932   3.648   4.197   0.826
 4309TIP3    H112933   3.707   4.233   0.760
 4309TIP3    H212934   3.586   4.143   0.776
 4310TIP3   OH212935   5.219   1.892   4.022
 4310TIP3    H112936   5.259   1.973   3.990
 4310TIP3    H212937   5.292   1.840   4.056
 4311TIP3   OH212938   0.058   4.566   0.364
 4311TIP3    H112939   0.044   4.520   0.447
 4311TIP3    H212940   0.111   4.506   0.312
 4312TIP3   OH212941   2.119   1.685   5.037
 4312TIP3    H112942   2.095   1.755   5.098
 4312TIP3    H212943   2.111   1.725   4.951
 4313TIP3   OH212944   3.453   3.189   1.820
 4313TIP3    H112945   3.358   3.178   1.819
 4313TIP3    H212946   3.472   3.244   1.745
 4314TIP3   OH212947   4.886   1.376   3.432
 4314TIP3    H112948   4.880   1.287   3.466
 4314TIP3    H212949   4.890   1.366   3.337
 4315TIP3   OH212950   3.045   5.839   0.770
 4315TIP3    H112951   3.090   5.755   0.775
 4315TIP3    H212952   3.111   5.904   0.795
 4316TIP3   OH212953   5.207   4.338   4.999
 4316TIP3    H112954   5.248   4.345   4.912
 4316TIP3    H212955   5.147   4.263   4.990
 4317TIP3   OH212956   5.955   3.883   4.954
 4317TIP3    H112957   5.989   3.799   4.925
 4317TIP3    H212958   6.000   3.901   5.036
 4318TIP3   OH212959   3.920   4.485   1.614
 4318TIP3    H112960   3.935   4.469   1.520
 4318TIP3    H212961   3.825   4.477   1.624
 4319TIP3   OH212962   1.781   3.857   1.991
 4319TIP3    H112963   1.763   3.768   2.020
 4319TIP3    H212964   1.854   3.848   1.930
 4320TIP3   OH212965   2.055   1.277   3.653
 4320TIP3    H112966   2.066   1.201   3.709
 4320TIP3    H212967   2.125   1.269   3.587
 4321TIP3   OH212968   5.542   4.126   3.643
 4321TIP3    H112969   5.462   4.179   3.636
 4321TIP3    H212970   5.609   4.178   3.599
 4322TIP3   OH212971   4.627   4.715   1.261
 4322TIP3    H112972   4.710   4.760   1.242
 4322TIP3    H212973   4.620   4.648   1.193
 4323TIP3   OH212974   2.168   3.080   2.230
 4323TIP3    H112975   2.258   3.050   2.228
 4323TIP3    H212976   2.142   3.086   2.138
 4324TIP3   OH212977   1.243   3.361   3.585
 4324TIP3    H112978   1.193   3.414   3.647
 4324TIP3    H212979   1.182   3.293   3.557
 4325TIP3   OH212980   4.676   1.503   1.133
 4325TIP3    H112981   4.739   1.574   1.142
 4325TIP3    H212982   4.729   1.425   1.118
 4326TIP3   OH212983   1.091   3.733   0.334
 4326TIP3    H112984   1.097   3.720   0.429
 4326TIP3    H212985   1.087   3.828   0.323
 4327TIP3   OH212986   2.799   2.314   3.518
 4327TIP3    H112987   2.756   2.237   3.480
 4327TIP3    H212988   2.867   2.278   3.575
 4328TIP3   OH212989   0.613   0.283   2.039
 4328TIP3    H112990   0.648   0.346   1.976
 4328TIP3    H212991   0.687   0.259   2.094
 4329TIP3   OH212992   2.362   3.716   1.617
 4329TIP3    H112993   2.313   3.659   1.557
 4329TIP3    H212994   2.431   3.754   1.562
 4330TIP3   OH212995   3.576   2.382   3.453
 4330TIP3    H112996   3.656   2.343   3.418
 4330TIP3    H212997   3.601   2.414   3.540
 4331TIP3   OH212998   4.776   1.228   0.775
 4331TIP3    H112999   4.699   1.190   0.732
 4331TIP3    H213000   4.846   1.220   0.710
 4332TIP3   OH213001   1.749   0.707   4.385
 4332TIP3    H113002   1.726   0.651   4.310
 4332TIP3    H213003   1.756   0.646   4.459
 4333TIP3   OH213004   2.827   1.148   2.264
 4333TIP3    H113005   2.881   1.176   2.337
 4333TIP3    H213006   2.863   1.195   2.188
 4334TIP3   OH213007   2.011   2.644   4.976
 4334TIP3    H113008   1.925   2.608   4.955
 4334TIP3    H213009   1.992   2.715   5.037
 4335TIP3   OH213010   4.351   2.530   4.349
 4335TIP3    H113011   4.383   2.619   4.334
 4335TIP3    H213012   4.351   2.521   4.444
 4336TIP3   OH213013   0.626   2.320   0.029
 4336TIP3    H113014   0.682   2.336  -0.048
 4336TIP3    H213015   0.681   2.269   0.088
 4337TIP3   OH213016   0.339   5.035   2.999
 4337TIP3    H113017   0.377   5.055   3.085
 4337TIP3    H213018   0.247   5.061   3.008
 4338TIP3   OH213019   4.437   3.255   3.685
 4338TIP3    H113020   4.376   3.183   3.704
 4338TIP3    H213021   4.520   3.227   3.724
 4339TIP3   OH213022   4.734   1.048   4.809
 4339TIP3    H113023   4.723   0.992   4.733
 4339TIP3    H213024   4.721   1.137   4.776
 4340TIP3   OH213025   1.655   0.424   4.391
 4340TIP3    H113026   1.712   0.369   4.445
 4340TIP3    H213027   1.596   0.466   4.453
 4341TIP3   OH213028   3.734   2.427   4.988
 4341TIP3    H113029   3.646   2.400   5.016
 4341TIP3    H213030   3.727   2.436   4.893
 4342TIP3   OH213031   2.084   2.806   2.332
 4342TIP3    H113032   2.180   2.799   2.336
 4342TIP3    H213033   2.065   2.812   2.239
 4343TIP3   OH213034   6.237   3.010   2.907
 4343TIP3    H113035   6.289   3.031   2.984
 4343TIP3    H213036   6.234   3.092   2.857
 4344TIP3   OH213037   3.348   0.860   1.173
 4344TIP3    H113038   3.406   0.817   1.110
 4344TIP3    H213039   3.312   0.788   1.226
 4345TIP3   OH213040   5.299   4.348   2.411
 4345TIP3    H113041   5.206   4.364   2.391
 4345TIP3    H213042   5.296   4.296   2.492
 4346TIP3   OH213043   3.571   5.324   4.517
 4346TIP3    H113044   3.569   5.232   4.544
 4346TIP3    H213045   3.635   5.326   4.446
 4347TIP3   OH213046   3.907   1.607   3.521
 4347TIP3    H113047   3.882   1.539   3.459
 4347TIP3    H213048   3.992   1.637   3.491
 4348TIP3   OH213049   1.584   4.495   0.063
 4348TIP3    H113050   1.505   4.463   0.107
 4348TIP3    H213051   1.551   4.538  -0.017
 4349TIP3   OH213052   4.578   1.297   0.018
 4349TIP3    H113053   4.506   1.343   0.061
 4349TIP3    H213054   4.655   1.319   0.070
 4350TIP3   OH213055   0.525  -0.006   2.145
 4350TIP3    H113056   0.583   0.045   2.089
 4350TIP3    H213057   0.509   0.050   2.221
 4351TIP3   OH213058   5.713   2.035   0.077
 4351TIP3    H113059   5.698   2.021  -0.017
 4351TIP3    H213060   5.693   1.950   0.117
 4352TIP3   OH213061   2.712   2.122   0.247
 4352TIP3    H113062   2.663   2.040   0.236
 4352TIP3    H213063   2.779   2.118   0.179
 4353TIP3   OH213064   4.993   5.921   4.655
 4353TIP3    H113065   5.042   5.849   4.614
 4353TIP3    H213066   4.997   5.992   4.591
 4354TIP3   OH213067   3.346   1.381   1.777
 4354TIP3    H113068   3.413   1.317   1.803
 4354TIP3    H213069   3.391   1.465   1.778
 4355TIP3   OH213070   5.551   3.129   4.056
 4355TIP3    H113071   5.594   3.049   4.086
 4355TIP3    H213072   5.611   3.166   3.992
 4356TIP3   OH213073   5.090   2.224   2.132
 4356TIP3    H113074   5.132   2.254   2.212
 4356TIP3    H213075   5.081   2.129   2.144
 4357TIP3   OH213076   5.877   2.700   1.199
 4357TIP3    H113077   5.905   2.687   1.290
 4357TIP3    H213078   5.910   2.623   1.153
 4358TIP3   OH213079   1.004   4.661   0.768
 4358TIP3    H113080   0.929   4.632   0.716
 4358TIP3    H213081   1.061   4.704   0.704
 4359TIP3   OH213082   6.195   5.370   1.281
 4359TIP3    H113083   6.197   5.326   1.196
 4359TIP3    H213084   6.256   5.320   1.335
 4360TIP3   OH213085   1.305   3.402   2.987
 4360TIP3    H113086   1.333   3.440   2.903
 4360TIP3    H213087   1.342   3.314   2.988
 4361TIP3   OH213088   0.815   5.669   1.070
 4361TIP3    H113089   0.794   5.626   1.153
 4361TIP3    H213090   0.740   5.727   1.054
 4362TIP3   OH213091   1.803   0.870   3.244
 4362TIP3    H113092   1.790   0.865   3.339
 4362TIP3    H213093   1.715   0.872   3.208
 4363TIP3   OH213094   5.700   1.809   5.056
 4363TIP3    H113095   5.613   1.847   5.065
 4363TIP3    H213096   5.725   1.828   4.965
 4364TIP3   OH213097   2.931   5.406   5.014
 4364TIP3    H113098   2.956   5.404   4.922
 4364TIP3    H213099   2.971   5.486   5.049
 4365TIP3   OH213100   0.507   2.279   3.562
 4365TIP3    H113101   0.598   2.251   3.563
 4365TIP3    H213102   0.484   2.291   3.654
 4366TIP3   OH213103   2.915   2.803   4.641
 4366TIP3    H113104   2.966   2.790   4.721
 4366TIP3    H213105   2.919   2.718   4.597
 4367TIP3   OH213106   0.116   3.669   5.063
 4367TIP3    H113107   0.094   3.588   5.016
 4367TIP3    H213108   0.193   3.646   5.116
 4368TIP3   OH213109   2.014   3.482   5.046
 4368TIP3    H113110   2.007   3.496   4.951
 4368TIP3    H213111   2.099   3.520   5.069
 4369TIP3   OH213112   3.980   5.336   4.557
 4369TIP3    H113113   4.063   5.384   4.563
 4369TIP3    H213114   3.998   5.252   4.598
 4370TIP3   OH213115   0.996   4.996   2.653
 4370TIP3    H113116   0.972   5.020   2.742
 4370TIP3    H213117   0.951   4.913   2.637
 4371TIP3   OH213118   6.254   1.286   2.193
 4371TIP3    H113119   6.236   1.321   2.280
 4371TIP3    H213120   6.169   1.258   2.160
 4372TIP3   OH213121   6.183   3.814   3.736
 4372TIP3    H113122   6.195   3.771   3.652
 4372TIP3    H213123   6.092   3.844   3.734
 4373TIP3   OH213124   2.408   3.095   2.637
 4373TIP3    H113125   2.474   3.042   2.682
 4373TIP3    H213126   2.345   3.118   2.705
 4374TIP3   OH213127   5.108   0.500   2.588
 4374TIP3    H113128   5.077   0.545   2.666
 4374TIP3    H213129   5.201   0.524   2.583
 4375TIP3   OH213130   1.058   0.292   4.107
 4375TIP3    H113131   1.089   0.378   4.079
 4375TIP3    H213132   1.068   0.236   4.030
 4376TIP3   OH213133   3.906   4.810   4.786
 4376TIP3    H113134   3.962   4.887   4.778
 4376TIP3    H213135   3.871   4.815   4.875
 4377TIP3   OH213136   1.212   3.606   1.745
 4377TIP3    H113137   1.212   3.614   1.840
 4377TIP3    H213138   1.301   3.632   1.719
 4378TIP3   OH213139   4.835   1.306   4.940
 4378TIP3    H113140   4.867   1.302   5.030
 4378TIP3    H213141   4.873   1.229   4.898
 4379TIP3   OH213142   1.284   2.534   4.162
 4379TIP3    H113143   1.210   2.582   4.199
 4379TIP3    H213144   1.316   2.479   4.233
 4380TIP3   OH213145   6.222   5.578   1.526
 4380TIP3    H113146   6.223   5.551   1.434
 4380TIP3    H213147   6.136   5.619   1.538
 4381TIP3   OH213148  -0.004   1.829   2.775
 4381TIP3    H113149  -0.047   1.905   2.737
 4381TIP3    H213150   0.033   1.861   2.858
 4382TIP3   OH213151   4.275   3.803   1.658
 4382TIP3    H113152   4.305   3.812   1.749
 4382TIP3    H213153   4.325   3.729   1.624
 4383TIP3   OH213154   3.575   2.167   4.946
 4383TIP3    H113155   3.489   2.204   4.925
 4383TIP3    H213156   3.607   2.134   4.862
 4384TIP3   OH213157   4.655   2.534   3.102
 4384TIP3    H113158   4.617   2.525   3.190
 4384TIP3    H213159   4.586   2.507   3.043
 4385TIP3   OH213160   4.738   1.222   2.189
 4385TIP3    H113161   4.650   1.188   2.177
 4385TIP3    H213162   4.728   1.317   2.189
 4386TIP3   OH213163   4.490   0.615   0.349
 4386TIP3    H113164   4.482   0.533   0.397
 4386TIP3    H213165   4.581   0.616   0.318
 4387TIP3   OH213166   3.198   0.688   1.929
 4387TIP3    H113167   3.206   0.595   1.950
 4387TIP3    H213168   3.267   0.705   1.865
 4388TIP3   OH213169   5.933   4.023   1.502
 4388TIP3    H113170   5.955   4.027   1.595
 4388TIP3    H213171   5.841   3.998   1.500
 4389TIP3   OH213172   0.390   1.728   4.939
 4389TIP3    H113173   0.385   1.636   4.962
 4389TIP3    H213174   0.442   1.731   4.859
 4390TIP3   OH213175   2.923   4.124   2.308
 4390TIP3    H113176   2.988   4.193   2.291
 4390TIP3    H213177   2.861   4.131   2.235
 4391TIP3   OH213178   3.240   4.705   4.422
 4391TIP3    H113179   3.191   4.749   4.352
 4391TIP3    H213180   3.173   4.657   4.471
 4392TIP3   OH213181   0.842   4.449   2.799
 4392TIP3    H113182   0.816   4.360   2.778
 4392TIP3    H213183   0.937   4.450   2.790
 4393TIP3   OH213184   0.591   4.275   0.301
 4393TIP3    H113185   0.517   4.235   0.346
 4393TIP3    H213186   0.614   4.212   0.232
 4394TIP3   OH213187   1.380   4.806   0.704
 4394TIP3    H113188   1.439   4.791   0.777
 4394TIP3    H213189   1.426   4.773   0.627
 4395TIP3   OH213190   1.325   4.224   1.110
 4395TIP3    H113191   1.309   4.130   1.097
 4395TIP3    H213192   1.393   4.227   1.177
 4396TIP3   OH213193   1.307   3.038   3.353
 4396TIP3    H113194   1.231   2.990   3.387
 4396TIP3    H213195   1.270   3.115   3.311
 4397TIP3   OH213196   1.657   0.017   0.092
 4397TIP3    H113197   1.742  -0.021   0.112
 4397TIP3    H213198   1.663   0.045   0.001
 4398TIP3   OH213199   5.723   0.812   2.302
 4398TIP3    H113200   5.801   0.789   2.351
 4398TIP3    H213201   5.746   0.894   2.257
 4399TIP3   OH213202   3.206   2.974   0.535
 4399TIP3    H113203   3.182   3.056   0.493
 4399TIP3    H213204   3.271   2.999   0.602
 4400TIP3   OH213205   6.018   3.687   0.403
 4400TIP3    H113206   6.053   3.599   0.388
 4400TIP3    H213207   5.933   3.686   0.360
 4401TIP3   OH213208   4.034   2.664   2.383
 4401TIP3    H113209   4.129   2.664   2.399
 4401TIP3    H213210   4.023   2.713   2.301
 4402TIP3   OH213211   3.646   1.850   0.525
 4402TIP3    H113212   3.722   1.907   0.539
 4402TIP3    H213213   3.591   1.899   0.464
 4403TIP3   OH213214   1.675   3.388   1.970
 4403TIP3    H113215   1.627   3.320   2.018
 4403TIP3    H213216   1.685   3.353   1.881
 4404TIP3   OH213217   1.898   3.008   1.280
 4404TIP3    H113218   1.894   2.913   1.265
 4404TIP3    H213219   1.966   3.018   1.346
 4405TIP3   OH213220   2.789   1.034   0.181
 4405TIP3    H113221   2.741   0.988   0.112
 4405TIP3    H213222   2.877   0.998   0.176
 4406TIP3   OH213223   0.892   2.396   4.393
 4406TIP3    H113224   0.967   2.388   4.452
 4406TIP3    H213225   0.923   2.362   4.310
 4407TIP3   OH213226   3.770   4.698   1.746
 4407TIP3    H113227   3.827   4.653   1.684
 4407TIP3    H213228   3.686   4.704   1.701
 4408TIP3   OH213229   5.902   0.144   1.202
 4408TIP3    H113230   5.947   0.111   1.279
 4408TIP3    H213231   5.848   0.216   1.235
 4409TIP3   OH213232   0.725   4.854   0.261
 4409TIP3    H113233   0.785   4.882   0.331
 4409TIP3    H213234   0.737   4.759   0.257
 4410TIP3   OH213235   4.865   1.990   2.957
 4410TIP3    H113236   4.829   2.069   2.996
 4410TIP3    H213237   4.792   1.929   2.955
 4411TIP3   OH213238   1.081   5.018   1.385
 4411TIP3    H113239   1.144   5.037   1.315
 4411TIP3    H213240   1.117   5.062   1.462
 4412TIP3   OH213241   5.463   0.186   2.502
 4412TIP3    H113242   5.421   0.101   2.511
 4412TIP3    H213243   5.464   0.222   2.591
 4413TIP3   OH213244   1.566   3.226   3.289
 4413TIP3    H113245   1.507   3.178   3.347
 4413TIP3    H213246   1.514   3.241   3.210
 4414TIP3   OH213247   3.347   5.532   2.221
 4414TIP3    H113248   3.254   5.548   2.201
 4414TIP3    H213249   3.393   5.608   2.186
 4415TIP3   OH213250   0.787   4.470   4.487
 4415TIP3    H113251   0.804   4.454   4.394
 4415TIP3    H213252   0.727   4.400   4.513
 4416TIP3   OH213253   1.548   3.426   1.640
 4416TIP3    H113254   1.462   3.420   1.598
 4416TIP3    H213255   1.584   3.337   1.635
 4417TIP3   OH213256   6.019   3.336   4.257
 4417TIP3    H113257   6.106   3.344   4.295
 4417TIP3    H213258   5.994   3.245   4.273
 4418TIP3   OH213259   1.286   0.936   2.766
 4418TIP3    H113260   1.369   0.982   2.781
 4418TIP3    H213261   1.289   0.913   2.673
 4419TIP3   OH213262   5.961   2.949   0.069
 4419TIP3    H113263   5.898   2.932  -0.001
 4419TIP3    H213264   5.979   2.863   0.106
 4420TIP3   OH213265   5.609   3.948   2.253
 4420TIP3    H113266   5.646   3.913   2.334
 4420TIP3    H213267   5.658   3.905   2.183
 4421TIP3   OH213268   4.171   4.876   0.971
 4421TIP3    H113269   4.145   4.817   1.042
 4421TIP3    H213270   4.090   4.895   0.924
 4422TIP3   OH213271   3.404   1.370   3.019
 4422TIP3    H113272   3.488   1.355   3.063
 4422TIP3    H213273   3.401   1.306   2.948
 4423TIP3   OH213274   1.496   1.996   2.512
 4423TIP3    H113275   1.560   1.979   2.581
 4423TIP3    H213276   1.411   1.983   2.555
 4424TIP3   OH213277   4.719   1.292   2.711
 4424TIP3    H113278   4.771   1.369   2.688
 4424TIP3    H213279   4.767   1.252   2.784
 4425TIP3   OH213280   6.263   1.309   0.351
 4425TIP3    H113281   6.231   1.279   0.266
 4425TIP3    H213282   6.356   1.328   0.336
 4426TIP3   OH213283   1.260   5.271   0.468
 4426TIP3    H113284   1.336   5.250   0.521
 4426TIP3    H213285   1.292   5.335   0.404
 4427TIP3   OH213286   0.598   5.854   4.128
 4427TIP3    H113287   0.615   5.767   4.092
 4427TIP3    H213288   0.527   5.840   4.191
 4428TIP3   OH213289   1.022   3.258   4.276
 4428TIP3    H113290   1.112   3.246   4.244
 4428TIP3    H213291   1.028   3.327   4.341
 4429TIP3   OH213292   4.543   5.502   1.316
 4429TIP3    H113293   4.467   5.548   1.281
 4429TIP3    H213294   4.610   5.569   1.326
 4430TIP3   OH213295   2.586   2.288   4.769
 4430TIP3    H113296   2.644   2.364   4.761
 4430TIP3    H213297   2.621   2.239   4.844
 4431TIP3   OH213298   3.555   2.969   1.012
 4431TIP3    H113299   3.568   2.916   0.934
 4431TIP3    H213300   3.555   2.906   1.084
 4432TIP3   OH213301   4.569   1.288   1.671
 4432TIP3    H113302   4.607   1.200   1.676
 4432TIP3    H213303   4.614   1.330   1.597
 4433TIP3   OH213304   0.437   3.100   0.662
 4433TIP3    H113305   0.404   3.164   0.725
 4433TIP3    H213306   0.365   3.088   0.599
 4434TIP3   OH213307   0.994   0.464   4.956
 4434TIP3    H113308   0.962   0.472   4.866
 4434TIP3    H213309   1.016   0.371   4.965
 4435TIP3   OH213310   2.968   1.603   0.938
 4435TIP3    H113311   2.911   1.657   0.884
 4435TIP3    H213312   2.987   1.526   0.885
 4436TIP3   OH213313   6.222   3.039   1.532
 4436TIP3    H113314   6.217   3.048   1.437
 4436TIP3    H213315   6.211   3.128   1.566
 4437TIP3   OH213316   1.739   3.786   4.135
 4437TIP3    H113317   1.702   3.833   4.060
 4437TIP3    H213318   1.772   3.704   4.098
 4438TIP3   OH213319   6.287   0.189   0.034
 4438TIP3    H113320   6.278   0.241  -0.046
 4438TIP3    H213321   6.205   0.203   0.081
 4439TIP3   OH213322   1.870   5.467   3.677
 4439TIP3    H113323   1.915   5.419   3.747
 4439TIP3    H213324   1.848   5.400   3.612
 4440TIP3   OH213325   1.768   5.615   1.716
 4440TIP3    H113326   1.806   5.692   1.673
 4440TIP3    H213327   1.688   5.597   1.667
 4441TIP3   OH213328   4.599   2.415   5.127
 4441TIP3    H113329   4.584   2.463   5.046
 4441TIP3    H213330   4.604   2.482   5.195
 4442TIP3   OH213331   0.377   3.254   0.297
 4442TIP3    H113332   0.295   3.248   0.248
 4442TIP3    H213333   0.389   3.347   0.314
 4443TIP3   OH213334   2.772   5.535   3.542
 4443TIP3    H113335   2.741   5.621   3.514
 4443TIP3    H213336   2.785   5.487   3.460
 4444TIP3   OH213337   0.438   2.856   0.535
 4444TIP3    H113338   0.496   2.928   0.558
 4444TIP3    H213339   0.483   2.777   0.567
 4445TIP3   OH213340   5.671   2.680   2.567
 4445TIP3    H113341   5.761   2.651   2.553
 4445TIP3    H213342   5.618   2.614   2.524
 4446TIP3   OH213343   2.750   1.202   3.197
 4446TIP3    H113344   2.708   1.203   3.111
 4446TIP3    H213345   2.682   1.233   3.257
 4447TIP3   OH213346   2.146   2.674   3.217
 4447TIP3    H113347   2.085   2.722   3.161
 4447TIP3    H213348   2.120   2.697   3.306
 4448TIP3   OH213349   0.650   0.806   0.120
 4448TIP3    H113350   0.587   0.814   0.048
 4448TIP3    H213351   0.709   0.881   0.109
 4449TIP3   OH213352   0.990   1.836   2.661
 4449TIP3    H113353   1.016   1.744   2.666
 4449TIP3    H213354   1.068   1.884   2.690
 4450TIP3   OH213355   2.328   5.677   2.696
 4450TIP3    H113356   2.317   5.591   2.654
 4450TIP3    H213357   2.329   5.738   2.622
 4451TIP3   OH213358   0.614   3.480   2.231
 4451TIP3    H113359   0.573   3.549   2.180
 4451TIP3    H213360   0.543   3.417   2.248
 4452TIP3   OH213361   4.749   1.938   0.128
 4452TIP3    H113362   4.843   1.918   0.131
 4452TIP3    H213363   4.721   1.911   0.041
 4453TIP3   OH213364   3.672   3.683   0.798
 4453TIP3    H113365   3.728   3.629   0.743
 4453TIP3    H213366   3.583   3.654   0.777
 4454TIP3   OH213367   3.501   2.288   0.942
 4454TIP3    H113368   3.440   2.332   0.883
 4454TIP3    H213369   3.448   2.217   0.981
 4455TIP3   OH213370   4.854   5.930   0.177
 4455TIP3    H113371   4.872   6.015   0.217
 4455TIP3    H213372   4.867   5.867   0.248
 4456TIP3   OH213373   5.545   5.443   3.520
 4456TIP3    H113374   5.456   5.417   3.496
 4456TIP3    H213375   5.537   5.533   3.550
 4457TIP3   OH213376   4.185   3.149   4.587
 4457TIP3    H113377   4.276   3.177   4.577
 4457TIP3    H213378   4.192   3.057   4.613
 4458TIP3   OH213379   1.214   5.708   0.382
 4458TIP3    H113380   1.208   5.734   0.474
 4458TIP3    H213381   1.127   5.673   0.361
 4459TIP3   OH213382   1.330   2.527   2.358
 4459TIP3    H113383   1.267   2.537   2.287
 4459TIP3    H213384   1.290   2.465   2.418
 4460TIP3   OH213385   5.510   5.511   4.822
 4460TIP3    H113386   5.545   5.440   4.768
 4460TIP3    H213387   5.574   5.581   4.813
 4461TIP3   OH213388   3.351   2.986   4.256
 4461TIP3    H113389   3.322   3.037   4.331
 4461TIP3    H213390   3.343   2.895   4.284
 4462TIP3   OH213391   5.232   3.184   0.933
 4462TIP3    H113392   5.294   3.205   1.003
 4462TIP3    H213393   5.234   3.089   0.926
 4463TIP3   OH213394   4.747   0.490   4.192
 4463TIP3    H113395   4.818   0.426   4.185
 4463TIP3    H213396   4.779   0.555   4.255
 4464TIP3   OH213397   2.380   5.702   3.664
 4464TIP3    H113398   2.346   5.768   3.724
 4464TIP3    H213399   2.441   5.751   3.608
 4465TIP3   OH213400   4.505   1.418   0.736
 4465TIP3    H113401   4.480   1.415   0.643
 4465TIP3    H213402   4.477   1.333   0.771
 4466TIP3   OH213403   5.711   3.699   4.154
 4466TIP3    H113404   5.789   3.753   4.161
 4466TIP3    H213405   5.742   3.613   4.128
 4467TIP3   OH213406   1.382   2.134   3.923
 4467TIP3    H113407   1.415   2.054   3.966
 4467TIP3    H213408   1.342   2.102   3.842
 4468TIP3   OH213409   0.081   4.888   1.564
 4468TIP3    H113410   0.108   4.963   1.619
 4468TIP3    H213411  -0.012   4.877   1.582
 4469TIP3   OH213412   5.229   4.190   1.084
 4469TIP3    H113413   5.209   4.284   1.087
 4469TIP3    H213414   5.277   4.173   1.165
 4470TIP3   OH213415   5.182   2.630   5.110
 4470TIP3    H113416   5.207   2.538   5.122
 4470TIP3    H213417   5.090   2.633   5.137
 4471TIP3   OH213418   2.411   5.107   2.245
 4471TIP3    H113419   2.319   5.086   2.258
 4471TIP3    H213420   2.443   5.132   2.331
 4472TIP3   OH213421   5.353   1.761   0.208
 4472TIP3    H113422   5.355   1.808   0.292
 4472TIP3    H213423   5.318   1.674   0.230
 4473TIP3   OH213424   4.551   4.380   3.076
 4473TIP3    H113425   4.489   4.309   3.097
 4473TIP3    H213426   4.630   4.357   3.124
 4474TIP3   OH213427   0.685   4.583   3.242
 4474TIP3    H113428   0.768   4.572   3.195
 4474TIP3    H213429   0.710   4.617   3.328
 4475TIP3   OH213430   2.858   5.924   0.576
 4475TIP3    H113431   2.767   5.907   0.601
 4475TIP3    H213432   2.910   5.885   0.647
 4476TIP3   OH213433   5.319   5.550   2.984
 4476TIP3    H113434   5.378   5.573   3.055
 4476TIP3    H213435   5.326   5.455   2.976
 4477TIP3   OH213436   0.034   2.590   3.919
 4477TIP3    H113437  -0.028   2.526   3.955
 4477TIP3    H213438   0.118   2.544   3.919
 4478TIP3   OH213439   2.910   0.512   4.472
 4478TIP3    H113440   2.959   0.430   4.475
 4478TIP3    H213441   2.949   0.561   4.400
 4479TIP3   OH213442   4.468   3.456   4.900
 4479TIP3    H113443   4.422   3.465   4.984
 4479TIP3    H213444   4.462   3.543   4.860
 4480TIP3   OH213445   1.473   1.391   4.599
 4480TIP3    H113446   1.395   1.341   4.624
 4480TIP3    H213447   1.535   1.325   4.568
 4481TIP3   OH213448   6.145   4.893   1.633
 4481TIP3    H113449   6.150   4.978   1.677
 4481TIP3    H213450   6.084   4.908   1.561
 4482TIP3   OH213451   1.803   0.863   4.098
 4482TIP3    H113452   1.750   0.818   4.163
 4482TIP3    H213453   1.792   0.956   4.118
 4483TIP3   OH213454   3.781   2.561   0.332
 4483TIP3    H113455   3.759   2.571   0.239
 4483TIP3    H213456   3.795   2.651   0.362
 4484TIP3   OH213457   6.312   0.443   4.867
 4484TIP3    H113458   6.314   0.371   4.930
 4484TIP3    H213459   6.229   0.434   4.822
 4485TIP3   OH213460   4.043   4.756   2.834
 4485TIP3    H113461   3.982   4.816   2.876
 4485TIP3    H213462   4.129   4.778   2.871
 4486TIP3   OH213463   3.895   3.244   4.109
 4486TIP3    H113464   3.927   3.249   4.199
 4486TIP3    H213465   3.961   3.288   4.057
 4487TIP3   OH213466   2.374   2.971   1.917
 4487TIP3    H113467   2.428   2.993   1.993
 4487TIP3    H213468   2.294   3.022   1.928
 4488TIP3   OH213469   0.916   5.665   1.414
 4488TIP3    H113470   0.966   5.595   1.372
 4488TIP3    H213471   0.977   5.739   1.417
 4489TIP3   OH213472   3.000   2.241   2.994
 4489TIP3    H113473   2.991   2.336   2.996
 4489TIP3    H213474   2.944   2.209   3.065
 4490TIP3   OH213475   6.021   2.450   1.874
 4490TIP3    H113476   6.046   2.534   1.837
 4490TIP3    H213477   5.927   2.444   1.859
 4491TIP3   OH213478   0.516   1.427   2.573
 4491TIP3    H113479   0.469   1.415   2.490
 4491TIP3    H213480   0.470   1.500   2.616
 4492TIP3   OH213481   1.840   4.860   2.431
 4492TIP3    H113482   1.831   4.952   2.457
 4492TIP3    H213483   1.863   4.863   2.338
 4493TIP3   OH213484   5.647   2.555   4.046
 4493TIP3    H113485   5.588   2.487   4.015
 4493TIP3    H213486   5.730   2.537   4.001
 4494TIP3   OH213487   1.329   1.536   0.737
 4494TIP3    H113488   1.235   1.522   0.754
 4494TIP3    H213489   1.369   1.533   0.824
 4495TIP3   OH213490   6.102   5.835   0.133
 4495TIP3    H113491   6.116   5.814   0.225
 4495TIP3    H213492   6.164   5.779   0.086
 4496TIP3   OH213493   0.498   1.922   4.023
 4496TIP3    H113494   0.514   1.861   4.095
 4496TIP3    H213495   0.532   1.877   3.946
 4497TIP3   OH213496   3.881   0.808   4.250
 4497TIP3    H113497   3.954   0.869   4.252
 4497TIP3    H213498   3.855   0.797   4.341
 4498TIP3   OH213499   5.310   4.685   2.155
 4498TIP3    H113500   5.245   4.637   2.105
 4498TIP3    H213501   5.371   4.618   2.187
 4499TIP3   OH213502   4.065   5.980   3.504
 4499TIP3    H113503   3.972   6.000   3.515
 4499TIP3    H213504   4.068   5.885   3.498
 4500TIP3   OH213505   3.550   5.051   3.752
 4500TIP3    H113506   3.512   5.121   3.805
 4500TIP3    H213507   3.495   4.975   3.770
 4501TIP3   OH213508   0.472   2.429   0.775
 4501TIP3    H113509   0.427   2.416   0.858
 4501TIP3    H213510   0.419   2.382   0.711
 4502TIP3   OH213511   4.899   4.461   5.019
 4502TIP3    H113512   4.890   4.552   5.045
 4502TIP3    H213513   4.989   4.453   4.987
 4503TIP3   OH213514   5.434   2.125   1.092
 4503TIP3    H113515   5.508   2.169   1.134
 4503TIP3    H213516   5.434   2.159   1.003
 4504TIP3   OH213517   6.068   0.893   0.805
 4504TIP3    H113518   6.141   0.844   0.843
 4504TIP3    H213519   6.009   0.826   0.771
 4505TIP3   OH213520   2.476   4.281   3.388
 4505TIP3    H113521   2.419   4.314   3.457
 4505TIP3    H213522   2.416   4.253   3.319
 4506TIP3   OH213523   3.189   0.662   4.891
 4506TIP3    H113524   3.235   0.583   4.918
 4506TIP3    H213525   3.251   0.707   4.833
 4507TIP3   OH213526   0.030   4.784   3.996
 4507TIP3    H113527  -0.065   4.791   3.983
 4507TIP3    H213528   0.041   4.790   4.091
 4508TIP3   OH213529   4.921   3.531   3.674
 4508TIP3    H113530   4.831   3.565   3.671
 4508TIP3    H213531   4.915   3.446   3.630
 4509TIP3   OH213532   4.160   4.242   1.281
 4509TIP3    H113533   4.100   4.172   1.258
 4509TIP3    H213534   4.205   4.211   1.359
 4510TIP3   OH213535   2.961   2.021   1.701
 4510TIP3    H113536   3.022   2.022   1.627
 4510TIP3    H213537   2.895   1.956   1.676
 4511TIP3   OH213538   3.549   0.865   0.130
 4511TIP3    H113539   3.498   0.876   0.210
 4511TIP3    H213540   3.628   0.918   0.145
 4512TIP3   OH213541  -0.023   2.125   2.644
 4512TIP3    H113542  -0.033   2.164   2.557
 4512TIP3    H213543   0.070   2.102   2.650
 4513TIP3   OH213544   2.983   5.341   4.567
 4513TIP3    H113545   3.016   5.362   4.654
 4513TIP3    H213546   2.914   5.405   4.551
 4514TIP3   OH213547   4.629   0.764   3.806
 4514TIP3    H113548   4.686   0.817   3.751
 4514TIP3    H213549   4.545   0.811   3.805
 4515TIP3   OH213550   3.181   2.914   2.159
 4515TIP3    H113551   3.149   3.004   2.164
 4515TIP3    H213552   3.276   2.923   2.152
 4516TIP3   OH213553   5.494   5.106   4.893
 4516TIP3    H113554   5.458   5.065   4.814
 4516TIP3    H213555   5.583   5.133   4.868
 4517TIP3   OH213556   1.981   2.079   2.492
 4517TIP3    H113557   1.903   2.032   2.521
 4517TIP3    H213558   2.053   2.020   2.512
 4518TIP3   OH213559   1.685   5.229   1.871
 4518TIP3    H113560   1.768   5.266   1.843
 4518TIP3    H213561   1.637   5.303   1.909
 4519TIP3   OH213562   5.405   2.741   4.972
 4519TIP3    H113563   5.346   2.684   5.021
 4519TIP3    H213564   5.362   2.754   4.887
 4520TIP3   OH213565   4.005   4.779   0.200
 4520TIP3    H113566   4.044   4.721   0.265
 4520TIP3    H213567   4.079   4.817   0.154
 4521TIP3   OH213568   2.148   2.668   3.913
 4521TIP3    H113569   2.175   2.759   3.925
 4521TIP3    H213570   2.061   2.664   3.952
 4522TIP3   OH213571   6.098   3.240   5.076
 4522TIP3    H113572   6.077   3.329   5.104
 4522TIP3    H213573   6.190   3.229   5.097
 4523TIP3   OH213574   0.303   1.108   2.357
 4523TIP3    H113575   0.352   1.034   2.393
 4523TIP3    H213576   0.239   1.069   2.298
 4524TIP3   OH213577   3.088   3.931   3.064
 4524TIP3    H113578   3.061   3.850   3.106
 4524TIP3    H213579   3.021   3.995   3.087
 4525TIP3   OH213580   6.176   5.800   0.416
 4525TIP3    H113581   6.117   5.767   0.484
 4525TIP3    H213582   6.190   5.891   0.439
 4526TIP3   OH213583   4.492   3.759   2.807
 4526TIP3    H113584   4.567   3.795   2.760
 4526TIP3    H213585   4.459   3.691   2.749
 4527TIP3   OH213586   5.483   3.992   1.141
 4527TIP3    H113587   5.426   3.922   1.109
 4527TIP3    H213588   5.459   4.003   1.233
 4528TIP3   OH213589   5.065   3.332   5.061
 4528TIP3    H113590   4.972   3.319   5.077
 4528TIP3    H213591   5.074   3.325   4.966
 4529TIP3   OH213592   1.112   0.449   0.442
 4529TIP3    H113593   1.108   0.521   0.505
 4529TIP3    H213594   1.159   0.379   0.489
 4530TIP3   OH213595   4.377   4.345   0.306
 4530TIP3    H113596   4.347   4.428   0.270
 4530TIP3    H213597   4.394   4.291   0.230
 4531TIP3   OH213598   1.242   1.660   3.391
 4531TIP3    H113599   1.250   1.641   3.297
 4531TIP3    H213600   1.332   1.662   3.423
 4532TIP3   OH213601   2.597   5.663   1.156
 4532TIP3    H113602   2.551   5.650   1.074
 4532TIP3    H213603   2.689   5.671   1.131
 4533TIP3   OH213604   0.792   5.050   4.576
 4533TIP3    H113605   0.826   5.094   4.654
 4533TIP3    H213606   0.848   4.974   4.564
 4534TIP3   OH213607   0.444   4.696   1.106
 4534TIP3    H113608   0.441   4.602   1.088
 4534TIP3    H213609   0.513   4.706   1.172
 4535TIP3   OH213610   3.059   4.778   4.253
 4535TIP3    H113611   3.049   4.743   4.165
 4535TIP3    H213612   2.995   4.729   4.306
 4536TIP3   OH213613   5.042   2.774   2.911
 4536TIP3    H113614   5.121   2.828   2.920
 4536TIP3    H213615   4.999   2.779   2.996
 4537TIP3   OH213616   0.130   3.590   4.315
 4537TIP3    H113617   0.073   3.665   4.330
 4537TIP3    H213618   0.175   3.609   4.233
 4538TIP3   OH213619   1.988   5.668   0.695
 4538TIP3    H113620   1.916   5.616   0.658
 4538TIP3    H213621   2.031   5.608   0.757
 4539TIP3   OH213622   4.443   1.984   2.541
 4539TIP3    H113623   4.379   2.052   2.519
 4539TIP3    H213624   4.486   2.016   2.620
 4540TIP3   OH213625   1.481   0.415   5.123
 4540TIP3    H113626   1.389   0.439   5.132
 4540TIP3    H213627   1.521   0.490   5.079
 4541TIP3   OH213628   6.044   2.612   4.032
 4541TIP3    H113629   6.072   2.699   4.061
 4541TIP3    H213630   6.034   2.561   4.112
 4542TIP3   OH213631   1.517   4.654   2.808
 4542TIP3    H113632   1.525   4.572   2.760
 4542TIP3    H213633   1.452   4.636   2.876
 4543TIP3   OH213634   5.761   4.570   1.506
 4543TIP3    H113635   5.685   4.569   1.449
 4543TIP3    H213636   5.799   4.657   1.493
 4544TIP3   OH213637   2.940   5.789   3.295
 4544TIP3    H113638   2.903   5.704   3.273
 4544TIP3    H213639   2.872   5.834   3.343
 4545TIP3   OH213640   5.597   0.751   4.995
 4545TIP3    H113641   5.550   0.673   4.964
 4545TIP3    H213642   5.644   0.782   4.917
 4546TIP3   OH213643   0.323   5.537   0.204
 4546TIP3    H113644   0.234   5.514   0.179
 4546TIP3    H213645   0.338   5.493   0.288
 4547TIP3   OH213646   1.699   2.367   1.773
 4547TIP3    H113647   1.786   2.356   1.811
 4547TIP3    H213648   1.714   2.382   1.680
 4548TIP3   OH213649   2.928   2.083   0.406
 4548TIP3    H113650   2.896   2.144   0.472
 4548TIP3    H213651   2.856   2.073   0.344
 4549TIP3   OH213652   1.064   4.945   3.556
 4549TIP3    H113653   1.134   4.941   3.621
 4549TIP3    H213654   1.050   5.039   3.542
 4550TIP3   OH213655   2.636   0.715   1.048
 4550TIP3    H113656   2.723   0.697   1.084
 4550TIP3    H213657   2.575   0.677   1.111
 4551TIP3   OH213658   0.586   0.722   2.812
 4551TIP3    H113659   0.598   0.811   2.780
 4551TIP3    H213660   0.675   0.688   2.824
 4552TIP3   OH213661   2.389   5.472   0.785
 4552TIP3    H113662   2.388   5.385   0.824
 4552TIP3    H213663   2.408   5.458   0.693
 4553TIP3   OH213664   6.333   1.054   1.191
 4553TIP3    H113665   6.397   1.095   1.249
 4553TIP3    H213666   6.250   1.061   1.237
 4554TIP3   OH213667   4.525   3.029   0.272
 4554TIP3    H113668   4.561   3.090   0.208
 4554TIP3    H213669   4.464   3.081   0.324
 4555TIP3   OH213670   5.940   2.426   2.166
 4555TIP3    H113671   5.974   2.424   2.076
 4555TIP3    H213672   5.943   2.518   2.191
 4556TIP3   OH213673   0.428   5.925   0.732
 4556TIP3    H113674   0.495   5.885   0.675
 4556TIP3    H213675   0.380   5.984   0.674
 4557TIP3   OH213676   3.617   5.113   3.270
 4557TIP3    H113677   3.696   5.114   3.216
 4557TIP3    H213678   3.642   5.065   3.349
 4558TIP3   OH213679   0.557   2.357   4.238
 4558TIP3    H113680   0.619   2.285   4.231
 4558TIP3    H213681   0.608   2.431   4.271
 4559TIP3   OH213682   5.947   5.176   4.362
 4559TIP3    H113683   5.903   5.107   4.313
 4559TIP3    H213684   6.038   5.174   4.331
 4560TIP3   OH213685   5.802   4.966   3.688
 4560TIP3    H113686   5.855   4.888   3.702
 4560TIP3    H213687   5.741   4.966   3.762
 4561TIP3   OH213688   2.478   5.871   2.922
 4561TIP3    H113689   2.543   5.912   2.866
 4561TIP3    H213690   2.456   5.937   2.987
 4562TIP3   OH213691   2.800   2.196   3.230
 4562TIP3    H113692   2.768   2.117   3.274
 4562TIP3    H213693   2.798   2.264   3.298
 4563TIP3   OH213694   2.490   4.494   3.612
 4563TIP3    H113695   2.463   4.549   3.539
 4563TIP3    H213696   2.574   4.530   3.639
 4564TIP3   OH213697   1.858   4.248   2.588
 4564TIP3    H113698   1.797   4.297   2.642
 4564TIP3    H213699   1.804   4.214   2.516
 4565TIP3   OH213700   0.841   1.722   3.915
 4565TIP3    H113701   0.861   1.696   4.005
 4565TIP3    H213702   0.857   1.643   3.863
 4566TIP3   OH213703   4.774   4.891   2.204
 4566TIP3    H113704   4.738   4.924   2.286
 4566TIP3    H213705   4.818   4.966   2.164
 4567TIP3   OH213706   4.886   5.272   2.952
 4567TIP3    H113707   4.887   5.347   3.011
 4567TIP3    H213708   4.793   5.252   2.940
 4568TIP3   OH213709   3.940   3.160   0.773
 4568TIP3    H113710   4.033   3.179   0.763
 4568TIP3    H213711   3.936   3.101   0.849
 4569TIP3   OH213712   1.527   0.011   4.370
 4569TIP3    H113713   1.615  -0.026   4.366
 4569TIP3    H213714   1.510   0.042   4.281
 4570TIP3   OH213715   1.769   2.861   4.765
 4570TIP3    H113716   1.834   2.930   4.755
 4570TIP3    H213717   1.699   2.901   4.818
 4571TIP3   OH213718   3.211   5.777   2.779
 4571TIP3    H113719   3.183   5.796   2.690
 4571TIP3    H213720   3.275   5.707   2.770
 4572TIP3   OH213721   0.192   0.288   3.212
 4572TIP3    H113722   0.144   0.232   3.151
 4572TIP3    H213723   0.124   0.335   3.261
 4573TIP3   OH213724   1.581   3.000   2.799
 4573TIP3    H113725   1.603   2.955   2.717
 4573TIP3    H213726   1.617   3.088   2.789
 4574TIP3   OH213727   3.138   1.540   3.881
 4574TIP3    H113728   3.171   1.462   3.926
 4574TIP3    H213729   3.043   1.529   3.881
 4575TIP3   OH213730   2.096   4.543   3.993
 4575TIP3    H113731   2.149   4.549   4.073
 4575TIP3    H213732   2.149   4.587   3.927
 4576TIP3   OH213733   0.822   0.358   0.487
 4576TIP3    H113734   0.815   0.396   0.574
 4576TIP3    H213735   0.916   0.357   0.469
 4577TIP3   OH213736   5.388   2.241   2.694
 4577TIP3    H113737   5.349   2.297   2.628
 4577TIP3    H213738   5.460   2.197   2.649
 4578TIP3   OH213739   1.651   2.742   1.102
 4578TIP3    H113740   1.657   2.801   1.026
 4578TIP3    H213741   1.558   2.739   1.123
 4579TIP3   OH213742   2.069   5.361   4.634
 4579TIP3    H113743   2.011   5.388   4.562
 4579TIP3    H213744   2.146   5.417   4.625
 4580TIP3   OH213745   2.464   4.957   4.620
 4580TIP3    H113746   2.432   5.012   4.691
 4580TIP3    H213747   2.386   4.924   4.577
 4581TIP3   OH213748   0.313   2.791   4.609
 4581TIP3    H113749   0.365   2.743   4.543
 4581TIP3    H213750   0.379   2.832   4.666
 4582TIP3   OH213751   5.110   4.558   1.340
 4582TIP3    H113752   5.150   4.607   1.268
 4582TIP3    H213753   5.138   4.468   1.325
 4583TIP3   OH213754   0.224   4.983   4.908
 4583TIP3    H113755   0.221   4.975   5.004
 4583TIP3    H213756   0.246   5.075   4.893
 4584TIP3   OH213757   0.604   1.276   4.869
 4584TIP3    H113758   0.677   1.303   4.925
 4584TIP3    H213759   0.570   1.197   4.912
 4585TIP3   OH213760   2.264   1.774   4.635
 4585TIP3    H113761   2.260   1.716   4.712
 4585TIP3    H213762   2.184   1.753   4.587
 4586TIP3   OH213763   5.315   2.263   0.826
 4586TIP3    H113764   5.260   2.185   0.819
 4586TIP3    H213765   5.401   2.234   0.797
 4587TIP3   OH213766   0.473   3.983   4.895
 4587TIP3    H113767   0.395   3.948   4.939
 4587TIP3    H213768   0.540   3.984   4.963
 4588TIP3   OH213769   6.346   3.906   2.332
 4588TIP3    H113770   6.280   3.925   2.399
 4588TIP3    H213771   6.318   3.955   2.255
 4589TIP3   OH213772   0.975   2.596   3.975
 4589TIP3    H113773   0.974   2.600   4.070
 4589TIP3    H213774   0.926   2.674   3.947
 4590TIP3   OH213775   4.941   3.384   2.560
 4590TIP3    H113776   4.998   3.442   2.510
 4590TIP3    H213777   4.994   3.307   2.578
 4591TIP3   OH213778   3.333   5.768   0.079
 4591TIP3    H113779   3.269   5.808   0.138
 4591TIP3    H213780   3.340   5.677   0.110
 4592TIP3   OH213781   3.246   3.895   0.914
 4592TIP3    H113782   3.327   3.846   0.902
 4592TIP3    H213783   3.272   3.973   0.963
 4593TIP3   OH213784   0.730   1.912   3.698
 4593TIP3    H113785   0.776   1.988   3.733
 4593TIP3    H213786   0.736   1.846   3.766
 4594TIP3   OH213787   0.086   4.015   1.992
 4594TIP3    H113788   0.002   3.987   2.030
 4594TIP3    H213789   0.143   3.939   2.001
 4595TIP3   OH213790   2.580   1.275   1.286
 4595TIP3    H113791   2.512   1.256   1.221
 4595TIP3    H213792   2.657   1.228   1.255
 4596TIP3   OH213793   0.847   4.279   4.002
 4596TIP3    H113794   0.806   4.275   3.915
 4596TIP3    H213795   0.935   4.311   3.985
 4597TIP3   OH213796   0.454   4.168   3.451
 4597TIP3    H113797   0.417   4.228   3.386
 4597TIP3    H213798   0.548   4.187   3.450
 4598TIP3   OH213799   0.406   4.257   2.736
 4598TIP3    H113800   0.326   4.308   2.746
 4598TIP3    H213801   0.460   4.308   2.676
 4599TIP3   OH213802   2.025   4.488   0.482
 4599TIP3    H113803   2.029   4.536   0.399
 4599TIP3    H213804   1.945   4.437   0.476
 4600TIP3   OH213805   3.085   2.408   2.278
 4600TIP3    H113806   3.111   2.500   2.273
 4600TIP3    H213807   3.135   2.365   2.209
 4601TIP3   OH213808   1.284   5.532   2.687
 4601TIP3    H113809   1.366   5.498   2.650
 4601TIP3    H213810   1.218   5.514   2.620
 4602TIP3   OH213811   5.211   3.792   2.474
 4602TIP3    H113812   5.135   3.837   2.511
 4602TIP3    H213813   5.277   3.861   2.463
 4603TIP3   OH213814   3.003   0.252   2.093
 4603TIP3    H113815   2.999   0.185   2.025
 4603TIP3    H213816   2.914   0.289   2.096
 4604TIP3   OH213817   2.777   1.118   1.164
 4604TIP3    H113818   2.757   1.198   1.114
 4604TIP3    H213819   2.871   1.106   1.153
 4605TIP3   OH213820   1.158   2.820   3.494
 4605TIP3    H113821   1.090   2.766   3.454
 4605TIP3    H213822   1.227   2.758   3.517
 4606TIP3   OH213823   1.245   1.271   1.271
 4606TIP3    H113824   1.279   1.256   1.359
 4606TIP3    H213825   1.230   1.183   1.235
 4607TIP3   OH213826   5.408   2.756   4.669
 4607TIP3    H113827   5.381   2.726   4.583
 4607TIP3    H213828   5.460   2.835   4.652
 4608TIP3   OH213829   2.691   1.722   4.756
 4608TIP3    H113830   2.675   1.629   4.737
 4608TIP3    H213831   2.626   1.744   4.823
 4609TIP3   OH213832   0.266   2.443   0.951
 4609TIP3    H113833   0.212   2.521   0.940
 4609TIP3    H213834   0.262   2.425   1.045
 4610TIP3   OH213835   4.162   2.452   3.211
 4610TIP3    H113836   4.250   2.483   3.233
 4610TIP3    H213837   4.171   2.356   3.207
 4611TIP3   OH213838   2.837   1.311   0.685
 4611TIP3    H113839   2.814   1.219   0.672
 4611TIP3    H213840   2.842   1.346   0.596
 4612TIP3   OH213841   4.844   5.117   2.080
 4612TIP3    H113842   4.808   5.190   2.131
 4612TIP3    H213843   4.931   5.147   2.054
 4613TIP3   OH213844   6.092   4.829   0.918
 4613TIP3    H113845   6.131   4.754   0.874
 4613TIP3    H213846   6.101   4.901   0.856
 4614TIP3   OH213847   3.229   5.117   3.671
 4614TIP3    H113848   3.258   5.114   3.762
 4614TIP3    H213849   3.209   5.209   3.654
 4615TIP3   OH213850   3.584   3.333   3.582
 4615TIP3    H113851   3.517   3.359   3.519
 4615TIP3    H213852   3.664   3.328   3.531
 4616TIP3   OH213853   0.579   0.251   0.541
 4616TIP3    H113854   0.610   0.175   0.590
 4616TIP3    H213855   0.658   0.304   0.528
 4617TIP3   OH213856   5.407   3.987   2.465
 4617TIP3    H113857   5.352   4.065   2.465
 4617TIP3    H213858   5.479   4.009   2.525
 4618TIP3   OH213859   2.517   3.367   2.707
 4618TIP3    H113860   2.509   3.354   2.612
 4618TIP3    H213861   2.544   3.458   2.716
 4619TIP3   OH213862   2.828   3.808   3.936
 4619TIP3    H113863   2.811   3.719   3.906
 4619TIP3    H213864   2.913   3.803   3.980
 4620TIP3   OH213865   5.586   1.156   5.016
 4620TIP3    H113866   5.666   1.193   4.979
 4620TIP3    H213867   5.535   1.232   5.046
 4621TIP3   OH213868   2.640   3.015   4.860
 4621TIP3    H113869   2.635   3.111   4.853
 4621TIP3    H213870   2.639   2.998   4.954
 4622TIP3   OH213871   5.160   0.675   0.391
 4622TIP3    H113872   5.088   0.714   0.342
 4622TIP3    H213873   5.187   0.600   0.339
 4623TIP3   OH213874   4.581   3.432   2.822
 4623TIP3    H113875   4.639   3.435   2.898
 4623TIP3    H213876   4.514   3.368   2.846
 4624TIP3   OH213877   3.204   3.633   1.270
 4624TIP3    H113878   3.238   3.666   1.353
 4624TIP3    H213879   3.112   3.615   1.287
 4625TIP3   OH213880   5.821   5.031   3.432
 4625TIP3    H113881   5.733   5.032   3.394
 4625TIP3    H213882   5.807   5.009   3.524
 4626TIP3   OH213883   3.992   2.932   3.469
 4626TIP3    H113884   3.980   2.999   3.402
 4626TIP3    H213885   3.959   2.974   3.549
 4627TIP3   OH213886   5.249   1.526   4.883
 4627TIP3    H113887   5.181   1.590   4.862
 4627TIP3    H213888   5.328   1.578   4.898
 4628TIP3   OH213889   3.917   0.323   3.121
 4628TIP3    H113890   3.887   0.401   3.074
 4628TIP3    H213891   3.898   0.342   3.213
 4629TIP3   OH213892   2.474   3.742   0.642
 4629TIP3    H113893   2.544   3.772   0.584
 4629TIP3    H213894   2.396   3.788   0.611
 4630TIP3   OH213895   4.966   4.186   0.613
 4630TIP3    H113896   4.963   4.173   0.708
 4630TIP3    H213897   5.055   4.215   0.596
 4631TIP3   OH213898   4.407   5.582   2.113
 4631TIP3    H113899   4.352   5.582   2.192
 4631TIP3    H213900   4.451   5.667   2.115
 4632TIP3   OH213901   3.384   3.479   1.821
 4632TIP3    H113902   3.399   3.466   1.727
 4632TIP3    H213903   3.470   3.504   1.856
 4633TIP3   OH213904   1.206   0.610   2.618
 4633TIP3    H113905   1.198   0.620   2.713
 4633TIP3    H213906   1.290   0.566   2.605
 4634TIP3   OH213907   2.522   4.084   0.409
 4634TIP3    H113908   2.540   3.990   0.412
 4634TIP3    H213909   2.504   4.107   0.501
 4635TIP3   OH213910   0.852   2.931   0.734
 4635TIP3    H113911   0.813   2.853   0.773
 4635TIP3    H213912   0.923   2.955   0.795
 4636TIP3   OH213913   0.362   5.531   4.594
 4636TIP3    H113914   0.439   5.550   4.647
 4636TIP3    H213915   0.327   5.617   4.570
 4637TIP3   OH213916   0.875   5.014   0.412
 4637TIP3    H113917   0.971   5.006   0.415
 4637TIP3    H213918   0.848   5.008   0.503
 4638TIP3   OH213919   1.012   5.827   4.203
 4638TIP3    H113920   1.007   5.868   4.117
 4638TIP3    H213921   0.935   5.861   4.250
 4639TIP3   OH213922   1.013   0.934   5.074
 4639TIP3    H113923   0.932   0.908   5.119
 4639TIP3    H213924   1.028   0.865   5.010
 4640TIP3   OH213925   2.158   5.609   3.978
 4640TIP3    H113926   2.181   5.529   3.932
 4640TIP3    H213927   2.086   5.646   3.927
 4641TIP3   OH213928   5.891   5.797   3.377
 4641TIP3    H113929   5.821   5.849   3.336
 4641TIP3    H213930   5.964   5.858   3.386
 4642TIP3   OH213931   5.927   4.417   4.053
 4642TIP3    H113932   6.000   4.451   4.104
 4642TIP3    H213933   5.937   4.458   3.967
 4643TIP3   OH213934   0.268   0.905   3.527
 4643TIP3    H113935   0.256   0.816   3.496
 4643TIP3    H213936   0.362   0.920   3.523
 4644TIP3   OH213937   0.466   1.972   1.643
 4644TIP3    H113938   0.393   1.912   1.626
 4644TIP3    H213939   0.472   2.026   1.564
 4645TIP3   OH213940   2.324   4.587   4.195
 4645TIP3    H113941   2.310   4.579   4.289
 4645TIP3    H213942   2.375   4.668   4.185
 4646TIP3   OH213943   3.532   4.898   4.083
 4646TIP3    H113944   3.613   4.879   4.035
 4646TIP3    H213945   3.531   4.993   4.092
 4647TIP3   OH213946   5.628   4.436   1.200
 4647TIP3    H113947   5.654   4.388   1.279
 4647TIP3    H213948   5.637   4.373   1.129
 4648TIP3   OH213949   4.824   0.226   0.584
 4648TIP3    H113950   4.794   0.316   0.572
 4648TIP3    H213951   4.744   0.173   0.576
 4649TIP3   OH213952   0.686   0.673   0.792
 4649TIP3    H113953   0.756   0.707   0.848
 4649TIP3    H213954   0.720   0.589   0.759
 4650TIP3   OH213955   5.958   4.172   0.383
 4650TIP3    H113956   5.999   4.152   0.299
 4650TIP3    H213957   5.864   4.168   0.365
 4651TIP3   OH213958   1.710   5.647   2.644
 4651TIP3    H113959   1.706   5.580   2.577
 4651TIP3    H213960   1.619   5.678   2.653
 4652TIP3   OH213961   2.505   4.653   1.809
 4652TIP3    H113962   2.488   4.697   1.892
 4652TIP3    H213963   2.544   4.721   1.754
 4653TIP3   OH213964   5.286   4.204   2.638
 4653TIP3    H113965   5.231   4.256   2.696
 4653TIP3    H213966   5.326   4.138   2.694
 4654TIP3   OH213967   3.329   2.173   4.799
 4654TIP3    H113968   3.308   2.094   4.847
 4654TIP3    H213969   3.339   2.145   4.708
 4655TIP3   OH213970   4.173   0.479   0.316
 4655TIP3    H113971   4.131   0.536   0.251
 4655TIP3    H213972   4.141   0.512   0.400
 4656TIP3   OH213973   0.606   5.845   0.999
 4656TIP3    H113974   0.518   5.851   0.963
 4656TIP3    H213975   0.602   5.895   1.081
 4657TIP3   OH213976   6.215   4.861   4.454
 4657TIP3    H113977   6.152   4.796   4.484
 4657TIP3    H213978   6.196   4.939   4.507
 4658TIP3   OH213979   5.582   1.506   2.282
 4658TIP3    H113980   5.641   1.449   2.231
 4658TIP3    H213981   5.612   1.496   2.372
 4659TIP3   OH213982   2.947   3.531   1.265
 4659TIP3    H113983   2.913   3.443   1.251
 4659TIP3    H213984   2.894   3.587   1.208
 4660TIP3   OH213985   3.686   4.960   3.496
 4660TIP3    H113986   3.779   4.939   3.511
 4660TIP3    H213987   3.648   4.963   3.584
 4661TIP3   OH213988   3.700   2.554   3.121
 4661TIP3    H113989   3.610   2.562   3.153
 4661TIP3    H213990   3.750   2.617   3.173
 4662TIP3   OH213991   0.692   2.717   0.795
 4662TIP3    H113992   0.639   2.795   0.806
 4662TIP3    H213993   0.654   2.673   0.719
 4663TIP3   OH213994   4.826   4.897   4.212
 4663TIP3    H113995   4.741   4.923   4.247
 4663TIP3    H213996   4.883   4.971   4.231
 4664TIP3   OH213997   3.287   1.369   0.620
 4664TIP3    H113998   3.376   1.362   0.584
 4664TIP3    H213999   3.249   1.445   0.574
 4665TIP3   OH214000   5.759   3.683   0.329
 4665TIP3    H114001   5.671   3.660   0.301
 4665TIP3    H214002   5.751   3.773   0.360
 4666TIP3   OH214003   0.164   5.082   4.583
 4666TIP3    H114004   0.218   5.152   4.545
 4666TIP3    H214005   0.219   5.004   4.578
 4667TIP3   OH214006   2.985   5.843   3.617
 4667TIP3    H114007   3.065   5.825   3.666
 4667TIP3    H214008   3.013   5.902   3.547
 4668TIP3   OH214009   2.964   3.309   1.018
 4668TIP3    H114010   2.911   3.332   0.941
 4668TIP3    H214011   2.925   3.228   1.050
 4669TIP3   OH214012   5.007   2.654   1.932
 4669TIP3    H114013   5.045   2.686   2.014
 4669TIP3    H214014   4.974   2.567   1.953
 4670TIP3   OH214015   0.213  -0.043   3.335
 4670TIP3    H114016   0.308  -0.039   3.324
 4670TIP3    H214017   0.194   0.020   3.404
 4671TIP3   OH214018   5.200   2.644   2.559
 4671TIP3    H114019   5.179   2.726   2.515
 4671TIP3    H214020   5.273   2.667   2.618
 4672TIP3   OH214021   0.367   2.525   2.136
 4672TIP3    H114022   0.357   2.492   2.225
 4672TIP3    H214023   0.317   2.464   2.082
 4673TIP3   OH214024   2.003   5.078   2.654
 4673TIP3    H114025   2.062   5.003   2.664
 4673TIP3    H214026   1.916   5.040   2.649
 4674TIP3   OH214027   4.547   5.078   4.905
 4674TIP3    H114028   4.630   5.124   4.891
 4674TIP3    H214029   4.490   5.111   4.835
 4675TIP3   OH214030   2.112   4.168   3.641
 4675TIP3    H114031   2.063   4.134   3.716
 4675TIP3    H214032   2.169   4.236   3.678
 4676TIP3   OH214033   4.010   3.543   0.984
 4676TIP3    H114034   4.021   3.571   0.893
 4676TIP3    H214035   4.075   3.475   0.996
 4677TIP3   OH214036   5.606   0.711   4.613
 4677TIP3    H114037   5.526   0.746   4.652
 4677TIP3    H214038   5.585   0.619   4.594
 4678TIP3   OH214039   3.318   1.960   4.983
 4678TIP3    H114040   3.376   1.884   4.980
 4678TIP3    H214041   3.230   1.924   4.971
 4679TIP3   OH214042   5.098   2.525   1.713
 4679TIP3    H114043   5.193   2.520   1.725
 4679TIP3    H214044   5.069   2.582   1.784
 4680TIP3   OH214045   1.478   3.514   3.165
 4680TIP3    H114046   1.519   3.545   3.085
 4680TIP3    H214047   1.412   3.451   3.136
 4681TIP3   OH214048   0.352   1.640   0.664
 4681TIP3    H114049   0.387   1.576   0.602
 4681TIP3    H214050   0.258   1.644   0.644
 4682TIP3   OH214051   2.821   2.966   0.474
 4682TIP3    H114052   2.796   2.981   0.565
 4682TIP3    H214053   2.884   2.893   0.478
 4683TIP3   OH214054   1.320   1.999   1.022
 4683TIP3    H114055   1.386   1.969   0.959
 4683TIP3    H214056   1.256   2.045   0.968
 4684TIP3   OH214057   3.904   1.022   1.423
 4684TIP3    H114058   3.834   1.031   1.359
 4684TIP3    H214059   3.899   1.102   1.475
 4685TIP3   OH214060   5.609   0.524   0.338
 4685TIP3    H114061   5.536   0.469   0.367
 4685TIP3    H214062   5.570   0.611   0.326
 4686TIP3   OH214063   2.224   4.791   3.712
 4686TIP3    H114064   2.292   4.851   3.682
 4686TIP3    H214065   2.263   4.744   3.785
 4687TIP3   OH214066   0.221   3.187   3.004
 4687TIP3    H114067   0.133   3.223   3.005
 4687TIP3    H214068   0.251   3.196   3.095
 4688TIP3   OH214069   0.349   1.383   3.166
 4688TIP3    H114070   0.285   1.377   3.096
 4688TIP3    H214071   0.357   1.476   3.184
 4689TIP3   OH214072   0.420   2.700   1.918
 4689TIP3    H114073   0.388   2.661   1.999
 4689TIP3    H214074   0.430   2.627   1.858
 4690TIP3   OH214075   0.727   3.112   2.728
 4690TIP3    H114076   0.650   3.057   2.740
 4690TIP3    H214077   0.781   3.096   2.805
 4691TIP3   OH214078   5.091   1.711   2.167
 4691TIP3    H114079   5.086   1.787   2.109
 4691TIP3    H214080   5.184   1.690   2.171
 4692TIP3   OH214081   1.096   4.937   3.157
 4692TIP3    H114082   1.016   4.922   3.106
 4692TIP3    H214083   1.161   4.966   3.093
 4693TIP3   OH214084   0.773   5.248   4.155
 4693TIP3    H114085   0.778   5.235   4.250
 4693TIP3    H214086   0.861   5.227   4.124
 4694TIP3   OH214087   5.193   3.398   0.329
 4694TIP3    H114088   5.140   3.386   0.250
 4694TIP3    H214089   5.210   3.309   0.360
 4695TIP3   OH214090   4.989   0.991   2.589
 4695TIP3    H114091   4.912   0.950   2.551
 4695TIP3    H214092   5.037   1.025   2.514
 4696TIP3   OH214093   4.875   4.473   1.720
 4696TIP3    H114094   4.859   4.527   1.797
 4696TIP3    H214095   4.915   4.533   1.657
 4697TIP3   OH214096   1.329   0.186   3.821
 4697TIP3    H114097   1.282   0.102   3.827
 4697TIP3    H214098   1.328   0.206   3.727
 4698TIP3   OH214099   1.665   2.932   0.914
 4698TIP3    H114100   1.710   3.016   0.924
 4698TIP3    H214101   1.573   2.956   0.898
 4699TIP3   OH214102   0.452   5.948   2.141
 4699TIP3    H114103   0.409   5.983   2.063
 4699TIP3    H214104   0.542   5.932   2.114
 4700TIP3   OH214105   5.052   3.625   2.898
 4700TIP3    H114106   5.059   3.606   2.991
 4700TIP3    H214107   4.965   3.593   2.873
 4701TIP3   OH214108   1.124   0.266   1.729
 4701TIP3    H114109   1.173   0.347   1.745
 4701TIP3    H214110   1.174   0.220   1.662
 4702TIP3   OH214111   1.499   1.418   2.657
 4702TIP3    H114112   1.443   1.399   2.733
 4702TIP3    H214113   1.588   1.400   2.687
 4703TIP3   OH214114   0.193   0.762   2.676
 4703TIP3    H114115   0.198   0.794   2.766
 4703TIP3    H214116   0.144   0.830   2.629
 4704TIP3   OH214117   2.886   0.401   0.371
 4704TIP3    H114118   2.934   0.383   0.290
 4704TIP3    H214119   2.802   0.435   0.342
 4705TIP3   OH214120   3.370   2.088   3.620
 4705TIP3    H114121   3.294   2.145   3.604
 4705TIP3    H214122   3.387   2.097   3.713
 4706TIP3   OH214123   2.510   2.079   4.310
 4706TIP3    H114124   2.493   2.037   4.395
 4706TIP3    H214125   2.571   2.150   4.330
 4707TIP3   OH214126   0.577   4.722   3.833
 4707TIP3    H114127   0.524   4.667   3.776
 4707TIP3    H214128   0.514   4.761   3.894
 4708TIP3   OH214129   0.758   2.382   5.119
 4708TIP3    H114130   0.683   2.440   5.130
 4708TIP3    H214131   0.831   2.441   5.099
 4709TIP3   OH214132   5.139   5.693   1.796
 4709TIP3    H114133   5.092   5.767   1.757
 4709TIP3    H214134   5.193   5.733   1.864
 4710TIP3   OH214135   0.447   1.171   4.279
 4710TIP3    H114136   0.508   1.176   4.353
 4710TIP3    H214137   0.472   1.091   4.233
 4711TIP3   OH214138   2.358   3.050   4.232
 4711TIP3    H114139   2.318   2.963   4.232
 4711TIP3    H214140   2.448   3.035   4.261
 4712TIP3   OH214141   3.193   4.408   3.790
 4712TIP3    H114142   3.099   4.418   3.803
 4712TIP3    H214143   3.201   4.338   3.725
 4713TIP3   OH214144   3.539   1.276   4.941
 4713TIP3    H114145   3.485   1.224   4.881
 4713TIP3    H214146   3.560   1.215   5.012
 4714TIP3   OH214147   0.363   2.624   3.735
 4714TIP3    H114148   0.327   2.546   3.777
 4714TIP3    H214149   0.432   2.653   3.795
 4715TIP3   OH214150   5.311   4.279   3.635
 4715TIP3    H114151   5.260   4.287   3.715
 4715TIP3    H214152   5.253   4.312   3.566
 4716TIP3   OH214153   0.701   5.611   1.793
 4716TIP3    H114154   0.694   5.537   1.732
 4716TIP3    H214155   0.680   5.688   1.740
 4717TIP3   OH214156   0.812   3.312   2.330
 4717TIP3    H114157   0.742   3.357   2.284
 4717TIP3    H214158   0.774   3.229   2.358
 4718TIP3   OH214159   0.988   1.554   2.677
 4718TIP3    H114160   0.931   1.484   2.645
 4718TIP3    H214161   1.009   1.528   2.767
 4719TIP3   OH214162   5.670   0.870   0.072
 4719TIP3    H114163   5.748   0.890   0.124
 4719TIP3    H214164   5.667   0.938   0.005
 4720TIP3   OH214165   3.579   1.016   4.974
 4720TIP3    H114166   3.649   0.997   4.912
 4720TIP3    H214167   3.519   0.942   4.967
 4721TIP3   OH214168   4.314   1.634   1.970
 4721TIP3    H114169   4.333   1.562   1.910
 4721TIP3    H214170   4.245   1.600   2.027
 4722TIP3   OH214171   5.835   2.461   1.399
 4722TIP3    H114172   5.828   2.384   1.455
 4722TIP3    H214173   5.867   2.531   1.456
 4723TIP3   OH214174   0.499   5.873   1.272
 4723TIP3    H114175   0.420   5.911   1.309
 4723TIP3    H214176   0.537   5.822   1.343
 4724TIP3   OH214177   3.334   5.624   4.724
 4724TIP3    H114178   3.319   5.557   4.658
 4724TIP3    H214179   3.303   5.705   4.685
 4725TIP3   OH214180   1.398   3.221   2.436
 4725TIP3    H114181   1.483   3.255   2.463
 4725TIP3    H214182   1.389   3.248   2.344
 4726TIP3   OH214183   0.425   1.373   3.755
 4726TIP3    H114184   0.457   1.299   3.704
 4726TIP3    H214185   0.436   1.346   3.846
 4727TIP3   OH214186   1.335   4.611   3.891
 4727TIP3    H114187   1.336   4.523   3.854
 4727TIP3    H214188   1.288   4.601   3.974
 4728TIP3   OH214189   5.246   0.189   2.837
 4728TIP3    H114190   5.300   0.136   2.896
 4728TIP3    H214191   5.303   0.261   2.812
 4729TIP3   OH214192   2.998   5.726   5.100
 4729TIP3    H114193   2.924   5.715   5.161
 4729TIP3    H214194   3.068   5.764   5.153
 4730TIP3   OH214195   4.908   2.273   3.447
 4730TIP3    H114196   4.834   2.313   3.494
 4730TIP3    H214197   4.868   2.202   3.396
 4731TIP3   OH214198   4.463   1.883   0.957
 4731TIP3    H114199   4.475   1.788   0.959
 4731TIP3    H214200   4.368   1.895   0.965
 4732TIP3   OH214201   5.448   1.401   1.365
 4732TIP3    H114202   5.401   1.483   1.377
 4732TIP3    H214203   5.541   1.425   1.370
 4733TIP3   OH214204   0.284   4.049   0.615
 4733TIP3    H114205   0.235   3.978   0.575
 4733TIP3    H214206   0.247   4.059   0.702
 4734TIP3   OH214207   6.046   1.081   4.101
 4734TIP3    H114208   6.005   1.164   4.125
 4734TIP3    H214209   6.001   1.015   4.153
 4735TIP3   OH214210   2.650   3.876   4.406
 4735TIP3    H114211   2.745   3.884   4.401
 4735TIP3    H214212   2.617   3.932   4.336
 4736TIP3   OH214213   4.390   4.190   3.169
 4736TIP3    H114214   4.346   4.148   3.243
 4736TIP3    H214215   4.408   4.118   3.108
 4737TIP3   OH214216   3.435   1.799   3.546
 4737TIP3    H114217   3.453   1.767   3.635
 4737TIP3    H214218   3.359   1.748   3.517
 4738TIP3   OH214219   0.253   3.733   4.777
 4738TIP3    H114220   0.308   3.704   4.850
 4738TIP3    H214221   0.306   3.715   4.699
 4739TIP3   OH214222   2.185   3.060   2.925
 4739TIP3    H114223   2.244   3.135   2.920
 4739TIP3    H214224   2.133   3.065   2.844
 4740TIP3   OH214225   6.035   2.922   3.058
 4740TIP3    H114226   6.104   2.948   2.997
 4740TIP3    H214227   5.968   2.880   3.004
 4741TIP3   OH214228   2.463   0.822   2.883
 4741TIP3    H114229   2.395   0.883   2.854
 4741TIP3    H214230   2.467   0.834   2.978
 4742TIP3   OH214231   0.850   5.874   4.802
 4742TIP3    H114232   0.770   5.896   4.754
 4742TIP3    H214233   0.819   5.841   4.887
 4743TIP3   OH214234   3.698  -0.014   0.336
 4743TIP3    H114235   3.697   0.042   0.414
 4743TIP3    H214236   3.607  -0.016   0.308
 4744TIP3   OH214237   1.831   4.741   2.682
 4744TIP3    H114238   1.737   4.732   2.672
 4744TIP3    H214239   1.862   4.774   2.597
 4745TIP3   OH214240   0.994   5.946   1.188
 4745TIP3    H114241   0.984   5.862   1.143
 4745TIP3    H214242   1.065   5.931   1.251
 4746TIP3   OH214243   0.244   2.374   1.947
 4746TIP3    H114244   0.301   2.306   1.910
 4746TIP3    H214245   0.158   2.332   1.954
 4747TIP3   OH214246   0.025   4.345   0.877
 4747TIP3    H114247  -0.026   4.266   0.858
 4747TIP3    H214248   0.040   4.341   0.972
 4748TIP3   OH214249   2.939   5.099   1.936
 4748TIP3    H114250   2.899   5.153   1.868
 4748TIP3    H214251   2.932   5.009   1.903
 4749TIP3   OH214252   6.279   0.629   4.559
 4749TIP3    H114253   6.210   0.572   4.591
 4749TIP3    H214254   6.329   0.653   4.637
 4750TIP3   OH214255   5.304   1.624   3.824
 4750TIP3    H114256   5.213   1.648   3.812
 4750TIP3    H214257   5.352   1.706   3.818
 4751TIP3   OH214258   3.855   1.528   4.307
 4751TIP3    H114259   3.873   1.499   4.396
 4751TIP3    H214260   3.761   1.514   4.295
 4752TIP3   OH214261   4.973   2.833   2.602
 4752TIP3    H114262   5.000   2.796   2.686
 4752TIP3    H214263   4.987   2.927   2.612
 4753TIP3   OH214264   0.976   4.337   1.449
 4753TIP3    H114265   1.027   4.262   1.419
 4753TIP3    H214266   1.036   4.411   1.439
 4754TIP3   OH214267   1.065   0.810   4.273
 4754TIP3    H114268   1.149   0.801   4.317
 4754TIP3    H214269   1.087   0.816   4.180
 4755TIP3   OH214270   1.107   5.521   1.300
 4755TIP3    H114271   1.181   5.578   1.278
 4755TIP3    H214272   1.106   5.456   1.231
 4756TIP3   OH214273   1.306   4.227   4.168
 4756TIP3    H114274   1.241   4.166   4.202
 4756TIP3    H214275   1.318   4.291   4.239
 4757TIP3   OH214276   1.833   0.750   1.161
 4757TIP3    H114277   1.802   0.659   1.167
 4757TIP3    H214278   1.922   0.741   1.125
 4758TIP3   OH214279   3.180   0.013   2.443
 4758TIP3    H114280   3.098  -0.027   2.415
 4758TIP3    H214281   3.180   0.099   2.401
 4759TIP3   OH214282   1.677   5.114   4.761
 4759TIP3    H114283   1.591   5.145   4.791
 4759TIP3    H214284   1.702   5.048   4.826
 4760TIP3   OH214285   5.953   0.752   2.425
 4760TIP3    H114286   6.000   0.720   2.348
 4760TIP3    H214287   6.000   0.831   2.451
 4761TIP3   OH214288   4.808   2.569   0.459
 4761TIP3    H114289   4.900   2.590   0.440
 4761TIP3    H214290   4.773   2.648   0.500
 4762TIP3   OH214291   4.065   0.515   2.912
 4762TIP3    H114292   3.974   0.543   2.923
 4762TIP3    H214293   4.081   0.523   2.818
 4763TIP3   OH214294   5.184   3.738   0.128
 4763TIP3    H114295   5.113   3.794   0.094
 4763TIP3    H214296   5.156   3.649   0.107
 4764TIP3   OH214297   3.884   0.232   1.228
 4764TIP3    H114298   3.904   0.145   1.196
 4764TIP3    H214299   3.968   0.267   1.257
 4765TIP3   OH214300   2.960   4.494   1.989
 4765TIP3    H114301   2.952   4.453   1.903
 4765TIP3    H214302   2.960   4.421   2.051
 4766TIP3   OH214303   3.012   1.987   3.490
 4766TIP3    H114304   3.035   1.899   3.518
 4766TIP3    H214305   3.070   2.044   3.540
 4767TIP3   OH214306   2.086   4.548   2.478
 4767TIP3    H114307   1.996   4.572   2.457
 4767TIP3    H214308   2.103   4.470   2.426
 4768TIP3   OH214309   3.283   4.425   5.138
 4768TIP3    H114310   3.379   4.415   5.140
 4768TIP3    H214311   3.253   4.349   5.089
 4769TIP3   OH214312   0.796   3.590   4.656
 4769TIP3    H114313   0.779   3.508   4.609
 4769TIP3    H214314   0.751   3.657   4.604
 4770TIP3   OH214315   3.397   5.462   1.651
 4770TIP3    H114316   3.430   5.537   1.602
 4770TIP3    H214317   3.402   5.488   1.742
 4771TIP3   OH214318   3.167   2.533   0.421
 4771TIP3    H114319   3.122   2.470   0.364
 4771TIP3    H214320   3.166   2.493   0.508
 4772TIP3   OH214321   1.265   5.341   4.046
 4772TIP3    H114322   1.358   5.327   4.025
 4772TIP3    H214323   1.246   5.429   4.015
 4773TIP3   OH214324   4.704   0.793   2.431
 4773TIP3    H114325   4.768   0.727   2.458
 4773TIP3    H214326   4.756   0.873   2.419
 4774TIP3   OH214327   2.865   4.450   4.497
 4774TIP3    H114328   2.803   4.483   4.432
 4774TIP3    H214329   2.834   4.362   4.516
 4775TIP3   OH214330   2.419   4.636   3.390
 4775TIP3    H114331   2.401   4.599   3.303
 4775TIP3    H214332   2.477   4.710   3.373
 4776TIP3   OH214333   4.148   1.007   0.320
 4776TIP3    H114334   4.195   0.928   0.294
 4776TIP3    H214335   4.178   1.075   0.260
 4777TIP3   OH214336   2.311   0.228   3.730
 4777TIP3    H114337   2.405   0.247   3.728
 4777TIP3    H214338   2.301   0.163   3.800
 4778TIP3   OH214339   1.922   4.190   3.462
 4778TIP3    H114340   1.905   4.102   3.428
 4778TIP3    H214341   1.987   4.177   3.530
 4779TIP3   OH214342   2.093   4.241   0.975
 4779TIP3    H114343   2.050   4.316   0.934
 4779TIP3    H214344   2.154   4.209   0.908
 4780TIP3   OH214345   1.981   3.777   3.089
 4780TIP3    H114346   1.995   3.780   2.995
 4780TIP3    H214347   2.015   3.861   3.121
 4781TIP3   OH214348   6.320   4.169   4.398
 4781TIP3    H114349   6.311   4.264   4.401
 4781TIP3    H214350   6.298   4.145   4.308
 4782TIP3   OH214351   1.424   0.489   0.093
 4782TIP3    H114352   1.397   0.401   0.121
 4782TIP3    H214353   1.492   0.474   0.027
 4783TIP3   OH214354   2.348   5.003   0.420
 4783TIP3    H114355   2.409   4.966   0.485
 4783TIP3    H214356   2.404   5.030   0.348
 4784TIP3   OH214357   6.088   5.567   3.648
 4784TIP3    H114358   6.024   5.569   3.718
 4784TIP3    H214359   6.171   5.547   3.691
 4785TIP3   OH214360   4.421   5.473   4.769
 4785TIP3    H114361   4.443   5.496   4.859
 4785TIP3    H214362   4.479   5.400   4.749
 4786TIP3   OH214363   0.783   3.724   3.959
 4786TIP3    H114364   0.813   3.795   4.016
 4786TIP3    H214365   0.851   3.657   3.966
 4787TIP3   OH214366   3.058   1.055   1.170
 4787TIP3    H114367   3.119   1.015   1.232
 4787TIP3    H214368   3.054   1.147   1.195
 4788TIP3   OH214369   0.298   1.560   1.108
 4788TIP3    H114370   0.259   1.473   1.118
 4788TIP3    H214371   0.351   1.572   1.187
 4789TIP3   OH214372   0.891   5.606   2.708
 4789TIP3    H114373   0.816   5.556   2.742
 4789TIP3    H214374   0.863   5.697   2.712
 4790TIP3   OH214375   3.935   0.178   2.427
 4790TIP3    H114376   3.926   0.085   2.447
 4790TIP3    H214377   3.882   0.222   2.493
 4791TIP3   OH214378   2.905   5.353   0.354
 4791TIP3    H114379   2.900   5.279   0.414
 4791TIP3    H214380   2.815   5.365   0.323
 4792TIP3   OH214381   4.328   0.723   0.924
 4792TIP3    H114382   4.363   0.639   0.954
 4792TIP3    H214383   4.237   0.722   0.954
 4793TIP3   OH214384   0.491   5.427   3.103
 4793TIP3    H114385   0.460   5.385   3.023
 4793TIP3    H214386   0.524   5.355   3.156
 4794TIP3   OH214387   0.030   5.290   2.754
 4794TIP3    H114388   0.013   5.352   2.825
 4794TIP3    H214389   0.063   5.344   2.682
 4795TIP3   OH214390   4.175   1.369   1.712
 4795TIP3    H114391   4.247   1.424   1.744
 4795TIP3    H214392   4.162   1.304   1.781
 4796TIP3   OH214393   6.288   3.374   4.352
 4796TIP3    H114394   6.344   3.444   4.319
 4796TIP3    H214395   6.348   3.308   4.387
 4797TIP3   OH214396   2.020   3.546   4.775
 4797TIP3    H114397   2.021   3.642   4.784
 4797TIP3    H214398   1.937   3.527   4.732
 4798TIP3   OH214399   1.173   3.354   0.771
 4798TIP3    H114400   1.261   3.320   0.788
 4798TIP3    H214401   1.119   3.320   0.842
 4799TIP3   OH214402   1.536   1.929   0.479
 4799TIP3    H114403   1.452   1.904   0.440
 4799TIP3    H214404   1.559   1.856   0.536
 4800TIP3   OH214405   3.888   0.397   3.660
 4800TIP3    H114406   3.844   0.319   3.696
 4800TIP3    H214407   3.881   0.462   3.730
 4801TIP3   OH214408   2.811   0.872   4.859
 4801TIP3    H114409   2.813   0.951   4.805
 4801TIP3    H214410   2.730   0.828   4.835
 4802TIP3   OH214411   2.071   1.965   1.342
 4802TIP3    H114412   2.048   1.937   1.430
 4802TIP3    H214413   2.064   1.886   1.288
 4803TIP3   OH214414   4.513   4.094   1.669
 4803TIP3    H114415   4.463   4.087   1.751
 4803TIP3    H214416   4.580   4.159   1.688
 4804TIP3   OH214417   2.673   3.178   2.832
 4804TIP3    H114418   2.645   3.254   2.781
 4804TIP3    H214419   2.710   3.118   2.767
 4805TIP3   OH214420   2.369   1.807   2.914
 4805TIP3    H114421   2.360   1.826   2.820
 4805TIP3    H214422   2.463   1.792   2.927
 4806TIP3   OH214423   1.199   2.346   3.982
 4806TIP3    H114424   1.263   2.278   3.962
 4806TIP3    H214425   1.252   2.423   4.005
 4807TIP3   OH214426   3.149   5.348   3.927
 4807TIP3    H114427   3.147   5.291   4.004
 4807TIP3    H214428   3.058   5.352   3.897
 4808TIP3   OH214429   1.555   3.685   1.229
 4808TIP3    H114430   1.625   3.621   1.213
 4808TIP3    H214431   1.475   3.638   1.206
 4809TIP3   OH214432   4.475   0.755   4.110
 4809TIP3    H114433   4.422   0.730   4.186
 4809TIP3    H214434   4.489   0.674   4.062
 4810TIP3   OH214435   4.978   4.932   0.217
 4810TIP3    H114436   5.040   5.005   0.217
 4810TIP3    H214437   4.892   4.974   0.207
 4811TIP3   OH214438   0.689   2.556   1.330
 4811TIP3    H114439   0.667   2.595   1.245
 4811TIP3    H214440   0.664   2.623   1.394
 4812TIP3   OH214441   2.072   3.802   4.842
 4812TIP3    H114442   1.990   3.804   4.891
 4812TIP3    H214443   2.130   3.862   4.889
 4813TIP3   OH214444   4.932   4.830   2.547
 4813TIP3    H114445   4.874   4.756   2.532
 4813TIP3    H214446   4.886   4.905   2.508
 4814TIP3   OH214447   4.665   3.783   1.671
 4814TIP3    H114448   4.673   3.791   1.766
 4814TIP3    H214449   4.599   3.848   1.647
 4815TIP3   OH214450   4.219   0.289   4.397
 4815TIP3    H114451   4.165   0.340   4.337
 4815TIP3    H214452   4.260   0.354   4.454
 4816TIP3   OH214453   5.664   1.798   0.272
 4816TIP3    H114454   5.727   1.789   0.343
 4816TIP3    H214455   5.610   1.720   0.277
 4817TIP3   OH214456   4.083   2.105   2.338
 4817TIP3    H114457   4.142   2.030   2.333
 4817TIP3    H214458   4.052   2.117   2.248
 4818TIP3   OH214459   0.738   1.591   2.851
 4818TIP3    H114460   0.679   1.615   2.922
 4818TIP3    H214461   0.708   1.504   2.824
 4819TIP3   OH214462   2.879   1.601   2.014
 4819TIP3    H114463   2.788   1.628   2.009
 4819TIP3    H214464   2.905   1.620   2.104
 4820TIP3   OH214465   1.062  -0.007   3.516
 4820TIP3    H114466   1.157  -0.016   3.523
 4820TIP3    H214467   1.045  -0.007   3.421
 4821TIP3   OH214468   2.262   4.807   3.198
 4821TIP3    H114469   2.307   4.731   3.162
 4821TIP3    H214470   2.323   4.843   3.262
 4822TIP3   OH214471   2.947   5.164   1.023
 4822TIP3    H114472   2.919   5.075   0.998
 4822TIP3    H214473   3.042   5.156   1.036
 4823TIP3   OH214474   4.991   4.678   3.614
 4823TIP3    H114475   5.044   4.625   3.674
 4823TIP3    H214476   5.048   4.690   3.538
 4824TIP3   OH214477   5.026   4.501   0.535
 4824TIP3    H114478   5.034   4.591   0.501
 4824TIP3    H214479   4.937   4.475   0.512
 4825TIP3   OH214480   4.081   4.157   0.160
 4825TIP3    H114481   3.998   4.192   0.191
 4825TIP3    H214482   4.063   4.066   0.139
 4826TIP3   OH214483   4.737   3.531   2.150
 4826TIP3    H114484   4.674   3.532   2.078
 4826TIP3    H214485   4.795   3.458   2.130
 4827TIP3   OH214486   1.815   1.192   3.061
 4827TIP3    H114487   1.762   1.202   3.140
 4827TIP3    H214488   1.853   1.278   3.045
 4828TIP3   OH214489   5.745   5.896   3.640
 4828TIP3    H114490   5.705   5.823   3.592
 4828TIP3    H214491   5.686   5.970   3.624
 4829TIP3   OH214492   5.922   1.841  -0.006
 4829TIP3    H114493   6.010   1.803  -0.017
 4829TIP3    H214494   5.920   1.871   0.085
 4830TIP3   OH214495   3.660   2.597   0.087
 4830TIP3    H114496   3.689   2.661   0.023
 4830TIP3    H214497   3.614   2.531   0.036
 4831TIP3   OH214498   2.210   4.687   4.859
 4831TIP3    H114499   2.175   4.760   4.807
 4831TIP3    H214500   2.267   4.729   4.923
 4832TIP3   OH214501   3.181   1.625   4.911
 4832TIP3    H114502   3.099   1.673   4.912
 4832TIP3    H214503   3.218   1.639   4.998
 4833TIP3   OH214504   3.113   0.618   0.521
 4833TIP3    H114505   3.030   0.584   0.554
 4833TIP3    H214506   3.153   0.663   0.596
 4834TIP3   OH214507   0.164   1.157   0.534
 4834TIP3    H114508   0.131   1.111   0.611
 4834TIP3    H214509   0.125   1.109   0.460
 4835TIP3   OH214510   3.789   1.312   1.868
 4835TIP3    H114511   3.698   1.280   1.864
 4835TIP3    H214512   3.827   1.266   1.942
 4836TIP3   OH214513   1.018   4.697   0.276
 4836TIP3    H114514   0.942   4.640   0.262
 4836TIP3    H214515   1.055   4.710   0.189
 4837TIP3   OH214516   4.075   1.586   4.006
 4837TIP3    H114517   4.055   1.547   3.921
 4837TIP3    H214518   4.143   1.651   3.987
 4838TIP3   OH214519   1.295   0.902   4.442
 4838TIP3    H114520   1.287   0.979   4.385
 4838TIP3    H214521   1.362   0.849   4.401
 4839TIP3   OH214522   4.793   3.885   4.715
 4839TIP3    H114523   4.801   3.846   4.628
 4839TIP3    H214524   4.762   3.974   4.699
 4840TIP3   OH214525   4.096   1.865   0.484
 4840TIP3    H114526   4.126   1.882   0.573
 4840TIP3    H214527   4.074   1.772   0.484
 4841TIP3   OH214528   1.016   4.023   3.268
 4841TIP3    H114529   1.044   3.974   3.345
 4841TIP3    H214530   1.096   4.036   3.217
 4842TIP3   OH214531   2.543   0.388   0.981
 4842TIP3    H114532   2.537   0.404   1.075
 4842TIP3    H214533   2.633   0.360   0.966
 4843TIP3   OH214534   3.995   3.399   2.197
 4843TIP3    H114535   3.906   3.404   2.161
 4843TIP3    H214536   4.049   3.372   2.122
 4844TIP3   OH214537   5.843   0.722   1.778
 4844TIP3    H114538   5.856   0.768   1.695
 4844TIP3    H214539   5.815   0.634   1.753
 4845TIP3   OH214540   1.469   3.989   3.153
 4845TIP3    H114541   1.535   3.952   3.094
 4845TIP3    H214542   1.520   4.040   3.216
 4846TIP3   OH214543   5.699   4.294   3.919
 4846TIP3    H114544   5.772   4.337   3.962
 4846TIP3    H214545   5.727   4.204   3.907
 4847TIP3   OH214546   0.554   0.560   4.691
 4847TIP3    H114547   0.516   0.473   4.688
 4847TIP3    H214548   0.547   0.592   4.601
 4848TIP3   OH214549   1.398   5.865   1.540
 4848TIP3    H114550   1.457   5.940   1.540
 4848TIP3    H214551   1.453   5.792   1.568
 4849TIP3   OH214552   4.310   0.520   2.398
 4849TIP3    H114553   4.290   0.557   2.312
 4849TIP3    H214554   4.380   0.574   2.433
 4850TIP3   OH214555   1.567   4.578   4.123
 4850TIP3    H114556   1.605   4.666   4.126
 4850TIP3    H214557   1.479   4.589   4.156
 4851TIP3   OH214558   2.668   2.286   2.015
 4851TIP3    H114559   2.714   2.321   2.091
 4851TIP3    H214560   2.598   2.232   2.052
 4852TIP3   OH214561   0.915   0.419   0.084
 4852TIP3    H114562   0.973   0.496   0.087
 4852TIP3    H214563   0.970   0.349   0.048
 4853TIP3   OH214564   1.999   4.956   1.303
 4853TIP3    H114565   2.051   5.029   1.336
 4853TIP3    H214566   2.008   4.960   1.208
 4854TIP3   OH214567   3.173   5.022   2.266
 4854TIP3    H114568   3.201   4.962   2.197
 4854TIP3    H214569   3.195   4.977   2.348
 4855TIP3   OH214570   3.037   2.846   1.880
 4855TIP3    H114571   3.010   2.901   1.954
 4855TIP3    H214572   2.991   2.763   1.895
 4856TIP3   OH214573   3.653   3.123   4.177
 4856TIP3    H114574   3.616   3.210   4.164
 4856TIP3    H214575   3.748   3.137   4.180
 4857TIP3   OH214576   4.247   0.541   3.111
 4857TIP3    H114577   4.187   0.524   3.038
 4857TIP3    H214578   4.191   0.574   3.181
 4858TIP3   OH214579   4.913   3.541   3.248
 4858TIP3    H114580   4.971   3.582   3.312
 4858TIP3    H214581   4.921   3.447   3.265
 4859TIP3   OH214582   2.648   0.512   3.620
 4859TIP3    H114583   2.656   0.578   3.689
 4859TIP3    H214584   2.603   0.556   3.548
 4860TIP3   OH214585   5.821   5.178   2.976
 4860TIP3    H114586   5.906   5.219   2.992
 4860TIP3    H214587   5.779   5.174   3.062
 4861TIP3   OH214588   4.046   4.543   4.769
 4861TIP3    H114589   3.980   4.611   4.782
 4861TIP3    H214590   4.125   4.577   4.811
 4862TIP3   OH214591   1.124   2.138   0.917
 4862TIP3    H114592   1.040   2.177   0.942
 4862TIP3    H214593   1.182   2.213   0.902
 4863TIP3   OH214594   0.208   3.499   2.479
 4863TIP3    H114595   0.153   3.425   2.451
 4863TIP3    H214596   0.246   3.470   2.562
 4864TIP3   OH214597   0.912   0.749   1.418
 4864TIP3    H114598   0.906   0.758   1.323
 4864TIP3    H214599   0.843   0.686   1.441
 4865TIP3   OH214600   0.667   5.793   0.652
 4865TIP3    H114601   0.678   5.717   0.709
 4865TIP3    H214602   0.733   5.783   0.584
 4866TIP3   OH214603   0.911   2.764   2.409
 4866TIP3    H114604   0.928   2.689   2.352
 4866TIP3    H214605   0.997   2.804   2.423
 4867TIP3   OH214606   1.264   1.437   0.372
 4867TIP3    H114607   1.292   1.526   0.394
 4867TIP3    H214608   1.333   1.381   0.407
 4868TIP3   OH214609   3.720   0.978   3.967
 4868TIP3    H114610   3.639   0.959   4.014
 4868TIP3    H214611   3.776   0.902   3.982
 4869TIP3   OH214612   1.493   2.212   0.757
 4869TIP3    H114613   1.486   2.207   0.661
 4869TIP3    H214614   1.537   2.130   0.782
 4870TIP3   OH214615   3.428   0.740   2.801
 4870TIP3    H114616   3.423   0.737   2.706
 4870TIP3    H214617   3.503   0.796   2.820
 4871TIP3   OH214618   3.053   0.106   4.542
 4871TIP3    H114619   3.080   0.196   4.523
 4871TIP3    H214620   2.999   0.081   4.467
 4872TIP3   OH214621   0.607   3.752   2.020
 4872TIP3    H114622   0.649   3.689   1.962
 4872TIP3    H214623   0.671   3.767   2.090
 4873TIP3   OH214624   3.372   5.064   3.170
 4873TIP3    H114625   3.323   5.067   3.252
 4873TIP3    H214626   3.463   5.078   3.196
 4874TIP3   OH214627   4.719   4.330   0.618
 4874TIP3    H114628   4.811   4.307   0.632
 4874TIP3    H214629   4.714   4.354   0.526
 4875TIP3   OH214630   0.694   0.586   1.486
 4875TIP3    H114631   0.701   0.524   1.558
 4875TIP3    H214632   0.710   0.534   1.408
 4876TIP3   OH214633   1.700   0.559   3.193
 4876TIP3    H114634   1.785   0.591   3.161
 4876TIP3    H214635   1.713   0.546   3.287
 4877TIP3   OH214636   2.196   0.482   4.502
 4877TIP3    H114637   2.208   0.502   4.595
 4877TIP3    H214638   2.264   0.533   4.457
 4878TIP3   OH214639   0.041   3.883   4.344
 4878TIP3    H114640   0.122   3.933   4.358
 4878TIP3    H214641  -0.015   3.942   4.294
 4879TIP3   OH214642   2.999   4.595   0.420
 4879TIP3    H114643   2.964   4.541   0.491
 4879TIP3    H214644   2.939   4.581   0.347
 4880TIP3   OH214645   4.714   2.106   3.355
 4880TIP3    H114646   4.651   2.058   3.409
 4880TIP3    H214647   4.666   2.183   3.324
 4881TIP3   OH214648   3.287   5.632   3.103
 4881TIP3    H114649   3.245   5.560   3.057
 4881TIP3    H214650   3.361   5.593   3.148
 4882TIP3   OH214651   3.320   0.403   0.582
 4882TIP3    H114652   3.316   0.320   0.535
 4882TIP3    H214653   3.242   0.451   0.555
 4883TIP3   OH214654   1.053   5.533   3.903
 4883TIP3    H114655   1.134   5.499   3.865
 4883TIP3    H214656   1.080   5.573   3.986
 4884TIP3   OH214657   1.772   0.434   1.201
 4884TIP3    H114658   1.681   0.430   1.172
 4884TIP3    H214659   1.766   0.453   1.295
 4885TIP3   OH214660   2.565   3.326   2.164
 4885TIP3    H114661   2.595   3.304   2.076
 4885TIP3    H214662   2.548   3.420   2.161
 4886TIP3   OH214663   3.441   2.565   3.192
 4886TIP3    H114664   3.416   2.478   3.221
 4886TIP3    H214665   3.413   2.623   3.263
 4887TIP3   OH214666   2.374   2.258   1.789
 4887TIP3    H114667   2.389   2.224   1.877
 4887TIP3    H214668   2.318   2.335   1.802
 4888TIP3   OH214669   5.584   3.711   1.480
 4888TIP3    H114670   5.531   3.633   1.501
 4888TIP3    H214671   5.654   3.710   1.545
 4889TIP3   OH214672   0.113   0.145   3.508
 4889TIP3    H114673   0.023   0.110   3.509
 4889TIP3    H214674   0.102   0.239   3.493
 4890TIP3   OH214675   1.550   5.402   1.166
 4890TIP3    H114676   1.470   5.376   1.121
 4890TIP3    H214677   1.619   5.353   1.122
 4891TIP3   OH214678   0.647   2.787   1.457
 4891TIP3    H114679   0.556   2.809   1.476
 4891TIP3    H214680   0.679   2.860   1.404
 4892TIP3   OH214681   0.642   1.119   2.927
 4892TIP3    H114682   0.607   1.201   2.894
 4892TIP3    H214683   0.732   1.140   2.953
 4893TIP3   OH214684   5.255   3.139   1.811
 4893TIP3    H114685   5.207   3.122   1.892
 4893TIP3    H214686   5.242   3.059   1.759
 4894TIP3   OH214687   4.341   1.553   5.139
 4894TIP3    H114688   4.295   1.630   5.172
 4894TIP3    H214689   4.288   1.479   5.170
 4895TIP3   OH214690   2.214   3.245   2.457
 4895TIP3    H114691   2.174   3.192   2.388
 4895TIP3    H214692   2.231   3.182   2.528
 4896TIP3   OH214693   1.795   2.194   2.321
 4896TIP3    H114694   1.872   2.171   2.375
 4896TIP3    H214695   1.731   2.225   2.384
 4897TIP3   OH214696   5.962   4.165   4.174
 4897TIP3    H114697   6.034   4.125   4.126
 4897TIP3    H214698   5.947   4.248   4.130
 4898TIP3   OH214699   4.838   5.603   4.050
 4898TIP3    H114700   4.907   5.658   4.086
 4898TIP3    H214701   4.780   5.664   4.004
 4899TIP3   OH214702   0.736   4.238  -0.001
 4899TIP3    H114703   0.817   4.255   0.048
 4899TIP3    H214704   0.697   4.162   0.043
 4900TIP3   OH214705   6.058   0.378   2.409
 4900TIP3    H114706   6.052   0.446   2.477
 4900TIP3    H214707   6.023   0.420   2.330
 4901TIP3   OH214708   5.452   4.456   4.521
 4901TIP3    H114709   5.479   4.466   4.612
 4901TIP3    H214710   5.445   4.362   4.508
 4902TIP3   OH214711   3.783   1.563   4.636
 4902TIP3    H114712   3.864   1.613   4.647
 4902TIP3    H214713   3.784   1.500   4.709
 4903TIP3   OH214714   3.694   3.259   0.774
 4903TIP3    H114715   3.789   3.248   0.767
 4903TIP3    H214716   3.676   3.256   0.868
 4904TIP3   OH214717   5.275   2.420   2.419
 4904TIP3    H114718   5.362   2.454   2.399
 4904TIP3    H214719   5.227   2.494   2.455
 4905TIP3   OH214720   2.767   5.663   0.266
 4905TIP3    H114721   2.850   5.708   0.250
 4905TIP3    H214722   2.700   5.731   0.260
 4906TIP3   OH214723   4.611   2.314   2.429
 4906TIP3    H114724   4.628   2.331   2.522
 4906TIP3    H214725   4.523   2.276   2.428
 4907TIP3   OH214726   3.426   0.141   0.744
 4907TIP3    H114727   3.424   0.207   0.813
 4907TIP3    H214728   3.339   0.146   0.704
 4908TIP3   OH214729   3.991   3.817   1.685
 4908TIP3    H114730   3.952   3.741   1.727
 4908TIP3    H214731   4.085   3.799   1.685
 4909TIP3   OH214732   3.799   4.369   1.137
 4909TIP3    H114733   3.723   4.379   1.079
 4909TIP3    H214734   3.834   4.283   1.116
 4910TIP3   OH214735   0.164   2.626   5.134
 4910TIP3    H114736   0.070   2.639   5.124
 4910TIP3    H214737   0.202   2.668   5.057
 4911TIP3   OH214738   5.105   2.042   1.596
 4911TIP3    H114739   5.090   2.016   1.687
 4911TIP3    H214740   5.043   2.113   1.581
 4912TIP3   OH214741   2.836   3.741   1.439
 4912TIP3    H114742   2.864   3.830   1.417
 4912TIP3    H214743   2.844   3.693   1.356
 4913TIP3   OH214744   2.893   2.999   4.364
 4913TIP3    H114745   2.940   2.921   4.334
 4913TIP3    H214746   2.906   3.000   4.459
 4914TIP3   OH214747   3.405   2.569   1.475
 4914TIP3    H114748   3.321   2.570   1.521
 4914TIP3    H214749   3.464   2.617   1.532
 4915TIP3   OH214750   4.062   4.194   0.621
 4915TIP3    H114751   4.040   4.114   0.670
 4915TIP3    H214752   3.981   4.216   0.574
 4916TIP3   OH214753   0.542   1.995   0.239
 4916TIP3    H114754   0.517   2.087   0.226
 4916TIP3    H214755   0.584   1.971   0.157
 4917TIP3   OH214756   1.717   3.438   0.200
 4917TIP3    H114757   1.639   3.401   0.161
 4917TIP3    H214758   1.769   3.362   0.226
 4918TIP3   OH214759   0.292   2.464   3.963
 4918TIP3    H114760   0.335   2.540   4.002
 4918TIP3    H214761   0.285   2.402   4.035
 4919TIP3   OH214762   2.291   0.310   5.083
 4919TIP3    H114763   2.301   0.378   5.016
 4919TIP3    H214764   2.210   0.334   5.129
 4920TIP3   OH214765   2.036   3.120   0.797
 4920TIP3    H114766   2.025   3.213   0.776
 4920TIP3    H214767   2.040   3.118   0.893
 4921TIP3   OH214768   2.132   3.394   1.660
 4921TIP3    H114769   2.174   3.308   1.665
 4921TIP3    H214770   2.045   3.381   1.697
 4922TIP3   OH214771   4.553   4.278   0.811
 4922TIP3    H114772   4.610   4.314   0.743
 4922TIP3    H214773   4.464   4.302   0.782
 4923TIP3   OH214774   0.456   3.511   1.823
 4923TIP3    H114775   0.415   3.523   1.909
 4923TIP3    H214776   0.540   3.470   1.842
 4924TIP3   OH214777   5.570   6.007   1.190
 4924TIP3    H114778   5.509   5.964   1.250
 4924TIP3    H214779   5.597   5.938   1.129
 4925TIP3   OH214780   6.160   0.540   0.593
 4925TIP3    H114781   6.190   0.450   0.587
 4925TIP3    H214782   6.207   0.586   0.523
 4926TIP3   OH214783   3.116   5.424   1.402
 4926TIP3    H114784   3.164   5.481   1.342
 4926TIP3    H214785   3.179   5.359   1.430
 4927TIP3   OH214786   0.049   2.846   2.527
 4927TIP3    H114787   0.093   2.838   2.443
 4927TIP3    H214788   0.080   2.930   2.563
 4928TIP3   OH214789   1.124   5.028   0.871
 4928TIP3    H114790   1.205   5.071   0.844
 4928TIP3    H214791   1.153   4.944   0.907
 4929TIP3   OH214792   1.162   2.985   2.165
 4929TIP3    H114793   1.199   2.924   2.102
 4929TIP3    H214794   1.195   2.955   2.250
 4930TIP3   OH214795   4.923   1.057   4.163
 4930TIP3    H114796   4.886   1.012   4.087
 4930TIP3    H214797   4.930   1.148   4.136
 4931TIP3   OH214798   4.587   5.791   2.037
 4931TIP3    H114799   4.660   5.747   1.993
 4931TIP3    H214800   4.627   5.866   2.080
 4932TIP3   OH214801   4.172   1.711   3.469
 4932TIP3    H114802   4.262   1.688   3.491
 4932TIP3    H214803   4.179   1.762   3.388
 4933TIP3   OH214804   3.623   2.199   4.371
 4933TIP3    H114805   3.551   2.153   4.414
 4933TIP3    H214806   3.696   2.137   4.374
 4934TIP3   OH214807   3.768   2.800   0.660
 4934TIP3    H114808   3.827   2.738   0.703
 4934TIP3    H214809   3.694   2.809   0.720
 4935TIP3   OH214810   5.780   0.599   4.286
 4935TIP3    H114811   5.758   0.506   4.279
 4935TIP3    H214812   5.701   0.644   4.256
 4936TIP3   OH214813   2.628   3.023   1.455
 4936TIP3    H114814   2.581   2.974   1.388
 4936TIP3    H214815   2.613   3.115   1.432
 4937TIP3   OH214816   6.225   2.993   4.689
 4937TIP3    H114817   6.236   2.967   4.598
 4937TIP3    H214818   6.252   3.084   4.693
 4938TIP3   OH214819   1.643   3.009   3.878
 4938TIP3    H114820   1.708   3.075   3.855
 4938TIP3    H214821   1.654   2.996   3.972
 4939TIP3   OH214822   4.622   4.123   2.835
 4939TIP3    H114823   4.576   4.060   2.779
 4939TIP3    H214824   4.714   4.108   2.816
 4940TIP3   OH214825   6.059   4.730   1.203
 4940TIP3    H114826   6.044   4.750   1.110
 4940TIP3    H214827   6.148   4.695   1.205
 4941TIP3   OH214828   0.348   4.069   1.507
 4941TIP3    H114829   0.264   4.044   1.470
 4941TIP3    H214830   0.358   4.015   1.585
 4942TIP3   OH214831   1.102   4.352   3.941
 4942TIP3    H114832   1.153   4.323   3.866
 4942TIP3    H214833   1.161   4.342   4.016
 4943TIP3   OH214834   4.708   3.816   2.592
 4943TIP3    H114835   4.799   3.806   2.619
 4943TIP3    H214836   4.695   3.751   2.523
 4944TIP3   OH214837   4.378   1.849   2.125
 4944TIP3    H114838   4.471   1.838   2.104
 4944TIP3    H214839   4.333   1.783   2.072
 4945TIP3   OH214840   0.918   5.237   2.446
 4945TIP3    H114841   0.924   5.185   2.366
 4945TIP3    H214842   0.892   5.175   2.513
 4946TIP3   OH214843   4.683   1.096   4.330
 4946TIP3    H114844   4.754   1.033   4.316
 4946TIP3    H214845   4.630   1.092   4.251
 4947TIP3   OH214846   1.085   2.410   4.614
 4947TIP3    H114847   1.011   2.465   4.639
 4947TIP3    H214848   1.100   2.353   4.689
 4948TIP3   OH214849   3.690   1.644   3.682
 4948TIP3    H114850   3.626   1.613   3.618
 4948TIP3    H214851   3.767   1.666   3.630
 4949TIP3   OH214852   2.425   1.822   4.400
 4949TIP3    H114853   2.374   1.786   4.473
 4949TIP3    H214854   2.516   1.816   4.428
 4950TIP3   OH214855   3.361   1.628   3.272
 4950TIP3    H114856   3.351   1.587   3.358
 4950TIP3    H214857   3.271   1.645   3.243
 4951TIP3   OH214858   2.951   0.179   2.584
 4951TIP3    H114859   2.859   0.196   2.604
 4951TIP3    H214860   2.987   0.264   2.563
 4952TIP3   OH214861   1.211   1.432   4.906
 4952TIP3    H114862   1.289   1.476   4.941
 4952TIP3    H214863   1.215   1.344   4.944
 4953TIP3   OH214864   6.227   0.301   1.186
 4953TIP3    H114865   6.307   0.347   1.160
 4953TIP3    H214866   6.156   0.358   1.156
 4954TIP3   OH214867   5.351   5.705   3.611
 4954TIP3    H114868   5.311   5.718   3.525
 4954TIP3    H214869   5.431   5.757   3.608
 4955TIP3   OH214870   3.360   3.113   1.104
 4955TIP3    H114871   3.311   3.057   1.164
 4955TIP3    H214872   3.431   3.059   1.073
 4956TIP3   OH214873   4.258   2.779   3.841
 4956TIP3    H114874   4.273   2.767   3.935
 4956TIP3    H214875   4.334   2.738   3.799
 4957TIP3   OH214876   4.615   0.533   1.064
 4957TIP3    H114877   4.542   0.495   1.114
 4957TIP3    H214878   4.644   0.608   1.117
 4958TIP3   OH214879   5.584   4.740   3.285
 4958TIP3    H114880   5.596   4.804   3.215
 4958TIP3    H214881   5.634   4.664   3.256
 4959TIP3   OH214882   6.233   2.659   4.288
 4959TIP3    H114883   6.271   2.572   4.297
 4959TIP3    H214884   6.277   2.697   4.211
 4960TIP3   OH214885   0.161   0.499   0.895
 4960TIP3    H114886   0.222   0.429   0.871
 4960TIP3    H214887   0.214   0.579   0.894
 4961TIP3   OH214888   0.450   3.430   4.246
 4961TIP3    H114889   0.356   3.435   4.230
 4961TIP3    H214890   0.458   3.418   4.341
 4962TIP3   OH214891   0.602   3.619   3.774
 4962TIP3    H114892   0.676   3.652   3.824
 4962TIP3    H214893   0.574   3.540   3.821
 4963TIP3   OH214894   6.017   3.702   3.249
 4963TIP3    H114895   6.012   3.775   3.187
 4963TIP3    H214896   5.926   3.679   3.267
 4964TIP3   OH214897   2.396   5.446   0.145
 4964TIP3    H114898   2.362   5.501   0.075
 4964TIP3    H214899   2.322   5.393   0.173
 4965TIP3   OH214900   1.486   4.641   4.726
 4965TIP3    H114901   1.501   4.723   4.774
 4965TIP3    H214902   1.460   4.669   4.639
 4966TIP3   OH214903   0.331   5.664   1.915
 4966TIP3    H114904   0.361   5.703   1.833
 4966TIP3    H214905   0.411   5.632   1.957
 4967TIP3   OH214906   5.667   2.826   3.867
 4967TIP3    H114907   5.730   2.825   3.939
 4967TIP3    H214908   5.695   2.899   3.812
 4968TIP3   OH214909   4.168   1.763   1.626
 4968TIP3    H114910   4.182   1.673   1.599
 4968TIP3    H214911   4.210   1.815   1.557
 4969TIP3   OH214912   6.216   1.381   0.717
 4969TIP3    H114913   6.176   1.353   0.634
 4969TIP3    H214914   6.240   1.472   0.703
 4970TIP3   OH214915   2.076   3.779   2.285
 4970TIP3    H114916   2.137   3.818   2.348
 4970TIP3    H214917   2.000   3.754   2.337
 4971TIP3   OH214918   4.535   4.780   0.170
 4971TIP3    H114919   4.522   4.715   0.101
 4971TIP3    H214920   4.579   4.732   0.240
 4972TIP3   OH214921   5.991   0.928   3.255
 4972TIP3    H114922   5.986   1.017   3.289
 4972TIP3    H214923   5.906   0.914   3.212
 4973TIP3   OH214924   0.871   2.508   3.198
 4973TIP3    H114925   0.951   2.519   3.147
 4973TIP3    H214926   0.870   2.416   3.222
 4974TIP3   OH214927   1.886   2.600   3.981
 4974TIP3    H114928   1.816   2.545   4.016
 4974TIP3    H214929   1.846   2.687   3.974
 4975TIP3   OH214930   3.679   3.678   4.454
 4975TIP3    H114931   3.763   3.649   4.491
 4975TIP3    H214932   3.703   3.740   4.386
 4976TIP3   OH214933   2.627   5.231   2.744
 4976TIP3    H114934   2.623   5.320   2.709
 4976TIP3    H214935   2.701   5.190   2.700
 4977TIP3   OH214936   2.652   5.538   3.103
 4977TIP3    H114937   2.695   5.615   3.066
 4977TIP3    H214938   2.613   5.494   3.027
 4978TIP3   OH214939  -0.005   3.901   5.202
 4978TIP3    H114940   0.002   3.888   5.107
 4978TIP3    H214941   0.075   3.949   5.225
 4979TIP3   OH214942   0.419   1.976   2.500
 4979TIP3    H114943   0.484   1.924   2.547
 4979TIP3    H214944   0.335   1.945   2.534
 4980TIP3   OH214945   6.060   1.551   5.043
 4980TIP3    H114946   6.076   1.493   5.118
 4980TIP3    H214947   6.012   1.625   5.080
 4981TIP3   OH214948   5.316   5.313   2.424
 4981TIP3    H114949   5.284   5.394   2.464
 4981TIP3    H214950   5.406   5.305   2.457
 4982TIP3   OH214951   5.993   3.851   3.018
 4982TIP3    H114952   5.943   3.932   3.014
 4982TIP3    H214953   6.084   3.879   3.031
 4983TIP3   OH214954   2.072   2.836   3.628
 4983TIP3    H114955   2.166   2.853   3.633
 4983TIP3    H214956   2.033   2.898   3.690
 4984TIP3   OH214957   5.201   4.500   4.454
 4984TIP3    H114958   5.288   4.498   4.496
 4984TIP3    H214959   5.209   4.440   4.380
 4985TIP3   OH214960   2.794   3.589   4.286
 4985TIP3    H114961   2.798   3.515   4.225
 4985TIP3    H214962   2.702   3.594   4.313
 4986TIP3   OH214963   3.201   5.293   1.754
 4986TIP3    H114964   3.285   5.318   1.714
 4986TIP3    H214965   3.135   5.335   1.698
 4987TIP3   OH214966   0.758   2.006   1.487
 4987TIP3    H114967   0.690   2.032   1.425
 4987TIP3    H214968   0.783   2.087   1.531
 4988TIP3   OH214969   6.325   2.841   4.110
 4988TIP3    H114970   6.336   2.935   4.095
 4988TIP3    H214971   6.328   2.803   4.022
 4989TIP3   OH214972   4.900   3.910   1.082
 4989TIP3    H114973   4.848   3.835   1.111
 4989TIP3    H214974   4.925   3.955   1.163
 4990TIP3   OH214975   3.845   3.051   0.542
 4990TIP3    H114976   3.827   2.973   0.595
 4990TIP3    H214977   3.891   3.110   0.601
 4991TIP3   OH214978   1.885   0.265  -0.018
 4991TIP3    H114979   1.927   0.222   0.057
 4991TIP3    H214980   1.879   0.357   0.006
 4992TIP3   OH214981   1.902   4.460   4.961
 4992TIP3    H114982   1.964   4.436   4.892
 4992TIP3    H214983   1.953   4.458   5.041
 4993TIP3   OH214984   4.000   0.943   1.732
 4993TIP3    H114985   3.936   0.909   1.795
 4993TIP3    H214986   3.962   0.926   1.646
 4994TIP3   OH214987   0.416   4.808   0.390
 4994TIP3    H114988   0.426   4.814   0.485
 4994TIP3    H214989   0.460   4.886   0.356
 4995TIP3   OH214990   1.755   2.084   0.401
 4995TIP3    H114991   1.686   2.149   0.390
 4995TIP3    H214992   1.708   2.005   0.428
 4996TIP3   OH214993   5.541   0.177   3.292
 4996TIP3    H114994   5.464   0.178   3.349
 4996TIP3    H214995   5.578   0.265   3.300
 4997TIP3   OH214996   4.049   0.814   0.629
 4997TIP3    H114997   4.136   0.775   0.629
 4997TIP3    H214998   4.000   0.764   0.694
 4998TIP3   OH214999   2.804   1.339   1.541
 4998TIP3    H115000   2.811   1.246   1.517
 4998TIP3    H215001   2.867   1.350   1.612
 4999TIP3   OH215002   5.160   0.588   3.436
 4999TIP3    H115003   5.082   0.623   3.393
 4999TIP3    H215004   5.195   0.525   3.373
 5000TIP3   OH215005   0.078   4.749   4.845
 5000TIP3    H115006  -0.016   4.761   4.833
 5000TIP3    H215007   0.107   4.831   4.885
 5001TIP3   OH215008   2.556   5.714   1.626
 5001TIP3    H115009   2.527   5.685   1.539
 5001TIP3    H215010   2.475   5.734   1.673
 5002TIP3   OH215011   0.856   3.915   1.013
 5002TIP3    H115012   0.820   3.979   0.952
 5002TIP3    H215013   0.923   3.869   0.963
 5003TIP3   OH215014   4.404   1.319   0.468
 5003TIP3    H115015   4.312   1.327   0.494
 5003TIP3    H215016   4.404   1.341   0.374
 5004TIP3   OH215017   4.794   0.093   0.036
 5004TIP3    H115018   4.811   0.010  -0.007
 5004TIP3    H215019   4.796   0.073   0.130
 5005TIP3   OH215020   0.926   3.469   2.831
 5005TIP3    H115021   0.891   3.441   2.747
 5005TIP3    H215022   0.849   3.476   2.888
 5006TIP3   OH215023   0.562   2.333   2.771
 5006TIP3    H115024   0.573   2.334   2.866
 5006TIP3    H215025   0.472   2.362   2.757
 5007TIP3   OH215026   0.565   3.413   0.975
 5007TIP3    H115027   0.597   3.489   0.927
 5007TIP3    H215028   0.630   3.345   0.960
 5008TIP3   OH215029   6.199   1.121   4.742
 5008TIP3    H115030   6.106   1.109   4.760
 5008TIP3    H215031   6.233   1.168   4.819
 5009TIP3   OH215032   3.990   0.927   2.290
 5009TIP3    H115033   4.039   1.008   2.307
 5009TIP3    H215034   4.019   0.899   2.204
 5010TIP3   OH215035   4.822   3.423   1.000
 5010TIP3    H115036   4.904   3.396   1.043
 5010TIP3    H215037   4.850   3.474   0.925
 5011TIP3   OH215038   5.170   2.370   3.482
 5011TIP3    H115039   5.222   2.343   3.406
 5011TIP3    H215040   5.099   2.306   3.485
 5012TIP3   OH215041   1.663   3.873   0.724
 5012TIP3    H115042   1.593   3.932   0.698
 5012TIP3    H215043   1.683   3.898   0.814
 5013TIP3   OH215044   2.799   1.338   3.571
 5013TIP3    H115045   2.713   1.374   3.552
 5013TIP3    H215046   2.854   1.365   3.498
 5014TIP3   OH215047   0.497   3.686   1.585
 5014TIP3    H115048   0.429   3.660   1.523
 5014TIP3    H215049   0.482   3.629   1.661
 5015TIP3   OH215050   5.782   0.557   2.566
 5015TIP3    H115051   5.699   0.603   2.572
 5015TIP3    H215052   5.828   0.599   2.493
 5016TIP3   OH215053   6.297   2.523   4.938
 5016TIP3    H115054   6.220   2.466   4.932
 5016TIP3    H215055   6.294   2.575   4.858
 5017TIP3   OH215056   6.092   5.051   0.759
 5017TIP3    H115057   6.023   5.064   0.694
 5017TIP3    H215058   6.053   5.081   0.841
 5018TIP3   OH215059   5.551   4.570   2.232
 5018TIP3    H115060   5.631   4.533   2.194
 5018TIP3    H215061   5.554   4.543   2.324
 5019TIP3   OH215062   5.617   0.511   0.645
 5019TIP3    H115063   5.536   0.465   0.667
 5019TIP3    H215064   5.597   0.558   0.564
 5020TIP3   OH215065   2.517   1.532   1.248
 5020TIP3    H115066   2.556   1.445   1.240
 5020TIP3    H215067   2.576   1.590   1.199
 5021TIP3   OH215068   0.185   4.437   1.336
 5021TIP3    H115069   0.278   4.448   1.352
 5021TIP3    H215070   0.142   4.474   1.413
 5022TIP3   OH215071   3.671   5.565   0.912
 5022TIP3    H115072   3.764   5.590   0.907
 5022TIP3    H215073   3.649   5.538   0.823
 5023TIP3   OH215074   3.673   4.005   3.792
 5023TIP3    H115075   3.679   3.981   3.885
 5023TIP3    H215076   3.637   4.094   3.793
 5024TIP3   OH215077   3.141   5.347   2.051
 5024TIP3    H115078   3.165   5.284   1.984
 5024TIP3    H215079   3.076   5.404   2.010
 5025TIP3   OH215080   3.345   2.736   1.255
 5025TIP3    H115081   3.380   2.664   1.307
 5025TIP3    H215082   3.417   2.799   1.249
 5026TIP3   OH215083   5.334   4.561   0.815
 5026TIP3    H115084   5.379   4.506   0.880
 5026TIP3    H215085   5.369   4.531   0.731
 5027TIP3   OH215086   3.286   1.813   1.890
 5027TIP3    H115087   3.314   1.900   1.863
 5027TIP3    H215088   3.207   1.796   1.839
 5028TIP3   OH215089   1.301   1.178   4.986
 5028TIP3    H115090   1.244   1.155   5.060
 5028TIP3    H215091   1.387   1.191   5.027
 5029TIP3   OH215092   3.882   1.657   1.099
 5029TIP3    H115093   3.868   1.751   1.088
 5029TIP3    H215094   3.927   1.650   1.184
 5030TIP3   OH215095   2.863   1.911   0.959
 5030TIP3    H115096   2.920   1.987   0.944
 5030TIP3    H215097   2.831   1.888   0.872
 5031TIP3   OH215098   4.305   3.170   1.013
 5031TIP3    H115099   4.283   3.262   1.024
 5031TIP3    H215100   4.320   3.159   0.919
 5032TIP3   OH215101   0.232   1.568   1.856
 5032TIP3    H115102   0.221   1.524   1.940
 5032TIP3    H215103   0.226   1.498   1.791
 5033TIP3   OH215104   5.348   3.994   0.553
 5033TIP3    H115105   5.303   3.941   0.487
 5033TIP3    H215106   5.318   3.960   0.637
 5034TIP3   OH215107   1.012   0.397   2.663
 5034TIP3    H115108   1.080   0.440   2.611
 5034TIP3    H215109   0.941   0.461   2.667
 5035TIP3   OH215110   4.661   1.216   1.372
 5035TIP3    H115111   4.698   1.137   1.410
 5035TIP3    H215112   4.569   1.196   1.359
 5036TIP3   OH215113   5.688   1.954   4.789
 5036TIP3    H115114   5.657   1.904   4.713
 5036TIP3    H215115   5.742   2.024   4.751
 5037TIP3   OH215116   3.492   5.428   2.481
 5037TIP3    H115117   3.448   5.355   2.437
 5037TIP3    H215118   3.479   5.503   2.424
 5038TIP3   OH215119   0.235   0.944   5.058
 5038TIP3    H115120   0.282   0.939   4.975
 5038TIP3    H215121   0.174   1.017   5.047
 5039TIP3   OH215122   1.858   1.138   0.619
 5039TIP3    H115123   1.827   1.228   0.628
 5039TIP3    H215124   1.779   1.086   0.609
 5040TIP3   OH215125   0.682   4.362   1.438
 5040TIP3    H115126   0.681   4.283   1.493
 5040TIP3    H215127   0.774   4.370   1.410
 5041TIP3   OH215128   3.645   0.900   2.853
 5041TIP3    H115129   3.735   0.867   2.854
 5041TIP3    H215130   3.636   0.947   2.936
 5042TIP3   OH215131   0.749   3.418   0.203
 5042TIP3    H115132   0.712   3.329   0.209
 5042TIP3    H215133   0.843   3.405   0.208
 5043TIP3   OH215134   3.422   4.483   4.675
 5043TIP3    H115135   3.426   4.564   4.726
 5043TIP3    H215136   3.342   4.490   4.624
 5044TIP3   OH215137   3.869   2.016   0.563
 5044TIP3    H115138   3.932   1.954   0.527
 5044TIP3    H215139   3.910   2.101   0.554
 5045TIP3   OH215140   3.741   2.876   2.294
 5045TIP3    H115141   3.796   2.949   2.319
 5045TIP3    H215142   3.730   2.825   2.374
 5046TIP3   OH215143   4.392   4.602   4.189
 5046TIP3    H115144   4.467   4.618   4.246
 5046TIP3    H215145   4.412   4.652   4.109
 5047TIP3   OH215146   4.513   0.521   3.425
 5047TIP3    H115147   4.512   0.504   3.331
 5047TIP3    H215148   4.580   0.463   3.460
 5048TIP3   OH215149   4.526   4.640   3.140
 5048TIP3    H115150   4.556   4.643   3.231
 5048TIP3    H215151   4.516   4.547   3.122
 5049TIP3   OH215152   3.816   3.583   2.374
 5049TIP3    H115153   3.733   3.556   2.336
 5049TIP3    H215154   3.883   3.550   2.314
 5050TIP3   OH215155   2.801   4.900   5.169
 5050TIP3    H115156   2.858   4.835   5.211
 5050TIP3    H215157   2.849   4.928   5.092
 5051TIP3   OH215158   4.637   2.505   4.539
 5051TIP3    H115159   4.725   2.494   4.502
 5051TIP3    H215160   4.607   2.415   4.554
 5052TIP3   OH215161   1.497   5.811   3.607
 5052TIP3    H115162   1.429   5.869   3.641
 5052TIP3    H215163   1.537   5.772   3.684
 5053TIP3   OH215164   1.867   5.353   1.705
 5053TIP3    H115165   1.846   5.442   1.734
 5053TIP3    H215166   1.876   5.360   1.610
 5054TIP3   OH215167   0.361   4.570   5.007
 5054TIP3    H115168   0.446   4.538   5.034
 5054TIP3    H215169   0.299   4.525   5.064
 5055TIP3   OH215170   3.572   4.699   2.626
 5055TIP3    H115171   3.555   4.658   2.542
 5055TIP3    H215172   3.485   4.713   2.664
 5056TIP3   OH215173   1.347   4.563   3.002
 5056TIP3    H115174   1.352   4.603   3.089
 5056TIP3    H215175   1.279   4.497   3.010
 5057TIP3   OH215176   2.166   1.638   1.582
 5057TIP3    H115177   2.080   1.652   1.542
 5057TIP3    H215178   2.149   1.637   1.676
 5058TIP3   OH215179   3.662   4.994   2.398
 5058TIP3    H115180   3.600   4.989   2.471
 5058TIP3    H215181   3.606   5.005   2.321
 5059TIP3   OH215182   4.984   3.900   2.628
 5059TIP3    H115183   5.048   3.853   2.682
 5059TIP3    H215184   4.962   3.977   2.679
 5060TIP3   OH215185   6.132   4.665   2.222
 5060TIP3    H115186   6.128   4.573   2.248
 5060TIP3    H215187   6.048   4.701   2.252
 5061TIP3   OH215188   2.256   2.108   0.657
 5061TIP3    H115189   2.221   2.024   0.627
 5061TIP3    H215190   2.338   2.119   0.609
 5062TIP3   OH215191   0.109   1.240   1.373
 5062TIP3    H115192   0.173   1.307   1.399
 5062TIP3    H215193   0.038   1.290   1.332
 5063TIP3   OH215194   3.279   2.946   1.534
 5063TIP3    H115195   3.353   2.943   1.594
 5063TIP3    H215196   3.318   2.962   1.448
 5064TIP3   OH215197   3.874   3.931   1.436
 5064TIP3    H115198   3.916   3.904   1.354
 5064TIP3    H215199   3.905   3.868   1.501
 5065TIP3   OH215200   4.559   1.829   4.294
 5065TIP3    H115201   4.634   1.857   4.241
 5065TIP3    H215202   4.502   1.905   4.296
 5066TIP3   OH215203   4.873   4.854   3.346
 5066TIP3    H115204   4.813   4.781   3.358
 5066TIP3    H215205   4.954   4.814   3.315
 5067TIP3   OH215206   1.888   3.190   2.290
 5067TIP3    H115207   1.955   3.241   2.245
 5067TIP3    H215208   1.859   3.126   2.225
 5068TIP3   OH215209   5.108   0.624   2.012
 5068TIP3    H115210   5.197   0.658   2.016
 5068TIP3    H215211   5.101   0.567   2.088
 5069TIP3   OH215212   5.674   3.173   4.380
 5069TIP3    H115213   5.758   3.138   4.351
 5069TIP3    H215214   5.687   3.192   4.473
 5070TIP3   OH215215   2.621   4.889   1.686
 5070TIP3    H115216   2.581   4.974   1.701
 5070TIP3    H215217   2.711   4.898   1.717
 5071TIP3   OH215218   1.952   5.383   0.454
 5071TIP3    H115219   1.899   5.304   0.464
 5071TIP3    H215220   2.030   5.366   0.507
 5072TIP3   OH215221   2.845   2.708   2.622
 5072TIP3    H115222   2.754   2.692   2.648
 5072TIP3    H215223   2.880   2.765   2.690
 5073TIP3   OH215224   0.848   2.789   4.827
 5073TIP3    H115225   0.805   2.834   4.754
 5073TIP3    H215226   0.808   2.703   4.829
 5074TIP3   OH215227   4.872   5.083   1.531
 5074TIP3    H115228   4.898   5.061   1.621
 5074TIP3    H215229   4.888   5.178   1.525
 5075TIP3   OH215230   1.732   5.046   0.818
 5075TIP3    H115231   1.690   5.013   0.897
 5075TIP3    H215232   1.683   5.007   0.746
 5076TIP3   OH215233   2.829   4.481   0.248
 5076TIP3    H115234   2.776   4.403   0.230
 5076TIP3    H215235   2.870   4.501   0.164
 5077TIP3   OH215236   4.292   3.130   1.706
 5077TIP3    H115237   4.297   3.198   1.639
 5077TIP3    H215238   4.317   3.049   1.660
 5078TIP3   OH215239   0.913   0.231   1.923
 5078TIP3    H115240   0.977   0.226   1.852
 5078TIP3    H215241   0.862   0.311   1.903
 5079TIP3   OH215242   4.871   5.876   2.526
 5079TIP3    H115243   4.845   5.808   2.463
 5079TIP3    H215244   4.952   5.912   2.489
 5080TIP3   OH215245   3.754   4.159   0.276
 5080TIP3    H115246   3.756   4.228   0.211
 5080TIP3    H215247   3.668   4.119   0.267
 5081TIP3   OH215248   5.797   0.496   3.986
 5081TIP3    H115249   5.806   0.474   3.893
 5081TIP3    H215250   5.872   0.454   4.028
 5082TIP3   OH215251   4.580   3.980   0.277
 5082TIP3    H115252   4.623   3.907   0.323
 5082TIP3    H215253   4.557   4.042   0.346
 5083TIP3   OH215254   1.575   1.798   3.090
 5083TIP3    H115255   1.597   1.748   3.011
 5083TIP3    H215256   1.649   1.782   3.149
 5084TIP3   OH215257   1.054   3.354   0.154
 5084TIP3    H115258   1.101   3.419   0.103
 5084TIP3    H215259   1.065   3.272   0.106
 5085TIP3   OH215260   1.813   1.702   1.842
 5085TIP3    H115261   1.907   1.699   1.825
 5085TIP3    H215262   1.793   1.795   1.850
 5086TIP3   OH215263   6.010   5.384   0.054
 5086TIP3    H115264   5.954   5.316   0.093
 5086TIP3    H215265   5.965   5.407  -0.027
 5087TIP3   OH215266   5.294   3.446   2.296
 5087TIP3    H115267   5.389   3.447   2.281
 5087TIP3    H215268   5.257   3.418   2.212
 5088TIP3   OH215269   4.943   2.548   2.552
 5088TIP3    H115270   4.907   2.610   2.615
 5088TIP3    H215271   5.038   2.550   2.567
 5089TIP3   OH215272   6.081   0.466   4.680
 5089TIP3    H115273   6.035   0.388   4.652
 5089TIP3    H215274   6.015   0.519   4.725
 5090TIP3   OH215275   4.601   3.538   2.541
 5090TIP3    H115276   4.639   3.547   2.628
 5090TIP3    H215277   4.675   3.554   2.482
 5091TIP3   OH215278   6.302   1.926   5.151
 5091TIP3    H115279   6.309   2.009   5.105
 5091TIP3    H215280   6.223   1.935   5.204
 5092TIP3   OH215281   3.656   2.464   3.911
 5092TIP3    H115282   3.749   2.467   3.888
 5092TIP3    H215283   3.638   2.372   3.927
 5093TIP3   OH215284   3.244   4.014   2.178
 5093TIP3    H115285   3.255   4.069   2.255
 5093TIP3    H215286   3.323   3.960   2.175
 5094TIP3   OH215287   3.958   3.045   2.048
 5094TIP3    H115288   3.935   3.131   2.013
 5094TIP3    H215289   3.899   2.985   2.002
 5095TIP3   OH215290   2.314   5.128   3.287
 5095TIP3    H115291   2.290   5.129   3.194
 5095TIP3    H215292   2.345   5.217   3.305
 5096TIP3   OH215293   0.260   3.914   5.045
 5096TIP3    H115294   0.196   3.845   5.026
 5096TIP3    H215295   0.265   3.917   5.141
 5097TIP3   OH215296   3.990   4.779   3.142
 5097TIP3    H115297   4.077   4.782   3.102
 5097TIP3    H215298   3.978   4.687   3.165
 5098TIP3   OH215299   0.562   1.026   1.774
 5098TIP3    H115300   0.607   1.007   1.856
 5098TIP3    H215301   0.549   0.941   1.733
 5099TIP3   OH215302   2.158   2.124   5.054
 5099TIP3    H115303   2.250   2.148   5.066
 5099TIP3    H215304   2.118   2.204   5.019
 5100TIP3   OH215305   3.677   3.826   1.023
 5100TIP3    H115306   3.677   3.783   0.937
 5100TIP3    H215307   3.594   3.800   1.063
 5101TIP3   OH215308   4.270   0.593   1.331
 5101TIP3    H115309   4.366   0.587   1.326
 5101TIP3    H215310   4.254   0.628   1.419
 5102TIP3   OH215311   5.901   2.445   5.163
 5102TIP3    H115312   5.966   2.515   5.163
 5102TIP3    H215313   5.828   2.479   5.110
 5103TIP3   OH215314   0.785   3.989   4.068
 5103TIP3    H115315   0.703   4.037   4.057
 5103TIP3    H215316   0.839   4.016   3.994
 5104TIP3   OH215317   1.972   1.533   2.071
 5104TIP3    H115318   1.960   1.507   2.163
 5104TIP3    H215319   1.885   1.521   2.032
 5105TIP3   OH215320   3.269   3.226   0.852
 5105TIP3    H115321   3.239   3.317   0.850
 5105TIP3    H215322   3.299   3.211   0.942
 5106TIP3   OH215323   2.247   5.592   1.632
 5106TIP3    H115324   2.184   5.633   1.691
 5106TIP3    H215325   2.286   5.664   1.584
 5107TIP3   OH215326   1.308   2.798   2.378
 5107TIP3    H115327   1.341   2.709   2.365
 5107TIP3    H215328   1.334   2.820   2.467
 5108TIP3   OH215329   2.486   0.426   1.687
 5108TIP3    H115330   2.525   0.485   1.623
 5108TIP3    H215331   2.529   0.342   1.671
 5109TIP3   OH215332   3.030   1.095   4.170
 5109TIP3    H115333   3.058   1.063   4.256
 5109TIP3    H215334   3.037   1.190   4.176
 5110TIP3   OH215335   3.491   4.066   0.640
 5110TIP3    H115336   3.468   4.137   0.580
 5110TIP3    H215337   3.446   3.989   0.604
 5111TIP3   OH215338   5.044   5.363   4.594
 5111TIP3    H115339   5.084   5.387   4.511
 5111TIP3    H215340   5.024   5.269   4.585
 5112TIP3   OH215341   4.288   0.783   0.269
 5112TIP3    H115342   4.248   0.771   0.183
 5112TIP3    H215343   4.353   0.713   0.275
 5113TIP3   OH215344   6.288   5.062   2.659
 5113TIP3    H115345   6.325   5.145   2.687
 5113TIP3    H215346   6.273   5.013   2.740
 5114TIP3   OH215347   1.416   3.562   0.218
 5114TIP3    H115348   1.349   3.590   0.155
 5114TIP3    H215349   1.480   3.633   0.219
 5115TIP3   OH215350   2.093   5.064   0.315
 5115TIP3    H115351   2.166   5.048   0.374
 5115TIP3    H215352   2.133   5.105   0.238
 5116TIP3   OH215353   3.665   3.857   4.045
 5116TIP3    H115354   3.728   3.830   4.112
 5116TIP3    H215355   3.609   3.921   4.088
 5117TIP3   OH215356   4.828   2.994   1.292
 5117TIP3    H115357   4.787   3.002   1.206
 5117TIP3    H215358   4.909   2.947   1.275
 5118TIP3   OH215359   2.861   1.493   3.826
 5118TIP3    H115360   2.835   1.433   3.756
 5118TIP3    H215361   2.830   1.452   3.906
 5119TIP3   OH215362   3.625   5.647   1.671
 5119TIP3    H115363   3.681   5.673   1.744
 5119TIP3    H215364   3.655   5.702   1.598
 5120TIP3   OH215365   2.360   1.916   1.551
 5120TIP3    H115366   2.334   1.826   1.529
 5120TIP3    H215367   2.439   1.932   1.498
 5121TIP3   OH215368   5.162   0.540   4.668
 5121TIP3    H115369   5.076   0.529   4.627
 5121TIP3    H215370   5.146   0.523   4.761
 5122TIP3   OH215371   0.208   4.462   3.819
 5122TIP3    H115372   0.232   4.389   3.762
 5122TIP3    H215373   0.291   4.491   3.857
 5123TIP3   OH215374   1.252   4.690   3.551
 5123TIP3    H115375   1.271   4.745   3.628
 5123TIP3    H215376   1.160   4.667   3.561
 5124TIP3   OH215377   2.786   2.465   0.903
 5124TIP3    H115378   2.735   2.497   0.828
 5124TIP3    H215379   2.743   2.384   0.928
 5125TIP3   OH215380   1.461   2.812   4.636
 5125TIP3    H115381   1.448   2.906   4.626
 5125TIP3    H215382   1.376   2.778   4.661
 5126TIP3   OH215383   1.549   3.158   2.088
 5126TIP3    H115384   1.545   3.101   2.011
 5126TIP3    H215385   1.568   3.098   2.161
 5127TIP3   OH215386   3.810   1.858   2.601
 5127TIP3    H115387   3.881   1.822   2.547
 5127TIP3    H215388   3.775   1.782   2.647
 5128TIP3   OH215389   0.139   3.445   4.583
 5128TIP3    H115390   0.091   3.501   4.643
 5128TIP3    H215391   0.150   3.498   4.504
 5129TIP3   OH215392   0.154   5.082   1.747
 5129TIP3    H115393   0.124   5.171   1.726
 5129TIP3    H215394   0.232   5.095   1.800
 5130TIP3   OH215395   0.010   1.045   1.612
 5130TIP3    H115396   0.009   1.115   1.547
 5130TIP3    H215397   0.080   0.987   1.584
 5131TIP3   OH215398   1.409   0.923   0.013
 5131TIP3    H115399   1.336   0.863   0.027
 5131TIP3    H215400   1.373   1.009   0.032
 5132TIP3   OH215401   5.757   0.659   1.383
 5132TIP3    H115402   5.828   0.681   1.444
 5132TIP3    H215403   5.793   0.681   1.297
 5133TIP3   OH215404   6.300   4.191   0.251
 5133TIP3    H115405   6.240   4.172   0.323
 5133TIP3    H215406   6.351   4.266   0.282
 5134TIP3   OH215407   6.106   4.757   0.151
 5134TIP3    H115408   6.037   4.704   0.111
 5134TIP3    H215409   6.061   4.807   0.218
 5135TIP3   OH215410   4.034   2.259   1.823
 5135TIP3    H115411   4.128   2.265   1.807
 5135TIP3    H215412   4.015   2.165   1.815
 5136TIP3   OH215413   2.336   2.251   1.521
 5136TIP3    H115414   2.326   2.244   1.616
 5136TIP3    H215415   2.427   2.275   1.507
 5137TIP3   OH215416   0.854   0.554   4.005
 5137TIP3    H115417   0.827   0.596   4.087
 5137TIP3    H215418   0.802   0.473   4.002
 5138TIP3   OH215419   1.220   2.668   1.653
 5138TIP3    H115420   1.205   2.605   1.582
 5138TIP3    H215421   1.261   2.617   1.723
 5139TIP3   OH215422   0.663   2.345   3.041
 5139TIP3    H115423   0.666   2.266   3.095
 5139TIP3    H215424   0.745   2.390   3.058
 5140TIP3   OH215425   4.133   1.366   0.448
 5140TIP3    H115426   4.187   1.392   0.373
 5140TIP3    H215427   4.087   1.288   0.418
 5141TIP3   OH215428   3.497   5.657   0.401
 5141TIP3    H115429   3.577   5.682   0.356
 5141TIP3    H215430   3.453   5.598   0.339
 5142TIP3   OH215431   3.788   2.761   4.669
 5142TIP3    H115432   3.830   2.780   4.585
 5142TIP3    H215433   3.835   2.685   4.703
 5143TIP3   OH215434   4.614   5.441   2.438
 5143TIP3    H115435   4.651   5.444   2.526
 5143TIP3    H215436   4.644   5.523   2.398
 5144TIP3   OH215437   2.952   5.508   0.570
 5144TIP3    H115438   2.917   5.432   0.523
 5144TIP3    H215439   3.003   5.555   0.504
 5145TIP3   OH215440   3.653   3.573   3.994
 5145TIP3    H115441   3.654   3.659   4.036
 5145TIP3    H215442   3.622   3.590   3.905
 5146TIP3   OH215443   5.626   5.343   3.924
 5146TIP3    H115444   5.696   5.317   3.865
 5146TIP3    H215445   5.589   5.423   3.885
 5147TIP3   OH215446   2.836   5.404   2.915
 5147TIP3    H115447   2.882   5.344   2.857
 5147TIP3    H215448   2.887   5.485   2.912
 5148TIP3   OH215449   4.148   3.690   4.753
 5148TIP3    H115450   4.057   3.706   4.728
 5148TIP3    H215451   4.166   3.601   4.724
 5149TIP3   OH215452   5.934   3.038   0.672
 5149TIP3    H115453   6.022   3.075   0.668
 5149TIP3    H215454   5.877   3.112   0.692
 5150TIP3   OH215455   4.685   5.074   0.869
 5150TIP3    H115456   4.715   5.159   0.901
 5150TIP3    H215457   4.649   5.092   0.782
 5151TIP3   OH215458   2.004   3.003   0.491
 5151TIP3    H115459   1.945   2.965   0.426
 5151TIP3    H215460   1.947   3.044   0.555
 5152TIP3   OH215461   0.474   3.120   4.155
 5152TIP3    H115462   0.390   3.155   4.186
 5152TIP3    H215463   0.539   3.181   4.189
 5153TIP3   OH215464   4.316   1.992   3.802
 5153TIP3    H115465   4.246   2.032   3.853
 5153TIP3    H215466   4.391   2.051   3.812
 5154TIP3   OH215467   1.868   0.435   0.406
 5154TIP3    H115468   1.879   0.522   0.369
 5154TIP3    H215469   1.773   0.421   0.408
 5155TIP3   OH215470   3.485   4.790   3.391
 5155TIP3    H115471   3.546   4.851   3.433
 5155TIP3    H215472   3.399   4.818   3.420
 5156TIP3   OH215473   0.510   5.668   2.394
 5156TIP3    H115474   0.584   5.725   2.413
 5156TIP3    H215475   0.433   5.725   2.399
 5157TIP3   OH215476   0.022   2.718   3.677
 5157TIP3    H115477  -0.002   2.680   3.761
 5157TIP3    H215478  -0.007   2.653   3.612
 5158TIP3   OH215479   6.002   2.448   1.191
 5158TIP3    H115480   6.077   2.421   1.244
 5158TIP3    H215481   5.930   2.457   1.253
 5159TIP3   OH215482   6.113   4.773   3.901
 5159TIP3    H115483   6.148   4.693   3.862
 5159TIP3    H215484   6.019   4.760   3.902
 5160TIP3   OH215485   2.179   2.049   1.732
 5160TIP3    H115486   2.249   2.023   1.671
 5160TIP3    H215487   2.202   2.139   1.757
 5161TIP3   OH215488   6.291   2.978   1.787
 5161TIP3    H115489   6.381   2.948   1.776
 5161TIP3    H215490   6.269   3.019   1.704
 5162TIP3   OH215491   6.283   1.339   3.265
 5162TIP3    H115492   6.326   1.254   3.260
 5162TIP3    H215493   6.352   1.399   3.292
 5163TIP3   OH215494   2.387   3.416   0.610
 5163TIP3    H115495   2.333   3.376   0.542
 5163TIP3    H215496   2.381   3.356   0.684
 5164TIP3   OH215497   5.136   2.511   3.950
 5164TIP3    H115498   5.089   2.434   3.982
 5164TIP3    H215499   5.197   2.533   4.021
 5165TIP3   OH215500   2.437   2.527   2.375
 5165TIP3    H115501   2.428   2.622   2.376
 5165TIP3    H215502   2.526   2.510   2.404
 5166TIP3   OH215503   3.311   1.097   1.025
 5166TIP3    H115504   3.355   1.045   1.093
 5166TIP3    H215505   3.222   1.062   1.022
 5167TIP3   OH215506   1.457   2.822   0.299
 5167TIP3    H115507   1.410   2.887   0.352
 5167TIP3    H215508   1.480   2.753   0.360
 5168TIP3   OH215509   1.991   3.723   4.456
 5168TIP3    H115510   1.946   3.639   4.469
 5168TIP3    H215511   1.930   3.788   4.491
 5169TIP3   OH215512   4.514   1.625   0.139
 5169TIP3    H115513   4.566   1.603   0.216
 5169TIP3    H215514   4.522   1.721   0.132
 5170TIP3   OH215515   0.543   0.902   1.174
 5170TIP3    H115516   0.588   0.818   1.163
 5170TIP3    H215517   0.611   0.967   1.157
 5171TIP3   OH215518   5.284   1.567   3.086
 5171TIP3    H115519   5.375   1.592   3.070
 5171TIP3    H215520   5.236   1.650   3.092
 5172TIP3   OH215521   3.813   3.503   3.714
 5172TIP3    H115522   3.802   3.497   3.619
 5172TIP3    H215523   3.757   3.433   3.749
 5173TIP3   OH215524   2.104   4.163   5.064
 5173TIP3    H115525   2.182   4.113   5.041
 5173TIP3    H215526   2.093   4.225   4.992
 5174TIP3   OH215527   0.434   1.911   0.902
 5174TIP3    H115528   0.342   1.882   0.902
 5174TIP3    H215529   0.484   1.830   0.909
 5175TIP3   OH215530   2.467   2.358   2.646
 5175TIP3    H115531   2.497   2.366   2.737
 5175TIP3    H215532   2.466   2.448   2.614
 5176TIP3   OH215533   3.306   5.415   4.567
 5176TIP3    H115534   3.387   5.375   4.536
 5176TIP3    H215535   3.263   5.346   4.619
 5177TIP3   OH215536   0.297   5.928   1.475
 5177TIP3    H115537   0.207   5.896   1.481
 5177TIP3    H215538   0.297   6.011   1.523
 5178TIP3   OH215539   3.110   1.723   3.186
 5178TIP3    H115540   3.048   1.750   3.253
 5178TIP3    H215541   3.101   1.789   3.117
 5179TIP3   OH215542   2.376   1.332   0.149
 5179TIP3    H115543   2.446   1.396   0.161
 5179TIP3    H215544   2.406   1.254   0.196
 5180TIP3   OH215545   4.029   2.802   1.622
 5180TIP3    H115546   3.941   2.772   1.643
 5180TIP3    H215547   4.075   2.723   1.594
 5181TIP3   OH215548   0.830   3.529   0.495
 5181TIP3    H115549   0.822   3.530   0.399
 5181TIP3    H215550   0.795   3.445   0.521
 5182TIP3   OH215551   1.327   3.068   1.594
 5182TIP3    H115552   1.301   3.126   1.665
 5182TIP3    H215553   1.416   3.040   1.616
 5183TIP3   OH215554   3.299   3.038   2.772
 5183TIP3    H115555   3.383   2.996   2.754
 5183TIP3    H215556   3.250   3.029   2.690
 5184TIP3   OH215557   6.228   1.538   2.350
 5184TIP3    H115558   6.185   1.615   2.387
 5184TIP3    H215559   6.316   1.568   2.330
 5185TIP3   OH215560   4.853   5.707   2.014
 5185TIP3    H115561   4.835   5.794   1.978
 5185TIP3    H215562   4.932   5.719   2.067
 5186TIP3   OH215563   6.260   2.908   4.398
 5186TIP3    H115564   6.172   2.945   4.396
 5186TIP3    H215565   6.254   2.828   4.347
 5187TIP3   OH215566   0.181   0.709   1.860
 5187TIP3    H115567   0.135   0.792   1.844
 5187TIP3    H215568   0.272   0.734   1.874
 5188TIP3   OH215569   4.061   2.061   0.262
 5188TIP3    H115570   4.105   2.001   0.322
 5188TIP3    H215571   4.055   2.143   0.311
 5189TIP3   OH215572   0.508   1.636   2.986
 5189TIP3    H115573   0.453   1.625   3.063
 5189TIP3    H215574   0.454   1.688   2.926
 5190TIP3   OH215575   4.361   3.767   4.601
 5190TIP3    H115576   4.278   3.749   4.646
 5190TIP3    H215577   4.341   3.836   4.539
 5191TIP3   OH215578   3.777   3.916   5.052
 5191TIP3    H115579   3.722   3.985   5.013
 5191TIP3    H215580   3.717   3.869   5.110
 5192TIP3   OH215581   6.028   5.861   4.479
 5192TIP3    H115582   6.070   5.841   4.395
 5192TIP3    H215583   6.093   5.835   4.544
 5193TIP3   OH215584   3.212   4.962   1.275
 5193TIP3    H115585   3.255   4.931   1.355
 5193TIP3    H215586   3.121   4.934   1.285
 5194TIP3   OH215587   5.186   3.564   3.634
 5194TIP3    H115588   5.210   3.650   3.668
 5194TIP3    H215589   5.090   3.562   3.642
 5195TIP3   OH215590   5.364   1.702   1.221
 5195TIP3    H115591   5.385   1.722   1.312
 5195TIP3    H215592   5.277   1.663   1.225
 5196TIP3   OH215593   0.565   4.634   2.811
 5196TIP3    H115594   0.519   4.591   2.883
 5196TIP3    H215595   0.549   4.578   2.735
 5197TIP3   OH215596   4.269   5.134   3.423
 5197TIP3    H115597   4.296   5.070   3.358
 5197TIP3    H215598   4.182   5.104   3.451
 5198TIP3   OH215599   5.916   2.910   3.979
 5198TIP3    H115600   5.988   2.970   3.997
 5198TIP3    H215601   5.929   2.882   3.889
 5199TIP3   OH215602   2.407   1.929   3.757
 5199TIP3    H115603   2.397   1.991   3.685
 5199TIP3    H215604   2.351   1.963   3.827
 5200TIP3   OH215605   2.479   1.303   2.854
 5200TIP3    H115606   2.553   1.243   2.842
 5200TIP3    H215607   2.417   1.253   2.907
 5201TIP3   OH215608   6.220   0.009   4.269
 5201TIP3    H115609   6.220   0.103   4.248
 5201TIP3    H215610   6.268   0.003   4.352
 5202TIP3   OH215611   6.280   2.262   4.607
 5202TIP3    H115612   6.230   2.342   4.589
 5202TIP3    H215613   6.282   2.216   4.523
 5203TIP3   OH215614   3.073   5.467   4.777
 5203TIP3    H115615   3.088   5.552   4.737
 5203TIP3    H215616   3.139   5.460   4.846
 5204TIP3   OH215617   1.552   4.113   0.303
 5204TIP3    H115618   1.515   4.026   0.285
 5204TIP3    H215619   1.536   4.163   0.223
 5205TIP3   OH215620   3.550   2.076   0.154
 5205TIP3    H115621   3.541   2.113   0.242
 5205TIP3    H215622   3.628   2.119   0.119
 5206TIP3   OH215623   3.145   1.473   2.802
 5206TIP3    H115624   3.134   1.527   2.724
 5206TIP3    H215625   3.211   1.519   2.854
 5207TIP3   OH215626   5.814   5.429   4.832
 5207TIP3    H115627   5.780   5.518   4.840
 5207TIP3    H215628   5.749   5.383   4.779
 5208TIP3   OH215629   3.029   1.734   1.823
 5208TIP3    H115630   2.964   1.798   1.794
 5208TIP3    H215631   2.985   1.685   1.893
 5209TIP3   OH215632   5.173   1.340   1.028
 5209TIP3    H115633   5.165   1.435   1.034
 5209TIP3    H215634   5.264   1.322   1.051
 5210TIP3   OH215635   4.866   3.685   3.954
 5210TIP3    H115636   4.789   3.679   3.898
 5210TIP3    H215637   4.912   3.764   3.922
 5211TIP3   OH215638   2.888   4.154   0.439
 5211TIP3    H115639   2.964   4.122   0.391
 5211TIP3    H215640   2.924   4.197   0.517
 5212TIP3   OH215641   3.076   2.409   4.302
 5212TIP3    H115642   3.044   2.474   4.239
 5212TIP3    H215643   3.087   2.329   4.251
 5213TIP3   OH215644   2.720   3.415   4.591
 5213TIP3    H115645   2.693   3.327   4.566
 5213TIP3    H215646   2.715   3.466   4.510
 5214TIP3   OH215647   5.383   1.031   1.115
 5214TIP3    H115648   5.407   1.065   1.201
 5214TIP3    H215649   5.289   1.044   1.109
 5215TIP3   OH215650   4.091   0.397   1.254
 5215TIP3    H115651   4.045   0.448   1.187
 5215TIP3    H215652   4.143   0.462   1.302
 5216TIP3   OH215653   1.888   0.496   5.009
 5216TIP3    H115654   1.803   0.492   4.965
 5216TIP3    H215655   1.952   0.485   4.938
 5217TIP3   OH215656   0.620   2.280   3.910
 5217TIP3    H115657   0.557   2.225   3.864
 5217TIP3    H215658   0.604   2.264   4.003
 5218TIP3   OH215659   5.866   3.579   2.252
 5218TIP3    H115660   5.885   3.512   2.186
 5218TIP3    H215661   5.829   3.530   2.326
 5219TIP3   OH215662   0.455   4.828   5.050
 5219TIP3    H115663   0.420   4.741   5.033
 5219TIP3    H215664   0.431   4.879   4.972
 5220TIP3   OH215665   0.252   1.829   1.560
 5220TIP3    H115666   0.184   1.812   1.494
 5220TIP3    H215667   0.208   1.816   1.644
 5221TIP3   OH215668   3.489   5.054   2.636
 5221TIP3    H115669   3.419   5.047   2.700
 5221TIP3    H215670   3.569   5.059   2.687
 5222TIP3   OH215671   0.307   5.883   2.880
 5222TIP3    H115672   0.217   5.895   2.911
 5222TIP3    H215673   0.350   5.966   2.901
 5223TIP3   OH215674   5.813   2.250   4.090
 5223TIP3    H115675   5.811   2.329   4.145
 5223TIP3    H215676   5.771   2.183   4.143
 5224TIP3   OH215677   5.831   4.679   3.508
 5224TIP3    H115678   5.826   4.590   3.543
 5224TIP3    H215679   5.878   4.670   3.425
 5225TIP3   OH215680   1.425   5.875   3.962
 5225TIP3    H115681   1.381   5.906   3.883
 5225TIP3    H215682   1.435   5.781   3.948
 5226TIP3   OH215683   4.027   3.641   3.258
 5226TIP3    H115684   3.943   3.630   3.212
 5226TIP3    H215685   4.017   3.723   3.306
 5227TIP3   OH215686   6.221   0.805   3.296
 5227TIP3    H115687   6.137   0.846   3.272
 5227TIP3    H215688   6.223   0.808   3.391
 5228TIP3   OH215689   4.405   1.961   5.053
 5228TIP3    H115690   4.432   1.873   5.024
 5228TIP3    H215691   4.343   1.944   5.124
 5229TIP3   OH215692   3.674   3.437   1.623
 5229TIP3    H115693   3.692   3.523   1.584
 5229TIP3    H215694   3.718   3.375   1.564
 5230TIP3   OH215695   1.075   4.646   5.040
 5230TIP3    H115696   1.098   4.708   4.971
 5230TIP3    H215697   1.111   4.563   5.009
 5231TIP3   OH215698   2.173   0.352   2.175
 5231TIP3    H115699   2.175   0.444   2.199
 5231TIP3    H215700   2.090   0.340   2.130
 5232TIP3   OH215701   3.342   3.660   1.539
 5232TIP3    H115702   3.254   3.679   1.573
 5232TIP3    H215703   3.358   3.569   1.561
 5233TIP3   OH215704   0.022   4.159   2.726
 5233TIP3    H115705   0.067   4.224   2.781
 5233TIP3    H215706   0.088   4.091   2.710
 5234TIP3   OH215707   2.941   3.545   3.100
 5234TIP3    H115708   2.879   3.616   3.084
 5234TIP3    H215709   2.976   3.523   3.014
 5235TIP3   OH215710   5.666   1.323   1.587
 5235TIP3    H115711   5.574   1.318   1.613
 5235TIP3    H215712   5.693   1.232   1.577
 5236TIP3   OH215713   5.429   3.518   1.624
 5236TIP3    H115714   5.463   3.524   1.713
 5236TIP3    H215715   5.343   3.561   1.628
 5237TIP3   OH215716   4.994   3.770   0.577
 5237TIP3    H115717   5.037   3.688   0.556
 5237TIP3    H215718   5.028   3.833   0.513
 5238TIP3   OH215719   2.300   0.169   0.986
 5238TIP3    H115720   2.331   0.127   1.066
 5238TIP3    H215721   2.380   0.185   0.935
 5239TIP3   OH215722   1.079   3.597   0.588
 5239TIP3    H115723   1.096   3.528   0.652
 5239TIP3    H215724   1.004   3.566   0.537
 5240TIP3   OH215725   2.627   1.145   0.877
 5240TIP3    H115726   2.633   1.240   0.865
 5240TIP3    H215727   2.575   1.133   0.957
 5241TIP3   OH215728   0.782   0.007   1.995
 5241TIP3    H115729   0.729  -0.011   1.918
 5241TIP3    H215730   0.817   0.095   1.980
 5242TIP3   OH215731   6.220   4.624   2.569
 5242TIP3    H115732   6.254   4.535   2.577
 5242TIP3    H215733   6.236   4.664   2.655
 5243TIP3   OH215734   0.159   3.749   1.497
 5243TIP3    H115735   0.139   3.840   1.474
 5243TIP3    H215736   0.233   3.726   1.442
 5244TIP3   OH215737   4.310   0.161   3.830
 5244TIP3    H115738   4.244   0.091   3.838
 5244TIP3    H215739   4.264   0.232   3.786
 5245TIP3   OH215740   0.159   3.491   0.604
 5245TIP3    H115741   0.163   3.398   0.581
 5245TIP3    H215742   0.167   3.536   0.520
 5246TIP3   OH215743   1.330   1.093   0.648
 5246TIP3    H115744   1.240   1.119   0.629
 5246TIP3    H215745   1.337   1.004   0.613
 5247TIP3   OH215746   1.583   1.183   2.152
 5247TIP3    H115747   1.578   1.233   2.233
 5247TIP3    H215748   1.493   1.175   2.123
 5248TIP3   OH215749   6.114   2.049   3.827
 5248TIP3    H115750   6.073   1.988   3.766
 5248TIP3    H215751   6.207   2.045   3.807
 5249TIP3   OH215752   3.240   3.662   0.370
 5249TIP3    H115753   3.234   3.698   0.282
 5249TIP3    H215754   3.278   3.575   0.358
 5250TIP3   OH215755   6.164   3.943   2.537
 5250TIP3    H115756   6.087   3.995   2.559
 5250TIP3    H215757   6.221   3.951   2.614
 5251TIP3   OH215758   1.122   1.112   4.779
 5251TIP3    H115759   1.068   1.187   4.803
 5251TIP3    H215760   1.204   1.126   4.827
 5252TIP3   OH215761   5.316   3.642   4.480
 5252TIP3    H115762   5.349   3.552   4.477
 5252TIP3    H215763   5.343   3.681   4.398
 5253TIP3   OH215764   2.965   4.699   4.499
 5253TIP3    H115765   2.921   4.780   4.523
 5253TIP3    H215766   2.897   4.632   4.508
 5254TIP3   OH215767   3.434   3.272   4.655
 5254TIP3    H115768   3.425   3.196   4.598
 5254TIP3    H215769   3.521   3.306   4.637
 5255TIP3   OH215770   1.552   5.662   0.360
 5255TIP3    H115771   1.533   5.584   0.308
 5255TIP3    H215772   1.517   5.642   0.446
 5256TIP3   OH215773   0.756   0.252   4.958
 5256TIP3    H115774   0.708   0.232   5.039
 5256TIP3    H215775   0.700   0.216   4.889
 5257TIP3   OH215776   5.596   4.626   4.736
 5257TIP3    H115777   5.558   4.643   4.822
 5257TIP3    H215778   5.668   4.566   4.754
 5258TIP3   OH215779   1.201   4.730   1.702
 5258TIP3    H115780   1.215   4.685   1.786
 5258TIP3    H215781   1.106   4.727   1.689
 5259TIP3   OH215782   4.841   1.869   4.834
 5259TIP3    H115783   4.758   1.822   4.842
 5259TIP3    H215784   4.856   1.907   4.921
 5260TIP3   OH215785   1.706   4.258   1.705
 5260TIP3    H115786   1.622   4.215   1.721
 5260TIP3    H215787   1.700   4.291   1.616
 5261TIP3   OH215788   2.470   4.503   0.067
 5261TIP3    H115789   2.539   4.569   0.072
 5261TIP3    H215790   2.497   4.446  -0.005
 5262TIP3   OH215791   0.976   3.794   1.592
 5262TIP3    H115792   1.057   3.812   1.640
 5262TIP3    H215793   0.986   3.842   1.510
 5263TIP3   OH215794   3.287   0.148   3.040
 5263TIP3    H115795   3.229   0.219   3.009
 5263TIP3    H215796   3.299   0.092   2.963
 5264TIP3   OH215797   2.928   0.176   1.250
 5264TIP3    H115798   2.991   0.114   1.216
 5264TIP3    H215799   2.935   0.168   1.345
 5265TIP3   OH215800   0.357   1.667   3.216
 5265TIP3    H115801   0.385   1.738   3.275
 5265TIP3    H215802   0.263   1.661   3.230
 5266TIP3   OH215803   5.919   4.035   2.264
 5266TIP3    H115804   5.894   3.957   2.214
 5266TIP3    H215805   5.948   4.000   2.348
 5267TIP3   OH215806   1.215   2.590   3.821
 5267TIP3    H115807   1.140   2.577   3.880
 5267TIP3    H215808   1.274   2.647   3.869
 5268TIP3   OH215809   0.975   0.711   3.675
 5268TIP3    H115810   0.895   0.671   3.641
 5268TIP3    H215811   0.973   0.800   3.642
 5269TIP3   OH215812   4.423   4.978   2.096
 5269TIP3    H115813   4.516   4.994   2.084
 5269TIP3    H215814   4.393   4.950   2.010
 5270TIP3   OH215815   0.463   0.960   1.439
 5270TIP3    H115816   0.545   0.932   1.479
 5270TIP3    H215817   0.479   0.954   1.345
 5271TIP3   OH215818   5.656   2.156   0.321
 5271TIP3    H115819   5.676   2.063   0.330
 5271TIP3    H215820   5.656   2.171   0.227
 5272TIP3   OH215821   4.218   3.942   0.505
 5272TIP3    H115822   4.257   3.997   0.438
 5272TIP3    H215823   4.127   3.971   0.510
 5273TIP3   OH215824   5.064   0.293   1.843
 5273TIP3    H115825   5.069   0.379   1.802
 5273TIP3    H215826   5.150   0.280   1.882
 5274TIP3   OH215827   1.893   1.166   4.303
 5274TIP3    H115828   1.948   1.244   4.291
 5274TIP3    H215829   1.805   1.196   4.283
 5275TIP3   OH215830   4.190   0.080   0.957
 5275TIP3    H115831   4.164   0.144   0.891
 5275TIP3    H215832   4.261   0.122   1.005
 5276TIP3   OH215833   2.891   3.493   0.377
 5276TIP3    H115834   2.804   3.503   0.338
 5276TIP3    H215835   2.942   3.565   0.340
 5277TIP3   OH215836   4.950   4.056   4.172
 5277TIP3    H115837   4.888   4.125   4.150
 5277TIP3    H215838   4.984   4.026   4.087
 5278TIP3   OH215839   2.436   4.281   3.956
 5278TIP3    H115840   2.472   4.199   3.923
 5278TIP3    H215841   2.420   4.264   4.049
 5279TIP3   OH215842   3.337   5.724   1.279
 5279TIP3    H115843   3.391   5.732   1.358
 5279TIP3    H215844   3.390   5.763   1.210
 5280TIP3   OH215845   2.063   4.824   0.655
 5280TIP3    H115846   2.001   4.785   0.716
 5280TIP3    H215847   2.051   4.776   0.573
 5281TIP3   OH215848   4.766   5.320   2.223
 5281TIP3    H115849   4.843   5.377   2.230
 5281TIP3    H215850   4.718   5.335   2.304
 5282TIP3   OH215851   0.793   2.253   3.618
 5282TIP3    H115852   0.872   2.299   3.589
 5282TIP3    H215853   0.822   2.197   3.689
 5283TIP3   OH215854   5.067   4.602   0.807
 5283TIP3    H115855   5.033   4.589   0.719
 5283TIP3    H215856   5.159   4.577   0.801
 5284TIP3   OH215857   2.665   0.267   2.643
 5284TIP3    H115858   2.684   0.358   2.668
 5284TIP3    H215859   2.635   0.226   2.724
 5285TIP3   OH215860   6.277   5.624   1.917
 5285TIP3    H115861   6.349   5.593   1.863
 5285TIP3    H215862   6.240   5.698   1.868
 5286TIP3   OH215863   2.118   1.892   4.875
 5286TIP3    H115864   2.116   1.952   4.950
 5286TIP3    H215865   2.159   1.943   4.805
 5287TIP3   OH215866   0.661   2.076   0.908
 5287TIP3    H115867   0.707   2.058   0.826
 5287TIP3    H215868   0.584   2.019   0.906
 5288TIP3   OH215869   1.991   1.618   0.632
 5288TIP3    H115870   2.061   1.558   0.607
 5288TIP3    H215871   1.951   1.578   0.709
 5289TIP3   OH215872   4.957   5.285  -0.010
 5289TIP3    H115873   4.927   5.325   0.071
 5289TIP3    H215874   5.048   5.316  -0.020
 5290TIP3   OH215875   0.628   3.183   3.567
 5290TIP3    H115876   0.568   3.129   3.618
 5290TIP3    H215877   0.633   3.140   3.482
 5291TIP3   OH215878   5.259   1.570   1.521
 5291TIP3    H115879   5.182   1.615   1.554
 5291TIP3    H215880   5.332   1.628   1.542
 5292TIP3   OH215881   2.224   2.977   5.115
 5292TIP3    H115882   2.187   3.048   5.168
 5292TIP3    H215883   2.212   3.006   5.024
 5293TIP3   OH215884   2.344   2.476   0.700
 5293TIP3    H115885   2.279   2.545   0.685
 5293TIP3    H215886   2.380   2.458   0.614
 5294TIP3   OH215887   3.299   4.964   0.373
 5294TIP3    H115888   3.306   4.869   0.384
 5294TIP3    H215889   3.328   4.980   0.283
 5295TIP3   OH215890   2.990   3.108   4.890
 5295TIP3    H115891   3.074   3.152   4.900
 5295TIP3    H215892   2.932   3.175   4.853
 5296TIP3   OH215893   5.953   3.419   0.342
 5296TIP3    H115894   5.884   3.370   0.387
 5296TIP3    H215895   5.909   3.461   0.269
 5297TIP3   OH215896   2.309   2.242   1.076
 5297TIP3    H115897   2.304   2.197   1.161
 5297TIP3    H215898   2.218   2.251   1.049
 5298TIP3   OH215899   2.018   3.998   4.654
 5298TIP3    H115900   2.066   4.040   4.583
 5298TIP3    H215901   2.085   3.946   4.700
 5299TIP3   OH215902   3.708   3.906   3.049
 5299TIP3    H115903   3.684   3.850   3.122
 5299TIP3    H215904   3.651   3.877   2.977
 5300TIP3   OH215905   4.507   0.968   0.138
 5300TIP3    H115906   4.530   1.059   0.120
 5300TIP3    H215907   4.519   0.959   0.233
 5301TIP3   OH215908   1.404   2.526   0.026
 5301TIP3    H115909   1.355   2.561  -0.049
 5301TIP3    H215910   1.365   2.568   0.102
 5302TIP3   OH215911   2.276   3.696   4.533
 5302TIP3    H115912   2.288   3.631   4.603
 5302TIP3    H215913   2.182   3.693   4.514
 5303TIP3   OH215914   5.841   0.850   3.716
 5303TIP3    H115915   5.810   0.936   3.744
 5303TIP3    H215916   5.842   0.855   3.620
 5304TIP3   OH215917   0.915   4.062   2.416
 5304TIP3    H115918   0.911   3.975   2.456
 5304TIP3    H215919   0.953   4.046   2.329
 5305TIP3   OH215920   5.366   4.713   0.576
 5305TIP3    H115921   5.429   4.776   0.540
 5305TIP3    H215922   5.356   4.739   0.668
 5306TIP3   OH215923   2.611   3.308   0.973
 5306TIP3    H115924   2.573   3.362   1.042
 5306TIP3    H215925   2.537   3.259   0.937
 5307TIP3   OH215926   3.893   5.679   3.695
 5307TIP3    H115927   3.959   5.732   3.651
 5307TIP3    H215928   3.852   5.628   3.625
 5308TIP3   OH215929   0.259   1.478   3.553
 5308TIP3    H115930   0.333   1.458   3.611
 5308TIP3    H215931   0.205   1.539   3.603
 5309TIP3   OH215932   5.740   3.207   0.784
 5309TIP3    H115933   5.738   3.300   0.808
 5309TIP3    H215934   5.752   3.161   0.867
 5310TIP3   OH215935   0.693   4.002   3.503
 5310TIP3    H115936   0.695   3.909   3.478
 5310TIP3    H215937   0.617   4.009   3.560
 5311TIP3   OH215938   0.788   4.305   4.952
 5311TIP3    H115939   0.781   4.396   4.980
 5311TIP3    H215940   0.835   4.309   4.869
 5312TIP3   OH215941   4.822   3.532   1.716
 5312TIP3    H115942   4.794   3.583   1.792
 5312TIP3    H215943   4.748   3.538   1.655
 5313TIP3   OH215944   3.772   2.417   1.789
 5313TIP3    H115945   3.765   2.455   1.701
 5313TIP3    H215946   3.866   2.421   1.809
 5314TIP3   OH215947   3.461   5.015   0.602
 5314TIP3    H115948   3.447   4.921   0.616
 5314TIP3    H215949   3.404   5.036   0.528
 5315TIP3   OH215950   2.278   5.413   2.579
 5315TIP3    H115951   2.232   5.368   2.508
 5315TIP3    H215952   2.357   5.360   2.593
 5316TIP3   OH215953   1.600   2.469   2.326
 5316TIP3    H115954   1.522   2.520   2.347
 5316TIP3    H215955   1.567   2.384   2.298
 5317TIP3   OH215956   4.793   4.238   1.134
 5317TIP3    H115957   4.818   4.276   1.219
 5317TIP3    H215958   4.848   4.284   1.071
 5318TIP3   OH215959   1.431   1.395   3.859
 5318TIP3    H115960   1.524   1.398   3.837
 5318TIP3    H215961   1.406   1.486   3.872
 5319TIP3   OH215962   4.497   5.289   1.686
 5319TIP3    H115963   4.482   5.255   1.598
 5319TIP3    H215964   4.410   5.298   1.724
 5320TIP3   OH215965   1.202   0.276   2.831
 5320TIP3    H115966   1.136   0.303   2.767
 5320TIP3    H215967   1.256   0.354   2.844
 5321TIP3   OH215968   1.891   0.729   1.686
 5321TIP3    H115969   1.891   0.651   1.742
 5321TIP3    H215970   1.799   0.745   1.667
 5322TIP3   OH215971   1.761   2.531   4.919
 5322TIP3    H115972   1.728   2.533   4.829
 5322TIP3    H215973   1.685   2.549   4.973
 5323TIP3   OH215974   6.067   3.603   0.838
 5323TIP3    H115975   6.158   3.601   0.807
 5323TIP3    H215976   6.031   3.682   0.798
 5324TIP3   OH215977   1.117   4.025   4.209
 5324TIP3    H115978   1.059   4.042   4.283
 5324TIP3    H215979   1.062   3.978   4.146
 5325TIP3   OH215980   4.502   2.286   2.016
 5325TIP3    H115981   4.454   2.238   2.083
 5325TIP3    H215982   4.439   2.298   1.945
 5326TIP3   OH215983   2.096   2.827   0.702
 5326TIP3    H115984   2.044   2.890   0.652
 5326TIP3    H215985   2.093   2.860   0.792
 5327TIP3   OH215986   1.791   0.514   0.013
 5327TIP3    H115987   1.857   0.577  -0.017
 5327TIP3    H215988   1.739   0.562   0.077
 5328TIP3   OH215989   2.474   1.219   3.283
 5328TIP3    H115990   2.430   1.302   3.264
 5328TIP3    H215991   2.421   1.153   3.238
 5329TIP3   OH215992   2.623   1.946   1.454
 5329TIP3    H115993   2.639   1.967   1.362
 5329TIP3    H215994   2.701   1.898   1.482
 5330TIP3   OH215995   4.193   2.911   2.837
 5330TIP3    H115996   4.259   2.967   2.797
 5330TIP3    H215997   4.110   2.957   2.822
 5331TIP3   OH215998   3.237   2.463   2.693
 5331TIP3    H115999   3.267   2.545   2.653
 5331TIP3    H216000   3.316   2.425   2.732
 5332TIP3   OH216001   1.203   1.224   2.314
 5332TIP3    H116002   1.235   1.222   2.224
 5332TIP3    H216003   1.142   1.298   2.316
 5333TIP3   OH216004   1.541   5.340   4.405
 5333TIP3    H116005   1.524   5.434   4.402
 5333TIP3    H216006   1.629   5.332   4.442
 5334TIP3   OH216007   5.971   1.799   5.167
 5334TIP3    H116008   6.000   1.858   5.237
 5334TIP3    H216009   5.877   1.811   5.164
 5335TIP3   OH216010   2.086   1.785   2.321
 5335TIP3    H116011   2.137   1.762   2.400
 5335TIP3    H216012   1.996   1.761   2.343
 5336TIP3   OH216013   3.174   5.899   3.384
 5336TIP3    H116014   3.127   5.981   3.399
 5336TIP3    H216015   3.115   5.846   3.332
 5337TIP3   OH216016   5.101   3.098   0.074
 5337TIP3    H116017   5.174   3.161   0.076
 5337TIP3    H216018   5.087   3.081  -0.019
 5338TIP3   OH216019   5.114   2.120   3.131
 5338TIP3    H116020   5.175   2.166   3.190
 5338TIP3    H216021   5.032   2.169   3.140
 5339TIP3   OH216022   4.916   3.950   2.351
 5339TIP3    H116023   4.912   3.870   2.299
 5339TIP3    H216024   4.921   3.919   2.441
 5340TIP3   OH216025   4.349   5.255   3.108
 5340TIP3    H116026   4.293   5.331   3.126
 5340TIP3    H216027   4.429   5.272   3.157
 5341TIP3   OH216028   5.017   1.612   4.752
 5341TIP3    H116029   4.970   1.695   4.756
 5341TIP3    H216030   4.983   1.570   4.673
 5342TIP3   OH216031   1.337   0.068   3.506
 5342TIP3    H116032   1.337   0.064   3.411
 5342TIP3    H216033   1.340   0.162   3.526
 5343TIP3   OH216034   4.620   2.130   4.099
 5343TIP3    H116035   4.617   2.173   4.185
 5343TIP3    H216036   4.668   2.049   4.114
 5344TIP3   OH216037   3.998   4.430   0.337
 5344TIP3    H116038   4.092   4.430   0.319
 5344TIP3    H216039   3.990   4.467   0.425
 5345TIP3   OH216040   2.594   4.067   3.644
 5345TIP3    H116041   2.555   4.029   3.565
 5345TIP3    H216042   2.675   4.108   3.613
 5346TIP3   OH216043   4.156   2.571   1.516
 5346TIP3    H116044   4.107   2.491   1.534
 5346TIP3    H216045   4.158   2.578   1.421
 5347TIP3   OH216046   3.075   3.909   2.398
 5347TIP3    H116047   3.085   3.842   2.330
 5347TIP3    H216048   3.037   3.984   2.351
 5348TIP3   OH216049   4.897   5.458   1.857
 5348TIP3    H116050   4.859   5.525   1.914
 5348TIP3    H216051   4.834   5.386   1.860
 5349TIP3   OH216052   5.510   4.482   3.719
 5349TIP3    H116053   5.436   4.427   3.694
 5349TIP3    H216054   5.569   4.423   3.766
 5350TIP3   OH216055   1.630   3.848   2.645
 5350TIP3    H116056   1.657   3.897   2.723
 5350TIP3    H216057   1.548   3.805   2.670
 5351TIP3   OH216058   4.999   5.973   0.978
 5351TIP3    H116059   5.092   5.954   0.984
 5351TIP3    H216060   4.962   5.897   0.932
 5352TIP3   OH216061   1.728   4.366   2.786
 5352TIP3    H116062   1.762   4.379   2.875
 5352TIP3    H216063   1.633   4.378   2.795
 5353TIP3   OH216064   5.834   5.094   2.688
 5353TIP3    H116065   5.795   5.161   2.631
 5353TIP3    H216066   5.829   5.132   2.776
 5354TIP3   OH216067   3.802   2.618   1.614
 5354TIP3    H116068   3.781   2.628   1.522
 5354TIP3    H216069   3.724   2.648   1.661
 5355TIP3   OH216070   5.193   1.191   4.001
 5355TIP3    H116071   5.224   1.158   4.085
 5355TIP3    H216072   5.214   1.121   3.939
 5356TIP3   OH216073   1.719   0.379   1.769
 5356TIP3    H116074   1.679   0.445   1.713
 5356TIP3    H216075   1.795   0.423   1.806
 5357TIP3   OH216076   4.713   3.081   1.537
 5357TIP3    H116077   4.757   3.164   1.556
 5357TIP3    H216078   4.767   3.040   1.469
 5358TIP3   OH216079   1.700   1.594   2.265
 5358TIP3    H116080   1.633   1.583   2.197
 5358TIP3    H216081   1.658   1.649   2.332
 5359TIP3   OH216082   3.818   4.520   1.951
 5359TIP3    H116083   3.799   4.587   1.886
 5359TIP3    H216084   3.733   4.500   1.991
 5360TIP3   OH216085   4.345   2.097   0.547
 5360TIP3    H116086   4.368   2.064   0.461
 5360TIP3    H216087   4.335   2.019   0.602
 5361TIP3   OH216088   5.025   4.441   0.159
 5361TIP3    H116089   4.946   4.490   0.141
 5361TIP3    H216090   4.995   4.351   0.173
 5362TIP3   OH216091   0.289   1.458   1.409
 5362TIP3    H116092   0.333   1.375   1.392
 5362TIP3    H216093   0.348   1.506   1.467
 5363TIP3   OH216094   3.127   4.268   1.823
 5363TIP3    H116095   3.087   4.346   1.786
 5363TIP3    H216096   3.091   4.196   1.770
 5364TIP3   OH216097   3.200   2.558   1.945
 5364TIP3    H116098   3.153   2.532   1.866
 5364TIP3    H216099   3.259   2.485   1.963
 5365TIP3   OH216100   4.077   1.039   3.395
 5365TIP3    H116101   4.101   0.972   3.332
 5365TIP3    H216102   4.089   1.122   3.348
 5366TIP3   OH216103   3.437   0.382   4.128
 5366TIP3    H116104   3.358   0.405   4.078
 5366TIP3    H216105   3.510   0.413   4.075
 5367TIP3   OH216106   1.430   1.477   1.806
 5367TIP3    H116107   1.478   1.534   1.866
 5367TIP3    H216108   1.350   1.453   1.854
 5368TIP3   OH216109   0.111   2.670   2.235
 5368TIP3    H116110   0.192   2.675   2.184
 5368TIP3    H216111   0.121   2.590   2.286
 5369TIP3   OH216112   1.619   4.976   3.509
 5369TIP3    H116113   1.676   4.901   3.528
 5369TIP3    H216114   1.679   5.047   3.486
 5370TIP3   OH216115   5.814   3.327   1.826
 5370TIP3    H116116   5.727   3.363   1.843
 5370TIP3    H216117   5.810   3.237   1.858
 5371TIP3   OH216118   4.860   1.091   2.837
 5371TIP3    H116119   4.887   1.022   2.897
 5371TIP3    H216120   4.911   1.076   2.757
 5372TIP3   OH216121   5.915   1.493   3.408
 5372TIP3    H116122   5.959   1.485   3.492
 5372TIP3    H216123   5.870   1.578   3.412
 5373TIP3   OH216124   2.803   0.098   2.259
 5373TIP3    H116125   2.807   0.185   2.300
 5373TIP3    H216126   2.753   0.112   2.178
 5374TIP3   OH216127   3.087   3.680   2.227
 5374TIP3    H116128   3.006   3.636   2.202
 5374TIP3    H216129   3.131   3.699   2.145
 5375TIP3   OH216130   0.688   5.223   3.210
 5375TIP3    H116131   0.727   5.207   3.296
 5375TIP3    H216132   0.760   5.255   3.157
 5376TIP3   OH216133   1.367   3.108   0.411
 5376TIP3    H116134   1.306   3.077   0.477
 5376TIP3    H216135   1.325   3.186   0.374
 5377TIP3   OH216136   0.344   3.696   0.768
 5377TIP3    H116137   0.282   3.636   0.726
 5377TIP3    H216138   0.426   3.684   0.720
 5378TIP3   OH216139   1.462   1.319   0.557
 5378TIP3    H116140   1.413   1.370   0.621
 5378TIP3    H216141   1.447   1.228   0.582
 5379TIP3   OH216142   4.318   2.861   2.049
 5379TIP3    H116143   4.387   2.799   2.028
 5379TIP3    H216144   4.277   2.881   1.965
 5380TIP3   OH216145   3.240   3.579   4.226
 5380TIP3    H116146   3.310   3.527   4.266
 5380TIP3    H216147   3.286   3.648   4.178
 5381TIP3   OH216148   6.010   4.520   1.398
 5381TIP3    H116149   5.924   4.514   1.438
 5381TIP3    H216150   6.006   4.598   1.342
 5382TIP3   OH216151   1.821   1.169   2.431
 5382TIP3    H116152   1.867   1.135   2.355
 5382TIP3    H216153   1.763   1.098   2.458
 5383TIP3   OH216154   2.097   1.114   4.580
 5383TIP3    H116155   2.166   1.051   4.560
 5383TIP3    H216156   2.017   1.075   4.544
 5384TIP3   OH216157   3.506   3.663   2.585
 5384TIP3    H116158   3.458   3.625   2.658
 5384TIP3    H216159   3.446   3.656   2.511
 5385TIP3   OH216160   3.306   4.791   2.739
 5385TIP3    H116161   3.211   4.790   2.745
 5385TIP3    H216162   3.337   4.801   2.829
 5386TIP3   OH216163   0.135   4.628   1.515
 5386TIP3    H116164   0.213   4.610   1.567
 5386TIP3    H216165   0.120   4.722   1.526
 5387TIP3   OH216166   2.059   4.814   3.488
 5387TIP3    H116167   2.104   4.817   3.573
 5387TIP3    H216168   2.080   4.728   3.452
 5388TIP3   OH216169   2.557   0.309   3.116
 5388TIP3    H116170   2.621   0.371   3.152
 5388TIP3    H216171   2.523   0.262   3.192
 5389TIP3   OH216172   4.351   3.980   1.075
 5389TIP3    H116173   4.423   3.995   1.014
 5389TIP3    H216174   4.393   3.975   1.161
 5390TIP3   OH216175   0.452   0.552   0.881
 5390TIP3    H116176   0.519   0.618   0.864
 5390TIP3    H216177   0.486   0.472   0.839
 5391TIP3   OH216178   4.182   5.062   2.202
 5391TIP3    H116179   4.186   5.027   2.291
 5391TIP3    H216180   4.273   5.071   2.175
 5392TIP3   OH216181   3.871   3.217   2.880
 5392TIP3    H116182   3.909   3.157   2.816
 5392TIP3    H216183   3.938   3.226   2.948
 5393TIP3   OH216184   1.713   4.039   3.675
 5393TIP3    H116185   1.705   3.952   3.636
 5393TIP3    H216186   1.787   4.079   3.630
 5394TIP3   OH216187   2.524   2.435   4.103
 5394TIP3    H116188   2.500   2.520   4.065
 5394TIP3    H216189   2.479   2.371   4.048
 5395TIP3   OH216190   2.425   5.034   1.066
 5395TIP3    H116191   2.494   5.097   1.084
 5395TIP3    H216192   2.444   4.960   1.124
 5396TIP3   OH216193   5.929   0.375   1.548
 5396TIP3    H116194   5.889   0.314   1.486
 5396TIP3    H216195   5.914   0.462   1.509
 5397TIP3   OH216196   2.853   2.292   0.556
 5397TIP3    H116197   2.935   2.319   0.596
 5397TIP3    H216198   2.787   2.349   0.595
 5398TIP3   OH216199   1.813   5.439   3.237
 5398TIP3    H116200   1.888   5.480   3.194
 5398TIP3    H216201   1.779   5.378   3.172
 5399TIP3   OH216202   3.133   1.150   3.849
 5399TIP3    H116203   3.198   1.129   3.781
 5399TIP3    H216204   3.051   1.160   3.802
 5400TIP3   OH216205   3.941   3.906   3.934
 5400TIP3    H116206   3.865   3.919   3.991
 5400TIP3    H216207   3.936   3.814   3.909
 5401TIP3   OH216208   0.189   1.622   0.272
 5401TIP3    H116209   0.231   1.564   0.209
 5401TIP3    H216210   0.187   1.572   0.353
 5402TIP3   OH216211   0.089   4.900   3.620
 5402TIP3    H116212   0.085   4.805   3.623
 5402TIP3    H216213   0.065   4.927   3.709
 5403TIP3   OH216214   3.697   5.156   2.813
 5403TIP3    H116215   3.756   5.094   2.856
 5403TIP3    H216216   3.691   5.230   2.874
 5404TIP3   OH216217   3.823   5.238   0.833
 5404TIP3    H116218   3.862   5.212   0.749
 5404TIP3    H216219   3.729   5.240   0.817
 5405TIP3   OH216220   4.709   0.478   5.000
 5405TIP3    H116221   4.740   0.402   5.049
 5405TIP3    H216222   4.770   0.548   5.022
 5406TIP3   OH216223   4.902   5.772   0.814
 5406TIP3    H116224   4.962   5.728   0.754
 5406TIP3    H216225   4.817   5.766   0.770
 5407TIP3   OH216226   5.328   3.610   3.145
 5407TIP3    H116227   5.288   3.540   3.092
 5407TIP3    H216228   5.335   3.573   3.233
 5408TIP3   OH216229   4.344   5.223   2.761
 5408TIP3    H116230   4.346   5.284   2.687
 5408TIP3    H216231   4.257   5.234   2.799
 5409TIP3   OH216232   3.208   1.121   1.719
 5409TIP3    H116233   3.133   1.069   1.748
 5409TIP3    H216234   3.221   1.185   1.790
 5410TIP3   OH216235   2.809   2.312   2.695
 5410TIP3    H116236   2.738   2.329   2.633
 5410TIP3    H216237   2.887   2.302   2.640
 5411TIP3   OH216238   3.341   1.461   0.275
 5411TIP3    H116239   3.271   1.492   0.217
 5411TIP3    H216240   3.320   1.368   0.288
 5412TIP3   OH216241   5.572   0.839   3.670
 5412TIP3    H116242   5.579   0.935   3.676
 5412TIP3    H216243   5.653   0.807   3.708
 5413TIP3   OH216244   5.837   3.723   4.679
 5413TIP3    H116245   5.817   3.816   4.691
 5413TIP3    H216246   5.843   3.689   4.769
 5414TIP3   OH216247   0.866   4.209   0.338
 5414TIP3    H116248   0.886   4.259   0.418
 5414TIP3    H216249   0.780   4.241   0.311
 5415TIP3   OH216250   2.911   1.702   1.173
 5415TIP3    H116251   2.895   1.787   1.131
 5415TIP3    H216252   2.960   1.652   1.109
 5416TIP3   OH216253   5.407   5.144   3.757
 5416TIP3    H116254   5.411   5.175   3.848
 5416TIP3    H216255   5.385   5.051   3.764
 5417TIP3   OH216256   1.696   1.250   4.532
 5417TIP3    H116257   1.738   1.336   4.524
 5417TIP3    H216258   1.738   1.209   4.607
 5418TIP3   OH216259   5.022   3.317   1.141
 5418TIP3    H116260   5.077   3.277   1.074
 5418TIP3    H216261   5.058   3.405   1.151
 5419TIP3   OH216262   4.706   1.480   4.737
 5419TIP3    H116263   4.679   1.398   4.695
 5419TIP3    H216264   4.741   1.453   4.822
 5420TIP3   OH216265   4.450   4.455   1.695
 5420TIP3    H116266   4.462   4.518   1.623
 5420TIP3    H216267   4.357   4.434   1.693
 5421TIP3   OH216268   1.047   5.151   4.088
 5421TIP3    H116269   1.112   5.222   4.095
 5421TIP3    H216270   1.030   5.144   3.994
 5422TIP3   OH216271   4.998   5.060   2.747
 5422TIP3    H116272   4.966   4.972   2.766
 5422TIP3    H216273   4.950   5.116   2.808
 5423TIP3   OH216274   2.291   5.702   3.296
 5423TIP3    H116275   2.211   5.753   3.286
 5423TIP3    H216276   2.271   5.640   3.366
 5424TIP3   OH216277   3.571   4.632   1.064
 5424TIP3    H116278   3.664   4.632   1.087
 5424TIP3    H216279   3.548   4.539   1.057
 5425TIP3   OH216280   5.119   1.596   0.679
 5425TIP3    H116281   5.078   1.516   0.649
 5425TIP3    H216282   5.077   1.615   0.763
 5426TIP3   OH216283   2.207   0.015   0.343
 5426TIP3    H116284   2.251  -0.044   0.283
 5426TIP3    H216285   2.158   0.075   0.287
 5427TIP3   OH216286   3.102   1.097   4.437
 5427TIP3    H116287   3.152   1.177   4.417
 5427TIP3    H216288   3.129   1.074   4.526
 5428TIP3   OH216289   2.424   4.996   3.637
 5428TIP3    H116290   2.477   5.075   3.636
 5428TIP3    H216291   2.433   4.960   3.549
 5429TIP3   OH216292   0.726   1.358   3.567
 5429TIP3    H116293   0.654   1.301   3.593
 5429TIP3    H216294   0.704   1.386   3.479
 5430TIP3   OH216295   4.156   1.577   2.846
 5430TIP3    H116296   4.228   1.517   2.868
 5430TIP3    H216297   4.108   1.588   2.928
 5431TIP3   OH216298   6.117   0.914   1.539
 5431TIP3    H116299   6.123   0.959   1.455
 5431TIP3    H216300   6.205   0.919   1.576
 5432TIP3   OH216301   2.991   0.458   0.124
 5432TIP3    H116302   2.962   0.542   0.089
 5432TIP3    H216303   2.996   0.401   0.047
 5433TIP3   OH216304   3.717   2.721   2.513
 5433TIP3    H116305   3.627   2.687   2.521
 5433TIP3    H216306   3.750   2.722   2.603
 5434TIP3   OH216307   0.930   3.509   1.213
 5434TIP3    H116308   0.876   3.585   1.234
 5434TIP3    H216309   0.949   3.518   1.120
 5435TIP3   OH216310   5.190   4.301   4.211
 5435TIP3    H116311   5.142   4.220   4.193
 5435TIP3    H216312   5.282   4.276   4.206
 5436TIP3   OH216313   4.148   0.523   2.641
 5436TIP3    H116314   4.103   0.604   2.617
 5436TIP3    H216315   4.216   0.512   2.575
 5437TIP3   OH216316   2.181   5.544   3.481
 5437TIP3    H116317   2.229   5.568   3.560
 5437TIP3    H216318   2.114   5.482   3.511
 5438TIP3   OH216319   5.940   5.387   3.521
 5438TIP3    H116320   5.955   5.345   3.436
 5438TIP3    H216321   6.028   5.403   3.555
 5439TIP3   OH216322   4.260   4.586   4.924
 5439TIP3    H116323   4.350   4.620   4.920
 5439TIP3    H216324   4.266   4.508   4.978
 5440TIP3   OH216325   4.655   4.159   3.705
 5440TIP3    H116326   4.561   4.166   3.723
 5440TIP3    H216327   4.684   4.250   3.693
 5441TIP3   OH216328   4.016   2.352   1.552
 5441TIP3    H116329   4.045   2.272   1.509
 5441TIP3    H216330   3.984   2.324   1.637
 5442TIP3   OH216331   5.705   0.078   2.448
 5442TIP3    H116332   5.704   0.087   2.352
 5442TIP3    H216333   5.626   0.123   2.476
 5443TIP3   OH216334   3.126   2.253   3.573
 5443TIP3    H116335   3.103   2.299   3.653
 5443TIP3    H216336   3.104   2.315   3.503
 5444TIP3   OH216337   4.184   2.873   4.604
 5444TIP3    H116338   4.109   2.824   4.638
 5444TIP3    H216339   4.220   2.817   4.536
 5445TIP3   OH216340   2.913   3.254   3.540
 5445TIP3    H116341   2.947   3.165   3.534
 5445TIP3    H216342   2.918   3.287   3.450
 5446TIP3   OH216343   4.446   2.444   1.301
 5446TIP3    H116344   4.452   2.393   1.382
 5446TIP3    H216345   4.375   2.506   1.317
 5447TIP3   OH216346   0.318   5.577   4.154
 5447TIP3    H116347   0.354   5.587   4.242
 5447TIP3    H216348   0.229   5.610   4.161
 5448TIP3   OH216349   2.671   1.896   3.717
 5448TIP3    H116350   2.577   1.915   3.720
 5448TIP3    H216351   2.697   1.889   3.809
 5449TIP3   OH216352   5.747   2.659   5.053
 5449TIP3    H116353   5.807   2.711   5.106
 5449TIP3    H216354   5.759   2.692   4.964
 5450TIP3   OH216355   6.101   4.411   2.328
 5450TIP3    H116356   6.150   4.333   2.304
 5450TIP3    H216357   6.121   4.426   2.420
 5451TIP3   OH216358   5.859   4.858   2.929
 5451TIP3    H116359   5.864   4.810   2.846
 5451TIP3    H216360   5.873   4.949   2.905
 5452TIP3   OH216361   2.801   3.866   1.713
 5452TIP3    H116362   2.836   3.813   1.784
 5452TIP3    H216363   2.809   3.812   1.634
 5453TIP3   OH216364   5.449   3.005   1.449
 5453TIP3    H116365   5.402   2.998   1.366
 5453TIP3    H216366   5.452   3.100   1.466
 5454TIP3   OH216367   4.962   2.622   2.277
 5454TIP3    H116368   4.940   2.579   2.360
 5454TIP3    H216369   4.878   2.639   2.236
 5455TIP3   OH216370   4.332   0.245   3.208
 5455TIP3    H116371   4.260   0.212   3.153
 5455TIP3    H216372   4.329   0.340   3.196
 5456TIP3   OH216373   0.844   1.833   3.018
 5456TIP3    H116374   0.830   1.871   3.105
 5456TIP3    H216375   0.807   1.898   2.958
 5457TIP3   OH216376   2.734   4.907   3.261
 5457TIP3    H116377   2.808   4.854   3.229
 5457TIP3    H216378   2.773   4.990   3.286
 5458TIP3   OH216379   0.877   4.579   1.186
 5458TIP3    H116380   0.943   4.557   1.253
 5458TIP3    H216381   0.821   4.644   1.229
 5459TIP3   OH216382   3.110   3.798   3.975
 5459TIP3    H116383   3.198   3.784   4.012
 5459TIP3    H216384   3.090   3.715   3.932
 5460TIP3   OH216385   3.384   3.445   0.382
 5460TIP3    H116386   3.445   3.407   0.320
 5460TIP3    H216387   3.424   3.431   0.468
 5461TIP3   OH216388   2.342   4.898   1.589
 5461TIP3    H116389   2.310   4.839   1.520
 5461TIP3    H216390   2.437   4.898   1.579
 5462TIP3   OH216391   4.481   3.235   1.443
 5462TIP3    H116392   4.405   3.192   1.403
 5462TIP3    H216393   4.530   3.164   1.484
 5463TIP3   OH216394   4.968   1.627   2.836
 5463TIP3    H116395   5.036   1.689   2.807
 5463TIP3    H216396   4.907   1.622   2.762
 5464TIP3   OH216397   2.072   0.995   0.515
 5464TIP3    H116398   2.057   1.001   0.420
 5464TIP3    H216399   1.998   1.041   0.554
 5465TIP3   OH216400   4.604   5.158   3.007
 5465TIP3    H116401   4.521   5.204   3.019
 5465TIP3    H216402   4.615   5.109   3.089
 5466TIP3   OH216403   1.173   2.885   4.686
 5466TIP3    H116404   1.163   2.936   4.605
 5466TIP3    H216405   1.127   2.936   4.753
 5467TIP3   OH216406   1.782   1.224   4.999
 5467TIP3    H116407   1.800   1.317   5.013
 5467TIP3    H216408   1.818   1.206   4.912
 5468TIP3   OH216409   5.184   1.303   1.467
 5468TIP3    H116410   5.099   1.308   1.423
 5468TIP3    H216411   5.203   1.394   1.491
 5469TIP3   OH216412   2.002   0.584   4.357
 5469TIP3    H116413   1.980   0.632   4.437
 5469TIP3    H216414   2.076   0.529   4.382
 5470TIP3   OH216415   6.028   0.534   0.058
 5470TIP3    H116416   6.067   0.528  -0.029
 5470TIP3    H216417   6.037   0.627   0.081
 5471TIP3   OH216418   6.140   1.660   1.203
 5471TIP3    H116419   6.120   1.740   1.251
 5471TIP3    H216420   6.178   1.691   1.121
 5472TIP3   OH216421   3.263   5.384   3.652
 5472TIP3    H116422   3.186   5.442   3.653
 5472TIP3    H216423   3.315   5.412   3.727
 5473TIP3   OH216424   5.035   5.441   2.257
 5473TIP3    H116425   5.103   5.376   2.239
 5473TIP3    H216426   5.028   5.490   2.175
 5474TIP3   OH216427   5.970   1.110   3.817
 5474TIP3    H116428   5.912   1.187   3.820
 5474TIP3    H216429   5.985   1.088   3.909
 5475TIP3   OH216430   1.879   1.325   3.990
 5475TIP3    H116431   1.835   1.399   4.031
 5475TIP3    H216432   1.833   1.248   4.022
 5476TIP3   OH216433   5.101   0.487   5.023
 5476TIP3    H116434   5.093   0.393   5.006
 5476TIP3    H216435   5.011   0.519   5.026
 5477TIP3   OH216436   3.972   5.134   0.633
 5477TIP3    H116437   3.892   5.108   0.588
 5477TIP3    H216438   4.031   5.059   0.623
 5478TIP3   OH216439   3.210   0.643   1.280
 5478TIP3    H116440   3.125   0.679   1.306
 5478TIP3    H216441   3.201   0.549   1.294
 5479TIP3   OH216442   4.780   0.266   1.360
 5479TIP3    H116443   4.850   0.253   1.296
 5479TIP3    H216444   4.826   0.281   1.443
 5480TIP3   OH216445   2.228   0.260   0.638
 5480TIP3    H116446   2.160   0.326   0.624
 5480TIP3    H216447   2.196   0.208   0.712
 5481TIP3   OH216448   0.438   3.973   1.239
 5481TIP3    H116449   0.349   3.940   1.224
 5481TIP3    H216450   0.440   3.993   1.332
 5482TIP3   OH216451   4.459   1.633   4.147
 5482TIP3    H116452   4.505   1.692   4.207
 5482TIP3    H216453   4.406   1.692   4.092
 5483TIP3   OH216454   1.379   3.350   2.194
 5483TIP3    H116455   1.422   3.280   2.145
 5483TIP3    H216456   1.286   3.329   2.189
 5484TIP3   OH216457   4.644   3.455   1.497
 5484TIP3    H116458   4.585   3.380   1.498
 5484TIP3    H216459   4.710   3.433   1.430
 5485TIP3   OH216460   6.033   1.708   3.253
 5485TIP3    H116461   6.080   1.722   3.335
 5485TIP3    H216462   6.053   1.617   3.229
 5486TIP3   OH216463   5.671   4.183   4.859
 5486TIP3    H116464   5.689   4.121   4.929
 5486TIP3    H216465   5.682   4.132   4.778
 5487TIP3   OH216466   3.201   0.760   2.583
 5487TIP3    H116467   3.282   0.729   2.542
 5487TIP3    H216468   3.145   0.784   2.510
 5488TIP3   OH216469   3.601   4.911   4.903
 5488TIP3    H116470   3.582   4.998   4.868
 5488TIP3    H216471   3.689   4.919   4.940
 5489TIP3   OH216472   3.050   0.473   3.786
 5489TIP3    H116473   3.091   0.556   3.762
 5489TIP3    H216474   2.990   0.454   3.715
 5490TIP3   OH216475   3.348   2.993   5.127
 5490TIP3    H116476   3.280   3.058   5.113
 5490TIP3    H216477   3.422   3.023   5.075
 5491TIP3   OH216478   0.965   4.622   2.292
 5491TIP3    H116479   0.914   4.668   2.226
 5491TIP3    H216480   0.905   4.556   2.327
 5492TIP3   OH216481   5.608   0.320   4.627
 5492TIP3    H116482   5.574   0.232   4.610
 5492TIP3    H216483   5.550   0.378   4.578
 5493TIP3   OH216484   5.806   3.114   2.043
 5493TIP3    H116485   5.716   3.081   2.054
 5493TIP3    H216486   5.858   3.036   2.027
 5494TIP3   OH216487   5.778   4.058   2.900
 5494TIP3    H116488   5.790   4.126   2.834
 5494TIP3    H216489   5.703   4.088   2.952
 5495TIP3   OH216490   4.221   1.282   2.550
 5495TIP3    H116491   4.182   1.365   2.578
 5495TIP3    H216492   4.315   1.293   2.563
 5496TIP3   OH216493   5.752   4.594   0.333
 5496TIP3    H116494   5.659   4.577   0.349
 5496TIP3    H216495   5.797   4.550   0.404
 5497TIP3   OH216496   0.335   5.183   0.475
 5497TIP3    H116497   0.370   5.129   0.404
 5497TIP3    H216498   0.249   5.211   0.443
 5498TIP3   OH216499   0.197   1.770   3.590
 5498TIP3    H116500   0.267   1.804   3.535
 5498TIP3    H216501   0.124   1.829   3.576
 5499TIP3   OH216502   5.519   3.666   1.230
 5499TIP3    H116503   5.447   3.727   1.217
 5499TIP3    H216504   5.560   3.695   1.312
 5500TIP3   OH216505   4.961   4.221   4.560
 5500TIP3    H116506   5.032   4.284   4.565
 5500TIP3    H216507   5.000   4.138   4.588
 5501TIP3   OH216508   5.192   3.434   0.793
 5501TIP3    H116509   5.199   3.341   0.813
 5501TIP3    H216510   5.248   3.477   0.858
 5502TIP3   OH216511   5.013   2.276   0.861
 5502TIP3    H116512   5.035   2.201   0.807
 5502TIP3    H216513   5.064   2.265   0.941
 5503TIP3   OH216514   1.195   3.533   4.927
 5503TIP3    H116515   1.186   3.452   4.876
 5503TIP3    H216516   1.248   3.509   5.002
 5504TIP3   OH216517   4.617   2.745   5.023
 5504TIP3    H116518   4.551   2.682   4.996
 5504TIP3    H216519   4.643   2.790   4.942
 5505TIP3   OH216520   0.954   5.108   3.846
 5505TIP3    H116521   0.949   5.143   3.757
 5505TIP3    H216522   0.964   5.014   3.835
 5506TIP3   OH216523   5.656   3.270   4.667
 5506TIP3    H116524   5.735   3.309   4.630
 5506TIP3    H216525   5.655   3.301   4.758
 5507TIP3   OH216526   5.259   3.004   2.905
 5507TIP3    H116527   5.296   3.089   2.884
 5507TIP3    H216528   5.323   2.963   2.963
 5508TIP3   OH216529   1.195   5.773   4.969
 5508TIP3    H116530   1.244   5.753   5.049
 5508TIP3    H216531   1.138   5.846   4.994
 5509TIP3   OH216532   5.034   4.567   2.669
 5509TIP3    H116533   5.083   4.558   2.587
 5509TIP3    H216534   5.048   4.657   2.696
 5510TIP3   OH216535   0.250   2.104   5.067
 5510TIP3    H116536   0.235   2.189   5.026
 5510TIP3    H216537   0.243   2.041   4.995
 5511TIP3   OH216538   4.710   5.718   3.097
 5511TIP3    H116539   4.773   5.653   3.066
 5511TIP3    H216540   4.722   5.720   3.192
 5512TIP3   OH216541   6.330   2.776   1.487
 5512TIP3    H116542   6.410   2.789   1.539
 5512TIP3    H216543   6.289   2.863   1.487
 5513TIP3   OH216544   3.231   1.236   2.717
 5513TIP3    H116545   3.214   1.320   2.760
 5513TIP3    H216546   3.173   1.236   2.641
 5514TIP3   OH216547   3.396   0.224   3.769
 5514TIP3    H116548   3.449   0.258   3.841
 5514TIP3    H216549   3.443   0.251   3.690
 5515TIP3   OH216550   0.544   3.980   4.301
 5515TIP3    H116551   0.597   4.051   4.264
 5515TIP3    H216552   0.579   3.901   4.261
 5516TIP3   OH216553   6.221   5.205   4.200
 5516TIP3    H116554   6.305   5.165   4.222
 5516TIP3    H216555   6.203   5.176   4.111
 5517TIP3   OH216556   3.692   0.660   2.647
 5517TIP3    H116557   3.618   0.661   2.587
 5517TIP3    H216558   3.765   0.627   2.595
 5518TIP3   OH216559   3.300   4.885   4.638
 5518TIP3    H116560   3.288   4.831   4.559
 5518TIP3    H216561   3.332   4.824   4.704
 5519TIP3   OH216562   5.181   1.971   5.121
 5519TIP3    H116563   5.121   2.031   5.075
 5519TIP3    H216564   5.149   1.884   5.098
 5520TIP3   OH216565   0.315   4.570   2.324
 5520TIP3    H116566   0.270   4.597   2.404
 5520TIP3    H216567   0.250   4.582   2.255
 5521TIP3   OH216568   0.314   0.617   1.583
 5521TIP3    H116569   0.295   0.545   1.643
 5521TIP3    H216570   0.392   0.659   1.620
 5522TIP3   OH216571   1.843   5.953   1.147
 5522TIP3    H116572   1.799   5.882   1.193
 5522TIP3    H216573   1.881   5.912   1.070
 5523TIP3   OH216574   4.235   0.151   3.487
 5523TIP3    H116575   4.187   0.198   3.555
 5523TIP3    H216576   4.246   0.215   3.416
 5524TIP3   OH216577   1.047   2.272   4.215
 5524TIP3    H116578   1.078   2.181   4.222
 5524TIP3    H216579   1.109   2.313   4.154
 5525TIP3   OH216580   3.587   0.322   2.890
 5525TIP3    H116581   3.621   0.274   2.965
 5525TIP3    H216582   3.642   0.401   2.886
 5526TIP3   OH216583   1.310   1.242   4.070
 5526TIP3    H116584   1.376   1.188   4.114
 5526TIP3    H216585   1.361   1.305   4.019
 5527TIP3   OH216586   1.384   0.067   1.923
 5527TIP3    H116587   1.396   0.110   1.838
 5527TIP3    H216588   1.455   0.003   1.928
 5528TIP3   OH216589   3.139   0.166   4.141
 5528TIP3    H116590   3.206   0.132   4.201
 5528TIP3    H216591   3.178   0.244   4.103
 5529TIP3   OH216592   5.405   4.624   1.722
 5529TIP3    H116593   5.337   4.607   1.787
 5529TIP3    H216594   5.409   4.719   1.717
 5530TIP3   OH216595   2.652   3.436   1.882
 5530TIP3    H116596   2.590   3.503   1.854
 5530TIP3    H216597   2.707   3.421   1.805
 5531TIP3   OH216598   2.826   2.008   4.670
 5531TIP3    H116599   2.764   2.030   4.739
 5531TIP3    H216600   2.899   2.070   4.682
 5532TIP3   OH216601   5.347   2.140   3.995
 5532TIP3    H116602   5.322   2.159   4.085
 5532TIP3    H216603   5.410   2.209   3.973
 5533TIP3   OH216604   5.832   3.492   0.617
 5533TIP3    H116605   5.772   3.567   0.606
 5533TIP3    H216606   5.904   3.511   0.557
 5534TIP3   OH216607   2.651   5.005   2.161
 5534TIP3    H116608   2.580   5.044   2.213
 5534TIP3    H216609   2.731   5.046   2.194
 5535TIP3   OH216610   1.954   1.336   1.509
 5535TIP3    H116611   1.924   1.316   1.598
 5535TIP3    H216612   1.915   1.421   1.489
 5536TIP3   OH216613   4.369   2.215   2.258
 5536TIP3    H116614   4.320   2.159   2.198
 5536TIP3    H216615   4.315   2.218   2.337
 5537TIP3   OH216616   4.848   4.197   0.239
 5537TIP3    H116617   4.825   4.165   0.152
 5537TIP3    H216618   4.801   4.138   0.299
 5538TIP3   OH216619   1.967   0.548   3.024
 5538TIP3    H116620   2.054   0.577   3.053
 5538TIP3    H216621   1.942   0.612   2.957
 5539TIP3   OH216622   2.892   4.462   5.158
 5539TIP3    H116623   2.898   4.444   5.064
 5539TIP3    H216624   2.946   4.395   5.199
 5540TIP3   OH216625   3.033   4.696   2.140
 5540TIP3    H116626   2.961   4.735   2.189
 5540TIP3    H216627   2.993   4.628   2.087
 5541TIP3   OH216628   3.433   0.266   4.636
 5541TIP3    H116629   3.456   0.298   4.548
 5541TIP3    H216630   3.473   0.179   4.641
 5542TIP3   OH216631   1.896   5.694   3.532
 5542TIP3    H116632   1.919   5.636   3.605
 5542TIP3    H216633   1.831   5.645   3.481
 5543TIP3   OH216634   3.550   1.426   4.559
 5543TIP3    H116635   3.613   1.460   4.622
 5543TIP3    H216636   3.575   1.465   4.476
 5544TIP3   OH216637   1.360   3.934   3.599
 5544TIP3    H116638   1.388   3.865   3.659
 5544TIP3    H216639   1.385   4.015   3.642
 5545TIP3   OH216640   6.205   4.223   1.718
 5545TIP3    H116641   6.211   4.318   1.718
 5545TIP3    H216642   6.237   4.197   1.631
 5546TIP3   OH216643   4.106   5.353   2.226
 5546TIP3    H116644   4.133   5.281   2.283
 5546TIP3    H216645   4.018   5.375   2.256
 5547TIP3   OH216646   4.441   3.191   4.483
 5547TIP3    H116647   4.505   3.135   4.526
 5547TIP3    H216648   4.493   3.262   4.445
 5548TIP3   OH216649   4.452   4.554   0.689
 5548TIP3    H116650   4.401   4.473   0.689
 5548TIP3    H216651   4.409   4.610   0.754
 5549TIP3   OH216652   3.881   1.507   0.270
 5549TIP3    H116653   3.861   1.425   0.224
 5549TIP3    H216654   3.796   1.548   0.284
 5550TIP3   OH216655   2.287   2.215   2.271
 5550TIP3    H116656   2.294   2.135   2.219
 5550TIP3    H216657   2.219   2.267   2.227
 5551TIP3   OH216658   4.118   2.675   3.039
 5551TIP3    H116659   4.063   2.598   3.021
 5551TIP3    H216660   4.192   2.667   2.979
 5552TIP3   OH216661   6.174   3.534   3.062
 5552TIP3    H116662   6.130   3.603   3.111
 5552TIP3    H216663   6.201   3.575   2.980
 5553TIP3   OH216664   1.026   1.397   4.699
 5553TIP3    H116665   1.100   1.396   4.639
 5553TIP3    H216666   1.064   1.422   4.783
 5554TIP3   OH216667   4.796   0.922   5.076
 5554TIP3    H116668   4.784   0.992   5.013
 5554TIP3    H216669   4.829   0.849   5.025
 5555TIP3   OH216670   0.918   4.685   1.649
 5555TIP3    H116671   0.929   4.590   1.643
 5555TIP3    H216672   0.828   4.698   1.677
 5556TIP3   OH216673   1.025   0.750   4.871
 5556TIP3    H116674   0.960   0.682   4.852
 5556TIP3    H216675   1.056   0.778   4.784
 5557TIP3   OH216676   4.687   2.867   3.633
 5557TIP3    H116677   4.639   2.915   3.700
 5557TIP3    H216678   4.743   2.807   3.682
 5558TIP3   OH216679   2.479   5.670   2.335
 5558TIP3    H116680   2.551   5.608   2.322
 5558TIP3    H216681   2.416   5.647   2.266
 5559TIP3   OH216682   4.951   5.862   2.884
 5559TIP3    H116683   4.937   5.939   2.937
 5559TIP3    H216684   5.045   5.862   2.866
 5560TIP3   OH216685   5.607   2.661   0.634
 5560TIP3    H116686   5.646   2.575   0.642
 5560TIP3    H216687   5.664   2.707   0.572
 5561TIP3   OH216688   2.794   3.559   4.986
 5561TIP3    H116689   2.798   3.465   5.007
 5561TIP3    H216690   2.711   3.570   4.940
 5562TIP3   OH216691   3.688   3.664   1.472
 5562TIP3    H116692   3.747   3.691   1.401
 5562TIP3    H216693   3.616   3.619   1.427
 5563TIP3   OH216694   3.603   0.772   1.458
 5563TIP3    H116695   3.613   0.850   1.513
 5563TIP3    H216696   3.610   0.699   1.520
 5564TIP3   OH216697   3.878   4.661   3.745
 5564TIP3    H116698   3.948   4.605   3.711
 5564TIP3    H216699   3.798   4.626   3.705
 5565TIP3   OH216700   3.851   5.292   3.218
 5565TIP3    H116701   3.876   5.231   3.288
 5565TIP3    H216702   3.887   5.376   3.246
 5566TIP3   OH216703   3.924   2.575   3.327
 5566TIP3    H116704   3.948   2.666   3.312
 5566TIP3    H216705   3.998   2.525   3.291
 5567TIP3   OH216706   3.857   3.294   1.880
 5567TIP3    H116707   3.762   3.303   1.872
 5567TIP3    H216708   3.888   3.285   1.790
 5568TIP3   OH216709   1.535   1.130   3.817
 5568TIP3    H116710   1.573   1.048   3.786
 5568TIP3    H216711   1.582   1.198   3.769
 5569TIP3   OH216712   3.877   1.234   1.620
 5569TIP3    H116713   3.872   1.254   1.713
 5569TIP3    H216714   3.898   1.318   1.579
 5570TIP3   OH216715   2.831   4.915   1.177
 5570TIP3    H116716   2.867   4.852   1.240
 5570TIP3    H216717   2.763   4.961   1.226
 5571TIP3   OH216718   1.667   2.631   3.150
 5571TIP3    H116719   1.734   2.698   3.158
 5571TIP3    H216720   1.662   2.613   3.056
 5572TIP3   OH216721   3.160   1.786   0.040
 5572TIP3    H116722   3.229   1.849   0.021
 5572TIP3    H216723   3.200   1.700   0.023
 5573TIP3   OH216724   0.892   2.510   0.665
 5573TIP3    H116725   0.825   2.454   0.627
 5573TIP3    H216726   0.856   2.536   0.750
 5574TIP3   OH216727   2.740   2.463   1.802
 5574TIP3    H116728   2.703   2.402   1.865
 5574TIP3    H216729   2.817   2.419   1.768
 5575TIP3   OH216730   2.451   1.910   3.234
 5575TIP3    H116731   2.434   1.991   3.185
 5575TIP3    H216732   2.381   1.906   3.299
 5576TIP3   OH216733   5.693   1.258   4.550
 5576TIP3    H116734   5.751   1.206   4.495
 5576TIP3    H216735   5.729   1.347   4.546
 5577TIP3   OH216736   5.974   4.904   4.241
 5577TIP3    H116737   5.891   4.899   4.289
 5577TIP3    H216738   6.019   4.823   4.266
 5578TIP3   OH216739   1.243   5.413   1.992
 5578TIP3    H116740   1.306   5.466   2.040
 5578TIP3    H216741   1.163   5.418   2.044
 5579TIP3   OH216742   4.938   4.665   1.921
 5579TIP3    H116743   4.886   4.644   1.999
 5579TIP3    H216744   4.968   4.754   1.936
 5580TIP3   OH216745   2.291   0.968   2.687
 5580TIP3    H116746   2.208   1.010   2.708
 5580TIP3    H216747   2.330   1.024   2.620
 5581TIP3   OH216748   0.334   1.806   2.246
 5581TIP3    H116749   0.336   1.830   2.154
 5581TIP3    H216750   0.402   1.861   2.286
 5582TIP3   OH216751   3.416   1.841   2.344
 5582TIP3    H116752   3.414   1.911   2.280
 5582TIP3    H216753   3.509   1.820   2.354
 5583TIP3   OH216754   0.020   4.680   1.229
 5583TIP3    H116755   0.084   4.749   1.245
 5583TIP3    H216756   0.069   4.599   1.238
 5584TIP3   OH216757   4.067   2.977   1.380
 5584TIP3    H116758   3.990   2.994   1.328
 5584TIP3    H216759   4.033   2.948   1.465
 5585TIP3   OH216760   6.125   0.544   1.114
 5585TIP3    H116761   6.120   0.617   1.175
 5585TIP3    H216762   6.181   0.577   1.043
 5586TIP3   OH216763   1.189   3.607   1.291
 5586TIP3    H116764   1.201   3.622   1.197
 5586TIP3    H216765   1.103   3.567   1.298
 5587TIP3   OH216766   1.307   2.850   1.409
 5587TIP3    H116767   1.257   2.771   1.432
 5587TIP3    H216768   1.295   2.908   1.484
 5588TIP3   OH216769   0.937   2.937   2.690
 5588TIP3    H116770   0.955   3.016   2.741
 5588TIP3    H216771   0.846   2.946   2.662
 5589TIP3   OH216772   1.092   5.685   2.349
 5589TIP3    H116773   1.082   5.614   2.412
 5589TIP3    H216774   1.032   5.753   2.379
 5590TIP3   OH216775   2.745   2.845   3.028
 5590TIP3    H116776   2.688   2.864   3.103
 5590TIP3    H216777   2.766   2.752   3.036
 5591TIP3   OH216778   0.797   5.246   5.167
 5591TIP3    H116779   0.765   5.172   5.114
 5591TIP3    H216780   0.886   5.261   5.133
 5592TIP3   OH216781   3.880   1.509   3.044
 5592TIP3    H116782   3.890   1.479   2.954
 5592TIP3    H216783   3.839   1.436   3.090
 5593TIP3   OH216784   0.191   1.134   4.140
 5593TIP3    H116785   0.270   1.138   4.193
 5593TIP3    H216786   0.206   1.197   4.069
 5594TIP3   OH216787   6.269   4.445   4.389
 5594TIP3    H116788   6.352   4.443   4.341
 5594TIP3    H216789   6.295   4.453   4.481
 5595TIP3   OH216790   0.881   1.554   3.683
 5595TIP3    H116791   0.824   1.494   3.636
 5595TIP3    H216792   0.910   1.616   3.617
 5596TIP3   OH216793   4.353   0.973   0.553
 5596TIP3    H116794   4.318   0.884   0.544
 5596TIP3    H216795   4.300   1.026   0.494
 5597TIP3   OH216796   6.291   0.643   2.936
 5597TIP3    H116797   6.342   0.659   3.015
 5597TIP3    H216798   6.351   0.595   2.878
 5598TIP3   OH216799   0.832   1.736   0.136
 5598TIP3    H116800   0.838   1.648   0.100
 5598TIP3    H216801   0.920   1.773   0.124
 5599TIP3   OH216802   0.220   2.098   2.810
 5599TIP3    H116803   0.232   2.192   2.797
 5599TIP3    H216804   0.167   2.090   2.890
 5600TIP3   OH216805   2.128   4.136   1.671
 5600TIP3    H116806   2.183   4.074   1.720
 5600TIP3    H216807   2.052   4.150   1.728
 5601TIP3   OH216808   6.054   2.696   1.434
 5601TIP3    H116809   6.140   2.734   1.451
 5601TIP3    H216810   6.067   2.602   1.443
 5602TIP3   OH216811   3.960   4.173   1.063
 5602TIP3    H116812   3.946   4.079   1.054
 5602TIP3    H216813   4.026   4.193   0.997
 5603TIP3   OH216814   2.662   4.827   2.994
 5603TIP3    H116815   2.740   4.863   2.951
 5603TIP3    H216816   2.670   4.857   3.085
 5604TIP3   OH216817   1.886   1.448   2.395
 5604TIP3    H116818   1.853   1.358   2.398
 5604TIP3    H216819   1.829   1.493   2.333
 5605TIP3   OH216820   2.059   1.257   0.798
 5605TIP3    H116821   2.089   1.326   0.739
 5605TIP3    H216822   2.055   1.179   0.743
 5606TIP3   OH216823   2.044   2.264   0.773
 5606TIP3    H116824   2.025   2.177   0.808
 5606TIP3    H216825   2.121   2.251   0.718
 5607TIP3   OH216826   1.456   5.059   0.479
 5607TIP3    H116827   1.538   5.019   0.507
 5607TIP3    H216828   1.430   5.008   0.402
 5608TIP3   OH216829   0.732   4.652   3.539
 5608TIP3    H116830   0.739   4.747   3.549
 5608TIP3    H216831   0.776   4.616   3.616
 5609TIP3   OH216832   2.956   2.045   5.125
 5609TIP3    H116833   2.912   2.128   5.141
 5609TIP3    H216834   3.035   2.048   5.180
 5610TIP3   OH216835   2.998   3.695   0.085
 5610TIP3    H116836   3.086   3.730   0.068
 5610TIP3    H216837   3.001   3.606   0.050
 5611TIP3   OH216838   2.677   2.899   4.583
 5611TIP3    H116839   2.681   2.975   4.640
 5611TIP3    H216840   2.760   2.854   4.597
 5612TIP3   OH216841   2.186   2.432   4.123
 5612TIP3    H116842   2.162   2.466   4.036
 5612TIP3    H216843   2.231   2.349   4.104
 5613TIP3   OH216844   4.547   3.834   1.963
 5613TIP3    H116845   4.461   3.792   1.952
 5613TIP3    H216846   4.527   3.928   1.965
 5614TIP3   OH216847   0.851   0.556   4.733
 5614TIP3    H116848   0.760   0.578   4.715
 5614TIP3    H216849   0.885   0.524   4.649
 5615TIP3   OH216850   1.725   1.917   2.218
 5615TIP3    H116851   1.765   1.884   2.298
 5615TIP3    H216852   1.737   2.012   2.222
 5616TIP3   OH216853   0.292   2.375   2.840
 5616TIP3    H116854   0.217   2.431   2.819
 5616TIP3    H216855   0.315   2.398   2.930
 5617TIP3   OH216856   4.364   1.825   0.250
 5617TIP3    H116857   4.429   1.883   0.291
 5617TIP3    H216858   4.361   1.748   0.308
 5618TIP3   OH216859   0.501   1.487   0.055
 5618TIP3    H116860   0.595   1.487   0.036
 5618TIP3    H216861   0.496   1.501   0.149
 5619TIP3   OH216862   5.100   1.572   1.264
 5619TIP3    H116863   5.105   1.611   1.351
 5619TIP3    H216864   5.062   1.486   1.278
 5620TIP3   OH216865   4.864   4.258   2.445
 5620TIP3    H116866   4.839   4.268   2.536
 5620TIP3    H216867   4.848   4.166   2.425
 5621TIP3   OH216868   6.009   3.541   4.450
 5621TIP3    H116869   6.020   3.471   4.385
 5621TIP3    H216870   6.067   3.611   4.419
 5622TIP3   OH216871   1.109   5.914   0.951
 5622TIP3    H116872   1.040   5.920   0.884
 5622TIP3    H216873   1.064   5.936   1.032
 5623TIP3   OH216874   1.869   1.808   2.495
 5623TIP3    H116875   1.822   1.871   2.550
 5623TIP3    H216876   1.845   1.722   2.531
 5624TIP3   OH216877   2.561   3.579   4.789
 5624TIP3    H116878   2.469   3.563   4.773
 5624TIP3    H216879   2.607   3.516   4.733
 5625TIP3   OH216880   3.042   4.922   4.745
 5625TIP3    H116881   3.125   4.924   4.698
 5625TIP3    H216882   2.976   4.914   4.676
 5626TIP3   OH216883   4.387   4.883   1.269
 5626TIP3    H116884   4.451   4.812   1.267
 5626TIP3    H216885   4.430   4.955   1.223
 5627TIP3   OH216886   2.689   2.409   0.279
 5627TIP3    H116887   2.775   2.439   0.308
 5627TIP3    H216888   2.691   2.314   0.292
 5628TIP3   OH216889   0.003   4.215   1.468
 5628TIP3    H116890  -0.068   4.254   1.418
 5628TIP3    H216891   0.059   4.289   1.492
 5629TIP3   OH216892   3.660   3.222   1.049
 5629TIP3    H116893   3.607   3.299   1.068
 5629TIP3    H216894   3.597   3.151   1.036
 5630TIP3   OH216895   1.728   3.553   0.944
 5630TIP3    H116896   1.776   3.495   0.886
 5630TIP3    H216897   1.731   3.510   1.030
 5631TIP3   OH216898   4.059   5.373   1.216
 5631TIP3    H116899   3.989   5.331   1.166
 5631TIP3    H216900   4.112   5.300   1.249
 5632TIP3   OH216901   5.680   3.466   0.871
 5632TIP3    H116902   5.710   3.521   0.799
 5632TIP3    H216903   5.738   3.490   0.944
 5633TIP3   OH216904   0.608   2.557   3.957
 5633TIP3    H116905   0.613   2.463   3.942
 5633TIP3    H216906   0.656   2.596   3.883
 5634TIP3   OH216907   1.042   3.653   5.151
 5634TIP3    H116908   0.960   3.696   5.128
 5634TIP3    H216909   1.084   3.635   5.067
 5635TIP3   OH216910   4.002   1.734   1.944
 5635TIP3    H116911   3.984   1.820   1.907
 5635TIP3    H216912   3.984   1.673   1.872
 5636TIP3   OH216913   3.341   1.573   3.687
 5636TIP3    H116914   3.308   1.554   3.775
 5636TIP3    H216915   3.389   1.494   3.662
 5637TIP3   OH216916   0.151   1.899   3.032
 5637TIP3    H116917   0.193   1.975   3.071
 5637TIP3    H216918   0.068   1.891   3.079
 5638TIP3   OH216919   5.194   0.784   3.612
 5638TIP3    H116920   5.176   0.720   3.543
 5638TIP3    H216921   5.146   0.862   3.586
 5639TIP3   OH216922   5.298   3.783   1.116
 5639TIP3    H116923   5.234   3.781   1.045
 5639TIP3    H216924   5.246   3.769   1.195
 5640TIP3   OH216925   0.762   0.527   3.636
 5640TIP3    H116926   0.766   0.443   3.681
 5640TIP3    H216927   0.778   0.507   3.544
 5641TIP3   OH216928   5.601   3.869   0.882
 5641TIP3    H116929   5.597   3.964   0.875
 5641TIP3    H216930   5.517   3.838   0.849
 5642TIP3   OH216931   0.164   1.792   1.000
 5642TIP3    H116932   0.218   1.727   1.045
 5642TIP3    H216933   0.084   1.746   0.977
 5643TIP3   OH216934   4.082   2.653   5.139
 5643TIP3    H116935   4.079   2.707   5.061
 5643TIP3    H216936   4.025   2.579   5.120
 5644TIP3   OH216937   2.888   5.172   2.212
 5644TIP3    H116938   2.909   5.151   2.122
 5644TIP3    H216939   2.958   5.232   2.240
 5645TIP3   OH216940   1.624   5.085   4.146
 5645TIP3    H116941   1.692   5.150   4.164
 5645TIP3    H216942   1.591   5.061   4.233
 5646TIP3   OH216943   4.482   4.932   2.402
 5646TIP3    H116944   4.551   4.997   2.416
 5646TIP3    H216945   4.401   4.979   2.418
 5647TIP3   OH216946   3.200   0.792   1.544
 5647TIP3    H116947   3.207   0.860   1.477
 5647TIP3    H216948   3.249   0.827   1.619
 5648TIP3   OH216949   4.547   3.208   5.029
 5648TIP3    H116950   4.527   3.286   4.978
 5648TIP3    H216951   4.496   3.138   4.986
 5649TIP3   OH216952   1.563   0.725   2.313
 5649TIP3    H116953   1.513   0.683   2.244
 5649TIP3    H216954   1.541   0.676   2.392
 5650TIP3   OH216955   0.084   0.230   4.618
 5650TIP3    H116956   0.018   0.249   4.686
 5650TIP3    H216957   0.041   0.169   4.559
 5651TIP3   OH216958   2.607   3.827   0.402
 5651TIP3    H116959   2.675   3.841   0.335
 5651TIP3    H216960   2.559   3.750   0.371
 5652TIP3   OH216961   1.894   2.082   1.908
 5652TIP3    H116962   1.984   2.049   1.914
 5652TIP3    H216963   1.890   2.153   1.972
 5653TIP3   OH216964   5.725   2.710   0.897
 5653TIP3    H116965   5.707   2.783   0.956
 5653TIP3    H216966   5.674   2.730   0.818
 5654TIP3   OH216967   0.886   2.173   2.126
 5654TIP3    H116968   0.856   2.236   2.192
 5654TIP3    H216969   0.862   2.087   2.162
 5655TIP3   OH216970   6.098   5.658   4.086
 5655TIP3    H116971   6.079   5.738   4.135
 5655TIP3    H216972   6.023   5.647   4.028
 5656TIP3   OH216973   3.824   2.858   3.906
 5656TIP3    H116974   3.779   2.803   3.842
 5656TIP3    H216975   3.871   2.797   3.962
 5657TIP3   OH216976   1.100   1.140   0.992
 5657TIP3    H116977   1.167   1.200   0.960
 5657TIP3    H216978   1.035   1.197   1.034
 5658TIP3   OH216979   2.306   1.866   4.150
 5658TIP3    H116980   2.332   1.882   4.241
 5658TIP3    H216981   2.388   1.846   4.105
 5659TIP3   OH216982   6.099   5.951   0.825
 5659TIP3    H116983   6.062   5.930   0.911
 5659TIP3    H216984   6.171   6.012   0.845
 5660TIP3   OH216985   2.194   5.738   1.094
 5660TIP3    H116986   2.215   5.827   1.065
 5660TIP3    H216987   2.161   5.749   1.183
 5661TIP3   OH216988   3.600   0.336   1.364
 5661TIP3    H116989   3.567   0.417   1.325
 5661TIP3    H216990   3.693   0.354   1.380
 5662TIP3   OH216991   1.383   3.758   3.853
 5662TIP3    H116992   1.446   3.688   3.838
 5662TIP3    H216993   1.424   3.814   3.919
 5663TIP3   OH216994   0.133   0.429   1.173
 5663TIP3    H116995   0.120   0.502   1.233
 5663TIP3    H216996   0.129   0.468   1.085
 5664TIP3   OH216997   6.011   3.517   3.540
 5664TIP3    H116998   6.000   3.526   3.635
 5664TIP3    H216999   6.022   3.607   3.508
 5665TIP3   OH217000   3.193   5.720   0.999
 5665TIP3    H117001   3.196   5.767   1.083
 5665TIP3    H217002   3.283   5.721   0.968
 5666TIP3   OH217003   1.123   2.779   3.061
 5666TIP3    H117004   1.137   2.687   3.038
 5666TIP3    H217005   1.056   2.809   3.000
 5667TIP3   OH217006   4.098   1.173   1.862
 5667TIP3    H117007   4.057   1.108   1.805
 5667TIP3    H217008   4.047   1.169   1.943
 5668TIP3   OH217009   6.025   2.484   2.872
 5668TIP3    H117010   5.992   2.489   2.962
 5668TIP3    H217011   6.035   2.390   2.856
 5669TIP3   OH217012   3.748   2.865   1.962
 5669TIP3    H117013   3.710   2.823   2.039
 5669TIP3    H217014   3.673   2.892   1.909
 5670TIP3   OH217015   2.315   5.677   2.116
 5670TIP3    H117016   2.286   5.767   2.129
 5670TIP3    H217017   2.236   5.624   2.126
 5671TIP3   OH217018   3.818   4.787   3.986
 5671TIP3    H117019   3.864   4.865   3.956
 5671TIP3    H217020   3.838   4.720   3.921
 5672TIP3   OH217021   4.876   3.325   0.543
 5672TIP3    H117022   4.893   3.281   0.460
 5672TIP3    H217023   4.944   3.393   0.547
 5673TIP3   OH217024   1.184   1.509   2.484
 5673TIP3    H117025   1.134   1.489   2.405
 5673TIP3    H217026   1.118   1.516   2.553
 5674TIP3   OH217027   1.712   2.652   0.787
 5674TIP3    H117028   1.717   2.688   0.699
 5674TIP3    H217029   1.733   2.559   0.776
 5675TIP3   OH217030   1.612   0.615   4.122
 5675TIP3    H117031   1.567   0.530   4.125
 5675TIP3    H217032   1.642   0.623   4.031
 5676TIP3   OH217033   3.302   5.315   2.763
 5676TIP3    H117034   3.359   5.243   2.790
 5676TIP3    H217035   3.236   5.273   2.708
 5677TIP3   OH217036   5.712   2.038   4.232
 5677TIP3    H117037   5.761   1.959   4.255
 5677TIP3    H217038   5.665   2.014   4.152
 5678TIP3   OH217039   5.470   5.129   2.958
 5678TIP3    H117040   5.393   5.073   2.969
 5678TIP3    H217041   5.447   5.187   2.885
 5679TIP3   OH217042   4.687   5.669   0.675
 5679TIP3    H117043   4.625   5.737   0.702
 5679TIP3    H217044   4.636   5.588   0.681
 5680TIP3   OH217045   3.299   3.337   2.434
 5680TIP3    H117046   3.255   3.253   2.451
 5680TIP3    H217047   3.283   3.353   2.340
 5681TIP3   OH217048   1.966   4.376   3.284
 5681TIP3    H117049   2.043   4.409   3.329
 5681TIP3    H217050   1.933   4.306   3.340
 5682TIP3   OH217051   1.426   2.125   2.775
 5682TIP3    H117052   1.357   2.068   2.743
 5682TIP3    H217053   1.381   2.190   2.829
 5683TIP3   OH217054   0.868   4.252   3.399
 5683TIP3    H117055   0.884   4.194   3.474
 5683TIP3    H217056   0.847   4.192   3.327
 5684TIP3   OH217057   1.673   2.276   4.701
 5684TIP3    H117058   1.620   2.196   4.699
 5684TIP3    H217059   1.706   2.280   4.790
 5685TIP3   OH217060   4.563   2.352   3.304
 5685TIP3    H117061   4.488   2.339   3.246
 5685TIP3    H217062   4.524   2.367   3.390
 5686TIP3   OH217063   1.664   0.820   2.736
 5686TIP3    H117064   1.741   0.796   2.788
 5686TIP3    H217065   1.618   0.884   2.790
 5687TIP3   OH217066   6.245   2.368   4.022
 5687TIP3    H117067   6.159   2.386   3.985
 5687TIP3    H217068   6.244   2.274   4.039
 5688TIP3   OH217069   5.424   5.318   3.143
 5688TIP3    H117070   5.508   5.313   3.190
 5688TIP3    H217071   5.433   5.254   3.072
 5689TIP3   OH217072   0.634   1.264   0.143
 5689TIP3    H117073   0.567   1.281   0.209
 5689TIP3    H217074   0.678   1.348   0.131
 5690TIP3   OH217075   1.516   4.466   0.698
 5690TIP3    H117076   1.423   4.456   0.717
 5690TIP3    H217077   1.520   4.536   0.633
 5691TIP3   OH217078   0.074   2.223   3.079
 5691TIP3    H117079  -0.004   2.172   3.100
 5691TIP3    H217080   0.040   2.308   3.050
 5692TIP3   OH217081   0.186   2.860   3.879
 5692TIP3    H117082   0.252   2.813   3.929
 5692TIP3    H217083   0.148   2.793   3.821
 5693TIP3   OH217084   0.316   2.651   0.191
 5693TIP3    H117085   0.404   2.653   0.154
 5693TIP3    H217086   0.313   2.727   0.249
 5694TIP3   OH217087   0.845   1.385   0.398
 5694TIP3    H117088   0.833   1.357   0.489
 5694TIP3    H217089   0.904   1.320   0.361
 5695TIP3   OH217090   1.560   2.855   4.971
 5695TIP3    H117091   1.466   2.858   4.990
 5695TIP3    H217092   1.595   2.793   5.034
 5696TIP3   OH217093   1.690   2.228   2.578
 5696TIP3    H117094   1.597   2.206   2.577
 5696TIP3    H217095   1.700   2.286   2.654
 5697TIP3   OH217096   5.006   1.002   3.168
 5697TIP3    H117097   4.963   1.010   3.254
 5697TIP3    H217098   4.954   0.938   3.121
 5698TIP3   OH217099   4.249   3.127   0.293
 5698TIP3    H117100   4.155   3.123   0.311
 5698TIP3    H217101   4.256   3.120   0.198
 5699TIP3   OH217102   3.966   1.393   5.016
 5699TIP3    H117103   3.903   1.446   5.064
 5699TIP3    H217104   4.034   1.373   5.080
 5700TIP3   OH217105   2.825   4.975   4.512
 5700TIP3    H117106   2.748   4.944   4.465
 5700TIP3    H217107   2.806   5.066   4.533
 5701TIP3   OH217108   4.166   1.845   2.780
 5701TIP3    H117109   4.194   1.754   2.793
 5701TIP3    H217110   4.087   1.854   2.832
 5702TIP3   OH217111   5.122   0.276   3.081
 5702TIP3    H117112   5.172   0.277   3.000
 5702TIP3    H217113   5.075   0.193   3.080
 5703TIP3   OH217114   4.053   1.987   4.938
 5703TIP3    H117115   3.967   2.008   4.973
 5703TIP3    H217116   4.107   1.972   5.015
 5704TIP3   OH217117   5.384   2.177   1.413
 5704TIP3    H117118   5.336   2.135   1.342
 5704TIP3    H217119   5.352   2.132   1.492
 5705TIP3   OH217120   5.727   4.011   4.649
 5705TIP3    H117121   5.743   4.082   4.587
 5705TIP3    H217122   5.655   3.962   4.610
 5706TIP3   OH217123   0.625   3.320   0.606
 5706TIP3    H117124   0.652   3.277   0.687
 5706TIP3    H217125   0.570   3.256   0.562
 5707TIP3   OH217126   3.818   1.953   3.762
 5707TIP3    H117127   3.902   1.912   3.743
 5707TIP3    H217128   3.780   1.899   3.831
 5708TIP3   OH217129   1.164   0.553   4.040
 5708TIP3    H117130   1.211   0.573   3.959
 5708TIP3    H217131   1.089   0.613   4.040
 5709TIP3   OH217132   4.938   0.505   4.528
 5709TIP3    H117133   4.939   0.426   4.476
 5709TIP3    H217134   4.865   0.494   4.589
 5710TIP3   OH217135   0.319   5.596   3.888
 5710TIP3    H117136   0.386   5.537   3.851
 5710TIP3    H217137   0.310   5.567   3.979
 5711TIP3   OH217138   3.817   0.229   4.461
 5711TIP3    H117139   3.878   0.155   4.462
 5711TIP3    H217140   3.805   0.248   4.368
 5712TIP3   OH217141   1.644   2.530   4.118
 5712TIP3    H117142   1.718   2.551   4.174
 5712TIP3    H217143   1.637   2.435   4.121
 5713TIP3   OH217144   3.157   4.233   3.585
 5713TIP3    H117145   3.091   4.181   3.628
 5713TIP3    H217146   3.235   4.178   3.584
 5714TIP3   OH217147   6.178   2.140   0.307
 5714TIP3    H117148   6.230   2.132   0.228
 5714TIP3    H217149   6.173   2.235   0.323
 5715TIP3   OH217150   2.053   3.218   3.503
 5715TIP3    H117151   2.133   3.180   3.466
 5715TIP3    H217152   1.994   3.227   3.428
 5716TIP3   OH217153   1.766   3.601   4.712
 5716TIP3    H117154   1.786   3.693   4.692
 5716TIP3    H217155   1.682   3.585   4.669
 5717TIP3   OH217156   2.891   3.545   2.820
 5717TIP3    H117157   2.866   3.478   2.756
 5717TIP3    H217158   2.950   3.603   2.772
 5718TIP3   OH217159   1.980   1.929   0.256
 5718TIP3    H117160   2.049   1.898   0.315
 5718TIP3    H217161   1.915   1.969   0.314
 5719TIP3   OH217162   4.221   3.963   3.300
 5719TIP3    H117163   4.138   3.961   3.349
 5719TIP3    H217164   4.195   3.966   3.208
 5720TIP3   OH217165   4.848   4.632   2.252
 5720TIP3    H117166   4.837   4.632   2.347
 5720TIP3    H217167   4.824   4.721   2.225
 5721TIP3   OH217168   3.405   0.193   1.983
 5721TIP3    H117169   3.354   0.130   2.035
 5721TIP3    H217170   3.434   0.143   1.907
 5722TIP3   OH217171   3.832   1.688   3.951
 5722TIP3    H117172   3.828   1.666   3.858
 5722TIP3    H217173   3.901   1.632   3.987
 5723TIP3   OH217174   5.157   2.588   4.757
 5723TIP3    H117175   5.188   2.503   4.788
 5723TIP3    H217176   5.235   2.632   4.723
 5724TIP3   OH217177   5.263   4.879   4.065
 5724TIP3    H117178   5.357   4.894   4.059
 5724TIP3    H217179   5.242   4.894   4.157
 5725TIP3   OH217180   4.849   1.492   3.759
 5725TIP3    H117181   4.922   1.544   3.726
 5725TIP3    H217182   4.882   1.402   3.761
 5726TIP3   OH217183   0.323   0.167   4.936
 5726TIP3    H117184   0.306   0.226   4.863
 5726TIP3    H217185   0.410   0.131   4.917
 5727TIP3   OH217186   5.444   2.437   1.345
 5727TIP3    H117187   5.473   2.466   1.431
 5727TIP3    H217188   5.417   2.347   1.358
 5728TIP3   OH217189   1.029   5.417   2.905
 5728TIP3    H117190   1.018   5.492   2.846
 5728TIP3    H217191   1.123   5.412   2.919
 5729TIP3   OH217192   3.698   3.275   4.550
 5729TIP3    H117193   3.646   3.203   4.514
 5729TIP3    H217194   3.729   3.323   4.473
 5730TIP3   OH217195   5.133   5.518   2.018
 5730TIP3    H117196   5.227   5.528   1.999
 5730TIP3    H217197   5.089   5.538   1.936
 5731TIP3   OH217198   0.132   1.721   1.341
 5731TIP3    H117199   0.104   1.631   1.328
 5731TIP3    H217200   0.220   1.726   1.304
 5732TIP3   OH217201   2.322   4.727   0.627
 5732TIP3    H117202   2.244   4.754   0.579
 5732TIP3    H217203   2.308   4.762   0.716
 5733TIP3   OH217204   1.246   1.354   3.418
 5733TIP3    H117205   1.301   1.395   3.351
 5733TIP3    H217206   1.279   1.265   3.426
 5734TIP3   OH217207   0.012   5.627   4.480
 5734TIP3    H117208   0.046   5.697   4.536
 5734TIP3    H217209  -0.083   5.629   4.493
 5735TIP3   OH217210   0.119   0.705   5.108
 5735TIP3    H117211   0.166   0.788   5.105
 5735TIP3    H217212   0.027   0.729   5.094
 5736TIP3   OH217213   3.823   4.740   1.163
 5736TIP3    H117214   3.843   4.832   1.178
 5736TIP3    H217215   3.903   4.705   1.123
 5737TIP3   OH217216   4.246   3.529   2.894
 5737TIP3    H117217   4.287   3.569   2.818
 5737TIP3    H217218   4.319   3.494   2.945
 5738TIP3   OH217219   2.583   3.103   3.496
 5738TIP3    H117220   2.667   3.101   3.542
 5738TIP3    H217221   2.591   3.177   3.436
 5739TIP3   OH217222   2.881   4.318   3.824
 5739TIP3    H117223   2.860   4.332   3.732
 5739TIP3    H217224   2.797   4.298   3.865
 5740TIP3   OH217225   5.928   5.125   5.047
 5740TIP3    H117226   5.981   5.194   5.088
 5740TIP3    H217227   5.948   5.046   5.096
 5741TIP3   OH217228   3.095   4.372   3.099
 5741TIP3    H117229   3.159   4.431   3.139
 5741TIP3    H217230   3.104   4.387   3.005
 5742TIP3   OH217231   2.525   2.635   4.613
 5742TIP3    H117232   2.604   2.616   4.664
 5742TIP3    H217233   2.527   2.571   4.542
 5743TIP3   OH217234   4.853   1.029   2.337
 5743TIP3    H117235   4.831   1.102   2.279
 5743TIP3    H217236   4.917   0.977   2.287
 5744TIP3   OH217237   0.909   0.071   0.073
 5744TIP3    H117238   0.888  -0.001   0.013
 5744TIP3    H217239   0.945   0.139   0.016
 5745TIP3   OH217240   4.019   3.522   1.463
 5745TIP3    H117241   4.016   3.576   1.385
 5745TIP3    H217242   3.932   3.530   1.502
 5746TIP3   OH217243   5.251   0.999   2.045
 5746TIP3    H117244   5.182   0.968   2.105
 5746TIP3    H217245   5.217   0.981   1.958
 5747TIP3   OH217246   3.623   5.779   1.379
 5747TIP3    H117247   3.597   5.808   1.291
 5747TIP3    H217248   3.718   5.784   1.379
 5748TIP3   OH217249   3.860   2.565   2.921
 5748TIP3    H117250   3.866   2.488   2.865
 5748TIP3    H217251   3.782   2.551   2.974
 5749TIP3   OH217252   5.884   4.607   3.819
 5749TIP3    H117253   5.886   4.552   3.740
 5749TIP3    H217254   5.800   4.654   3.813
 5750TIP3   OH217255   4.374   2.174   4.338
 5750TIP3    H117256   4.341   2.163   4.249
 5750TIP3    H217257   4.456   2.222   4.328
 5751TIP3   OH217258   0.235   3.522   4.055
 5751TIP3    H117259   0.194   3.463   3.992
 5751TIP3    H217260   0.317   3.550   4.012
 5752TIP3   OH217261   2.540   3.271   4.402
 5752TIP3    H117262   2.484   3.222   4.342
 5752TIP3    H217263   2.509   3.361   4.396
 5753TIP3   OH217264   5.656   1.884   0.578
 5753TIP3    H117265   5.703   1.954   0.623
 5753TIP3    H217266   5.724   1.831   0.536
 5754TIP3   OH217267   5.861   5.899   0.444
 5754TIP3    H117268   5.798   5.858   0.384
 5754TIP3    H217269   5.910   5.826   0.481
 5755TIP3   OH217270   0.185   1.983   4.812
 5755TIP3    H117271   0.107   2.034   4.834
 5755TIP3    H217272   0.157   1.892   4.823
 5756TIP3   OH217273   0.134   4.466   0.641
 5756TIP3    H117274   0.227   4.474   0.665
 5756TIP3    H217275   0.090   4.439   0.721
 5757TIP3   OH217276   1.607   2.369   2.918
 5757TIP3    H117277   1.517   2.358   2.890
 5757TIP3    H217278   1.628   2.460   2.895
 5758TIP3   OH217279   2.613   5.977   2.301
 5758TIP3    H117280   2.601   5.888   2.332
 5758TIP3    H217281   2.536   5.995   2.246
 5759TIP3   OH217282   6.166   3.281   1.336
 5759TIP3    H117283   6.253   3.246   1.355
 5759TIP3    H217284   6.176   3.376   1.343
 5760TIP3   OH217285   5.971   4.025   3.642
 5760TIP3    H117286   5.912   4.049   3.714
 5760TIP3    H217287   6.003   4.108   3.608
 5761TIP3   OH217288   2.077   5.885   2.363
 5761TIP3    H117289   1.985   5.861   2.373
 5761TIP3    H217290   2.085   5.911   2.272
 5762TIP3   OH217291   0.702   2.774   2.577
 5762TIP3    H117292   0.635   2.743   2.516
 5762TIP3    H217293   0.777   2.795   2.521
 5763TIP3   OH217294   3.603   5.745   3.383
 5763TIP3    H117295   3.527   5.777   3.432
 5763TIP3    H217296   3.654   5.696   3.447
 5764TIP3   OH217297   3.086   4.388   1.161
 5764TIP3    H117298   3.125   4.454   1.104
 5764TIP3    H217299   3.158   4.362   1.219
 5765TIP3   OH217300   2.373   2.740   0.166
 5765TIP3    H117301   2.325   2.819   0.189
 5765TIP3    H217302   2.463   2.758   0.196
 5766TIP3   OH217303   4.923   5.916   4.259
 5766TIP3    H117304   4.862   5.974   4.305
 5766TIP3    H217305   4.912   5.938   4.166
 5767TIP3   OH217306   2.467   2.081   4.570
 5767TIP3    H117307   2.386   2.056   4.614
 5767TIP3    H217308   2.517   2.127   4.637
 5768TIP3   OH217309   2.292   5.869   3.841
 5768TIP3    H117310   2.235   5.804   3.882
 5768TIP3    H217311   2.325   5.921   3.914
 5769TIP3   OH217312   6.208   0.180   1.438
 5769TIP3    H117313   6.212   0.236   1.361
 5769TIP3    H217314   6.236   0.236   1.510
 5770TIP3   OH217315   3.693   4.123   2.734
 5770TIP3    H117316   3.722   4.116   2.643
 5770TIP3    H217317   3.675   4.033   2.761
 5771TIP3   OH217318   3.981   2.087   4.520
 5771TIP3    H117319   4.040   2.162   4.509
 5771TIP3    H217320   4.038   2.011   4.518
 5772TIP3   OH217321   3.127   4.369   4.320
 5772TIP3    H117322   3.072   4.417   4.382
 5772TIP3    H217323   3.086   4.383   4.235
 5773TIP3   OH217324   5.211   2.206   3.739
 5773TIP3    H117325   5.207   2.238   3.830
 5773TIP3    H217326   5.120   2.183   3.718
 5774TIP3   OH217327   2.861   3.261   2.259
 5774TIP3    H117328   2.869   3.242   2.352
 5774TIP3    H217329   2.767   3.270   2.244
 5775TIP3   OH217330   3.934   3.077   3.709
 5775TIP3    H117331   3.905   3.152   3.761
 5775TIP3    H217332   3.936   3.004   3.771
 5776TIP3   OH217333   4.439   0.990   2.007
 5776TIP3    H117334   4.483   0.961   2.087
 5776TIP3    H217335   4.491   1.064   1.977
 5777TIP3   OH217336   0.878   4.411   1.689
 5777TIP3    H117337   0.875   4.355   1.611
 5777TIP3    H217338   0.816   4.371   1.750
 5778TIP3   OH217339   3.324   1.396   5.110
 5778TIP3    H117340   3.396   1.375   5.050
 5778TIP3    H217341   3.336   1.490   5.128
 5779TIP3   OH217342   5.716   0.208   2.092
 5779TIP3    H117343   5.740   0.124   2.053
 5779TIP3    H217344   5.797   0.259   2.089
 5780TIP3   OH217345   5.157   0.485   3.994
 5780TIP3    H117346   5.135   0.484   3.901
 5780TIP3    H217347   5.242   0.441   3.999
 5781TIP3   OH217348   5.264   3.332   2.601
 5781TIP3    H117349   5.242   3.356   2.511
 5781TIP3    H217350   5.250   3.412   2.651
 5782TIP3   OH217351   2.245   2.188   2.588
 5782TIP3    H117352   2.258   2.186   2.493
 5782TIP3    H217353   2.299   2.262   2.617
 5783TIP3   OH217354   2.623   5.409   0.288
 5783TIP3    H117355   2.680   5.484   0.271
 5783TIP3    H217356   2.539   5.433   0.250
 5784TIP3   OH217357   6.073   1.429   4.814
 5784TIP3    H117358   6.069   1.479   4.896
 5784TIP3    H217359   6.115   1.347   4.838
 5785TIP3   OH217360   3.071   0.251   3.493
 5785TIP3    H117361   3.147   0.248   3.434
 5785TIP3    H217362   3.029   0.335   3.474
 5786TIP3   OH217363   0.530   0.780   1.654
 5786TIP3    H117364   0.596   0.741   1.597
 5786TIP3    H217365   0.520   0.717   1.726
 5787TIP3   OH217366   1.414   2.269   1.733
 5787TIP3    H117367   1.414   2.297   1.642
 5787TIP3    H217368   1.504   2.281   1.763
 5788TIP3   OH217369   3.518   4.159   1.330
 5788TIP3    H117370   3.568   4.227   1.373
 5788TIP3    H217371   3.571   4.135   1.254
 5789TIP3   OH217372   4.412   1.154   3.607
 5789TIP3    H117373   4.496   1.196   3.624
 5789TIP3    H217374   4.362   1.166   3.688
 5790TIP3   OH217375   5.786   3.966   3.202
 5790TIP3    H117376   5.777   3.947   3.295
 5790TIP3    H217377   5.867   4.017   3.196
 5791TIP3   OH217378   2.759   4.407   2.465
 5791TIP3    H117379   2.843   4.395   2.421
 5791TIP3    H217380   2.758   4.499   2.490
 5792TIP3   OH217381   1.630   4.330   2.006
 5792TIP3    H117382   1.549   4.380   1.995
 5792TIP3    H217383   1.616   4.250   1.955
 5793TIP3   OH217384   2.851   2.804   1.582
 5793TIP3    H117385   2.848   2.875   1.519
 5793TIP3    H217386   2.795   2.832   1.653
 5794TIP3   OH217387   4.846   1.607   4.332
 5794TIP3    H117388   4.899   1.687   4.320
 5794TIP3    H217389   4.908   1.535   4.320
 5795TIP3   OH217390   3.963   1.239   0.757
 5795TIP3    H117391   3.885   1.204   0.800
 5795TIP3    H217392   3.966   1.194   0.672
 5796TIP3   OH217393   2.821   1.610   2.957
 5796TIP3    H117394   2.885   1.629   2.889
 5796TIP3    H217395   2.854   1.655   3.034
 5797TIP3   OH217396   5.210   4.495   3.148
 5797TIP3    H117397   5.269   4.428   3.113
 5797TIP3    H217398   5.241   4.577   3.110
 5798TIP3   OH217399   5.866   4.332   1.647
 5798TIP3    H117400   5.833   4.403   1.593
 5798TIP3    H217401   5.902   4.376   1.724
 5799TIP3   OH217402   1.595   0.408   0.446
 5799TIP3    H117403   1.576   0.338   0.384
 5799TIP3    H217404   1.531   0.476   0.427
 5800TIP3   OH217405   2.434   4.822   2.848
 5800TIP3    H117406   2.386   4.870   2.916
 5800TIP3    H217407   2.514   4.792   2.893
 5801TIP3   OH217408   5.030   1.972   2.470
 5801TIP3    H117409   5.092   2.030   2.426
 5801TIP3    H217410   5.022   2.008   2.558
 5802TIP3   OH217411   3.438   0.676   3.525
 5802TIP3    H117412   3.413   0.587   3.499
 5802TIP3    H217413   3.534   0.676   3.525
 5803TIP3   OH217414   0.443   3.803   0.309
 5803TIP3    H117415   0.392   3.780   0.388
 5803TIP3    H217416   0.383   3.785   0.237
 5804TIP3   OH217417   3.697   2.187   3.929
 5804TIP3    H117418   3.745   2.202   4.010
 5804TIP3    H217419   3.762   2.152   3.869
 5805TIP3   OH217420   5.812   5.883   1.820
 5805TIP3    H117421   5.861   5.965   1.814
 5805TIP3    H217422   5.810   5.850   1.730
 5806TIP3   OH217423   0.422   4.408   1.023
 5806TIP3    H117424   0.426   4.320   0.986
 5806TIP3    H217425   0.442   4.396   1.116
 5807TIP3   OH217426   4.928   1.680   3.506
 5807TIP3    H117427   4.911   1.586   3.498
 5807TIP3    H217428   4.893   1.718   3.425
 5808TIP3   OH217429   0.089   2.690   3.143
 5808TIP3    H117430   0.057   2.708   3.055
 5808TIP3    H217431   0.167   2.745   3.153
 5809TIP3   OH217432   2.358   5.820   4.441
 5809TIP3    H117433   2.324   5.734   4.467
 5809TIP3    H217434   2.309   5.882   4.495
 5810TIP3   OH217435   6.187   5.259   2.172
 5810TIP3    H117436   6.095   5.233   2.173
 5810TIP3    H217437   6.223   5.219   2.251
 5811TIP3   OH217438   1.701   0.390   2.111
 5811TIP3    H117439   1.607   0.377   2.097
 5811TIP3    H217440   1.709   0.484   2.129
 5812TIP3   OH217441   4.750   5.840   3.363
 5812TIP3    H117442   4.837   5.838   3.404
 5812TIP3    H217443   4.736   5.932   3.342
 5813TIP3   OH217444   0.346   4.876   1.448
 5813TIP3    H117445   0.317   4.860   1.358
 5813TIP3    H217446   0.269   4.858   1.501
 5814TIP3   OH217447   3.081   2.013   2.810
 5814TIP3    H117448   3.028   2.039   2.735
 5814TIP3    H217449   3.052   2.070   2.881
 5815TIP3   OH217450   4.103   1.531   0.023
 5815TIP3    H117451   4.013   1.526  -0.007
 5815TIP3    H217452   4.115   1.622   0.049
 5816TIP3   OH217453   0.788   1.572   1.174
 5816TIP3    H117454   0.765   1.484   1.143
 5816TIP3    H217455   0.785   1.626   1.095
 5817TIP3   OH217456   6.256   3.964   4.889
 5817TIP3    H117457   6.241   3.869   4.889
 5817TIP3    H217458   6.275   3.985   4.798
 5818TIP3   OH217459   4.166   5.848   2.907
 5818TIP3    H117460   4.096   5.839   2.842
 5818TIP3    H217461   4.245   5.819   2.861
 5819TIP3   OH217462   0.757   1.605   3.317
 5819TIP3    H117463   0.820   1.645   3.377
 5819TIP3    H217464   0.731   1.677   3.258
 5820TIP3   OH217465   6.193   5.030   0.046
 5820TIP3    H117466   6.104   4.998   0.064
 5820TIP3    H217467   6.250   4.959   0.076
 5821TIP3   OH217468   4.363   4.010   3.519
 5821TIP3    H117469   4.431   3.945   3.536
 5821TIP3    H217470   4.337   3.994   3.428
 5822TIP3   OH217471   5.931   1.984   2.846
 5822TIP3    H117472   5.945   1.907   2.790
 5822TIP3    H217473   5.926   1.949   2.935
 5823TIP3   OH217474   0.495   2.193   2.351
 5823TIP3    H117475   0.578   2.234   2.376
 5823TIP3    H217476   0.494   2.109   2.399
 5824TIP3   OH217477   0.614   0.886   0.657
 5824TIP3    H117478   0.661   0.907   0.577
 5824TIP3    H217479   0.659   0.809   0.692
 5825TIP3   OH217480   5.927   2.069   4.685
 5825TIP3    H117481   5.961   2.028   4.606
 5825TIP3    H217482   5.953   2.010   4.756
 5826TIP3   OH217483   5.314   5.561   0.401
 5826TIP3    H117484   5.260   5.608   0.464
 5826TIP3    H217485   5.402   5.561   0.441
 5827TIP3   OH217486   4.547   0.220   3.413
 5827TIP3    H117487   4.500   0.155   3.464
 5827TIP3    H217488   4.498   0.227   3.331
 5828TIP3   OH217489   5.041   1.864   0.534
 5828TIP3    H117490   5.092   1.789   0.503
 5828TIP3    H217491   5.033   1.920   0.457
 5829TIP3   OH217492   2.799   4.059   0.678
 5829TIP3    H117493   2.811   4.087   0.587
 5829TIP3    H217494   2.859   3.986   0.689
 5830TIP3   OH217495   1.488   2.330   0.205
 5830TIP3    H117496   1.468   2.403   0.145
 5830TIP3    H217497   1.565   2.289   0.167
 5831TIP3   OH217498   0.706   3.730   3.508
 5831TIP3    H117499   0.664   3.680   3.579
 5831TIP3    H217500   0.798   3.735   3.535
 5832TIP3   OH217501   1.658   3.886   0.013
 5832TIP3    H117502   1.575   3.931  -0.002
 5832TIP3    H217503   1.639   3.824   0.083
 5833TIP3   OH217504   3.214   0.124   1.535
 5833TIP3    H117505   3.180   0.202   1.577
 5833TIP3    H217506   3.275   0.157   1.469
 5834TIP3   OH217507   0.347   4.353   1.571
 5834TIP3    H117508   0.297   4.364   1.652
 5834TIP3    H217509   0.338   4.260   1.550
 5835TIP3   OH217510   4.285   0.676   4.806
 5835TIP3    H117511   4.330   0.592   4.798
 5835TIP3    H217512   4.341   0.728   4.863
 5836TIP3   OH217513   1.013   4.089   4.455
 5836TIP3    H117514   0.950   4.068   4.525
 5836TIP3    H217515   1.096   4.055   4.488
 5837TIP3   OH217516   3.567   4.001   3.375
 5837TIP3    H117517   3.605   4.052   3.304
 5837TIP3    H217518   3.617   3.919   3.376
 5838TIP3   OH217519   4.398   5.530   3.593
 5838TIP3    H117520   4.316   5.505   3.549
 5838TIP3    H217521   4.454   5.561   3.522
 5839TIP3   OH217522   0.413   2.739   1.179
 5839TIP3    H117523   0.489   2.743   1.121
 5839TIP3    H217524   0.340   2.768   1.124
 5840TIP3   OH217525   1.758   4.797   4.078
 5840TIP3    H117526   1.756   4.800   4.173
 5840TIP3    H217527   1.790   4.883   4.051
 5841TIP3   OH217528   1.765   0.505   1.456
 5841TIP3    H117529   1.860   0.512   1.467
 5841TIP3    H217530   1.729   0.548   1.533
 5842TIP3   OH217531   2.224   3.931   1.400
 5842TIP3    H117532   2.279   3.972   1.334
 5842TIP3    H217533   2.284   3.906   1.470
 5843TIP3   OH217534   2.451   1.362   5.076
 5843TIP3    H117535   2.424   1.291   5.134
 5843TIP3    H217536   2.519   1.323   5.020
 5844TIP3   OH217537   0.109   3.043   4.915
 5844TIP3    H117538   0.131   3.134   4.896
 5844TIP3    H217539   0.048   3.018   4.847
 5845TIP3   OH217540   4.892   0.831   2.948
 5845TIP3    H117541   4.891   0.766   2.878
 5845TIP3    H217542   4.807   0.821   2.991
 5846TIP3   OH217543   1.570   2.975   4.198
 5846TIP3    H117544   1.618   3.055   4.177
 5846TIP3    H217545   1.496   2.975   4.137
 5847TIP3   OH217546   4.031   5.576   4.421
 5847TIP3    H117547   3.980   5.500   4.450
 5847TIP3    H217548   4.118   5.561   4.459
 5848TIP3   OH217549   3.265   3.737   0.114
 5848TIP3    H117550   3.333   3.800   0.137
 5848TIP3    H217551   3.309   3.672   0.059
 5849TIP3   OH217552   2.052   3.455   4.014
 5849TIP3    H117553   2.138   3.457   4.056
 5849TIP3    H217554   2.069   3.425   3.925
 5850TIP3   OH217555   5.984   4.578   2.990
 5850TIP3    H117556   5.931   4.655   3.009
 5850TIP3    H217557   5.959   4.514   3.056
 5851TIP3   OH217558   4.196   0.307   0.096
 5851TIP3    H117559   4.160   0.358   0.169
 5851TIP3    H217560   4.267   0.362   0.062
 5852TIP3   OH217561   0.420   0.831   2.012
 5852TIP3    H117562   0.488   0.893   2.039
 5852TIP3    H217563   0.351   0.840   2.078
 5853TIP3   OH217564   2.310   1.491   1.074
 5853TIP3    H117565   2.365   1.522   1.146
 5853TIP3    H217566   2.250   1.429   1.115
 5854TIP3   OH217567   6.092   2.325   2.361
 5854TIP3    H117568   6.048   2.363   2.286
 5854TIP3    H217569   6.022   2.301   2.421
 5855TIP3   OH217570   1.528   2.961   2.300
 5855TIP3    H117571   1.467   2.987   2.368
 5855TIP3    H217572   1.490   2.882   2.262
 5856TIP3   OH217573   2.204   0.935   3.453
 5856TIP3    H117574   2.110   0.945   3.439
 5856TIP3    H217575   2.214   0.852   3.499
 5857TIP3   OH217576   2.651   5.222   3.026
 5857TIP3    H117577   2.636   5.182   2.940
 5857TIP3    H217578   2.722   5.285   3.011
 5858TIP3   OH217579   3.523   0.070   2.283
 5858TIP3    H117580   3.487   0.141   2.337
 5858TIP3    H217581   3.446   0.020   2.257
 5859TIP3   OH217582   4.609   2.130   5.155
 5859TIP3    H117583   4.525   2.085   5.142
 5859TIP3    H217584   4.590   2.222   5.135
 5860TIP3   OH217585   4.571   4.540   4.906
 5860TIP3    H117586   4.646   4.530   4.965
 5860TIP3    H217587   4.553   4.451   4.875
 5861TIP3   OH217588   3.442   0.966   4.556
 5861TIP3    H117589   3.363   0.919   4.583
 5861TIP3    H217590   3.436   1.051   4.599
 5862TIP3   OH217591   4.828   5.362   1.443
 5862TIP3    H117592   4.762   5.425   1.472
 5862TIP3    H217593   4.874   5.407   1.371
 5863TIP3   OH217594   3.115   2.003   0.799
 5863TIP3    H117595   3.048   2.072   0.799
 5863TIP3    H217596   3.098   1.954   0.718
 5864TIP3   OH217597   3.532   2.719   4.516
 5864TIP3    H117598   3.606   2.742   4.573
 5864TIP3    H217599   3.562   2.740   4.428
 5865TIP3   OH217600   6.289   5.032   5.036
 5865TIP3    H117601   6.299   5.015   4.942
 5865TIP3    H217602   6.318   5.122   5.048
 5866TIP3   OH217603   3.550   3.059   3.661
 5866TIP3    H117604   3.569   3.151   3.640
 5866TIP3    H217605   3.560   3.054   3.757
 5867TIP3   OH217606   4.539   4.281   4.852
 5867TIP3    H117607   4.454   4.273   4.808
 5867TIP3    H217608   4.601   4.236   4.794
 5868TIP3   OH217609   5.114   5.742   4.016
 5868TIP3    H117610   5.060   5.819   4.029
 5868TIP3    H217611   5.201   5.769   4.046
 5869TIP3   OH217612   5.609   2.837   1.105
 5869TIP3    H117613   5.634   2.780   1.178
 5869TIP3    H217614   5.516   2.856   1.119
 5870TIP3   OH217615   5.523   4.620   1.383
 5870TIP3    H117616   5.550   4.570   1.305
 5870TIP3    H217617   5.471   4.559   1.434
 5871TIP3   OH217618   0.963   2.739   3.297
 5871TIP3    H117619   1.022   2.750   3.222
 5871TIP3    H217620   0.923   2.654   3.283
 5872TIP3   OH217621   5.623   5.034   0.150
 5872TIP3    H117622   5.593   5.067   0.235
 5872TIP3    H217623   5.571   5.083   0.086
 5873TIP3   OH217624   4.714   4.151   4.688
 5873TIP3    H117625   4.804   4.185   4.686
 5873TIP3    H217626   4.687   4.150   4.596
 5874TIP3   OH217627   5.267   2.567   4.215
 5874TIP3    H117628   5.262   2.637   4.281
 5874TIP3    H217629   5.359   2.544   4.212
 5875TIP3   OH217630   0.670   2.732   3.197
 5875TIP3    H117631   0.674   2.758   3.289
 5875TIP3    H217632   0.677   2.636   3.199
 5876TIP3   OH217633   1.303   0.468   4.270
 5876TIP3    H117634   1.279   0.532   4.337
 5876TIP3    H217635   1.281   0.511   4.187
 5877TIP3   OH217636   6.037   3.230   3.498
 5877TIP3    H117637   6.086   3.217   3.417
 5877TIP3    H217638   6.046   3.324   3.517
 5878TIP3   OH217639   2.309   2.311   4.841
 5878TIP3    H117640   2.397   2.284   4.815
 5878TIP3    H217641   2.303   2.403   4.815
 5879TIP3   OH217642   0.018   0.221   5.031
 5879TIP3    H117643   0.021   0.207   5.126
 5879TIP3    H217644  -0.015   0.138   4.996
 5880TIP3   OH217645   3.965   3.887   1.010
 5880TIP3    H117646   3.987   3.887   0.916
 5880TIP3    H217647   3.871   3.867   1.013
 5881TIP3   OH217648   5.028   2.449   4.222
 5881TIP3    H117649   5.046   2.376   4.163
 5881TIP3    H217650   5.113   2.494   4.230
 5882TIP3   OH217651   2.508   1.305   1.557
 5882TIP3    H117652   2.501   1.323   1.464
 5882TIP3    H217653   2.602   1.303   1.574
 5883TIP3   OH217654   3.297   4.469   0.172
 5883TIP3    H117655   3.277   4.548   0.123
 5883TIP3    H217656   3.369   4.428   0.123
 5884TIP3   OH217657   0.723   3.013   1.307
 5884TIP3    H117658   0.818   3.004   1.302
 5884TIP3    H217659   0.707   3.064   1.387
 5885TIP3   OH217660   0.524   1.550   4.709
 5885TIP3    H117661   0.600   1.542   4.767
 5885TIP3    H217662   0.519   1.643   4.689
 5886TIP3   OH217663   5.948   2.237   0.042
 5886TIP3    H117664   6.027   2.192   0.014
 5886TIP3    H217665   5.889   2.167   0.071
 5887TIP3   OH217666   6.051   4.703   1.831
 5887TIP3    H117667   6.093   4.750   1.759
 5887TIP3    H217668   6.068   4.758   1.908
 5888TIP3   OH217669   2.510   3.375   3.158
 5888TIP3    H117670   2.520   3.283   3.133
 5888TIP3    H217671   2.560   3.384   3.239
 5889TIP3   OH217672   1.207   5.718   1.909
 5889TIP3    H117673   1.174   5.779   1.842
 5889TIP3    H217674   1.155   5.638   1.895
 5890TIP3   OH217675   4.358   3.199   2.952
 5890TIP3    H117676   4.335   3.191   2.860
 5890TIP3    H217677   4.410   3.120   2.971
 5891TIP3   OH217678   0.383   1.324   4.654
 5891TIP3    H117679   0.438   1.402   4.660
 5891TIP3    H217680   0.420   1.265   4.720
 5892TIP3   OH217681   5.991   4.376   1.000
 5892TIP3    H117682   5.930   4.388   1.073
 5892TIP3    H217683   6.064   4.434   1.020
 5893TIP3   OH217684   4.145   1.138   1.114
 5893TIP3    H117685   4.084   1.066   1.129
 5893TIP3    H217686   4.166   1.133   1.020
 5894TIP3   OH217687   2.802   1.298   0.106
 5894TIP3    H117688   2.764   1.212   0.127
 5894TIP3    H217689   2.830   1.290   0.015
 5895TIP3   OH217690   3.923   2.401   2.103
 5895TIP3    H117691   4.006   2.395   2.149
 5895TIP3    H217692   3.916   2.494   2.079
 5896TIP3   OH217693   4.800   0.318   2.813
 5896TIP3    H117694   4.870   0.376   2.841
 5896TIP3    H217695   4.768   0.356   2.731
 5897TIP3   OH217696   1.177   4.638   2.472
 5897TIP3    H117697   1.197   4.553   2.432
 5897TIP3    H217698   1.098   4.667   2.428
 5898TIP3   OH217699   1.029   5.225   3.552
 5898TIP3    H117700   0.953   5.266   3.511
 5898TIP3    H217701   1.103   5.280   3.527
 5899TIP3   OH217702   6.241   3.585   4.044
 5899TIP3    H117703   6.313   3.647   4.031
 5899TIP3    H217704   6.177   3.633   4.095
 5900TIP3   OH217705   6.269   5.401   3.299
 5900TIP3    H117706   6.175   5.387   3.312
 5900TIP3    H217707   6.307   5.394   3.386
 5901TIP3   OH217708   2.110   2.808   4.446
 5901TIP3    H117709   2.125   2.768   4.532
 5901TIP3    H217710   2.041   2.872   4.461
 5902TIP3   OH217711   1.428   3.413   1.212
 5902TIP3    H117712   1.506   3.384   1.259
 5902TIP3    H217713   1.355   3.383   1.265
 5903TIP3   OH217714   5.461   0.951   2.355
 5903TIP3    H117715   5.507   0.972   2.273
 5903TIP3    H217716   5.525   0.970   2.424
 5904TIP3   OH217717   3.692   1.370   0.604
 5904TIP3    H117718   3.721   1.279   0.595
 5904TIP3    H217719   3.707   1.408   0.517
 5905TIP3   OH217720   4.312   3.021   4.935
 5905TIP3    H117721   4.267   2.951   4.982
 5905TIP3    H217722   4.358   2.977   4.864
 5906TIP3   OH217723   4.955   1.011   4.509
 5906TIP3    H117724   5.023   0.972   4.453
 5906TIP3    H217725   4.969   1.105   4.501
 5907TIP3   OH217726   0.759   4.826   0.916
 5907TIP3    H117727   0.813   4.790   0.986
 5907TIP3    H217728   0.727   4.910   0.950
 5908TIP3   OH217729   4.927   5.604   4.649
 5908TIP3    H117730   4.973   5.524   4.623
 5908TIP3    H217731   4.911   5.651   4.567
 5909TIP3   OH217732   0.772   4.426   2.193
 5909TIP3    H117733   0.720   4.403   2.269
 5909TIP3    H217734   0.719   4.400   2.118
 5910TIP3   OH217735   0.427   5.044   0.252
 5910TIP3    H117736   0.517   5.066   0.229
 5910TIP3    H217737   0.375   5.066   0.175
 5911TIP3   OH217738   1.053   2.428   3.507
 5911TIP3    H117739   1.129   2.389   3.550
 5911TIP3    H217740   1.070   2.416   3.414
 5912TIP3   OH217741   0.706   3.519   4.927
 5912TIP3    H117742   0.755   3.563   4.858
 5912TIP3    H217743   0.712   3.426   4.905
 5913TIP3   OH217744   1.279   2.848   5.019
 5913TIP3    H117745   1.250   2.830   5.109
 5913TIP3    H217746   1.197   2.858   4.970
 5914TIP3   OH217747   4.257   5.420   3.401
 5914TIP3    H117748   4.270   5.328   3.423
 5914TIP3    H217749   4.298   5.431   3.315
 5915TIP3   OH217750   4.889   3.214   0.271
 5915TIP3    H117751   4.818   3.248   0.216
 5915TIP3    H217752   4.946   3.167   0.210
 5916TIP3   OH217753   4.096   5.034   4.907
 5916TIP3    H117754   4.140   4.975   4.968
 5916TIP3    H217755   4.084   5.115   4.956
 5917TIP3   OH217756   6.182   3.054   0.256
 5917TIP3    H117757   6.235   2.975   0.268
 5917TIP3    H217758   6.120   3.031   0.187
 5918TIP3   OH217759   1.247   3.537   4.492
 5918TIP3    H117760   1.183   3.528   4.421
 5918TIP3    H217761   1.195   3.532   4.572
 5919TIP3   OH217762   2.530   5.940   0.996
 5919TIP3    H117763   2.489   5.923   1.081
 5919TIP3    H217764   2.552   5.854   0.961
 5920TIP3   OH217765   3.944   1.198   4.221
 5920TIP3    H117766   3.907   1.207   4.133
 5920TIP3    H217767   4.000   1.274   4.232
 5921TIP3   OH217768   2.163   4.489   3.451
 5921TIP3    H117769   2.239   4.546   3.439
 5921TIP3    H217770   2.140   4.498   3.543
 5922TIP3   OH217771   4.855   0.757   0.928
 5922TIP3    H117772   4.765   0.776   0.903
 5922TIP3    H217773   4.856   0.764   1.023
 5923TIP3   OH217774   0.861   1.780   2.428
 5923TIP3    H117775   0.914   1.809   2.502
 5923TIP3    H217776   0.781   1.745   2.469
 5924TIP3   OH217777   0.042   1.080   3.223
 5924TIP3    H117778  -0.017   1.005   3.224
 5924TIP3    H217779   0.124   1.046   3.186
 5925TIP3   OH217780   2.240   5.037   0.692
 5925TIP3    H117781   2.170   4.973   0.707
 5925TIP3    H217782   2.282   5.009   0.611
 5926TIP3   OH217783   5.426   1.130   1.362
 5926TIP3    H117784   5.442   1.225   1.359
 5926TIP3    H217785   5.341   1.122   1.405
 5927TIP3   OH217786   2.565   5.675   1.972
 5927TIP3    H117787   2.476   5.686   2.006
 5927TIP3    H217788   2.616   5.744   2.014
 5928TIP3   OH217789   6.162   2.686   2.343
 5928TIP3    H117790   6.230   2.620   2.335
 5928TIP3    H217791   6.202   2.766   2.309
 5929TIP3   OH217792   2.441   3.469   1.143
 5929TIP3    H117793   2.431   3.508   1.056
 5929TIP3    H217794   2.487   3.536   1.194
 5930TIP3   OH217795   3.840   0.735   4.531
 5930TIP3    H117796   3.910   0.750   4.595
 5930TIP3    H217797   3.809   0.646   4.550
 5931TIP3   OH217798   3.609   3.723   0.252
 5931TIP3    H117799   3.603   3.628   0.239
 5931TIP3    H217800   3.631   3.733   0.345
 5932TIP3   OH217801   3.128   1.489   0.087
 5932TIP3    H117802   3.042   1.531   0.084
 5932TIP3    H217803   3.140   1.453  -0.001
 5933TIP3   OH217804   2.606   0.178   1.644
 5933TIP3    H117805   2.610   0.172   1.549
 5933TIP3    H217806   2.697   0.191   1.671
 5934TIP3   OH217807   1.799   0.499   2.694
 5934TIP3    H117808   1.792   0.411   2.730
 5934TIP3    H217809   1.883   0.500   2.648
 5935TIP3   OH217810   6.045   3.371   4.820
 5935TIP3    H117811   6.006   3.358   4.734
 5935TIP3    H217812   5.987   3.323   4.880
 5936TIP3   OH217813   3.011   4.588   0.028
 5936TIP3    H117814   3.019   4.678   0.057
 5936TIP3    H217815   3.048   4.588  -0.061
 5937TIP3   OH217816   4.587   0.786   0.875
 5937TIP3    H117817   4.596   0.786   0.779
 5937TIP3    H217818   4.493   0.782   0.890
 5938TIP3   OH217819   5.451   0.767   2.886
 5938TIP3    H117820   5.443   0.847   2.938
 5938TIP3    H217821   5.494   0.795   2.805
 5939TIP3   OH217822   4.975   0.111   3.986
 5939TIP3    H117823   4.923   0.036   3.957
 5939TIP3    H217824   5.064   0.077   3.994
 5940TIP3   OH217825   6.285   5.908   1.086
 5940TIP3    H117826   6.303   5.816   1.064
 5940TIP3    H217827   6.365   5.938   1.128
 5941TIP3   OH217828   5.703   5.615   1.516
 5941TIP3    H117829   5.732   5.615   1.425
 5941TIP3    H217830   5.636   5.546   1.520
 5942TIP3   OH217831   3.082   2.101   4.662
 5942TIP3    H117832   3.125   2.161   4.724
 5942TIP3    H217833   3.083   2.149   4.579
 5943TIP3   OH217834   4.533   1.983   1.291
 5943TIP3    H117835   4.585   1.967   1.212
 5943TIP3    H217836   4.453   2.025   1.260
 5944TIP3   OH217837   2.784   4.543   1.506
 5944TIP3    H117838   2.736   4.619   1.542
 5944TIP3    H217839   2.716   4.481   1.482
 5945TIP3   OH217840   0.658   5.064   5.004
 5945TIP3    H117841   0.593   4.998   5.030
 5945TIP3    H217842   0.607   5.143   4.988
 5946TIP3   OH217843   1.507   2.820   3.332
 5946TIP3    H117844   1.437   2.884   3.329
 5946TIP3    H217845   1.545   2.821   3.244
 5947TIP3   OH217846   5.546   2.514   2.349
 5947TIP3    H117847   5.623   2.460   2.328
 5947TIP3    H217848   5.565   2.599   2.309
 5948TIP3   OH217849   2.746   2.586   3.514
 5948TIP3    H117850   2.772   2.494   3.521
 5948TIP3    H217851   2.819   2.635   3.552
 5949TIP3   OH217852   0.341   2.667   3.473
 5949TIP3    H117853   0.260   2.718   3.470
 5949TIP3    H217854   0.353   2.646   3.566
 5950TIP3   OH217855   2.174   3.118   4.540
 5950TIP3    H117856   2.258   3.079   4.566
 5950TIP3    H217857   2.193   3.165   4.459
 5951TIP3   OH217858   6.010   4.479   3.272
 5951TIP3    H117859   6.066   4.421   3.324
 5951TIP3    H217860   6.052   4.565   3.278
 5952TIP3   OH217861   3.151   3.549   0.624
 5952TIP3    H117862   3.150   3.574   0.532
 5952TIP3    H217863   3.064   3.512   0.640
 5953TIP3   OH217864   1.740   4.179   4.003
 5953TIP3    H117865   1.667   4.122   3.981
 5953TIP3    H217866   1.700   4.252   4.051
 5954TIP3   OH217867   1.239   2.666   0.722
 5954TIP3    H117868   1.195   2.582   0.711
 5954TIP3    H217869   1.329   2.642   0.745
 5955TIP3   OH217870   1.655   0.186   5.101
 5955TIP3    H117871   1.574   0.223   5.137
 5955TIP3    H217872   1.694   0.258   5.051
 5956TIP3   OH217873   0.229   5.774   4.624
 5956TIP3    H117874   0.233   5.850   4.566
 5956TIP3    H217875   0.208   5.811   4.710
 5957TIP3   OH217876   2.110   1.738   3.872
 5957TIP3    H117877   2.015   1.736   3.885
 5957TIP3    H217878   2.137   1.823   3.906
 5958TIP3   OH217879   2.106   0.026   5.226
 5958TIP3    H117880   2.066   0.030   5.139
 5958TIP3    H217881   2.192  -0.014   5.210
 5959TIP3   OH217882   3.578   3.831   1.646
 5959TIP3    H117883   3.504   3.832   1.587
 5959TIP3    H217884   3.639   3.766   1.608
 5960TIP3   OH217885   1.571   4.266   4.491
 5960TIP3    H117886   1.595   4.273   4.398
 5960TIP3    H217887   1.560   4.172   4.506
 5961TIP3   OH217888   2.129   2.343   1.376
 5961TIP3    H117889   2.203   2.305   1.423
 5961TIP3    H217890   2.155   2.435   1.362
 5962TIP3   OH217891   5.277   4.761   4.923
 5962TIP3    H117892   5.273   4.801   5.009
 5962TIP3    H217893   5.311   4.673   4.939
 5963TIP3   OH217894   3.375   0.192   1.322
 5963TIP3    H117895   3.402   0.116   1.271
 5963TIP3    H217896   3.453   0.246   1.328
 5964TIP3   OH217897   4.464   4.045   1.340
 5964TIP3    H117898   4.407   4.041   1.417
 5964TIP3    H217899   4.534   4.106   1.365
 5965TIP3   OH217900   3.697   3.125   2.571
 5965TIP3    H117901   3.694   3.135   2.476
 5965TIP3    H217902   3.651   3.202   2.605
 5966TIP3   OH217903   1.839   4.056   0.240
 5966TIP3    H117904   1.830   4.071   0.334
 5966TIP3    H217905   1.754   4.078   0.203
 5967TIP3   OH217906   2.007   5.794   4.540
 5967TIP3    H117907   2.002   5.771   4.633
 5967TIP3    H217908   1.998   5.711   4.494
 5968TIP3   OH217909   3.507   0.708   2.464
 5968TIP3    H117910   3.502   0.767   2.389
 5968TIP3    H217911   3.528   0.623   2.426
 5969TIP3   OH217912   0.186   5.697   0.452
 5969TIP3    H117913   0.137   5.779   0.463
 5969TIP3    H217914   0.224   5.703   0.364
 5970TIP3   OH217915   2.951   5.468   1.916
 5970TIP3    H117916   2.864   5.465   1.957
 5970TIP3    H217917   2.933   5.460   1.822
 5971TIP3   OH217918   6.024   0.731   2.146
 5971TIP3    H117919   6.004   0.818   2.111
 5971TIP3    H217920   6.103   0.705   2.099
 5972TIP3   OH217921   2.571   0.424   0.259
 5972TIP3    H117922   2.542   0.494   0.201
 5972TIP3    H217923   2.508   0.425   0.332
 5973TIP3   OH217924   0.818   2.060   1.866
 5973TIP3    H117925   0.784   2.137   1.911
 5973TIP3    H217926   0.909   2.053   1.897
 5974TIP3   OH217927   0.466   0.477   1.153
 5974TIP3    H117928   0.428   0.553   1.197
 5974TIP3    H217929   0.448   0.492   1.060
 5975TIP3   OH217930   3.260   0.731   0.326
 5975TIP3    H117931   3.271   0.661   0.261
 5975TIP3    H217932   3.195   0.698   0.387
 5976TIP3   OH217933   1.959   4.963   1.755
 5976TIP3    H117934   2.003   5.047   1.771
 5976TIP3    H217935   1.894   4.983   1.687
 5977TIP3   OH217936   5.005   0.876   4.758
 5977TIP3    H117937   5.056   0.945   4.801
 5977TIP3    H217938   4.984   0.911   4.672
 5978TIP3   OH217939   4.981   1.874   4.345
 5978TIP3    H117940   5.037   1.951   4.355
 5978TIP3    H217941   4.923   1.878   4.421
 5979TIP3   OH217942   5.654   1.451   3.689
 5979TIP3    H117943   5.560   1.468   3.695
 5979TIP3    H217944   5.664   1.407   3.605
 5980TIP3   OH217945   0.652   4.063   2.122
 5980TIP3    H117946   0.588   4.019   2.067
 5980TIP3    H217947   0.684   4.136   2.070
 5981TIP3   OH217948   5.122   4.925   1.582
 5981TIP3    H117949   5.173   4.918   1.662
 5981TIP3    H217950   5.071   5.005   1.593
 5982TIP3   OH217951   2.065   4.756   4.275
 5982TIP3    H117952   2.085   4.684   4.216
 5982TIP3    H217953   1.970   4.766   4.270
 5983TIP3   OH217954   3.987   2.283   0.423
 5983TIP3    H117955   4.012   2.341   0.351
 5983TIP3    H217956   3.892   2.290   0.428
 5984TIP3   OH217957   0.094   3.734   1.790
 5984TIP3    H117958   0.113   3.768   1.703
 5984TIP3    H217959   0.176   3.743   1.838
 5985TIP3   OH217960   1.825   5.003   2.028
 5985TIP3    H117961   1.769   5.049   1.966
 5985TIP3    H217962   1.852   4.924   1.982
 5986TIP3   OH217963   2.966   1.461   4.256
 5986TIP3    H117964   3.045   1.416   4.284
 5986TIP3    H217965   2.899   1.432   4.318
 5987TIP3   OH217966   0.967   2.560   2.253
 5987TIP3    H117967   0.894   2.500   2.243
 5987TIP3    H217968   1.033   2.529   2.191
 5988TIP3   OH217969   3.331   1.142   3.656
 5988TIP3    H117970   3.377   1.084   3.595
 5988TIP3    H217971   3.384   1.222   3.659
 5989TIP3   OH217972   1.541   0.350   0.710
 5989TIP3    H117973   1.471   0.285   0.711
 5989TIP3    H217974   1.544   0.380   0.619
 5990TIP3   OH217975   3.874   0.971   3.207
 5990TIP3    H117976   3.855   0.960   3.300
 5990TIP3    H217977   3.931   0.897   3.185
 5991TIP3   OH217978   2.883   5.304   3.596
 5991TIP3    H117979   2.899   5.296   3.690
 5991TIP3    H217980   2.834   5.386   3.588
 5992TIP3   OH217981   1.046   3.251   4.569
 5992TIP3    H117982   1.071   3.177   4.513
 5992TIP3    H217983   0.951   3.240   4.582
 5993TIP3   OH217984   4.457   2.932   4.719
 5993TIP3    H117985   4.519   2.869   4.683
 5993TIP3    H217986   4.379   2.922   4.663
 5994TIP3   OH217987   0.542   4.721   2.149
 5994TIP3    H117988   0.504   4.723   2.062
 5994TIP3    H217989   0.471   4.690   2.206
 5995TIP3   OH217990   4.445   3.940   3.033
 5995TIP3    H117991   4.525   3.906   3.074
 5995TIP3    H217992   4.446   3.903   2.945
 5996TIP3   OH217993   4.565   5.484   2.936
 5996TIP3    H117994   4.517   5.460   3.015
 5996TIP3    H217995   4.585   5.577   2.947
 5997TIP3   OH217996   3.631   1.061   3.079
 5997TIP3    H117997   3.586   1.099   3.154
 5997TIP3    H217998   3.723   1.054   3.107
 5998TIP3   OH217999   6.151   2.969   1.061
 5998TIP3    H118000   6.114   2.889   1.026
 5998TIP3    H218001   6.086   3.002   1.123
 5999TIP3   OH218002   4.135   0.310   4.710
 5999TIP3    H118003   4.180   0.384   4.669
 5999TIP3    H218004   4.083   0.271   4.639
 6000TIP3   OH218005   2.526   0.032   1.867
 6000TIP3    H118006   2.437   0.059   1.846
 6000TIP3    H218007   2.579   0.068   1.796
 6001TIP3   OH218008   3.490   1.622   1.867
 6001TIP3    H118009   3.421   1.687   1.883
 6001TIP3    H218010   3.544   1.661   1.798
 6002TIP3   OH218011   5.746   5.048   1.038
 6002TIP3    H118012   5.662   5.052   1.083
 6002TIP3    H218013   5.788   4.969   1.072
 6003TIP3   OH218014   4.549   4.155   4.124
 6003TIP3    H118015   4.595   4.236   4.146
 6003TIP3    H218016   4.615   4.104   4.077
 6004TIP3   OH218017   2.624   5.063   1.318
 6004TIP3    H118018   2.695   5.125   1.300
 6004TIP3    H218019   2.567   5.108   1.381
 6005TIP3   OH218020   6.223   5.372   4.443
 6005TIP3    H118021   6.237   5.449   4.387
 6005TIP3    H218022   6.244   5.298   4.386
 6006TIP3   OH218023   2.280   0.674   0.489
 6006TIP3    H118024   2.201   0.630   0.522
 6006TIP3    H218025   2.337   0.603   0.460
 6007TIP3   OH218026   4.319   0.443   0.863
 6007TIP3    H118027   4.344   0.379   0.929
 6007TIP3    H218028   4.225   0.454   0.874
 6008TIP3   OH218029   5.720   1.833   1.846
 6008TIP3    H118030   5.795   1.838   1.786
 6008TIP3    H218031   5.685   1.745   1.833
 6009TIP3   OH218032   3.381   1.399   2.531
 6009TIP3    H118033   3.343   1.459   2.466
 6009TIP3    H218034   3.329   1.412   2.610
 6010TIP3   OH218035   2.659   2.572   0.651
 6010TIP3    H118036   2.659   2.663   0.621
 6010TIP3    H218037   2.567   2.546   0.649
 6011TIP3   OH218038   6.076   0.319   5.145
 6011TIP3    H118039   6.154   0.346   5.194
 6011TIP3    H218040   6.049   0.237   5.185
 6012TIP3   OH218041   2.099   3.300   3.785
 6012TIP3    H118042   2.143   3.231   3.836
 6012TIP3    H218043   2.119   3.279   3.694
 6013TIP3   OH218044   2.757   3.818   2.889
 6013TIP3    H118045   2.823   3.794   2.823
 6013TIP3    H218046   2.681   3.846   2.838
 6014TIP3   OH218047   4.136   0.276   2.269
 6014TIP3    H118048   4.175   0.353   2.312
 6014TIP3    H218049   4.088   0.232   2.339
 6015TIP3   OH218050   4.699   5.345   0.896
 6015TIP3    H118051   4.666   5.349   0.806
 6015TIP3    H218052   4.690   5.434   0.929
 6016TIP3   OH218053   5.134   2.042   1.866
 6016TIP3    H118054   5.180   1.986   1.929
 6016TIP3    H218055   5.078   2.098   1.920
 6017TIP3   OH218056   2.458   3.950   3.431
 6017TIP3    H118057   2.362   3.956   3.432
 6017TIP3    H218058   2.479   3.918   3.343
 6018TIP3   OH218059   2.879   1.321   2.007
 6018TIP3    H118060   2.894   1.399   2.061
 6018TIP3    H218061   2.907   1.348   1.920
 6019TIP3   OH218062   5.296   4.456   0.538
 6019TIP3    H118063   5.299   4.552   0.544
 6019TIP3    H218064   5.205   4.434   0.558
 6020TIP3   OH218065   5.891   4.992   0.130
 6020TIP3    H118066   5.813   5.046   0.143
 6020TIP3    H218067   5.897   4.939   0.210
 6021TIP3   OH218068   2.357   4.082   1.849
 6021TIP3    H118069   2.299   4.132   1.908
 6021TIP3    H218070   2.325   3.992   1.856
 6022TIP3   OH218071   0.978   1.781   0.739
 6022TIP3    H118072   1.024   1.865   0.734
 6022TIP3    H218073   0.942   1.768   0.651
 6023TIP3   OH218074   2.893   0.244   4.308
 6023TIP3    H118075   2.897   0.284   4.221
 6023TIP3    H218076   2.805   0.265   4.340
 6024TIP3   OH218077   1.277   1.014   1.168
 6024TIP3    H118078   1.233   0.975   1.244
 6024TIP3    H218079   1.209   1.022   1.102
 6025TIP3   OH218080   2.461   4.157   0.682
 6025TIP3    H118081   2.510   4.122   0.756
 6025TIP3    H218082   2.431   4.243   0.712
 6026TIP3   OH218083   5.063   3.497   1.958
 6026TIP3    H118084   5.087   3.447   1.880
 6026TIP3    H218085   4.998   3.561   1.926
 6027TIP3   OH218086   2.810   3.601   3.378
 6027TIP3    H118087   2.885   3.545   3.355
 6027TIP3    H218088   2.790   3.648   3.297
 6028TIP3   OH218089   0.449   3.361   3.165
 6028TIP3    H118090   0.383   3.312   3.212
 6028TIP3    H218091   0.436   3.452   3.192
 6029TIP3   OH218092   4.347   3.536   4.442
 6029TIP3    H118093   4.356   3.621   4.485
 6029TIP3    H218094   4.418   3.484   4.477
 6030TIP3   OH218095   5.514   4.848   1.594
 6030TIP3    H118096   5.520   4.810   1.506
 6030TIP3    H218097   5.539   4.940   1.582
 6031TIP3   OH218098   2.900   3.698   1.934
 6031TIP3    H118099   2.850   3.663   2.007
 6031TIP3    H218100   2.956   3.626   1.905
 6032TIP3   OH218101   1.507   4.358   3.941
 6032TIP3    H118102   1.517   4.435   3.996
 6032TIP3    H218103   1.442   4.304   3.986
 6033TIP3   OH218104   1.049   4.184   4.847
 6033TIP3    H118105   1.101   4.232   4.783
 6033TIP3    H218106   1.056   4.235   4.928
 6034TIP3   OH218107   1.097   2.018   4.280
 6034TIP3    H118108   1.053   1.937   4.304
 6034TIP3    H218109   1.168   2.026   4.343
 6035TIP3   OH218110   4.684   5.013   0.284
 6035TIP3    H118111   4.612   4.968   0.240
 6035TIP3    H218112   4.708   4.955   0.357
 6036TIP3   OH218113   2.881   2.136   3.737
 6036TIP3    H118114   2.939   2.155   3.811
 6036TIP3    H218115   2.815   2.076   3.772
 6037TIP3   OH218116   1.678   0.281   3.262
 6037TIP3    H118117   1.725   0.309   3.340
 6037TIP3    H218118   1.699   0.346   3.195
 6038TIP3   OH218119   0.135   1.199   2.571
 6038TIP3    H118120   0.093   1.117   2.597
 6038TIP3    H218121   0.194   1.174   2.500
 6039TIP3   OH218122   2.190   5.401   3.217
 6039TIP3    H118123   2.176   5.456   3.294
 6039TIP3    H218124   2.124   5.431   3.154
 6040TIP3   OH218125   2.061   5.830   1.313
 6040TIP3    H118126   2.078   5.883   1.391
 6040TIP3    H218127   1.998   5.881   1.262
 6041TIP3   OH218128   0.176   1.438   0.490
 6041TIP3    H118129   0.235   1.366   0.511
 6041TIP3    H218130   0.089   1.407   0.515
 6042TIP3   OH218131   2.325   5.405   5.113
 6042TIP3    H118132   2.375   5.413   5.032
 6042TIP3    H218133   2.270   5.328   5.100
 6043TIP3   OH218134   3.640   4.386   1.425
 6043TIP3    H118135   3.695   4.462   1.406
 6043TIP3    H218136   3.645   4.375   1.520
 6044TIP3   OH218137   1.660   0.240   1.500
 6044TIP3    H118138   1.681   0.332   1.487
 6044TIP3    H218139   1.744   0.199   1.521
 6045TIP3   OH218140   5.395   0.066   0.693
 6045TIP3    H118141   5.411   0.009   0.617
 6045TIP3    H218142   5.476   0.064   0.743
 6046TIP3   OH218143   5.840   1.493   0.309
 6046TIP3    H118144   5.765   1.504   0.367
 6046TIP3    H218145   5.808   1.440   0.237
 6047TIP3   OH218146   3.810   2.211   3.399
 6047TIP3    H118147   3.851   2.242   3.480
 6047TIP3    H218148   3.867   2.140   3.369
 6048TIP3   OH218149   0.316   5.348   3.631
 6048TIP3    H118150   0.268   5.430   3.622
 6048TIP3    H218151   0.309   5.306   3.545
 6049TIP3   OH218152   1.306   5.526   2.970
 6049TIP3    H118153   1.386   5.475   2.958
 6049TIP3    H218154   1.270   5.535   2.882
 6050TIP3   OH218155   1.997   2.004   0.855
 6050TIP3    H118156   2.063   1.974   0.792
 6050TIP3    H218157   1.976   1.927   0.907
 6051TIP3   OH218158   3.452   1.427   2.075
 6051TIP3    H118159   3.471   1.468   1.991
 6051TIP3    H218160   3.483   1.337   2.065
 6052TIP3   OH218161   0.821   4.873   1.417
 6052TIP3    H118162   0.860   4.852   1.501
 6052TIP3    H218163   0.886   4.928   1.373
 6053TIP3   OH218164   2.276   0.893   0.645
 6053TIP3    H118165   2.283   0.804   0.612
 6053TIP3    H218166   2.200   0.930   0.600
 6054TIP3   OH218167   1.219   4.308   1.973
 6054TIP3    H118168   1.137   4.308   2.022
 6054TIP3    H218169   1.202   4.252   1.897
 6055TIP3   OH218170   6.056   4.097   0.136
 6055TIP3    H118171   6.039   4.008   0.106
 6055TIP3    H218172   6.077   4.145   0.056
 6056TIP3   OH218173   5.111   0.213   2.212
 6056TIP3    H118174   5.194   0.206   2.259
 6056TIP3    H218175   5.085   0.305   2.222
 6057TIP3   OH218176   1.074   5.469   2.521
 6057TIP3    H118177   1.030   5.510   2.596
 6057TIP3    H218178   1.028   5.386   2.509
 6058TIP3   OH218179   0.624   5.487   5.099
 6058TIP3    H118180   0.673   5.425   5.153
 6058TIP3    H218181   0.618   5.445   5.013
 6059TIP3   OH218182   2.307   1.393   4.228
 6059TIP3    H118183   2.246   1.375   4.300
 6059TIP3    H218184   2.385   1.429   4.271
 6060TIP3   OH218185   1.484   5.719   3.353
 6060TIP3    H118186   1.399   5.676   3.358
 6060TIP3    H218187   1.491   5.768   3.435
 6061TIP3   OH218188   4.507   0.092   2.554
 6061TIP3    H118189   4.455   0.014   2.534
 6061TIP3    H218190   4.585   0.058   2.599
 6062TIP3   OH218191   3.593   5.471   1.389
 6062TIP3    H118192   3.616   5.432   1.305
 6062TIP3    H218193   3.627   5.561   1.384
 6063TIP3   OH218194   5.060   3.069   2.056
 6063TIP3    H118195   5.059   2.993   2.114
 6063TIP3    H218196   5.016   3.039   1.977
 6064TIP3   OH218197   6.081   5.472   4.877
 6064TIP3    H118198   5.986   5.466   4.870
 6064TIP3    H218199   6.097   5.531   4.950
 6065TIP3   OH218200   2.474   2.406   0.931
 6065TIP3    H118201   2.416   2.431   0.858
 6065TIP3    H218202   2.421   2.347   0.984
 6066TIP3   OH218203   1.574   1.811   1.633
 6066TIP3    H118204   1.553   1.890   1.684
 6066TIP3    H218205   1.492   1.761   1.633
 6067TIP3   OH218206   2.275   3.863   0.505
 6067TIP3    H118207   2.252   3.878   0.414
 6067TIP3    H218208   2.191   3.844   0.548
 6068TIP3   OH218209   4.197   4.497   2.742
 6068TIP3    H118210   4.206   4.402   2.742
 6068TIP3    H218211   4.287   4.530   2.742
 6069TIP3   OH218212   4.279   1.973   4.484
 6069TIP3    H118213   4.298   2.053   4.435
 6069TIP3    H218214   4.324   1.986   4.568
 6070TIP3   OH218215   5.233   5.257   1.482
 6070TIP3    H118216   5.157   5.285   1.532
 6070TIP3    H218217   5.299   5.236   1.549
 6071TIP3   OH218218   1.910   1.316   3.311
 6071TIP3    H118219   1.923   1.256   3.384
 6071TIP3    H218220   1.815   1.316   3.296
 6072TIP3   OH218221   1.612   3.921   3.915
 6072TIP3    H118222   1.651   3.921   3.828
 6072TIP3    H218223   1.522   3.951   3.900
 6073TIP3   OH218224   5.769   0.670   1.002
 6073TIP3    H118225   5.724   0.725   0.937
 6073TIP3    H218226   5.813   0.731   1.060
 6074TIP3   OH218227   0.489   4.348   2.237
 6074TIP3    H118228   0.481   4.267   2.187
 6074TIP3    H218229   0.455   4.416   2.178
 6075TIP3   OH218230   3.430   2.072   4.525
 6075TIP3    H118231   3.403   1.997   4.578
 6075TIP3    H218232   3.383   2.062   4.443
 6076TIP3   OH218233   0.376   1.638   2.697
 6076TIP3    H118234   0.372   1.725   2.737
 6076TIP3    H218235   0.293   1.630   2.649
 6077TIP3   OH218236   3.243   4.691   0.353
 6077TIP3    H118237   3.155   4.703   0.389
 6077TIP3    H218238   3.236   4.612   0.299
 6078TIP3   OH218239   1.183   4.819   2.217
 6078TIP3    H118240   1.207   4.735   2.177
 6078TIP3    H218241   1.102   4.801   2.264
 6079TIP3   OH218242   1.217   4.311   3.409
 6079TIP3    H118243   1.214   4.238   3.348
 6079TIP3    H218244   1.130   4.349   3.405
 6080TIP3   OH218245   4.301   2.294   1.782
 6080TIP3    H118246   4.286   2.388   1.782
 6080TIP3    H218247   4.385   2.283   1.736
 6081TIP3   OH218248   1.450   2.599   0.872
 6081TIP3    H118249   1.453   2.663   0.943
 6081TIP3    H218250   1.540   2.597   0.839
 6082TIP3   OH218251   0.473   5.267   2.884
 6082TIP3    H118252   0.421   5.299   2.810
 6082TIP3    H218253   0.458   5.172   2.884
 6083TIP3   OH218254   0.170   1.202   4.503
 6083TIP3    H118255   0.113   1.273   4.473
 6083TIP3    H218256   0.234   1.245   4.560
 6084TIP3   OH218257   2.434   2.862   4.769
 6084TIP3    H118258   2.494   2.912   4.823
 6084TIP3    H218259   2.486   2.790   4.734
 6085TIP3   OH218260   2.988   5.669   1.630
 6085TIP3    H118261   2.980   5.579   1.596
 6085TIP3    H218262   2.898   5.698   1.642
 6086TIP3   OH218263   3.498   3.069   3.386
 6086TIP3    H118264   3.540   3.051   3.470
 6086TIP3    H218265   3.460   2.986   3.359
 6087TIP3   OH218266   2.506   3.645   1.842
 6087TIP3    H118267   2.538   3.732   1.863
 6087TIP3    H218268   2.446   3.659   1.769
 6088TIP3   OH218269   3.801   4.426   4.981
 6088TIP3    H118270   3.787   4.450   4.889
 6088TIP3    H218271   3.882   4.375   4.981
 6089TIP3   OH218272   4.862   4.835   2.884
 6089TIP3    H118273   4.864   4.754   2.936
 6089TIP3    H218274   4.870   4.905   2.949
 6090TIP3   OH218275   2.621   3.291   4.901
 6090TIP3    H118276   2.560   3.338   4.959
 6090TIP3    H218277   2.705   3.296   4.946
 6091TIP3   OH218278   5.547   2.043   1.775
 6091TIP3    H118279   5.587   1.970   1.822
 6091TIP3    H218280   5.557   2.021   1.683
 6092TIP3   OH218281   2.113   0.148   2.336
 6092TIP3    H118282   2.136   0.219   2.276
 6092TIP3    H218283   2.191   0.139   2.392
 6093TIP3   OH218284   3.385   4.654   2.387
 6093TIP3    H118285   3.476   4.664   2.358
 6093TIP3    H218286   3.352   4.580   2.337
 6094TIP3   OH218287   2.848   0.745   1.867
 6094TIP3    H118288   2.836   0.654   1.893
 6094TIP3    H218289   2.856   0.742   1.772
 6095TIP3   OH218290   2.130   1.690   2.746
 6095TIP3    H118291   2.139   1.772   2.698
 6095TIP3    H218292   2.100   1.627   2.680
 6096TIP3   OH218293   5.437   3.501   0.373
 6096TIP3    H118294   5.345   3.474   0.363
 6096TIP3    H218295   5.466   3.520   0.284
 6097TIP3   OH218296   2.628   4.704   2.608
 6097TIP3    H118297   2.722   4.702   2.593
 6097TIP3    H218298   2.592   4.748   2.531
 6098TIP3   OH218299   0.854   0.127   1.589
 6098TIP3    H118300   0.934   0.083   1.620
 6098TIP3    H218301   0.820   0.071   1.520
 6099TIP3   OH218302   2.291   3.181   3.341
 6099TIP3    H118303   2.355   3.150   3.277
 6099TIP3    H218304   2.237   3.243   3.292
 6100TIP3   OH218305   2.566   0.913   1.782
 6100TIP3    H118306   2.502   0.954   1.725
 6100TIP3    H218307   2.567   0.821   1.755
 6101TIP3   OH218308   1.415   4.842   4.922
 6101TIP3    H118309   1.352   4.836   4.850
 6101TIP3    H218310   1.442   4.934   4.923
 6102TIP3   OH218311   4.525   0.068   1.483
 6102TIP3    H118312   4.492   0.017   1.408
 6102TIP3    H218313   4.530   0.158   1.450
 6103TIP3   OH218314   3.419   2.616   2.904
 6103TIP3    H118315   3.445   2.534   2.862
 6103TIP3    H218316   3.430   2.600   2.997
 6104TIP3   OH218317   5.196   5.528   4.404
 6104TIP3    H118318   5.260   5.596   4.422
 6104TIP3    H218319   5.119   5.574   4.370
 6105TIP3   OH218320   5.799   5.262   3.719
 6105TIP3    H118321   5.808   5.177   3.675
 6105TIP3    H218322   5.841   5.324   3.660
 6106TIP3   OH218323   5.660   2.973   3.070
 6106TIP3    H118324   5.683   2.917   2.996
 6106TIP3    H218325   5.687   3.061   3.043
 6107TIP3   OH218326   3.532   1.160   3.319
 6107TIP3    H118327   3.529   1.211   3.400
 6107TIP3    H218328   3.517   1.070   3.347
 6108TIP3   OH218329   2.112   2.484   3.697
 6108TIP3    H118330   2.143   2.544   3.764
 6108TIP3    H218331   2.108   2.537   3.617
 6109TIP3   OH218332   1.668   0.906   2.124
 6109TIP3    H118333   1.596   0.875   2.179
 6109TIP3    H218334   1.703   0.982   2.170
 6110TIP3   OH218335   1.110   5.881   3.348
 6110TIP3    H118336   1.066   5.809   3.393
 6110TIP3    H218337   1.184   5.840   3.304
 6111TIP3   OH218338   1.406   1.208   3.096
 6111TIP3    H118339   1.460   1.249   3.163
 6111TIP3    H218340   1.419   1.114   3.109
 6112TIP3   OH218341   5.741   5.361   4.169
 6112TIP3    H118342   5.832   5.391   4.172
 6112TIP3    H218343   5.713   5.377   4.079
 6113TIP3   OH218344   2.648  -0.019   0.390
 6113TIP3    H118345   2.562   0.000   0.428
 6113TIP3    H218346   2.668   0.058   0.337
 6114TIP3   OH218347   3.246   1.178   4.932
 6114TIP3    H118348   3.180   1.113   4.956
 6114TIP3    H218349   3.235   1.248   4.997
 6115TIP3   OH218350   0.831   2.118   3.857
 6115TIP3    H118351   0.774   2.184   3.897
 6115TIP3    H218352   0.912   2.122   3.908
 6116TIP3   OH218353   4.598   4.617   1.945
 6116TIP3    H118354   4.632   4.706   1.938
 6116TIP3    H218355   4.549   4.603   1.864
 6117TIP3   OH218356   1.100   2.014   3.981
 6117TIP3    H118357   1.066   2.002   4.070
 6117TIP3    H218358   1.191   1.983   3.986
 6118TIP3   OH218359   0.691   1.878   4.941
 6118TIP3    H118360   0.682   1.915   4.853
 6118TIP3    H218361   0.719   1.952   4.995
 6119TIP3   OH218362   5.981   1.668   3.801
 6119TIP3    H118363   5.958   1.588   3.753
 6119TIP3    H218364   5.934   1.738   3.754
 6120TIP3   OH218365   2.769   1.056   1.580
 6120TIP3    H118366   2.691   1.017   1.619
 6120TIP3    H218367   2.842   1.024   1.634
 6121TIP3   OH218368   3.087   2.524   1.724
 6121TIP3    H118369   3.102   2.597   1.664
 6121TIP3    H218370   3.037   2.460   1.673
 6122TIP3   OH218371   4.675   4.578   1.010
 6122TIP3    H118372   4.725   4.499   0.993
 6122TIP3    H218373   4.733   4.649   0.981
 6123TIP3   OH218374   2.289   2.550   4.742
 6123TIP3    H118375   2.377   2.538   4.705
 6123TIP3    H218376   2.301   2.616   4.810
 6124TIP3   OH218377   3.539   2.093   0.440
 6124TIP3    H118378   3.485   2.085   0.519
 6124TIP3    H218379   3.585   2.176   0.451
 6125TIP3   OH218380   3.238   1.012   2.452
 6125TIP3    H118381   3.214   0.953   2.524
 6125TIP3    H218382   3.160   1.066   2.438
 6126TIP3   OH218383   5.578   0.823   4.245
 6126TIP3    H118384   5.584   0.915   4.268
 6126TIP3    H218385   5.505   0.789   4.297
 6127TIP3   OH218386   1.925   5.811   3.080
 6127TIP3    H118387   1.976   5.848   3.152
 6127TIP3    H218388   1.862   5.879   3.057
 6128TIP3   OH218389   3.472   4.522   3.301
 6128TIP3    H118390   3.444   4.613   3.310
 6128TIP3    H218391   3.442   4.496   3.214
 6129TIP3   OH218392   6.342   2.765   2.895
 6129TIP3    H118393   6.260   2.735   2.856
 6129TIP3    H218394   6.333   2.860   2.898
 6130TIP3   OH218395   2.185   4.668   0.949
 6130TIP3    H118396   2.127   4.617   0.894
 6130TIP3    H218397   2.256   4.608   0.972
 6131TIP3   OH218398   2.663   1.584   1.605
 6131TIP3    H118399   2.678   1.494   1.574
 6131TIP3    H218400   2.578   1.608   1.568
 6132TIP3   OH218401   0.436   4.207   4.724
 6132TIP3    H118402   0.439   4.154   4.804
 6132TIP3    H218403   0.420   4.296   4.755
 6133TIP3   OH218404   2.091   5.236   2.432
 6133TIP3    H118405   2.060   5.218   2.521
 6133TIP3    H218406   2.144   5.160   2.409
 6134TIP3   OH218407   1.292   5.804   0.052
 6134TIP3    H118408   1.289   5.781  -0.041
 6134TIP3    H218409   1.287   5.720   0.098
 6135TIP3   OH218410   0.230   1.392   2.083
 6135TIP3    H118411   0.226   1.305   2.044
 6135TIP3    H218412   0.145   1.402   2.128
 6136TIP3   OH218413   5.095   0.958   3.849
 6136TIP3    H118414   5.098   0.868   3.880
 6136TIP3    H218415   5.144   0.957   3.767
 6137TIP3   OH218416   3.680   0.940   1.200
 6137TIP3    H118417   3.723   1.006   1.145
 6137TIP3    H218418   3.610   0.987   1.244
 6138TIP3   OH218419   2.502   5.874   3.315
 6138TIP3    H118420   2.445   5.798   3.323
 6138TIP3    H218421   2.461   5.927   3.247
 6139TIP3   OH218422   1.581   0.394   0.976
 6139TIP3    H118423   1.508   0.341   1.009
 6139TIP3    H218424   1.581   0.378   0.882
 6140TIP3   OH218425   0.532   0.304   3.473
 6140TIP3    H118426   0.626   0.316   3.459
 6140TIP3    H218427   0.492   0.377   3.426
 6141TIP3   OH218428   6.197   1.022   0.584
 6141TIP3    H118429   6.286   1.027   0.620
 6141TIP3    H218430   6.145   0.986   0.656
 6142TIP3   OH218431   4.792   0.605   1.849
 6142TIP3    H118432   4.776   0.555   1.929
 6142TIP3    H218433   4.883   0.586   1.827
 6143TIP3   OH218434   0.535   5.267   4.899
 6143TIP3    H118435   0.563   5.247   4.809
 6143TIP3    H218436   0.443   5.243   4.901
 6144TIP3   OH218437   5.385   1.831   0.531
 6144TIP3    H118438   5.357   1.844   0.622
 6144TIP3    H218439   5.480   1.835   0.534
 6145TIP3   OH218440   0.691   2.048   2.848
 6145TIP3    H118441   0.683   2.009   2.761
 6145TIP3    H218442   0.728   2.135   2.832
 6146TIP3   OH218443   4.209   5.158   1.276
 6146TIP3    H118444   4.286   5.133   1.225
 6146TIP3    H218445   4.175   5.075   1.310
 6147TIP3   OH218446   4.097   2.924   3.133
 6147TIP3    H118447   4.082   2.831   3.116
 6147TIP3    H218448   4.148   2.954   3.058
 6148TIP3   OH218449   5.729   4.411   4.296
 6148TIP3    H118450   5.795   4.435   4.231
 6148TIP3    H218451   5.651   4.459   4.268
 6149TIP3   OH218452   2.608   4.310   2.237
 6149TIP3    H118453   2.542   4.379   2.237
 6149TIP3    H218454   2.648   4.315   2.323
 6150TIP3   OH218455   1.616   5.602   5.040
 6150TIP3    H118456   1.578   5.637   5.121
 6150TIP3    H218457   1.705   5.578   5.064
 6151TIP3   OH218458   0.476   3.259   2.847
 6151TIP3    H118459   0.517   3.270   2.933
 6151TIP3    H218460   0.387   3.232   2.867
 6152TIP3   OH218461   3.113   3.652   3.553
 6152TIP3    H118462   3.181   3.708   3.591
 6152TIP3    H218463   3.057   3.711   3.504
 6153TIP3   OH218464   1.129   4.797   0.600
 6153TIP3    H118465   1.127   4.876   0.547
 6153TIP3    H218466   1.220   4.790   0.629
 6154TIP3   OH218467   2.300   1.072   2.226
 6154TIP3    H118468   2.265   1.161   2.234
 6154TIP3    H218469   2.395   1.083   2.235
 6155TIP3   OH218470   2.548   4.173   1.029
 6155TIP3    H118471   2.569   4.260   0.997
 6155TIP3    H218472   2.578   4.114   0.960
 6156TIP3   OH218473   1.427   2.284   2.126
 6156TIP3    H118474   1.455   2.197   2.155
 6156TIP3    H218475   1.345   2.299   2.174
 6157TIP3   OH218476   1.601   4.049   1.955
 6157TIP3    H118477   1.653   3.969   1.955
 6157TIP3    H218478   1.531   4.032   1.893
 6158TIP3   OH218479   0.594   3.979   0.161
 6158TIP3    H118480   0.543   3.912   0.206
 6158TIP3    H218481   0.584   3.958   0.068
 6159TIP3   OH218482   4.213   0.940   3.995
 6159TIP3    H118483   4.263   0.877   4.047
 6159TIP3    H218484   4.122   0.910   4.002
 6160TIP3   OH218485   3.244   5.914   2.012
 6160TIP3    H118486   3.174   5.862   1.972
 6160TIP3    H218487   3.228   6.003   1.981
 6161TIP3   OH218488   0.190   0.606   2.427
 6161TIP3    H118489   0.210   0.639   2.514
 6161TIP3    H218490   0.169   0.513   2.441
 6162TIP3   OH218491   3.881   0.523   2.475
 6162TIP3    H118492   3.882   0.457   2.545
 6162TIP3    H218493   3.865   0.472   2.395
 6163TIP3   OH218494   4.647   1.444   2.442
 6163TIP3    H118495   4.606   1.366   2.480
 6163TIP3    H218496   4.577   1.486   2.392
 6164TIP3   OH218497   5.049   4.910   1.935
 6164TIP3    H118498   5.019   4.988   1.887
 6164TIP3    H218499   5.135   4.935   1.968
 6165TIP3   OH218500   1.456   4.809   1.335
 6165TIP3    H118501   1.382   4.765   1.377
 6165TIP3    H218502   1.533   4.759   1.364
 6166TIP3   OH218503   4.247   4.882   0.059
 6166TIP3    H118504   4.241   4.966   0.014
 6166TIP3    H218505   4.275   4.904   0.147
 6167TIP3   OH218506   2.935   3.810   4.366
 6167TIP3    H118507   2.888   3.734   4.332
 6167TIP3    H218508   2.999   3.774   4.428
 6168TIP3   OH218509   1.491  -0.015   4.979
 6168TIP3    H118510   1.409   0.015   5.017
 6168TIP3    H218511   1.553   0.056   4.995
 6169TIP3   OH218512   3.278   2.700   4.244
 6169TIP3    H118513   3.295   2.655   4.162
 6169TIP3    H218514   3.314   2.643   4.311
 6170TIP3   OH218515   1.818   2.846   3.212
 6170TIP3    H118516   1.896   2.859   3.158
 6170TIP3    H218517   1.753   2.905   3.176
 6171TIP3   OH218518   0.211   3.604   0.360
 6171TIP3    H118519   0.306   3.597   0.351
 6171TIP3    H218520   0.177   3.574   0.276
 6172TIP3   OH218521   5.298   1.034   4.207
 6172TIP3    H118522   5.328   1.014   4.296
 6172TIP3    H218523   5.332   0.962   4.154
 6173TIP3   OH218524   6.000   1.188   2.253
 6173TIP3    H118525   5.999   1.161   2.345
 6173TIP3    H218526   5.919   1.152   2.216
 6174TIP3   OH218527   1.549   1.065   1.113
 6174TIP3    H118528   1.455   1.072   1.131
 6174TIP3    H218529   1.573   1.153   1.084
 6175TIP3   OH218530   1.275   0.178   5.085
 6175TIP3    H118531   1.327   0.223   5.018
 6175TIP3    H218532   1.185   0.185   5.053
 6176TIP3   OH218533   4.396   1.665   3.061
 6176TIP3    H118534   4.442   1.666   3.146
 6176TIP3    H218535   4.308   1.696   3.081
 6177TIP3   OH218536   4.251   4.050   1.528
 6177TIP3    H118537   4.221   4.106   1.600
 6177TIP3    H218538   4.296   3.978   1.571
 6178TIP3   OH218539   6.294   2.433   1.737
 6178TIP3    H118540   6.297   2.354   1.792
 6178TIP3    H218541   6.301   2.505   1.799
 6179TIP3   OH218542   4.747   3.555   4.195
 6179TIP3    H118543   4.710   3.633   4.236
 6179TIP3    H218544   4.791   3.588   4.116
 6180TIP3   OH218545   6.100   2.344   4.933
 6180TIP3    H118546   6.064   2.374   4.849
 6180TIP3    H218547   6.028   2.300   4.976
 6181TIP3   OH218548   5.063   5.124   0.915
 6181TIP3    H118549   5.021   5.128   1.001
 6181TIP3    H218550   5.017   5.054   0.869
 6182TIP3   OH218551   2.611   3.320   1.413
 6182TIP3    H118552   2.697   3.318   1.372
 6182TIP3    H218553   2.561   3.382   1.360
 6183TIP3   OH218554   4.634   3.578   3.753
 6183TIP3    H118555   4.603   3.651   3.806
 6183TIP3    H218556   4.559   3.557   3.697
 6184TIP3   OH218557   3.902   2.500   4.638
 6184TIP3    H118558   3.900   2.408   4.665
 6184TIP3    H218559   3.857   2.501   4.554
 6185TIP3   OH218560   3.813   0.270   4.768
 6185TIP3    H118561   3.845   0.199   4.824
 6185TIP3    H218562   3.781   0.225   4.690
 6186TIP3   OH218563   5.132   0.117   0.986
 6186TIP3    H118564   5.056   0.126   0.928
 6186TIP3    H218565   5.124   0.029   1.023
 6187TIP3   OH218566   3.279   3.897   2.610
 6187TIP3    H118567   3.334   3.838   2.559
 6187TIP3    H218568   3.217   3.933   2.546
 6188TIP3   OH218569   0.039   0.932   2.110
 6188TIP3    H118570  -0.002   0.901   2.029
 6188TIP3    H218571   0.110   0.989   2.081
 6189TIP3   OH218572   4.171   1.183   0.136
 6189TIP3    H118573   4.213   1.266   0.159
 6189TIP3    H218574   4.160   1.188   0.041
 6190TIP3   OH218575   3.510   5.774   2.305
 6190TIP3    H118576   3.521   5.775   2.400
 6190TIP3    H218577   3.501   5.866   2.281
 6191TIP3   OH218578   2.409   2.835   1.559
 6191TIP3    H118579   2.418   2.826   1.464
 6191TIP3    H218580   2.456   2.761   1.595
 6192TIP3   OH218581   5.470   4.263   0.572
 6192TIP3    H118582   5.428   4.180   0.553
 6192TIP3    H218583   5.399   4.327   0.570
 6193TIP3   OH218584   1.045   0.185   4.909
 6193TIP3    H118585   0.950   0.182   4.896
 6193TIP3    H218586   1.081   0.137   4.836
 6194TIP3   OH218587   2.631   4.263   2.967
 6194TIP3    H118588   2.591   4.254   2.881
 6194TIP3    H218589   2.651   4.356   2.975
 6195TIP3   OH218590   1.784   2.002   4.607
 6195TIP3    H118591   1.771   1.997   4.512
 6195TIP3    H218592   1.868   2.046   4.617
 6196TIP3   OH218593   1.552   1.300   1.649
 6196TIP3    H118594   1.510   1.360   1.711
 6196TIP3    H218595   1.632   1.272   1.693
 6197TIP3   OH218596   2.929   4.012   5.010
 6197TIP3    H118597   2.887   4.050   5.087
 6197TIP3    H218598   2.927   3.918   5.025
 6198TIP3   OH218599   4.421   3.045   0.607
 6198TIP3    H118600   4.441   2.992   0.530
 6198TIP3    H218601   4.506   3.074   0.639
 6199TIP3   OH218602   1.387   0.812   0.579
 6199TIP3    H118603   1.472   0.811   0.624
 6199TIP3    H218604   1.395   0.742   0.514
 6200TIP3   OH218605   5.024   2.242   3.997
 6200TIP3    H118606   5.011   2.194   3.916
 6200TIP3    H218607   5.013   2.177   4.066
 6201TIP3   OH218608   2.546   5.685   0.869
 6201TIP3    H118609   2.633   5.650   0.847
 6201TIP3    H218610   2.485   5.625   0.826
 6202TIP3   OH218611   5.896   1.852   3.079
 6202TIP3    H118612   5.961   1.800   3.127
 6202TIP3    H218613   5.818   1.851   3.135
 6203TIP3   OH218614   3.840   0.532   4.213
 6203TIP3    H118615   3.927   0.498   4.234
 6203TIP3    H218616   3.839   0.621   4.247
 6204TIP3   OH218617   4.089   1.411   1.185
 6204TIP3    H118618   4.136   1.367   1.115
 6204TIP3    H218619   4.062   1.341   1.244
 6205TIP3   OH218620   0.087   4.737   3.144
 6205TIP3    H118621   0.011   4.701   3.189
 6205TIP3    H218622   0.050   4.805   3.087
 6206TIP3   OH218623   0.693   1.441   5.106
 6206TIP3    H118624   0.774   1.391   5.107
 6206TIP3    H218625   0.627   1.381   5.143
 6207TIP3   OH218626   3.493   5.898   1.133
 6207TIP3    H118627   3.546   5.933   1.061
 6207TIP3    H218628   3.453   5.975   1.174
 6208TIP3   OH218629   6.317   5.484   4.135
 6208TIP3    H118630   6.295   5.391   4.126
 6208TIP3    H218631   6.236   5.530   4.112
 6209TIP3   OH218632   3.374   3.816   2.032
 6209TIP3    H118633   3.430   3.749   1.993
 6209TIP3    H218634   3.350   3.874   1.959
 6210TIP3   OH218635   4.459   3.446   1.798
 6210TIP3    H118636   4.396   3.496   1.746
 6210TIP3    H218637   4.424   3.448   1.887
 6211TIP3   OH218638   5.785   0.348   0.231
 6211TIP3    H118639   5.717   0.281   0.233
 6211TIP3    H218640   5.744   0.426   0.269
 6212TIP3   OH218641   5.275   5.405   4.854
 6212TIP3    H118642   5.363   5.443   4.847
 6212TIP3    H218643   5.245   5.397   4.763
 6213TIP3   OH218644   1.782   0.837   4.810
 6213TIP3    H118645   1.738   0.819   4.893
 6213TIP3    H218646   1.732   0.788   4.745
 6214TIP3   OH218647   4.517   4.536   4.418
 6214TIP3    H118648   4.426   4.532   4.447
 6214TIP3    H218649   4.559   4.597   4.479
 6215TIP3   OH218650   5.693   3.246   2.964
 6215TIP3    H118651   5.704   3.339   2.988
 6215TIP3    H218652   5.736   3.239   2.879
 6216TIP3   OH218653   1.319   4.858   3.322
 6216TIP3    H118654   1.230   4.844   3.291
 6216TIP3    H218655   1.340   4.779   3.371
 6217TIP3   OH218656   5.858   5.448   0.389
 6217TIP3    H118657   5.842   5.481   0.301
 6217TIP3    H218658   5.819   5.361   0.390
 6218TIP3   OH218659   5.629   0.802   2.677
 6218TIP3    H118660   5.705   0.791   2.733
 6218TIP3    H218661   5.612   0.896   2.676
 6219TIP3   OH218662   0.741   0.195   0.257
 6219TIP3    H118663   0.823   0.193   0.207
 6219TIP3    H218664   0.764   0.244   0.337
 6220TIP3   OH218665   5.492   4.750   1.015
 6220TIP3    H118666   5.431   4.796   0.958
 6220TIP3    H218667   5.543   4.694   0.957
 6221TIP3   OH218668   3.409   5.228   4.811
 6221TIP3    H118669   3.473   5.226   4.883
 6221TIP3    H218670   3.446   5.170   4.745
 6222TIP3   OH218671   3.648   4.974   1.575
 6222TIP3    H118672   3.636   5.067   1.553
 6222TIP3    H218673   3.715   4.975   1.644
 6223TIP3   OH218674   4.567   5.497   3.826
 6223TIP3    H118675   4.612   5.581   3.818
 6223TIP3    H218676   4.526   5.483   3.741
 6224TIP3   OH218677   5.742   3.375   3.362
 6224TIP3    H118678   5.825   3.417   3.384
 6224TIP3    H218679   5.767   3.288   3.330
 6225TIP3   OH218680   4.693   0.142   4.047
 6225TIP3    H118681   4.627   0.166   3.982
 6225TIP3    H218682   4.776   0.147   3.999
 6226TIP3   OH218683   4.396   2.930   1.522
 6226TIP3    H118684   4.362   2.986   1.453
 6226TIP3    H218685   4.459   2.872   1.478
 6227TIP3   OH218686   0.536   1.159   0.616
 6227TIP3    H118687   0.515   1.074   0.576
 6227TIP3    H218688   0.623   1.146   0.655
 6228TIP3   OH218689   5.612   2.958   1.757
 6228TIP3    H118690   5.600   3.052   1.770
 6228TIP3    H218691   5.655   2.951   1.672
 6229TIP3   OH218692   4.522   1.160   4.975
 6229TIP3    H118693   4.583   1.100   4.932
 6229TIP3    H218694   4.470   1.196   4.903
 6230TIP3   OH218695   4.130   1.395   4.198
 6230TIP3    H118696   4.106   1.459   4.265
 6230TIP3    H218697   4.146   1.448   4.120
 6231TIP3   OH218698   1.285   0.883   4.966
 6231TIP3    H118699   1.269   0.974   4.991
 6231TIP3    H218700   1.197   0.846   4.952
 6232TIP3   OH218701   0.185   5.389   3.141
 6232TIP3    H118702   0.135   5.462   3.177
 6232TIP3    H218703   0.243   5.430   3.076
 6233TIP3   OH218704   0.090   5.768   4.240
 6233TIP3    H118705   0.058   5.722   4.317
 6233TIP3    H218706   0.033   5.738   4.169
 6234TIP3   OH218707   2.408   3.762   4.203
 6234TIP3    H118708   2.437   3.825   4.268
 6234TIP3    H218709   2.317   3.742   4.227
 6235TIP3   OH218710   2.703   0.006   4.744
 6235TIP3    H118711   2.696   0.014   4.839
 6235TIP3    H218712   2.692   0.096   4.712
 6236TIP3   OH218713   2.089   2.461   0.955
 6236TIP3    H118714   2.036   2.439   1.032
 6236TIP3    H218715   2.074   2.388   0.895
 6237TIP3   OH218716   6.328   2.132   2.337
 6237TIP3    H118717   6.279   2.104   2.260
 6237TIP3    H218718   6.416   2.151   2.305
 6238TIP3   OH218719   4.596   2.763   4.535
 6238TIP3    H118720   4.673   2.802   4.493
 6238TIP3    H218721   4.622   2.672   4.553
 6239TIP3   OH218722   2.471   2.692   1.283
 6239TIP3    H118723   2.516   2.607   1.285
 6239TIP3    H218724   2.476   2.719   1.191
 6240TIP3   OH218725   5.073   3.495   0.557
 6240TIP3    H118726   5.125   3.459   0.485
 6240TIP3    H218727   5.134   3.498   0.631
 6241TIP3   OH218728   5.378   5.797   4.152
 6241TIP3    H118729   5.468   5.800   4.182
 6241TIP3    H218730   5.358   5.704   4.145
 6242TIP3   OH218731   1.849   4.138   2.322
 6242TIP3    H118732   1.782   4.087   2.368
 6242TIP3    H218733   1.883   4.078   2.256
 6243TIP3   OH218734   5.719   2.056   3.729
 6243TIP3    H118735   5.714   2.145   3.764
 6243TIP3    H218736   5.655   2.054   3.658
 6244TIP3   OH218737   4.043   3.362   3.097
 6244TIP3    H118738   4.134   3.391   3.098
 6244TIP3    H218739   3.992   3.443   3.100
 6245TIP3   OH218740   3.039   0.489   2.538
 6245TIP3    H118741   3.014   0.580   2.549
 6245TIP3    H218742   3.114   0.491   2.478
 6246TIP3   OH218743   3.064   4.263   4.724
 6246TIP3    H118744   3.060   4.356   4.703
 6246TIP3    H218745   3.071   4.219   4.639
 6247TIP3   OH218746   4.274   0.730   2.905
 6247TIP3    H118747   4.266   0.726   3.000
 6247TIP3    H218748   4.207   0.668   2.873
 6248TIP3   OH218749   0.422   2.906   1.487
 6248TIP3    H118750   0.368   2.961   1.544
 6248TIP3    H218751   0.448   2.964   1.415
 6249TIP3   OH218752   2.024   2.842   3.047
 6249TIP3    H118753   2.016   2.784   2.971
 6249TIP3    H218754   2.028   2.930   3.009
 6250TIP3   OH218755   1.161   2.791   2.677
 6250TIP3    H118756   1.080   2.841   2.679
 6250TIP3    H218757   1.229   2.856   2.658
 6251TIP3   OH218758   4.028   2.207   1.153
 6251TIP3    H118759   3.973   2.168   1.221
 6251TIP3    H218760   4.028   2.301   1.173
 6252TIP3   OH218761   2.932   1.344   2.905
 6252TIP3    H118762   3.005   1.383   2.858
 6252TIP3    H218763   2.872   1.417   2.923
 6253TIP3   OH218764   0.322   5.928   4.201
 6253TIP3    H118765   0.236   5.887   4.208
 6253TIP3    H218766   0.357   5.898   4.118
 6254TIP3   OH218767   2.579   0.227   3.659
 6254TIP3    H118768   2.591   0.318   3.631
 6254TIP3    H218769   2.665   0.187   3.647
 6255TIP3   OH218770   6.120   5.713   1.244
 6255TIP3    H118771   6.199   5.660   1.235
 6255TIP3    H218772   6.113   5.760   1.161
 6256TIP3   OH218773   6.089   0.474   2.878
 6256TIP3    H118774   6.140   0.540   2.832
 6256TIP3    H218775   6.068   0.514   2.962
 6257TIP3   OH218776   2.708   2.878  -0.019
 6257TIP3    H118777   2.749   2.815   0.040
 6257TIP3    H218778   2.730   2.846  -0.107
 6258TIP3   OH218779   0.393   0.119   4.552
 6258TIP3    H118780   0.329   0.051   4.528
 6258TIP3    H218781   0.459   0.116   4.483
 6259TIP3   OH218782   5.303   2.814   4.395
 6259TIP3    H118783   5.212   2.844   4.387
 6259TIP3    H218784   5.356   2.887   4.362
 6260TIP3   OH218785   4.274   5.297   1.962
 6260TIP3    H118786   4.363   5.284   1.996
 6260TIP3    H218787   4.265   5.232   1.892
 6261TIP3   OH218788   5.169   2.010   0.771
 6261TIP3    H118789   5.139   1.997   0.681
 6261TIP3    H218790   5.188   1.922   0.803
 6262TIP3   OH218791   4.395   3.595   1.541
 6262TIP3    H118792   4.401   3.632   1.453
 6262TIP3    H218793   4.486   3.580   1.567
 6263TIP3   OH218794   5.728   4.942   4.381
 6263TIP3    H118795   5.683   5.023   4.357
 6263TIP3    H218796   5.676   4.906   4.453
 6264TIP3   OH218797   5.027   4.999   3.966
 6264TIP3    H118798   5.106   4.945   3.959
 6264TIP3    H218799   5.054   5.071   4.023
 6265TIP3   OH218800   3.152   0.346   4.399
 6265TIP3    H118801   3.113   0.282   4.340
 6265TIP3    H218802   3.243   0.353   4.370
 6266TIP3   OH218803   4.777   1.741   1.234
 6266TIP3    H118804   4.785   1.833   1.210
 6266TIP3    H218805   4.821   1.735   1.319
 6267TIP3   OH218806   6.131   4.290   1.334
 6267TIP3    H118807   6.054   4.236   1.319
 6267TIP3    H218808   6.097   4.376   1.358
 6268TIP3   OH218809   4.653   0.419   2.585
 6268TIP3    H118810   4.622   0.506   2.559
 6268TIP3    H218811   4.573   0.371   2.606
 6269TIP3   OH218812   3.555   2.867   2.801
 6269TIP3    H118813   3.529   2.795   2.859
 6269TIP3    H218814   3.573   2.940   2.860
 6270TIP3   OH218815   4.497   0.172   0.813
 6270TIP3    H118816   4.559   0.243   0.828
 6270TIP3    H218817   4.545   0.093   0.836
 6271TIP3   OH218818   2.339   5.861   1.682
 6271TIP3    H118819   2.273   5.917   1.722
 6271TIP3    H218820   2.369   5.909   1.605
 6272TIP3   OH218821   4.561   4.165   4.465
 6272TIP3    H118822   4.517   4.115   4.396
 6272TIP3    H218823   4.491   4.211   4.510
 6273TIP3   OH218824   6.191   2.682   3.373
 6273TIP3    H118825   6.207   2.771   3.402
 6273TIP3    H218826   6.264   2.663   3.313
 6274TIP3   OH218827   3.986   3.923   0.706
 6274TIP3    H118828   4.009   3.833   0.683
 6274TIP3    H218829   3.917   3.948   0.645
 6275TIP3   OH218830   3.875   4.507   2.865
 6275TIP3    H118831   3.807   4.440   2.871
 6275TIP3    H218832   3.891   4.532   2.956
 6276TIP3   OH218833   4.814   4.689   3.979
 6276TIP3    H118834   4.805   4.598   4.006
 6276TIP3    H218835   4.833   4.736   4.060
 6277TIP3   OH218836   0.806   0.786   4.155
 6277TIP3    H118837   0.881   0.811   4.209
 6277TIP3    H218838   0.832   0.809   4.065
 6278TIP3   OH218839   4.674   2.778   1.920
 6278TIP3    H118840   4.763   2.777   1.884
 6278TIP3    H218841   4.628   2.843   1.867
 6279TIP3   OH218842   2.615   0.128   2.901
 6279TIP3    H118843   2.610   0.197   2.967
 6279TIP3    H218844   2.708   0.108   2.893
 6280TIP3   OH218845   4.015   5.005   3.981
 6280TIP3    H118846   4.103   5.043   3.986
 6280TIP3    H218847   3.969   5.042   4.056
 6281TIP3   OH218848   0.647   4.388   3.493
 6281TIP3    H118849   0.729   4.354   3.456
 6281TIP3    H218850   0.636   4.475   3.453
 6282TIP3   OH218851   4.368   0.965   3.131
 6282TIP3    H118852   4.329   1.001   3.051
 6282TIP3    H218853   4.364   1.037   3.194
 6283TIP3   OH218854   3.700   1.654   2.784
 6283TIP3    H118855   3.611   1.688   2.778
 6283TIP3    H218856   3.696   1.568   2.741
 6284TIP3   OH218857   4.943   4.474   4.211
 6284TIP3    H118858   4.892   4.469   4.292
 6284TIP3    H218859   5.021   4.422   4.228
 6285TIP3   OH218860   4.578   2.952   1.741
 6285TIP3    H118861   4.609   2.998   1.663
 6285TIP3    H218862   4.499   2.906   1.712
 6286TIP3   OH218863   5.168   2.669   1.417
 6286TIP3    H118864   5.188   2.637   1.505
 6286TIP3    H218865   5.231   2.625   1.360
 6287TIP3   OH218866   2.401   0.094   0.519
 6287TIP3    H118867   2.348   0.148   0.577
 6287TIP3    H218868   2.338   0.042   0.470
 6288TIP3   OH218869   3.375   2.847   0.089
 6288TIP3    H118870   3.302   2.845   0.027
 6288TIP3    H218871   3.366   2.765   0.138
 6289TIP3   OH218872   0.036   2.067   4.350
 6289TIP3    H118873   0.088   2.003   4.399
 6289TIP3    H218874   0.094   2.095   4.279
 6290TIP3   OH218875   3.352   4.816   3.036
 6290TIP3    H118876   3.371   4.877   3.107
 6290TIP3    H218877   3.438   4.791   3.002
 6291TIP3   OH218878   0.797   3.849   5.142
 6291TIP3    H118879   0.739   3.774   5.149
 6291TIP3    H218880   0.739   3.921   5.117
 6292TIP3   OH218881   5.767   3.621   5.177
 6292TIP3    H118882   5.688   3.569   5.184
 6292TIP3    H218883   5.740   3.709   5.203
 6293TIP3   OH218884   3.717   0.856   0.532
 6293TIP3    H118885   3.651   0.869   0.464
 6293TIP3    H218886   3.798   0.841   0.484
 6294TIP3   OH218887   2.866   4.916   2.390
 6294TIP3    H118888   2.783   4.958   2.412
 6294TIP3    H218889   2.922   4.989   2.361
 6295TIP3   OH218890   5.022   2.514   3.663
 6295TIP3    H118891   5.071   2.456   3.604
 6295TIP3    H218892   5.086   2.539   3.730
 6296TIP3   OH218893   4.669   1.410   4.391
 6296TIP3    H118894   4.725   1.483   4.415
 6296TIP3    H218895   4.697   1.338   4.447
 6297TIP3   OH218896   5.357   3.816   0.786
 6297TIP3    H118897   5.270   3.808   0.826
 6297TIP3    H218898   5.359   3.746   0.720
 6298TIP3   OH218899   1.123   3.561   3.338
 6298TIP3    H118900   1.142   3.592   3.427
 6298TIP3    H218901   1.035   3.524   3.343
 6299TIP3   OH218902   3.766   1.939   4.435
 6299TIP3    H118903   3.833   1.996   4.474
 6299TIP3    H218904   3.812   1.856   4.421
 6300TIP3   OH218905   3.564   1.893   0.864
 6300TIP3    H118906   3.569   1.871   0.958
 6300TIP3    H218907   3.639   1.950   0.849
 6301TIP3   OH218908   2.749   0.790   4.483
 6301TIP3    H118909   2.816   0.726   4.507
 6301TIP3    H218910   2.666   0.747   4.503
 6302TIP3   OH218911   2.639   2.699   0.258
 6302TIP3    H118912   2.730   2.728   0.246
 6302TIP3    H218913   2.629   2.627   0.196
 6303TIP3   OH218914   1.161   3.489   2.688
 6303TIP3    H118915   1.140   3.425   2.620
 6303TIP3    H218916   1.087   3.485   2.749
 6304TIP3   OH218917   0.377   5.960   2.616
 6304TIP3    H118918   0.369   6.053   2.596
 6304TIP3    H218919   0.342   5.915   2.538
 6305TIP3   OH218920   1.516   1.676   3.425
 6305TIP3    H118921   1.604   1.703   3.397
 6305TIP3    H218922   1.513   1.699   3.518
 6306TIP3   OH218923   4.920   4.840   4.719
 6306TIP3    H118924   4.938   4.894   4.796
 6306TIP3    H218925   5.002   4.838   4.670
 6307TIP3   OH218926   6.150   2.792   2.647
 6307TIP3    H118927   6.242   2.800   2.622
 6307TIP3    H218928   6.104   2.851   2.587
 6308TIP3   OH218929   4.416   5.157   4.635
 6308TIP3    H118930   4.439   5.207   4.556
 6308TIP3    H218931   4.440   5.067   4.613
 6309TIP3   OH218932   4.322   0.352   5.084
 6309TIP3    H118933   4.357   0.388   5.003
 6309TIP3    H218934   4.227   0.355   5.072
 6310TIP3   OH218935   1.482   1.652   2.495
 6310TIP3    H118936   1.472   1.564   2.532
 6310TIP3    H218937   1.441   1.710   2.559
 6311TIP3   OH218938   3.505   0.030   1.796
 6311TIP3    H118939   3.426   0.015   1.744
 6311TIP3    H218940   3.565   0.074   1.737
 6312TIP3   OH218941   5.167   2.214   1.087
 6312TIP3    H118942   5.259   2.188   1.101
 6312TIP3    H218943   5.117   2.139   1.118
 6313TIP3   OH218944   5.360   5.895   1.336
 6313TIP3    H118945   5.380   5.961   1.402
 6313TIP3    H218946   5.267   5.875   1.350
 6314TIP3   OH218947   0.367   5.304   4.208
 6314TIP3    H118948   0.439   5.305   4.144
 6314TIP3    H218949   0.305   5.368   4.174
 6315TIP3   OH218950   5.507   3.334   3.504
 6315TIP3    H118951   5.596   3.360   3.480
 6315TIP3    H218952   5.500   3.242   3.477
 6316TIP3   OH218953   1.861   5.987   4.389
 6316TIP3    H118954   1.817   5.956   4.310
 6316TIP3    H218955   1.928   5.921   4.407
 6317TIP3   OH218956   4.312   0.174   0.613
 6317TIP3    H118957   4.230   0.192   0.659
 6317TIP3    H218958   4.379   0.176   0.682
 6318TIP3   OH218959   1.568   5.665   3.834
 6318TIP3    H118960   1.633   5.701   3.894
 6318TIP3    H218961   1.588   5.571   3.832
 6319TIP3   OH218962   4.642   1.205   4.591
 6319TIP3    H118963   4.569   1.167   4.639
 6319TIP3    H218964   4.646   1.155   4.509
 6320TIP3   OH218965   0.982   5.488   2.141
 6320TIP3    H118966   0.938   5.541   2.075
 6320TIP3    H218967   1.007   5.550   2.209
 6321TIP3   OH218968   2.636   4.399   0.890
 6321TIP3    H118969   2.672   4.486   0.906
 6321TIP3    H218970   2.569   4.414   0.822
 6322TIP3   OH218971   0.126   1.868   4.522
 6322TIP3    H118972   0.193   1.813   4.481
 6322TIP3    H218973   0.110   1.827   4.607
 6323TIP3   OH218974   1.193   5.838   1.364
 6323TIP3    H118975   1.238   5.766   1.319
 6323TIP3    H218976   1.255   5.868   1.430
 6324TIP3   OH218977   2.734   2.971   1.965
 6324TIP3    H118978   2.695   3.013   1.889
 6324TIP3    H218979   2.718   2.878   1.953
 6325TIP3   OH218980   1.333   3.671   0.487
 6325TIP3    H118981   1.245   3.663   0.523
 6325TIP3    H218982   1.352   3.586   0.448
 6326TIP3   OH218983   3.153   4.218   4.972
 6326TIP3    H118984   3.084   4.159   5.003
 6326TIP3    H218985   3.126   4.243   4.884
 6327TIP3   OH218986   4.979   3.656   5.165
 6327TIP3    H118987   4.913   3.695   5.108
 6327TIP3    H218988   4.957   3.689   5.253
 6328TIP3   OH218989   5.711   5.255   0.747
 6328TIP3    H118990   5.698   5.203   0.667
 6328TIP3    H218991   5.623   5.265   0.783
 6329TIP3   OH218992   6.240   1.688   4.362
 6329TIP3    H118993   6.168   1.684   4.299
 6329TIP3    H218994   6.318   1.704   4.308
 6330TIP3   OH218995   4.942   5.782   4.933
 6330TIP3    H118996   4.930   5.800   4.839
 6330TIP3    H218997   5.036   5.770   4.944
 6331TIP3   OH218998   1.987   2.313   3.494
 6331TIP3    H118999   2.077   2.341   3.479
 6331TIP3    H219000   1.938   2.395   3.502
 6332TIP3   OH219001   1.298   1.144   0.105
 6332TIP3    H119002   1.214   1.173   0.140
 6332TIP3    H219003   1.360   1.155   0.177
 6333TIP3   OH219004   4.041   3.913   4.966
 6333TIP3    H119005   4.044   3.998   4.921
 6333TIP3    H219006   3.947   3.897   4.979
 6334TIP3   OH219007   1.751   5.801   1.372
 6334TIP3    H119008   1.793   5.838   1.450
 6334TIP3    H219009   1.693   5.733   1.406
 6335TIP3   OH219010   5.563   1.245   0.102
 6335TIP3    H119011   5.544   1.212   0.190
 6335TIP3    H219012   5.532   1.336   0.104
 6336TIP3   OH219013   4.569   1.326   3.010
 6336TIP3    H119014   4.610   1.249   2.971
 6336TIP3    H219015   4.592   1.321   3.103
 6337TIP3   OH219016   1.225   1.779   2.402
 6337TIP3    H119017   1.271   1.811   2.479
 6337TIP3    H219018   1.222   1.684   2.413
 6338TIP3   OH219019   6.217   4.284   3.345
 6338TIP3    H119020   6.286   4.292   3.279
 6338TIP3    H219021   6.239   4.204   3.393
 6339TIP3   OH219022   4.842   0.707   4.370
 6339TIP3    H119023   4.879   0.650   4.438
 6339TIP3    H219024   4.913   0.765   4.346
 6340TIP3   OH219025   5.287   0.306   1.120
 6340TIP3    H119026   5.352   0.339   1.059
 6340TIP3    H219027   5.244   0.234   1.073
 6341TIP3   OH219028   0.739   5.204   2.703
 6341TIP3    H119029   0.716   5.163   2.787
 6341TIP3    H219030   0.721   5.297   2.715
 6342TIP3   OH219031   4.512   0.645   2.515
 6342TIP3    H119032   4.460   0.710   2.562
 6342TIP3    H219033   4.571   0.697   2.460
 6343TIP3   OH219034   0.679   1.459   4.231
 6343TIP3    H119035   0.595   1.453   4.185
 6343TIP3    H219036   0.681   1.382   4.287
 6344TIP3   OH219037   0.115   4.698   0.935
 6344TIP3    H119038   0.114   4.750   1.015
 6344TIP3    H219039   0.026   4.705   0.900
 6345TIP3   OH219040   3.912   2.009   4.156
 6345TIP3    H119041   3.903   1.930   4.211
 6345TIP3    H219042   3.993   1.995   4.108
 6346TIP3   OH219043   0.515   3.600   2.931
 6346TIP3    H119044   0.567   3.672   2.896
 6346TIP3    H219045   0.566   3.568   3.006
 6347TIP3   OH219046   4.038   1.607   0.467
 6347TIP3    H119047   4.071   1.517   0.476
 6347TIP3    H219048   3.970   1.602   0.401
 6348TIP3   OH219049   2.150   2.915   0.022
 6348TIP3    H119050   2.214   2.911  -0.049
 6348TIP3    H219051   2.194   2.962   0.092
 6349TIP3   OH219052   5.458   5.635   4.541
 6349TIP3    H119053   5.466   5.565   4.605
 6349TIP3    H219054   5.502   5.601   4.463
 6350TIP3   OH219055   4.878   1.060   3.402
 6350TIP3    H119056   4.821   0.994   3.442
 6350TIP3    H219057   4.958   1.057   3.454
 6351TIP3   OH219058   0.826   4.890   1.831
 6351TIP3    H119059   0.907   4.839   1.832
 6351TIP3    H219060   0.758   4.828   1.855
 6352TIP3   OH219061   1.580   1.802   1.181
 6352TIP3    H119062   1.636   1.840   1.248
 6352TIP3    H219063   1.495   1.846   1.193
 6353TIP3   OH219064   4.378   2.601   3.297
 6353TIP3    H119065   4.345   2.683   3.261
 6353TIP3    H219066   4.448   2.627   3.357
 6354TIP3   OH219067   2.167   0.396   3.598
 6354TIP3    H119068   2.108   0.420   3.670
 6354TIP3    H219069   2.221   0.326   3.634
 6355TIP3   OH219070   6.260   1.503   2.004
 6355TIP3    H119071   6.253   1.430   2.065
 6355TIP3    H219072   6.273   1.462   1.919
 6356TIP3   OH219073   6.252   1.633   0.627
 6356TIP3    H119074   6.196   1.664   0.555
 6356TIP3    H219075   6.330   1.688   0.622
 6357TIP3   OH219076   5.724   5.691   4.829
 6357TIP3    H119077   5.686   5.768   4.872
 6357TIP3    H219078   5.761   5.725   4.748
 6358TIP3   OH219079   5.644   4.761   5.036
 6358TIP3    H119080   5.605   4.846   5.055
 6358TIP3    H219081   5.689   4.737   5.116
 6359TIP3   OH219082   1.106   5.222   1.607
 6359TIP3    H119083   1.171   5.289   1.627
 6359TIP3    H219084   1.052   5.217   1.685
 6360TIP3   OH219085   0.589   4.896   2.959
 6360TIP3    H119086   0.583   4.812   2.914
 6360TIP3    H219087   0.498   4.917   2.983
 6361TIP3   OH219088   5.147   5.631   1.529
 6361TIP3    H119089   5.132   5.634   1.624
 6361TIP3    H219090   5.175   5.541   1.513
 6362TIP3   OH219091   5.791   2.693   0.146
 6362TIP3    H119092   5.707   2.694   0.193
 6362TIP3    H219093   5.845   2.632   0.195
 6363TIP3   OH219094   2.607   4.846   4.411
 6363TIP3    H119095   2.559   4.883   4.337
 6363TIP3    H219096   2.557   4.873   4.488
 6364TIP3   OH219097   0.275   2.027   0.130
 6364TIP3    H119098   0.303   2.116   0.108
 6364TIP3    H219099   0.328   1.971   0.073
 6365TIP3   OH219100   2.188   1.405   0.588
 6365TIP3    H119101   2.196   1.362   0.504
 6365TIP3    H219102   2.265   1.463   0.593
 6366TIP3   OH219103   2.590   2.355   1.482
 6366TIP3    H119104   2.606   2.443   1.516
 6366TIP3    H219105   2.677   2.316   1.475
 6367TIP3   OH219106   5.850   3.848   4.394
 6367TIP3    H119107   5.859   3.917   4.460
 6367TIP3    H219108   5.816   3.894   4.316
 6368TIP3   OH219109   5.191   4.692   3.889
 6368TIP3    H119110   5.212   4.742   3.810
 6368TIP3    H219111   5.200   4.755   3.960
 6369TIP3   OH219112   5.301   0.157   3.729
 6369TIP3    H119113   5.262   0.211   3.798
 6369TIP3    H219114   5.312   0.071   3.770
 6370TIP3   OH219115   4.439   2.350   3.550
 6370TIP3    H119116   4.400   2.264   3.568
 6370TIP3    H219117   4.366   2.404   3.520
 6371TIP3   OH219118   2.876   5.008   1.524
 6371TIP3    H119119   2.834   5.069   1.585
 6371TIP3    H219120   2.858   5.045   1.438
 6372TIP3   OH219121   2.940   2.750   3.337
 6372TIP3    H119122   2.875   2.680   3.329
 6372TIP3    H219123   2.957   2.755   3.431
 6373TIP3   OH219124   3.971   2.067   1.499
 6373TIP3    H119125   3.991   2.015   1.421
 6373TIP3    H219126   3.895   2.024   1.538
 6374TIP3   OH219127   2.851   4.891   0.417
 6374TIP3    H119128   2.895   4.819   0.371
 6374TIP3    H219129   2.767   4.854   0.443
 6375TIP3   OH219130   4.779   5.715   3.746
 6375TIP3    H119131   4.860   5.761   3.722
 6375TIP3    H219132   4.709   5.769   3.709
 6376TIP3   OH219133   2.432   0.931   5.143
 6376TIP3    H119134   2.403   0.936   5.052
 6376TIP3    H219135   2.449   0.838   5.157
 6377TIP3   OH219136   5.786   3.421   2.481
 6377TIP3    H119137   5.857   3.466   2.526
 6377TIP3    H219138   5.810   3.329   2.484
 6378TIP3   OH219139   2.194   3.809   3.717
 6378TIP3    H119140   2.260   3.799   3.648
 6378TIP3    H219141   2.245   3.835   3.794
 6379TIP3   OH219142   1.943   1.785   4.654
 6379TIP3    H119143   1.871   1.842   4.627
 6379TIP3    H219144   1.969   1.819   4.740
 6380TIP3   OH219145   0.955   5.887   3.946
 6380TIP3    H119146   0.950   5.964   3.890
 6380TIP3    H219147   0.921   5.815   3.892
 6381TIP3   OH219148   1.849   1.250   0.986
 6381TIP3    H119149   1.896   1.206   1.058
 6381TIP3    H219150   1.911   1.250   0.914
 6382TIP3   OH219151   1.778   3.964   4.353
 6382TIP3    H119152   1.863   4.004   4.337
 6382TIP3    H219153   1.762   3.911   4.275
 6383TIP3   OH219154   1.215   4.109   3.073
 6383TIP3    H119155   1.307   4.084   3.081
 6383TIP3    H219156   1.212   4.166   2.996
 6384TIP3   OH219157   0.812   1.512   1.616
 6384TIP3    H119158   0.774   1.428   1.641
 6384TIP3    H219159   0.757   1.544   1.544
 6385TIP3   OH219160   5.455   1.481   4.669
 6385TIP3    H119161   5.533   1.518   4.708
 6385TIP3    H219162   5.382   1.525   4.713
 6386TIP3   OH219163   3.201   4.660   3.198
 6386TIP3    H119164   3.257   4.711   3.140
 6386TIP3    H219165   3.251   4.651   3.279
 6387TIP3   OH219166   3.583   1.284   1.126
 6387TIP3    H119167   3.531   1.308   1.203
 6387TIP3    H219168   3.669   1.262   1.160
 6388TIP3   OH219169   3.520   0.792   4.165
 6388TIP3    H119170   3.486   0.881   4.169
 6388TIP3    H219171   3.576   0.784   4.242
 6389TIP3   OH219172   3.644   5.966   1.902
 6389TIP3    H119173   3.716   5.903   1.896
 6389TIP3    H219174   3.626   5.991   1.812
 6390TIP3   OH219175   6.126   1.947   4.491
 6390TIP3    H119176   6.215   1.972   4.468
 6390TIP3    H219177   6.136   1.882   4.560
 6391TIP3   OH219178   5.462   4.950   5.136
 6391TIP3    H119179   5.485   5.017   5.201
 6391TIP3    H219180   5.460   4.997   5.053
 6392TIP3   OH219181   5.007   1.693   2.506
 6392TIP3    H119182   5.005   1.787   2.488
 6392TIP3    H219183   4.915   1.670   2.521
 6393TIP3   OH219184   0.314   4.980   3.943
 6393TIP3    H119185   0.322   4.986   4.038
 6393TIP3    H219186   0.320   4.886   3.924
 6394TIP3   OH219187   3.842   5.906   0.221
 6394TIP3    H119188   3.873   5.976   0.278
 6394TIP3    H219189   3.791   5.950   0.154
 6395TIP3   OH219190   1.988   5.553   1.301
 6395TIP3    H119191   1.931   5.565   1.225
 6395TIP3    H219192   2.013   5.641   1.327
 6396TIP3   OH219193   5.949   1.438   1.572
 6396TIP3    H119194   5.972   1.507   1.634
 6396TIP3    H219195   5.864   1.406   1.602
 6397TIP3   OH219196   2.613   0.987   4.023
 6397TIP3    H119197   2.660   1.066   3.996
 6397TIP3    H219198   2.523   1.002   3.994
 6398TIP3   OH219199   2.276   3.697   3.277
 6398TIP3    H119200   2.246   3.787   3.267
 6398TIP3    H219201   2.306   3.691   3.368
 6399TIP3   OH219202   1.047   2.019   4.952
 6399TIP3    H119203   1.043   2.100   4.902
 6399TIP3    H219204   0.957   1.986   4.952
 6400TIP3   OH219205   3.115   4.588   0.918
 6400TIP3    H119206   3.170   4.666   0.920
 6400TIP3    H219207   3.034   4.616   0.876
 6401TIP3   OH219208   0.149   3.067   2.355
 6401TIP3    H119209   0.245   3.062   2.358
 6401TIP3    H219210   0.126   3.127   2.426
 6402TIP3   OH219211   3.934   5.436   3.855
 6402TIP3    H119212   3.898   5.517   3.820
 6402TIP3    H219213   3.885   5.366   3.812
 6403TIP3   OH219214   5.595   1.268   1.866
 6403TIP3    H119215   5.523   1.236   1.920
 6403TIP3    H219216   5.610   1.198   1.802
 6404TIP3   OH219217   4.536   2.892   1.285
 6404TIP3    H119218   4.600   2.936   1.229
 6404TIP3    H219219   4.457   2.945   1.278
 6405TIP3   OH219220   1.333   3.833   4.377
 6405TIP3    H119221   1.296   3.746   4.394
 6405TIP3    H219222   1.295   3.859   4.294
 6406TIP3   OH219223   2.998   3.823   2.700
 6406TIP3    H119224   3.063   3.753   2.711
 6406TIP3    H219225   2.996   3.839   2.606
 6407TIP3   OH219226   6.253   5.508   0.366
 6407TIP3    H119227   6.238   5.597   0.399
 6407TIP3    H219228   6.272   5.520   0.273
 6408TIP3   OH219229   3.129   3.887   1.680
 6408TIP3    H119230   3.082   3.809   1.650
 6408TIP3    H219231   3.127   3.881   1.775
 6409TIP3   OH219232   0.626   0.631   0.518
 6409TIP3    H119233   0.644   0.724   0.508
 6409TIP3    H219234   0.656   0.592   0.436
 6410TIP3   OH219235   4.914   2.225   1.464
 6410TIP3    H119236   4.888   2.220   1.372
 6410TIP3    H219237   4.853   2.167   1.510
 6411TIP3   OH219238   1.497   5.210   3.934
 6411TIP3    H119239   1.470   5.162   3.856
 6411TIP3    H219240   1.519   5.142   3.998
 6412TIP3   OH219241   0.495   3.661   2.411
 6412TIP3    H119242   0.588   3.680   2.397
 6412TIP3    H219243   0.492   3.568   2.434
 6413TIP3   OH219244   0.848   3.117   2.958
 6413TIP3    H119245   0.775   3.122   3.020
 6413TIP3    H219246   0.902   3.193   2.978
 6414TIP3   OH219247   4.861   5.672   1.692
 6414TIP3    H119248   4.801   5.615   1.642
 6414TIP3    H219249   4.891   5.617   1.764
 6415TIP3   OH219250   5.366   0.940   4.450
 6415TIP3    H119251   5.356   0.858   4.499
 6415TIP3    H219252   5.358   1.009   4.516
 6416TIP3   OH219253   0.794   2.107   1.195
 6416TIP3    H119254   0.839   2.150   1.122
 6416TIP3    H219255   0.796   2.172   1.265
 6417TIP3   OH219256   5.624   0.077   2.734
 6417TIP3    H119257   5.575   0.098   2.813
 6417TIP3    H219258   5.707   0.123   2.744
 6418TIP3   OH219259   3.549   3.713   3.218
 6418TIP3    H119260   3.517   3.635   3.173
 6418TIP3    H219261   3.476   3.740   3.274
 6419TIP3   OH219262   0.953   0.968   3.530
 6419TIP3    H119263   1.027   1.000   3.477
 6419TIP3    H219264   0.906   1.048   3.555
 6420TIP3   OH219265   2.645   3.490   0.655
 6420TIP3    H119266   2.633   3.404   0.615
 6420TIP3    H219267   2.558   3.515   0.685
 6421TIP3   OH219268   1.666   2.933   2.534
 6421TIP3    H119269   1.761   2.936   2.543
 6421TIP3    H219270   1.651   2.939   2.440
 6422TIP3   OH219271   4.627   3.482   4.556
 6422TIP3    H119272   4.683   3.557   4.534
 6422TIP3    H219273   4.637   3.472   4.651
 6423TIP3   OH219274   3.192   2.791   2.921
 6423TIP3    H119275   3.272   2.741   2.907
 6423TIP3    H219276   3.218   2.882   2.911
 6424TIP3   OH219277   0.678   3.652   0.880
 6424TIP3    H119278   0.683   3.670   0.786
 6424TIP3    H219279   0.644   3.733   0.918
 6425TIP3   OH219280   0.887   5.710   3.730
 6425TIP3    H119281   0.815   5.706   3.792
 6425TIP3    H219282   0.949   5.643   3.760
 6426TIP3   OH219283   3.853   2.532   4.315
 6426TIP3    H119284   3.789   2.543   4.245
 6426TIP3    H219285   3.915   2.468   4.282
 6427TIP3   OH219286   0.373   4.265   3.690
 6427TIP3    H119287   0.367   4.214   3.609
 6427TIP3    H219288   0.326   4.212   3.755
 6428TIP3   OH219289   3.134   0.258   2.334
 6428TIP3    H119290   3.126   0.353   2.345
 6428TIP3    H219291   3.081   0.238   2.256
 6429TIP3   OH219292   4.974   0.027   4.246
 6429TIP3    H119293   5.052  -0.029   4.243
 6429TIP3    H219294   4.948   0.037   4.155
 6430TIP3   OH219295   3.405   5.958   4.136
 6430TIP3    H119296   3.403   5.864   4.156
 6430TIP3    H219297   3.418   5.962   4.041
 6431TIP3   OH219298   0.524   5.491   1.125
 6431TIP3    H119299   0.490   5.444   1.201
 6431TIP3    H219300   0.590   5.433   1.088
 6432TIP3   OH219301   3.527   1.103   1.363
 6432TIP3    H119302   3.444   1.140   1.394
 6432TIP3    H219303   3.580   1.179   1.341
 6433TIP3   OH219304   0.848   0.915   4.596
 6433TIP3    H119305   0.870   0.998   4.638
 6433TIP3    H219306   0.900   0.850   4.642
 6434TIP3   OH219307   4.021   3.403   3.921
 6434TIP3    H119308   4.106   3.405   3.876
 6434TIP3    H219309   3.964   3.457   3.866
 6435TIP3   OH219310   1.692   2.059   4.337
 6435TIP3    H119311   1.733   2.059   4.250
 6435TIP3    H219312   1.664   2.150   4.350
 6436TIP3   OH219313   5.604   4.247   1.694
 6436TIP3    H119314   5.699   4.260   1.692
 6436TIP3    H219315   5.586   4.219   1.783
 6437TIP3   OH219316   0.558   5.215   4.646
 6437TIP3    H119317   0.486   5.259   4.601
 6437TIP3    H219318   0.610   5.176   4.576
 6438TIP3   OH219319   3.933   3.580   2.607
 6438TIP3    H119320   3.856   3.555   2.658
 6438TIP3    H219321   3.898   3.620   2.528
 6439TIP3   OH219322   2.651   1.086   5.190
 6439TIP3    H119323   2.663   1.116   5.100
 6439TIP3    H219324   2.570   1.034   5.188
 6440TIP3   OH219325   5.869   1.351   3.878
 6440TIP3    H119326   5.886   1.323   3.968
 6440TIP3    H219327   5.793   1.409   3.884
 6441TIP3   OH219328   3.311   2.398   0.179
 6441TIP3    H119329   3.259   2.339   0.234
 6441TIP3    H219330   3.248   2.436   0.118
 6442TIP3   OH219331   0.367   5.432   0.886
 6442TIP3    H119332   0.336   5.516   0.851
 6442TIP3    H219333   0.433   5.457   0.951
 6443TIP3   OH219334   2.214   3.362   0.401
 6443TIP3    H119335   2.209   3.362   0.305
 6443TIP3    H219336   2.137   3.411   0.429
 6444TIP3   OH219337   4.709   5.479   2.704
 6444TIP3    H119338   4.651   5.445   2.772
 6444TIP3    H219339   4.758   5.549   2.747
 6445TIP3   OH219340   5.412   1.380   5.071
 6445TIP3    H119341   5.468   1.428   5.010
 6445TIP3    H219342   5.331   1.431   5.074
 6446TIP3   OH219343   1.847   2.095   3.575
 6446TIP3    H119344   1.873   2.048   3.497
 6446TIP3    H219345   1.885   2.182   3.565
 6447TIP3   OH219346   1.299   4.556   0.923
 6447TIP3    H119347   1.238   4.530   0.854
 6447TIP3    H219348   1.326   4.473   0.963
 6448TIP3   OH219349   4.603   1.745   4.733
 6448TIP3    H119350   4.645   1.660   4.724
 6448TIP3    H219351   4.541   1.734   4.805
 6449TIP3   OH219352   4.165   4.159   1.869
 6449TIP3    H119353   4.159   4.253   1.849
 6449TIP3    H219354   4.127   4.116   1.792
 6450TIP3   OH219355   3.612   3.983   2.457
 6450TIP3    H119356   3.705   4.005   2.453
 6450TIP3    H219357   3.598   3.926   2.382
 6451TIP3   OH219358   5.242   5.356   0.038
 6451TIP3    H119359   5.323   5.319   0.073
 6451TIP3    H219360   5.238   5.443   0.077
 6452TIP3   OH219361   1.126   0.850   4.017
 6452TIP3    H119362   1.132   0.926   3.959
 6452TIP3    H219363   1.210   0.849   4.063
 6453TIP3   OH219364   5.589   5.441   1.063
 6453TIP3    H119365   5.595   5.373   1.130
 6453TIP3    H219366   5.539   5.511   1.103
 6454TIP3   OH219367   0.517   1.426   0.570
 6454TIP3    H119368   0.526   1.332   0.586
 6454TIP3    H219369   0.503   1.433   0.475
 6455TIP3   OH219370   1.416   3.806   2.279
 6455TIP3    H119371   1.467   3.732   2.313
 6455TIP3    H219372   1.332   3.801   2.325
 6456TIP3   OH219373   5.202   0.129   1.441
 6456TIP3    H119374   5.244   0.071   1.504
 6456TIP3    H219375   5.114   0.144   1.477
 6457TIP3   OH219376   0.558   3.073   3.871
 6457TIP3    H119377   0.527   3.101   3.957
 6457TIP3    H219378   0.645   3.112   3.862
 6458TIP3   OH219379   2.306   0.930   4.570
 6458TIP3    H119380   2.379   0.872   4.547
 6458TIP3    H219381   2.243   0.872   4.613
 6459TIP3   OH219382   4.365   5.434   0.930
 6459TIP3    H119383   4.289   5.381   0.906
 6459TIP3    H219384   4.437   5.397   0.877
 6460TIP3   OH219385   5.305   0.851   0.733
 6460TIP3    H119386   5.334   0.816   0.649
 6460TIP3    H219387   5.344   0.939   0.736
 6461TIP3   OH219388   1.839   2.242   3.246
 6461TIP3    H119389   1.746   2.266   3.245
 6461TIP3    H219390   1.868   2.264   3.334
 6462TIP3   OH219391   3.669   5.382   3.001
 6462TIP3    H119392   3.741   5.355   3.059
 6462TIP3    H219393   3.609   5.430   3.059
 6463TIP3   OH219394   5.562   3.082   0.526
 6463TIP3    H119395   5.487   3.142   0.526
 6463TIP3    H219396   5.538   3.014   0.589
 6464TIP3   OH219397   1.559   1.950   3.717
 6464TIP3    H119398   1.485   1.901   3.680
 6464TIP3    H219399   1.553   2.036   3.675
 6465TIP3   OH219400   4.823   1.386   3.149
 6465TIP3    H119401   4.879   1.358   3.076
 6465TIP3    H219402   4.832   1.482   3.150
 6466TIP3   OH219403   0.678   2.800   1.109
 6466TIP3    H119404   0.769   2.824   1.090
 6466TIP3    H219405   0.650   2.863   1.175
 6467TIP3   OH219406   1.067   1.667   4.942
 6467TIP3    H119407   1.102   1.709   4.864
 6467TIP3    H219408   1.118   1.586   4.950
 6468TIP3   OH219409   3.428   2.141   3.876
 6468TIP3    H119410   3.522   2.146   3.890
 6468TIP3    H219411   3.390   2.148   3.963
 6469TIP3   OH219412   2.570   1.178   0.290
 6469TIP3    H119413   2.552   1.122   0.366
 6469TIP3    H219414   2.641   1.134   0.244
 6470TIP3   OH219415   1.414   0.224   4.532
 6470TIP3    H119416   1.474   0.203   4.462
 6470TIP3    H219417   1.349   0.154   4.531
 6471TIP3   OH219418   1.750   1.960   2.669
 6471TIP3    H119419   1.786   1.932   2.754
 6471TIP3    H219420   1.691   2.032   2.691
 6472TIP3   OH219421   5.910   3.314   4.582
 6472TIP3    H119422   5.932   3.232   4.539
 6472TIP3    H219423   5.970   3.379   4.545
 6473TIP3   OH219424   3.617   1.547   3.332
 6473TIP3    H119425   3.529   1.572   3.305
 6473TIP3    H219426   3.605   1.500   3.414
 6474TIP3   OH219427   0.302   1.058   1.737
 6474TIP3    H119428   0.281   0.988   1.674
 6474TIP3    H219429   0.397   1.060   1.741
 6475TIP3   OH219430   0.754   5.731   5.033
 6475TIP3    H119431   0.680   5.670   5.041
 6475TIP3    H219432   0.831   5.675   5.024
 6476TIP3   OH219433   4.745   2.168   4.888
 6476TIP3    H119434   4.839   2.165   4.874
 6476TIP3    H219435   4.732   2.129   4.974
 6477TIP3   OH219436   6.342   3.496   0.825
 6477TIP3    H119437   6.413   3.491   0.760
 6477TIP3    H219438   6.316   3.405   0.838
 6478TIP3   OH219439   0.820   2.708   2.021
 6478TIP3    H119440   0.890   2.666   2.070
 6478TIP3    H219441   0.863   2.774   1.967
 6479TIP3   OH219442   2.798   3.110   1.080
 6479TIP3    H119443   2.723   3.158   1.044
 6479TIP3    H219444   2.789   3.022   1.045
 6480TIP3   OH219445   3.034   3.895   3.457
 6480TIP3    H119446   2.971   3.910   3.527
 6480TIP3    H219447   3.051   3.982   3.420
 6481TIP3   OH219448   2.130   4.418   2.156
 6481TIP3    H119449   2.153   4.327   2.137
 6481TIP3    H219450   2.035   4.422   2.144
 6482TIP3   OH219451   1.402   4.944   1.664
 6482TIP3    H119452   1.373   5.019   1.612
 6482TIP3    H219453   1.328   4.883   1.663
 6483TIP3   OH219454   4.970   0.722   3.956
 6483TIP3    H119455   4.946   0.751   4.044
 6483TIP3    H219456   4.906   0.654   3.934
 6484TIP3   OH219457   4.588   3.298   4.233
 6484TIP3    H119458   4.571   3.377   4.285
 6484TIP3    H219459   4.665   3.320   4.181
 6485TIP3   OH219460   5.879   1.322   4.151
 6485TIP3    H119461   5.813   1.367   4.203
 6485TIP3    H219462   5.952   1.308   4.211
 6486TIP3   OH219463   5.706   0.003   4.990
 6486TIP3    H119464   5.750   0.080   4.954
 6486TIP3    H219465   5.729   0.003   5.083
 6487TIP3   OH219466   5.501   1.290   0.573
 6487TIP3    H119467   5.558   1.216   0.597
 6487TIP3    H219468   5.441   1.299   0.646
 6488TIP3   OH219469   4.266   4.682   3.822
 6488TIP3    H119470   4.302   4.597   3.796
 6488TIP3    H219471   4.192   4.661   3.879
 6489TIP3   OH219472   0.804   5.422   4.710
 6489TIP3    H119473   0.849   5.477   4.773
 6489TIP3    H219474   0.826   5.333   4.734
 6490TIP3   OH219475   2.156   4.137   2.518
 6490TIP3    H119476   2.068   4.144   2.479
 6490TIP3    H219477   2.159   4.208   2.582
 6491TIP3   OH219478   4.010   1.736   4.676
 6491TIP3    H119479   4.009   1.795   4.752
 6491TIP3    H219480   4.088   1.682   4.689
 6492TIP3   OH219481   0.274   2.367   1.208
 6492TIP3    H119482   0.298   2.408   1.291
 6492TIP3    H219483   0.345   2.306   1.189
 6493TIP3   OH219484   4.889   0.190   2.048
 6493TIP3    H119485   4.945   0.175   2.124
 6493TIP3    H219486   4.943   0.240   1.987
 6494TIP3   OH219487   0.509   0.486   3.243
 6494TIP3    H119488   0.445   0.479   3.172
 6494TIP3    H219489   0.591   0.510   3.198
 6495TIP3   OH219490   4.500   2.622   0.704
 6495TIP3    H119491   4.555   2.545   0.718
 6495TIP3    H219492   4.411   2.586   0.700
 6496TIP3   OH219493   2.969   5.960   3.055
 6496TIP3    H119494   2.956   5.920   3.141
 6496TIP3    H219495   3.063   5.951   3.039
 6497TIP3   OH219496   4.675   3.457   3.410
 6497TIP3    H119497   4.679   3.539   3.360
 6497TIP3    H219498   4.634   3.482   3.493
 6498TIP3   OH219499   3.607   3.347   0.230
 6498TIP3    H119500   3.559   3.265   0.231
 6498TIP3    H219501   3.617   3.369   0.137
 6499TIP3   OH219502   4.503   5.804   2.395
 6499TIP3    H119503   4.523   5.896   2.378
 6499TIP3    H219504   4.490   5.800   2.490
 6500TIP3   OH219505   4.537   1.637   3.310
 6500TIP3    H119506   4.616   1.691   3.301
 6500TIP3    H219507   4.520   1.634   3.404
 6501TIP3   OH219508   2.130   1.873   0.640
 6501TIP3    H119509   2.071   1.810   0.681
 6501TIP3    H219510   2.159   1.829   0.560
 6502TIP3   OH219511   2.438   5.117   2.536
 6502TIP3    H119512   2.398   5.106   2.623
 6502TIP3    H219513   2.525   5.151   2.555
 6503TIP3   OH219514   0.634   1.297   1.685
 6503TIP3    H119515   0.606   1.344   1.763
 6503TIP3    H219516   0.613   1.205   1.703
 6504TIP3   OH219517   4.460   2.947   3.062
 6504TIP3    H119518   4.495   2.858   3.060
 6504TIP3    H219519   4.407   2.950   3.141
 6505TIP3   OH219520   3.810   2.872   2.915
 6505TIP3    H119521   3.820   2.776   2.917
 6505TIP3    H219522   3.855   2.899   2.836
 6506TIP3   OH219523   4.495   4.751   3.969
 6506TIP3    H119524   4.429   4.735   3.902
 6506TIP3    H219525   4.577   4.764   3.920
 6507TIP3   OH219526   0.111   0.669   3.156
 6507TIP3    H119527   0.183   0.646   3.215
 6507TIP3    H219528   0.036   0.684   3.214
 6508TIP3   OH219529   1.493   5.364   5.087
 6508TIP3    H119530   1.516   5.453   5.058
 6508TIP3    H219531   1.569   5.334   5.136
 6509TIP3   OH219532   0.680   1.807   2.654
 6509TIP3    H119533   0.658   1.733   2.710
 6509TIP3    H219534   0.767   1.834   2.682
 6510TIP3   OH219535   2.825   3.769   1.143
 6510TIP3    H119536   2.774   3.848   1.157
 6510TIP3    H219537   2.849   3.772   1.050
 6511TIP3   OH219538   3.281   2.086   1.800
 6511TIP3    H119539   3.239   2.153   1.745
 6511TIP3    H219540   3.307   2.132   1.879
 6512TIP3   OH219541   5.847   0.781   4.506
 6512TIP3    H119542   5.758   0.784   4.540
 6512TIP3    H219543   5.847   0.709   4.444
 6513TIP3   OH219544   5.347   2.250   1.799
 6513TIP3    H119545   5.408   2.176   1.801
 6513TIP3    H219546   5.267   2.214   1.760
 6514TIP3   OH219547   1.858   4.567   2.331
 6514TIP3    H119548   1.842   4.501   2.263
 6514TIP3    H219549   1.778   4.566   2.384
 6515TIP3   OH219550   2.281   4.281   1.494
 6515TIP3    H119551   2.286   4.257   1.402
 6515TIP3    H219552   2.215   4.222   1.530
 6516TIP3   OH219553   5.253   0.749   4.084
 6516TIP3    H119554   5.183   0.690   4.058
 6516TIP3    H219555   5.321   0.736   4.018
 6517TIP3   OH219556   3.132   5.696   2.202
 6517TIP3    H119557   3.169   5.753   2.135
 6517TIP3    H219558   3.037   5.708   2.195
 6518TIP3   OH219559   2.548   3.822   0.125
 6518TIP3    H119560   2.641   3.844   0.128
 6518TIP3    H219561   2.529   3.809   0.033
 6519TIP3   OH219562   1.932   5.833   4.938
 6519TIP3    H119563   2.009   5.785   4.908
 6519TIP3    H219564   1.935   5.826   5.033
 6520TIP3   OH219565   0.953   4.901   4.115
 6520TIP3    H119566   0.946   4.878   4.022
 6520TIP3    H219567   0.978   4.993   4.115
 6521TIP3   OH219568   2.332   5.177   2.787
 6521TIP3    H119569   2.379   5.258   2.800
 6521TIP3    H219570   2.325   5.139   2.875
 6522TIP3   OH219571   0.570   4.842   4.119
 6522TIP3    H119572   0.519   4.792   4.183
 6522TIP3    H219573   0.536   4.931   4.125
 6523TIP3   OH219574   1.931   2.976   2.489
 6523TIP3    H119575   1.976   2.902   2.449
 6523TIP3    H219576   1.937   3.046   2.424
 6524TIP3   OH219577   2.492   2.740   0.993
 6524TIP3    H119578   2.497   2.646   0.972
 6524TIP3    H219579   2.466   2.781   0.910
 6525TIP3   OH219580   5.274   4.957   2.097
 6525TIP3    H119581   5.225   4.997   2.168
 6525TIP3    H219582   5.293   4.868   2.128
 6526TIP3   OH219583   6.159   1.290   2.631
 6526TIP3    H119584   6.236   1.306   2.578
 6526TIP3    H219585   6.178   1.209   2.677
 6527TIP3   OH219586   0.781   1.028   0.114
 6527TIP3    H119587   0.865   1.074   0.105
 6527TIP3    H219588   0.717   1.097   0.129
 6528TIP3   OH219589   5.324   2.584   0.371
 6528TIP3    H119590   5.309   2.500   0.413
 6528TIP3    H219591   5.261   2.643   0.411
 6529TIP3   OH219592   5.116   3.552   1.108
 6529TIP3    H119593   5.209   3.555   1.084
 6529TIP3    H219594   5.083   3.639   1.087
 6530TIP3   OH219595   2.633   3.382   3.395
 6530TIP3    H119596   2.633   3.351   3.485
 6530TIP3    H219597   2.712   3.436   3.387
 6531TIP3   OH219598   0.799   2.662   4.484
 6531TIP3    H119599   0.822   2.570   4.487
 6531TIP3    H219600   0.719   2.666   4.431
 6532TIP3   OH219601   3.813   1.225   1.248
 6532TIP3    H119602   3.829   1.303   1.301
 6532TIP3    H219603   3.900   1.194   1.224
 6533TIP3   OH219604   3.521   5.128   1.043
 6533TIP3    H119605   3.560   5.065   0.983
 6533TIP3    H219606   3.529   5.087   1.129
 6534TIP3   OH219607   3.079   4.737   3.610
 6534TIP3    H119608   2.991   4.771   3.595
 6534TIP3    H219609   3.091   4.742   3.705
 6535TIP3   OH219610   3.048   5.697   4.597
 6535TIP3    H119611   3.133   5.735   4.574
 6535TIP3    H219612   3.019   5.654   4.516
 6536TIP3   OH219613   4.318   1.158   3.865
 6536TIP3    H119614   4.309   1.071   3.904
 6536TIP3    H219615   4.228   1.183   3.844
 6537TIP3   OH219616   0.805   2.833   2.986
 6537TIP3    H119617   0.751   2.813   3.062
 6537TIP3    H219618   0.822   2.927   2.992
 6538TIP3   OH219619   4.953   1.858   1.442
 6538TIP3    H119620   4.866   1.899   1.451
 6538TIP3    H219621   5.013   1.922   1.480
 6539TIP3   OH219622   4.403   0.310   2.680
 6539TIP3    H119623   4.404   0.223   2.641
 6539TIP3    H219624   4.317   0.316   2.723
 6540TIP3   OH219625   5.366   1.375   0.779
 6540TIP3    H119626   5.273   1.350   0.778
 6540TIP3    H219627   5.387   1.387   0.872
 6541TIP3   OH219628   4.478   3.789   3.347
 6541TIP3    H119629   4.534   3.789   3.269
 6541TIP3    H219630   4.395   3.753   3.317
 6542TIP3   OH219631   1.875   3.832   1.319
 6542TIP3    H119632   1.902   3.799   1.404
 6542TIP3    H219633   1.945   3.804   1.259
 6543TIP3   OH219634   4.421   1.966   0.018
 6543TIP3    H119635   4.397   1.949   0.109
 6543TIP3    H219636   4.494   2.027   0.023
 6544TIP3   OH219637   0.504   4.459   2.537
 6544TIP3    H119638   0.594   4.482   2.514
 6544TIP3    H219639   0.450   4.511   2.477
 6545TIP3   OH219640   4.154   3.974   2.981
 6545TIP3    H119641   4.242   3.983   2.946
 6545TIP3    H219642   4.119   3.896   2.937
 6546TIP3   OH219643   2.614   0.194   1.381
 6546TIP3    H119644   2.526   0.170   1.352
 6546TIP3    H219645   2.672   0.152   1.317
 6547TIP3   OH219646   5.659   4.575   1.747
 6547TIP3    H119647   5.566   4.585   1.731
 6547TIP3    H219648   5.698   4.567   1.660
 6548TIP3   OH219649   2.063   0.795   4.737
 6548TIP3    H119650   2.091   0.765   4.824
 6548TIP3    H219651   1.970   0.813   4.747
 6549TIP3   OH219652   6.339   5.298   0.683
 6549TIP3    H119653   6.371   5.209   0.669
 6549TIP3    H219654   6.244   5.288   0.686
 6550TIP3   OH219655   2.980   3.106   2.036
 6550TIP3    H119656   2.955   3.161   2.110
 6550TIP3    H219657   2.899   3.094   1.986
 6551TIP3   OH219658   6.303   5.124   1.361
 6551TIP3    H119659   6.309   5.066   1.437
 6551TIP3    H219660   6.388   5.114   1.318
 6552TIP3   OH219661   2.642   3.560   2.436
 6552TIP3    H119662   2.587   3.489   2.470
 6552TIP3    H219663   2.606   3.579   2.349
 6553TIP3   OH219664   5.581   0.441   2.113
 6553TIP3    H119665   5.611   0.350   2.102
 6553TIP3    H219666   5.529   0.458   2.035
 6554TIP3   OH219667   4.168   4.451   4.189
 6554TIP3    H119668   4.249   4.500   4.202
 6554TIP3    H219669   4.121   4.460   4.272
 6555TIP3   OH219670   1.705   5.074   2.665
 6555TIP3    H119671   1.678   4.992   2.707
 6555TIP3    H219672   1.631   5.096   2.608
 6556TIP3   OH219673   2.809   2.069   2.837
 6556TIP3    H119674   2.839   2.136   2.777
 6556TIP3    H219675   2.824   1.986   2.792
 6557TIP3   OH219676   6.240   2.536   2.653
 6557TIP3    H119677   6.196   2.621   2.654
 6557TIP3    H219678   6.185   2.480   2.706
 6558TIP3   OH219679   2.590   5.256   3.598
 6558TIP3    H119680   2.681   5.229   3.587
 6558TIP3    H219681   2.571   5.309   3.520
 6559TIP3   OH219682   4.109   1.242   1.412
 6559TIP3    H119683   4.154   1.297   1.477
 6559TIP3    H219684   4.106   1.155   1.453
 6560TIP3   OH219685   3.254   5.658   2.462
 6560TIP3    H119686   3.253   5.668   2.367
 6560TIP3    H219687   3.346   5.664   2.487
 6561TIP3   OH219688   1.013   4.761   1.035
 6561TIP3    H119689   1.006   4.676   1.077
 6561TIP3    H219690   1.007   4.742   0.941
 6562TIP3   OH219691   2.630   1.233   1.954
 6562TIP3    H119692   2.717   1.271   1.967
 6562TIP3    H219693   2.576   1.274   2.021
 6563TIP3   OH219694   1.927   5.569   4.384
 6563TIP3    H119695   2.000   5.544   4.326
 6563TIP3    H219696   1.869   5.620   4.327
 6564TIP3   OH219697   5.688   4.865   4.653
 6564TIP3    H119698   5.694   4.919   4.732
 6564TIP3    H219699   5.671   4.776   4.686
 6565TIP3   OH219700   4.221   3.319   1.940
 6565TIP3    H119701   4.241   3.258   2.011
 6565TIP3    H219702   4.265   3.282   1.864
 6566TIP3   OH219703   0.718   1.388   2.221
 6566TIP3    H119704   0.691   1.413   2.133
 6566TIP3    H219705   0.637   1.362   2.265
 6567TIP3   OH219706   1.194   4.030   0.060
 6567TIP3    H119707   1.266   4.077   0.017
 6567TIP3    H219708   1.120   4.040   0.000
 6568TIP3   OH219709   4.535   5.339   2.061
 6568TIP3    H119710   4.497   5.423   2.088
 6568TIP3    H219711   4.602   5.321   2.126
 6569TIP3   OH219712   4.666   4.145   5.066
 6569TIP3    H119713   4.619   4.153   5.149
 6569TIP3    H219714   4.614   4.195   5.003
 6570TIP3   OH219715   2.591   0.868   3.332
 6570TIP3    H119716   2.684   0.864   3.309
 6570TIP3    H219717   2.584   0.945   3.388
 6571TIP3   OH219718   3.833   3.540   0.642
 6571TIP3    H119719   3.855   3.499   0.559
 6571TIP3    H219720   3.916   3.552   0.687
 6572TIP3   OH219721   3.656   1.338   3.141
 6572TIP3    H119722   3.662   1.414   3.199
 6572TIP3    H219723   3.599   1.277   3.189
 6573TIP3   OH219724   5.356   1.775   0.888
 6573TIP3    H119725   5.310   1.692   0.903
 6573TIP3    H219726   5.337   1.827   0.967
 6574TIP3   OH219727   5.512   5.722   3.169
 6574TIP3    H119728   5.524   5.804   3.121
 6574TIP3    H219729   5.596   5.708   3.213
 6575TIP3   OH219730   2.595   3.047   2.440
 6575TIP3    H119731   2.674   3.061   2.492
 6575TIP3    H219732   2.523   3.070   2.500
 6576TIP3   OH219733   4.653   3.030   1.085
 6576TIP3    H119734   4.686   3.016   0.996
 6576TIP3    H219735   4.600   3.109   1.079
 6577TIP3   OH219736   2.522   3.651   0.909
 6577TIP3    H119737   2.521   3.738   0.949
 6577TIP3    H219738   2.534   3.668   0.815
 6578TIP3   OH219739   5.980   4.286   4.977
 6578TIP3    H119740   6.071   4.314   4.982
 6578TIP3    H219741   5.967   4.260   4.886
 6579TIP3   OH219742   2.470   4.834   1.244
 6579TIP3    H119743   2.509   4.753   1.276
 6579TIP3    H219744   2.524   4.903   1.283
 6580TIP3   OH219745   1.818   5.863   2.464
 6580TIP3    H119746   1.835   5.861   2.558
 6580TIP3    H219747   1.739   5.810   2.452
 6581TIP3   OH219748   2.254   0.237   1.583
 6581TIP3    H119749   2.267   0.271   1.672
 6581TIP3    H219750   2.233   0.145   1.596
 6582TIP3   OH219751   3.124   2.122   2.081
 6582TIP3    H119752   3.044   2.108   2.031
 6582TIP3    H219753   3.101   2.096   2.171
 6583TIP3   OH219754   3.103   2.128   4.229
 6583TIP3    H119755   3.184   2.097   4.271
 6583TIP3    H219756   3.033   2.093   4.284
 6584TIP3   OH219757   6.225   4.690   3.331
 6584TIP3    H119758   6.248   4.775   3.368
 6584TIP3    H219759   6.242   4.627   3.401
 6585TIP3   OH219760   5.720   1.801   2.565
 6585TIP3    H119761   5.795   1.848   2.600
 6585TIP3    H219762   5.644   1.845   2.603
 6586TIP3   OH219763   0.972   3.722   2.018
 6586TIP3    H119764   0.992   3.632   2.044
 6586TIP3    H219765   0.893   3.714   1.965
 6587TIP3   OH219766   2.164   0.576   1.298
 6587TIP3    H119767   2.100   0.557   1.367
 6587TIP3    H219768   2.154   0.504   1.236
 6588TIP3   OH219769   6.236   0.983   2.343
 6588TIP3    H119770   6.278   1.008   2.260
 6588TIP3    H219771   6.230   0.888   2.338
 6589TIP3   OH219772   0.039   4.278   1.950
 6589TIP3    H119773   0.059   4.185   1.949
 6589TIP3    H219774  -0.042   4.286   1.900
 6590TIP3   OH219775   3.754   4.640   3.348
 6590TIP3    H119776   3.674   4.590   3.329
 6590TIP3    H219777   3.756   4.709   3.283
 6591TIP3   OH219778   3.700   4.615   4.498
 6591TIP3    H119779   3.715   4.709   4.508
 6591TIP3    H219780   3.623   4.609   4.442
 6592TIP3   OH219781   0.570   0.094   4.800
 6592TIP3    H119782   0.636   0.027   4.782
 6592TIP3    H219783   0.509   0.089   4.727
 6593TIP3   OH219784   4.550   0.539   0.032
 6593TIP3    H119785   4.577   0.566   0.120
 6593TIP3    H219786   4.619   0.479   0.004
 6594TIP3   OH219787   1.799   4.289   1.165
 6594TIP3    H119788   1.858   4.265   1.236
 6594TIP3    H219789   1.825   4.234   1.092
 6595TIP3   OH219790   0.960   5.548   4.903
 6595TIP3    H119791   1.031   5.602   4.867
 6595TIP3    H219792   0.987   5.530   4.993
 6596TIP3   OH219793   3.661   4.601   2.320
 6596TIP3    H119794   3.747   4.639   2.303
 6596TIP3    H219795   3.646   4.540   2.247
 6597TIP3   OH219796   0.279   5.671   3.075
 6597TIP3    H119797   0.282   5.740   3.008
 6597TIP3    H219798   0.255   5.718   3.156
 6598TIP3   OH219799   4.330   5.188   0.632
 6598TIP3    H119800   4.256   5.248   0.629
 6598TIP3    H219801   4.380   5.207   0.552
 6599TIP3   OH219802   1.289   5.348   3.493
 6599TIP3    H119803   1.370   5.351   3.545
 6599TIP3    H219804   1.300   5.272   3.436
 6600TIP3   OH219805   0.862   4.753   2.747
 6600TIP3    H119806   0.775   4.751   2.786
 6600TIP3    H219807   0.857   4.692   2.673
 6601TIP3   OH219808   4.128   3.444   4.305
 6601TIP3    H119809   4.209   3.474   4.346
 6601TIP3    H219810   4.101   3.369   4.358
 6602TIP3   OH219811   2.800   0.481   1.931
 6602TIP3    H119812   2.843   0.410   1.884
 6602TIP3    H219813   2.719   0.442   1.963
 6603TIP3   OH219814   1.700   3.134   4.515
 6603TIP3    H119815   1.718   3.188   4.592
 6603TIP3    H219816   1.627   3.078   4.541
 6604TIP3   OH219817   5.232   0.067   4.013
 6604TIP3    H119818   5.296   0.117   4.064
 6604TIP3    H219819   5.227  -0.018   4.057
 6605TIP3   OH219820   1.321   2.324   3.644
 6605TIP3    H119821   1.305   2.403   3.696
 6605TIP3    H219822   1.413   2.303   3.661
 6606TIP3   OH219823   0.042   0.737   0.223
 6606TIP3    H119824  -0.021   0.799   0.260
 6606TIP3    H219825   0.045   0.665   0.287
 6607TIP3   OH219826   5.280   3.186   4.029
 6607TIP3    H119827   5.365   3.147   4.047
 6607TIP3    H219828   5.297   3.279   4.018
 6608TIP3   OH219829   6.087   0.092   1.960
 6608TIP3    H119830   6.038   0.168   1.928
 6608TIP3    H219831   6.128   0.122   2.041
 6609TIP3   OH219832   0.195   3.228   4.203
 6609TIP3    H119833   0.128   3.182   4.254
 6609TIP3    H219834   0.146   3.268   4.131
 6610TIP3   OH219835   0.688   3.962   0.431
 6610TIP3    H119836   0.738   4.015   0.369
 6610TIP3    H219837   0.601   3.954   0.392
 6611TIP3   OH219838   3.704   4.686   1.397
 6611TIP3    H119839   3.736   4.694   1.307
 6611TIP3    H219840   3.706   4.776   1.431
 6612TIP3   OH219841   4.261   4.224   4.490
 6612TIP3    H119842   4.171   4.234   4.520
 6612TIP3    H219843   4.259   4.147   4.434
 6613TIP3   OH219844   2.484   4.371   4.443
 6613TIP3    H119845   2.550   4.320   4.489
 6613TIP3    H219846   2.531   4.447   4.409
 6614TIP3   OH219847   1.614   1.030   0.686
 6614TIP3    H119848   1.540   1.004   0.741
 6614TIP3    H219849   1.691   1.004   0.737
 6615TIP3   OH219850   0.209   5.044   2.485
 6615TIP3    H119851   0.244   4.990   2.557
 6615TIP3    H219852   0.116   5.054   2.506
 6616TIP3   OH219853   6.252   0.761   1.266
 6616TIP3    H119854   6.331   0.757   1.212
 6616TIP3    H219855   6.273   0.709   1.344
 6617TIP3   OH219856   6.225   4.904   0.566
 6617TIP3    H119857   6.169   4.962   0.618
 6617TIP3    H219858   6.314   4.938   0.581
 6618TIP3   OH219859   4.273   1.174   4.238
 6618TIP3    H119860   4.194   1.225   4.219
 6618TIP3    H219861   4.338   1.239   4.265
 6619TIP3   OH219862   5.309   0.634   1.717
 6619TIP3    H119863   5.292   0.727   1.703
 6619TIP3    H219864   5.355   0.606   1.638
 6620TIP3   OH219865   2.399   0.531   2.326
 6620TIP3    H119866   2.476   0.474   2.334
 6620TIP3    H219867   2.429   0.605   2.273
 6621TIP3   OH219868   4.812   4.654   3.099
 6621TIP3    H119869   4.828   4.568   3.138
 6621TIP3    H219870   4.756   4.698   3.163
 6622TIP3   OH219871   2.428   1.587   0.524
 6622TIP3    H119872   2.482   1.524   0.572
 6622TIP3    H219873   2.490   1.630   0.465
 6623TIP3   OH219874   2.692   0.960   2.029
 6623TIP3    H119875   2.668   0.944   1.937
 6623TIP3    H219876   2.681   1.055   2.039
 6624TIP3   OH219877   1.617   3.940   1.173
 6624TIP3    H119878   1.556   3.868   1.159
 6624TIP3    H219879   1.688   3.902   1.224
 6625TIP3   OH219880   1.356   1.599   0.999
 6625TIP3    H119881   1.326   1.688   1.019
 6625TIP3    H219882   1.325   1.546   1.073
 6626TIP3   OH219883   2.931   0.618   4.711
 6626TIP3    H119884   3.011   0.670   4.710
 6626TIP3    H219885   2.916   0.595   4.619
 6627TIP3   OH219886   3.067   3.416   3.704
 6627TIP3    H119887   3.087   3.505   3.673
 6627TIP3    H219888   3.010   3.379   3.637
 6628TIP3   OH219889   4.599   2.671   3.446
 6628TIP3    H119890   4.685   2.628   3.444
 6628TIP3    H219891   4.616   2.757   3.486
 6629TIP3   OH219892   1.829   0.566   4.614
 6629TIP3    H119893   1.840   0.483   4.569
 6629TIP3    H219894   1.893   0.564   4.685
 6630TIP3   OH219895   0.703   0.562   0.266
 6630TIP3    H119896   0.694   0.635   0.204
 6630TIP3    H219897   0.788   0.523   0.245
 6631TIP3   OH219898   4.498   0.133   5.038
 6631TIP3    H119899   4.432   0.121   4.969
 6631TIP3    H219900   4.466   0.207   5.089
 6632TIP3   OH219901   0.941   4.825   3.839
 6632TIP3    H119902   0.865   4.860   3.791
 6632TIP3    H219903   0.945   4.733   3.813
 6633TIP3   OH219904   5.468   4.408   1.532
 6633TIP3    H119905   5.513   4.338   1.580
 6633TIP3    H219906   5.429   4.462   1.601
 6634TIP3   OH219907   4.164   4.421   1.750
 6634TIP3    H119908   4.179   4.507   1.789
 6634TIP3    H219909   4.075   4.426   1.715
 6635TIP3   OH219910   2.852   0.301   4.686
 6635TIP3    H119911   2.943   0.276   4.671
 6635TIP3    H219912   2.857   0.386   4.729
 6636TIP3   OH219913   4.893   3.260   3.305
 6636TIP3    H119914   4.798   3.251   3.303
 6636TIP3    H219915   4.922   3.221   3.223
 6637TIP3   OH219916   2.666   4.581   4.344
 6637TIP3    H119917   2.647   4.665   4.386
 6637TIP3    H219918   2.677   4.602   4.251
 6638TIP3   OH219919   2.641   4.220   5.021
 6638TIP3    H119920   2.717   4.255   4.975
 6638TIP3    H219921   2.634   4.274   5.100
 6639TIP3   OH219922   2.797   0.267   0.993
 6639TIP3    H119923   2.842   0.197   1.039
 6639TIP3    H219924   2.865   0.332   0.975
 6640TIP3   OH219925   5.104   5.697   3.076
 6640TIP3    H119926   5.070   5.760   3.012
 6640TIP3    H219927   5.175   5.652   3.030
 6641TIP3   OH219928   5.110   3.085   2.680
 6641TIP3    H119929   5.151   3.064   2.764
 6641TIP3    H219930   5.173   3.143   2.637
 6642TIP3   OH219931   2.033   0.504   3.812
 6642TIP3    H119932   2.005   0.594   3.796
 6642TIP3    H219933   2.037   0.497   3.907
 6643TIP3   OH219934   4.100   4.065   4.724
 6643TIP3    H119935   4.015   4.097   4.752
 6643TIP3    H219936   4.080   3.987   4.671
 6644TIP3   OH219937   1.545   1.045   0.238
 6644TIP3    H119938   1.502   0.991   0.171
 6644TIP3    H219939   1.591   0.982   0.293
 6645TIP3   OH219940   6.117   3.660   4.878
 6645TIP3    H119941   6.083   3.572   4.860
 6645TIP3    H219942   6.201   3.663   4.832
   6.33821   5.97572   5.17513   0.00000   0.00000  -2.11274   0.00000  -2.11274  -2.98786
