        88  EXT
         1         1  GLY       N              -4.9960000000      -13.0750000000      -20.6970000000  PROA      1              96.8800000000
         2         1  GLY       CA             -5.4300000000      -13.5520000000      -19.3940000000  PROA      1              97.3600000000
         3         1  GLY       C              -5.7350000000      -12.4310000000      -18.4190000000  PROA      1              97.6900000000
         4         1  GLY       O              -5.4210000000      -11.2680000000      -18.6840000000  PROA      1              97.1600000000
         5         2  PRO       N              -6.3040000000      -12.6500000000      -17.1650000000  PROA      2              97.9700000000
         6         2  PRO       CA             -6.5510000000      -11.5940000000      -16.1800000000  PROA      2              98.0400000000
         7         2  PRO       C              -5.2700000000      -11.0870000000      -15.5230000000  PROA      2              98.2500000000
         8         2  PRO       CB             -7.4590000000      -12.2750000000      -15.1530000000  PROA      2              97.7300000000
         9         2  PRO       O              -4.2570000000      -11.7920000000      -15.5110000000  PROA      2              98.1100000000
        10         2  PRO       CG             -7.9300000000      -13.5230000000      -15.8280000000  PROA      2              95.2100000000
        11         2  PRO       CD             -7.0300000000      -13.8010000000      -16.9980000000  PROA      2              91.3500000000
        12         3  GLY       N              -5.3790000000       -9.7660000000      -15.1500000000  PROA      3              97.8600000000
        13         3  GLY       CA             -4.2610000000       -9.1760000000      -14.4310000000  PROA      3              97.8200000000
        14         3  GLY       C              -3.9280000000       -9.9070000000      -13.1430000000  PROA      3              98.1500000000
        15         3  GLY       O              -4.7100000000      -10.7350000000      -12.6730000000  PROA      3              98.0000000000
        16         4  ASP       N              -2.7310000000       -9.6500000000      -12.6570000000  PROA      4              97.6900000000
        17         4  ASP       CA             -2.3750000000      -10.1630000000      -11.3380000000  PROA      4              97.6700000000
        18         4  ASP       C              -3.2800000000       -9.5760000000      -10.2570000000  PROA      4              97.9700000000
        19         4  ASP       CB             -0.9100000000       -9.8580000000      -11.0200000000  PROA      4              97.2600000000
        20         4  ASP       O              -3.7170000000       -8.4280000000      -10.3620000000  PROA      4              97.7700000000
        21         4  ASP       CG              0.0610000000      -10.6650000000      -11.8640000000  PROA      4              94.0000000000
        22         4  ASP       OD1            -0.3330000000      -11.7210000000      -12.4040000000  PROA      4              92.4400000000
        23         4  ASP       OD2             1.2310000000      -10.2430000000      -11.9880000000  PROA      4              92.9000000000
        24         5  PRO       N              -3.5140000000      -10.2190000000       -9.2840000000  PROA      5              97.7900000000
        25         5  PRO       CA             -4.2260000000       -9.6100000000       -8.1580000000  PROA      5              97.7700000000
        26         5  PRO       C              -3.5230000000       -8.3670000000       -7.6170000000  PROA      5              98.0600000000
        27         5  PRO       CB             -4.2470000000      -10.7250000000       -7.1090000000  PROA      5              97.5800000000
        28         5  PRO       O              -2.3090000000       -8.2200000000       -7.7800000000  PROA      5              97.9500000000
        29         5  PRO       CG             -3.7320000000      -11.9320000000       -7.8250000000  PROA      5              96.3300000000
        30         5  PRO       CD             -3.0610000000      -11.4850000000       -9.0920000000  PROA      5              95.7000000000
        31         6  GLY       N              -4.4740000000       -7.5060000000       -7.1360000000  PROA      6              97.7900000000
        32         6  GLY       CA             -3.9260000000       -6.3160000000       -6.5040000000  PROA      6              97.7000000000
        33         6  GLY       C              -3.0210000000       -6.6280000000       -5.3280000000  PROA      6              98.0600000000
        34         6  GLY       O              -2.9870000000       -7.7630000000       -4.8480000000  PROA      6              97.9000000000
        35         7  SER       N              -2.5050000000       -5.5460000000       -4.9010000000  PROA      7              97.9700000000
        36         7  SER       CA             -1.6980000000       -5.6860000000       -3.6940000000  PROA      7              97.9000000000
        37         7  SER       C              -2.5750000000       -5.8350000000       -2.4560000000  PROA      7              98.2400000000
        38         7  SER       CB             -0.7680000000       -4.4830000000       -3.5280000000  PROA      7              97.4300000000
        39         7  SER       O              -3.7390000000       -5.4280000000       -2.4610000000  PROA      7              98.1400000000
        40         7  SER       OG              0.0860000000       -4.3490000000       -4.6520000000  PROA      7              93.2400000000
        41         8  GLY       N              -1.9680000000       -6.4530000000       -1.4210000000  PROA      8              97.5800000000
        42         8  GLY       CA             -2.7360000000       -6.5730000000       -0.1920000000  PROA      8              97.4800000000
        43         8  GLY       C              -2.9280000000       -5.2500000000        0.5240000000  PROA      8              97.9600000000
        44         8  GLY       O              -2.2920000000       -4.2520000000        0.1760000000  PROA      8              97.8000000000
        45         9  ASN       N              -3.8050000000       -5.2810000000        1.4570000000  PROA      9              97.9900000000
        46         9  ASN       CA             -4.0150000000       -4.1290000000        2.3290000000  PROA      9              97.9500000000
        47         9  ASN       C              -2.7780000000       -3.8300000000        3.1700000000  PROA      9              98.2700000000
        48         9  ASN       CB             -5.2300000000       -4.3540000000        3.2320000000  PROA      9              97.5400000000
        49         9  ASN       O              -2.0480000000       -4.7440000000        3.5560000000  PROA      9              98.1500000000
        50         9  ASN       CG             -6.1940000000       -3.1850000000        3.2170000000  PROA      9              92.9400000000
        51         9  ASN       ND2            -6.8700000000       -2.9590000000        4.3370000000  PROA      9              91.3300000000
        52         9  ASN       OD1            -6.3300000000       -2.4900000000        2.2070000000  PROA      9              89.6700000000
        53        10  PRO       N              -2.6460000000       -2.5770000000        3.4460000000  PROA      10             98.2900000000
        54        10  PRO       CA             -1.5530000000       -2.2860000000        4.3760000000  PROA      10             98.2600000000
        55        10  PRO       C              -1.7630000000       -2.9190000000        5.7500000000  PROA      10             98.4600000000
        56        10  PRO       CB             -1.5660000000       -0.7580000000        4.4700000000  PROA      10             98.0900000000
        57        10  PRO       O              -2.8940000000       -3.2520000000        6.1130000000  PROA      10             98.4100000000
        58        10  PRO       CG             -2.5170000000       -0.3180000000        3.4040000000  PROA      10             96.6200000000
        59        10  PRO       CD             -3.3510000000       -1.4970000000        2.9930000000  PROA      10             95.8300000000
        60        11  GLY       N              -0.6410000000       -3.2720000000        6.4230000000  PROA      11             97.8100000000
        61        11  GLY       CA             -0.7260000000       -3.8460000000        7.7560000000  PROA      11             97.7800000000
        62        11  GLY       C              -1.4050000000       -2.9320000000        8.7580000000  PROA      11             98.1500000000
        63        11  GLY       O              -1.6680000000       -1.7640000000        8.4610000000  PROA      11             98.0600000000
        64        12  SER       N              -1.6190000000       -3.3940000000        9.8830000000  PROA      12             97.8800000000
        65        12  SER       CA             -2.1580000000       -2.6020000000       10.9840000000  PROA      12             97.9100000000
        66        12  SER       C              -1.0880000000       -1.7010000000       11.5920000000  PROA      12             98.3400000000
        67        12  SER       CB             -2.7430000000       -3.5130000000       12.0640000000  PROA      12             97.3800000000
        68        12  SER       O               0.0990000000       -2.0330000000       11.5660000000  PROA      12             98.3100000000
        69        12  SER       OG             -3.6870000000       -4.4110000000       11.5070000000  PROA      12             90.0800000000
        70        13  GLY       N              -1.4410000000       -0.5570000000       12.0550000000  PROA      13             97.9000000000
        71        13  GLY       CA             -0.5320000000        0.3260000000       12.7690000000  PROA      13             97.9400000000
        72        13  GLY       C              -0.0300000000       -0.2630000000       14.0740000000  PROA      13             98.3200000000
        73        13  GLY       O              -0.5930000000       -1.2350000000       14.5800000000  PROA      13             98.2900000000
        74        14  ASP       N               0.8730000000        0.0610000000       14.6060000000  PROA      14             98.1300000000
        75        14  ASP       CA              1.4710000000       -0.3180000000       15.8830000000  PROA      14             98.1400000000
        76        14  ASP       C               0.5670000000        0.0730000000       17.0500000000  PROA      14             98.4500000000
        77        14  ASP       CB              2.8480000000        0.3290000000       16.0440000000  PROA      14             97.7600000000
        78        14  ASP       O              -0.1320000000        1.0870000000       16.9880000000  PROA      14             98.3800000000
        79        14  ASP       CG              3.8940000000       -0.2640000000       15.1170000000  PROA      14             94.4800000000
        80        14  ASP       OD1             3.7040000000       -1.4000000000       14.6300000000  PROA      14             92.9600000000
        81        14  ASP       OD2             4.9190000000        0.4080000000       14.8730000000  PROA      14             93.3400000000
        82        15  PRO       N               0.1630000000       -0.9690000000       18.0080000000  PROA      15             97.7300000000
        83        15  PRO       CA             -0.7010000000       -0.7090000000       19.1620000000  PROA      15             97.4800000000
        84        15  PRO       C              -0.1840000000        0.4270000000       20.0420000000  PROA      15             97.7000000000
        85        15  PRO       CB             -0.6870000000       -2.0380000000       19.9200000000  PROA      15             97.1200000000
        86        15  PRO       O               1.0040000000        0.7540000000       19.9990000000  PROA      15             97.2600000000
        87        15  PRO       CG             -0.1270000000       -3.0260000000       18.9490000000  PROA      15             95.4500000000
        88        15  PRO       CD              0.6850000000       -2.2830000000       17.9270000000  PROA      15             95.3900000000
