Title t= 206.00000 step= 103000
29212
    1ASP      N    1   2.201   1.026   2.641
    1ASP    HT1    2   2.213   0.923   2.631
    1ASP    HT2    3   2.209   1.030   2.745
    1ASP    HT3    4   2.284   1.071   2.598
    1ASP     CA    5   2.070   1.074   2.591
    1ASP     HA    6   2.093   1.118   2.495
    1ASP     CB    7   1.979   0.955   2.556
    1ASP    HB1    8   1.874   0.984   2.534
    1ASP    HB2    9   1.971   0.880   2.637
    1ASP     CG   10   2.029   0.871   2.443
    1ASP    OD1   11   2.116   0.916   2.367
    1ASP    OD2   12   1.971   0.759   2.429
    1ASP      C   13   1.994   1.191   2.655
    1ASP      O   14   2.029   1.309   2.647
    2GLY      N   15   1.883   1.167   2.731
    2GLY     HN   16   1.860   1.072   2.749
    2GLY     CA   17   1.789   1.257   2.788
    2GLY    HA1   18   1.822   1.359   2.801
    2GLY    HA2   19   1.754   1.210   2.879
    2GLY      C   20   1.664   1.269   2.702
    2GLY      O   21   1.675   1.260   2.580
    3ASP      N   22   1.545   1.297   2.766
    3ASP     HN   23   1.537   1.311   2.864
    3ASP     CA   24   1.428   1.341   2.688
    3ASP     HA   25   1.420   1.279   2.600
    3ASP     CB   26   1.297   1.318   2.768
    3ASP    HB1   27   1.212   1.343   2.701
    3ASP    HB2   28   1.289   1.370   2.866
    3ASP     CG   29   1.283   1.173   2.812
    3ASP    OD1   30   1.213   1.145   2.912
    3ASP    OD2   31   1.325   1.087   2.727
    3ASP      C   32   1.427   1.482   2.621
    3ASP      O   33   1.474   1.582   2.678
    4GLY      N   34   1.382   1.493   2.490
    4GLY     HN   35   1.356   1.413   2.436
    4GLY     CA   36   1.367   1.617   2.413
    4GLY    HA1   37   1.311   1.586   2.326
    4GLY    HA2   38   1.462   1.661   2.386
    4GLY      C   39   1.280   1.733   2.475
    4GLY      O   40   1.232   1.730   2.585
    5PRO      N   41   1.266   1.842   2.401
    5PRO     CD   42   1.358   1.881   2.296
    5PRO    HD1   43   1.359   1.810   2.210
    5PRO    HD2   44   1.463   1.886   2.334
    5PRO     CA   45   1.149   1.930   2.400
    5PRO     HA   46   1.148   1.972   2.499
    5PRO     CB   47   1.166   2.032   2.280
    5PRO    HB1   48   1.145   2.136   2.313
    5PRO    HB2   49   1.108   2.004   2.190
    5PRO     CG   50   1.313   2.022   2.249
    5PRO    HG1   51   1.349   2.036   2.145
    5PRO    HG2   52   1.371   2.093   2.312
    5PRO      C   53   1.009   1.868   2.377
    5PRO      O   54   0.993   1.746   2.353
    6GLY      N   55   0.907   1.951   2.381
    6GLY     HN   56   0.916   2.046   2.411
    6GLY     CA   57   0.771   1.912   2.339
    6GLY    HA1   58   0.754   1.810   2.371
    6GLY    HA2   59   0.763   1.928   2.232
    6GLY      C   60   0.672   1.994   2.415
    6GLY      O   61   0.706   2.093   2.485
    7ASP      N   62   0.541   1.960   2.400
    7ASP     HN   63   0.512   1.886   2.340
    7ASP     CA   64   0.439   2.024   2.473
    7ASP     HA   65   0.438   2.128   2.444
    7ASP     CB   66   0.301   1.969   2.430
    7ASP    HB1   67   0.224   1.996   2.506
    7ASP    HB2   68   0.299   1.858   2.424
    7ASP     CG   69   0.266   2.021   2.293
    7ASP    OD1   70   0.153   1.987   2.250
    7ASP    OD2   71   0.341   2.097   2.221
    7ASP      C   72   0.457   2.005   2.625
    7ASP      O   73   0.508   1.902   2.670
    8PRO      N   74   0.430   2.100   2.713
    8PRO     CD   75   0.336   2.215   2.681
    8PRO    HD1   76   0.235   2.168   2.678
    8PRO    HD2   77   0.353   2.266   2.584
    8PRO     CA   78   0.456   2.102   2.858
    8PRO     HA   79   0.563   2.116   2.866
    8PRO     CB   80   0.370   2.214   2.917
    8PRO    HB1   81   0.413   2.271   3.002
    8PRO    HB2   82   0.266   2.186   2.943
    8PRO     CG   83   0.355   2.316   2.797
    8PRO    HG1   84   0.261   2.370   2.817
    8PRO    HG2   85   0.443   2.383   2.785
    8PRO      C   86   0.441   1.973   2.933
    8PRO      O   87   0.335   1.905   2.917
    9GLY      N   88   0.530   1.951   3.033
    9GLY     HN   89   0.605   2.014   3.049
    9GLY     CA   90   0.538   1.836   3.121
    9GLY    HA1   91   0.642   1.807   3.125
    9GLY    HA2   92   0.477   1.756   3.083
    9GLY      C   93   0.493   1.867   3.261
    9GLY      O   94   0.397   1.940   3.277
   10ASP      N   95   0.562   1.796   3.356
   10ASP     HN   96   0.623   1.721   3.331
   10ASP     CA   97   0.525   1.805   3.499
   10ASP     HA   98   0.428   1.852   3.508
   10ASP     CB   99   0.544   1.664   3.560
   10ASP    HB1  100   0.547   1.677   3.671
   10ASP    HB2  101   0.641   1.631   3.517
   10ASP     CG  102   0.430   1.564   3.530
   10ASP    OD1  103   0.441   1.443   3.564
   10ASP    OD2  104   0.320   1.609   3.487
   10ASP      C  105   0.611   1.903   3.572
   10ASP      O  106   0.599   1.923   3.691
   11GLY      N  107   0.690   1.979   3.494
   11GLY     HN  108   0.672   1.959   3.398
   11GLY     CA  109   0.776   2.082   3.541
   11GLY    HA1  110   0.739   2.125   3.633
   11GLY    HA2  111   0.795   2.160   3.470
   11GLY      C  112   0.914   2.027   3.581
   11GLY    OT1  113   1.014   2.100   3.569
   11GLY    OT2  114   0.925   1.912   3.634
   12LIT    LIT  115   4.644   6.204   2.242
   13LIT    LIT  116   2.158   2.751   5.627
   14LIT    LIT  117   4.333   0.090   0.765
   15LIT    LIT  118   3.074   1.655   3.015
   16LIT    LIT  119   1.122   1.942   3.626
   17LIT    LIT  120   2.462   5.270   4.653
   18LIT    LIT  121   1.544   0.906   4.033
   19LIT    LIT  122   2.416   6.712   0.816
   20LIT    LIT  123   0.041   3.379   3.712
   21LIT    LIT  124   1.889   0.459   4.214
   22LIT    LIT  125   4.175   4.290   0.140
   23LIT    LIT  126   1.420   0.724   0.156
   24LIT    LIT  127   0.088   4.541   2.617
   25LIT    LIT  128   0.036   2.094   2.167
   26LIT    LIT  129   0.262   1.420   3.516
   27LIT    LIT  130   4.340   1.753   4.001
   28LIT    LIT  131   5.064   1.798   0.393
   29LIT    LIT  132   1.015   2.416   2.870
   30LIT    LIT  133   7.000   2.336   1.665
   31LIT    LIT  134   3.825   0.331   2.136
   32LIT    LIT  135   7.046   1.984   0.788
   33LIT    LIT  136   4.472   3.485   1.498
   34LIT    LIT  137   4.649   2.019   4.281
   35LIT    LIT  138   1.522   2.042   1.764
   36LIT    LIT  139   3.955   3.094   5.787
   37LIT    LIT  140   3.495   5.176   1.212
   38LIT    LIT  141   6.427   0.352   5.649
   39LIT    LIT  142   2.028   0.704   2.264
   40LIT    LIT  143   5.050   0.693   2.476
   41LIT    LIT  144   3.674   1.377   3.955
   42LIT    LIT  145   1.434   0.942   2.714
   43CLA    CLA  146   5.179   0.493   2.454
   44CLA    CLA  147   6.843   1.999   4.085
   45CLA    CLA  148   2.975   2.487   4.996
   46CLA    CLA  149   5.750   3.873   0.475
   47CLA    CLA  150   6.655   1.999   1.580
   48CLA    CLA  151   3.141   3.122   4.518
   49CLA    CLA  152   4.590   4.087   2.108
   50CLA    CLA  153   4.976   6.502   0.780
   51CLA    CLA  154   6.557   2.343   0.358
   52CLA    CLA  155   1.868   1.689   1.307
   53CLA    CLA  156   4.740   3.705   2.098
   54CLA    CLA  157   4.241   2.200   2.551
   55CLA    CLA  158   0.415   2.384   4.365
   56CLA    CLA  159   1.473   2.877   1.232
   57CLA    CLA  160   6.349   0.425   3.717
   58CLA    CLA  161   4.546   3.572   1.297
   59CLA    CLA  162   7.105   4.708   4.580
   60CLA    CLA  163   0.908   1.378   4.953
   61CLA    CLA  164   1.590   0.304   0.298
   62CLA    CLA  165   2.423   5.871   0.526
   63CLA    CLA  166   2.206   0.799   3.140
   64CLA    CLA  167   4.059   2.099   0.446
   65CLA    CLA  168   5.812   4.379   3.055
   66CLA    CLA  169   1.418   0.554   4.376
   67CLA    CLA  170   6.067   3.565   1.520
   68CLA    CLA  171   1.691   2.751   2.233
   69CLA    CLA  172   4.154   4.329   0.913
   70TIP3   OH2  173   5.577   2.893   0.345
   70TIP3    H1  174   5.604   2.843   0.422
   70TIP3    H2  175   5.659   2.913   0.300
   71TIP3   OH2  176   4.538   0.696   4.265
   71TIP3    H1  177   4.465   0.649   4.222
   71TIP3    H2  178   4.550   0.650   4.348
   72TIP3   OH2  179   2.971   2.141   5.081
   72TIP3    H1  180   2.976   2.233   5.055
   72TIP3    H2  181   2.892   2.108   5.039
   73TIP3   OH2  182   4.745   2.849   1.496
   73TIP3    H1  183   4.706   2.863   1.410
   73TIP3    H2  184   4.714   2.923   1.549
   74TIP3   OH2  185   4.735   4.952   3.367
   74TIP3    H1  186   4.760   4.986   3.281
   74TIP3    H2  187   4.809   4.898   3.394
   75TIP3   OH2  188   4.870   4.817   2.324
   75TIP3    H1  189   4.875   4.735   2.274
   75TIP3    H2  190   4.960   4.849   2.327
   76TIP3   OH2  191   6.062   0.208   4.093
   76TIP3    H1  192   6.129   0.273   4.117
   76TIP3    H2  193   6.045   0.224   4.001
   77TIP3   OH2  194   3.961   2.249   2.704
   77TIP3    H1  195   3.912   2.182   2.655
   77TIP3    H2  196   4.044   2.255   2.658
   78TIP3   OH2  197   5.622   1.569   4.119
   78TIP3    H1  198   5.643   1.627   4.192
   78TIP3    H2  199   5.665   1.486   4.141
   79TIP3   OH2  200   7.030   1.673   0.643
   79TIP3    H1  201   6.939   1.691   0.619
   79TIP3    H2  202   7.063   1.757   0.677
   80TIP3   OH2  203   6.523   4.268   5.602
   80TIP3    H1  204   6.529   4.329   5.676
   80TIP3    H2  205   6.432   4.239   5.603
   81TIP3   OH2  206   6.557   2.138   4.139
   81TIP3    H1  207   6.618   2.079   4.096
   81TIP3    H2  208   6.561   2.115   4.231
   82TIP3   OH2  209   4.219   5.293   2.597
   82TIP3    H1  210   4.234   5.362   2.532
   82TIP3    H2  211   4.307   5.268   2.627
   83TIP3   OH2  212   7.064   3.096   1.864
   83TIP3    H1  213   7.026   3.152   1.932
   83TIP3    H2  214   7.157   3.092   1.886
   84TIP3   OH2  215   5.066   5.509   1.753
   84TIP3    H1  216   5.091   5.445   1.686
   84TIP3    H2  217   4.970   5.511   1.751
   85TIP3   OH2  218   4.112   2.742   2.857
   85TIP3    H1  219   4.145   2.690   2.784
   85TIP3    H2  220   4.136   2.832   2.835
   86TIP3   OH2  221   6.276   0.880   3.708
   86TIP3    H1  222   6.295   0.910   3.797
   86TIP3    H2  223   6.335   0.807   3.694
   87TIP3   OH2  224   3.221   1.182   3.040
   87TIP3    H1  225   3.159   1.223   2.980
   87TIP3    H2  226   3.175   1.105   3.074
   88TIP3   OH2  227   4.424   0.878   0.291
   88TIP3    H1  228   4.383   0.853   0.208
   88TIP3    H2  229   4.512   0.840   0.286
   89TIP3   OH2  230   0.242   4.862   3.604
   89TIP3    H1  231   0.323   4.901   3.571
   89TIP3    H2  232   0.266   4.826   3.689
   90TIP3   OH2  233   6.405   1.233   3.844
   90TIP3    H1  234   6.405   1.273   3.931
   90TIP3    H2  235   6.487   1.261   3.804
   91TIP3   OH2  236   0.298   2.133   4.067
   91TIP3    H1  237   0.279   2.124   3.974
   91TIP3    H2  238   0.236   2.200   4.098
   92TIP3   OH2  239   0.950   5.394   1.217
   92TIP3    H1  240   1.009   5.459   1.254
   92TIP3    H2  241   0.998   5.311   1.225
   93TIP3   OH2  242   1.270   4.414   4.241
   93TIP3    H1  243   1.229   4.342   4.194
   93TIP3    H2  244   1.320   4.461   4.174
   94TIP3   OH2  245   4.447   3.554   3.018
   94TIP3    H1  246   4.389   3.545   2.942
   94TIP3    H2  247   4.405   3.622   3.072
   95TIP3   OH2  248   1.377   4.806   5.451
   95TIP3    H1  249   1.408   4.792   5.540
   95TIP3    H2  250   1.423   4.739   5.399
   96TIP3   OH2  251   1.017   1.437   2.217
   96TIP3    H1  252   1.113   1.436   2.211
   96TIP3    H2  253   0.991   1.350   2.185
   97TIP3   OH2  254   6.550   0.178   4.634
   97TIP3    H1  255   6.516   0.089   4.640
   97TIP3    H2  256   6.624   0.172   4.574
   98TIP3   OH2  257   0.541   1.890   1.450
   98TIP3    H1  258   0.615   1.915   1.505
   98TIP3    H2  259   0.534   1.961   1.386
   99TIP3   OH2  260   0.235   3.828   1.661
   99TIP3    H1  261   0.216   3.922   1.652
   99TIP3    H2  262   0.216   3.792   1.574
  100TIP3   OH2  263   4.475   4.507   0.560
  100TIP3    H1  264   4.434   4.555   0.632
  100TIP3    H2  265   4.450   4.416   0.574
  101TIP3   OH2  266   1.889   3.946   5.022
  101TIP3    H1  267   1.926   3.908   5.102
  101TIP3    H2  268   1.923   3.892   4.951
  102TIP3   OH2  269   2.512   2.255   2.137
  102TIP3    H1  270   2.590   2.224   2.184
  102TIP3    H2  271   2.541   2.263   2.046
  103TIP3   OH2  272   4.615   6.383   2.207
  103TIP3    H1  273   4.576   6.381   2.119
  103TIP3    H2  274   4.620   6.475   2.229
  104TIP3   OH2  275   3.006   6.633   4.985
  104TIP3    H1  276   3.009   6.720   4.944
  104TIP3    H2  277   2.921   6.631   5.029
  105TIP3   OH2  278   6.000   4.811   1.375
  105TIP3    H1  279   5.957   4.728   1.395
  105TIP3    H2  280   6.020   4.849   1.460
  106TIP3   OH2  281   2.468   1.362   5.479
  106TIP3    H1  282   2.484   1.345   5.386
  106TIP3    H2  283   2.485   1.456   5.490
  107TIP3   OH2  284   4.415   0.497   1.836
  107TIP3    H1  285   4.411   0.477   1.742
  107TIP3    H2  286   4.502   0.535   1.849
  108TIP3   OH2  287   2.534   0.766   2.193
  108TIP3    H1  288   2.624   0.798   2.200
  108TIP3    H2  289   2.538   0.677   2.229
  109TIP3   OH2  290   3.504   0.065   2.016
  109TIP3    H1  291   3.584   0.013   2.011
  109TIP3    H2  292   3.472   0.070   1.925
  110TIP3   OH2  293   6.104   6.756   2.191
  110TIP3    H1  294   6.051   6.826   2.230
  110TIP3    H2  295   6.068   6.744   2.104
  111TIP3   OH2  296   1.616   3.732   4.147
  111TIP3    H1  297   1.605   3.749   4.241
  111TIP3    H2  298   1.639   3.639   4.142
  112TIP3   OH2  299   5.248   6.803   4.109
  112TIP3    H1  300   5.288   6.873   4.058
  112TIP3    H2  301   5.302   6.726   4.092
  113TIP3   OH2  302   3.843   6.740   2.905
  113TIP3    H1  303   3.766   6.778   2.946
  113TIP3    H2  304   3.917   6.781   2.950
  114TIP3   OH2  305   3.064   0.318   5.525
  114TIP3    H1  306   3.114   0.382   5.577
  114TIP3    H2  307   3.000   0.283   5.587
  115TIP3   OH2  308   3.344   1.157   5.249
  115TIP3    H1  309   3.330   1.180   5.341
  115TIP3    H2  310   3.260   1.122   5.220
  116TIP3   OH2  311   4.313   3.748   2.609
  116TIP3    H1  312   4.261   3.721   2.533
  116TIP3    H2  313   4.363   3.823   2.577
  117TIP3   OH2  314   2.028   5.687   1.643
  117TIP3    H1  315   2.013   5.670   1.736
  117TIP3    H2  316   1.940   5.688   1.604
  118TIP3   OH2  317   7.071   3.795   2.162
  118TIP3    H1  318   7.041   3.704   2.167
  118TIP3    H2  319   6.994   3.846   2.186
  119TIP3   OH2  320   3.998   0.787   0.135
  119TIP3    H1  321   3.973   0.745   0.217
  119TIP3    H2  322   4.032   0.715   0.081
  120TIP3   OH2  323   0.965   2.223   2.483
  120TIP3    H1  324   0.937   2.310   2.455
  120TIP3    H2  325   0.930   2.214   2.571
  121TIP3   OH2  326   2.443   0.423   1.325
  121TIP3    H1  327   2.435   0.328   1.315
  121TIP3    H2  328   2.367   0.459   1.279
  122TIP3   OH2  329   4.607   2.759   3.071
  122TIP3    H1  330   4.671   2.800   3.013
  122TIP3    H2  331   4.640   2.777   3.159
  123TIP3   OH2  332   0.857   6.751   4.417
  123TIP3    H1  333   0.808   6.751   4.334
  123TIP3    H2  334   0.869   6.658   4.438
  124TIP3   OH2  335   3.109   6.810   4.514
  124TIP3    H1  336   3.162   6.731   4.518
  124TIP3    H2  337   3.028   6.782   4.472
  125TIP3   OH2  338   5.307   2.430   2.757
  125TIP3    H1  339   5.256   2.467   2.685
  125TIP3    H2  340   5.390   2.403   2.717
  126TIP3   OH2  341   3.208   0.149   2.490
  126TIP3    H1  342   3.251   0.165   2.574
  126TIP3    H2  343   3.275   0.171   2.424
  127TIP3   OH2  344   5.187   6.055   5.798
  127TIP3    H1  345   5.147   5.975   5.765
  127TIP3    H2  346   5.180   6.118   5.726
  128TIP3   OH2  347   2.965   3.276   1.653
  128TIP3    H1  348   3.023   3.249   1.583
  128TIP3    H2  349   2.960   3.371   1.645
  129TIP3   OH2  350   1.654   1.703   3.833
  129TIP3    H1  351   1.595   1.774   3.859
  129TIP3    H2  352   1.610   1.624   3.866
  130TIP3   OH2  353   6.592   5.154   4.840
  130TIP3    H1  354   6.648   5.177   4.765
  130TIP3    H2  355   6.504   5.149   4.804
  131TIP3   OH2  356   5.988   3.962   0.926
  131TIP3    H1  357   5.958   3.986   1.014
  131TIP3    H2  358   5.931   3.889   0.901
  132TIP3   OH2  359   6.474   1.585   4.764
  132TIP3    H1  360   6.547   1.594   4.825
  132TIP3    H2  361   6.439   1.498   4.780
  133TIP3   OH2  362   5.377   1.741   2.515
  133TIP3    H1  363   5.397   1.825   2.473
  133TIP3    H2  364   5.330   1.764   2.595
  134TIP3   OH2  365   1.929   2.420   1.535
  134TIP3    H1  366   1.834   2.433   1.538
  134TIP3    H2  367   1.955   2.455   1.450
  135TIP3   OH2  368   3.505   4.628   2.779
  135TIP3    H1  369   3.516   4.534   2.793
  135TIP3    H2  370   3.507   4.666   2.868
  136TIP3   OH2  371   2.921   0.383   0.294
  136TIP3    H1  372   2.963   0.382   0.208
  136TIP3    H2  373   2.937   0.296   0.330
  137TIP3   OH2  374   4.161   4.930   5.480
  137TIP3    H1  375   4.193   4.966   5.563
  137TIP3    H2  376   4.117   4.849   5.505
  138TIP3   OH2  377   6.893   1.245   2.678
  138TIP3    H1  378   6.934   1.331   2.692
  138TIP3    H2  379   6.936   1.187   2.741
  139TIP3   OH2  380   6.729   2.508   4.633
  139TIP3    H1  381   6.702   2.420   4.660
  139TIP3    H2  382   6.648   2.550   4.605
  140TIP3   OH2  383   2.070   2.201   3.201
  140TIP3    H1  384   2.120   2.177   3.123
  140TIP3    H2  385   2.131   2.190   3.274
  141TIP3   OH2  386   1.148   0.888   2.933
  141TIP3    H1  387   1.181   0.967   2.890
  141TIP3    H2  388   1.174   0.898   3.024
  142TIP3   OH2  389   1.726   0.819   4.500
  142TIP3    H1  390   1.799   0.828   4.561
  142TIP3    H2  391   1.728   0.898   4.448
  143TIP3   OH2  392   7.099   4.834   1.691
  143TIP3    H1  393   7.104   4.900   1.760
  143TIP3    H2  394   7.045   4.764   1.729
  144TIP3   OH2  395   6.447   3.208   4.099
  144TIP3    H1  396   6.381   3.271   4.130
  144TIP3    H2  397   6.524   3.226   4.153
  145TIP3   OH2  398   1.981   2.265   0.524
  145TIP3    H1  399   1.992   2.190   0.582
  145TIP3    H2  400   1.935   2.330   0.577
  146TIP3   OH2  401   3.401   5.637   0.376
  146TIP3    H1  402   3.343   5.712   0.368
  146TIP3    H2  403   3.386   5.586   0.297
  147TIP3   OH2  404   3.782   0.975   4.024
  147TIP3    H1  405   3.757   0.942   4.110
  147TIP3    H2  406   3.762   0.903   3.964
  148TIP3   OH2  407   4.930   1.277   5.580
  148TIP3    H1  408   4.998   1.296   5.644
  148TIP3    H2  409   4.944   1.340   5.510
  149TIP3   OH2  410   3.904   6.446   2.864
  149TIP3    H1  411   3.898   6.425   2.957
  149TIP3    H2  412   3.856   6.528   2.854
  150TIP3   OH2  413   0.564   6.365   1.111
  150TIP3    H1  414   0.603   6.380   1.025
  150TIP3    H2  415   0.507   6.288   1.098
  151TIP3   OH2  416   1.422   5.668   3.365
  151TIP3    H1  417   1.341   5.651   3.317
  151TIP3    H2  418   1.449   5.582   3.398
  152TIP3   OH2  419   4.923   3.369   4.876
  152TIP3    H1  420   4.869   3.447   4.861
  152TIP3    H2  421   5.012   3.397   4.853
  153TIP3   OH2  422   1.819   1.559   4.100
  153TIP3    H1  423   1.754   1.506   4.147
  153TIP3    H2  424   1.804   1.539   4.007
  154TIP3   OH2  425   0.371   0.807   3.340
  154TIP3    H1  426   0.320   0.732   3.370
  154TIP3    H2  427   0.408   0.779   3.256
  155TIP3   OH2  428   1.978   2.243   1.227
  155TIP3    H1  429   1.932   2.309   1.174
  155TIP3    H2  430   1.908   2.203   1.280
  156TIP3   OH2  431   2.686   1.594   3.154
  156TIP3    H1  432   2.674   1.599   3.059
  156TIP3    H2  433   2.704   1.684   3.180
  157TIP3   OH2  434   6.714   5.234   2.419
  157TIP3    H1  435   6.745   5.303   2.478
  157TIP3    H2  436   6.620   5.226   2.438
  158TIP3   OH2  437   6.643   6.808   4.816
  158TIP3    H1  438   6.737   6.824   4.802
  158TIP3    H2  439   6.619   6.748   4.746
  159TIP3   OH2  440   5.297   0.923   1.719
  159TIP3    H1  441   5.214   0.875   1.719
  159TIP3    H2  442   5.275   1.007   1.679
  160TIP3   OH2  443   1.259   3.542   4.025
  160TIP3    H1  444   1.309   3.547   3.943
  160TIP3    H2  445   1.167   3.537   3.996
  161TIP3   OH2  446   4.217   3.472   0.591
  161TIP3    H1  447   4.296   3.423   0.565
  161TIP3    H2  448   4.241   3.515   0.673
  162TIP3   OH2  449   1.424   5.081   5.466
  162TIP3    H1  450   1.512   5.095   5.501
  162TIP3    H2  451   1.414   4.986   5.463
  163TIP3   OH2  452   3.776   1.032   3.068
  163TIP3    H1  453   3.704   1.041   3.005
  163TIP3    H2  454   3.816   1.119   3.071
  164TIP3   OH2  455   4.295   4.369   0.287
  164TIP3    H1  456   4.315   4.327   0.371
  164TIP3    H2  457   4.296   4.463   0.305
  165TIP3   OH2  458   5.568   2.223   4.066
  165TIP3    H1  459   5.651   2.263   4.040
  165TIP3    H2  460   5.580   2.130   4.047
  166TIP3   OH2  461   3.688   5.612   5.501
  166TIP3    H1  462   3.679   5.517   5.493
  166TIP3    H2  463   3.603   5.641   5.535
  167TIP3   OH2  464   6.130   1.408   4.087
  167TIP3    H1  465   6.095   1.472   4.025
  167TIP3    H2  466   6.081   1.328   4.069
  168TIP3   OH2  467   0.439   5.530   1.559
  168TIP3    H1  468   0.506   5.536   1.627
  168TIP3    H2  469   0.476   5.469   1.495
  169TIP3   OH2  470   6.403   4.338   2.189
  169TIP3    H1  471   6.474   4.286   2.153
  169TIP3    H2  472   6.435   4.428   2.187
  170TIP3   OH2  473   4.739   3.251   2.745
  170TIP3    H1  474   4.698   3.337   2.757
  170TIP3    H2  475   4.713   3.201   2.823
  171TIP3   OH2  476   1.226   1.732   1.828
  171TIP3    H1  477   1.275   1.650   1.822
  171TIP3    H2  478   1.180   1.726   1.912
  172TIP3   OH2  479   5.469   0.193   3.719
  172TIP3    H1  480   5.545   0.146   3.756
  172TIP3    H2  481   5.496   0.285   3.719
  173TIP3   OH2  482   0.208   2.148   3.324
  173TIP3    H1  483   0.288   2.199   3.337
  173TIP3    H2  484   0.236   2.073   3.270
  174TIP3   OH2  485   6.315   0.506   5.666
  174TIP3    H1  486   6.253   0.533   5.734
  174TIP3    H2  487   6.315   0.579   5.604
  175TIP3   OH2  488   3.153   6.241   2.373
  175TIP3    H1  489   3.109   6.288   2.302
  175TIP3    H2  490   3.081   6.203   2.424
  176TIP3   OH2  491   3.274   2.668   0.214
  176TIP3    H1  492   3.224   2.597   0.256
  176TIP3    H2  493   3.295   2.634   0.127
  177TIP3   OH2  494   4.546   5.793   5.544
  177TIP3    H1  495   4.474   5.774   5.484
  177TIP3    H2  496   4.518   5.755   5.627
  178TIP3   OH2  497   3.279   4.416   1.691
  178TIP3    H1  498   3.279   4.512   1.692
  178TIP3    H2  499   3.328   4.391   1.769
  179TIP3   OH2  500   2.090   0.561   5.789
  179TIP3    H1  501   2.107   0.518   5.705
  179TIP3    H2  502   1.999   0.589   5.784
  180TIP3   OH2  503   3.038   4.043   3.963
  180TIP3    H1  504   3.070   4.008   3.880
  180TIP3    H2  505   3.081   4.128   3.971
  181TIP3   OH2  506   6.208   2.245   1.701
  181TIP3    H1  507   6.181   2.302   1.630
  181TIP3    H2  508   6.248   2.169   1.658
  182TIP3   OH2  509   2.414   0.661   3.597
  182TIP3    H1  510   2.482   0.690   3.658
  182TIP3    H2  511   2.372   0.741   3.566
  183TIP3   OH2  512   1.890   4.956   3.959
  183TIP3    H1  513   1.805   4.999   3.954
  183TIP3    H2  514   1.952   5.028   3.976
  184TIP3   OH2  515   0.737   5.073   4.755
  184TIP3    H1  516   0.651   5.043   4.726
  184TIP3    H2  517   0.777   4.995   4.794
  185TIP3   OH2  518   4.422   5.077   5.137
  185TIP3    H1  519   4.510   5.040   5.147
  185TIP3    H2  520   4.363   5.007   5.165
  186TIP3   OH2  521   4.097   4.058   4.220
  186TIP3    H1  522   4.042   4.115   4.167
  186TIP3    H2  523   4.066   3.969   4.200
  187TIP3   OH2  524   4.371   5.412   5.224
  187TIP3    H1  525   4.463   5.400   5.198
  187TIP3    H2  526   4.337   5.474   5.160
  188TIP3   OH2  527   6.410   5.357   1.004
  188TIP3    H1  528   6.412   5.403   1.088
  188TIP3    H2  529   6.350   5.407   0.950
  189TIP3   OH2  530   6.129   2.817   4.384
  189TIP3    H1  531   6.151   2.894   4.436
  189TIP3    H2  532   6.174   2.745   4.427
  190TIP3   OH2  533   4.486   3.425   0.170
  190TIP3    H1  534   4.399   3.464   0.165
  190TIP3    H2  535   4.547   3.497   0.154
  191TIP3   OH2  536   4.470   0.765   2.913
  191TIP3    H1  537   4.478   0.687   2.859
  191TIP3    H2  538   4.378   0.791   2.904
  192TIP3   OH2  539   4.459   5.144   0.472
  192TIP3    H1  540   4.546   5.108   0.486
  192TIP3    H2  541   4.447   5.207   0.543
  193TIP3   OH2  542   4.473   1.082   4.411
  193TIP3    H1  543   4.518   1.001   4.436
  193TIP3    H2  544   4.525   1.117   4.339
  194TIP3   OH2  545   1.372   4.093   2.461
  194TIP3    H1  546   1.331   4.012   2.490
  194TIP3    H2  547   1.466   4.077   2.470
  195TIP3   OH2  548   6.669   0.495   3.719
  195TIP3    H1  549   6.583   0.459   3.698
  195TIP3    H2  550   6.724   0.419   3.737
  196TIP3   OH2  551   0.282   1.084   5.147
  196TIP3    H1  552   0.222   1.011   5.130
  196TIP3    H2  553   0.330   1.095   5.065
  197TIP3   OH2  554   4.058   1.717   0.957
  197TIP3    H1  555   4.032   1.716   0.865
  197TIP3    H2  556   4.140   1.669   0.959
  198TIP3   OH2  557   0.752   6.551   0.170
  198TIP3    H1  558   0.694   6.485   0.209
  198TIP3    H2  559   0.799   6.589   0.244
  199TIP3   OH2  560   4.622   1.178   2.943
  199TIP3    H1  561   4.600   1.252   3.000
  199TIP3    H2  562   4.537   1.141   2.918
  200TIP3   OH2  563   2.484   2.693   1.873
  200TIP3    H1  564   2.479   2.681   1.778
  200TIP3    H2  565   2.401   2.659   1.906
  201TIP3   OH2  566   1.541   4.664   2.336
  201TIP3    H1  567   1.565   4.716   2.413
  201TIP3    H2  568   1.562   4.574   2.360
  202TIP3   OH2  569   1.035   4.258   3.037
  202TIP3    H1  570   1.056   4.233   3.127
  202TIP3    H2  571   1.101   4.325   3.015
  203TIP3   OH2  572   3.601   0.522   1.045
  203TIP3    H1  573   3.549   0.445   1.022
  203TIP3    H2  574   3.579   0.539   1.137
  204TIP3   OH2  575   1.668   2.529   1.529
  204TIP3    H1  576   1.707   2.616   1.527
  204TIP3    H2  577   1.609   2.527   1.453
  205TIP3   OH2  578   5.198   3.547   4.067
  205TIP3    H1  579   5.238   3.531   3.982
  205TIP3    H2  580   5.239   3.482   4.125
  206TIP3   OH2  581   2.013   2.768   1.969
  206TIP3    H1  582   1.956   2.833   1.928
  206TIP3    H2  583   2.005   2.785   2.063
  207TIP3   OH2  584   6.222   2.353   4.662
  207TIP3    H1  585   6.304   2.326   4.621
  207TIP3    H2  586   6.219   2.305   4.744
  208TIP3   OH2  587   5.728   4.905   5.155
  208TIP3    H1  588   5.692   4.991   5.133
  208TIP3    H2  589   5.803   4.924   5.212
  209TIP3   OH2  590   5.715   6.096   2.502
  209TIP3    H1  591   5.785   6.114   2.564
  209TIP3    H2  592   5.654   6.040   2.551
  210TIP3   OH2  593   5.906   4.155   4.253
  210TIP3    H1  594   5.879   4.095   4.184
  210TIP3    H2  595   6.000   4.166   4.240
  211TIP3   OH2  596   4.236   0.539   1.121
  211TIP3    H1  597   4.144   0.556   1.140
  211TIP3    H2  598   4.284   0.593   1.184
  212TIP3   OH2  599   4.950   6.651   5.724
  212TIP3    H1  600   5.005   6.649   5.645
  212TIP3    H2  601   4.945   6.743   5.748
  213TIP3   OH2  602   1.481   3.387   4.779
  213TIP3    H1  603   1.540   3.368   4.706
  213TIP3    H2  604   1.494   3.480   4.797
  214TIP3   OH2  605   6.415   2.295   3.986
  214TIP3    H1  606   6.469   2.244   4.047
  214TIP3    H2  607   6.463   2.292   3.903
  215TIP3   OH2  608   4.673   0.931   5.199
  215TIP3    H1  609   4.598   0.877   5.224
  215TIP3    H2  610   4.696   0.978   5.279
  216TIP3   OH2  611   7.022   1.884   3.828
  216TIP3    H1  612   7.110   1.922   3.834
  216TIP3    H2  613   6.973   1.925   3.900
  217TIP3   OH2  614   2.733   2.690   5.552
  217TIP3    H1  615   2.818   2.653   5.529
  217TIP3    H2  616   2.679   2.676   5.474
  218TIP3   OH2  617   6.853   1.997   4.784
  218TIP3    H1  618   6.850   2.004   4.879
  218TIP3    H2  619   6.921   1.932   4.766
  219TIP3   OH2  620   2.946   1.330   1.293
  219TIP3    H1  621   2.954   1.310   1.386
  219TIP3    H2  622   3.000   1.264   1.250
  220TIP3   OH2  623   6.785   0.310   1.546
  220TIP3    H1  624   6.859   0.253   1.564
  220TIP3    H2  625   6.769   0.356   1.628
  221TIP3   OH2  626   6.527   3.413   3.417
  221TIP3    H1  627   6.434   3.415   3.394
  221TIP3    H2  628   6.555   3.505   3.410
  222TIP3   OH2  629   6.786   5.336   1.605
  222TIP3    H1  630   6.789   5.418   1.556
  222TIP3    H2  631   6.697   5.303   1.592
  223TIP3   OH2  632   2.783   2.675   3.485
  223TIP3    H1  633   2.740   2.734   3.546
  223TIP3    H2  634   2.876   2.688   3.501
  224TIP3   OH2  635   2.470   6.708   4.901
  224TIP3    H1  636   2.434   6.797   4.897
  224TIP3    H2  637   2.394   6.651   4.896
  225TIP3   OH2  638   4.820   5.588   5.465
  225TIP3    H1  639   4.736   5.580   5.420
  225TIP3    H2  640   4.804   5.654   5.533
  226TIP3   OH2  641   2.283   5.954   5.300
  226TIP3    H1  642   2.337   5.874   5.303
  226TIP3    H2  643   2.275   5.980   5.392
  227TIP3   OH2  644   0.291   6.366   0.552
  227TIP3    H1  645   0.318   6.452   0.518
  227TIP3    H2  646   0.234   6.331   0.484
  228TIP3   OH2  647   2.665   5.313   5.853
  228TIP3    H1  648   2.622   5.364   5.784
  228TIP3    H2  649   2.605   5.242   5.872
  229TIP3   OH2  650   5.195   0.153   3.361
  229TIP3    H1  651   5.223   0.244   3.350
  229TIP3    H2  652   5.196   0.140   3.456
  230TIP3   OH2  653   6.473   0.360   1.828
  230TIP3    H1  654   6.412   0.361   1.902
  230TIP3    H2  655   6.435   0.297   1.767
  231TIP3   OH2  656   1.989   6.446   1.974
  231TIP3    H1  657   2.032   6.531   1.981
  231TIP3    H2  658   1.902   6.460   2.012
  232TIP3   OH2  659   4.539   6.283   3.455
  232TIP3    H1  660   4.583   6.352   3.406
  232TIP3    H2  661   4.569   6.295   3.546
  233TIP3   OH2  662   1.632   2.152   4.320
  233TIP3    H1  663   1.711   2.130   4.368
  233TIP3    H2  664   1.660   2.158   4.228
  234TIP3   OH2  665   4.987   2.197   1.781
  234TIP3    H1  666   5.000   2.213   1.688
  234TIP3    H2  667   4.909   2.141   1.785
  235TIP3   OH2  668   5.502   3.370   3.083
  235TIP3    H1  669   5.548   3.362   2.999
  235TIP3    H2  670   5.471   3.282   3.101
  236TIP3   OH2  671   1.973   6.362   4.113
  236TIP3    H1  672   2.019   6.280   4.093
  236TIP3    H2  673   1.888   6.353   4.070
  237TIP3   OH2  674   6.441   1.273   0.176
  237TIP3    H1  675   6.388   1.338   0.129
  237TIP3    H2  676   6.404   1.189   0.148
  238TIP3   OH2  677   3.706   5.318   4.187
  238TIP3    H1  678   3.668   5.264   4.256
  238TIP3    H2  679   3.688   5.408   4.214
  239TIP3   OH2  680   6.110   5.653   1.953
  239TIP3    H1  681   6.069   5.738   1.963
  239TIP3    H2  682   6.096   5.629   1.861
  240TIP3   OH2  683   5.770   5.328   1.758
  240TIP3    H1  684   5.703   5.390   1.730
  240TIP3    H2  685   5.744   5.303   1.847
  241TIP3   OH2  686   2.907   4.788   2.506
  241TIP3    H1  687   2.929   4.774   2.598
  241TIP3    H2  688   2.990   4.777   2.460
  242TIP3   OH2  689   5.673   2.842   4.115
  242TIP3    H1  690   5.755   2.849   4.164
  242TIP3    H2  691   5.700   2.816   4.027
  243TIP3   OH2  692   3.022   3.356   5.703
  243TIP3    H1  693   3.014   3.451   5.690
  243TIP3    H2  694   3.084   3.347   5.776
  244TIP3   OH2  695   1.251   1.197   2.466
  244TIP3    H1  696   1.271   1.165   2.554
  244TIP3    H2  697   1.306   1.144   2.409
  245TIP3   OH2  698   1.178   4.292   5.071
  245TIP3    H1  699   1.174   4.220   5.008
  245TIP3    H2  700   1.212   4.252   5.151
  246TIP3   OH2  701   3.511   0.160   0.152
  246TIP3    H1  702   3.542   0.069   0.152
  246TIP3    H2  703   3.559   0.201   0.080
  247TIP3   OH2  704   6.200   4.153   2.203
  247TIP3    H1  705   6.265   4.217   2.174
  247TIP3    H2  706   6.252   4.079   2.236
  248TIP3   OH2  707   1.736   4.839   4.396
  248TIP3    H1  708   1.664   4.899   4.414
  248TIP3    H2  709   1.706   4.754   4.428
  249TIP3   OH2  710   7.118   6.671   2.751
  249TIP3    H1  711   7.143   6.579   2.753
  249TIP3    H2  712   7.045   6.676   2.812
  250TIP3   OH2  713   3.887   3.418   4.078
  250TIP3    H1  714   3.969   3.370   4.074
  250TIP3    H2  715   3.913   3.510   4.079
  251TIP3   OH2  716   1.675   4.320   1.197
  251TIP3    H1  717   1.709   4.233   1.216
  251TIP3    H2  718   1.585   4.305   1.167
  252TIP3   OH2  719   3.895   2.780   0.717
  252TIP3    H1  720   3.889   2.708   0.780
  252TIP3    H2  721   3.965   2.752   0.657
  253TIP3   OH2  722   3.778   3.903   0.998
  253TIP3    H1  723   3.869   3.912   1.025
  253TIP3    H2  724   3.735   3.856   1.069
  254TIP3   OH2  725   4.135   1.926   4.807
  254TIP3    H1  726   4.076   1.946   4.735
  254TIP3    H2  727   4.187   1.852   4.776
  255TIP3   OH2  728   3.880   3.313   0.567
  255TIP3    H1  729   3.859   3.222   0.587
  255TIP3    H2  730   3.941   3.339   0.637
  256TIP3   OH2  731   5.071   6.108   4.986
  256TIP3    H1  732   4.999   6.053   5.015
  256TIP3    H2  733   5.117   6.132   5.067
  257TIP3   OH2  734   3.885   4.706   0.088
  257TIP3    H1  735   3.803   4.754   0.079
  257TIP3    H2  736   3.865   4.634   0.148
  258TIP3   OH2  737   3.715   3.626   4.288
  258TIP3    H1  738   3.667   3.547   4.311
  258TIP3    H2  739   3.686   3.647   4.199
  259TIP3   OH2  740   3.115   4.250   3.234
  259TIP3    H1  741   3.038   4.307   3.244
  259TIP3    H2  742   3.177   4.302   3.184
  260TIP3   OH2  743   3.005   5.305   0.746
  260TIP3    H1  744   2.933   5.321   0.686
  260TIP3    H2  745   3.013   5.386   0.796
  261TIP3   OH2  746   1.808   2.101   3.184
  261TIP3    H1  747   1.893   2.144   3.182
  261TIP3    H2  748   1.797   2.065   3.096
  262TIP3   OH2  749   2.271   5.365   5.414
  262TIP3    H1  750   2.300   5.298   5.352
  262TIP3    H2  751   2.179   5.345   5.430
  263TIP3   OH2  752   5.503   0.509   4.792
  263TIP3    H1  753   5.510   0.495   4.697
  263TIP3    H2  754   5.432   0.572   4.802
  264TIP3   OH2  755   1.900   4.801   1.211
  264TIP3    H1  756   1.940   4.754   1.138
  264TIP3    H2  757   1.875   4.885   1.173
  265TIP3   OH2  758   6.368   3.691   1.539
  265TIP3    H1  759   6.283   3.655   1.562
  265TIP3    H2  760   6.351   3.748   1.465
  266TIP3   OH2  761   5.640   0.470   1.271
  266TIP3    H1  762   5.614   0.418   1.347
  266TIP3    H2  763   5.708   0.528   1.304
  267TIP3   OH2  764   3.633   4.601   5.495
  267TIP3    H1  765   3.559   4.548   5.523
  267TIP3    H2  766   3.688   4.609   5.572
  268TIP3   OH2  767   5.263   5.236   1.623
  268TIP3    H1  768   5.340   5.261   1.573
  268TIP3    H2  769   5.257   5.300   1.693
  269TIP3   OH2  770   1.681   6.234   4.641
  269TIP3    H1  771   1.617   6.305   4.644
  269TIP3    H2  772   1.763   6.277   4.617
  270TIP3   OH2  773   3.910   1.785   3.423
  270TIP3    H1  774   3.963   1.705   3.419
  270TIP3    H2  775   3.832   1.765   3.372
  271TIP3   OH2  776   5.147   1.167   2.595
  271TIP3    H1  777   5.094   1.171   2.516
  271TIP3    H2  778   5.222   1.113   2.571
  272TIP3   OH2  779   0.125   4.314   0.540
  272TIP3    H1  780   0.125   4.219   0.548
  272TIP3    H2  781   0.206   4.335   0.494
  273TIP3   OH2  782   3.060   1.151   2.173
  273TIP3    H1  783   3.151   1.126   2.156
  273TIP3    H2  784   3.061   1.246   2.172
  274TIP3   OH2  785   0.744   2.971   0.619
  274TIP3    H1  786   0.743   3.045   0.680
  274TIP3    H2  787   0.758   3.010   0.533
  275TIP3   OH2  788   2.317   2.692   5.535
  275TIP3    H1  789   2.390   2.752   5.517
  275TIP3    H2  790   2.348   2.607   5.502
  276TIP3   OH2  791   1.143   2.974   5.744
  276TIP3    H1  792   1.095   2.970   5.827
  276TIP3    H2  793   1.230   2.942   5.766
  277TIP3   OH2  794   3.987   6.679   4.522
  277TIP3    H1  795   3.947   6.726   4.448
  277TIP3    H2  796   4.070   6.648   4.487
  278TIP3   OH2  797   1.674   2.178   0.776
  278TIP3    H1  798   1.752   2.130   0.747
  278TIP3    H2  799   1.627   2.115   0.831
  279TIP3   OH2  800   6.785   3.491   2.831
  279TIP3    H1  801   6.872   3.461   2.807
  279TIP3    H2  802   6.799   3.578   2.868
  280TIP3   OH2  803   5.996   0.672   4.014
  280TIP3    H1  804   5.989   0.672   4.109
  280TIP3    H2  805   6.062   0.605   3.995
  281TIP3   OH2  806   1.772   0.145   3.485
  281TIP3    H1  807   1.741   0.188   3.405
  281TIP3    H2  808   1.853   0.190   3.507
  282TIP3   OH2  809   5.142   5.050   5.187
  282TIP3    H1  810   5.076   5.078   5.251
  282TIP3    H2  811   5.183   4.973   5.227
  283TIP3   OH2  812   0.600   0.178   1.732
  283TIP3    H1  813   0.634   0.206   1.647
  283TIP3    H2  814   0.677   0.171   1.788
  284TIP3   OH2  815   1.287   3.926   5.566
  284TIP3    H1  816   1.273   3.900   5.475
  284TIP3    H2  817   1.201   3.953   5.597
  285TIP3   OH2  818   2.466   1.404   4.890
  285TIP3    H1  819   2.434   1.489   4.922
  285TIP3    H2  820   2.560   1.407   4.904
  286TIP3   OH2  821   1.756   6.392   2.425
  286TIP3    H1  822   1.729   6.484   2.432
  286TIP3    H2  823   1.851   6.396   2.412
  287TIP3   OH2  824   3.178   6.780   4.190
  287TIP3    H1  825   3.181   6.708   4.252
  287TIP3    H2  826   3.174   6.859   4.245
  288TIP3   OH2  827   4.989   3.450   0.440
  288TIP3    H1  828   4.956   3.405   0.363
  288TIP3    H2  829   5.076   3.413   0.454
  289TIP3   OH2  830   2.615   3.220   5.225
  289TIP3    H1  831   2.614   3.158   5.152
  289TIP3    H2  832   2.614   3.306   5.183
  290TIP3   OH2  833   2.932   5.378   3.594
  290TIP3    H1  834   2.928   5.473   3.608
  290TIP3    H2  835   2.870   5.362   3.523
  291TIP3   OH2  836   0.446   5.313   5.133
  291TIP3    H1  837   0.528   5.313   5.082
  291TIP3    H2  838   0.422   5.221   5.141
  292TIP3   OH2  839   3.120   6.111   0.249
  292TIP3    H1  840   3.051   6.045   0.255
  292TIP3    H2  841   3.112   6.147   0.161
  293TIP3   OH2  842   5.063   2.044   2.597
  293TIP3    H1  843   5.060   2.119   2.538
  293TIP3    H2  844   4.986   2.056   2.654
  294TIP3   OH2  845   0.730   0.066   3.445
  294TIP3    H1  846   0.660   0.063   3.380
  294TIP3    H2  847   0.740  -0.025   3.474
  295TIP3   OH2  848   1.573   1.047   1.872
  295TIP3    H1  849   1.507   1.004   1.927
  295TIP3    H2  850   1.646   1.063   1.931
  296TIP3   OH2  851   2.653   2.235   5.543
  296TIP3    H1  852   2.672   2.142   5.547
  296TIP3    H2  853   2.659   2.264   5.634
  297TIP3   OH2  854   3.748   3.430   2.690
  297TIP3    H1  855   3.751   3.520   2.722
  297TIP3    H2  856   3.687   3.434   2.616
  298TIP3   OH2  857   1.349   3.995  -0.026
  298TIP3    H1  858   1.301   3.950   0.043
  298TIP3    H2  859   1.415   4.046   0.020
  299TIP3   OH2  860   3.852   4.072   3.780
  299TIP3    H1  861   3.939   4.107   3.796
  299TIP3    H2  862   3.804   4.144   3.740
  300TIP3   OH2  863   5.914   2.876   0.931
  300TIP3    H1  864   5.898   2.959   0.887
  300TIP3    H2  865   5.965   2.899   1.008
  301TIP3   OH2  866   4.357   6.146   5.637
  301TIP3    H1  867   4.447   6.148   5.604
  301TIP3    H2  868   4.363   6.094   5.717
  302TIP3   OH2  869   3.458   4.670   4.027
  302TIP3    H1  870   3.380   4.650   3.975
  302TIP3    H2  871   3.515   4.594   4.015
  303TIP3   OH2  872   0.176   5.396   5.606
  303TIP3    H1  873   0.225   5.478   5.610
  303TIP3    H2  874   0.132   5.397   5.521
  304TIP3   OH2  875   0.167   3.257   5.435
  304TIP3    H1  876   0.118   3.330   5.399
  304TIP3    H2  877   0.140   3.251   5.526
  305TIP3   OH2  878   0.746   5.006   5.407
  305TIP3    H1  879   0.709   5.039   5.489
  305TIP3    H2  880   0.751   5.083   5.351
  306TIP3   OH2  881   3.273   3.748   3.277
  306TIP3    H1  882   3.182   3.760   3.305
  306TIP3    H2  883   3.293   3.829   3.229
  307TIP3   OH2  884   6.006   3.764   1.251
  307TIP3    H1  885   6.045   3.749   1.337
  307TIP3    H2  886   5.992   3.676   1.216
  308TIP3   OH2  887   1.568   5.397   2.631
  308TIP3    H1  888   1.624   5.474   2.637
  308TIP3    H2  889   1.526   5.404   2.545
  309TIP3   OH2  890   5.981   1.004   2.196
  309TIP3    H1  891   6.059   1.053   2.218
  309TIP3    H2  892   5.970   1.018   2.101
  310TIP3   OH2  893   4.698   5.047   0.561
  310TIP3    H1  894   4.793   5.057   0.567
  310TIP3    H2  895   4.678   4.979   0.625
  311TIP3   OH2  896   4.976   5.959   1.940
  311TIP3    H1  897   5.066   5.945   1.967
  311TIP3    H2  898   4.983   6.007   1.857
  312TIP3   OH2  899   0.672   4.229   4.426
  312TIP3    H1  900   0.744   4.167   4.436
  312TIP3    H2  901   0.699   4.307   4.474
  313TIP3   OH2  902   1.457   1.266   1.723
  313TIP3    H1  903   1.485   1.181   1.758
  313TIP3    H2  904   1.484   1.265   1.632
  314TIP3   OH2  905   2.445   3.057   0.912
  314TIP3    H1  906   2.490   3.119   0.970
  314TIP3    H2  907   2.471   2.971   0.943
  315TIP3   OH2  908   5.856   3.692   2.544
  315TIP3    H1  909   5.789   3.735   2.596
  315TIP3    H2  910   5.845   3.729   2.456
  316TIP3   OH2  911   6.654   5.914   0.971
  316TIP3    H1  912   6.625   5.961   0.893
  316TIP3    H2  913   6.727   5.859   0.940
  317TIP3   OH2  914   1.910   5.697   3.638
  317TIP3    H1  915   1.898   5.713   3.732
  317TIP3    H2  916   1.822   5.710   3.601
  318TIP3   OH2  917   1.335   5.416   5.397
  318TIP3    H1  918   1.370   5.498   5.432
  318TIP3    H2  919   1.288   5.377   5.471
  319TIP3   OH2  920   2.103   1.843   0.524
  319TIP3    H1  921   2.057   1.770   0.564
  319TIP3    H2  922   2.194   1.833   0.553
  320TIP3   OH2  923   6.716   2.598   2.182
  320TIP3    H1  924   6.712   2.514   2.136
  320TIP3    H2  925   6.656   2.654   2.133
  321TIP3   OH2  926   6.825   6.661   5.179
  321TIP3    H1  927   6.749   6.683   5.125
  321TIP3    H2  928   6.812   6.712   5.259
  322TIP3   OH2  929   2.744   4.172   3.549
  322TIP3    H1  930   2.790   4.098   3.588
  322TIP3    H2  931   2.654   4.143   3.540
  323TIP3   OH2  932   2.224   2.713   1.018
  323TIP3    H1  933   2.177   2.790   1.049
  323TIP3    H2  934   2.243   2.731   0.926
  324TIP3   OH2  935   0.578   3.923   2.694
  324TIP3    H1  936   0.505   3.873   2.657
  324TIP3    H2  937   0.566   3.916   2.788
  325TIP3   OH2  938   2.650   5.375   3.124
  325TIP3    H1  939   2.641   5.464   3.089
  325TIP3    H2  940   2.560   5.347   3.140
  326TIP3   OH2  941   0.776   3.742   0.017
  326TIP3    H1  942   0.840   3.810  -0.002
  326TIP3    H2  943   0.790   3.676  -0.051
  327TIP3   OH2  944   2.014   1.188   0.720
  327TIP3    H1  945   1.931   1.196   0.768
  327TIP3    H2  946   1.989   1.193   0.628
  328TIP3   OH2  947   3.316   3.122   3.722
  328TIP3    H1  948   3.350   3.204   3.756
  328TIP3    H2  949   3.226   3.118   3.755
  329TIP3   OH2  950   2.227   6.316   2.472
  329TIP3    H1  951   2.300   6.333   2.532
  329TIP3    H2  952   2.259   6.248   2.414
  330TIP3   OH2  953   1.234   6.109   0.330
  330TIP3    H1  954   1.140   6.127   0.330
  330TIP3    H2  955   1.240   6.015   0.312
  331TIP3   OH2  956   2.281   1.696   1.083
  331TIP3    H1  957   2.362   1.646   1.096
  331TIP3    H2  958   2.253   1.676   0.994
  332TIP3   OH2  959   6.045   2.399   3.174
  332TIP3    H1  960   5.984   2.470   3.192
  332TIP3    H2  961   5.996   2.319   3.196
  333TIP3   OH2  962   6.228   6.495   1.483
  333TIP3    H1  963   6.259   6.569   1.430
  333TIP3    H2  964   6.292   6.489   1.554
  334TIP3   OH2  965   6.221   4.861   2.911
  334TIP3    H1  966   6.238   4.930   2.975
  334TIP3    H2  967   6.129   4.872   2.888
  335TIP3   OH2  968   6.091   4.776   0.502
  335TIP3    H1  969   6.127   4.747   0.586
  335TIP3    H2  970   6.158   4.835   0.467
  336TIP3   OH2  971   2.804   4.401   3.735
  336TIP3    H1  972   2.792   4.313   3.771
  336TIP3    H2  973   2.836   4.386   3.646
  337TIP3   OH2  974   0.851   2.099   1.889
  337TIP3    H1  975   0.832   2.013   1.853
  337TIP3    H2  976   0.901   2.143   1.820
  338TIP3   OH2  977   1.689   0.804   2.183
  338TIP3    H1  978   1.692   0.864   2.257
  338TIP3    H2  979   1.628   0.735   2.211
  339TIP3   OH2  980   3.780   6.311   1.843
  339TIP3    H1  981   3.834   6.276   1.773
  339TIP3    H2  982   3.842   6.346   1.906
  340TIP3   OH2  983   0.279   2.090   0.154
  340TIP3    H1  984   0.258   2.014   0.099
  340TIP3    H2  985   0.271   2.057   0.243
  341TIP3   OH2  986   7.048   5.754   1.391
  341TIP3    H1  987   7.040   5.842   1.354
  341TIP3    H2  988   7.060   5.768   1.484
  342TIP3   OH2  989   5.317   4.634   3.005
  342TIP3    H1  990   5.263   4.655   3.081
  342TIP3    H2  991   5.255   4.633   2.931
  343TIP3   OH2  992   5.423   6.466   2.264
  343TIP3    H1  993   5.456   6.555   2.267
  343TIP3    H2  994   5.470   6.420   2.334
  344TIP3   OH2  995   1.251   6.053   1.997
  344TIP3    H1  996   1.218   5.985   1.939
  344TIP3    H2  997   1.307   6.006   2.059
  345TIP3   OH2  998   0.715   1.153   0.663
  345TIP3    H1  999   0.676   1.228   0.709
  345TIP3    H2 1000   0.641   1.108   0.622
  346TIP3   OH2 1001   6.262   1.911   5.153
  346TIP3    H1 1002   6.294   1.861   5.078
  346TIP3    H2 1003   6.211   1.983   5.114
  347TIP3   OH2 1004   0.485   3.762   1.824
  347TIP3    H1 1005   0.566   3.803   1.794
  347TIP3    H2 1006   0.418   3.796   1.765
  348TIP3   OH2 1007   6.955   0.017   1.032
  348TIP3    H1 1008   6.930   0.062   1.113
  348TIP3    H2 1009   7.050   0.024   1.030
  349TIP3   OH2 1010   4.850   5.414   2.468
  349TIP3    H1 1011   4.771   5.467   2.463
  349TIP3    H2 1012   4.866   5.403   2.562
  350TIP3   OH2 1013   6.736   0.184   0.567
  350TIP3    H1 1014   6.669   0.134   0.613
  350TIP3    H2 1015   6.765   0.250   0.631
  351TIP3   OH2 1016   7.017   4.544  -0.033
  351TIP3    H1 1017   6.951   4.601   0.007
  351TIP3    H2 1018   7.015   4.464   0.019
  352TIP3   OH2 1019   3.351   5.167   4.305
  352TIP3    H1 1020   3.309   5.253   4.313
  352TIP3    H2 1021   3.304   5.112   4.367
  353TIP3   OH2 1022   6.562   4.281   0.929
  353TIP3    H1 1023   6.570   4.363   0.879
  353TIP3    H2 1024   6.522   4.307   1.012
  354TIP3   OH2 1025   6.618   5.074   5.279
  354TIP3    H1 1026   6.524   5.077   5.295
  354TIP3    H2 1027   6.627   5.020   5.200
  355TIP3   OH2 1028   0.125   1.920   3.102
  355TIP3    H1 1029   0.203   1.900   3.050
  355TIP3    H2 1030   0.060   1.947   3.038
  356TIP3   OH2 1031   3.483   2.072   1.239
  356TIP3    H1 1032   3.470   2.046   1.148
  356TIP3    H2 1033   3.398   2.105   1.267
  357TIP3   OH2 1034   0.419   4.261   4.361
  357TIP3    H1 1035   0.507   4.235   4.389
  357TIP3    H2 1036   0.432   4.306   4.277
  358TIP3   OH2 1037   1.102   1.650   4.596
  358TIP3    H1 1038   1.102   1.554   4.590
  358TIP3    H2 1039   1.018   1.671   4.636
  359TIP3   OH2 1040   0.978   6.347   0.525
  359TIP3    H1 1041   0.904   6.385   0.571
  359TIP3    H2 1042   1.034   6.422   0.504
  360TIP3   OH2 1043   0.581   6.359   3.580
  360TIP3    H1 1044   0.552   6.399   3.498
  360TIP3    H2 1045   0.570   6.265   3.566
  361TIP3   OH2 1046   4.794   4.273   2.524
  361TIP3    H1 1047   4.822   4.354   2.480
  361TIP3    H2 1048   4.730   4.235   2.464
  362TIP3   OH2 1049   3.823   1.889   3.122
  362TIP3    H1 1050   3.808   1.976   3.159
  362TIP3    H2 1051   3.784   1.894   3.035
  363TIP3   OH2 1052   4.204   5.404   3.410
  363TIP3    H1 1053   4.256   5.406   3.330
  363TIP3    H2 1054   4.133   5.343   3.392
  364TIP3   OH2 1055   6.997   6.414   1.803
  364TIP3    H1 1056   7.089   6.427   1.779
  364TIP3    H2 1057   6.980   6.322   1.785
  365TIP3   OH2 1058   4.026   1.705   1.355
  365TIP3    H1 1059   3.960   1.681   1.290
  365TIP3    H2 1060   4.028   1.801   1.354
  366TIP3   OH2 1061   5.129   2.807   3.403
  366TIP3    H1 1062   5.113   2.715   3.383
  366TIP3    H2 1063   5.126   2.812   3.498
  367TIP3   OH2 1064   5.209   0.081   3.625
  367TIP3    H1 1065   5.144   0.096   3.694
  367TIP3    H2 1066   5.293   0.092   3.669
  368TIP3   OH2 1067   0.704   1.258   1.398
  368TIP3    H1 1068   0.751   1.240   1.317
  368TIP3    H2 1069   0.711   1.176   1.448
  369TIP3   OH2 1070   3.433   0.776   1.842
  369TIP3    H1 1071   3.472   0.692   1.867
  369TIP3    H2 1072   3.482   0.804   1.765
  370TIP3   OH2 1073   2.770   5.757   5.026
  370TIP3    H1 1074   2.765   5.852   5.034
  370TIP3    H2 1075   2.683   5.726   5.052
  371TIP3   OH2 1076   0.037   4.353   2.967
  371TIP3    H1 1077   0.094   4.429   2.972
  371TIP3    H2 1078   0.078   4.296   2.902
  372TIP3   OH2 1079   2.160   2.672   0.037
  372TIP3    H1 1080   2.223   2.633  -0.023
  372TIP3    H2 1081   2.214   2.723   0.098
  373TIP3   OH2 1082   2.556   1.716   3.772
  373TIP3    H1 1083   2.525   1.806   3.782
  373TIP3    H2 1084   2.487   1.672   3.721
  374TIP3   OH2 1085   3.330   0.009   4.664
  374TIP3    H1 1086   3.385   0.087   4.659
  374TIP3    H2 1087   3.302  -0.006   4.574
  375TIP3   OH2 1088   0.798   0.106   1.901
  375TIP3    H1 1089   0.811   0.023   1.947
  375TIP3    H2 1090   0.825   0.173   1.964
  376TIP3   OH2 1091   3.314   2.889   0.001
  376TIP3    H1 1092   3.264   2.827  -0.053
  376TIP3    H2 1093   3.376   2.833   0.049
  377TIP3   OH2 1094   2.113   4.512   2.503
  377TIP3    H1 1095   2.199   4.480   2.476
  377TIP3    H2 1096   2.122   4.529   2.597
  378TIP3   OH2 1097   0.057   3.426   4.547
  378TIP3    H1 1098  -0.001   3.371   4.600
  378TIP3    H2 1099   0.119   3.463   4.610
  379TIP3   OH2 1100   6.511   4.512   5.039
  379TIP3    H1 1101   6.549   4.526   5.126
  379TIP3    H2 1102   6.462   4.592   5.021
  380TIP3   OH2 1103   6.910   3.711   2.997
  380TIP3    H1 1104   6.868   3.668   3.072
  380TIP3    H2 1105   7.001   3.723   3.024
  381TIP3   OH2 1106   3.479   5.839   3.845
  381TIP3    H1 1107   3.541   5.912   3.847
  381TIP3    H2 1108   3.406   5.871   3.791
  382TIP3   OH2 1109   2.236   3.451   4.215
  382TIP3    H1 1110   2.327   3.452   4.244
  382TIP3    H2 1111   2.190   3.506   4.278
  383TIP3   OH2 1112   0.780   3.712   0.285
  383TIP3    H1 1113   0.723   3.783   0.314
  383TIP3    H2 1114   0.780   3.720   0.189
  384TIP3   OH2 1115   5.986   2.302   3.670
  384TIP3    H1 1116   5.943   2.314   3.585
  384TIP3    H2 1117   5.917   2.272   3.729
  385TIP3   OH2 1118   3.832   0.315   3.890
  385TIP3    H1 1119   3.821   0.222   3.869
  385TIP3    H2 1120   3.860   0.355   3.808
  386TIP3   OH2 1121   5.442   4.135   2.819
  386TIP3    H1 1122   5.378   4.084   2.867
  386TIP3    H2 1123   5.460   4.084   2.740
  387TIP3   OH2 1124   0.742   5.028   1.824
  387TIP3    H1 1125   0.734   5.081   1.744
  387TIP3    H2 1126   0.835   5.005   1.828
  388TIP3   OH2 1127   5.122   4.772   1.130
  388TIP3    H1 1128   5.188   4.711   1.096
  388TIP3    H2 1129   5.169   4.824   1.195
  389TIP3   OH2 1130   2.592   0.327   2.439
  389TIP3    H1 1131   2.615   0.397   2.378
  389TIP3    H2 1132   2.604   0.247   2.389
  390TIP3   OH2 1133   6.635   4.774   3.917
  390TIP3    H1 1134   6.718   4.817   3.937
  390TIP3    H2 1135   6.568   4.835   3.949
  391TIP3   OH2 1136   2.609   1.621   0.739
  391TIP3    H1 1137   2.642   1.552   0.682
  391TIP3    H2 1138   2.664   1.615   0.818
  392TIP3   OH2 1139   1.920   5.569   3.100
  392TIP3    H1 1140   1.851   5.626   3.066
  392TIP3    H2 1141   1.949   5.519   3.024
  393TIP3   OH2 1142   3.259   4.841   3.648
  393TIP3    H1 1143   3.244   4.898   3.573
  393TIP3    H2 1144   3.224   4.889   3.723
  394TIP3   OH2 1145   0.411   4.866   5.804
  394TIP3    H1 1146   0.423   4.775   5.776
  394TIP3    H2 1147   0.425   4.864   5.899
  395TIP3   OH2 1148   5.975   1.198   1.284
  395TIP3    H1 1149   5.923   1.119   1.269
  395TIP3    H2 1150   6.044   1.194   1.218
  396TIP3   OH2 1151   1.739   4.462   5.632
  396TIP3    H1 1152   1.794   4.538   5.648
  396TIP3    H2 1153   1.655   4.498   5.602
  397TIP3   OH2 1154   1.468   1.211   4.309
  397TIP3    H1 1155   1.476   1.217   4.404
  397TIP3    H2 1156   1.376   1.191   4.294
  398TIP3   OH2 1157   4.597   5.601   0.648
  398TIP3    H1 1158   4.611   5.641   0.734
  398TIP3    H2 1159   4.615   5.671   0.585
  399TIP3   OH2 1160   4.660   6.132   1.821
  399TIP3    H1 1161   4.724   6.062   1.811
  399TIP3    H2 1162   4.626   6.147   1.732
  400TIP3   OH2 1163   4.097   1.584   3.285
  400TIP3    H1 1164   4.065   1.656   3.230
  400TIP3    H2 1165   4.057   1.506   3.246
  401TIP3   OH2 1166   4.492   1.206   4.783
  401TIP3    H1 1167   4.574   1.197   4.734
  401TIP3    H2 1168   4.476   1.120   4.821
  402TIP3   OH2 1169   1.330   4.927   0.956
  402TIP3    H1 1170   1.413   4.973   0.945
  402TIP3    H2 1171   1.327   4.865   0.884
  403TIP3   OH2 1172   0.286   1.976   1.529
  403TIP3    H1 1173   0.347   1.928   1.473
  403TIP3    H2 1174   0.332   1.985   1.612
  404TIP3   OH2 1175   0.472   2.294   3.343
  404TIP3    H1 1176   0.555   2.316   3.301
  404TIP3    H2 1177   0.486   2.314   3.435
  405TIP3   OH2 1178   6.719   3.352   1.284
  405TIP3    H1 1179   6.648   3.296   1.253
  405TIP3    H2 1180   6.792   3.291   1.297
  406TIP3   OH2 1181   0.752   2.670   4.675
  406TIP3    H1 1182   0.846   2.657   4.688
  406TIP3    H2 1183   0.720   2.703   4.759
  407TIP3   OH2 1184   3.239   5.937   3.701
  407TIP3    H1 1185   3.170   5.911   3.762
  407TIP3    H2 1186   3.196   5.997   3.641
  408TIP3   OH2 1187   3.829   3.483   3.411
  408TIP3    H1 1188   3.763   3.449   3.472
  408TIP3    H2 1189   3.829   3.578   3.427
  409TIP3   OH2 1190   4.189   0.211   0.743
  409TIP3    H1 1191   4.100   0.176   0.737
  409TIP3    H2 1192   4.177   0.305   0.756
  410TIP3   OH2 1193   4.425   0.704   4.983
  410TIP3    H1 1194   4.492   0.726   5.048
  410TIP3    H2 1195   4.380   0.628   5.019
  411TIP3   OH2 1196   1.049   6.631   0.015
  411TIP3    H1 1197   1.049   6.585   0.099
  411TIP3    H2 1198   0.988   6.581  -0.040
  412TIP3   OH2 1199   0.220   5.022   3.861
  412TIP3    H1 1200   0.177   4.983   3.937
  412TIP3    H2 1201   0.289   5.077   3.898
  413TIP3   OH2 1202   1.524   3.361   2.470
  413TIP3    H1 1203   1.516   3.310   2.389
  413TIP3    H2 1204   1.617   3.353   2.494
  414TIP3   OH2 1205   3.033   1.758   1.024
  414TIP3    H1 1206   3.097   1.733   0.957
  414TIP3    H2 1207   3.029   1.682   1.082
  415TIP3   OH2 1208   5.645   2.398   1.663
  415TIP3    H1 1209   5.623   2.321   1.611
  415TIP3    H2 1210   5.731   2.379   1.700
  416TIP3   OH2 1211   6.082   2.672   0.936
  416TIP3    H1 1212   6.058   2.608   0.869
  416TIP3    H2 1213   6.011   2.736   0.936
  417TIP3   OH2 1214   1.920   2.706   0.187
  417TIP3    H1 1215   1.929   2.618   0.223
  417TIP3    H2 1216   1.998   2.719   0.134
  418TIP3   OH2 1217   3.370   1.367   3.161
  418TIP3    H1 1218   3.308   1.434   3.130
  418TIP3    H2 1219   3.330   1.284   3.136
  419TIP3   OH2 1220   6.854   5.202   0.198
  419TIP3    H1 1221   6.780   5.141   0.202
  419TIP3    H2 1222   6.926   5.155   0.240
  420TIP3   OH2 1223   5.917   1.124   2.598
  420TIP3    H1 1224   6.004   1.164   2.585
  420TIP3    H2 1225   5.924   1.081   2.683
  421TIP3   OH2 1226   4.409   2.411   2.915
  421TIP3    H1 1227   4.407   2.493   2.964
  421TIP3    H2 1228   4.321   2.376   2.924
  422TIP3   OH2 1229   1.096   5.896   0.807
  422TIP3    H1 1230   1.123   5.806   0.829
  422TIP3    H2 1231   1.102   5.899   0.712
  423TIP3   OH2 1232   0.225   1.048   2.503
  423TIP3    H1 1233   0.211   1.121   2.444
  423TIP3    H2 1234   0.136   1.018   2.525
  424TIP3   OH2 1235   5.748   5.959   0.375
  424TIP3    H1 1236   5.738   6.048   0.342
  424TIP3    H2 1237   5.760   5.906   0.297
  425TIP3   OH2 1238   0.322   1.294   3.922
  425TIP3    H1 1239   0.407   1.263   3.953
  425TIP3    H2 1240   0.312   1.381   3.963
  426TIP3   OH2 1241   4.323   5.766   4.261
  426TIP3    H1 1242   4.388   5.717   4.212
  426TIP3    H2 1243   4.240   5.723   4.244
  427TIP3   OH2 1244   7.077   3.909   2.574
  427TIP3    H1 1245   7.007   3.952   2.624
  427TIP3    H2 1246   7.069   3.945   2.486
  428TIP3   OH2 1247   2.440   5.423   2.503
  428TIP3    H1 1248   2.354   5.456   2.478
  428TIP3    H2 1249   2.429   5.328   2.509
  429TIP3   OH2 1250   4.369   6.479   2.956
  429TIP3    H1 1251   4.399   6.537   3.027
  429TIP3    H2 1252   4.318   6.412   3.000
  430TIP3   OH2 1253   0.012   4.337   0.226
  430TIP3    H1 1254   0.070   4.400   0.269
  430TIP3    H2 1255   0.071   4.268   0.195
  431TIP3   OH2 1256   0.441   2.962   0.928
  431TIP3    H1 1257   0.462   3.009   1.009
  431TIP3    H2 1258   0.394   3.026   0.875
  432TIP3   OH2 1259   6.758   0.225   3.545
  432TIP3    H1 1260   6.814   0.176   3.485
  432TIP3    H2 1261   6.811   0.237   3.624
  433TIP3   OH2 1262   4.991   0.980   0.633
  433TIP3    H1 1263   4.917   0.920   0.637
  433TIP3    H2 1264   5.018   0.979   0.542
  434TIP3   OH2 1265   6.012   2.400   0.519
  434TIP3    H1 1266   6.096   2.388   0.475
  434TIP3    H2 1267   5.968   2.316   0.510
  435TIP3   OH2 1268   1.486   4.731   4.617
  435TIP3    H1 1269   1.413   4.788   4.593
  435TIP3    H2 1270   1.521   4.768   4.698
  436TIP3   OH2 1271   4.825   4.297   5.245
  436TIP3    H1 1272   4.816   4.391   5.262
  436TIP3    H2 1273   4.766   4.279   5.172
  437TIP3   OH2 1274   0.907   1.264   5.268
  437TIP3    H1 1275   0.888   1.331   5.334
  437TIP3    H2 1276   0.873   1.301   5.186
  438TIP3   OH2 1277   0.162   6.710   0.651
  438TIP3    H1 1278   0.196   6.788   0.608
  438TIP3    H2 1279   0.149   6.647   0.580
  439TIP3   OH2 1280   6.567   6.654   4.593
  439TIP3    H1 1281   6.506   6.581   4.603
  439TIP3    H2 1282   6.515   6.722   4.549
  440TIP3   OH2 1283   6.228   5.895   4.390
  440TIP3    H1 1284   6.310   5.862   4.428
  440TIP3    H2 1285   6.252   5.921   4.301
  441TIP3   OH2 1286   6.243   3.257   5.154
  441TIP3    H1 1287   6.264   3.337   5.203
  441TIP3    H2 1288   6.327   3.227   5.120
  442TIP3   OH2 1289   7.155   6.274   5.695
  442TIP3    H1 1290   7.108   6.347   5.656
  442TIP3    H2 1291   7.097   6.198   5.684
  443TIP3   OH2 1292   4.949   3.370   4.572
  443TIP3    H1 1293   4.926   3.287   4.613
  443TIP3    H2 1294   5.009   3.346   4.501
  444TIP3   OH2 1295   2.931   4.807   2.850
  444TIP3    H1 1296   2.873   4.741   2.812
  444TIP3    H2 1297   2.871   4.869   2.891
  445TIP3   OH2 1298   6.974   0.631   1.906
  445TIP3    H1 1299   6.979   0.536   1.918
  445TIP3    H2 1300   6.941   0.642   1.817
  446TIP3   OH2 1301   0.556   0.679   5.145
  446TIP3    H1 1302   0.476   0.627   5.139
  446TIP3    H2 1303   0.550   0.740   5.071
  447TIP3   OH2 1304   5.362   2.006   2.874
  447TIP3    H1 1305   5.406   1.925   2.901
  447TIP3    H2 1306   5.297   2.021   2.943
  448TIP3   OH2 1307   0.056   5.667   3.908
  448TIP3    H1 1308   0.034   5.741   3.853
  448TIP3    H2 1309   0.006   5.594   3.871
  449TIP3   OH2 1310   2.833   0.259   5.708
  449TIP3    H1 1311   2.876   0.187   5.755
  449TIP3    H2 1312   2.780   0.303   5.774
  450TIP3   OH2 1313   6.232   2.687   4.118
  450TIP3    H1 1314   6.174   2.727   4.183
  450TIP3    H2 1315   6.266   2.608   4.160
  451TIP3   OH2 1316   2.940   3.567   4.537
  451TIP3    H1 1317   3.017   3.623   4.526
  451TIP3    H2 1318   2.913   3.581   4.628
  452TIP3   OH2 1319   6.680   5.614   5.407
  452TIP3    H1 1320   6.650   5.651   5.490
  452TIP3    H2 1321   6.771   5.589   5.424
  453TIP3   OH2 1322   0.685   1.782   5.462
  453TIP3    H1 1323   0.621   1.849   5.484
  453TIP3    H2 1324   0.657   1.748   5.377
  454TIP3   OH2 1325   4.160   5.823   3.894
  454TIP3    H1 1326   4.161   5.911   3.856
  454TIP3    H2 1327   4.128   5.835   3.983
  455TIP3   OH2 1328   7.041   6.650   0.439
  455TIP3    H1 1329   7.055   6.569   0.390
  455TIP3    H2 1330   7.127   6.691   0.443
  456TIP3   OH2 1331   6.464   0.271   2.994
  456TIP3    H1 1332   6.382   0.296   2.952
  456TIP3    H2 1333   6.464   0.176   2.991
  457TIP3   OH2 1334   0.812   2.478   5.897
  457TIP3    H1 1335   0.750   2.551   5.892
  457TIP3    H2 1336   0.886   2.505   5.842
  458TIP3   OH2 1337   4.412   3.857   1.374
  458TIP3    H1 1338   4.464   3.777   1.382
  458TIP3    H2 1339   4.475   3.924   1.346
  459TIP3   OH2 1340   6.285   0.400   4.207
  459TIP3    H1 1341   6.373   0.431   4.186
  459TIP3    H2 1342   6.252   0.463   4.271
  460TIP3   OH2 1343   1.746   3.244   4.652
  460TIP3    H1 1344   1.757   3.155   4.618
  460TIP3    H2 1345   1.810   3.252   4.722
  461TIP3   OH2 1346   5.992   1.351   5.320
  461TIP3    H1 1347   6.078   1.312   5.334
  461TIP3    H2 1348   6.008   1.422   5.258
  462TIP3   OH2 1349   3.816   6.106   4.032
  462TIP3    H1 1350   3.858   6.026   4.063
  462TIP3    H2 1351   3.888   6.170   4.025
  463TIP3   OH2 1352   6.886   0.716   2.262
  463TIP3    H1 1353   6.813   0.711   2.200
  463TIP3    H2 1354   6.963   0.730   2.207
  464TIP3   OH2 1355   0.844   6.466   3.434
  464TIP3    H1 1356   0.853   6.371   3.446
  464TIP3    H2 1357   0.754   6.478   3.404
  465TIP3   OH2 1358   6.270   6.121   3.470
  465TIP3    H1 1359   6.178   6.097   3.462
  465TIP3    H2 1360   6.290   6.169   3.389
  466TIP3   OH2 1361   4.682   0.187   4.627
  466TIP3    H1 1362   4.682   0.120   4.696
  466TIP3    H2 1363   4.601   0.236   4.642
  467TIP3   OH2 1364   5.498   2.608   0.304
  467TIP3    H1 1365   5.439   2.607   0.379
  467TIP3    H2 1366   5.493   2.698   0.271
  468TIP3   OH2 1367   0.393   6.652   4.732
  468TIP3    H1 1368   0.306   6.678   4.761
  468TIP3    H2 1369   0.438   6.626   4.812
  469TIP3   OH2 1370   4.401   2.122   3.612
  469TIP3    H1 1371   4.314   2.129   3.574
  469TIP3    H2 1372   4.421   2.210   3.644
  470TIP3   OH2 1373   2.090   5.139   3.969
  470TIP3    H1 1374   2.146   5.191   4.027
  470TIP3    H2 1375   2.124   5.156   3.881
  471TIP3   OH2 1376   5.725   1.621   1.320
  471TIP3    H1 1377   5.686   1.581   1.398
  471TIP3    H2 1378   5.798   1.563   1.298
  472TIP3   OH2 1379   6.957   4.713   5.843
  472TIP3    H1 1380   6.871   4.683   5.873
  472TIP3    H2 1381   7.011   4.715   5.922
  473TIP3   OH2 1382   5.812   2.875   0.548
  473TIP3    H1 1383   5.826   2.781   0.531
  473TIP3    H2 1384   5.888   2.901   0.600
  474TIP3   OH2 1385   6.639   2.204   5.871
  474TIP3    H1 1386   6.687   2.159   5.802
  474TIP3    H2 1387   6.674   2.293   5.872
  475TIP3   OH2 1388   4.792   2.953   0.722
  475TIP3    H1 1389   4.859   2.992   0.778
  475TIP3    H2 1390   4.723   3.018   0.717
  476TIP3   OH2 1391   6.694   0.813   4.186
  476TIP3    H1 1392   6.653   0.811   4.273
  476TIP3    H2 1393   6.781   0.851   4.201
  477TIP3   OH2 1394   6.779   4.487   2.567
  477TIP3    H1 1395   6.735   4.422   2.513
  477TIP3    H2 1396   6.850   4.439   2.610
  478TIP3   OH2 1397   2.544   6.154   3.495
  478TIP3    H1 1398   2.503   6.070   3.513
  478TIP3    H2 1399   2.474   6.218   3.502
  479TIP3   OH2 1400   2.481   4.829   5.474
  479TIP3    H1 1401   2.412   4.790   5.421
  479TIP3    H2 1402   2.550   4.850   5.412
  480TIP3   OH2 1403   7.087   0.089   4.950
  480TIP3    H1 1404   7.077   0.177   4.985
  480TIP3    H2 1405   7.171   0.091   4.903
  481TIP3   OH2 1406   4.417   0.563   3.740
  481TIP3    H1 1407   4.423   0.490   3.677
  481TIP3    H2 1408   4.505   0.572   3.775
  482TIP3   OH2 1409   0.282   3.944   2.292
  482TIP3    H1 1410   0.323   3.944   2.205
  482TIP3    H2 1411   0.264   3.852   2.310
  483TIP3   OH2 1412   6.276   4.579   3.472
  483TIP3    H1 1413   6.202   4.616   3.521
  483TIP3    H2 1414   6.239   4.505   3.425
  484TIP3   OH2 1415   5.615   4.092   4.855
  484TIP3    H1 1416   5.662   4.068   4.935
  484TIP3    H2 1417   5.673   4.064   4.784
  485TIP3   OH2 1418   3.951   1.250   5.653
  485TIP3    H1 1419   4.003   1.301   5.591
  485TIP3    H2 1420   3.920   1.175   5.603
  486TIP3   OH2 1421   7.067   5.293   5.671
  486TIP3    H1 1422   7.025   5.224   5.722
  486TIP3    H2 1423   7.101   5.248   5.594
  487TIP3   OH2 1424   3.199   6.531   3.437
  487TIP3    H1 1425   3.211   6.455   3.494
  487TIP3    H2 1426   3.108   6.557   3.450
  488TIP3   OH2 1427   3.324   1.917   3.804
  488TIP3    H1 1428   3.334   1.887   3.713
  488TIP3    H2 1429   3.248   1.975   3.801
  489TIP3   OH2 1430   5.246   2.756   5.004
  489TIP3    H1 1431   5.312   2.777   4.938
  489TIP3    H2 1432   5.200   2.838   5.020
  490TIP3   OH2 1433   5.386   1.116   0.918
  490TIP3    H1 1434   5.391   1.031   0.875
  490TIP3    H2 1435   5.429   1.102   1.003
  491TIP3   OH2 1436   5.658   0.785   1.366
  491TIP3    H1 1437   5.571   0.747   1.371
  491TIP3    H2 1438   5.716   0.719   1.404
  492TIP3   OH2 1439   7.112   1.950   0.047
  492TIP3    H1 1440   7.103   2.005   0.124
  492TIP3    H2 1441   7.067   1.998  -0.023
  493TIP3   OH2 1442   1.741   1.094   4.704
  493TIP3    H1 1443   1.796   1.130   4.774
  493TIP3    H2 1444   1.675   1.042   4.749
  494TIP3   OH2 1445   3.872   1.296   1.002
  494TIP3    H1 1446   3.868   1.328   0.912
  494TIP3    H2 1447   3.869   1.375   1.056
  495TIP3   OH2 1448   2.336   2.138   0.683
  495TIP3    H1 1449   2.311   2.230   0.677
  495TIP3    H2 1450   2.377   2.130   0.769
  496TIP3   OH2 1451   4.929   5.063   2.757
  496TIP3    H1 1452   4.918   5.006   2.681
  496TIP3    H2 1453   4.988   5.133   2.727
  497TIP3   OH2 1454   0.559   5.189   3.061
  497TIP3    H1 1455   0.477   5.189   3.109
  497TIP3    H2 1456   0.598   5.275   3.080
  498TIP3   OH2 1457   0.897   5.702   3.870
  498TIP3    H1 1458   0.810   5.720   3.906
  498TIP3    H2 1459   0.939   5.788   3.865
  499TIP3   OH2 1460   5.180   0.364   5.347
  499TIP3    H1 1461   5.260   0.385   5.298
  499TIP3    H2 1462   5.189   0.272   5.371
  500TIP3   OH2 1463   1.873   2.498   4.735
  500TIP3    H1 1464   1.880   2.427   4.798
  500TIP3    H2 1465   1.831   2.569   4.783
  501TIP3   OH2 1466   3.626   0.945   4.496
  501TIP3    H1 1467   3.638   0.928   4.589
  501TIP3    H2 1468   3.568   1.022   4.493
  502TIP3   OH2 1469   1.345   3.585   2.401
  502TIP3    H1 1470   1.390   3.518   2.453
  502TIP3    H2 1471   1.371   3.567   2.311
  503TIP3   OH2 1472   1.963   4.016   2.299
  503TIP3    H1 1473   1.894   3.949   2.310
  503TIP3    H2 1474   1.954   4.045   2.208
  504TIP3   OH2 1475   5.573   3.468   2.612
  504TIP3    H1 1476   5.597   3.417   2.535
  504TIP3    H2 1477   5.539   3.550   2.578
  505TIP3   OH2 1478   3.482   1.319   2.848
  505TIP3    H1 1479   3.448   1.288   2.764
  505TIP3    H2 1480   3.461   1.249   2.910
  506TIP3   OH2 1481   6.193   1.881   0.148
  506TIP3    H1 1482   6.206   1.949   0.213
  506TIP3    H2 1483   6.099   1.863   0.150
  507TIP3   OH2 1484   1.711   3.171   2.007
  507TIP3    H1 1485   1.635   3.202   1.957
  507TIP3    H2 1486   1.702   3.076   2.008
  508TIP3   OH2 1487   0.907   1.063   3.645
  508TIP3    H1 1488   0.985   1.074   3.591
  508TIP3    H2 1489   0.835   1.094   3.591
  509TIP3   OH2 1490   2.791   6.425   0.560
  509TIP3    H1 1491   2.713   6.466   0.524
  509TIP3    H2 1492   2.784   6.437   0.654
  510TIP3   OH2 1493   4.342   6.394   0.247
  510TIP3    H1 1494   4.422   6.432   0.209
  510TIP3    H2 1495   4.341   6.426   0.337
  511TIP3   OH2 1496   4.171   5.734   3.162
  511TIP3    H1 1497   4.113   5.726   3.237
  511TIP3    H2 1498   4.257   5.708   3.195
  512TIP3   OH2 1499   3.266   3.436   4.421
  512TIP3    H1 1500   3.181   3.463   4.387
  512TIP3    H2 1501   3.250   3.351   4.462
  513TIP3   OH2 1502   1.263   3.846   4.067
  513TIP3    H1 1503   1.256   3.928   4.018
  513TIP3    H2 1504   1.285   3.781   4.000
  514TIP3   OH2 1505   3.973   3.090   4.797
  514TIP3    H1 1506   4.008   3.173   4.828
  514TIP3    H2 1507   4.034   3.063   4.729
  515TIP3   OH2 1508   6.880   4.721   1.792
  515TIP3    H1 1509   6.858   4.655   1.858
  515TIP3    H2 1510   6.814   4.790   1.805
  516TIP3   OH2 1511   5.356   0.218   2.497
  516TIP3    H1 1512   5.294   0.291   2.490
  516TIP3    H2 1513   5.395   0.227   2.584
  517TIP3   OH2 1514   0.316   3.463   0.463
  517TIP3    H1 1515   0.397   3.429   0.500
  517TIP3    H2 1516   0.292   3.399   0.396
  518TIP3   OH2 1517   6.684   6.072   2.333
  518TIP3    H1 1518   6.695   6.091   2.240
  518TIP3    H2 1519   6.648   5.983   2.335
  519TIP3   OH2 1520   6.000   1.423   3.728
  519TIP3    H1 1521   6.032   1.334   3.713
  519TIP3    H2 1522   5.918   1.410   3.776
  520TIP3   OH2 1523   0.212   1.233   3.090
  520TIP3    H1 1524   0.256   1.159   3.130
  520TIP3    H2 1525   0.244   1.235   3.000
  521TIP3   OH2 1526   6.742   5.738   1.725
  521TIP3    H1 1527   6.736   5.747   1.630
  521TIP3    H2 1528   6.825   5.692   1.740
  522TIP3   OH2 1529   5.987   2.479   2.373
  522TIP3    H1 1530   5.988   2.404   2.431
  522TIP3    H2 1531   5.968   2.443   2.287
  523TIP3   OH2 1532   5.591   2.174   5.444
  523TIP3    H1 1533   5.678   2.135   5.435
  523TIP3    H2 1534   5.591   2.214   5.531
  524TIP3   OH2 1535   2.257   6.121   0.575
  524TIP3    H1 1536   2.182   6.101   0.520
  524TIP3    H2 1537   2.317   6.047   0.562
  525TIP3   OH2 1538   0.776   3.543   1.644
  525TIP3    H1 1539   0.782   3.456   1.605
  525TIP3    H2 1540   0.721   3.592   1.583
  526TIP3   OH2 1541   3.808   6.381   0.722
  526TIP3    H1 1542   3.902   6.362   0.724
  526TIP3    H2 1543   3.787   6.404   0.813
  527TIP3   OH2 1544   1.969   4.664   1.741
  527TIP3    H1 1545   1.906   4.724   1.703
  527TIP3    H2 1546   1.931   4.577   1.729
  528TIP3   OH2 1547   3.881   6.772   4.937
  528TIP3    H1 1548   3.976   6.763   4.943
  528TIP3    H2 1549   3.847   6.689   4.970
  529TIP3   OH2 1550   3.349   5.850   2.598
  529TIP3    H1 1551   3.396   5.867   2.680
  529TIP3    H2 1552   3.389   5.770   2.564
  530TIP3   OH2 1553   2.885   3.366   0.694
  530TIP3    H1 1554   2.832   3.434   0.734
  530TIP3    H2 1555   2.825   3.291   0.686
  531TIP3   OH2 1556   1.884   1.548   0.163
  531TIP3    H1 1557   1.825   1.584   0.097
  531TIP3    H2 1558   1.874   1.607   0.238
  532TIP3   OH2 1559   6.504   4.198   5.109
  532TIP3    H1 1560   6.443   4.215   5.182
  532TIP3    H2 1561   6.537   4.284   5.085
  533TIP3   OH2 1562   3.930   2.566   3.182
  533TIP3    H1 1563   3.939   2.654   3.218
  533TIP3    H2 1564   3.842   2.564   3.144
  534TIP3   OH2 1565   3.141   5.277   4.610
  534TIP3    H1 1566   3.231   5.254   4.635
  534TIP3    H2 1567   3.088   5.203   4.638
  535TIP3   OH2 1568   2.840   3.143   4.564
  535TIP3    H1 1569   2.930   3.149   4.534
  535TIP3    H2 1570   2.838   3.192   4.646
  536TIP3   OH2 1571   0.348   0.118   1.009
  536TIP3    H1 1572   0.276   0.156   1.059
  536TIP3    H2 1573   0.407   0.192   0.993
  537TIP3   OH2 1574   3.527   1.185   5.761
  537TIP3    H1 1575   3.500   1.186   5.853
  537TIP3    H2 1576   3.532   1.277   5.737
  538TIP3   OH2 1577   7.022   5.988   4.104
  538TIP3    H1 1578   7.105   6.035   4.107
  538TIP3    H2 1579   6.976   6.015   4.184
  539TIP3   OH2 1580   3.088   3.303   2.725
  539TIP3    H1 1581   3.114   3.238   2.791
  539TIP3    H2 1582   3.133   3.383   2.752
  540TIP3   OH2 1583   5.389   0.981   3.744
  540TIP3    H1 1584   5.438   0.968   3.825
  540TIP3    H2 1585   5.330   0.905   3.738
  541TIP3   OH2 1586   7.093   6.020   0.578
  541TIP3    H1 1587   7.179   6.048   0.608
  541TIP3    H2 1588   7.069   5.949   0.637
  542TIP3   OH2 1589   5.321   5.366   1.141
  542TIP3    H1 1590   5.267   5.287   1.131
  542TIP3    H2 1591   5.335   5.374   1.235
  543TIP3   OH2 1592   2.544   2.502   0.171
  543TIP3    H1 1593   2.505   2.453   0.244
  543TIP3    H2 1594   2.628   2.532   0.204
  544TIP3   OH2 1595   1.542   4.364   5.120
  544TIP3    H1 1596   1.568   4.292   5.178
  544TIP3    H2 1597   1.560   4.330   5.032
  545TIP3   OH2 1598   2.733   3.636   2.236
  545TIP3    H1 1599   2.639   3.648   2.226
  545TIP3    H2 1600   2.769   3.725   2.233
  546TIP3   OH2 1601   4.950   6.265   3.554
  546TIP3    H1 1602   4.911   6.345   3.519
  546TIP3    H2 1603   4.880   6.201   3.550
  547TIP3   OH2 1604   5.461   3.127   5.585
  547TIP3    H1 1605   5.400   3.054   5.591
  547TIP3    H2 1606   5.531   3.096   5.528
  548TIP3   OH2 1607   1.083   1.584   0.760
  548TIP3    H1 1608   1.017   1.653   0.748
  548TIP3    H2 1609   1.035   1.502   0.743
  549TIP3   OH2 1610   5.173   6.192   4.100
  549TIP3    H1 1611   5.151   6.183   4.007
  549TIP3    H2 1612   5.209   6.107   4.124
  550TIP3   OH2 1613   0.873   2.510   2.011
  550TIP3    H1 1614   0.891   2.511   1.917
  550TIP3    H2 1615   0.786   2.549   2.018
  551TIP3   OH2 1616   0.164   3.788   2.880
  551TIP3    H1 1617   0.167   3.836   2.797
  551TIP3    H2 1618   0.254   3.761   2.895
  552TIP3   OH2 1619   2.748   1.501   2.494
  552TIP3    H1 1620   2.711   1.449   2.565
  552TIP3    H2 1621   2.723   1.591   2.514
  553TIP3   OH2 1622   0.480   5.234   0.700
  553TIP3    H1 1623   0.501   5.173   0.629
  553TIP3    H2 1624   0.557   5.233   0.756
  554TIP3   OH2 1625   5.745   0.640   4.899
  554TIP3    H1 1626   5.753   0.718   4.845
  554TIP3    H2 1627   5.706   0.574   4.841
  555TIP3   OH2 1628   4.856   0.273   3.110
  555TIP3    H1 1629   4.796   0.324   3.164
  555TIP3    H2 1630   4.808   0.255   3.029
  556TIP3   OH2 1631   2.139   2.620   4.260
  556TIP3    H1 1632   2.158   2.708   4.292
  556TIP3    H2 1633   2.220   2.592   4.217
  557TIP3   OH2 1634   3.354   4.981   2.854
  557TIP3    H1 1635   3.358   5.076   2.837
  557TIP3    H2 1636   3.353   4.974   2.949
  558TIP3   OH2 1637   2.965   6.790   3.181
  558TIP3    H1 1638   2.937   6.855   3.245
  558TIP3    H2 1639   3.059   6.782   3.193
  559TIP3   OH2 1640   6.675   1.140  -0.015
  559TIP3    H1 1641   6.694   1.056   0.027
  559TIP3    H2 1642   6.580   1.140  -0.026
  560TIP3   OH2 1643   6.206   6.067   0.198
  560TIP3    H1 1644   6.194   6.069   0.293
  560TIP3    H2 1645   6.117   6.065   0.162
  561TIP3   OH2 1646   2.203   4.174   3.308
  561TIP3    H1 1647   2.135   4.131   3.359
  561TIP3    H2 1648   2.229   4.110   3.242
  562TIP3   OH2 1649   6.354   1.038   1.039
  562TIP3    H1 1650   6.286   1.012   1.100
  562TIP3    H2 1651   6.434   1.000   1.074
  563TIP3   OH2 1652   0.537   4.326   3.477
  563TIP3    H1 1653   0.505   4.245   3.438
  563TIP3    H2 1654   0.502   4.324   3.567
  564TIP3   OH2 1655   0.643   4.742   5.534
  564TIP3    H1 1656   0.715   4.748   5.471
  564TIP3    H2 1657   0.677   4.782   5.614
  565TIP3   OH2 1658   3.325   1.672   3.896
  565TIP3    H1 1659   3.337   1.766   3.885
  565TIP3    H2 1660   3.235   1.656   3.869
  566TIP3   OH2 1661   3.496   5.567   2.222
  566TIP3    H1 1662   3.576   5.595   2.177
  566TIP3    H2 1663   3.426   5.585   2.158
  567TIP3   OH2 1664   2.245   2.835   4.399
  567TIP3    H1 1665   2.339   2.825   4.412
  567TIP3    H2 1666   2.230   2.929   4.393
  568TIP3   OH2 1667   4.533   3.197   2.512
  568TIP3    H1 1668   4.589   3.262   2.469
  568TIP3    H2 1669   4.557   3.114   2.471
  569TIP3   OH2 1670   6.921   6.020   4.351
  569TIP3    H1 1671   6.897   6.106   4.387
  569TIP3    H2 1672   6.850   5.962   4.381
  570TIP3   OH2 1673   6.952   0.339   2.200
  570TIP3    H1 1674   6.986   0.426   2.223
  570TIP3    H2 1675   6.979   0.326   2.109
  571TIP3   OH2 1676   3.166   3.228   1.909
  571TIP3    H1 1677   3.091   3.205   1.854
  571TIP3    H2 1678   3.143   3.313   1.946
  572TIP3   OH2 1679   2.358   4.701   3.118
  572TIP3    H1 1680   2.320   4.646   3.049
  572TIP3    H2 1681   2.328   4.790   3.097
  573TIP3   OH2 1682   1.161   0.892   5.228
  573TIP3    H1 1683   1.109   0.925   5.300
  573TIP3    H2 1684   1.152   0.797   5.234
  574TIP3   OH2 1685   4.825   0.828   0.030
  574TIP3    H1 1686   4.888   0.895   0.054
  574TIP3    H2 1687   4.826   0.827  -0.066
  575TIP3   OH2 1688   4.094   2.752   4.748
  575TIP3    H1 1689   4.133   2.707   4.823
  575TIP3    H2 1690   4.112   2.845   4.765
  576TIP3   OH2 1691   2.754   5.075   5.650
  576TIP3    H1 1692   2.742   5.000   5.708
  576TIP3    H2 1693   2.682   5.069   5.587
  577TIP3   OH2 1694   6.654   2.753   2.507
  577TIP3    H1 1695   6.594   2.798   2.448
  577TIP3    H2 1696   6.669   2.668   2.467
  578TIP3   OH2 1697   5.619   1.259   4.814
  578TIP3    H1 1698   5.679   1.311   4.760
  578TIP3    H2 1699   5.641   1.282   4.904
  579TIP3   OH2 1700   3.269   3.829   1.463
  579TIP3    H1 1701   3.230   3.899   1.515
  579TIP3    H2 1702   3.296   3.764   1.528
  580TIP3   OH2 1703   0.568   5.442   3.605
  580TIP3    H1 1704   0.511   5.478   3.537
  580TIP3    H2 1705   0.516   5.449   3.686
  581TIP3   OH2 1706   0.228   6.192   3.834
  581TIP3    H1 1707   0.270   6.225   3.914
  581TIP3    H2 1708   0.155   6.252   3.819
  582TIP3   OH2 1709   4.252   4.830   2.706
  582TIP3    H1 1710   4.195   4.902   2.676
  582TIP3    H2 1711   4.216   4.752   2.663
  583TIP3   OH2 1712   0.188   5.664   5.591
  583TIP3    H1 1713   0.193   5.754   5.622
  583TIP3    H2 1714   0.095   5.650   5.571
  584TIP3   OH2 1715   2.663   5.216   2.206
  584TIP3    H1 1716   2.662   5.223   2.111
  584TIP3    H2 1717   2.733   5.276   2.234
  585TIP3   OH2 1718   4.950   1.559   3.613
  585TIP3    H1 1719   4.915   1.527   3.530
  585TIP3    H2 1720   4.935   1.654   3.610
  586TIP3   OH2 1721   1.261   3.256   4.921
  586TIP3    H1 1722   1.337   3.221   4.874
  586TIP3    H2 1723   1.251   3.198   4.997
  587TIP3   OH2 1724   3.006   5.681   2.535
  587TIP3    H1 1725   3.046   5.693   2.621
  587TIP3    H2 1726   3.034   5.593   2.508
  588TIP3   OH2 1727   6.285   2.923   0.901
  588TIP3    H1 1728   6.256   2.851   0.845
  588TIP3    H2 1729   6.257   3.002   0.855
  589TIP3   OH2 1730   0.564   4.568   4.779
  589TIP3    H1 1731   0.606   4.612   4.705
  589TIP3    H2 1732   0.607   4.606   4.856
  590TIP3   OH2 1733   0.501   6.167   1.653
  590TIP3    H1 1734   0.591   6.138   1.665
  590TIP3    H2 1735   0.476   6.204   1.738
  591TIP3   OH2 1736   4.637   5.181   3.848
  591TIP3    H1 1737   4.548   5.158   3.819
  591TIP3    H2 1738   4.694   5.138   3.783
  592TIP3   OH2 1739   6.302   6.216   1.741
  592TIP3    H1 1740   6.369   6.147   1.740
  592TIP3    H2 1741   6.349   6.297   1.724
  593TIP3   OH2 1742   4.569   1.473   1.699
  593TIP3    H1 1743   4.504   1.450   1.766
  593TIP3    H2 1744   4.651   1.437   1.732
  594TIP3   OH2 1745   6.176   0.395   2.645
  594TIP3    H1 1746   6.118   0.325   2.675
  594TIP3    H2 1747   6.119   0.471   2.635
  595TIP3   OH2 1748   5.893   1.236   5.029
  595TIP3    H1 1749   5.913   1.224   5.122
  595TIP3    H2 1750   5.830   1.167   5.009
  596TIP3   OH2 1751   2.661   3.561   3.029
  596TIP3    H1 1752   2.753   3.587   3.028
  596TIP3    H2 1753   2.613   3.642   3.044
  597TIP3   OH2 1754   2.537   4.184   1.972
  597TIP3    H1 1755   2.483   4.111   1.942
  597TIP3    H2 1756   2.627   4.154   1.964
  598TIP3   OH2 1757   6.965   6.266   2.229
  598TIP3    H1 1758   6.939   6.272   2.321
  598TIP3    H2 1759   6.983   6.173   2.215
  599TIP3   OH2 1760   6.382   3.978   2.284
  599TIP3    H1 1761   6.378   3.896   2.333
  599TIP3    H2 1762   6.441   4.034   2.334
  600TIP3   OH2 1763   2.396   5.549   4.267
  600TIP3    H1 1764   2.422   5.561   4.176
  600TIP3    H2 1765   2.427   5.462   4.290
  601TIP3   OH2 1766   5.343   6.443   3.991
  601TIP3    H1 1767   5.299   6.462   3.908
  601TIP3    H2 1768   5.319   6.352   4.010
  602TIP3   OH2 1769   3.041   5.889   2.318
  602TIP3    H1 1770   2.966   5.892   2.259
  602TIP3    H2 1771   3.026   5.812   2.373
  603TIP3   OH2 1772   5.486   5.279   5.342
  603TIP3    H1 1773   5.514   5.288   5.433
  603TIP3    H2 1774   5.538   5.344   5.295
  604TIP3   OH2 1775   4.905   4.996   1.334
  604TIP3    H1 1776   4.955   5.078   1.332
  604TIP3    H2 1777   4.881   4.981   1.242
  605TIP3   OH2 1778   6.034   4.173   3.950
  605TIP3    H1 1779   5.966   4.106   3.951
  605TIP3    H2 1780   6.110   4.129   3.912
  606TIP3   OH2 1781   3.408   6.326   5.567
  606TIP3    H1 1782   3.495   6.308   5.603
  606TIP3    H2 1783   3.351   6.332   5.644
  607TIP3   OH2 1784   0.171   1.644   1.405
  607TIP3    H1 1785   0.208   1.673   1.321
  607TIP3    H2 1786   0.199   1.553   1.413
  608TIP3   OH2 1787   4.023   1.994   1.367
  608TIP3    H1 1788   4.044   2.070   1.421
  608TIP3    H2 1789   4.076   2.005   1.288
  609TIP3   OH2 1790   3.837   4.576   4.803
  609TIP3    H1 1791   3.768   4.624   4.848
  609TIP3    H2 1792   3.792   4.525   4.736
  610TIP3   OH2 1793   4.365   2.293   1.040
  610TIP3    H1 1794   4.388   2.286   0.948
  610TIP3    H2 1795   4.383   2.206   1.077
  611TIP3   OH2 1796   6.032   1.495   0.415
  611TIP3    H1 1797   5.958   1.488   0.475
  611TIP3    H2 1798   5.999   1.459   0.333
  612TIP3   OH2 1799   0.183   2.400   3.512
  612TIP3    H1 1800   0.231   2.483   3.516
  612TIP3    H2 1801   0.222   2.354   3.438
  613TIP3   OH2 1802   4.880   5.382   0.493
  613TIP3    H1 1803   4.819   5.395   0.566
  613TIP3    H2 1804   4.966   5.403   0.529
  614TIP3   OH2 1805   3.793   2.660   4.456
  614TIP3    H1 1806   3.842   2.743   4.454
  614TIP3    H2 1807   3.717   2.676   4.400
  615TIP3   OH2 1808   4.878   3.302   1.841
  615TIP3    H1 1809   4.951   3.318   1.901
  615TIP3    H2 1810   4.815   3.372   1.860
  616TIP3   OH2 1811   2.321   5.261   4.095
  616TIP3    H1 1812   2.266   5.243   4.172
  616TIP3    H2 1813   2.410   5.264   4.130
  617TIP3   OH2 1814   2.202   5.072   1.999
  617TIP3    H1 1815   2.233   5.118   1.921
  617TIP3    H2 1816   2.131   5.016   1.968
  618TIP3   OH2 1817   3.295   5.169   5.737
  618TIP3    H1 1818   3.272   5.255   5.702
  618TIP3    H2 1819   3.249   5.107   5.680
  619TIP3   OH2 1820   2.146   3.394   1.278
  619TIP3    H1 1821   2.208   3.324   1.293
  619TIP3    H2 1822   2.106   3.409   1.364
  620TIP3   OH2 1823   4.442   4.815   4.167
  620TIP3    H1 1824   4.365   4.788   4.116
  620TIP3    H2 1825   4.411   4.889   4.219
  621TIP3   OH2 1826   2.745   3.134   1.403
  621TIP3    H1 1827   2.810   3.134   1.473
  621TIP3    H2 1828   2.795   3.159   1.325
  622TIP3   OH2 1829   4.558   5.805   4.798
  622TIP3    H1 1830   4.516   5.890   4.786
  622TIP3    H2 1831   4.596   5.809   4.886
  623TIP3   OH2 1832   4.912   0.168   4.371
  623TIP3    H1 1833   4.961   0.094   4.407
  623TIP3    H2 1834   4.977   0.219   4.323
  624TIP3   OH2 1835   2.199   5.095   2.482
  624TIP3    H1 1836   2.286   5.056   2.475
  624TIP3    H2 1837   2.175   5.117   2.392
  625TIP3   OH2 1838   0.988   6.045   4.873
  625TIP3    H1 1839   0.903   6.019   4.908
  625TIP3    H2 1840   1.051   6.021   4.941
  626TIP3   OH2 1841   0.873   5.697   2.147
  626TIP3    H1 1842   0.937   5.722   2.081
  626TIP3    H2 1843   0.910   5.619   2.188
  627TIP3   OH2 1844   2.401   2.957   4.151
  627TIP3    H1 1845   2.455   2.949   4.072
  627TIP3    H2 1846   2.426   2.882   4.205
  628TIP3   OH2 1847   6.780   4.936   0.620
  628TIP3    H1 1848   6.699   4.892   0.649
  628TIP3    H2 1849   6.847   4.868   0.626
  629TIP3   OH2 1850   3.142   2.742   0.742
  629TIP3    H1 1851   3.073   2.807   0.729
  629TIP3    H2 1852   3.179   2.763   0.827
  630TIP3   OH2 1853   5.480   1.710   1.676
  630TIP3    H1 1854   5.398   1.749   1.707
  630TIP3    H2 1855   5.549   1.759   1.720
  631TIP3   OH2 1856   5.154   6.301   3.060
  631TIP3    H1 1857   5.230   6.305   3.118
  631TIP3    H2 1858   5.079   6.303   3.118
  632TIP3   OH2 1859   3.974   0.898   1.292
  632TIP3    H1 1860   3.943   0.989   1.296
  632TIP3    H2 1861   3.971   0.868   1.382
  633TIP3   OH2 1862   3.830   5.859   4.139
  633TIP3    H1 1863   3.746   5.853   4.094
  633TIP3    H2 1864   3.808   5.849   4.232
  634TIP3   OH2 1865   4.967   6.186   0.552
  634TIP3    H1 1866   4.943   6.245   0.624
  634TIP3    H2 1867   4.939   6.100   0.582
  635TIP3   OH2 1868   2.360   2.662   4.627
  635TIP3    H1 1869   2.282   2.688   4.578
  635TIP3    H2 1870   2.326   2.624   4.708
  636TIP3   OH2 1871   4.254   0.933   5.237
  636TIP3    H1 1872   4.278   0.999   5.302
  636TIP3    H2 1873   4.192   0.978   5.179
  637TIP3   OH2 1874   4.926   5.835   4.853
  637TIP3    H1 1875   4.877   5.876   4.924
  637TIP3    H2 1876   4.881   5.863   4.774
  638TIP3   OH2 1877   2.978   4.547   5.155
  638TIP3    H1 1878   2.922   4.621   5.134
  638TIP3    H2 1879   3.003   4.511   5.070
  639TIP3   OH2 1880   5.306   4.389   5.856
  639TIP3    H1 1881   5.354   4.373   5.938
  639TIP3    H2 1882   5.375   4.406   5.792
  640TIP3   OH2 1883   4.052   1.235   3.204
  640TIP3    H1 1884   4.061   1.254   3.111
  640TIP3    H2 1885   3.979   1.290   3.233
  641TIP3   OH2 1886   0.191   1.308   0.227
  641TIP3    H1 1887   0.125   1.347   0.169
  641TIP3    H2 1888   0.255   1.377   0.242
  642TIP3   OH2 1889   5.915   3.397   3.024
  642TIP3    H1 1890   5.904   3.321   2.967
  642TIP3    H2 1891   5.834   3.447   3.013
  643TIP3   OH2 1892   1.176   5.042   5.067
  643TIP3    H1 1893   1.120   5.081   5.135
  643TIP3    H2 1894   1.115   5.021   4.996
  644TIP3   OH2 1895   2.769   5.723   2.405
  644TIP3    H1 1896   2.857   5.706   2.439
  644TIP3    H2 1897   2.710   5.689   2.471
  645TIP3   OH2 1898   2.135   5.504   4.225
  645TIP3    H1 1899   2.132   5.515   4.320
  645TIP3    H2 1900   2.227   5.488   4.206
  646TIP3   OH2 1901   0.497   4.704   4.406
  646TIP3    H1 1902   0.518   4.748   4.323
  646TIP3    H2 1903   0.445   4.628   4.381
  647TIP3   OH2 1904   3.939   5.631   0.305
  647TIP3    H1 1905   3.975   5.616   0.393
  647TIP3    H2 1906   3.932   5.726   0.298
  648TIP3   OH2 1907   6.886   5.925   5.457
  648TIP3    H1 1908   6.810   5.979   5.434
  648TIP3    H2 1909   6.870   5.898   5.547
  649TIP3   OH2 1910   3.611   2.896   5.308
  649TIP3    H1 1911   3.546   2.949   5.262
  649TIP3    H2 1912   3.634   2.949   5.385
  650TIP3   OH2 1913   3.516   3.082   1.284
  650TIP3    H1 1914   3.470   3.165   1.288
  650TIP3    H2 1915   3.607   3.104   1.306
  651TIP3   OH2 1916   5.967   0.296   2.336
  651TIP3    H1 1917   5.914   0.375   2.326
  651TIP3    H2 1918   6.055   0.328   2.357
  652TIP3   OH2 1919   5.911   3.129   5.131
  652TIP3    H1 1920   5.977   3.073   5.090
  652TIP3    H2 1921   5.844   3.139   5.064
  653TIP3   OH2 1922   1.697   3.985   0.840
  653TIP3    H1 1923   1.776   4.039   0.837
  653TIP3    H2 1924   1.625   4.047   0.847
  654TIP3   OH2 1925   0.390   5.531   3.428
  654TIP3    H1 1926   0.309   5.579   3.446
  654TIP3    H2 1927   0.368   5.474   3.354
  655TIP3   OH2 1928   1.745   6.174   0.383
  655TIP3    H1 1929   1.726   6.159   0.475
  655TIP3    H2 1930   1.697   6.106   0.337
  656TIP3   OH2 1931   0.846   2.161   1.117
  656TIP3    H1 1932   0.833   2.157   1.212
  656TIP3    H2 1933   0.912   2.094   1.100
  657TIP3   OH2 1934   3.581   3.377   0.735
  657TIP3    H1 1935   3.601   3.347   0.647
  657TIP3    H2 1936   3.649   3.441   0.755
  658TIP3   OH2 1937   3.567   5.819   4.111
  658TIP3    H1 1938   3.509   5.843   4.183
  658TIP3    H2 1939   3.527   5.858   4.034
  659TIP3   OH2 1940   4.141   6.710   4.922
  659TIP3    H1 1941   4.156   6.628   4.968
  659TIP3    H2 1942   4.210   6.714   4.856
  660TIP3   OH2 1943   2.140   4.561   2.760
  660TIP3    H1 1944   2.229   4.598   2.765
  660TIP3    H2 1945   2.104   4.575   2.848
  661TIP3   OH2 1946   4.492   4.317   1.089
  661TIP3    H1 1947   4.424   4.306   1.023
  661TIP3    H2 1948   4.464   4.394   1.139
  662TIP3   OH2 1949   4.829   0.366   2.303
  662TIP3    H1 1950   4.921   0.354   2.277
  662TIP3    H2 1951   4.827   0.344   2.396
  663TIP3   OH2 1952   1.559   5.655   1.017
  663TIP3    H1 1953   1.598   5.581   0.971
  663TIP3    H2 1954   1.504   5.698   0.951
  664TIP3   OH2 1955   3.401   5.050   0.294
  664TIP3    H1 1956   3.400   5.072   0.201
  664TIP3    H2 1957   3.411   5.133   0.340
  665TIP3   OH2 1958   4.410   1.807   3.831
  665TIP3    H1 1959   4.448   1.743   3.772
  665TIP3    H2 1960   4.448   1.891   3.805
  666TIP3   OH2 1961   6.236   3.919   2.733
  666TIP3    H1 1962   6.144   3.929   2.708
  666TIP3    H2 1963   6.257   3.998   2.782
  667TIP3   OH2 1964   6.520   5.030   3.291
  667TIP3    H1 1965   6.457   4.963   3.319
  667TIP3    H2 1966   6.512   5.099   3.357
  668TIP3   OH2 1967   0.493   5.610   0.878
  668TIP3    H1 1968   0.542   5.650   0.950
  668TIP3    H2 1969   0.406   5.592   0.915
  669TIP3   OH2 1970   4.925   5.675   0.399
  669TIP3    H1 1971   5.016   5.694   0.422
  669TIP3    H2 1972   4.879   5.678   0.483
  670TIP3   OH2 1973   3.231   4.783   3.098
  670TIP3    H1 1974   3.188   4.866   3.075
  670TIP3    H2 1975   3.232   4.733   3.016
  671TIP3   OH2 1976   4.921   2.747   0.462
  671TIP3    H1 1977   4.867   2.807   0.410
  671TIP3    H2 1978   4.968   2.694   0.398
  672TIP3   OH2 1979   2.568   3.794   3.340
  672TIP3    H1 1980   2.576   3.817   3.247
  672TIP3    H2 1981   2.558   3.879   3.385
  673TIP3   OH2 1982   3.908   0.704   1.474
  673TIP3    H1 1983   3.858   0.623   1.480
  673TIP3    H2 1984   3.953   0.711   1.557
  674TIP3   OH2 1985   1.516   0.894   0.134
  674TIP3    H1 1986   1.611   0.892   0.138
  674TIP3    H2 1987   1.495   0.981   0.099
  675TIP3   OH2 1988   1.225   1.505   4.116
  675TIP3    H1 1989   1.206   1.561   4.191
  675TIP3    H2 1990   1.142   1.498   4.070
  676TIP3   OH2 1991   2.025   5.400   2.876
  676TIP3    H1 1992   2.105   5.382   2.926
  676TIP3    H2 1993   2.047   5.374   2.786
  677TIP3   OH2 1994   0.549   6.393   4.307
  677TIP3    H1 1995   0.492   6.436   4.243
  677TIP3    H2 1996   0.542   6.447   4.385
  678TIP3   OH2 1997   5.697   1.334   0.285
  678TIP3    H1 1998   5.658   1.310   0.201
  678TIP3    H2 1999   5.728   1.424   0.271
  679TIP3   OH2 2000   6.455   2.090   0.190
  679TIP3    H1 2001   6.369   2.089   0.232
  679TIP3    H2 2002   6.511   2.140   0.250
  680TIP3   OH2 2003   1.142   5.376   5.000
  680TIP3    H1 2004   1.129   5.422   4.917
  680TIP3    H2 2005   1.108   5.436   5.066
  681TIP3   OH2 2006   4.061   0.672   2.202
  681TIP3    H1 2007   4.120   0.658   2.276
  681TIP3    H2 2008   4.106   0.737   2.148
  682TIP3   OH2 2009   4.636   3.482   2.838
  682TIP3    H1 2010   4.609   3.516   2.753
  682TIP3    H2 2011   4.567   3.510   2.898
  683TIP3   OH2 2012   7.048   2.497   2.552
  683TIP3    H1 2013   7.077   2.557   2.483
  683TIP3    H2 2014   7.086   2.532   2.632
  684TIP3   OH2 2015   0.502   2.557   0.486
  684TIP3    H1 2016   0.589   2.540   0.450
  684TIP3    H2 2017   0.488   2.651   0.471
  685TIP3   OH2 2018   4.326   5.670   5.404
  685TIP3    H1 2019   4.271   5.736   5.445
  685TIP3    H2 2020   4.315   5.685   5.310
  686TIP3   OH2 2021   0.068   1.877   0.512
  686TIP3    H1 2022   0.050   1.971   0.507
  686TIP3    H2 2023   0.083   1.850   0.422
  687TIP3   OH2 2024   3.533   4.519   5.040
  687TIP3    H1 2025   3.462   4.494   5.098
  687TIP3    H2 2026   3.562   4.605   5.072
  688TIP3   OH2 2027   6.379   6.684   3.857
  688TIP3    H1 2028   6.300   6.709   3.811
  688TIP3    H2 2029   6.364   6.711   3.948
  689TIP3   OH2 2030   6.063   0.848   5.843
  689TIP3    H1 2031   6.010   0.857   5.764
  689TIP3    H2 2032   6.069   0.753   5.858
  690TIP3   OH2 2033   3.217   2.345   5.136
  690TIP3    H1 2034   3.144   2.398   5.106
  690TIP3    H2 2035   3.246   2.388   5.217
  691TIP3   OH2 2036   6.901   3.731   5.826
  691TIP3    H1 2037   6.859   3.815   5.805
  691TIP3    H2 2038   6.868   3.708   5.913
  692TIP3   OH2 2039   1.044   6.611   3.294
  692TIP3    H1 2040   0.989   6.534   3.305
  692TIP3    H2 2041   0.982   6.683   3.281
  693TIP3   OH2 2042   3.746   4.888   3.389
  693TIP3    H1 2043   3.675   4.945   3.361
  693TIP3    H2 2044   3.732   4.877   3.483
  694TIP3   OH2 2045   2.787   1.569   3.867
  694TIP3    H1 2046   2.716   1.625   3.835
  694TIP3    H2 2047   2.786   1.580   3.962
  695TIP3   OH2 2048   6.879   0.317   3.759
  695TIP3    H1 2049   6.970   0.346   3.766
  695TIP3    H2 2050   6.873   0.241   3.817
  696TIP3   OH2 2051   5.076   5.553   5.609
  696TIP3    H1 2052   4.993   5.506   5.613
  696TIP3    H2 2053   5.142   5.485   5.600
  697TIP3   OH2 2054   3.497   1.760   3.112
  697TIP3    H1 2055   3.554   1.712   3.173
  697TIP3    H2 2056   3.457   1.828   3.166
  698TIP3   OH2 2057   2.384   6.216   0.175
  698TIP3    H1 2058   2.469   6.257   0.193
  698TIP3    H2 2059   2.337   6.281   0.123
  699TIP3   OH2 2060   5.757   6.278   3.159
  699TIP3    H1 2061   5.737   6.196   3.203
  699TIP3    H2 2062   5.785   6.253   3.072
  700TIP3   OH2 2063   5.595   1.943   3.569
  700TIP3    H1 2064   5.511   1.915   3.605
  700TIP3    H2 2065   5.572   2.014   3.510
  701TIP3   OH2 2066   3.695   5.658   4.877
  701TIP3    H1 2067   3.619   5.688   4.927
  701TIP3    H2 2068   3.770   5.697   4.922
  702TIP3   OH2 2069   1.014   4.941   4.881
  702TIP3    H1 2070   1.075   4.874   4.912
  702TIP3    H2 2071   0.933   4.894   4.864
  703TIP3   OH2 2072   3.209   1.790   0.593
  703TIP3    H1 2073   3.127   1.754   0.560
  703TIP3    H2 2074   3.262   1.805   0.515
  704TIP3   OH2 2075   3.335   6.226   2.583
  704TIP3    H1 2076   3.303   6.296   2.640
  704TIP3    H2 2077   3.279   6.231   2.505
  705TIP3   OH2 2078   1.660   5.267   2.030
  705TIP3    H1 2079   1.746   5.307   2.026
  705TIP3    H2 2080   1.634   5.273   2.122
  706TIP3   OH2 2081   3.501   0.176   1.629
  706TIP3    H1 2082   3.511   0.082   1.644
  706TIP3    H2 2083   3.461   0.182   1.543
  707TIP3   OH2 2084   0.000   1.637   5.566
  707TIP3    H1 2085  -0.075   1.697   5.562
  707TIP3    H2 2086   0.076   1.694   5.574
  708TIP3   OH2 2087   7.085   2.078   5.275
  708TIP3    H1 2088   7.085   2.170   5.249
  708TIP3    H2 2089   7.148   2.074   5.347
  709TIP3   OH2 2090   1.323   2.751   0.040
  709TIP3    H1 2091   1.333   2.762   0.135
  709TIP3    H2 2092   1.304   2.658   0.029
  710TIP3   OH2 2093   0.427   0.846   5.616
  710TIP3    H1 2094   0.437   0.898   5.695
  710TIP3    H2 2095   0.504   0.867   5.563
  711TIP3   OH2 2096   1.368   3.848   5.887
  711TIP3    H1 2097   1.302   3.819   5.824
  711TIP3    H2 2098   1.322   3.912   5.942
  712TIP3   OH2 2099   0.375   1.294   2.136
  712TIP3    H1 2100   0.400   1.283   2.045
  712TIP3    H2 2101   0.407   1.381   2.160
  713TIP3   OH2 2102   5.305   6.389   5.265
  713TIP3    H1 2103   5.256   6.307   5.261
  713TIP3    H2 2104   5.299   6.425   5.176
  714TIP3   OH2 2105   0.321   5.338   4.550
  714TIP3    H1 2106   0.382   5.349   4.477
  714TIP3    H2 2107   0.334   5.248   4.579
  715TIP3   OH2 2108   1.954   2.646   4.983
  715TIP3    H1 2109   2.003   2.727   4.997
  715TIP3    H2 2110   1.907   2.632   5.065
  716TIP3   OH2 2111   1.445   2.050   3.226
  716TIP3    H1 2112   1.514   2.113   3.247
  716TIP3    H2 2113   1.449   1.986   3.297
  717TIP3   OH2 2114   2.304   6.642   0.678
  717TIP3    H1 2115   2.300   6.691   0.596
  717TIP3    H2 2116   2.223   6.591   0.679
  718TIP3   OH2 2117   4.615   0.731   2.064
  718TIP3    H1 2118   4.632   0.696   1.977
  718TIP3    H2 2119   4.529   0.773   2.056
  719TIP3   OH2 2120   6.105   3.219   5.413
  719TIP3    H1 2121   6.134   3.308   5.436
  719TIP3    H2 2122   6.160   3.195   5.339
  720TIP3   OH2 2123   2.665   4.391   0.811
  720TIP3    H1 2124   2.628   4.385   0.723
  720TIP3    H2 2125   2.614   4.329   0.863
  721TIP3   OH2 2126   3.051   6.525   5.618
  721TIP3    H1 2127   3.045   6.436   5.583
  721TIP3    H2 2128   3.043   6.514   5.713
  722TIP3   OH2 2129   5.004   5.177   4.143
  722TIP3    H1 2130   5.062   5.131   4.205
  722TIP3    H2 2131   4.928   5.120   4.136
  723TIP3   OH2 2132   3.345   1.194   0.160
  723TIP3    H1 2133   3.344   1.100   0.179
  723TIP3    H2 2134   3.327   1.199   0.066
  724TIP3   OH2 2135   7.059   5.494   2.788
  724TIP3    H1 2136   7.154   5.493   2.774
  724TIP3    H2 2137   7.031   5.577   2.749
  725TIP3   OH2 2138   5.544   5.566   0.432
  725TIP3    H1 2139   5.609   5.611   0.379
  725TIP3    H2 2140   5.568   5.473   0.425
  726TIP3   OH2 2141   3.937   3.837   4.160
  726TIP3    H1 2142   4.003   3.775   4.127
  726TIP3    H2 2143   3.877   3.850   4.086
  727TIP3   OH2 2144   0.310   6.528   5.452
  727TIP3    H1 2145   0.338   6.557   5.365
  727TIP3    H2 2146   0.259   6.449   5.435
  728TIP3   OH2 2147   1.387   0.040   5.736
  728TIP3    H1 2148   1.331  -0.012   5.793
  728TIP3    H2 2149   1.376   0.002   5.649
  729TIP3   OH2 2150   1.816   5.372   2.330
  729TIP3    H1 2151   1.875   5.313   2.283
  729TIP3    H2 2152   1.731   5.328   2.326
  730TIP3   OH2 2153   4.536   5.379   4.913
  730TIP3    H1 2154   4.559   5.307   4.855
  730TIP3    H2 2155   4.582   5.360   4.995
  731TIP3   OH2 2156   5.395   6.717   5.069
  731TIP3    H1 2157   5.447   6.732   5.148
  731TIP3    H2 2158   5.341   6.640   5.090
  732TIP3   OH2 2159   6.155   5.196   4.564
  732TIP3    H1 2160   6.153   5.184   4.469
  732TIP3    H2 2161   6.091   5.133   4.597
  733TIP3   OH2 2162   0.137   0.214   3.968
  733TIP3    H1 2163   0.186   0.275   4.023
  733TIP3    H2 2164   0.141   0.131   4.016
  734TIP3   OH2 2165   0.230   0.801   0.382
  734TIP3    H1 2166   0.196   0.890   0.388
  734TIP3    H2 2167   0.190   0.755   0.456
  735TIP3   OH2 2168   3.632   4.474   3.979
  735TIP3    H1 2169   3.701   4.448   4.040
  735TIP3    H2 2170   3.613   4.395   3.928
  736TIP3   OH2 2171   6.497   3.853   1.714
  736TIP3    H1 2172   6.420   3.901   1.743
  736TIP3    H2 2173   6.463   3.786   1.654
  737TIP3   OH2 2174   7.205   3.443   5.326
  737TIP3    H1 2175   7.115   3.472   5.316
  737TIP3    H2 2176   7.249   3.473   5.246
  738TIP3   OH2 2177   0.840   0.974   1.511
  738TIP3    H1 2178   0.914   0.972   1.451
  738TIP3    H2 2179   0.853   0.898   1.568
  739TIP3   OH2 2180   3.349   1.822   0.311
  739TIP3    H1 2181   3.425   1.875   0.290
  739TIP3    H2 2182   3.275   1.871   0.275
  740TIP3   OH2 2183   4.286   1.618   1.268
  740TIP3    H1 2184   4.312   1.601   1.358
  740TIP3    H2 2185   4.193   1.637   1.272
  741TIP3   OH2 2186   5.314   2.423   0.708
  741TIP3    H1 2187   5.224   2.423   0.743
  741TIP3    H2 2188   5.354   2.501   0.748
  742TIP3   OH2 2189   6.557   3.466   4.629
  742TIP3    H1 2190   6.609   3.386   4.626
  742TIP3    H2 2191   6.467   3.436   4.635
  743TIP3   OH2 2192   2.660   6.666   0.421
  743TIP3    H1 2193   2.647   6.681   0.515
  743TIP3    H2 2194   2.609   6.734   0.378
  744TIP3   OH2 2195   6.837   0.611   1.509
  744TIP3    H1 2196   6.895   0.536   1.516
  744TIP3    H2 2197   6.751   0.574   1.489
  745TIP3   OH2 2198   0.131   6.850   1.029
  745TIP3    H1 2199   0.215   6.849   0.983
  745TIP3    H2 2200   0.089   6.767   1.007
  746TIP3   OH2 2201   6.761  -0.027   2.659
  746TIP3    H1 2202   6.692   0.030   2.627
  746TIP3    H2 2203   6.785   0.008   2.745
  747TIP3   OH2 2204   3.470   5.697   5.626
  747TIP3    H1 2205   3.503   5.713   5.715
  747TIP3    H2 2206   3.387   5.652   5.639
  748TIP3   OH2 2207   4.160   2.109   2.281
  748TIP3    H1 2208   4.221   2.041   2.253
  748TIP3    H2 2209   4.187   2.131   2.370
  749TIP3   OH2 2210   4.270   2.135   4.431
  749TIP3    H1 2211   4.183   2.162   4.461
  749TIP3    H2 2212   4.289   2.056   4.481
  750TIP3   OH2 2213   3.314   5.531   2.780
  750TIP3    H1 2214   3.321   5.444   2.740
  750TIP3    H2 2215   3.394   5.539   2.833
  751TIP3   OH2 2216   6.306   1.043   1.867
  751TIP3    H1 2217   6.298   1.065   1.960
  751TIP3    H2 2218   6.221   1.064   1.830
  752TIP3   OH2 2219   2.454   3.005   3.352
  752TIP3    H1 2220   2.435   2.913   3.331
  752TIP3    H2 2221   2.440   3.011   3.447
  753TIP3   OH2 2222   2.036   3.482   5.659
  753TIP3    H1 2223   1.995   3.413   5.711
  753TIP3    H2 2224   1.979   3.558   5.671
  754TIP3   OH2 2225   1.333   4.498   4.622
  754TIP3    H1 2226   1.396   4.565   4.594
  754TIP3    H2 2227   1.330   4.505   4.717
  755TIP3   OH2 2228   0.006   1.340   2.001
  755TIP3    H1 2229   0.045   1.410   2.053
  755TIP3    H2 2230   0.047   1.260   2.033
  756TIP3   OH2 2231   3.978   4.951   3.244
  756TIP3    H1 2232   3.905   4.931   3.302
  756TIP3    H2 2233   4.018   4.866   3.225
  757TIP3   OH2 2234   6.680   3.272   4.224
  757TIP3    H1 2235   6.750   3.207   4.222
  757TIP3    H2 2236   6.726   3.356   4.217
  758TIP3   OH2 2237   4.915   1.794   4.998
  758TIP3    H1 2238   4.903   1.840   4.915
  758TIP3    H2 2239   4.828   1.789   5.037
  759TIP3   OH2 2240   3.395   2.976   4.665
  759TIP3    H1 2241   3.316   3.017   4.632
  759TIP3    H2 2242   3.408   3.016   4.752
  760TIP3   OH2 2243   7.152   1.932   1.736
  760TIP3    H1 2244   7.058   1.920   1.750
  760TIP3    H2 2245   7.166   1.903   1.646
  761TIP3   OH2 2246   5.408   6.555   3.105
  761TIP3    H1 2247   5.402   6.639   3.060
  761TIP3    H2 2248   5.331   6.552   3.162
  762TIP3   OH2 2249   5.259   3.652   4.736
  762TIP3    H1 2250   5.259   3.723   4.672
  762TIP3    H2 2251   5.184   3.671   4.793
  763TIP3   OH2 2252   3.365   4.168   3.418
  763TIP3    H1 2253   3.331   4.162   3.329
  763TIP3    H2 2254   3.451   4.210   3.408
  764TIP3   OH2 2255   7.123   5.805   1.645
  764TIP3    H1 2256   7.157   5.884   1.687
  764TIP3    H2 2257   7.195   5.741   1.653
  765TIP3   OH2 2258   2.574   6.364   0.297
  765TIP3    H1 2259   2.598   6.451   0.264
  765TIP3    H2 2260   2.496   6.380   0.350
  766TIP3   OH2 2261   2.844   5.045   0.544
  766TIP3    H1 2262   2.932   5.081   0.550
  766TIP3    H2 2263   2.837   5.016   0.453
  767TIP3   OH2 2264   5.610   2.389   3.376
  767TIP3    H1 2265   5.594   2.329   3.450
  767TIP3    H2 2266   5.535   2.448   3.377
  768TIP3   OH2 2267   0.913   3.425   5.417
  768TIP3    H1 2268   0.963   3.425   5.498
  768TIP3    H2 2269   0.948   3.499   5.367
  769TIP3   OH2 2270   1.165   3.415   4.702
  769TIP3    H1 2271   1.231   3.376   4.760
  769TIP3    H2 2272   1.103   3.344   4.685
  770TIP3   OH2 2273   2.066   0.049   3.071
  770TIP3    H1 2274   2.012   0.008   3.138
  770TIP3    H2 2275   2.047  -0.001   2.991
  771TIP3   OH2 2276   3.891   5.229   3.826
  771TIP3    H1 2277   3.978   5.216   3.791
  771TIP3    H2 2278   3.858   5.307   3.781
  772TIP3   OH2 2279   5.098   0.013   4.073
  772TIP3    H1 2280   5.094  -0.073   4.115
  772TIP3    H2 2281   5.183   0.049   4.099
  773TIP3   OH2 2282   3.439   1.146   4.491
  773TIP3    H1 2283   3.350   1.125   4.464
  773TIP3    H2 2284   3.438   1.240   4.507
  774TIP3   OH2 2285   5.861   1.321   1.967
  774TIP3    H1 2286   5.809   1.390   2.008
  774TIP3    H2 2287   5.823   1.240   2.001
  775TIP3   OH2 2288   0.482   6.351   5.206
  775TIP3    H1 2289   0.419   6.408   5.163
  775TIP3    H2 2290   0.440   6.265   5.207
  776TIP3   OH2 2291   0.871   1.922   1.481
  776TIP3    H1 2292   0.873   1.843   1.535
  776TIP3    H2 2293   0.960   1.932   1.448
  777TIP3   OH2 2294   6.348   5.818   5.807
  777TIP3    H1 2295   6.260   5.781   5.803
  777TIP3    H2 2296   6.335   5.912   5.794
  778TIP3   OH2 2297   4.246   4.246   3.898
  778TIP3    H1 2298   4.222   4.155   3.880
  778TIP3    H2 2299   4.304   4.271   3.826
  779TIP3   OH2 2300   0.268   5.949   0.795
  779TIP3    H1 2301   0.226   5.863   0.796
  779TIP3    H2 2302   0.201   6.009   0.828
  780TIP3   OH2 2303   1.250   3.492   2.898
  780TIP3    H1 2304   1.266   3.579   2.862
  780TIP3    H2 2305   1.239   3.436   2.821
  781TIP3   OH2 2306   5.749   6.126   1.135
  781TIP3    H1 2307   5.785   6.194   1.079
  781TIP3    H2 2308   5.802   6.049   1.117
  782TIP3   OH2 2309   3.060   2.664   4.087
  782TIP3    H1 2310   3.106   2.742   4.118
  782TIP3    H2 2311   3.122   2.621   4.028
  783TIP3   OH2 2312   5.318   6.706   0.887
  783TIP3    H1 2313   5.297   6.662   0.805
  783TIP3    H2 2314   5.233   6.733   0.922
  784TIP3   OH2 2315   7.252   6.021   2.111
  784TIP3    H1 2316   7.277   5.981   2.195
  784TIP3    H2 2317   7.159   6.000   2.102
  785TIP3   OH2 2318   0.420   3.368   2.624
  785TIP3    H1 2319   0.411   3.278   2.657
  785TIP3    H2 2320   0.493   3.363   2.563
  786TIP3   OH2 2321   3.376   4.815   1.258
  786TIP3    H1 2322   3.422   4.824   1.342
  786TIP3    H2 2323   3.368   4.720   1.246
  787TIP3   OH2 2324   3.761   1.291   2.633
  787TIP3    H1 2325   3.741   1.377   2.669
  787TIP3    H2 2326   3.771   1.306   2.539
  788TIP3   OH2 2327   6.302   1.565   0.444
  788TIP3    H1 2328   6.310   1.640   0.503
  788TIP3    H2 2329   6.209   1.541   0.448
  789TIP3   OH2 2330   4.283   5.119   1.530
  789TIP3    H1 2331   4.211   5.182   1.526
  789TIP3    H2 2332   4.361   5.169   1.509
  790TIP3   OH2 2333   0.586   6.467   3.325
  790TIP3    H1 2334   0.537   6.542   3.293
  790TIP3    H2 2335   0.644   6.444   3.252
  791TIP3   OH2 2336   1.288   4.513   3.578
  791TIP3    H1 2337   1.294   4.592   3.632
  791TIP3    H2 2338   1.366   4.516   3.522
  792TIP3   OH2 2339   4.121   1.406   2.394
  792TIP3    H1 2340   4.119   1.450   2.479
  792TIP3    H2 2341   4.213   1.383   2.381
  793TIP3   OH2 2342   6.250   0.180   0.058
  793TIP3    H1 2343   6.273   0.212   0.146
  793TIP3    H2 2344   6.228   0.258   0.009
  794TIP3   OH2 2345   5.304   0.866   1.162
  794TIP3    H1 2346   5.325   0.957   1.183
  794TIP3    H2 2347   5.324   0.817   1.241
  795TIP3   OH2 2348   1.606   1.723   0.833
  795TIP3    H1 2349   1.653   1.720   0.916
  795TIP3    H2 2350   1.558   1.640   0.830
  796TIP3   OH2 2351   0.431   4.368   4.117
  796TIP3    H1 2352   0.402   4.442   4.064
  796TIP3    H2 2353   0.407   4.291   4.066
  797TIP3   OH2 2354   4.243   5.448   3.710
  797TIP3    H1 2355   4.183   5.396   3.762
  797TIP3    H2 2356   4.229   5.418   3.620
  798TIP3   OH2 2357   4.706   6.552   5.781
  798TIP3    H1 2358   4.795   6.575   5.755
  798TIP3    H2 2359   4.660   6.636   5.784
  799TIP3   OH2 2360   6.268   3.696   2.888
  799TIP3    H1 2361   6.186   3.733   2.856
  799TIP3    H2 2362   6.335   3.758   2.860
  800TIP3   OH2 2363   7.045   0.055   0.561
  800TIP3    H1 2364   7.070   0.137   0.518
  800TIP3    H2 2365   7.128   0.016   0.589
  801TIP3   OH2 2366   1.067   5.608   5.136
  801TIP3    H1 2367   1.134   5.667   5.100
  801TIP3    H2 2368   1.052   5.641   5.225
  802TIP3   OH2 2369   2.522   1.300   5.214
  802TIP3    H1 2370   2.465   1.349   5.155
  802TIP3    H2 2371   2.569   1.238   5.158
  803TIP3   OH2 2372   1.574   6.627   5.050
  803TIP3    H1 2373   1.656   6.628   5.002
  803TIP3    H2 2374   1.508   6.603   4.985
  804TIP3   OH2 2375   6.768   5.338   4.052
  804TIP3    H1 2376   6.850   5.310   4.012
  804TIP3    H2 2377   6.728   5.258   4.086
  805TIP3   OH2 2378   4.430   5.172   2.703
  805TIP3    H1 2379   4.375   5.166   2.782
  805TIP3    H2 2380   4.520   5.170   2.736
  806TIP3   OH2 2381   0.626   5.094   0.128
  806TIP3    H1 2382   0.628   5.130   0.040
  806TIP3    H2 2383   0.665   5.162   0.183
  807TIP3   OH2 2384   5.264   6.169   2.837
  807TIP3    H1 2385   5.278   6.235   2.770
  807TIP3    H2 2386   5.218   6.215   2.907
  808TIP3   OH2 2387   1.682   2.585   5.646
  808TIP3    H1 2388   1.693   2.647   5.719
  808TIP3    H2 2389   1.630   2.634   5.582
  809TIP3   OH2 2390   3.415   6.311   3.914
  809TIP3    H1 2391   3.394   6.377   3.980
  809TIP3    H2 2392   3.377   6.344   3.833
  810TIP3   OH2 2393   0.196   4.886   3.303
  810TIP3    H1 2394   0.243   4.883   3.219
  810TIP3    H2 2395   0.191   4.979   3.323
  811TIP3   OH2 2396   2.586   5.628   2.645
  811TIP3    H1 2397   2.539   5.561   2.596
  811TIP3    H2 2398   2.636   5.579   2.711
  812TIP3   OH2 2399   5.263   3.032   1.992
  812TIP3    H1 2400   5.218   2.949   2.007
  812TIP3    H2 2401   5.196   3.099   2.005
  813TIP3   OH2 2402   0.215   0.796   1.040
  813TIP3    H1 2403   0.233   0.799   0.946
  813TIP3    H2 2404   0.296   0.762   1.079
  814TIP3   OH2 2405   2.716   2.445   0.850
  814TIP3    H1 2406   2.756   2.522   0.892
  814TIP3    H2 2407   2.636   2.430   0.900
  815TIP3   OH2 2408   0.860   1.613   4.273
  815TIP3    H1 2409   0.904   1.585   4.193
  815TIP3    H2 2410   0.801   1.683   4.246
  816TIP3   OH2 2411   1.857   4.348   4.614
  816TIP3    H1 2412   1.807   4.295   4.552
  816TIP3    H2 2413   1.821   4.437   4.604
  817TIP3   OH2 2414   4.606   1.953   3.646
  817TIP3    H1 2415   4.543   2.017   3.612
  817TIP3    H2 2416   4.684   2.004   3.665
  818TIP3   OH2 2417   0.771   2.403   0.110
  818TIP3    H1 2418   0.755   2.472   0.046
  818TIP3    H2 2419   0.778   2.449   0.193
  819TIP3   OH2 2420   5.375   4.881   5.604
  819TIP3    H1 2421   5.447   4.884   5.541
  819TIP3    H2 2422   5.380   4.964   5.651
  820TIP3   OH2 2423   3.382   3.046   2.700
  820TIP3    H1 2424   3.386   3.134   2.662
  820TIP3    H2 2425   3.411   3.058   2.790
  821TIP3   OH2 2426   6.876   4.020   3.445
  821TIP3    H1 2427   6.847   3.946   3.393
  821TIP3    H2 2428   6.843   4.002   3.534
  822TIP3   OH2 2429   0.654   5.985   1.338
  822TIP3    H1 2430   0.560   5.967   1.335
  822TIP3    H2 2431   0.688   5.949   1.256
  823TIP3   OH2 2432   2.887   5.953   3.812
  823TIP3    H1 2433   2.855   6.010   3.882
  823TIP3    H2 2434   2.887   6.008   3.734
  824TIP3   OH2 2435   4.036   3.527   2.663
  824TIP3    H1 2436   3.949   3.502   2.695
  824TIP3    H2 2437   4.019   3.582   2.587
  825TIP3   OH2 2438   2.532   0.430   2.697
  825TIP3    H1 2439   2.579   0.367   2.752
  825TIP3    H2 2440   2.545   0.397   2.608
  826TIP3   OH2 2441   5.395   4.510   3.945
  826TIP3    H1 2442   5.360   4.575   4.007
  826TIP3    H2 2443   5.317   4.469   3.907
  827TIP3   OH2 2444   0.693   5.871   4.065
  827TIP3    H1 2445   0.658   5.783   4.052
  827TIP3    H2 2446   0.695   5.882   4.161
  828TIP3   OH2 2447   3.493   1.532   1.878
  828TIP3    H1 2448   3.445   1.485   1.810
  828TIP3    H2 2449   3.537   1.463   1.928
  829TIP3   OH2 2450   2.652   3.275   3.643
  829TIP3    H1 2451   2.729   3.328   3.622
  829TIP3    H2 2452   2.583   3.308   3.585
  830TIP3   OH2 2453   1.827   6.155   0.109
  830TIP3    H1 2454   1.737   6.173   0.084
  830TIP3    H2 2455   1.830   6.175   0.203
  831TIP3   OH2 2456   2.812   2.765   5.076
  831TIP3    H1 2457   2.855   2.691   5.035
  831TIP3    H2 2458   2.842   2.763   5.167
  832TIP3   OH2 2459   5.095   3.526   0.030
  832TIP3    H1 2460   5.114   3.620   0.038
  832TIP3    H2 2461   5.004   3.523   0.000
  833TIP3   OH2 2462   1.945   0.966   1.467
  833TIP3    H1 2463   2.022   0.914   1.488
  833TIP3    H2 2464   1.884   0.951   1.540
  834TIP3   OH2 2465   0.119   4.606   2.439
  834TIP3    H1 2466   0.075   4.673   2.386
  834TIP3    H2 2467   0.161   4.549   2.374
  835TIP3   OH2 2468   4.244   2.613   3.151
  835TIP3    H1 2469   4.153   2.621   3.123
  835TIP3    H2 2470   4.295   2.654   3.080
  836TIP3   OH2 2471   6.907   4.146   5.290
  836TIP3    H1 2472   6.818   4.126   5.319
  836TIP3    H2 2473   6.904   4.133   5.195
  837TIP3   OH2 2474   0.932   4.903   5.635
  837TIP3    H1 2475   0.890   4.826   5.672
  837TIP3    H2 2476   0.902   4.905   5.544
  838TIP3   OH2 2477   5.530   2.920   4.392
  838TIP3    H1 2478   5.554   3.010   4.416
  838TIP3    H2 2479   5.560   2.911   4.302
  839TIP3   OH2 2480   2.220   3.040   0.377
  839TIP3    H1 2481   2.268   3.061   0.458
  839TIP3    H2 2482   2.252   3.104   0.313
  840TIP3   OH2 2483   1.162   0.464   3.026
  840TIP3    H1 2484   1.094   0.436   2.965
  840TIP3    H2 2485   1.114   0.498   3.101
  841TIP3   OH2 2486   2.402   2.660   1.616
  841TIP3    H1 2487   2.318   2.704   1.606
  841TIP3    H2 2488   2.449   2.678   1.535
  842TIP3   OH2 2489   3.504   0.671   0.689
  842TIP3    H1 2490   3.568   0.699   0.754
  842TIP3    H2 2491   3.459   0.752   0.663
  843TIP3   OH2 2492   2.630   6.179   5.814
  843TIP3    H1 2493   2.624   6.185   5.719
  843TIP3    H2 2494   2.594   6.092   5.835
  844TIP3   OH2 2495   3.368   2.644   3.590
  844TIP3    H1 2496   3.369   2.739   3.595
  844TIP3    H2 2497   3.400   2.615   3.676
  845TIP3   OH2 2498   5.565   0.122   3.427
  845TIP3    H1 2499   5.636   0.146   3.487
  845TIP3    H2 2500   5.494   0.095   3.484
  846TIP3   OH2 2501   5.505   3.861   0.294
  846TIP3    H1 2502   5.566   3.827   0.359
  846TIP3    H2 2503   5.561   3.892   0.223
  847TIP3   OH2 2504   1.295   0.615   5.360
  847TIP3    H1 2505   1.272   0.629   5.451
  847TIP3    H2 2506   1.338   0.529   5.359
  848TIP3   OH2 2507   1.876   6.784   2.582
  848TIP3    H1 2508   1.905   6.806   2.493
  848TIP3    H2 2509   1.790   6.745   2.570
  849TIP3   OH2 2510   1.098   4.864   5.352
  849TIP3    H1 2511   1.064   4.952   5.338
  849TIP3    H2 2512   1.189   4.878   5.381
  850TIP3   OH2 2513   6.612   3.198   1.598
  850TIP3    H1 2514   6.596   3.259   1.526
  850TIP3    H2 2515   6.524   3.168   1.623
  851TIP3   OH2 2516   3.434   0.829   3.994
  851TIP3    H1 2517   3.424   0.737   3.969
  851TIP3    H2 2518   3.504   0.828   4.060
  852TIP3   OH2 2519   4.756   1.868   1.235
  852TIP3    H1 2520   4.731   1.936   1.172
  852TIP3    H2 2521   4.736   1.906   1.321
  853TIP3   OH2 2522   3.944   0.750   4.907
  853TIP3    H1 2523   3.864   0.792   4.877
  853TIP3    H2 2524   3.923   0.717   4.995
  854TIP3   OH2 2525   6.707   1.656   2.622
  854TIP3    H1 2526   6.756   1.633   2.701
  854TIP3    H2 2527   6.772   1.696   2.565
  855TIP3   OH2 2528   1.133   3.694   5.725
  855TIP3    H1 2529   1.088   3.740   5.654
  855TIP3    H2 2530   1.063   3.667   5.785
  856TIP3   OH2 2531   0.131   3.720   4.925
  856TIP3    H1 2532   0.173   3.798   4.890
  856TIP3    H2 2533   0.044   3.720   4.885
  857TIP3   OH2 2534   4.123   0.593   5.442
  857TIP3    H1 2535   4.117   0.617   5.534
  857TIP3    H2 2536   4.106   0.499   5.441
  858TIP3   OH2 2537   5.230   5.597   1.945
  858TIP3    H1 2538   5.311   5.555   1.916
  858TIP3    H2 2539   5.162   5.560   1.889
  859TIP3   OH2 2540   6.043   6.746   4.916
  859TIP3    H1 2541   6.002   6.832   4.913
  859TIP3    H2 2542   6.106   6.752   4.988
  860TIP3   OH2 2543   1.464   4.231   3.189
  860TIP3    H1 2544   1.372   4.209   3.179
  860TIP3    H2 2545   1.501   4.158   3.238
  861TIP3   OH2 2546   2.549   5.547   0.941
  861TIP3    H1 2547   2.545   5.475   1.003
  861TIP3    H2 2548   2.527   5.508   0.856
  862TIP3   OH2 2549   3.111   0.905   0.949
  862TIP3    H1 2550   3.160   0.828   0.979
  862TIP3    H2 2551   3.032   0.906   1.002
  863TIP3   OH2 2552   0.091   5.570   2.727
  863TIP3    H1 2553   0.063   5.644   2.673
  863TIP3    H2 2554   0.187   5.570   2.717
  864TIP3   OH2 2555   5.321   6.339   0.196
  864TIP3    H1 2556   5.372   6.291   0.262
  864TIP3    H2 2557   5.347   6.299   0.113
  865TIP3   OH2 2558   2.127   1.190   4.784
  865TIP3    H1 2559   2.119   1.240   4.703
  865TIP3    H2 2560   2.039   1.191   4.821
  866TIP3   OH2 2561   1.474   5.113   1.213
  866TIP3    H1 2562   1.507   5.027   1.239
  866TIP3    H2 2563   1.422   5.143   1.287
  867TIP3   OH2 2564   2.994   5.796   1.410
  867TIP3    H1 2565   3.056   5.779   1.339
  867TIP3    H2 2566   3.045   5.783   1.490
  868TIP3   OH2 2567   2.114   1.292   3.068
  868TIP3    H1 2568   2.104   1.224   3.134
  868TIP3    H2 2569   2.191   1.342   3.097
  869TIP3   OH2 2570   1.705   0.542   0.731
  869TIP3    H1 2571   1.744   0.558   0.817
  869TIP3    H2 2572   1.779   0.524   0.674
  870TIP3   OH2 2573   5.386   2.881   3.049
  870TIP3    H1 2574   5.367   2.814   2.983
  870TIP3    H2 2575   5.409   2.831   3.128
  871TIP3   OH2 2576   6.616   0.516   2.137
  871TIP3    H1 2577   6.585   0.436   2.095
  871TIP3    H2 2578   6.557   0.584   2.105
  872TIP3   OH2 2579   1.697   1.709   2.604
  872TIP3    H1 2580   1.621   1.665   2.643
  872TIP3    H2 2581   1.765   1.642   2.603
  873TIP3   OH2 2582   2.178   1.509   1.872
  873TIP3    H1 2583   2.256   1.479   1.920
  873TIP3    H2 2584   2.143   1.429   1.832
  874TIP3   OH2 2585   3.241   6.465   0.789
  874TIP3    H1 2586   3.229   6.384   0.740
  874TIP3    H2 2587   3.240   6.437   0.881
  875TIP3   OH2 2588   6.606   4.360   4.829
  875TIP3    H1 2589   6.554   4.388   4.754
  875TIP3    H2 2590   6.584   4.422   4.898
  876TIP3   OH2 2591   2.575   2.757   3.156
  876TIP3    H1 2592   2.483   2.782   3.164
  876TIP3    H2 2593   2.614   2.826   3.103
  877TIP3   OH2 2594   4.167   5.357   1.523
  877TIP3    H1 2595   4.144   5.376   1.432
  877TIP3    H2 2596   4.223   5.431   1.548
  878TIP3   OH2 2597   0.018   5.945   3.801
  878TIP3    H1 2598   0.078   5.904   3.738
  878TIP3    H2 2599   0.053   6.033   3.814
  879TIP3   OH2 2600   3.472   2.762   4.512
  879TIP3    H1 2601   3.501   2.709   4.586
  879TIP3    H2 2602   3.440   2.843   4.551
  880TIP3   OH2 2603   1.136   1.831   3.314
  880TIP3    H1 2604   1.135   1.809   3.407
  880TIP3    H2 2605   1.220   1.797   3.282
  881TIP3   OH2 2606   4.001   1.889   3.858
  881TIP3    H1 2607   3.975   1.980   3.874
  881TIP3    H2 2608   3.945   1.838   3.916
  882TIP3   OH2 2609   1.170   3.539   0.517
  882TIP3    H1 2610   1.096   3.526   0.576
  882TIP3    H2 2611   1.187   3.453   0.480
  883TIP3   OH2 2612   3.837   5.547   3.435
  883TIP3    H1 2613   3.834   5.583   3.347
  883TIP3    H2 2614   3.921   5.578   3.470
  884TIP3   OH2 2615   6.582   6.663   1.107
  884TIP3    H1 2616   6.630   6.734   1.151
  884TIP3    H2 2617   6.595   6.680   1.014
  885TIP3   OH2 2618   3.351   0.765   3.557
  885TIP3    H1 2619   3.349   0.719   3.473
  885TIP3    H2 2620   3.345   0.857   3.533
  886TIP3   OH2 2621   4.285   1.229   2.701
  886TIP3    H1 2622   4.301   1.162   2.635
  886TIP3    H2 2623   4.293   1.184   2.784
  887TIP3   OH2 2624   3.640   3.280   0.002
  887TIP3    H1 2625   3.698   3.251   0.072
  887TIP3    H2 2626   3.558   3.232   0.017
  888TIP3   OH2 2627   1.923   3.204   0.570
  888TIP3    H1 2628   1.996   3.235   0.516
  888TIP3    H2 2629   1.942   3.240   0.657
  889TIP3   OH2 2630   0.520   3.599   0.006
  889TIP3    H1 2631   0.612   3.578  -0.007
  889TIP3    H2 2632   0.520   3.692   0.030
  890TIP3   OH2 2633   0.160   2.979   0.278
  890TIP3    H1 2634   0.124   2.909   0.224
  890TIP3    H2 2635   0.139   3.059   0.231
  891TIP3   OH2 2636   7.226   6.451   2.313
  891TIP3    H1 2637   7.167   6.398   2.259
  891TIP3    H2 2638   7.189   6.539   2.311
  892TIP3   OH2 2639   3.831   0.991   5.299
  892TIP3    H1 2640   3.772   1.025   5.367
  892TIP3    H2 2641   3.851   0.902   5.328
  893TIP3   OH2 2642   6.492   0.373   0.736
  893TIP3    H1 2643   6.408   0.367   0.780
  893TIP3    H2 2644   6.556   0.372   0.807
  894TIP3   OH2 2645   0.845   2.193   5.815
  894TIP3    H1 2646   0.825   2.279   5.853
  894TIP3    H2 2647   0.917   2.210   5.755
  895TIP3   OH2 2648   0.603   2.223   1.919
  895TIP3    H1 2649   0.693   2.201   1.897
  895TIP3    H2 2650   0.605   2.245   2.012
  896TIP3   OH2 2651   6.858   4.606   4.428
  896TIP3    H1 2652   6.873   4.640   4.340
  896TIP3    H2 2653   6.941   4.618   4.474
  897TIP3   OH2 2654   2.255   0.531   3.372
  897TIP3    H1 2655   2.233   0.570   3.288
  897TIP3    H2 2656   2.293   0.602   3.423
  898TIP3   OH2 2657   6.592   6.436   2.125
  898TIP3    H1 2658   6.670   6.410   2.074
  898TIP3    H2 2659   6.627   6.495   2.192
  899TIP3   OH2 2660   4.324   3.892   1.047
  899TIP3    H1 2661   4.388   3.842   0.997
  899TIP3    H2 2662   4.281   3.828   1.103
  900TIP3   OH2 2663   6.132   5.077   4.319
  900TIP3    H1 2664   6.217   5.035   4.302
  900TIP3    H2 2665   6.074   5.004   4.341
  901TIP3   OH2 2666   2.179   1.662   4.869
  901TIP3    H1 2667   2.231   1.712   4.807
  901TIP3    H2 2668   2.088   1.686   4.850
  902TIP3   OH2 2669   2.536   2.657   2.236
  902TIP3    H1 2670   2.569   2.567   2.238
  902TIP3    H2 2671   2.614   2.710   2.219
  903TIP3   OH2 2672   4.861   4.492   0.809
  903TIP3    H1 2673   4.907   4.576   0.815
  903TIP3    H2 2674   4.789   4.500   0.872
  904TIP3   OH2 2675   2.576   0.944   5.791
  904TIP3    H1 2676   2.528   1.027   5.785
  904TIP3    H2 2677   2.554   0.910   5.877
  905TIP3   OH2 2678   3.902   0.061   4.099
  905TIP3    H1 2679   3.808   0.078   4.098
  905TIP3    H2 2680   3.913  -0.011   4.161
  906TIP3   OH2 2681   3.837   4.764   3.905
  906TIP3    H1 2682   3.758   4.711   3.904
  906TIP3    H2 2683   3.877   4.746   3.991
  907TIP3   OH2 2684   0.324   5.152   4.734
  907TIP3    H1 2685   0.262   5.187   4.798
  907TIP3    H2 2686   0.356   5.071   4.774
  908TIP3   OH2 2687   4.291   4.789   4.877
  908TIP3    H1 2688   4.210   4.752   4.842
  908TIP3    H2 2689   4.261   4.861   4.933
  909TIP3   OH2 2690   6.886   3.592   1.359
  909TIP3    H1 2691   6.807   3.538   1.356
  909TIP3    H2 2692   6.956   3.531   1.383
  910TIP3   OH2 2693   6.148   0.862   2.708
  910TIP3    H1 2694   6.111   0.775   2.727
  910TIP3    H2 2695   6.242   0.852   2.724
  911TIP3   OH2 2696   4.271   2.192  -0.015
  911TIP3    H1 2697   4.234   2.197   0.073
  911TIP3    H2 2698   4.323   2.112  -0.015
  912TIP3   OH2 2699   5.866   6.098   4.072
  912TIP3    H1 2700   5.932   6.032   4.052
  912TIP3    H2 2701   5.786   6.067   4.028
  913TIP3   OH2 2702   5.390   0.361   0.589
  913TIP3    H1 2703   5.439   0.280   0.573
  913TIP3    H2 2704   5.301   0.342   0.559
  914TIP3   OH2 2705   3.407   5.926   4.311
  914TIP3    H1 2706   3.313   5.932   4.293
  914TIP3    H2 2707   3.434   6.015   4.331
  915TIP3   OH2 2708   5.075   3.073   5.662
  915TIP3    H1 2709   5.158   3.030   5.639
  915TIP3    H2 2710   5.088   3.105   5.751
  916TIP3   OH2 2711   2.030   0.004   2.436
  916TIP3    H1 2712   2.002   0.094   2.422
  916TIP3    H2 2713   2.125   0.010   2.446
  917TIP3   OH2 2714   1.624   1.461   4.287
  917TIP3    H1 2715   1.596   1.516   4.360
  917TIP3    H2 2716   1.584   1.376   4.305
  918TIP3   OH2 2717   4.429   2.925   1.574
  918TIP3    H1 2718   4.492   2.878   1.519
  918TIP3    H2 2719   4.445   3.017   1.555
  919TIP3   OH2 2720   5.323   6.077   3.840
  919TIP3    H1 2721   5.315   5.986   3.812
  919TIP3    H2 2722   5.245   6.120   3.806
  920TIP3   OH2 2723   2.382   2.714   3.610
  920TIP3    H1 2724   2.292   2.706   3.578
  920TIP3    H2 2725   2.436   2.677   3.540
  921TIP3   OH2 2726   7.180   5.496   2.339
  921TIP3    H1 2727   7.191   5.404   2.361
  921TIP3    H2 2728   7.160   5.496   2.246
  922TIP3   OH2 2729   1.218   2.834   1.035
  922TIP3    H1 2730   1.286   2.821   1.101
  922TIP3    H2 2731   1.258   2.892   0.970
  923TIP3   OH2 2732   1.980   3.632   2.743
  923TIP3    H1 2733   1.897   3.655   2.701
  923TIP3    H2 2734   1.986   3.692   2.818
  924TIP3   OH2 2735   5.846   0.004   0.965
  924TIP3    H1 2736   5.918   0.066   0.959
  924TIP3    H2 2737   5.783   0.033   0.898
  925TIP3   OH2 2738   2.439   1.176   5.752
  925TIP3    H1 2739   2.527   1.210   5.735
  925TIP3    H2 2740   2.418   1.207   5.840
  926TIP3   OH2 2741   0.742   5.298   5.304
  926TIP3    H1 2742   0.728   5.348   5.384
  926TIP3    H2 2743   0.759   5.364   5.236
  927TIP3   OH2 2744   0.411   6.134   3.670
  927TIP3    H1 2745   0.474   6.082   3.720
  927TIP3    H2 2746   0.336   6.144   3.729
  928TIP3   OH2 2747   7.223   1.588   1.143
  928TIP3    H1 2748   7.160   1.631   1.200
  928TIP3    H2 2749   7.305   1.635   1.158
  929TIP3   OH2 2750   4.588   4.918   1.189
  929TIP3    H1 2751   4.668   4.866   1.182
  929TIP3    H2 2752   4.573   4.926   1.283
  930TIP3   OH2 2753   1.305   5.505   4.317
  930TIP3    H1 2754   1.258   5.540   4.242
  930TIP3    H2 2755   1.318   5.412   4.297
  931TIP3   OH2 2756   3.428   1.986   3.258
  931TIP3    H1 2757   3.384   2.045   3.318
  931TIP3    H2 2758   3.520   1.988   3.284
  932TIP3   OH2 2759   3.091   0.225   4.775
  932TIP3    H1 2760   3.154   0.247   4.843
  932TIP3    H2 2761   3.136   0.244   4.693
  933TIP3   OH2 2762   3.393   5.812   0.601
  933TIP3    H1 2763   3.407   5.768   0.518
  933TIP3    H2 2764   3.390   5.905   0.578
  934TIP3   OH2 2765  -0.013   0.929   3.088
  934TIP3    H1 2766   0.048   0.866   3.127
  934TIP3    H2 2767  -0.033   0.990   3.158
  935TIP3   OH2 2768   4.810   3.066   5.290
  935TIP3    H1 2769   4.819   3.065   5.195
  935TIP3    H2 2770   4.834   2.978   5.317
  936TIP3   OH2 2771   4.805   5.604   2.238
  936TIP3    H1 2772   4.835   5.667   2.303
  936TIP3    H2 2773   4.803   5.653   2.156
  937TIP3   OH2 2774   7.164   3.458   2.993
  937TIP3    H1 2775   7.081   3.450   3.039
  937TIP3    H2 2776   7.144   3.433   2.903
  938TIP3   OH2 2777   7.168   1.277   2.356
  938TIP3    H1 2778   7.194   1.220   2.429
  938TIP3    H2 2779   7.105   1.226   2.307
  939TIP3   OH2 2780   5.062   1.534   1.989
  939TIP3    H1 2781   5.079   1.609   2.046
  939TIP3    H2 2782   5.037   1.464   2.049
  940TIP3   OH2 2783   6.544   5.224   1.518
  940TIP3    H1 2784   6.449   5.232   1.514
  940TIP3    H2 2785   6.561   5.131   1.499
  941TIP3   OH2 2786   2.341   1.725   4.267
  941TIP3    H1 2787   2.325   1.713   4.173
  941TIP3    H2 2788   2.319   1.816   4.284
  942TIP3   OH2 2789   2.212   1.925   4.576
  942TIP3    H1 2790   2.294   1.880   4.599
  942TIP3    H2 2791   2.180   1.960   4.659
  943TIP3   OH2 2792   3.846   5.046   1.142
  943TIP3    H1 2793   3.893   5.013   1.066
  943TIP3    H2 2794   3.830   4.969   1.197
  944TIP3   OH2 2795   5.321   1.220   2.287
  944TIP3    H1 2796   5.359   1.207   2.200
  944TIP3    H2 2797   5.395   1.251   2.341
  945TIP3   OH2 2798   1.229   2.457   1.208
  945TIP3    H1 2799   1.162   2.501   1.260
  945TIP3    H2 2800   1.198   2.465   1.118
  946TIP3   OH2 2801   0.875   1.232   3.299
  946TIP3    H1 2802   0.783   1.233   3.327
  946TIP3    H2 2803   0.883   1.155   3.244
  947TIP3   OH2 2804   5.767   5.332   2.285
  947TIP3    H1 2805   5.816   5.399   2.239
  947TIP3    H2 2806   5.794   5.250   2.244
  948TIP3   OH2 2807   1.069   0.794   2.643
  948TIP3    H1 2808   0.977   0.820   2.631
  948TIP3    H2 2809   1.086   0.808   2.736
  949TIP3   OH2 2810   0.612   0.407   0.170
  949TIP3    H1 2811   0.629   0.382   0.079
  949TIP3    H2 2812   0.541   0.349   0.198
  950TIP3   OH2 2813   6.327   6.645   5.442
  950TIP3    H1 2814   6.258   6.653   5.377
  950TIP3    H2 2815   6.282   6.614   5.521
  951TIP3   OH2 2816   3.645   1.521   2.743
  951TIP3    H1 2817   3.593   1.552   2.668
  951TIP3    H2 2818   3.596   1.446   2.776
  952TIP3   OH2 2819   5.557   0.150   5.720
  952TIP3    H1 2820   5.624   0.131   5.654
  952TIP3    H2 2821   5.478   0.107   5.687
  953TIP3   OH2 2822   6.547   3.671   3.350
  953TIP3    H1 2823   6.543   3.716   3.434
  953TIP3    H2 2824   6.479   3.713   3.297
  954TIP3   OH2 2825   3.055   2.582   1.934
  954TIP3    H1 2826   3.129   2.592   1.994
  954TIP3    H2 2827   3.074   2.643   1.862
  955TIP3   OH2 2828   2.407   0.501   2.941
  955TIP3    H1 2829   2.454   0.479   2.861
  955TIP3    H2 2830   2.348   0.427   2.956
  956TIP3   OH2 2831   5.826   3.755   3.204
  956TIP3    H1 2832   5.775   3.749   3.124
  956TIP3    H2 2833   5.766   3.726   3.273
  957TIP3   OH2 2834   0.627   6.362   5.707
  957TIP3    H1 2835   0.643   6.440   5.655
  957TIP3    H2 2836   0.554   6.385   5.764
  958TIP3   OH2 2837   2.208   5.168   4.325
  958TIP3    H1 2838   2.275   5.166   4.394
  958TIP3    H2 2839   2.134   5.211   4.366
  959TIP3   OH2 2840   0.071   6.235   1.297
  959TIP3    H1 2841   0.082   6.330   1.291
  959TIP3    H2 2842   0.150   6.204   1.342
  960TIP3   OH2 2843   7.087   0.317   0.452
  960TIP3    H1 2844   7.141   0.381   0.407
  960TIP3    H2 2845   7.046   0.366   0.523
  961TIP3   OH2 2846   3.182   2.327   0.678
  961TIP3    H1 2847   3.119   2.352   0.746
  961TIP3    H2 2848   3.214   2.241   0.706
  962TIP3   OH2 2849   3.049   5.448   4.907
  962TIP3    H1 2850   3.126   5.392   4.914
  962TIP3    H2 2851   3.083   5.537   4.918
  963TIP3   OH2 2852   1.558   1.812   1.394
  963TIP3    H1 2853   1.521   1.728   1.419
  963TIP3    H2 2854   1.646   1.792   1.362
  964TIP3   OH2 2855   6.943   2.084   1.985
  964TIP3    H1 2856   6.858   2.120   2.011
  964TIP3    H2 2857   6.925   1.992   1.964
  965TIP3   OH2 2858   1.119   6.570   0.505
  965TIP3    H1 2859   1.204   6.540   0.473
  965TIP3    H2 2860   1.136   6.597   0.595
  966TIP3   OH2 2861   0.514   4.781   2.453
  966TIP3    H1 2862   0.464   4.735   2.520
  966TIP3    H2 2863   0.485   4.742   2.370
  967TIP3   OH2 2864   4.716   3.312   4.037
  967TIP3    H1 2865   4.749   3.224   4.057
  967TIP3    H2 2866   4.623   3.300   4.020
  968TIP3   OH2 2867   4.060   3.488   5.300
  968TIP3    H1 2868   4.121   3.432   5.251
  968TIP3    H2 2869   4.099   3.575   5.297
  969TIP3   OH2 2870   5.514   5.233   3.806
  969TIP3    H1 2871   5.505   5.325   3.781
  969TIP3    H2 2872   5.595   5.229   3.856
  970TIP3   OH2 2873   3.762   0.837   3.474
  970TIP3    H1 2874   3.700   0.764   3.465
  970TIP3    H2 2875   3.848   0.795   3.480
  971TIP3   OH2 2876   2.923   3.672   1.165
  971TIP3    H1 2877   2.947   3.612   1.236
  971TIP3    H2 2878   3.006   3.709   1.136
  972TIP3   OH2 2879   4.670   0.051   5.785
  972TIP3    H1 2880   4.612   0.095   5.723
  972TIP3    H2 2881   4.745   0.023   5.732
  973TIP3   OH2 2882   3.876   5.258   0.605
  973TIP3    H1 2883   3.845   5.221   0.523
  973TIP3    H2 2884   3.955   5.306   0.582
  974TIP3   OH2 2885   6.153   4.249   2.675
  974TIP3    H1 2886   6.216   4.245   2.604
  974TIP3    H2 2887   6.189   4.314   2.735
  975TIP3   OH2 2888   6.927   4.736   4.190
  975TIP3    H1 2889   7.016   4.757   4.218
  975TIP3    H2 2890   6.880   4.819   4.192
  976TIP3   OH2 2891   0.250   6.392   4.965
  976TIP3    H1 2892   0.194   6.316   4.982
  976TIP3    H2 2893   0.201   6.467   4.997
  977TIP3   OH2 2894   5.043   6.185   1.395
  977TIP3    H1 2895   5.118   6.237   1.424
  977TIP3    H2 2896   5.070   6.094   1.408
  978TIP3   OH2 2897   2.311   6.222   3.996
  978TIP3    H1 2898   2.231   6.179   4.024
  978TIP3    H2 2899   2.314   6.209   3.901
  979TIP3   OH2 2900   1.839   2.949   1.875
  979TIP3    H1 2901   1.754   2.950   1.921
  979TIP3    H2 2902   1.834   3.024   1.815
  980TIP3   OH2 2903   2.635   2.534   3.831
  980TIP3    H1 2904   2.632   2.629   3.827
  980TIP3    H2 2905   2.554   2.509   3.875
  981TIP3   OH2 2906   4.266   5.964   5.314
  981TIP3    H1 2907   4.224   5.921   5.389
  981TIP3    H2 2908   4.242   6.056   5.323
  982TIP3   OH2 2909   4.264   3.584   0.126
  982TIP3    H1 2910   4.171   3.596   0.141
  982TIP3    H2 2911   4.304   3.667   0.153
  983TIP3   OH2 2912   0.905   4.578   0.530
  983TIP3    H1 2913   0.813   4.596   0.508
  983TIP3    H2 2914   0.900   4.504   0.591
  984TIP3   OH2 2915   6.563   6.779   5.079
  984TIP3    H1 2916   6.584   6.792   4.986
  984TIP3    H2 2917   6.529   6.689   5.083
  985TIP3   OH2 2918   3.755   4.905   0.691
  985TIP3    H1 2919   3.720   4.972   0.749
  985TIP3    H2 2920   3.838   4.878   0.732
  986TIP3   OH2 2921   2.657   1.069   4.725
  986TIP3    H1 2922   2.723   1.124   4.682
  986TIP3    H2 2923   2.573   1.102   4.693
  987TIP3   OH2 2924   1.048   5.363   5.485
  987TIP3    H1 2925   0.981   5.407   5.538
  987TIP3    H2 2926   1.074   5.428   5.420
  988TIP3   OH2 2927   4.492   3.384   0.830
  988TIP3    H1 2928   4.495   3.385   0.734
  988TIP3    H2 2929   4.402   3.356   0.850
  989TIP3   OH2 2930   5.053   4.347   2.924
  989TIP3    H1 2931   5.137   4.365   2.882
  989TIP3    H2 2932   4.996   4.417   2.893
  990TIP3   OH2 2933   5.752   1.821   0.703
  990TIP3    H1 2934   5.756   1.746   0.762
  990TIP3    H2 2935   5.730   1.895   0.759
  991TIP3   OH2 2936   4.886   5.427   4.812
  991TIP3    H1 2937   4.895   5.361   4.880
  991TIP3    H2 2938   4.801   5.409   4.771
  992TIP3   OH2 2939   3.027   0.055   5.760
  992TIP3    H1 2940   2.949  -0.001   5.757
  992TIP3    H2 2941   3.097   0.000   5.724
  993TIP3   OH2 2942   1.400   5.804   0.380
  993TIP3    H1 2943   1.305   5.809   0.371
  993TIP3    H2 2944   1.420   5.711   0.377
  994TIP3   OH2 2945   5.432   1.240   3.359
  994TIP3    H1 2946   5.507   1.299   3.361
  994TIP3    H2 2947   5.470   1.153   3.367
  995TIP3   OH2 2948   1.108   6.461   0.967
  995TIP3    H1 2949   1.119   6.400   0.894
  995TIP3    H2 2950   1.161   6.537   0.944
  996TIP3   OH2 2951   4.241   4.944   0.046
  996TIP3    H1 2952   4.210   5.017  -0.009
  996TIP3    H2 2953   4.334   4.936   0.025
  997TIP3   OH2 2954   2.461   3.754   4.302
  997TIP3    H1 2955   2.500   3.785   4.384
  997TIP3    H2 2956   2.373   3.792   4.302
  998TIP3   OH2 2957   1.185   5.850   0.211
  998TIP3    H1 2958   1.230   5.792   0.150
  998TIP3    H2 2959   1.097   5.861   0.174
  999TIP3   OH2 2960   2.753   2.148   3.704
  999TIP3    H1 2961   2.771   2.200   3.783
  999TIP3    H2 2962   2.708   2.210   3.646
 1000TIP3   OH2 2963   1.567   3.475   4.004
 1000TIP3    H1 2964   1.528   3.455   4.089
 1000TIP3    H2 2965   1.503   3.445   3.940
 1001TIP3   OH2 2966   7.114   6.355   2.776
 1001TIP3    H1 2967   7.045   6.301   2.813
 1001TIP3    H2 2968   7.143   6.409   2.849
 1002TIP3   OH2 2969   2.456   2.431   0.493
 1002TIP3    H1 2970   2.432   2.402   0.581
 1002TIP3    H2 2971   2.424   2.362   0.435
 1003TIP3   OH2 2972   3.890   5.617   4.409
 1003TIP3    H1 2973   3.834   5.690   4.435
 1003TIP3    H2 2974   3.829   5.546   4.388
 1004TIP3   OH2 2975   2.506   4.711   4.892
 1004TIP3    H1 2976   2.527   4.739   4.803
 1004TIP3    H2 2977   2.569   4.642   4.912
 1005TIP3   OH2 2978   1.354   2.684   5.486
 1005TIP3    H1 2979   1.340   2.762   5.433
 1005TIP3    H2 2980   1.272   2.673   5.534
 1006TIP3   OH2 2981   5.782   6.001   1.489
 1006TIP3    H1 2982   5.798   6.080   1.436
 1006TIP3    H2 2983   5.731   6.033   1.564
 1007TIP3   OH2 2984   3.646   2.456   2.292
 1007TIP3    H1 2985   3.675   2.367   2.273
 1007TIP3    H2 2986   3.592   2.447   2.371
 1008TIP3   OH2 2987   4.832   6.215   0.877
 1008TIP3    H1 2988   4.867   6.304   0.867
 1008TIP3    H2 2989   4.851   6.192   0.968
 1009TIP3   OH2 2990   1.320   1.069   0.390
 1009TIP3    H1 2991   1.344   1.122   0.315
 1009TIP3    H2 2992   1.401   1.056   0.439
 1010TIP3   OH2 2993   0.188   0.560   2.951
 1010TIP3    H1 2994   0.200   0.499   2.879
 1010TIP3    H2 2995   0.107   0.531   2.994
 1011TIP3   OH2 2996   0.316   3.857   3.598
 1011TIP3    H1 2997   0.244   3.895   3.547
 1011TIP3    H2 2998   0.367   3.808   3.534
 1012TIP3   OH2 2999   6.507   6.231   0.811
 1012TIP3    H1 3000   6.414   6.254   0.813
 1012TIP3    H2 3001   6.527   6.205   0.900
 1013TIP3   OH2 3002   2.885   0.751   0.391
 1013TIP3    H1 3003   2.823   0.683   0.414
 1013TIP3    H2 3004   2.872   0.819   0.458
 1014TIP3   OH2 3005   4.830   2.461   4.478
 1014TIP3    H1 3006   4.806   2.381   4.431
 1014TIP3    H2 3007   4.814   2.441   4.570
 1015TIP3   OH2 3008   4.186   3.681   2.384
 1015TIP3    H1 3009   4.122   3.752   2.386
 1015TIP3    H2 3010   4.176   3.641   2.297
 1016TIP3   OH2 3011   4.765   2.471   2.017
 1016TIP3    H1 3012   4.691   2.510   2.064
 1016TIP3    H2 3013   4.811   2.546   1.981
 1017TIP3   OH2 3014   0.384   3.987   1.406
 1017TIP3    H1 3015   0.316   4.001   1.472
 1017TIP3    H2 3016   0.445   4.059   1.419
 1018TIP3   OH2 3017   0.366   3.632   5.854
 1018TIP3    H1 3018   0.303   3.698   5.880
 1018TIP3    H2 3019   0.419   3.674   5.786
 1019TIP3   OH2 3020   4.416   3.297   1.479
 1019TIP3    H1 3021   4.397   3.222   1.422
 1019TIP3    H2 3022   4.378   3.273   1.563
 1020TIP3   OH2 3023   0.883   3.218   1.172
 1020TIP3    H1 3024   0.971   3.189   1.148
 1020TIP3    H2 3025   0.832   3.138   1.175
 1021TIP3   OH2 3026   5.653   3.342   1.923
 1021TIP3    H1 3027   5.642   3.269   1.984
 1021TIP3    H2 3028   5.634   3.305   1.837
 1022TIP3   OH2 3029   6.971   6.314   3.550
 1022TIP3    H1 3030   6.975   6.329   3.645
 1022TIP3    H2 3031   6.953   6.400   3.513
 1023TIP3   OH2 3032   2.492   4.850   2.377
 1023TIP3    H1 3033   2.496   4.942   2.403
 1023TIP3    H2 3034   2.399   4.833   2.362
 1024TIP3   OH2 3035   3.676   4.454   1.454
 1024TIP3    H1 3036   3.716   4.399   1.387
 1024TIP3    H2 3037   3.582   4.443   1.440
 1025TIP3   OH2 3038   3.577   3.376   2.112
 1025TIP3    H1 3039   3.660   3.363   2.158
 1025TIP3    H2 3040   3.510   3.349   2.174
 1026TIP3   OH2 3041   4.619   6.218   1.269
 1026TIP3    H1 3042   4.630   6.303   1.227
 1026TIP3    H2 3043   4.536   6.185   1.235
 1027TIP3   OH2 3044   4.504   0.342   2.056
 1027TIP3    H1 3045   4.489   0.393   1.977
 1027TIP3    H2 3046   4.418   0.337   2.098
 1028TIP3   OH2 3047   4.247   0.836   4.106
 1028TIP3    H1 3048   4.249   0.824   4.201
 1028TIP3    H2 3049   4.181   0.903   4.092
 1029TIP3   OH2 3050   2.513   5.688   1.782
 1029TIP3    H1 3051   2.463   5.723   1.708
 1029TIP3    H2 3052   2.459   5.707   1.859
 1030TIP3   OH2 3053   6.242   3.328   2.414
 1030TIP3    H1 3054   6.190   3.357   2.489
 1030TIP3    H2 3055   6.289   3.251   2.447
 1031TIP3   OH2 3056   2.375   0.487   2.125
 1031TIP3    H1 3057   2.299   0.434   2.100
 1031TIP3    H2 3058   2.406   0.523   2.042
 1032TIP3   OH2 3059   3.913   4.564   1.872
 1032TIP3    H1 3060   3.973   4.493   1.848
 1032TIP3    H2 3061   3.916   4.625   1.798
 1033TIP3   OH2 3062   4.860   3.683   0.343
 1033TIP3    H1 3063   4.866   3.611   0.405
 1033TIP3    H2 3064   4.946   3.725   0.346
 1034TIP3   OH2 3065   4.673   1.768   2.538
 1034TIP3    H1 3066   4.703   1.859   2.545
 1034TIP3    H2 3067   4.583   1.770   2.572
 1035TIP3   OH2 3068   3.257   6.609   4.808
 1035TIP3    H1 3069   3.216   6.626   4.892
 1035TIP3    H2 3070   3.312   6.685   4.791
 1036TIP3   OH2 3071   6.094   0.261   1.720
 1036TIP3    H1 3072   6.055   0.187   1.767
 1036TIP3    H2 3073   6.161   0.295   1.781
 1037TIP3   OH2 3074   2.395   1.374   0.923
 1037TIP3    H1 3075   2.428   1.456   0.959
 1037TIP3    H2 3076   2.474   1.325   0.898
 1038TIP3   OH2 3077   0.200   2.322   5.613
 1038TIP3    H1 3078   0.119   2.350   5.570
 1038TIP3    H2 3079   0.264   2.389   5.589
 1039TIP3   OH2 3080   6.110   2.982   3.276
 1039TIP3    H1 3081   6.072   3.001   3.190
 1039TIP3    H2 3082   6.191   3.033   3.278
 1040TIP3   OH2 3083   0.502   6.676   1.668
 1040TIP3    H1 3084   0.522   6.598   1.617
 1040TIP3    H2 3085   0.531   6.655   1.757
 1041TIP3   OH2 3086   5.578   3.029   1.485
 1041TIP3    H1 3087   5.511   2.967   1.457
 1041TIP3    H2 3088   5.623   3.055   1.405
 1042TIP3   OH2 3089   0.291   6.145   2.140
 1042TIP3    H1 3090   0.206   6.132   2.098
 1042TIP3    H2 3091   0.314   6.060   2.177
 1043TIP3   OH2 3092   1.074   1.355   4.681
 1043TIP3    H1 3093   1.039   1.378   4.767
 1043TIP3    H2 3094   1.006   1.382   4.619
 1044TIP3   OH2 3095   3.784   5.456   5.226
 1044TIP3    H1 3096   3.819   5.538   5.191
 1044TIP3    H2 3097   3.829   5.444   5.309
 1045TIP3   OH2 3098   1.133   6.124   5.845
 1045TIP3    H1 3099   1.147   6.160   5.933
 1045TIP3    H2 3100   1.038   6.122   5.835
 1046TIP3   OH2 3101   1.487   5.019   2.335
 1046TIP3    H1 3102   1.547   4.945   2.321
 1046TIP3    H2 3103   1.465   5.015   2.428
 1047TIP3   OH2 3104   5.634   4.272   3.304
 1047TIP3    H1 3105   5.699   4.277   3.234
 1047TIP3    H2 3106   5.553   4.303   3.265
 1048TIP3   OH2 3107   3.387   0.686   4.811
 1048TIP3    H1 3108   3.361   0.767   4.766
 1048TIP3    H2 3109   3.378   0.706   4.904
 1049TIP3   OH2 3110   0.343   0.162   1.620
 1049TIP3    H1 3111   0.310   0.081   1.658
 1049TIP3    H2 3112   0.429   0.175   1.662
 1050TIP3   OH2 3113   6.872   2.826   4.330
 1050TIP3    H1 3114   6.881   2.787   4.243
 1050TIP3    H2 3115   6.930   2.774   4.385
 1051TIP3   OH2 3116   0.262   1.675   5.817
 1051TIP3    H1 3117   0.247   1.709   5.728
 1051TIP3    H2 3118   0.320   1.740   5.857
 1052TIP3   OH2 3119   1.195   1.170   4.244
 1052TIP3    H1 3120   1.136   1.233   4.203
 1052TIP3    H2 3121   1.166   1.085   4.213
 1053TIP3   OH2 3122   5.297   0.979   5.395
 1053TIP3    H1 3123   5.218   0.941   5.432
 1053TIP3    H2 3124   5.292   1.072   5.417
 1054TIP3   OH2 3125   4.351   6.386   5.204
 1054TIP3    H1 3126   4.282   6.343   5.254
 1054TIP3    H2 3127   4.420   6.321   5.197
 1055TIP3   OH2 3128   2.832   3.645   5.451
 1055TIP3    H1 3129   2.901   3.701   5.487
 1055TIP3    H2 3130   2.878   3.586   5.391
 1056TIP3   OH2 3131   6.890   4.832   2.951
 1056TIP3    H1 3132   6.800   4.807   2.931
 1056TIP3    H2 3133   6.886   4.872   3.037
 1057TIP3   OH2 3134   1.597   0.373   3.607
 1057TIP3    H1 3135   1.529   0.314   3.641
 1057TIP3    H2 3136   1.670   0.315   3.585
 1058TIP3   OH2 3137   0.542   5.342   1.357
 1058TIP3    H1 3138   0.461   5.332   1.307
 1058TIP3    H2 3139   0.595   5.403   1.305
 1059TIP3   OH2 3140   0.875   1.196   0.903
 1059TIP3    H1 3141   0.808   1.136   0.869
 1059TIP3    H2 3142   0.903   1.247   0.827
 1060TIP3   OH2 3143   3.365   5.485   0.128
 1060TIP3    H1 3144   3.435   5.445   0.077
 1060TIP3    H2 3145   3.326   5.549   0.068
 1061TIP3   OH2 3146   2.323   6.767   0.966
 1061TIP3    H1 3147   2.272   6.739   1.042
 1061TIP3    H2 3148   2.310   6.861   0.961
 1062TIP3   OH2 3149   2.145   1.377   0.343
 1062TIP3    H1 3150   2.058   1.409   0.369
 1062TIP3    H2 3151   2.200   1.455   0.344
 1063TIP3   OH2 3152   7.159   3.601   2.615
 1063TIP3    H1 3153   7.242   3.597   2.661
 1063TIP3    H2 3154   7.134   3.693   2.620
 1064TIP3   OH2 3155   2.386   5.464   0.076
 1064TIP3    H1 3156   2.364   5.544   0.029
 1064TIP3    H2 3157   2.383   5.489   0.168
 1065TIP3   OH2 3158   1.217   6.195   3.302
 1065TIP3    H1 3159   1.311   6.186   3.284
 1065TIP3    H2 3160   1.213   6.219   3.395
 1066TIP3   OH2 3161   0.137   1.512   0.744
 1066TIP3    H1 3162   0.066   1.575   0.729
 1066TIP3    H2 3163   0.107   1.458   0.817
 1067TIP3   OH2 3164   6.729   0.777   4.712
 1067TIP3    H1 3165   6.654   0.800   4.767
 1067TIP3    H2 3166   6.796   0.841   4.735
 1068TIP3   OH2 3167   6.766   6.575   1.471
 1068TIP3    H1 3168   6.732   6.553   1.558
 1068TIP3    H2 3169   6.861   6.565   1.481
 1069TIP3   OH2 3170   6.843   5.145   2.904
 1069TIP3    H1 3171   6.826   5.067   2.850
 1069TIP3    H2 3172   6.764   5.155   2.957
 1070TIP3   OH2 3173   0.153   6.744   4.813
 1070TIP3    H1 3174   0.122   6.761   4.902
 1070TIP3    H2 3175   0.156   6.830   4.771
 1071TIP3   OH2 3176   4.479   4.581   3.624
 1071TIP3    H1 3177   4.557   4.525   3.616
 1071TIP3    H2 3178   4.451   4.569   3.715
 1072TIP3   OH2 3179   5.868   0.297   3.882
 1072TIP3    H1 3180   5.896   0.362   3.818
 1072TIP3    H2 3181   5.773   0.292   3.872
 1073TIP3   OH2 3182   6.381   6.467   4.735
 1073TIP3    H1 3183   6.316   6.428   4.677
 1073TIP3    H2 3184   6.349   6.556   4.750
 1074TIP3   OH2 3185   5.828   5.751   0.528
 1074TIP3    H1 3186   5.798   5.817   0.466
 1074TIP3    H2 3187   5.912   5.722   0.492
 1075TIP3   OH2 3188   0.505   6.204   3.274
 1075TIP3    H1 3189   0.464   6.200   3.187
 1075TIP3    H2 3190   0.527   6.296   3.286
 1076TIP3   OH2 3191   6.528   6.054   0.324
 1076TIP3    H1 3192   6.482   6.111   0.386
 1076TIP3    H2 3193   6.511   6.094   0.239
 1077TIP3   OH2 3194   3.655   6.725   2.172
 1077TIP3    H1 3195   3.656   6.704   2.266
 1077TIP3    H2 3196   3.711   6.803   2.165
 1078TIP3   OH2 3197   3.878   0.687   2.838
 1078TIP3    H1 3198   3.829   0.724   2.764
 1078TIP3    H2 3199   3.905   0.763   2.889
 1079TIP3   OH2 3200   5.644   4.843   2.032
 1079TIP3    H1 3201   5.584   4.853   1.959
 1079TIP3    H2 3202   5.610   4.769   2.082
 1080TIP3   OH2 3203   0.504   1.665   2.402
 1080TIP3    H1 3204   0.571   1.662   2.470
 1080TIP3    H2 3205   0.423   1.639   2.446
 1081TIP3   OH2 3206   4.857   4.809   5.059
 1081TIP3    H1 3207   4.843   4.739   5.123
 1081TIP3    H2 3208   4.944   4.791   5.023
 1082TIP3   OH2 3209   0.890   6.267   2.711
 1082TIP3    H1 3210   0.933   6.258   2.796
 1082TIP3    H2 3211   0.909   6.184   2.666
 1083TIP3   OH2 3212   1.455   3.278   3.123
 1083TIP3    H1 3213   1.441   3.242   3.035
 1083TIP3    H2 3214   1.550   3.282   3.133
 1084TIP3   OH2 3215   6.743   5.421   2.851
 1084TIP3    H1 3216   6.723   5.441   2.760
 1084TIP3    H2 3217   6.784   5.334   2.848
 1085TIP3   OH2 3218   3.148   4.401   4.634
 1085TIP3    H1 3219   3.187   4.488   4.638
 1085TIP3    H2 3220   3.101   4.400   4.550
 1086TIP3   OH2 3221   5.947   5.805   1.539
 1086TIP3    H1 3222   5.884   5.876   1.534
 1086TIP3    H2 3223   6.011   5.835   1.604
 1087TIP3   OH2 3224   0.079   4.132   4.917
 1087TIP3    H1 3225   0.125   4.064   4.868
 1087TIP3    H2 3226   0.148   4.182   4.960
 1088TIP3   OH2 3227   2.310   5.717   0.778
 1088TIP3    H1 3228   2.356   5.633   0.784
 1088TIP3    H2 3229   2.326   5.747   0.688
 1089TIP3   OH2 3230   1.084   2.352   3.534
 1089TIP3    H1 3231   1.180   2.349   3.530
 1089TIP3    H2 3232   1.058   2.260   3.542
 1090TIP3   OH2 3233   3.705   2.597   2.937
 1090TIP3    H1 3234   3.796   2.621   2.923
 1090TIP3    H2 3235   3.680   2.550   2.858
 1091TIP3   OH2 3236   6.690   0.152   1.155
 1091TIP3    H1 3237   6.721   0.105   1.078
 1091TIP3    H2 3238   6.595   0.154   1.145
 1092TIP3   OH2 3239   0.772   2.090   3.046
 1092TIP3    H1 3240   0.809   2.080   2.958
 1092TIP3    H2 3241   0.844   2.067   3.105
 1093TIP3   OH2 3242   6.589   0.610   3.359
 1093TIP3    H1 3243   6.546   0.585   3.278
 1093TIP3    H2 3244   6.680   0.585   3.346
 1094TIP3   OH2 3245   4.387   1.314   4.024
 1094TIP3    H1 3246   4.474   1.275   4.021
 1094TIP3    H2 3247   4.328   1.244   3.996
 1095TIP3   OH2 3248   6.926   2.715   4.079
 1095TIP3    H1 3249   6.896   2.713   3.989
 1095TIP3    H2 3250   6.964   2.628   4.093
 1096TIP3   OH2 3251   3.444   0.243   4.599
 1096TIP3    H1 3252   3.411   0.325   4.636
 1096TIP3    H2 3253   3.539   0.250   4.608
 1097TIP3   OH2 3254   3.256   1.768   1.289
 1097TIP3    H1 3255   3.267   1.780   1.194
 1097TIP3    H2 3256   3.224   1.853   1.320
 1098TIP3   OH2 3257   5.800   6.772   2.395
 1098TIP3    H1 3258   5.844   6.825   2.462
 1098TIP3    H2 3259   5.831   6.807   2.312
 1099TIP3   OH2 3260   5.925   0.208   4.629
 1099TIP3    H1 3261   5.966   0.220   4.544
 1099TIP3    H2 3262   5.997   0.192   4.689
 1100TIP3   OH2 3263   5.708   4.184   5.895
 1100TIP3    H1 3264   5.710   4.089   5.885
 1100TIP3    H2 3265   5.778   4.215   5.837
 1101TIP3   OH2 3266   1.793   1.181   0.061
 1101TIP3    H1 3267   1.736   1.249   0.025
 1101TIP3    H2 3268   1.880   1.222   0.061
 1102TIP3   OH2 3269   3.272   0.755   2.907
 1102TIP3    H1 3270   3.358   0.759   2.863
 1102TIP3    H2 3271   3.237   0.669   2.882
 1103TIP3   OH2 3272   2.387   1.986   3.856
 1103TIP3    H1 3273   2.430   2.032   3.929
 1103TIP3    H2 3274   2.371   2.054   3.791
 1104TIP3   OH2 3275   2.060   1.885   3.408
 1104TIP3    H1 3276   2.098   1.803   3.440
 1104TIP3    H2 3277   2.127   1.951   3.426
 1105TIP3   OH2 3278   1.700   5.315   3.297
 1105TIP3    H1 3279   1.640   5.356   3.235
 1105TIP3    H2 3280   1.787   5.325   3.258
 1106TIP3   OH2 3281   2.294   0.895   3.479
 1106TIP3    H1 3282   2.327   0.974   3.521
 1106TIP3    H2 3283   2.200   0.898   3.493
 1107TIP3   OH2 3284   7.035   6.604   1.513
 1107TIP3    H1 3285   7.116   6.648   1.486
 1107TIP3    H2 3286   7.060   6.514   1.532
 1108TIP3   OH2 3287   5.238   5.259   3.725
 1108TIP3    H1 3288   5.275   5.196   3.788
 1108TIP3    H2 3289   5.153   5.222   3.701
 1109TIP3   OH2 3290   2.392   3.248   1.809
 1109TIP3    H1 3291   2.308   3.204   1.796
 1109TIP3    H2 3292   2.418   3.278   1.722
 1110TIP3   OH2 3293   3.362   5.400   0.880
 1110TIP3    H1 3294   3.338   5.428   0.792
 1110TIP3    H2 3295   3.322   5.314   0.891
 1111TIP3   OH2 3296   3.515   1.489   0.830
 1111TIP3    H1 3297   3.537   1.474   0.922
 1111TIP3    H2 3298   3.482   1.405   0.799
 1112TIP3   OH2 3299   1.002   5.786   3.327
 1112TIP3    H1 3300   0.965   5.762   3.242
 1112TIP3    H2 3301   1.077   5.727   3.338
 1113TIP3   OH2 3302   3.787   3.137   3.426
 1113TIP3    H1 3303   3.707   3.126   3.375
 1113TIP3    H2 3304   3.833   3.210   3.385
 1114TIP3   OH2 3305   1.871   0.713   5.496
 1114TIP3    H1 3306   1.912   0.631   5.468
 1114TIP3    H2 3307   1.798   0.726   5.435
 1115TIP3   OH2 3308   4.029   5.624   2.145
 1115TIP3    H1 3309   4.006   5.686   2.075
 1115TIP3    H2 3310   4.106   5.579   2.112
 1116TIP3   OH2 3311   0.742   4.432   1.212
 1116TIP3    H1 3312   0.671   4.494   1.197
 1116TIP3    H2 3313   0.816   4.487   1.240
 1117TIP3   OH2 3314   4.338   3.706   5.673
 1117TIP3    H1 3315   4.405   3.774   5.660
 1117TIP3    H2 3316   4.294   3.732   5.754
 1118TIP3   OH2 3317   3.221   1.627   4.460
 1118TIP3    H1 3318   3.185   1.652   4.375
 1118TIP3    H2 3319   3.281   1.699   4.482
 1119TIP3   OH2 3320   3.296   4.088   2.683
 1119TIP3    H1 3321   3.287   4.038   2.602
 1119TIP3    H2 3322   3.376   4.054   2.723
 1120TIP3   OH2 3323   5.153   1.579   4.463
 1120TIP3    H1 3324   5.074   1.524   4.461
 1120TIP3    H2 3325   5.133   1.646   4.529
 1121TIP3   OH2 3326   0.718   1.663   2.565
 1121TIP3    H1 3327   0.708   1.727   2.636
 1121TIP3    H2 3328   0.802   1.621   2.582
 1122TIP3   OH2 3329   4.167   2.295   0.222
 1122TIP3    H1 3330   4.169   2.213   0.271
 1122TIP3    H2 3331   4.082   2.334   0.244
 1123TIP3   OH2 3332   1.921   2.041   0.729
 1123TIP3    H1 3333   1.904   1.964   0.675
 1123TIP3    H2 3334   1.996   2.015   0.783
 1124TIP3   OH2 3335   0.260   3.238   1.060
 1124TIP3    H1 3336   0.183   3.181   1.070
 1124TIP3    H2 3337   0.231   3.308   1.002
 1125TIP3   OH2 3338   0.468   5.821   2.737
 1125TIP3    H1 3339   0.429   5.900   2.700
 1125TIP3    H2 3340   0.537   5.854   2.795
 1126TIP3   OH2 3341   0.972   4.900   3.340
 1126TIP3    H1 3342   1.048   4.944   3.302
 1126TIP3    H2 3343   0.989   4.901   3.435
 1127TIP3   OH2 3344   0.549   3.012   4.339
 1127TIP3    H1 3345   0.592   2.931   4.366
 1127TIP3    H2 3346   0.578   3.077   4.403
 1128TIP3   OH2 3347   5.188   6.651   2.383
 1128TIP3    H1 3348   5.095   6.650   2.406
 1128TIP3    H2 3349   5.230   6.601   2.452
 1129TIP3   OH2 3350   4.728   2.075   5.604
 1129TIP3    H1 3351   4.749   2.132   5.677
 1129TIP3    H2 3352   4.650   2.026   5.632
 1130TIP3   OH2 3353   1.491   3.799   4.469
 1130TIP3    H1 3354   1.403   3.786   4.433
 1130TIP3    H2 3355   1.534   3.714   4.461
 1131TIP3   OH2 3356   3.984   5.113   5.292
 1131TIP3    H1 3357   4.037   5.175   5.243
 1131TIP3    H2 3358   4.046   5.068   5.349
 1132TIP3   OH2 3359   6.810   4.923   1.166
 1132TIP3    H1 3360   6.734   4.981   1.167
 1132TIP3    H2 3361   6.883   4.979   1.193
 1133TIP3   OH2 3362   5.155   4.122   1.135
 1133TIP3    H1 3363   5.141   4.027   1.136
 1133TIP3    H2 3364   5.211   4.137   1.059
 1134TIP3   OH2 3365   5.163   1.561   3.370
 1134TIP3    H1 3366   5.180   1.537   3.461
 1134TIP3    H2 3367   5.147   1.477   3.326
 1135TIP3   OH2 3368   1.090   6.152   4.222
 1135TIP3    H1 3369   1.066   6.236   4.260
 1135TIP3    H2 3370   1.172   6.169   4.175
 1136TIP3   OH2 3371   0.700   0.021   4.497
 1136TIP3    H1 3372   0.724  -0.056   4.446
 1136TIP3    H2 3373   0.688   0.091   4.432
 1137TIP3   OH2 3374   0.483   0.085   4.659
 1137TIP3    H1 3375   0.556   0.141   4.687
 1137TIP3    H2 3376   0.525   0.015   4.609
 1138TIP3   OH2 3377   4.432   2.769   1.815
 1138TIP3    H1 3378   4.517   2.791   1.853
 1138TIP3    H2 3379   4.426   2.824   1.737
 1139TIP3   OH2 3380   4.620   1.278   5.198
 1139TIP3    H1 3381   4.691   1.244   5.253
 1139TIP3    H2 3382   4.662   1.296   5.113
 1140TIP3   OH2 3383   1.418   3.579   1.363
 1140TIP3    H1 3384   1.353   3.559   1.296
 1140TIP3    H2 3385   1.467   3.653   1.327
 1141TIP3   OH2 3386   7.182   0.427   2.042
 1141TIP3    H1 3387   7.266   0.450   2.003
 1141TIP3    H2 3388   7.169   0.335   2.018
 1142TIP3   OH2 3389   2.625   6.531   4.515
 1142TIP3    H1 3390   2.566   6.456   4.514
 1142TIP3    H2 3391   2.666   6.528   4.602
 1143TIP3   OH2 3392   6.872   2.846   4.991
 1143TIP3    H1 3393   6.914   2.928   4.964
 1143TIP3    H2 3394   6.906   2.830   5.079
 1144TIP3   OH2 3395   5.625   3.632   5.938
 1144TIP3    H1 3396   5.708   3.620   5.983
 1144TIP3    H2 3397   5.641   3.603   5.848
 1145TIP3   OH2 3398   2.934   5.709   3.706
 1145TIP3    H1 3399   3.007   5.654   3.732
 1145TIP3    H2 3400   2.938   5.784   3.765
 1146TIP3   OH2 3401   6.426   6.315   2.873
 1146TIP3    H1 3402   6.459   6.404   2.886
 1146TIP3    H2 3403   6.340   6.327   2.833
 1147TIP3   OH2 3404   6.368   2.936   0.470
 1147TIP3    H1 3405   6.325   3.020   0.485
 1147TIP3    H2 3406   6.331   2.904   0.388
 1148TIP3   OH2 3407   2.842   4.370   4.053
 1148TIP3    H1 3408   2.770   4.315   4.020
 1148TIP3    H2 3409   2.914   4.353   3.992
 1149TIP3   OH2 3410   1.478   4.469   5.494
 1149TIP3    H1 3411   1.432   4.386   5.483
 1149TIP3    H2 3412   1.480   4.507   5.406
 1150TIP3   OH2 3413   6.889   1.246   4.441
 1150TIP3    H1 3414   6.944   1.283   4.372
 1150TIP3    H2 3415   6.947   1.240   4.517
 1151TIP3   OH2 3416   5.665   2.652   1.506
 1151TIP3    H1 3417   5.716   2.706   1.566
 1151TIP3    H2 3418   5.574   2.668   1.531
 1152TIP3   OH2 3419   6.729   1.226   0.873
 1152TIP3    H1 3420   6.642   1.244   0.907
 1152TIP3    H2 3421   6.769   1.312   0.862
 1153TIP3   OH2 3422   5.054   3.682   5.563
 1153TIP3    H1 3423   4.988   3.628   5.607
 1153TIP3    H2 3424   5.042   3.769   5.601
 1154TIP3   OH2 3425   1.714   2.980   4.604
 1154TIP3    H1 3426   1.787   2.941   4.556
 1154TIP3    H2 3427   1.713   2.935   4.688
 1155TIP3   OH2 3428   0.907   0.290   0.613
 1155TIP3    H1 3429   0.976   0.276   0.548
 1155TIP3    H2 3430   0.907   0.384   0.629
 1156TIP3   OH2 3431   2.685   1.362   2.239
 1156TIP3    H1 3432   2.687   1.369   2.334
 1156TIP3    H2 3433   2.738   1.435   2.208
 1157TIP3   OH2 3434   3.096   2.635   4.762
 1157TIP3    H1 3435   3.054   2.719   4.745
 1157TIP3    H2 3436   3.042   2.594   4.830
 1158TIP3   OH2 3437   2.397   2.361   2.975
 1158TIP3    H1 3438   2.491   2.366   2.990
 1158TIP3    H2 3439   2.358   2.394   3.056
 1159TIP3   OH2 3440   4.120   1.698   0.077
 1159TIP3    H1 3441   4.054   1.764   0.098
 1159TIP3    H2 3442   4.145   1.717  -0.014
 1160TIP3   OH2 3443   1.452   6.021   0.907
 1160TIP3    H1 3444   1.425   5.984   0.823
 1160TIP3    H2 3445   1.547   6.015   0.906
 1161TIP3   OH2 3446   0.416   2.917   1.614
 1161TIP3    H1 3447   0.393   2.962   1.695
 1161TIP3    H2 3448   0.341   2.930   1.557
 1162TIP3   OH2 3449   1.668   6.366   5.435
 1162TIP3    H1 3450   1.699   6.406   5.516
 1162TIP3    H2 3451   1.620   6.288   5.464
 1163TIP3   OH2 3452   3.780   4.312   2.335
 1163TIP3    H1 3453   3.786   4.304   2.240
 1163TIP3    H2 3454   3.851   4.373   2.358
 1164TIP3   OH2 3455   4.755   0.463   2.659
 1164TIP3    H1 3456   4.798   0.548   2.658
 1164TIP3    H2 3457   4.824   0.400   2.639
 1165TIP3   OH2 3458   2.373   3.884   1.448
 1165TIP3    H1 3459   2.306   3.846   1.505
 1165TIP3    H2 3460   2.327   3.904   1.367
 1166TIP3   OH2 3461   0.632   0.925   0.070
 1166TIP3    H1 3462   0.580   0.961  -0.003
 1166TIP3    H2 3463   0.594   0.838   0.086
 1167TIP3   OH2 3464   4.786   2.326   4.000
 1167TIP3    H1 3465   4.832   2.396   4.047
 1167TIP3    H2 3466   4.830   2.322   3.915
 1168TIP3   OH2 3467   0.071   0.693   3.564
 1168TIP3    H1 3468   0.057   0.783   3.535
 1168TIP3    H2 3469   0.023   0.686   3.646
 1169TIP3   OH2 3470   6.857   3.403   4.450
 1169TIP3    H1 3471   6.883   3.442   4.533
 1169TIP3    H2 3472   6.838   3.478   4.393
 1170TIP3   OH2 3473   2.075   4.046   2.051
 1170TIP3    H1 3474   2.077   4.008   1.964
 1170TIP3    H2 3475   2.107   4.136   2.039
 1171TIP3   OH2 3476   7.111   6.028   2.575
 1171TIP3    H1 3477   7.038   6.088   2.563
 1171TIP3    H2 3478   7.173   6.075   2.630
 1172TIP3   OH2 3479   3.509   6.341   1.442
 1172TIP3    H1 3480   3.433   6.380   1.484
 1172TIP3    H2 3481   3.482   6.327   1.352
 1173TIP3   OH2 3482   4.349   0.686   0.807
 1173TIP3    H1 3483   4.301   0.769   0.800
 1173TIP3    H2 3484   4.430   0.709   0.853
 1174TIP3   OH2 3485   3.436   1.243   1.336
 1174TIP3    H1 3486   3.372   1.260   1.405
 1174TIP3    H2 3487   3.507   1.197   1.381
 1175TIP3   OH2 3488   1.903   1.258   4.927
 1175TIP3    H1 3489   1.865   1.219   5.006
 1175TIP3    H2 3490   1.923   1.348   4.952
 1176TIP3   OH2 3491   3.846   2.923   1.051
 1176TIP3    H1 3492   3.893   2.840   1.056
 1176TIP3    H2 3493   3.806   2.933   1.138
 1177TIP3   OH2 3494   4.942   0.137   5.320
 1177TIP3    H1 3495   5.027   0.101   5.342
 1177TIP3    H2 3496   4.938   0.220   5.366
 1178TIP3   OH2 3497   7.138   3.718   5.147
 1178TIP3    H1 3498   7.145   3.800   5.099
 1178TIP3    H2 3499   7.216   3.717   5.203
 1179TIP3   OH2 3500   1.543   2.419   4.275
 1179TIP3    H1 3501   1.522   2.328   4.254
 1179TIP3    H2 3502   1.605   2.414   4.347
 1180TIP3   OH2 3503   6.424   2.656   5.621
 1180TIP3    H1 3504   6.371   2.676   5.544
 1180TIP3    H2 3505   6.514   2.653   5.588
 1181TIP3   OH2 3506   3.993   0.395   1.379
 1181TIP3    H1 3507   4.041   0.468   1.418
 1181TIP3    H2 3508   4.020   0.319   1.430
 1182TIP3   OH2 3509   5.540   5.765   1.537
 1182TIP3    H1 3510   5.601   5.729   1.602
 1182TIP3    H2 3511   5.596   5.813   1.476
 1183TIP3   OH2 3512   2.216   2.633   2.967
 1183TIP3    H1 3513   2.287   2.584   2.925
 1183TIP3    H2 3514   2.231   2.622   3.060
 1184TIP3   OH2 3515   1.369   4.694   1.476
 1184TIP3    H1 3516   1.292   4.638   1.469
 1184TIP3    H2 3517   1.433   4.654   1.416
 1185TIP3   OH2 3518   0.099   6.588   0.403
 1185TIP3    H1 3519   0.030   6.551   0.347
 1185TIP3    H2 3520   0.173   6.600   0.343
 1186TIP3   OH2 3521   6.638   4.143   5.375
 1186TIP3    H1 3522   6.589   4.157   5.456
 1186TIP3    H2 3523   6.575   4.101   5.316
 1187TIP3   OH2 3524   0.627   5.618   2.029
 1187TIP3    H1 3525   0.615   5.541   2.085
 1187TIP3    H2 3526   0.705   5.661   2.063
 1188TIP3   OH2 3527   2.974   2.036   0.713
 1188TIP3    H1 3528   2.980   2.042   0.617
 1188TIP3    H2 3529   2.881   2.021   0.730
 1189TIP3   OH2 3530   0.069   5.610   1.697
 1189TIP3    H1 3531   0.147   5.592   1.748
 1189TIP3    H2 3532   0.099   5.608   1.606
 1190TIP3   OH2 3533   3.574   1.629   0.605
 1190TIP3    H1 3534   3.613   1.582   0.531
 1190TIP3    H2 3535   3.564   1.563   0.673
 1191TIP3   OH2 3536   6.444   0.511   1.197
 1191TIP3    H1 3537   6.487   0.425   1.195
 1191TIP3    H2 3538   6.443   0.539   1.105
 1192TIP3   OH2 3539   7.248   2.893   1.392
 1192TIP3    H1 3540   7.191   2.868   1.319
 1192TIP3    H2 3541   7.189   2.909   1.465
 1193TIP3   OH2 3542   6.497   5.605   1.788
 1193TIP3    H1 3543   6.472   5.629   1.877
 1193TIP3    H2 3544   6.571   5.663   1.767
 1194TIP3   OH2 3545   5.029   5.313   0.835
 1194TIP3    H1 3546   4.970   5.354   0.899
 1194TIP3    H2 3547   5.057   5.385   0.778
 1195TIP3   OH2 3548   6.576   3.639   1.842
 1195TIP3    H1 3549   6.499   3.650   1.898
 1195TIP3    H2 3550   6.571   3.712   1.780
 1196TIP3   OH2 3551   5.310   3.703   2.128
 1196TIP3    H1 3552   5.363   3.721   2.050
 1196TIP3    H2 3553   5.295   3.609   2.125
 1197TIP3   OH2 3554   2.929   2.406   2.965
 1197TIP3    H1 3555   2.978   2.437   2.889
 1197TIP3    H2 3556   2.865   2.475   2.981
 1198TIP3   OH2 3557   0.659   0.722   0.822
 1198TIP3    H1 3558   0.729   0.768   0.776
 1198TIP3    H2 3559   0.628   0.784   0.887
 1199TIP3   OH2 3560   4.588   4.973   1.470
 1199TIP3    H1 3561   4.638   4.983   1.551
 1199TIP3    H2 3562   4.577   5.062   1.437
 1200TIP3   OH2 3563   6.341   5.657   3.094
 1200TIP3    H1 3564   6.364   5.721   3.027
 1200TIP3    H2 3565   6.416   5.655   3.153
 1201TIP3   OH2 3566   6.625   2.193   0.656
 1201TIP3    H1 3567   6.634   2.114   0.604
 1201TIP3    H2 3568   6.598   2.261   0.593
 1202TIP3   OH2 3569   0.817   2.792   5.525
 1202TIP3    H1 3570   0.804   2.885   5.508
 1202TIP3    H2 3571   0.911   2.783   5.541
 1203TIP3   OH2 3572   0.061   4.685   5.639
 1203TIP3    H1 3573   0.090   4.721   5.556
 1203TIP3    H2 3574  -0.033   4.705   5.642
 1204TIP3   OH2 3575   6.776   3.736   2.494
 1204TIP3    H1 3576   6.796   3.776   2.579
 1204TIP3    H2 3577   6.804   3.645   2.504
 1205TIP3   OH2 3578   4.846   3.975   2.212
 1205TIP3    H1 3579   4.763   4.014   2.186
 1205TIP3    H2 3580   4.843   3.886   2.180
 1206TIP3   OH2 3581   1.875   4.900   3.648
 1206TIP3    H1 3582   1.961   4.936   3.626
 1206TIP3    H2 3583   1.842   4.958   3.717
 1207TIP3   OH2 3584   4.352   2.834   3.571
 1207TIP3    H1 3585   4.279   2.813   3.513
 1207TIP3    H2 3586   4.410   2.757   3.566
 1208TIP3   OH2 3587  -0.019   3.231   5.086
 1208TIP3    H1 3588  -0.041   3.313   5.042
 1208TIP3    H2 3589   0.075   3.238   5.102
 1209TIP3   OH2 3590   6.332   2.382   1.077
 1209TIP3    H1 3591   6.272   2.340   1.138
 1209TIP3    H2 3592   6.379   2.447   1.129
 1210TIP3   OH2 3593   2.974   2.891   4.703
 1210TIP3    H1 3594   2.938   2.893   4.614
 1210TIP3    H2 3595   3.057   2.939   4.696
 1211TIP3   OH2 3596   0.390   4.901   0.102
 1211TIP3    H1 3597   0.470   4.950   0.123
 1211TIP3    H2 3598   0.349   4.952   0.031
 1212TIP3   OH2 3599   3.438   6.171   3.203
 1212TIP3    H1 3600   3.502   6.148   3.136
 1212TIP3    H2 3601   3.394   6.088   3.223
 1213TIP3   OH2 3602   5.420   6.448   1.758
 1213TIP3    H1 3603   5.396   6.531   1.716
 1213TIP3    H2 3604   5.444   6.472   1.847
 1214TIP3   OH2 3605   3.798   6.442   5.682
 1214TIP3    H1 3606   3.819   6.502   5.754
 1214TIP3    H2 3607   3.747   6.495   5.621
 1215TIP3   OH2 3608   6.127   3.624   3.108
 1215TIP3    H1 3609   6.170   3.638   3.023
 1215TIP3    H2 3610   6.035   3.645   3.091
 1216TIP3   OH2 3611   2.742   6.161   0.113
 1216TIP3    H1 3612   2.678   6.089   0.115
 1216TIP3    H2 3613   2.766   6.174   0.204
 1217TIP3   OH2 3614   2.950   0.308   1.974
 1217TIP3    H1 3615   2.872   0.363   1.978
 1217TIP3    H2 3616   2.933   0.248   1.901
 1218TIP3   OH2 3617   6.726   0.885   3.005
 1218TIP3    H1 3618   6.701   0.976   2.989
 1218TIP3    H2 3619   6.818   0.889   3.031
 1219TIP3   OH2 3620   7.168   4.171   3.337
 1219TIP3    H1 3621   7.238   4.235   3.321
 1219TIP3    H2 3622   7.087   4.221   3.322
 1220TIP3   OH2 3623   4.285   0.309   1.332
 1220TIP3    H1 3624   4.247   0.377   1.277
 1220TIP3    H2 3625   4.212   0.251   1.353
 1221TIP3   OH2 3626   0.009   2.545   3.357
 1221TIP3    H1 3627  -0.001   2.613   3.423
 1221TIP3    H2 3628   0.044   2.470   3.404
 1222TIP3   OH2 3629   2.954   1.783   0.154
 1222TIP3    H1 3630   2.990   1.868   0.130
 1222TIP3    H2 3631   3.028   1.723   0.149
 1223TIP3   OH2 3632   4.640   4.820   3.887
 1223TIP3    H1 3633   4.564   4.761   3.879
 1223TIP3    H2 3634   4.608   4.904   3.855
 1224TIP3   OH2 3635   3.773   3.083   0.664
 1224TIP3    H1 3636   3.814   3.018   0.607
 1224TIP3    H2 3637   3.683   3.091   0.632
 1225TIP3   OH2 3638   0.706   4.284   3.744
 1225TIP3    H1 3639   0.749   4.199   3.730
 1225TIP3    H2 3640   0.613   4.263   3.747
 1226TIP3   OH2 3641   0.264   4.157   3.108
 1226TIP3    H1 3642   0.339   4.114   3.066
 1226TIP3    H2 3643   0.188   4.109   3.077
 1227TIP3   OH2 3644   5.032   5.011   1.812
 1227TIP3    H1 3645   4.979   4.958   1.752
 1227TIP3    H2 3646   4.970   5.073   1.850
 1228TIP3   OH2 3647   2.830   5.826   4.600
 1228TIP3    H1 3648   2.851   5.772   4.524
 1228TIP3    H2 3649   2.799   5.764   4.666
 1229TIP3   OH2 3650   0.898   4.498   4.058
 1229TIP3    H1 3651   0.863   4.409   4.063
 1229TIP3    H2 3652   0.838   4.550   4.112
 1230TIP3   OH2 3653   5.709   4.417   0.147
 1230TIP3    H1 3654   5.669   4.483   0.204
 1230TIP3    H2 3655   5.759   4.362   0.206
 1231TIP3   OH2 3656   0.015   1.062   4.304
 1231TIP3    H1 3657   0.022   1.146   4.259
 1231TIP3    H2 3658   0.078   1.006   4.258
 1232TIP3   OH2 3659   6.669   0.036   1.501
 1232TIP3    H1 3660   6.687   0.128   1.520
 1232TIP3    H2 3661   6.752   0.003   1.466
 1233TIP3   OH2 3662   1.615   3.970   2.328
 1233TIP3    H1 3663   1.637   3.946   2.238
 1233TIP3    H2 3664   1.645   4.060   2.338
 1234TIP3   OH2 3665   0.905   1.507   5.847
 1234TIP3    H1 3666   0.920   1.596   5.881
 1234TIP3    H2 3667   0.812   1.505   5.825
 1235TIP3   OH2 3668   0.626   1.405   3.779
 1235TIP3    H1 3669   0.662   1.487   3.813
 1235TIP3    H2 3670   0.573   1.432   3.703
 1236TIP3   OH2 3671   3.543   2.353   1.073
 1236TIP3    H1 3672   3.550   2.308   1.156
 1236TIP3    H2 3673   3.487   2.297   1.019
 1237TIP3   OH2 3674   1.520   6.155   1.818
 1237TIP3    H1 3675   1.536   6.206   1.738
 1237TIP3    H2 3676   1.438   6.108   1.800
 1238TIP3   OH2 3677   1.479   4.177   0.788
 1238TIP3    H1 3678   1.448   4.245   0.848
 1238TIP3    H2 3679   1.426   4.187   0.709
 1239TIP3   OH2 3680   5.015   4.550   1.281
 1239TIP3    H1 3681   5.030   4.519   1.192
 1239TIP3    H2 3682   5.062   4.633   1.285
 1240TIP3   OH2 3683   5.562   3.989   1.293
 1240TIP3    H1 3684   5.596   3.932   1.362
 1240TIP3    H2 3685   5.471   4.004   1.317
 1241TIP3   OH2 3686   3.253   6.609   5.248
 1241TIP3    H1 3687   3.242   6.682   5.187
 1241TIP3    H2 3688   3.237   6.531   5.195
 1242TIP3   OH2 3689   0.300   6.438   2.311
 1242TIP3    H1 3690   0.311   6.353   2.268
 1242TIP3    H2 3691   0.209   6.462   2.293
 1243TIP3   OH2 3692   5.658   4.449   5.764
 1243TIP3    H1 3693   5.704   4.368   5.783
 1243TIP3    H2 3694   5.587   4.423   5.705
 1244TIP3   OH2 3695   6.311   2.025   1.495
 1244TIP3    H1 3696   6.400   2.049   1.471
 1244TIP3    H2 3697   6.312   1.929   1.497
 1245TIP3   OH2 3698   2.974   3.709   0.705
 1245TIP3    H1 3699   3.065   3.697   0.734
 1245TIP3    H2 3700   2.970   3.662   0.621
 1246TIP3   OH2 3701   2.468   3.795   2.218
 1246TIP3    H1 3702   2.436   3.760   2.135
 1246TIP3    H2 3703   2.399   3.854   2.248
 1247TIP3   OH2 3704   4.714   4.490   3.465
 1247TIP3    H1 3705   4.764   4.423   3.513
 1247TIP3    H2 3706   4.691   4.447   3.383
 1248TIP3   OH2 3707   6.041   3.616   0.575
 1248TIP3    H1 3708   5.946   3.615   0.585
 1248TIP3    H2 3709   6.066   3.707   0.590
 1249TIP3   OH2 3710   6.310   0.197   2.519
 1249TIP3    H1 3711   6.291   0.116   2.567
 1249TIP3    H2 3712   6.262   0.264   2.568
 1250TIP3   OH2 3713   6.167   5.638   3.925
 1250TIP3    H1 3714   6.230   5.613   3.993
 1250TIP3    H2 3715   6.215   5.625   3.843
 1251TIP3   OH2 3716   3.812   6.761   1.804
 1251TIP3    H1 3717   3.840   6.773   1.895
 1251TIP3    H2 3718   3.720   6.787   1.803
 1252TIP3   OH2 3719   4.678   4.245   0.447
 1252TIP3    H1 3720   4.673   4.289   0.533
 1252TIP3    H2 3721   4.637   4.307   0.387
 1253TIP3   OH2 3722   1.144   4.932   1.207
 1253TIP3    H1 3723   1.223   4.950   1.156
 1253TIP3    H2 3724   1.109   5.019   1.228
 1254TIP3   OH2 3725   5.356   4.649   1.058
 1254TIP3    H1 3726   5.433   4.700   1.033
 1254TIP3    H2 3727   5.358   4.572   1.002
 1255TIP3   OH2 3728   2.543   0.304   5.264
 1255TIP3    H1 3729   2.553   0.284   5.171
 1255TIP3    H2 3730   2.544   0.400   5.268
 1256TIP3   OH2 3731   5.937   2.281   5.885
 1256TIP3    H1 3732   5.862   2.311   5.938
 1256TIP3    H2 3733   5.897   2.232   5.813
 1257TIP3   OH2 3734   4.208   4.759   0.702
 1257TIP3    H1 3735   4.218   4.699   0.628
 1257TIP3    H2 3736   4.230   4.845   0.667
 1258TIP3   OH2 3737   0.061   5.331   5.349
 1258TIP3    H1 3738   0.068   5.415   5.304
 1258TIP3    H2 3739  -0.012   5.286   5.307
 1259TIP3   OH2 3740   4.377   6.785   4.151
 1259TIP3    H1 3741   4.336   6.710   4.107
 1259TIP3    H2 3742   4.305   6.847   4.163
 1260TIP3   OH2 3743   5.137   5.529   5.026
 1260TIP3    H1 3744   5.074   5.524   5.099
 1260TIP3    H2 3745   5.200   5.459   5.044
 1261TIP3   OH2 3746   4.944   0.544   1.877
 1261TIP3    H1 3747   5.003   0.595   1.933
 1261TIP3    H2 3748   4.954   0.454   1.907
 1262TIP3   OH2 3749   3.957   5.913   0.228
 1262TIP3    H1 3750   4.045   5.940   0.255
 1262TIP3    H2 3751   3.966   5.894   0.134
 1263TIP3   OH2 3752   1.901   1.095   5.200
 1263TIP3    H1 3753   1.959   1.079   5.274
 1263TIP3    H2 3754   1.813   1.077   5.235
 1264TIP3   OH2 3755   1.795   0.590   0.019
 1264TIP3    H1 3756   1.840   0.507   0.033
 1264TIP3    H2 3757   1.862   0.657   0.035
 1265TIP3   OH2 3758   2.878   4.312   1.771
 1265TIP3    H1 3759   2.876   4.217   1.782
 1265TIP3    H2 3760   2.878   4.347   1.860
 1266TIP3   OH2 3761   6.890   3.823   0.817
 1266TIP3    H1 3762   6.854   3.753   0.872
 1266TIP3    H2 3763   6.984   3.819   0.831
 1267TIP3   OH2 3764   6.993   5.144   1.654
 1267TIP3    H1 3765   6.903   5.176   1.647
 1267TIP3    H2 3766   7.047   5.219   1.628
 1268TIP3   OH2 3767   5.833   0.935   0.884
 1268TIP3    H1 3768   5.856   0.852   0.925
 1268TIP3    H2 3769   5.830   0.915   0.790
 1269TIP3   OH2 3770   0.503   0.942   5.231
 1269TIP3    H1 3771   0.409   0.945   5.247
 1269TIP3    H2 3772   0.520   0.850   5.211
 1270TIP3   OH2 3773   7.217   0.907   2.272
 1270TIP3    H1 3774   7.195   0.824   2.229
 1270TIP3    H2 3775   7.294   0.887   2.325
 1271TIP3   OH2 3776   3.776   3.137   1.358
 1271TIP3    H1 3777   3.863   3.147   1.397
 1271TIP3    H2 3778   3.764   3.042   1.351
 1272TIP3   OH2 3779   3.925   1.715   0.720
 1272TIP3    H1 3780   3.888   1.802   0.704
 1272TIP3    H2 3781   3.987   1.701   0.648
 1273TIP3   OH2 3782   1.002   2.612   3.661
 1273TIP3    H1 3783   1.075   2.616   3.723
 1273TIP3    H2 3784   1.010   2.525   3.621
 1274TIP3   OH2 3785   0.427   1.503   5.625
 1274TIP3    H1 3786   0.387   1.530   5.707
 1274TIP3    H2 3787   0.353   1.493   5.565
 1275TIP3   OH2 3788   5.822   2.007   4.476
 1275TIP3    H1 3789   5.861   1.926   4.441
 1275TIP3    H2 3790   5.895   2.068   4.482
 1276TIP3   OH2 3791   4.131   1.958   3.383
 1276TIP3    H1 3792   4.045   1.920   3.366
 1276TIP3    H2 3793   4.152   1.931   3.473
 1277TIP3   OH2 3794   4.860   4.075   1.137
 1277TIP3    H1 3795   4.939   4.129   1.128
 1277TIP3    H2 3796   4.820   4.076   1.050
 1278TIP3   OH2 3797   4.553   1.599   4.973
 1278TIP3    H1 3798   4.585   1.659   5.041
 1278TIP3    H2 3799   4.624   1.536   4.962
 1279TIP3   OH2 3800   6.681   1.766   4.243
 1279TIP3    H1 3801   6.732   1.836   4.202
 1279TIP3    H2 3802   6.614   1.813   4.294
 1280TIP3   OH2 3803   7.144   0.773   0.358
 1280TIP3    H1 3804   7.077   0.762   0.425
 1280TIP3    H2 3805   7.179   0.861   0.373
 1281TIP3   OH2 3806   5.231   1.201   3.919
 1281TIP3    H1 3807   5.169   1.247   3.862
 1281TIP3    H2 3808   5.317   1.220   3.882
 1282TIP3   OH2 3809   3.593   0.614   3.609
 1282TIP3    H1 3810   3.585   0.528   3.651
 1282TIP3    H2 3811   3.512   0.660   3.633
 1283TIP3   OH2 3812   5.448   2.682   5.813
 1283TIP3    H1 3813   5.415   2.596   5.787
 1283TIP3    H2 3814   5.534   2.689   5.771
 1284TIP3   OH2 3815   0.588   3.864   2.296
 1284TIP3    H1 3816   0.510   3.882   2.349
 1284TIP3    H2 3817   0.657   3.918   2.335
 1285TIP3   OH2 3818   4.206   2.951   3.046
 1285TIP3    H1 3819   4.162   3.011   2.986
 1285TIP3    H2 3820   4.183   2.864   3.014
 1286TIP3   OH2 3821   2.897   3.859   2.252
 1286TIP3    H1 3822   2.957   3.865   2.327
 1286TIP3    H2 3823   2.840   3.936   2.261
 1287TIP3   OH2 3824   3.712   4.376   3.687
 1287TIP3    H1 3825   3.673   4.459   3.713
 1287TIP3    H2 3826   3.658   4.346   3.614
 1288TIP3   OH2 3827   6.683   5.241   0.894
 1288TIP3    H1 3828   6.600   5.224   0.850
 1288TIP3    H2 3829   6.731   5.158   0.889
 1289TIP3   OH2 3830   2.049   1.700   1.720
 1289TIP3    H1 3831   2.104   1.733   1.649
 1289TIP3    H2 3832   2.109   1.653   1.778
 1290TIP3   OH2 3833   6.081   3.526   3.479
 1290TIP3    H1 3834   6.072   3.468   3.555
 1290TIP3    H2 3835   5.997   3.519   3.434
 1291TIP3   OH2 3836   3.945   6.582   0.534
 1291TIP3    H1 3837   3.984   6.545   0.613
 1291TIP3    H2 3838   3.995   6.543   0.462
 1292TIP3   OH2 3839   0.621   2.167   4.695
 1292TIP3    H1 3840   0.709   2.150   4.661
 1292TIP3    H2 3841   0.562   2.125   4.631
 1293TIP3   OH2 3842   2.772   6.214   0.390
 1293TIP3    H1 3843   2.698   6.268   0.363
 1293TIP3    H2 3844   2.801   6.253   0.473
 1294TIP3   OH2 3845   3.623   5.545   4.337
 1294TIP3    H1 3846   3.556   5.531   4.270
 1294TIP3    H2 3847   3.576   5.578   4.413
 1295TIP3   OH2 3848   7.101   5.916   5.272
 1295TIP3    H1 3849   7.126   6.003   5.304
 1295TIP3    H2 3850   7.014   5.902   5.309
 1296TIP3   OH2 3851   4.364   2.550   5.217
 1296TIP3    H1 3852   4.286   2.500   5.241
 1296TIP3    H2 3853   4.344   2.588   5.132
 1297TIP3   OH2 3854   0.646   0.698   1.532
 1297TIP3    H1 3855   0.569   0.707   1.588
 1297TIP3    H2 3856   0.624   0.625   1.473
 1298TIP3   OH2 3857   4.655   2.984   4.763
 1298TIP3    H1 3858   4.670   3.078   4.769
 1298TIP3    H2 3859   4.697   2.958   4.681
 1299TIP3   OH2 3860   1.410   2.649   2.128
 1299TIP3    H1 3861   1.469   2.701   2.183
 1299TIP3    H2 3862   1.436   2.558   2.147
 1300TIP3   OH2 3863   0.264   5.959   1.738
 1300TIP3    H1 3864   0.343   5.948   1.791
 1300TIP3    H2 3865   0.280   5.905   1.660
 1301TIP3   OH2 3866   2.488   5.110   2.457
 1301TIP3    H1 3867   2.539   5.131   2.378
 1301TIP3    H2 3868   2.545   5.134   2.530
 1302TIP3   OH2 3869   5.112   4.502   5.319
 1302TIP3    H1 3870   5.104   4.449   5.399
 1302TIP3    H2 3871   5.196   4.477   5.282
 1303TIP3   OH2 3872   1.256   0.891   0.846
 1303TIP3    H1 3873   1.311   0.950   0.897
 1303TIP3    H2 3874   1.309   0.866   0.771
 1304TIP3   OH2 3875   6.914   5.203   2.227
 1304TIP3    H1 3876   6.911   5.298   2.234
 1304TIP3    H2 3877   6.846   5.172   2.287
 1305TIP3   OH2 3878   0.918   1.261   4.286
 1305TIP3    H1 3879   0.909   1.169   4.312
 1305TIP3    H2 3880   0.847   1.275   4.223
 1306TIP3   OH2 3881   2.800   3.479   3.528
 1306TIP3    H1 3882   2.795   3.551   3.465
 1306TIP3    H2 3883   2.885   3.438   3.512
 1307TIP3   OH2 3884   2.554   5.318   4.827
 1307TIP3    H1 3885   2.647   5.323   4.848
 1307TIP3    H2 3886   2.510   5.353   4.904
 1308TIP3   OH2 3887   4.066   1.327   1.384
 1308TIP3    H1 3888   4.094   1.330   1.293
 1308TIP3    H2 3889   3.992   1.388   1.388
 1309TIP3   OH2 3890   4.675   3.852   2.836
 1309TIP3    H1 3891   4.690   3.791   2.763
 1309TIP3    H2 3892   4.696   3.938   2.800
 1310TIP3   OH2 3893   7.107   4.538   2.591
 1310TIP3    H1 3894   7.056   4.583   2.525
 1310TIP3    H2 3895   7.043   4.507   2.655
 1311TIP3   OH2 3896   6.040   6.373   2.277
 1311TIP3    H1 3897   5.999   6.411   2.355
 1311TIP3    H2 3898   6.130   6.405   2.278
 1312TIP3   OH2 3899   5.624   0.291   4.949
 1312TIP3    H1 3900   5.647   0.366   5.004
 1312TIP3    H2 3901   5.642   0.320   4.859
 1313TIP3   OH2 3902   3.841   0.673   5.154
 1313TIP3    H1 3903   3.769   0.627   5.198
 1313TIP3    H2 3904   3.876   0.733   5.220
 1314TIP3   OH2 3905   1.266   6.796   1.139
 1314TIP3    H1 3906   1.336   6.835   1.087
 1314TIP3    H2 3907   1.294   6.807   1.230
 1315TIP3   OH2 3908   1.027   6.304   2.136
 1315TIP3    H1 3909   0.953   6.247   2.157
 1315TIP3    H2 3910   1.081   6.254   2.075
 1316TIP3   OH2 3911   1.015   4.153   1.710
 1316TIP3    H1 3912   0.927   4.187   1.728
 1316TIP3    H2 3913   1.021   4.154   1.615
 1317TIP3   OH2 3914   2.043   5.140   1.463
 1317TIP3    H1 3915   2.038   5.045   1.474
 1317TIP3    H2 3916   1.955   5.166   1.436
 1318TIP3   OH2 3917   4.206   5.866   5.558
 1318TIP3    H1 3918   4.128   5.829   5.600
 1318TIP3    H2 3919   4.263   5.892   5.630
 1319TIP3   OH2 3920   6.224   4.146   1.502
 1319TIP3    H1 3921   6.210   4.103   1.586
 1319TIP3    H2 3922   6.158   4.215   1.500
 1320TIP3   OH2 3923   2.643   0.646   1.575
 1320TIP3    H1 3924   2.584   0.720   1.588
 1320TIP3    H2 3925   2.656   0.611   1.663
 1321TIP3   OH2 3926   3.173   2.053   3.415
 1321TIP3    H1 3927   3.154   2.036   3.507
 1321TIP3    H2 3928   3.087   2.049   3.372
 1322TIP3   OH2 3929   1.343   0.289   1.458
 1322TIP3    H1 3930   1.391   0.329   1.530
 1322TIP3    H2 3931   1.409   0.276   1.389
 1323TIP3   OH2 3932   6.635   3.987   2.706
 1323TIP3    H1 3933   6.691   4.063   2.724
 1323TIP3    H2 3934   6.580   3.979   2.784
 1324TIP3   OH2 3935   6.167   1.237   2.504
 1324TIP3    H1 3936   6.149   1.305   2.569
 1324TIP3    H2 3937   6.194   1.285   2.426
 1325TIP3   OH2 3938   1.518   1.166   0.198
 1325TIP3    H1 3939   1.605   1.181   0.163
 1325TIP3    H2 3940   1.514   1.220   0.277
 1326TIP3   OH2 3941   6.784   4.145   4.045
 1326TIP3    H1 3942   6.777   4.053   4.072
 1326TIP3    H2 3943   6.870   4.151   4.003
 1327TIP3   OH2 3944   1.435   1.625   5.436
 1327TIP3    H1 3945   1.528   1.617   5.458
 1327TIP3    H2 3946   1.426   1.582   5.351
 1328TIP3   OH2 3947   6.977   2.244   2.549
 1328TIP3    H1 3948   6.913   2.241   2.621
 1328TIP3    H2 3949   6.988   2.337   2.531
 1329TIP3   OH2 3950   7.086   1.623   3.783
 1329TIP3    H1 3951   7.136   1.625   3.701
 1329TIP3    H2 3952   7.082   1.714   3.811
 1330TIP3   OH2 3953   0.546   5.501   4.252
 1330TIP3    H1 3954   0.566   5.418   4.295
 1330TIP3    H2 3955   0.496   5.551   4.317
 1331TIP3   OH2 3956   1.395   3.179   1.381
 1331TIP3    H1 3957   1.330   3.195   1.312
 1331TIP3    H2 3958   1.427   3.091   1.363
 1332TIP3   OH2 3959   6.909   0.169   2.455
 1332TIP3    H1 3960   6.909   0.206   2.367
 1332TIP3    H2 3961   6.851   0.093   2.449
 1333TIP3   OH2 3962   0.905   5.312   0.948
 1333TIP3    H1 3963   0.913   5.366   1.027
 1333TIP3    H2 3964   0.993   5.313   0.910
 1334TIP3   OH2 3965   1.828   2.625   4.367
 1334TIP3    H1 3966   1.735   2.641   4.385
 1334TIP3    H2 3967   1.854   2.699   4.312
 1335TIP3   OH2 3968   4.591   4.017   3.938
 1335TIP3    H1 3969   4.681   3.997   3.914
 1335TIP3    H2 3970   4.598   4.086   4.004
 1336TIP3   OH2 3971   4.461   3.297   4.260
 1336TIP3    H1 3972   4.431   3.294   4.168
 1336TIP3    H2 3973   4.542   3.346   4.257
 1337TIP3   OH2 3974   6.796   2.759   2.831
 1337TIP3    H1 3975   6.704   2.738   2.813
 1337TIP3    H2 3976   6.841   2.674   2.828
 1338TIP3   OH2 3977   1.796   2.666   3.543
 1338TIP3    H1 3978   1.739   2.611   3.489
 1338TIP3    H2 3979   1.781   2.634   3.632
 1339TIP3   OH2 3980   0.041   6.094   3.404
 1339TIP3    H1 3981   0.005   6.034   3.339
 1339TIP3    H2 3982   0.133   6.068   3.412
 1340TIP3   OH2 3983   0.658   6.738   2.367
 1340TIP3    H1 3984   0.716   6.783   2.429
 1340TIP3    H2 3985   0.632   6.658   2.413
 1341TIP3   OH2 3986   3.622   6.221   5.674
 1341TIP3    H1 3987   3.619   6.165   5.753
 1341TIP3    H2 3988   3.697   6.278   5.688
 1342TIP3   OH2 3989   2.066   0.277   4.730
 1342TIP3    H1 3990   2.100   0.352   4.780
 1342TIP3    H2 3991   1.973   0.295   4.722
 1343TIP3   OH2 3992   5.838   1.443   0.578
 1343TIP3    H1 3993   5.783   1.370   0.607
 1343TIP3    H2 3994   5.775   1.510   0.550
 1344TIP3   OH2 3995   5.006   2.305   2.009
 1344TIP3    H1 3996   4.924   2.353   2.009
 1344TIP3    H2 3997   5.011   2.266   1.921
 1345TIP3   OH2 3998   2.604   3.355   2.130
 1345TIP3    H1 3999   2.653   3.377   2.051
 1345TIP3    H2 4000   2.637   3.416   2.197
 1346TIP3   OH2 4001   0.429   1.759   4.399
 1346TIP3    H1 4002   0.364   1.818   4.360
 1346TIP3    H2 4003   0.377   1.693   4.445
 1347TIP3   OH2 4004   2.513   5.931   4.891
 1347TIP3    H1 4005   2.472   6.001   4.940
 1347TIP3    H2 4006   2.502   5.853   4.945
 1348TIP3   OH2 4007   1.213   2.622   4.974
 1348TIP3    H1 4008   1.153   2.559   4.936
 1348TIP3    H2 4009   1.257   2.575   5.044
 1349TIP3   OH2 4010   2.712   1.089   3.326
 1349TIP3    H1 4011   2.657   1.017   3.356
 1349TIP3    H2 4012   2.656   1.166   3.330
 1350TIP3   OH2 4013   3.387   4.151   5.184
 1350TIP3    H1 4014   3.365   4.154   5.277
 1350TIP3    H2 4015   3.452   4.080   5.177
 1351TIP3   OH2 4016   6.939   2.265   0.488
 1351TIP3    H1 4017   6.899   2.332   0.544
 1351TIP3    H2 4018   6.896   2.276   0.403
 1352TIP3   OH2 4019   5.542   1.699   1.106
 1352TIP3    H1 4020   5.475   1.746   1.157
 1352TIP3    H2 4021   5.589   1.647   1.172
 1353TIP3   OH2 4022   4.072   2.182   4.942
 1353TIP3    H1 4023   4.133   2.129   4.892
 1353TIP3    H2 4024   3.996   2.192   4.885
 1354TIP3   OH2 4025   4.798   6.129   0.124
 1354TIP3    H1 4026   4.773   6.148   0.215
 1354TIP3    H2 4027   4.885   6.169   0.114
 1355TIP3   OH2 4028   4.055   3.102   1.404
 1355TIP3    H1 4029   4.069   3.026   1.348
 1355TIP3    H2 4030   4.119   3.092   1.474
 1356TIP3   OH2 4031   1.620   3.870   4.706
 1356TIP3    H1 4032   1.714   3.851   4.704
 1356TIP3    H2 4033   1.590   3.848   4.618
 1357TIP3   OH2 4034   0.139   1.511   4.941
 1357TIP3    H1 4035   0.204   1.445   4.965
 1357TIP3    H2 4036   0.075   1.508   5.012
 1358TIP3   OH2 4037   2.345   4.591   3.774
 1358TIP3    H1 4038   2.324   4.636   3.855
 1358TIP3    H2 4039   2.354   4.499   3.798
 1359TIP3   OH2 4040   2.016   2.523   3.796
 1359TIP3    H1 4041   2.077   2.585   3.837
 1359TIP3    H2 4042   1.930   2.561   3.810
 1360TIP3   OH2 4043   1.742   6.529   2.125
 1360TIP3    H1 4044   1.697   6.485   2.054
 1360TIP3    H2 4045   1.676   6.538   2.194
 1361TIP3   OH2 4046   5.150   3.938   1.933
 1361TIP3    H1 4047   5.074   3.887   1.907
 1361TIP3    H2 4048   5.114   4.020   1.967
 1362TIP3   OH2 4049   7.031   2.474   0.832
 1362TIP3    H1 4050   6.957   2.413   0.839
 1362TIP3    H2 4051   6.990   2.559   0.817
 1363TIP3   OH2 4052   6.233   2.598   4.524
 1363TIP3    H1 4053   6.212   2.529   4.586
 1363TIP3    H2 4054   6.327   2.589   4.510
 1364TIP3   OH2 4055   0.709   6.142   0.200
 1364TIP3    H1 4056   0.762   6.131   0.121
 1364TIP3    H2 4057   0.669   6.057   0.214
 1365TIP3   OH2 4058   0.425   1.175   0.752
 1365TIP3    H1 4059   0.433   1.115   0.677
 1365TIP3    H2 4060   0.423   1.262   0.713
 1366TIP3   OH2 4061   3.691   2.448   1.611
 1366TIP3    H1 4062   3.637   2.369   1.604
 1366TIP3    H2 4063   3.768   2.421   1.661
 1367TIP3   OH2 4064   2.471   5.631   2.053
 1367TIP3    H1 4065   2.545   5.614   2.112
 1367TIP3    H2 4066   2.460   5.549   2.005
 1368TIP3   OH2 4067   1.277   6.432  -0.043
 1368TIP3    H1 4068   1.216   6.463   0.023
 1368TIP3    H2 4069   1.226   6.429  -0.124
 1369TIP3   OH2 4070   5.106   4.180   3.439
 1369TIP3    H1 4071   5.192   4.143   3.417
 1369TIP3    H2 4072   5.051   4.161   3.363
 1370TIP3   OH2 4073   4.561   5.874   4.463
 1370TIP3    H1 4074   4.474   5.900   4.434
 1370TIP3    H2 4075   4.600   5.955   4.497
 1371TIP3   OH2 4076   1.300   6.098   4.466
 1371TIP3    H1 4077   1.221   6.083   4.519
 1371TIP3    H2 4078   1.286   6.184   4.426
 1372TIP3   OH2 4079   3.659   0.717   3.195
 1372TIP3    H1 4080   3.705   0.797   3.219
 1372TIP3    H2 4081   3.648   0.723   3.100
 1373TIP3   OH2 4082   0.328   3.718   4.303
 1373TIP3    H1 4083   0.309   3.705   4.210
 1373TIP3    H2 4084   0.371   3.637   4.330
 1374TIP3   OH2 4085   5.897   4.178   5.368
 1374TIP3    H1 4086   5.840   4.130   5.428
 1374TIP3    H2 4087   5.839   4.242   5.326
 1375TIP3   OH2 4088   1.180   4.946   5.745
 1375TIP3    H1 4089   1.202   5.039   5.734
 1375TIP3    H2 4090   1.104   4.932   5.689
 1376TIP3   OH2 4091   4.427   6.542   2.549
 1376TIP3    H1 4092   4.374   6.475   2.591
 1376TIP3    H2 4093   4.379   6.624   2.562
 1377TIP3   OH2 4094   2.351   4.291   2.657
 1377TIP3    H1 4095   2.439   4.318   2.629
 1377TIP3    H2 4096   2.362   4.202   2.690
 1378TIP3   OH2 4097   4.678   6.702   1.971
 1378TIP3    H1 4098   4.715   6.650   1.899
 1378TIP3    H2 4099   4.583   6.693   1.959
 1379TIP3   OH2 4100   2.950   3.255   4.244
 1379TIP3    H1 4101   2.987   3.228   4.329
 1379TIP3    H2 4102   2.856   3.262   4.260
 1380TIP3   OH2 4103   2.122   0.555   2.823
 1380TIP3    H1 4104   2.068   0.540   2.900
 1380TIP3    H2 4105   2.188   0.485   2.826
 1381TIP3   OH2 4106   4.984   4.679   4.413
 1381TIP3    H1 4107   4.997   4.645   4.501
 1381TIP3    H2 4108   5.065   4.658   4.367
 1382TIP3   OH2 4109   5.395   2.202   1.486
 1382TIP3    H1 4110   5.486   2.176   1.495
 1382TIP3    H2 4111   5.347   2.120   1.475
 1383TIP3   OH2 4112   1.465   5.746   2.489
 1383TIP3    H1 4113   1.558   5.756   2.468
 1383TIP3    H2 4114   1.421   5.808   2.431
 1384TIP3   OH2 4115   1.936   1.499   1.078
 1384TIP3    H1 4116   1.894   1.548   1.148
 1384TIP3    H2 4117   1.931   1.556   1.002
 1385TIP3   OH2 4118   2.014   2.272   0.914
 1385TIP3    H1 4119   2.017   2.366   0.936
 1385TIP3    H2 4120   1.941   2.264   0.853
 1386TIP3   OH2 4121   5.691   6.324   4.837
 1386TIP3    H1 4122   5.597   6.322   4.821
 1386TIP3    H2 4123   5.715   6.417   4.826
 1387TIP3   OH2 4124   4.482   5.397   2.069
 1387TIP3    H1 4125   4.506   5.321   2.122
 1387TIP3    H2 4126   4.387   5.400   2.073
 1388TIP3   OH2 4127   7.146   6.064   4.834
 1388TIP3    H1 4128   7.166   5.992   4.775
 1388TIP3    H2 4129   7.120   6.136   4.776
 1389TIP3   OH2 4130   2.201   2.335   1.581
 1389TIP3    H1 4131   2.119   2.384   1.571
 1389TIP3    H2 4132   2.235   2.328   1.492
 1390TIP3   OH2 4133   2.920   2.910   5.750
 1390TIP3    H1 4134   2.925   2.976   5.681
 1390TIP3    H2 4135   2.833   2.922   5.789
 1391TIP3   OH2 4136   1.589   0.073   0.507
 1391TIP3    H1 4137   1.498   0.053   0.485
 1391TIP3    H2 4138   1.613   0.144   0.448
 1392TIP3   OH2 4139   4.700   3.266   3.536
 1392TIP3    H1 4140   4.781   3.309   3.509
 1392TIP3    H2 4141   4.672   3.216   3.460
 1393TIP3   OH2 4142   3.693   3.387   1.312
 1393TIP3    H1 4143   3.636   3.387   1.235
 1393TIP3    H2 4144   3.734   3.301   1.312
 1394TIP3   OH2 4145   2.725   5.908   2.646
 1394TIP3    H1 4146   2.782   5.984   2.659
 1394TIP3    H2 4147   2.771   5.855   2.581
 1395TIP3   OH2 4148   4.618   3.921   1.215
 1395TIP3    H1 4149   4.713   3.929   1.204
 1395TIP3    H2 4150   4.599   3.831   1.189
 1396TIP3   OH2 4151   2.849   2.021   5.741
 1396TIP3    H1 4152   2.835   2.115   5.757
 1396TIP3    H2 4153   2.764   1.989   5.711
 1397TIP3   OH2 4154   5.529   0.629   1.052
 1397TIP3    H1 4155   5.441   0.662   1.072
 1397TIP3    H2 4156   5.549   0.569   1.123
 1398TIP3   OH2 4157   0.240   2.704   1.467
 1398TIP3    H1 4158   0.167   2.763   1.454
 1398TIP3    H2 4159   0.200   2.623   1.500
 1399TIP3   OH2 4160   2.677   5.001   5.319
 1399TIP3    H1 4161   2.772   5.001   5.332
 1399TIP3    H2 4162   2.663   5.054   5.241
 1400TIP3   OH2 4163   4.170   4.422   2.938
 1400TIP3    H1 4164   4.083   4.461   2.928
 1400TIP3    H2 4165   4.155   4.345   2.993
 1401TIP3   OH2 4166   0.132   6.221   2.831
 1401TIP3    H1 4167   0.057   6.270   2.796
 1401TIP3    H2 4168   0.107   6.199   2.920
 1402TIP3   OH2 4169   2.080   1.638   3.554
 1402TIP3    H1 4170   2.069   1.543   3.565
 1402TIP3    H2 4171   2.013   1.677   3.609
 1403TIP3   OH2 4172   0.361   5.275   0.086
 1403TIP3    H1 4173   0.335   5.366   0.098
 1403TIP3    H2 4174   0.433   5.279   0.023
 1404TIP3   OH2 4175   5.444   0.274   3.052
 1404TIP3    H1 4176   5.446   0.243   3.142
 1404TIP3    H2 4177   5.355   0.255   3.021
 1405TIP3   OH2 4178   1.580   5.611   4.195
 1405TIP3    H1 4179   1.662   5.601   4.243
 1405TIP3    H2 4180   1.547   5.522   4.183
 1406TIP3   OH2 4181   6.494   0.722   3.659
 1406TIP3    H1 4182   6.551   0.702   3.584
 1406TIP3    H2 4183   6.452   0.639   3.681
 1407TIP3   OH2 4184   1.856   2.891   2.523
 1407TIP3    H1 4185   1.782   2.883   2.463
 1407TIP3    H2 4186   1.816   2.885   2.610
 1408TIP3   OH2 4187   6.294   2.744   5.387
 1408TIP3    H1 4188   6.323   2.835   5.395
 1408TIP3    H2 4189   6.211   2.742   5.434
 1409TIP3   OH2 4190   3.399   5.096   4.017
 1409TIP3    H1 4191   3.495   5.102   4.016
 1409TIP3    H2 4192   3.377   5.096   4.111
 1410TIP3   OH2 4193   4.956   2.519   3.064
 1410TIP3    H1 4194   4.995   2.565   2.990
 1410TIP3    H2 4195   4.869   2.492   3.033
 1411TIP3   OH2 4196   5.557   2.710   5.437
 1411TIP3    H1 4197   5.525   2.720   5.347
 1411TIP3    H2 4198   5.482   2.677   5.486
 1412TIP3   OH2 4199   0.538   3.361   0.597
 1412TIP3    H1 4200   0.612   3.309   0.566
 1412TIP3    H2 4201   0.537   3.349   0.691
 1413TIP3   OH2 4202   2.631   0.211   4.992
 1413TIP3    H1 4203   2.640   0.254   4.907
 1413TIP3    H2 4204   2.709   0.156   4.999
 1414TIP3   OH2 4205   2.850   1.816   5.350
 1414TIP3    H1 4206   2.865   1.731   5.393
 1414TIP3    H2 4207   2.899   1.810   5.268
 1415TIP3   OH2 4208   6.306   0.737   2.928
 1415TIP3    H1 4209   6.339   0.661   2.976
 1415TIP3    H2 4210   6.385   0.788   2.907
 1416TIP3   OH2 4211   5.280   4.238   4.915
 1416TIP3    H1 4212   5.306   4.146   4.913
 1416TIP3    H2 4213   5.209   4.242   4.979
 1417TIP3   OH2 4214   3.583   1.321   2.102
 1417TIP3    H1 4215   3.654   1.384   2.115
 1417TIP3    H2 4216   3.626   1.241   2.072
 1418TIP3   OH2 4217   3.731   5.771   4.624
 1418TIP3    H1 4218   3.641   5.755   4.597
 1418TIP3    H2 4219   3.738   5.730   4.710
 1419TIP3   OH2 4220   0.244   1.771   5.553
 1419TIP3    H1 4221   0.257   1.862   5.581
 1419TIP3    H2 4222   0.288   1.764   5.469
 1420TIP3   OH2 4223   3.555   6.808   5.030
 1420TIP3    H1 4224   3.623   6.743   5.044
 1420TIP3    H2 4225   3.596   6.891   5.055
 1421TIP3   OH2 4226   2.071   4.661   0.588
 1421TIP3    H1 4227   1.977   4.674   0.579
 1421TIP3    H2 4228   2.110   4.736   0.543
 1422TIP3   OH2 4229   0.740   5.807   3.527
 1422TIP3    H1 4230   0.731   5.845   3.440
 1422TIP3    H2 4231   0.669   5.743   3.533
 1423TIP3   OH2 4232   0.098   4.744   5.916
 1423TIP3    H1 4233   0.063   4.832   5.929
 1423TIP3    H2 4234   0.093   4.730   5.821
 1424TIP3   OH2 4235   7.055   2.728   2.113
 1424TIP3    H1 4236   6.990   2.793   2.138
 1424TIP3    H2 4237   7.044   2.718   2.018
 1425TIP3   OH2 4238  -0.002   2.061   1.174
 1425TIP3    H1 4239  -0.089   2.097   1.190
 1425TIP3    H2 4240   0.054   2.103   1.240
 1426TIP3   OH2 4241   0.310   5.744   2.966
 1426TIP3    H1 4242   0.351   5.678   3.022
 1426TIP3    H2 4243   0.362   5.743   2.886
 1427TIP3   OH2 4244   5.817   1.762   4.180
 1427TIP3    H1 4245   5.856   1.693   4.128
 1427TIP3    H2 4246   5.892   1.813   4.212
 1428TIP3   OH2 4247   5.104   5.698   2.897
 1428TIP3    H1 4248   5.136   5.676   2.809
 1428TIP3    H2 4249   5.148   5.636   2.955
 1429TIP3   OH2 4250   5.783   5.550   0.105
 1429TIP3    H1 4251   5.809   5.480   0.165
 1429TIP3    H2 4252   5.818   5.630   0.144
 1430TIP3   OH2 4253   2.718   4.987   4.628
 1430TIP3    H1 4254   2.632   4.948   4.647
 1430TIP3    H2 4255   2.745   4.947   4.545
 1431TIP3   OH2 4256   6.205   2.085   0.322
 1431TIP3    H1 4257   6.115   2.098   0.290
 1431TIP3    H2 4258   6.219   2.158   0.383
 1432TIP3   OH2 4259   5.854   0.400   1.073
 1432TIP3    H1 4260   5.870   0.414   1.167
 1432TIP3    H2 4261   5.908   0.325   1.050
 1433TIP3   OH2 4262   6.578   3.498   0.774
 1433TIP3    H1 4263   6.585   3.477   0.867
 1433TIP3    H2 4264   6.582   3.594   0.771
 1434TIP3   OH2 4265   2.109   3.608   4.402
 1434TIP3    H1 4266   2.042   3.540   4.399
 1434TIP3    H2 4267   2.128   3.619   4.495
 1435TIP3   OH2 4268   1.960   0.447   5.365
 1435TIP3    H1 4269   1.953   0.365   5.316
 1435TIP3    H2 4270   2.023   0.428   5.435
 1436TIP3   OH2 4271   1.971   3.690   0.162
 1436TIP3    H1 4272   2.048   3.709   0.216
 1436TIP3    H2 4273   2.007   3.670   0.075
 1437TIP3   OH2 4274   3.695   2.898   0.308
 1437TIP3    H1 4275   3.642   2.846   0.370
 1437TIP3    H2 4276   3.673   2.862   0.222
 1438TIP3   OH2 4277   4.911   2.456   0.033
 1438TIP3    H1 4278   4.917   2.360   0.026
 1438TIP3    H2 4279   4.967   2.488  -0.037
 1439TIP3   OH2 4280   1.314   2.490   3.238
 1439TIP3    H1 4281   1.229   2.451   3.222
 1439TIP3    H2 4282   1.328   2.550   3.164
 1440TIP3   OH2 4283   6.301   4.076   3.320
 1440TIP3    H1 4284   6.226   4.069   3.380
 1440TIP3    H2 4285   6.337   4.163   3.337
 1441TIP3   OH2 4286   0.330   4.853   1.927
 1441TIP3    H1 4287   0.316   4.911   1.852
 1441TIP3    H2 4288   0.425   4.847   1.935
 1442TIP3   OH2 4289   7.001   5.901   0.350
 1442TIP3    H1 4290   6.914   5.941   0.348
 1442TIP3    H2 4291   7.052   5.957   0.408
 1443TIP3   OH2 4292   1.805   6.781   1.428
 1443TIP3    H1 4293   1.810   6.840   1.504
 1443TIP3    H2 4294   1.892   6.740   1.425
 1444TIP3   OH2 4295   1.436   6.144   2.556
 1444TIP3    H1 4296   1.508   6.129   2.617
 1444TIP3    H2 4297   1.478   6.175   2.475
 1445TIP3   OH2 4298   4.282   0.239   3.891
 1445TIP3    H1 4299   4.359   0.245   3.947
 1445TIP3    H2 4300   4.209   0.266   3.947
 1446TIP3   OH2 4301   7.096   3.983   1.385
 1446TIP3    H1 4302   7.012   4.005   1.344
 1446TIP3    H2 4303   7.129   4.067   1.417
 1447TIP3   OH2 4304   3.653   2.059   0.588
 1447TIP3    H1 4305   3.719   2.005   0.631
 1447TIP3    H2 4306   3.677   2.149   0.610
 1448TIP3   OH2 4307   6.323   1.733   0.637
 1448TIP3    H1 4308   6.371   1.814   0.626
 1448TIP3    H2 4309   6.367   1.688   0.709
 1449TIP3   OH2 4310   0.858   0.639   2.370
 1449TIP3    H1 4311   0.771   0.600   2.363
 1449TIP3    H2 4312   0.867   0.692   2.291
 1450TIP3   OH2 4313   7.077   0.163   1.328
 1450TIP3    H1 4314   7.029   0.108   1.391
 1450TIP3    H2 4315   7.165   0.170   1.365
 1451TIP3   OH2 4316   1.666   3.999   2.709
 1451TIP3    H1 4317   1.580   3.998   2.751
 1451TIP3    H2 4318   1.722   4.046   2.771
 1452TIP3   OH2 4319   6.880   5.621   3.185
 1452TIP3    H1 4320   6.951   5.559   3.201
 1452TIP3    H2 4321   6.821   5.576   3.124
 1453TIP3   OH2 4322   6.802   0.812   1.264
 1453TIP3    H1 4323   6.850   0.895   1.275
 1453TIP3    H2 4324   6.772   0.791   1.353
 1454TIP3   OH2 4325   5.662   3.824   5.675
 1454TIP3    H1 4326   5.570   3.846   5.665
 1454TIP3    H2 4327   5.667   3.730   5.656
 1455TIP3   OH2 4328   5.319   4.459   0.845
 1455TIP3    H1 4329   5.250   4.392   0.847
 1455TIP3    H2 4330   5.333   4.475   0.752
 1456TIP3   OH2 4331   4.311   4.991   2.020
 1456TIP3    H1 4332   4.245   5.059   2.004
 1456TIP3    H2 4333   4.285   4.950   2.102
 1457TIP3   OH2 4334   2.781   5.352   5.502
 1457TIP3    H1 4335   2.686   5.350   5.515
 1457TIP3    H2 4336   2.816   5.294   5.570
 1458TIP3   OH2 4337   0.522   5.262   4.393
 1458TIP3    H1 4338   0.502   5.170   4.377
 1458TIP3    H2 4339   0.598   5.259   4.452
 1459TIP3   OH2 4340   6.387   3.941   4.054
 1459TIP3    H1 4341   6.424   4.001   4.118
 1459TIP3    H2 4342   6.463   3.895   4.018
 1460TIP3   OH2 4343   6.836   4.430   1.692
 1460TIP3    H1 4344   6.924   4.449   1.660
 1460TIP3    H2 4345   6.830   4.335   1.693
 1461TIP3   OH2 4346   0.721   1.664   3.985
 1461TIP3    H1 4347   0.753   1.670   3.895
 1461TIP3    H2 4348   0.688   1.751   4.005
 1462TIP3   OH2 4349   4.990   4.470   3.301
 1462TIP3    H1 4350   5.040   4.390   3.285
 1462TIP3    H2 4351   4.917   4.442   3.357
 1463TIP3   OH2 4352   6.209   2.480   3.517
 1463TIP3    H1 4353   6.196   2.390   3.485
 1463TIP3    H2 4354   6.199   2.472   3.612
 1464TIP3   OH2 4355   6.745   5.363   1.134
 1464TIP3    H1 4356   6.719   5.452   1.108
 1464TIP3    H2 4357   6.735   5.311   1.054
 1465TIP3   OH2 4358   3.025   4.437   4.396
 1465TIP3    H1 4359   2.961   4.371   4.421
 1465TIP3    H2 4360   2.982   4.521   4.414
 1466TIP3   OH2 4361   3.674   1.605   4.252
 1466TIP3    H1 4362   3.703   1.518   4.222
 1466TIP3    H2 4363   3.579   1.599   4.253
 1467TIP3   OH2 4364   2.071   1.067   2.115
 1467TIP3    H1 4365   2.071   1.011   2.193
 1467TIP3    H2 4366   2.115   1.147   2.144
 1468TIP3   OH2 4367   5.782   1.203   0.720
 1468TIP3    H1 4368   5.803   1.121   0.766
 1468TIP3    H2 4369   5.810   1.187   0.630
 1469TIP3   OH2 4370   6.837   0.651   3.261
 1469TIP3    H1 4371   6.814   0.722   3.321
 1469TIP3    H2 4372   6.883   0.694   3.189
 1470TIP3   OH2 4373   6.733   1.202   1.480
 1470TIP3    H1 4374   6.748   1.244   1.565
 1470TIP3    H2 4375   6.800   1.240   1.423
 1471TIP3   OH2 4376   5.750   4.225   0.333
 1471TIP3    H1 4377   5.798   4.234   0.416
 1471TIP3    H2 4378   5.752   4.131   0.315
 1472TIP3   OH2 4379   6.585   6.768   4.221
 1472TIP3    H1 4380   6.604   6.849   4.268
 1472TIP3    H2 4381   6.669   6.722   4.216
 1473TIP3   OH2 4382   5.343   4.607   3.494
 1473TIP3    H1 4383   5.408   4.540   3.478
 1473TIP3    H2 4384   5.393   4.685   3.519
 1474TIP3   OH2 4385   0.979   1.282   0.411
 1474TIP3    H1 4386   0.885   1.295   0.416
 1474TIP3    H2 4387   0.989   1.191   0.383
 1475TIP3   OH2 4388   0.243   1.090   4.503
 1475TIP3    H1 4389   0.238   1.185   4.514
 1475TIP3    H2 4390   0.175   1.069   4.439
 1476TIP3   OH2 4391   7.147   0.295   0.178
 1476TIP3    H1 4392   7.173   0.383   0.205
 1476TIP3    H2 4393   7.089   0.264   0.247
 1477TIP3   OH2 4394   1.844   4.548   2.906
 1477TIP3    H1 4395   1.928   4.574   2.944
 1477TIP3    H2 4396   1.833   4.457   2.936
 1478TIP3   OH2 4397   5.515   6.169   2.945
 1478TIP3    H1 4398   5.508   6.178   3.040
 1478TIP3    H2 4399   5.426   6.185   2.913
 1479TIP3   OH2 4400   3.371   2.247   3.376
 1479TIP3    H1 4401   3.294   2.192   3.388
 1479TIP3    H2 4402   3.415   2.244   3.461
 1480TIP3   OH2 4403   6.657   0.052   0.874
 1480TIP3    H1 4404   6.729   0.087   0.822
 1480TIP3    H2 4405   6.587   0.036   0.810
 1481TIP3   OH2 4406   4.935   6.813   2.056
 1481TIP3    H1 4407   4.969   6.764   2.131
 1481TIP3    H2 4408   4.840   6.805   2.064
 1482TIP3   OH2 4409   2.999   3.436   2.014
 1482TIP3    H1 4410   2.947   3.429   2.094
 1482TIP3    H2 4411   2.935   3.435   1.943
 1483TIP3   OH2 4412   6.098   2.733   5.610
 1483TIP3    H1 4413   6.139   2.687   5.683
 1483TIP3    H2 4414   6.084   2.822   5.642
 1484TIP3   OH2 4415   3.128   5.242   3.852
 1484TIP3    H1 4416   3.192   5.198   3.796
 1484TIP3    H2 4417   3.059   5.177   3.865
 1485TIP3   OH2 4418   6.822   4.001   5.899
 1485TIP3    H1 4419   6.884   4.032   5.965
 1485TIP3    H2 4420   6.816   4.073   5.836
 1486TIP3   OH2 4421   0.501   5.175   2.791
 1486TIP3    H1 4422   0.541   5.188   2.877
 1486TIP3    H2 4423   0.450   5.095   2.800
 1487TIP3   OH2 4424   3.796   4.884   5.197
 1487TIP3    H1 4425   3.868   4.824   5.214
 1487TIP3    H2 4426   3.825   4.967   5.235
 1488TIP3   OH2 4427   6.169   0.662   1.170
 1488TIP3    H1 4428   6.241   0.678   1.109
 1488TIP3    H2 4429   6.198   0.701   1.253
 1489TIP3   OH2 4430   2.893   2.294   3.233
 1489TIP3    H1 4431   2.904   2.290   3.328
 1489TIP3    H2 4432   2.910   2.385   3.210
 1490TIP3   OH2 4433   6.738   2.940   4.549
 1490TIP3    H1 4434   6.714   2.857   4.589
 1490TIP3    H2 4435   6.800   2.917   4.480
 1491TIP3   OH2 4436   7.189   2.653   3.600
 1491TIP3    H1 4437   7.104   2.698   3.595
 1491TIP3    H2 4438   7.226   2.681   3.684
 1492TIP3   OH2 4439   1.575   3.316   3.610
 1492TIP3    H1 4440   1.650   3.319   3.550
 1492TIP3    H2 4441   1.530   3.234   3.589
 1493TIP3   OH2 4442   6.262   3.514   1.290
 1493TIP3    H1 4443   6.322   3.586   1.309
 1493TIP3    H2 4444   6.206   3.508   1.367
 1494TIP3   OH2 4445   0.219   3.532   4.744
 1494TIP3    H1 4446   0.200   3.584   4.822
 1494TIP3    H2 4447   0.234   3.444   4.776
 1495TIP3   OH2 4448   4.151   5.284   5.124
 1495TIP3    H1 4449   4.228   5.297   5.180
 1495TIP3    H2 4450   4.119   5.372   5.106
 1496TIP3   OH2 4451   4.375   0.919   5.572
 1496TIP3    H1 4452   4.354   0.997   5.520
 1496TIP3    H2 4453   4.468   0.926   5.590
 1497TIP3   OH2 4454   2.701   3.186   0.622
 1497TIP3    H1 4455   2.619   3.222   0.590
 1497TIP3    H2 4456   2.678   3.145   0.705
 1498TIP3   OH2 4457   1.384   2.582   4.442
 1498TIP3    H1 4458   1.357   2.664   4.400
 1498TIP3    H2 4459   1.459   2.552   4.392
 1499TIP3   OH2 4460   3.799   0.717   1.916
 1499TIP3    H1 4461   3.728   0.661   1.885
 1499TIP3    H2 4462   3.768   0.806   1.899
 1500TIP3   OH2 4463   3.375   3.727   0.541
 1500TIP3    H1 4464   3.422   3.670   0.480
 1500TIP3    H2 4465   3.308   3.769   0.488
 1501TIP3   OH2 4466   0.304   1.829   4.669
 1501TIP3    H1 4467   0.385   1.846   4.620
 1501TIP3    H2 4468   0.245   1.899   4.641
 1502TIP3   OH2 4469   2.811   3.571   0.428
 1502TIP3    H1 4470   2.873   3.498   0.432
 1502TIP3    H2 4471   2.808   3.596   0.336
 1503TIP3   OH2 4472   1.411   5.495   2.423
 1503TIP3    H1 4473   1.415   5.591   2.424
 1503TIP3    H2 4474   1.319   5.476   2.441
 1504TIP3   OH2 4475   6.077   2.148   4.506
 1504TIP3    H1 4476   6.141   2.081   4.533
 1504TIP3    H2 4477   6.108   2.228   4.548
 1505TIP3   OH2 4478   3.566   1.998   2.574
 1505TIP3    H1 4479   3.505   1.949   2.629
 1505TIP3    H2 4480   3.570   1.948   2.493
 1506TIP3   OH2 4481   7.108   0.996   4.546
 1506TIP3    H1 4482   7.137   1.040   4.466
 1506TIP3    H2 4483   7.101   1.067   4.610
 1507TIP3   OH2 4484   4.660   4.518   0.995
 1507TIP3    H1 4485   4.628   4.451   1.055
 1507TIP3    H2 4486   4.582   4.563   0.965
 1508TIP3   OH2 4487   3.972   5.763   1.897
 1508TIP3    H1 4488   3.994   5.850   1.932
 1508TIP3    H2 4489   3.884   5.773   1.863
 1509TIP3   OH2 4490   2.445   5.899   3.585
 1509TIP3    H1 4491   2.535   5.868   3.593
 1509TIP3    H2 4492   2.391   5.822   3.601
 1510TIP3   OH2 4493   5.587   1.056   0.317
 1510TIP3    H1 4494   5.520   1.120   0.295
 1510TIP3    H2 4495   5.558   1.019   0.401
 1511TIP3   OH2 4496   4.513   5.657   5.775
 1511TIP3    H1 4497   4.463   5.577   5.787
 1511TIP3    H2 4498   4.526   5.691   5.864
 1512TIP3   OH2 4499   5.739   4.982   2.762
 1512TIP3    H1 4500   5.694   5.052   2.714
 1512TIP3    H2 4501   5.669   4.931   2.802
 1513TIP3   OH2 4502   0.356   1.621   1.711
 1513TIP3    H1 4503   0.297   1.547   1.696
 1513TIP3    H2 4504   0.300   1.689   1.748
 1514TIP3   OH2 4505   3.787   4.662   0.476
 1514TIP3    H1 4506   3.739   4.636   0.554
 1514TIP3    H2 4507   3.757   4.750   0.457
 1515TIP3   OH2 4508   3.880   0.505   2.078
 1515TIP3    H1 4509   3.940   0.557   2.131
 1515TIP3    H2 4510   3.844   0.566   2.014
 1516TIP3   OH2 4511   5.682   2.690   1.218
 1516TIP3    H1 4512   5.673   2.691   1.313
 1516TIP3    H2 4513   5.664   2.780   1.191
 1517TIP3   OH2 4514   6.219   4.636   4.402
 1517TIP3    H1 4515   6.266   4.707   4.359
 1517TIP3    H2 4516   6.209   4.569   4.335
 1518TIP3   OH2 4517   3.514   3.953   4.395
 1518TIP3    H1 4518   3.456   3.919   4.327
 1518TIP3    H2 4519   3.512   4.048   4.382
 1519TIP3   OH2 4520   6.788   1.407   5.444
 1519TIP3    H1 4521   6.820   1.476   5.502
 1519TIP3    H2 4522   6.866   1.355   5.425
 1520TIP3   OH2 4523   5.221   0.360   3.916
 1520TIP3    H1 4524   5.157   0.375   3.846
 1520TIP3    H2 4525   5.263   0.277   3.891
 1521TIP3   OH2 4526   6.263   5.645   5.123
 1521TIP3    H1 4527   6.199   5.595   5.173
 1521TIP3    H2 4528   6.305   5.703   5.186
 1522TIP3   OH2 4529   3.941   5.331   4.053
 1522TIP3    H1 4530   3.911   5.308   3.966
 1522TIP3    H2 4531   3.862   5.330   4.107
 1523TIP3   OH2 4532   2.554   2.265   5.103
 1523TIP3    H1 4533   2.496   2.341   5.103
 1523TIP3    H2 4534   2.541   2.224   5.189
 1524TIP3   OH2 4535   2.933   3.719   4.073
 1524TIP3    H1 4536   2.861   3.730   4.011
 1524TIP3    H2 4537   2.939   3.804   4.118
 1525TIP3   OH2 4538   2.036   4.879   1.469
 1525TIP3    H1 4539   1.989   4.807   1.511
 1525TIP3    H2 4540   2.001   4.883   1.381
 1526TIP3   OH2 4541   6.526   2.452   1.416
 1526TIP3    H1 4542   6.515   2.541   1.384
 1526TIP3    H2 4543   6.540   2.462   1.510
 1527TIP3   OH2 4544   6.664   3.044   0.202
 1527TIP3    H1 4545   6.695   3.075   0.116
 1527TIP3    H2 4546   6.569   3.050   0.197
 1528TIP3   OH2 4547   6.729   1.486   4.452
 1528TIP3    H1 4548   6.787   1.543   4.402
 1528TIP3    H2 4549   6.786   1.415   4.482
 1529TIP3   OH2 4550   7.165   1.032   5.588
 1529TIP3    H1 4551   7.255   1.062   5.575
 1529TIP3    H2 4552   7.122   1.049   5.504
 1530TIP3   OH2 4553   5.331   6.056   4.570
 1530TIP3    H1 4554   5.338   5.961   4.579
 1530TIP3    H2 4555   5.245   6.077   4.608
 1531TIP3   OH2 4556   6.985   5.912   2.128
 1531TIP3    H1 4557   7.056   5.855   2.099
 1531TIP3    H2 4558   6.971   5.889   2.220
 1532TIP3   OH2 4559   2.976   3.118   5.560
 1532TIP3    H1 4560   2.972   3.212   5.572
 1532TIP3    H2 4561   2.946   3.104   5.470
 1533TIP3   OH2 4562   6.246   1.683   3.169
 1533TIP3    H1 4563   6.187   1.759   3.165
 1533TIP3    H2 4564   6.279   1.684   3.259
 1534TIP3   OH2 4565   3.609   5.159   3.621
 1534TIP3    H1 4566   3.595   5.144   3.715
 1534TIP3    H2 4567   3.682   5.221   3.618
 1535TIP3   OH2 4568   6.315   3.395   0.702
 1535TIP3    H1 4569   6.287   3.485   0.688
 1535TIP3    H2 4570   6.405   3.402   0.735
 1536TIP3   OH2 4571   2.821   5.284   4.880
 1536TIP3    H1 4572   2.849   5.228   4.807
 1536TIP3    H2 4573   2.903   5.312   4.921
 1537TIP3   OH2 4574   5.880   0.140   2.555
 1537TIP3    H1 4575   5.914   0.169   2.471
 1537TIP3    H2 4576   5.922   0.197   2.619
 1538TIP3   OH2 4577   6.904   0.594   3.629
 1538TIP3    H1 4578   6.954   0.526   3.674
 1538TIP3    H2 4579   6.813   0.579   3.655
 1539TIP3   OH2 4580   7.079   2.609   5.385
 1539TIP3    H1 4581   7.064   2.621   5.479
 1539TIP3    H2 4582   7.050   2.692   5.346
 1540TIP3   OH2 4583   6.822   3.615   0.967
 1540TIP3    H1 4584   6.858   3.556   0.901
 1540TIP3    H2 4585   6.753   3.564   1.009
 1541TIP3   OH2 4586   3.931   3.676   5.088
 1541TIP3    H1 4587   3.975   3.605   5.136
 1541TIP3    H2 4588   4.002   3.725   5.048
 1542TIP3   OH2 4589   5.282   5.866   0.743
 1542TIP3    H1 4590   5.302   5.773   0.747
 1542TIP3    H2 4591   5.329   5.897   0.665
 1543TIP3   OH2 4592   1.298   4.007   1.598
 1543TIP3    H1 4593   1.382   4.010   1.644
 1543TIP3    H2 4594   1.238   3.964   1.659
 1544TIP3   OH2 4595   2.238   0.254   2.989
 1544TIP3    H1 4596   2.256   0.229   2.898
 1544TIP3    H2 4597   2.171   0.192   3.019
 1545TIP3   OH2 4598   4.884   0.953   5.676
 1545TIP3    H1 4599   4.902   0.872   5.725
 1545TIP3    H2 4600   4.848   1.013   5.741
 1546TIP3   OH2 4601   3.975   0.294   5.785
 1546TIP3    H1 4602   4.017   0.238   5.851
 1546TIP3    H2 4603   3.882   0.270   5.789
 1547TIP3   OH2 4604   2.289   0.880   4.492
 1547TIP3    H1 4605   2.194   0.868   4.484
 1547TIP3    H2 4606   2.306   0.965   4.453
 1548TIP3   OH2 4607   4.370   6.770   2.317
 1548TIP3    H1 4608   4.311   6.700   2.289
 1548TIP3    H2 4609   4.339   6.848   2.270
 1549TIP3   OH2 4610   5.123   3.499   3.100
 1549TIP3    H1 4611   5.198   3.469   3.047
 1549TIP3    H2 4612   5.090   3.419   3.141
 1550TIP3   OH2 4613   5.591   4.418   0.956
 1550TIP3    H1 4614   5.506   4.420   0.912
 1550TIP3    H2 4615   5.638   4.494   0.920
 1551TIP3   OH2 4616   5.317   2.551   0.045
 1551TIP3    H1 4617   5.348   2.639   0.065
 1551TIP3    H2 4618   5.304   2.511   0.131
 1552TIP3   OH2 4619   1.557   5.525   1.401
 1552TIP3    H1 4620   1.594   5.549   1.316
 1552TIP3    H2 4621   1.475   5.576   1.406
 1553TIP3   OH2 4622   4.012   1.030   1.631
 1553TIP3    H1 4623   3.981   1.117   1.655
 1553TIP3    H2 4624   4.049   0.994   1.712
 1554TIP3   OH2 4625   4.221   0.570   3.153
 1554TIP3    H1 4626   4.141   0.605   3.192
 1554TIP3    H2 4627   4.198   0.554   3.061
 1555TIP3   OH2 4628   4.244   4.838   1.260
 1555TIP3    H1 4629   4.318   4.794   1.302
 1555TIP3    H2 4630   4.285   4.893   1.192
 1556TIP3   OH2 4631   4.401   3.669   4.211
 1556TIP3    H1 4632   4.460   3.611   4.163
 1556TIP3    H2 4633   4.440   3.676   4.298
 1557TIP3   OH2 4634   3.122   4.997   1.037
 1557TIP3    H1 4635   3.092   4.922   1.089
 1557TIP3    H2 4636   3.042   5.044   1.014
 1558TIP3   OH2 4637   5.139   2.061   1.148
 1558TIP3    H1 4638   5.104   2.091   1.064
 1558TIP3    H2 4639   5.231   2.041   1.131
 1559TIP3   OH2 4640   2.312   6.122   5.025
 1559TIP3    H1 4641   2.260   6.198   4.998
 1559TIP3    H2 4642   2.249   6.050   5.029
 1560TIP3   OH2 4643   5.792   2.803   2.775
 1560TIP3    H1 4644   5.816   2.894   2.794
 1560TIP3    H2 4645   5.875   2.757   2.766
 1561TIP3   OH2 4646   1.437   5.897   4.664
 1561TIP3    H1 4647   1.416   5.956   4.592
 1561TIP3    H2 4648   1.532   5.906   4.676
 1562TIP3   OH2 4649   6.076   2.539   1.170
 1562TIP3    H1 4650   6.004   2.499   1.121
 1562TIP3    H2 4651   6.127   2.587   1.105
 1563TIP3   OH2 4652   1.808   5.195   1.332
 1563TIP3    H1 4653   1.731   5.166   1.381
 1563TIP3    H2 4654   1.799   5.153   1.246
 1564TIP3   OH2 4655   6.382   3.665   0.558
 1564TIP3    H1 4656   6.470   3.650   0.524
 1564TIP3    H2 4657   6.392   3.740   0.617
 1565TIP3   OH2 4658   0.087   6.074   1.071
 1565TIP3    H1 4659   0.024   6.081   0.999
 1565TIP3    H2 4660   0.062   6.143   1.132
 1566TIP3   OH2 4661   6.448   4.393   4.217
 1566TIP3    H1 4662   6.405   4.333   4.157
 1566TIP3    H2 4663   6.535   4.355   4.232
 1567TIP3   OH2 4664   4.198   3.684   3.438
 1567TIP3    H1 4665   4.287   3.695   3.471
 1567TIP3    H2 4666   4.144   3.742   3.492
 1568TIP3   OH2 4667   1.303   4.072   3.509
 1568TIP3    H1 4668   1.368   4.006   3.532
 1568TIP3    H2 4669   1.331   4.151   3.556
 1569TIP3   OH2 4670   2.729   6.631   3.236
 1569TIP3    H1 4671   2.674   6.710   3.231
 1569TIP3    H2 4672   2.817   6.663   3.220
 1570TIP3   OH2 4673   5.698   0.387   3.551
 1570TIP3    H1 4674   5.758   0.322   3.516
 1570TIP3    H2 4675   5.755   0.449   3.598
 1571TIP3   OH2 4676   2.570   4.610   3.610
 1571TIP3    H1 4677   2.522   4.567   3.540
 1571TIP3    H2 4678   2.513   4.602   3.687
 1572TIP3   OH2 4679   0.488   0.990   3.743
 1572TIP3    H1 4680   0.507   0.909   3.790
 1572TIP3    H2 4681   0.536   0.982   3.661
 1573TIP3   OH2 4682   1.346   0.170   2.451
 1573TIP3    H1 4683   1.286   0.211   2.389
 1573TIP3    H2 4684   1.289   0.138   2.521
 1574TIP3   OH2 4685   7.222   2.751   5.021
 1574TIP3    H1 4686   7.164   2.680   4.994
 1574TIP3    H2 4687   7.284   2.761   4.949
 1575TIP3   OH2 4688   2.529   3.371   0.244
 1575TIP3    H1 4689   2.466   3.312   0.202
 1575TIP3    H2 4690   2.477   3.448   0.269
 1576TIP3   OH2 4691   4.759   2.979   0.363
 1576TIP3    H1 4692   4.695   2.928   0.314
 1576TIP3    H2 4693   4.725   3.068   0.361
 1577TIP3   OH2 4694   0.434   0.562   2.466
 1577TIP3    H1 4695   0.382   0.510   2.404
 1577TIP3    H2 4696   0.404   0.652   2.451
 1578TIP3   OH2 4697   4.978   0.817   0.885
 1578TIP3    H1 4698   5.005   0.908   0.899
 1578TIP3    H2 4699   5.045   0.780   0.828
 1579TIP3   OH2 4700   3.914   2.898   4.458
 1579TIP3    H1 4701   3.992   2.918   4.510
 1579TIP3    H2 4702   3.857   2.974   4.471
 1580TIP3   OH2 4703   4.729   3.945   1.512
 1580TIP3    H1 4704   4.691   4.013   1.456
 1580TIP3    H2 4705   4.683   3.954   1.595
 1581TIP3   OH2 4706   0.996   2.947   4.396
 1581TIP3    H1 4707   0.955   2.942   4.482
 1581TIP3    H2 4708   1.090   2.946   4.413
 1582TIP3   OH2 4709   3.345   3.978   3.145
 1582TIP3    H1 4710   3.295   4.007   3.069
 1582TIP3    H2 4711   3.429   4.023   3.137
 1583TIP3   OH2 4712   7.072   6.297   3.247
 1583TIP3    H1 4713   7.149   6.274   3.194
 1583TIP3    H2 4714   7.106   6.351   3.317
 1584TIP3   OH2 4715   6.997   2.787   2.452
 1584TIP3    H1 4716   6.974   2.837   2.374
 1584TIP3    H2 4717   6.914   2.777   2.500
 1585TIP3   OH2 4718   1.917   4.637   3.680
 1585TIP3    H1 4719   1.895   4.726   3.652
 1585TIP3    H2 4720   1.928   4.645   3.775
 1586TIP3   OH2 4721   6.416   2.739   1.352
 1586TIP3    H1 4722   6.442   2.826   1.323
 1586TIP3    H2 4723   6.380   2.697   1.274
 1587TIP3   OH2 4724   1.369   4.829   5.914
 1587TIP3    H1 4725   1.315   4.866   5.845
 1587TIP3    H2 4726   1.413   4.904   5.954
 1588TIP3   OH2 4727   7.109   5.522   3.733
 1588TIP3    H1 4728   7.027   5.474   3.741
 1588TIP3    H2 4729   7.149   5.488   3.653
 1589TIP3   OH2 4730   6.686   6.176   1.687
 1589TIP3    H1 4731   6.680   6.222   1.603
 1589TIP3    H2 4732   6.780   6.165   1.702
 1590TIP3   OH2 4733   7.101   4.331   1.130
 1590TIP3    H1 4734   7.015   4.340   1.090
 1590TIP3    H2 4735   7.158   4.305   1.058
 1591TIP3   OH2 4736   6.754   5.695   2.914
 1591TIP3    H1 4737   6.832   5.728   2.959
 1591TIP3    H2 4738   6.777   5.607   2.886
 1592TIP3   OH2 4739   0.530   3.711   3.151
 1592TIP3    H1 4740   0.569   3.798   3.150
 1592TIP3    H2 4741   0.603   3.652   3.172
 1593TIP3   OH2 4742   4.620   6.449   1.095
 1593TIP3    H1 4743   4.554   6.500   1.048
 1593TIP3    H2 4744   4.703   6.491   1.074
 1594TIP3   OH2 4745   0.781   6.634   5.797
 1594TIP3    H1 4746   0.711   6.576   5.826
 1594TIP3    H2 4747   0.859   6.605   5.845
 1595TIP3   OH2 4748   0.659   4.865   5.213
 1595TIP3    H1 4749   0.687   4.890   5.301
 1595TIP3    H2 4750   0.741   4.853   5.165
 1596TIP3   OH2 4751   5.480   2.062   4.790
 1596TIP3    H1 4752   5.514   2.151   4.783
 1596TIP3    H2 4753   5.553   2.007   4.763
 1597TIP3   OH2 4754   1.112   0.068   0.150
 1597TIP3    H1 4755   1.156  -0.014   0.171
 1597TIP3    H2 4756   1.034   0.068   0.207
 1598TIP3   OH2 4757   3.652   6.071   3.836
 1598TIP3    H1 4758   3.628   6.159   3.808
 1598TIP3    H2 4759   3.731   6.083   3.889
 1599TIP3   OH2 4760   1.043   4.568   1.813
 1599TIP3    H1 4761   1.007   4.552   1.900
 1599TIP3    H2 4762   1.094   4.490   1.794
 1600TIP3   OH2 4763   3.385   4.534   1.261
 1600TIP3    H1 4764   3.399   4.472   1.332
 1600TIP3    H2 4765   3.453   4.512   1.197
 1601TIP3   OH2 4766   2.594   2.646   5.308
 1601TIP3    H1 4767   2.540   2.569   5.323
 1601TIP3    H2 4768   2.675   2.612   5.272
 1602TIP3   OH2 4769  -0.004   2.347   5.880
 1602TIP3    H1 4770   0.006   2.360   5.786
 1602TIP3    H2 4771   0.078   2.306   5.907
 1603TIP3   OH2 4772   6.692   5.420   5.014
 1603TIP3    H1 4773   6.615   5.466   4.981
 1603TIP3    H2 4774   6.696   5.339   4.964
 1604TIP3   OH2 4775   2.115   1.548   5.827
 1604TIP3    H1 4776   2.142   1.491   5.899
 1604TIP3    H2 4777   2.147   1.635   5.851
 1605TIP3   OH2 4778   3.839   2.361   0.964
 1605TIP3    H1 4779   3.927   2.340   0.995
 1605TIP3    H2 4780   3.781   2.332   1.035
 1606TIP3   OH2 4781   5.571   4.315   4.629
 1606TIP3    H1 4782   5.597   4.251   4.695
 1606TIP3    H2 4783   5.640   4.311   4.563
 1607TIP3   OH2 4784   1.291   5.364   1.653
 1607TIP3    H1 4785   1.231   5.317   1.711
 1607TIP3    H2 4786   1.379   5.343   1.687
 1608TIP3   OH2 4787   6.488   3.765   2.461
 1608TIP3    H1 4788   6.569   3.720   2.435
 1608TIP3    H2 4789   6.515   3.855   2.476
 1609TIP3   OH2 4790   0.956   0.352   3.845
 1609TIP3    H1 4791   1.051   0.348   3.859
 1609TIP3    H2 4792   0.922   0.277   3.894
 1610TIP3   OH2 4793   1.106   6.434   4.016
 1610TIP3    H1 4794   1.123   6.376   3.941
 1610TIP3    H2 4795   1.190   6.440   4.061
 1611TIP3   OH2 4796   5.558   2.358   3.085
 1611TIP3    H1 4797   5.619   2.409   3.032
 1611TIP3    H2 4798   5.584   2.376   3.175
 1612TIP3   OH2 4799   6.954   3.005   3.395
 1612TIP3    H1 4800   6.931   3.046   3.312
 1612TIP3    H2 4801   6.962   2.911   3.374
 1613TIP3   OH2 4802   0.847   1.250   1.859
 1613TIP3    H1 4803   0.885   1.323   1.811
 1613TIP3    H2 4804   0.778   1.289   1.912
 1614TIP3   OH2 4805   0.654   5.283   4.907
 1614TIP3    H1 4806   0.658   5.198   4.863
 1614TIP3    H2 4807   0.740   5.294   4.947
 1615TIP3   OH2 4808   6.475   3.663   5.816
 1615TIP3    H1 4809   6.557   3.697   5.781
 1615TIP3    H2 4810   6.479   3.569   5.801
 1616TIP3   OH2 4811   6.766   0.984   5.205
 1616TIP3    H1 4812   6.771   0.911   5.142
 1616TIP3    H2 4813   6.732   1.057   5.153
 1617TIP3   OH2 4814   6.057   2.286   0.066
 1617TIP3    H1 4815   6.152   2.285   0.069
 1617TIP3    H2 4816   6.030   2.308   0.156
 1618TIP3   OH2 4817   5.250   0.099   1.845
 1618TIP3    H1 4818   5.256   0.090   1.940
 1618TIP3    H2 4819   5.313   0.034   1.811
 1619TIP3   OH2 4820   4.580   1.234   1.019
 1619TIP3    H1 4821   4.593   1.258   1.110
 1619TIP3    H2 4822   4.530   1.307   0.982
 1620TIP3   OH2 4823   1.889   1.758   0.354
 1620TIP3    H1 4824   1.970   1.759   0.403
 1620TIP3    H2 4825   1.873   1.851   0.333
 1621TIP3   OH2 4826   3.116   6.667   3.775
 1621TIP3    H1 4827   3.073   6.727   3.836
 1621TIP3    H2 4828   3.208   6.669   3.800
 1622TIP3   OH2 4829   7.167   6.455   3.017
 1622TIP3    H1 4830   7.231   6.461   3.088
 1622TIP3    H2 4831   7.084   6.482   3.056
 1623TIP3   OH2 4832   6.137   6.415   3.452
 1623TIP3    H1 4833   6.171   6.359   3.382
 1623TIP3    H2 4834   6.060   6.368   3.484
 1624TIP3   OH2 4835   4.166   0.812   2.443
 1624TIP3    H1 4836   4.181   0.750   2.514
 1624TIP3    H2 4837   4.253   0.827   2.406
 1625TIP3   OH2 4838   4.327   5.739   5.133
 1625TIP3    H1 4839   4.287   5.730   5.047
 1625TIP3    H2 4840   4.345   5.832   5.143
 1626TIP3   OH2 4841   2.181   1.393   0.774
 1626TIP3    H1 4842   2.258   1.365   0.824
 1626TIP3    H2 4843   2.131   1.313   0.760
 1627TIP3   OH2 4844   2.472   5.182   0.932
 1627TIP3    H1 4845   2.380   5.180   0.907
 1627TIP3    H2 4846   2.506   5.096   0.907
 1628TIP3   OH2 4847   3.492   2.119   3.859
 1628TIP3    H1 4848   3.442   2.038   3.854
 1628TIP3    H2 4849   3.458   2.162   3.938
 1629TIP3   OH2 4850   6.496   1.585   4.061
 1629TIP3    H1 4851   6.473   1.493   4.050
 1629TIP3    H2 4852   6.591   1.586   4.063
 1630TIP3   OH2 4853   4.823   2.810   2.151
 1630TIP3    H1 4854   4.826   2.741   2.217
 1630TIP3    H2 4855   4.810   2.765   2.068
 1631TIP3   OH2 4856   5.345   3.451   1.843
 1631TIP3    H1 4857   5.251   3.467   1.851
 1631TIP3    H2 4858   5.351   3.360   1.814
 1632TIP3   OH2 4859   6.305   1.267   2.992
 1632TIP3    H1 4860   6.341   1.200   3.050
 1632TIP3    H2 4861   6.258   1.327   3.050
 1633TIP3   OH2 4862   0.634   1.322   3.413
 1633TIP3    H1 4863   0.563   1.331   3.477
 1633TIP3    H2 4864   0.591   1.290   3.334
 1634TIP3   OH2 4865   3.242   6.529   1.847
 1634TIP3    H1 4866   3.329   6.518   1.807
 1634TIP3    H2 4867   3.242   6.467   1.920
 1635TIP3   OH2 4868   0.712   5.505   2.896
 1635TIP3    H1 4869   0.790   5.545   2.858
 1635TIP3    H2 4870   0.668   5.464   2.822
 1636TIP3   OH2 4871   4.776   3.157   4.418
 1636TIP3    H1 4872   4.855   3.157   4.364
 1636TIP3    H2 4873   4.729   3.236   4.391
 1637TIP3   OH2 4874   3.318   2.487   2.312
 1637TIP3    H1 4875   3.329   2.516   2.222
 1637TIP3    H2 4876   3.380   2.541   2.362
 1638TIP3   OH2 4877   6.111   5.680   5.804
 1638TIP3    H1 4878   6.044   5.736   5.763
 1638TIP3    H2 4879   6.068   5.645   5.882
 1639TIP3   OH2 4880   2.578   1.398   3.577
 1639TIP3    H1 4881   2.601   1.365   3.665
 1639TIP3    H2 4882   2.518   1.470   3.594
 1640TIP3   OH2 4883   2.414   0.010   1.541
 1640TIP3    H1 4884   2.496  -0.036   1.556
 1640TIP3    H2 4885   2.437   0.083   1.483
 1641TIP3   OH2 4886   3.137   4.270   0.616
 1641TIP3    H1 4887   3.115   4.188   0.571
 1641TIP3    H2 4888   3.197   4.314   0.556
 1642TIP3   OH2 4889   1.628   0.182   5.773
 1642TIP3    H1 4890   1.542   0.150   5.743
 1642TIP3    H2 4891   1.626   0.168   5.868
 1643TIP3   OH2 4892   6.496   1.928   4.360
 1643TIP3    H1 4893   6.569   1.951   4.418
 1643TIP3    H2 4894   6.419   1.964   4.405
 1644TIP3   OH2 4895   1.498   5.420   3.464
 1644TIP3    H1 4896   1.525   5.377   3.545
 1644TIP3    H2 4897   1.412   5.382   3.445
 1645TIP3   OH2 4898   2.737   4.073   2.291
 1645TIP3    H1 4899   2.684   4.053   2.213
 1645TIP3    H2 4900   2.764   4.164   2.277
 1646TIP3   OH2 4901   2.935   3.900   4.776
 1646TIP3    H1 4902   2.896   3.986   4.790
 1646TIP3    H2 4903   2.925   3.884   4.682
 1647TIP3   OH2 4904   1.757   0.160   2.077
 1647TIP3    H1 4905   1.705   0.170   2.157
 1647TIP3    H2 4906   1.724   0.080   2.037
 1648TIP3   OH2 4907   5.663   3.367   4.252
 1648TIP3    H1 4908   5.709   3.339   4.173
 1648TIP3    H2 4909   5.721   3.431   4.292
 1649TIP3   OH2 4910   6.705   3.003   1.429
 1649TIP3    H1 4911   6.795   3.015   1.400
 1649TIP3    H2 4912   6.694   3.065   1.501
 1650TIP3   OH2 4913   4.298   3.929   2.878
 1650TIP3    H1 4914   4.349   3.875   2.818
 1650TIP3    H2 4915   4.354   4.003   2.899
 1651TIP3   OH2 4916   7.085   1.552   2.324
 1651TIP3    H1 4917   7.121   1.463   2.319
 1651TIP3    H2 4918   7.162   1.609   2.318
 1652TIP3   OH2 4919   4.233   1.676   0.712
 1652TIP3    H1 4920   4.224   1.716   0.626
 1652TIP3    H2 4921   4.257   1.748   0.770
 1653TIP3   OH2 4922   5.234   6.545   3.703
 1653TIP3    H1 4923   5.210   6.630   3.668
 1653TIP3    H2 4924   5.179   6.482   3.656
 1654TIP3   OH2 4925   2.858   2.870   4.104
 1654TIP3    H1 4926   2.891   2.782   4.119
 1654TIP3    H2 4927   2.935   2.926   4.104
 1655TIP3   OH2 4928   4.293   3.658   2.109
 1655TIP3    H1 4929   4.369   3.627   2.159
 1655TIP3    H2 4930   4.325   3.735   2.062
 1656TIP3   OH2 4931   0.559   4.977   4.565
 1656TIP3    H1 4932   0.636   5.002   4.514
 1656TIP3    H2 4933   0.490   4.968   4.500
 1657TIP3   OH2 4934   6.098   1.887   3.088
 1657TIP3    H1 4935   6.105   1.983   3.086
 1657TIP3    H2 4936   6.031   1.867   3.023
 1658TIP3   OH2 4937   0.996   3.872   4.132
 1658TIP3    H1 4938   0.977   3.912   4.047
 1658TIP3    H2 4939   1.085   3.838   4.124
 1659TIP3   OH2 4940   2.942   0.645   1.659
 1659TIP3    H1 4941   2.854   0.607   1.663
 1659TIP3    H2 4942   2.946   0.703   1.735
 1660TIP3   OH2 4943   4.679   5.012   2.365
 1660TIP3    H1 4944   4.739   4.938   2.357
 1660TIP3    H2 4945   4.624   4.990   2.441
 1661TIP3   OH2 4946   5.299   2.662   2.919
 1661TIP3    H1 4947   5.385   2.672   2.878
 1661TIP3    H2 4948   5.280   2.569   2.914
 1662TIP3   OH2 4949   6.652   5.657   0.112
 1662TIP3    H1 4950   6.611   5.668   0.198
 1662TIP3    H2 4951   6.731   5.710   0.115
 1663TIP3   OH2 4952   4.096   4.041   1.025
 1663TIP3    H1 4953   4.132   4.127   1.002
 1663TIP3    H2 4954   4.172   3.984   1.034
 1664TIP3   OH2 4955   4.603   3.508   1.633
 1664TIP3    H1 4956   4.627   3.600   1.623
 1664TIP3    H2 4957   4.633   3.485   1.720
 1665TIP3   OH2 4958   4.990   3.286   3.173
 1665TIP3    H1 4959   5.002   3.253   3.084
 1665TIP3    H2 4960   4.997   3.209   3.228
 1666TIP3   OH2 4961   2.234   1.768   2.540
 1666TIP3    H1 4962   2.303   1.764   2.606
 1666TIP3    H2 4963   2.202   1.678   2.533
 1667TIP3   OH2 4964   4.264   1.141   5.442
 1667TIP3    H1 4965   4.318   1.219   5.435
 1667TIP3    H2 4966   4.180   1.166   5.404
 1668TIP3   OH2 4967   1.140   0.192   4.528
 1668TIP3    H1 4968   1.061   0.182   4.581
 1668TIP3    H2 4969   1.195   0.253   4.578
 1669TIP3   OH2 4970   3.235   2.219   1.200
 1669TIP3    H1 4971   3.237   2.301   1.250
 1669TIP3    H2 4972   3.255   2.245   1.110
 1670TIP3   OH2 4973   5.375   1.094   3.147
 1670TIP3    H1 4974   5.385   1.169   3.205
 1670TIP3    H2 4975   5.282   1.073   3.150
 1671TIP3   OH2 4976   0.064   3.212   2.482
 1671TIP3    H1 4977   0.000   3.281   2.464
 1671TIP3    H2 4978   0.020   3.152   2.541
 1672TIP3   OH2 4979   1.376   2.402   0.852
 1672TIP3    H1 4980   1.339   2.455   0.923
 1672TIP3    H2 4981   1.311   2.334   0.836
 1673TIP3   OH2 4982   3.028   4.175   2.057
 1673TIP3    H1 4983   3.056   4.248   2.001
 1673TIP3    H2 4984   3.005   4.216   2.140
 1674TIP3   OH2 4985   6.842   3.168   5.688
 1674TIP3    H1 4986   6.770   3.154   5.750
 1674TIP3    H2 4987   6.826   3.255   5.651
 1675TIP3   OH2 4988   1.645   1.965   0.459
 1675TIP3    H1 4989   1.686   1.913   0.528
 1675TIP3    H2 4990   1.554   1.975   0.488
 1676TIP3   OH2 4991   3.203   2.520   1.593
 1676TIP3    H1 4992   3.241   2.463   1.660
 1676TIP3    H2 4993   3.127   2.560   1.636
 1677TIP3   OH2 4994   3.384   0.986   5.636
 1677TIP3    H1 4995   3.445   1.045   5.680
 1677TIP3    H2 4996   3.400   0.999   5.543
 1678TIP3   OH2 4997   5.716   5.782   2.175
 1678TIP3    H1 4998   5.779   5.747   2.238
 1678TIP3    H2 4999   5.725   5.877   2.183
 1679TIP3   OH2 5000   4.352   3.545   5.068
 1679TIP3    H1 5001   4.298   3.471   5.043
 1679TIP3    H2 5002   4.427   3.506   5.112
 1680TIP3   OH2 5003   1.899   3.426   4.502
 1680TIP3    H1 5004   1.953   3.350   4.482
 1680TIP3    H2 5005   1.826   3.390   4.553
 1681TIP3   OH2 5006   7.051   0.056   2.678
 1681TIP3    H1 5007   7.002   0.068   2.597
 1681TIP3    H2 5008   7.002   0.105   2.743
 1682TIP3   OH2 5009   1.657   2.413   0.885
 1682TIP3    H1 5010   1.685   2.325   0.859
 1682TIP3    H2 5011   1.568   2.421   0.851
 1683TIP3   OH2 5012   5.210   2.054   4.112
 1683TIP3    H1 5013   5.237   2.069   4.021
 1683TIP3    H2 5014   5.165   2.135   4.136
 1684TIP3   OH2 5015   0.393   0.663   3.740
 1684TIP3    H1 5016   0.439   0.624   3.665
 1684TIP3    H2 5017   0.463   0.697   3.796
 1685TIP3   OH2 5018   4.949   1.478   2.257
 1685TIP3    H1 5019   4.854   1.467   2.259
 1685TIP3    H2 5020   4.972   1.513   2.343
 1686TIP3   OH2 5021   1.214   1.228   0.607
 1686TIP3    H1 5022   1.256   1.154   0.564
 1686TIP3    H2 5023   1.122   1.200   0.618
 1687TIP3   OH2 5024   2.790   5.053   2.445
 1687TIP3    H1 5025   2.807   5.112   2.371
 1687TIP3    H2 5026   2.844   4.976   2.428
 1688TIP3   OH2 5027   5.159   4.274   3.151
 1688TIP3    H1 5028   5.134   4.181   3.148
 1688TIP3    H2 5029   5.122   4.311   3.070
 1689TIP3   OH2 5030   2.554   1.100   1.169
 1689TIP3    H1 5031   2.582   1.101   1.077
 1689TIP3    H2 5032   2.477   1.043   1.170
 1690TIP3   OH2 5033   1.957   6.157   1.337
 1690TIP3    H1 5034   1.940   6.250   1.323
 1690TIP3    H2 5035   2.039   6.155   1.386
 1691TIP3   OH2 5036   1.810   4.433   3.283
 1691TIP3    H1 5037   1.897   4.474   3.288
 1691TIP3    H2 5038   1.765   4.464   3.362
 1692TIP3   OH2 5039   5.227   3.312   0.070
 1692TIP3    H1 5040   5.160   3.376   0.047
 1692TIP3    H2 5041   5.277   3.353   0.140
 1693TIP3   OH2 5042   7.044   0.211   3.464
 1693TIP3    H1 5043   7.044   0.305   3.448
 1693TIP3    H2 5044   7.119   0.196   3.522
 1694TIP3   OH2 5045   4.697   2.836   1.200
 1694TIP3    H1 5046   4.729   2.906   1.143
 1694TIP3    H2 5047   4.775   2.789   1.228
 1695TIP3   OH2 5048   2.600   5.879   5.529
 1695TIP3    H1 5049   2.573   5.848   5.616
 1695TIP3    H2 5050   2.603   5.974   5.537
 1696TIP3   OH2 5051   6.283   5.397   4.425
 1696TIP3    H1 5052   6.264   5.331   4.491
 1696TIP3    H2 5053   6.208   5.395   4.365
 1697TIP3   OH2 5054   3.782   6.568   5.082
 1697TIP3    H1 5055   3.768   6.511   5.007
 1697TIP3    H2 5056   3.805   6.509   5.153
 1698TIP3   OH2 5057   6.772   3.526   3.172
 1698TIP3    H1 5058   6.717   3.527   3.250
 1698TIP3    H2 5059   6.710   3.530   3.099
 1699TIP3   OH2 5060   5.986   0.920   4.192
 1699TIP3    H1 5061   5.949   0.867   4.121
 1699TIP3    H2 5062   6.080   0.902   4.188
 1700TIP3   OH2 5063   2.089   4.793   0.039
 1700TIP3    H1 5064   2.144   4.872   0.035
 1700TIP3    H2 5065   2.026   4.804  -0.032
 1701TIP3   OH2 5066   2.441   2.396   1.331
 1701TIP3    H1 5067   2.386   2.463   1.291
 1701TIP3    H2 5068   2.442   2.324   1.268
 1702TIP3   OH2 5069   4.282   4.012   2.181
 1702TIP3    H1 5070   4.265   3.923   2.213
 1702TIP3    H2 5071   4.375   4.013   2.161
 1703TIP3   OH2 5072   4.299   1.950   5.552
 1703TIP3    H1 5073   4.235   1.886   5.522
 1703TIP3    H2 5074   4.259   1.989   5.630
 1704TIP3   OH2 5075   4.479   3.392   4.702
 1704TIP3    H1 5076   4.420   3.343   4.645
 1704TIP3    H2 5077   4.492   3.475   4.656
 1705TIP3   OH2 5078   4.988   3.053   0.500
 1705TIP3    H1 5079   4.901   3.019   0.479
 1705TIP3    H2 5080   4.972   3.142   0.529
 1706TIP3   OH2 5081   6.866   6.321   0.076
 1706TIP3    H1 5082   6.788   6.357   0.118
 1706TIP3    H2 5083   6.851   6.226   0.076
 1707TIP3   OH2 5084   1.975   4.015   4.118
 1707TIP3    H1 5085   1.927   4.001   4.037
 1707TIP3    H2 5086   1.964   3.933   4.167
 1708TIP3   OH2 5087   6.192   4.124   4.976
 1708TIP3    H1 5088   6.226   4.146   5.063
 1708TIP3    H2 5089   6.267   4.136   4.918
 1709TIP3   OH2 5090   5.502   4.284   1.485
 1709TIP3    H1 5091   5.501   4.260   1.393
 1709TIP3    H2 5092   5.511   4.379   1.485
 1710TIP3   OH2 5093   0.204   0.112   5.702
 1710TIP3    H1 5094   0.150   0.162   5.641
 1710TIP3    H2 5095   0.175   0.140   5.788
 1711TIP3   OH2 5096   3.513   6.274   0.798
 1711TIP3    H1 5097   3.584   6.211   0.804
 1711TIP3    H2 5098   3.444   6.239   0.855
 1712TIP3   OH2 5099   7.145   5.634   5.449
 1712TIP3    H1 5100   7.131   5.620   5.355
 1712TIP3    H2 5101   7.066   5.598   5.491
 1713TIP3   OH2 5102   2.681   5.965   2.117
 1713TIP3    H1 5103   2.676   6.021   2.040
 1713TIP3    H2 5104   2.737   6.014   2.178
 1714TIP3   OH2 5105   1.475   2.263   1.148
 1714TIP3    H1 5106   1.500   2.236   1.059
 1714TIP3    H2 5107   1.414   2.336   1.135
 1715TIP3   OH2 5108   2.452   2.138   3.219
 1715TIP3    H1 5109   2.423   2.065   3.165
 1715TIP3    H2 5110   2.506   2.191   3.160
 1716TIP3   OH2 5111   6.714   0.717   3.898
 1716TIP3    H1 5112   6.650   0.732   3.967
 1716TIP3    H2 5113   6.681   0.639   3.852
 1717TIP3   OH2 5114   0.549   1.206   1.010
 1717TIP3    H1 5115   0.506   1.228   0.927
 1717TIP3    H2 5116   0.612   1.277   1.024
 1718TIP3   OH2 5117   6.806   4.570   2.024
 1718TIP3    H1 5118   6.858   4.527   2.092
 1718TIP3    H2 5119   6.723   4.522   2.022
 1719TIP3   OH2 5120   5.543   5.923   0.910
 1719TIP3    H1 5121   5.633   5.944   0.933
 1719TIP3    H2 5122   5.541   5.930   0.814
 1720TIP3   OH2 5123   5.878   4.970   4.642
 1720TIP3    H1 5124   5.788   4.965   4.610
 1720TIP3    H2 5125   5.928   4.916   4.580
 1721TIP3   OH2 5126   2.595   4.469   2.899
 1721TIP3    H1 5127   2.617   4.377   2.883
 1721TIP3    H2 5128   2.606   4.480   2.994
 1722TIP3   OH2 5129   0.206   3.479   2.504
 1722TIP3    H1 5130   0.137   3.416   2.523
 1722TIP3    H2 5131   0.282   3.448   2.554
 1723TIP3   OH2 5132   4.165   3.520   3.188
 1723TIP3    H1 5133   4.099   3.556   3.129
 1723TIP3    H2 5134   4.171   3.583   3.260
 1724TIP3   OH2 5135   4.079   2.470   3.622
 1724TIP3    H1 5136   4.007   2.488   3.681
 1724TIP3    H2 5137   4.079   2.542   3.560
 1725TIP3   OH2 5138   4.715   1.702   1.625
 1725TIP3    H1 5139   4.657   1.641   1.669
 1725TIP3    H2 5140   4.789   1.714   1.685
 1726TIP3   OH2 5141   4.916   3.931   0.826
 1726TIP3    H1 5142   4.942   4.022   0.841
 1726TIP3    H2 5143   4.853   3.935   0.754
 1727TIP3   OH2 5144   6.425   2.827   5.844
 1727TIP3    H1 5145   6.427   2.746   5.793
 1727TIP3    H2 5146   6.343   2.823   5.893
 1728TIP3   OH2 5147   6.279   3.090   2.786
 1728TIP3    H1 5148   6.205   3.150   2.782
 1728TIP3    H2 5149   6.309   3.083   2.695
 1729TIP3   OH2 5150   6.524   2.190   2.342
 1729TIP3    H1 5151   6.505   2.187   2.248
 1729TIP3    H2 5152   6.504   2.280   2.368
 1730TIP3   OH2 5153   0.524   6.552   2.142
 1730TIP3    H1 5154   0.515   6.467   2.185
 1730TIP3    H2 5155   0.518   6.616   2.213
 1731TIP3   OH2 5156   2.488   1.812   0.302
 1731TIP3    H1 5157   2.476   1.885   0.240
 1731TIP3    H2 5158   2.492   1.854   0.388
 1732TIP3   OH2 5159   6.163   1.044   0.728
 1732TIP3    H1 5160   6.172   1.127   0.681
 1732TIP3    H2 5161   6.098   0.995   0.677
 1733TIP3   OH2 5162   5.156   6.531   1.541
 1733TIP3    H1 5163   5.109   6.597   1.491
 1733TIP3    H2 5164   5.214   6.580   1.598
 1734TIP3   OH2 5165   5.963   2.024   4.148
 1734TIP3    H1 5166   6.016   2.002   4.072
 1734TIP3    H2 5167   6.000   1.973   4.220
 1735TIP3   OH2 5168   0.782   3.564   4.546
 1735TIP3    H1 5169   0.739   3.607   4.472
 1735TIP3    H2 5170   0.822   3.486   4.507
 1736TIP3   OH2 5171   6.985   4.747   4.866
 1736TIP3    H1 5172   6.999   4.730   4.773
 1736TIP3    H2 5173   7.017   4.837   4.879
 1737TIP3   OH2 5174   2.171   5.439   2.389
 1737TIP3    H1 5175   2.136   5.526   2.372
 1737TIP3    H2 5176   2.210   5.412   2.306
 1738TIP3   OH2 5177   6.361   3.532   5.232
 1738TIP3    H1 5178   6.265   3.529   5.225
 1738TIP3    H2 5179   6.378   3.544   5.325
 1739TIP3   OH2 5180   5.449   1.374   0.780
 1739TIP3    H1 5181   5.421   1.303   0.838
 1739TIP3    H2 5182   5.438   1.453   0.832
 1740TIP3   OH2 5183   6.748   5.851   3.786
 1740TIP3    H1 5184   6.731   5.936   3.744
 1740TIP3    H2 5185   6.835   5.861   3.826
 1741TIP3   OH2 5186   4.688   6.130   3.071
 1741TIP3    H1 5187   4.619   6.194   3.055
 1741TIP3    H2 5188   4.720   6.150   3.159
 1742TIP3   OH2 5189   1.575   1.977   3.889
 1742TIP3    H1 5190   1.589   2.062   3.847
 1742TIP3    H2 5191   1.483   1.978   3.914
 1743TIP3   OH2 5192   1.263   4.982   1.719
 1743TIP3    H1 5193   1.226   4.895   1.709
 1743TIP3    H2 5194   1.320   4.976   1.795
 1744TIP3   OH2 5195   1.035   3.441   1.214
 1744TIP3    H1 5196   0.965   3.505   1.202
 1744TIP3    H2 5197   0.994   3.356   1.197
 1745TIP3   OH2 5198   5.938   4.891   2.918
 1745TIP3    H1 5199   5.896   4.810   2.947
 1745TIP3    H2 5200   5.887   4.919   2.842
 1746TIP3   OH2 5201   7.019   4.455   0.835
 1746TIP3    H1 5202   6.949   4.483   0.894
 1746TIP3    H2 5203   6.975   4.406   0.766
 1747TIP3   OH2 5204   1.224   6.390   4.401
 1747TIP3    H1 5205   1.148   6.430   4.442
 1747TIP3    H2 5206   1.290   6.459   4.402
 1748TIP3   OH2 5207   5.061   1.406   0.842
 1748TIP3    H1 5208   4.983   1.402   0.786
 1748TIP3    H2 5209   5.115   1.475   0.802
 1749TIP3   OH2 5210   0.569   2.654   1.651
 1749TIP3    H1 5211   0.643   2.688   1.601
 1749TIP3    H2 5212   0.493   2.695   1.610
 1750TIP3   OH2 5213   1.791   4.765   0.515
 1750TIP3    H1 5214   1.840   4.807   0.445
 1750TIP3    H2 5215   1.700   4.770   0.487
 1751TIP3   OH2 5216   0.529   1.020   0.513
 1751TIP3    H1 5217   0.458   0.970   0.473
 1751TIP3    H2 5218   0.609   0.985   0.473
 1752TIP3   OH2 5219   1.973   0.603   0.586
 1752TIP3    H1 5220   2.051   0.601   0.530
 1752TIP3    H2 5221   1.900   0.587   0.526
 1753TIP3   OH2 5222   0.909   1.609   5.213
 1753TIP3    H1 5223   0.922   1.621   5.119
 1753TIP3    H2 5224   0.985   1.650   5.254
 1754TIP3   OH2 5225   0.555   0.934   0.999
 1754TIP3    H1 5226   0.558   0.901   1.089
 1754TIP3    H2 5227   0.559   1.029   1.008
 1755TIP3   OH2 5228   4.126   0.555   0.439
 1755TIP3    H1 5229   4.055   0.610   0.407
 1755TIP3    H2 5230   4.106   0.540   0.531
 1756TIP3   OH2 5231   1.539   5.272   2.274
 1756TIP3    H1 5232   1.493   5.320   2.342
 1756TIP3    H2 5233   1.528   5.180   2.297
 1757TIP3   OH2 5234   0.806   4.210   2.123
 1757TIP3    H1 5235   0.716   4.205   2.091
 1757TIP3    H2 5236   0.828   4.303   2.119
 1758TIP3   OH2 5237   5.031   5.818   5.511
 1758TIP3    H1 5238   5.033   5.824   5.606
 1758TIP3    H2 5239   5.017   5.725   5.493
 1759TIP3   OH2 5240   5.259   6.211   0.578
 1759TIP3    H1 5241   5.252   6.169   0.664
 1759TIP3    H2 5242   5.174   6.195   0.537
 1760TIP3   OH2 5243   2.243   1.214   5.573
 1760TIP3    H1 5244   2.287   1.180   5.651
 1760TIP3    H2 5245   2.310   1.263   5.526
 1761TIP3   OH2 5246   6.133   4.665   2.196
 1761TIP3    H1 5247   6.140   4.610   2.274
 1761TIP3    H2 5248   6.204   4.633   2.139
 1762TIP3   OH2 5249   6.193   3.706   4.754
 1762TIP3    H1 5250   6.162   3.788   4.717
 1762TIP3    H2 5251   6.253   3.732   4.824
 1763TIP3   OH2 5252   2.733   4.410   0.210
 1763TIP3    H1 5253   2.770   4.388   0.295
 1763TIP3    H2 5254   2.724   4.325   0.165
 1764TIP3   OH2 5255   1.149   5.675   5.685
 1764TIP3    H1 5256   1.165   5.745   5.748
 1764TIP3    H2 5257   1.173   5.595   5.732
 1765TIP3   OH2 5258   2.106   5.634   4.699
 1765TIP3    H1 5259   2.194   5.672   4.703
 1765TIP3    H2 5260   2.049   5.707   4.680
 1766TIP3   OH2 5261   6.640   1.238   4.302
 1766TIP3    H1 5262   6.717   1.239   4.359
 1766TIP3    H2 5263   6.636   1.327   4.266
 1767TIP3   OH2 5264   2.857   4.584   3.433
 1767TIP3    H1 5265   2.803   4.642   3.380
 1767TIP3    H2 5266   2.867   4.629   3.517
 1768TIP3   OH2 5267   7.163   5.378   1.586
 1768TIP3    H1 5268   7.206   5.457   1.618
 1768TIP3    H2 5269   7.162   5.388   1.491
 1769TIP3   OH2 5270   6.577   5.083   3.023
 1769TIP3    H1 5271   6.498   5.124   2.988
 1769TIP3    H2 5272   6.559   5.075   3.117
 1770TIP3   OH2 5273   7.038   1.547   0.212
 1770TIP3    H1 5274   7.104   1.565   0.279
 1770TIP3    H2 5275   6.956   1.539   0.261
 1771TIP3   OH2 5276   1.119   0.344   0.989
 1771TIP3    H1 5277   1.202   0.362   1.032
 1771TIP3    H2 5278   1.106   0.250   0.999
 1772TIP3   OH2 5279   6.813   0.424   0.827
 1772TIP3    H1 5280   6.871   0.349   0.840
 1772TIP3    H2 5281   6.799   0.458   0.916
 1773TIP3   OH2 5282   4.584   1.339   2.150
 1773TIP3    H1 5283   4.659   1.329   2.092
 1773TIP3    H2 5284   4.556   1.430   2.139
 1774TIP3   OH2 5285   4.703   5.516   4.618
 1774TIP3    H1 5286   4.720   5.574   4.692
 1774TIP3    H2 5287   4.607   5.510   4.613
 1775TIP3   OH2 5288   5.812   5.607   0.978
 1775TIP3    H1 5289   5.803   5.566   0.891
 1775TIP3    H2 5290   5.738   5.573   1.028
 1776TIP3   OH2 5291   0.233   3.059   1.354
 1776TIP3    H1 5292   0.169   2.988   1.365
 1776TIP3    H2 5293   0.188   3.122   1.298
 1777TIP3   OH2 5294   2.338   6.379   5.578
 1777TIP3    H1 5295   2.380   6.325   5.511
 1777TIP3    H2 5296   2.362   6.337   5.660
 1778TIP3   OH2 5297   3.459   4.249   0.579
 1778TIP3    H1 5298   3.420   4.309   0.642
 1778TIP3    H2 5299   3.457   4.163   0.622
 1779TIP3   OH2 5300   5.595   5.666   3.281
 1779TIP3    H1 5301   5.545   5.737   3.240
 1779TIP3    H2 5302   5.636   5.707   3.358
 1780TIP3   OH2 5303   0.376   6.758   3.985
 1780TIP3    H1 5304   0.313   6.753   3.913
 1780TIP3    H2 5305   0.403   6.850   3.987
 1781TIP3   OH2 5306   5.654   1.775   2.085
 1781TIP3    H1 5307   5.636   1.744   2.174
 1781TIP3    H2 5308   5.661   1.870   2.094
 1782TIP3   OH2 5309   5.632   4.077   1.826
 1782TIP3    H1 5310   5.579   3.997   1.826
 1782TIP3    H2 5311   5.614   4.117   1.741
 1783TIP3   OH2 5312   2.764   1.524   4.638
 1783TIP3    H1 5313   2.762   1.506   4.732
 1783TIP3    H2 5314   2.825   1.597   4.629
 1784TIP3   OH2 5315   5.615   2.446   0.581
 1784TIP3    H1 5316   5.634   2.406   0.665
 1784TIP3    H2 5317   5.546   2.510   0.601
 1785TIP3   OH2 5318   6.098   1.061   3.161
 1785TIP3    H1 5319   6.111   1.064   3.067
 1785TIP3    H2 5320   6.183   1.084   3.199
 1786TIP3   OH2 5321   5.006   3.932   4.589
 1786TIP3    H1 5322   5.099   3.929   4.614
 1786TIP3    H2 5323   4.978   3.840   4.589
 1787TIP3   OH2 5324   6.908   2.744   5.861
 1787TIP3    H1 5325   6.825   2.753   5.907
 1787TIP3    H2 5326   6.965   2.810   5.902
 1788TIP3   OH2 5327   6.207   5.127   3.319
 1788TIP3    H1 5328   6.157   5.067   3.264
 1788TIP3    H2 5329   6.253   5.070   3.381
 1789TIP3   OH2 5330   7.012   6.056   3.520
 1789TIP3    H1 5331   7.010   6.152   3.529
 1789TIP3    H2 5332   7.105   6.036   3.512
 1790TIP3   OH2 5333   5.723   6.341   4.046
 1790TIP3    H1 5334   5.681   6.256   4.054
 1790TIP3    H2 5335   5.784   6.331   3.972
 1791TIP3   OH2 5336   2.657   6.300   3.269
 1791TIP3    H1 5337   2.598   6.372   3.244
 1791TIP3    H2 5338   2.606   6.249   3.331
 1792TIP3   OH2 5339   0.149   5.064   5.655
 1792TIP3    H1 5340   0.090   5.082   5.582
 1792TIP3    H2 5341   0.232   5.041   5.613
 1793TIP3   OH2 5342   5.652   3.300   5.231
 1793TIP3    H1 5343   5.701   3.267   5.307
 1793TIP3    H2 5344   5.696   3.261   5.156
 1794TIP3   OH2 5345   0.382   0.614   1.186
 1794TIP3    H1 5346   0.364   0.537   1.131
 1794TIP3    H2 5347   0.440   0.580   1.255
 1795TIP3   OH2 5348   3.320   1.343   2.525
 1795TIP3    H1 5349   3.233   1.359   2.490
 1795TIP3    H2 5350   3.369   1.306   2.452
 1796TIP3   OH2 5351   6.008   1.568   2.536
 1796TIP3    H1 5352   5.921   1.540   2.564
 1796TIP3    H2 5353   6.067   1.528   2.599
 1797TIP3   OH2 5354   0.856   0.290   2.076
 1797TIP3    H1 5355   0.783   0.347   2.101
 1797TIP3    H2 5356   0.919   0.348   2.035
 1798TIP3   OH2 5357   4.886   1.082   0.198
 1798TIP3    H1 5358   4.942   1.149   0.160
 1798TIP3    H2 5359   4.800   1.122   0.204
 1799TIP3   OH2 5360   4.640   1.359   3.767
 1799TIP3    H1 5361   4.672   1.449   3.764
 1799TIP3    H2 5362   4.553   1.363   3.727
 1800TIP3   OH2 5363   6.222   1.385   2.249
 1800TIP3    H1 5364   6.247   1.475   2.271
 1800TIP3    H2 5365   6.126   1.387   2.251
 1801TIP3   OH2 5366   3.409   4.204   5.464
 1801TIP3    H1 5367   3.427   4.125   5.515
 1801TIP3    H2 5368   3.342   4.250   5.515
 1802TIP3   OH2 5369   1.694   3.959   4.406
 1802TIP3    H1 5370   1.678   4.051   4.387
 1802TIP3    H2 5371   1.606   3.922   4.421
 1803TIP3   OH2 5372   3.928   5.331   2.094
 1803TIP3    H1 5373   3.891   5.243   2.102
 1803TIP3    H2 5374   3.902   5.375   2.175
 1804TIP3   OH2 5375   7.218   5.728   4.976
 1804TIP3    H1 5376   7.133   5.752   5.014
 1804TIP3    H2 5377   7.211   5.752   4.884
 1805TIP3   OH2 5378   5.246   5.408   0.370
 1805TIP3    H1 5379   5.232   5.468   0.443
 1805TIP3    H2 5380   5.236   5.321   0.408
 1806TIP3   OH2 5381   0.499   5.092   0.987
 1806TIP3    H1 5382   0.456   5.177   0.978
 1806TIP3    H2 5383   0.457   5.051   1.062
 1807TIP3   OH2 5384   1.217   6.061   1.410
 1807TIP3    H1 5385   1.128   6.085   1.434
 1807TIP3    H2 5386   1.208   5.980   1.361
 1808TIP3   OH2 5387   4.817   5.881   4.591
 1808TIP3    H1 5388   4.731   5.859   4.555
 1808TIP3    H2 5389   4.869   5.802   4.581
 1809TIP3   OH2 5390   6.787   4.902   2.384
 1809TIP3    H1 5391   6.697   4.871   2.380
 1809TIP3    H2 5392   6.792   4.954   2.464
 1810TIP3   OH2 5393   1.484   3.181   5.744
 1810TIP3    H1 5394   1.547   3.246   5.715
 1810TIP3    H2 5395   1.455   3.138   5.664
 1811TIP3   OH2 5396   1.557   4.156   5.300
 1811TIP3    H1 5397   1.613   4.158   5.378
 1811TIP3    H2 5398   1.567   4.067   5.266
 1812TIP3   OH2 5399   6.461   6.417   3.885
 1812TIP3    H1 5400   6.408   6.487   3.924
 1812TIP3    H2 5401   6.455   6.433   3.791
 1813TIP3   OH2 5402   5.785   6.334   3.626
 1813TIP3    H1 5403   5.693   6.307   3.629
 1813TIP3    H2 5404   5.818   6.316   3.714
 1814TIP3   OH2 5405   1.870   5.073   4.238
 1814TIP3    H1 5406   1.945   5.083   4.180
 1814TIP3    H2 5407   1.872   4.981   4.265
 1815TIP3   OH2 5408   5.473   4.257   5.367
 1815TIP3    H1 5409   5.427   4.326   5.320
 1815TIP3    H2 5410   5.556   4.248   5.320
 1816TIP3   OH2 5411   1.298   5.657   2.707
 1816TIP3    H1 5412   1.379   5.678   2.659
 1816TIP3    H2 5413   1.228   5.687   2.649
 1817TIP3   OH2 5414   1.705   2.163   0.068
 1817TIP3    H1 5415   1.711   2.212   0.150
 1817TIP3    H2 5416   1.793   2.129   0.054
 1818TIP3   OH2 5417   6.395   6.579   0.235
 1818TIP3    H1 5418   6.419   6.669   0.257
 1818TIP3    H2 5419   6.381   6.536   0.319
 1819TIP3   OH2 5420   1.763   6.727   1.168
 1819TIP3    H1 5421   1.734   6.817   1.156
 1819TIP3    H2 5422   1.779   6.719   1.262
 1820TIP3   OH2 5423   7.151   2.983   2.613
 1820TIP3    H1 5424   7.076   2.980   2.553
 1820TIP3    H2 5425   7.118   2.946   2.695
 1821TIP3   OH2 5426   0.605   1.757   1.781
 1821TIP3    H1 5427   0.540   1.690   1.761
 1821TIP3    H2 5428   0.637   1.734   1.868
 1822TIP3   OH2 5429   5.810   0.966   2.400
 1822TIP3    H1 5430   5.870   0.976   2.326
 1822TIP3    H2 5431   5.830   1.039   2.458
 1823TIP3   OH2 5432   3.822   5.629   3.138
 1823TIP3    H1 5433   3.774   5.649   3.058
 1823TIP3    H2 5434   3.871   5.549   3.119
 1824TIP3   OH2 5435   1.427   4.396   1.608
 1824TIP3    H1 5436   1.442   4.480   1.651
 1824TIP3    H2 5437   1.335   4.376   1.624
 1825TIP3   OH2 5438   4.102   5.165   3.680
 1825TIP3    H1 5439   4.107   5.141   3.587
 1825TIP3    H2 5440   4.183   5.131   3.718
 1826TIP3   OH2 5441   5.598   3.618   3.992
 1826TIP3    H1 5442   5.612   3.710   3.970
 1826TIP3    H2 5443   5.574   3.619   4.085
 1827TIP3   OH2 5444   3.594   0.857   1.439
 1827TIP3    H1 5445   3.581   0.946   1.471
 1827TIP3    H2 5446   3.677   0.860   1.392
 1828TIP3   OH2 5447   1.914   1.163   4.085
 1828TIP3    H1 5448   1.932   1.234   4.147
 1828TIP3    H2 5449   1.867   1.206   4.013
 1829TIP3   OH2 5450   0.020   3.317   2.006
 1829TIP3    H1 5451   0.038   3.231   2.044
 1829TIP3    H2 5452   0.063   3.314   1.920
 1830TIP3   OH2 5453   5.897   4.984   0.520
 1830TIP3    H1 5454   5.959   4.911   0.519
 1830TIP3    H2 5455   5.871   4.996   0.429
 1831TIP3   OH2 5456   5.207   5.935   2.961
 1831TIP3    H1 5457   5.218   6.002   2.893
 1831TIP3    H2 5458   5.181   5.857   2.912
 1832TIP3   OH2 5459   3.060   4.778   0.640
 1832TIP3    H1 5460   3.092   4.822   0.561
 1832TIP3    H2 5461   3.137   4.772   0.697
 1833TIP3   OH2 5462   4.994   3.726   5.297
 1833TIP3    H1 5463   5.078   3.755   5.260
 1833TIP3    H2 5464   5.012   3.711   5.390
 1834TIP3   OH2 5465   1.357   1.565   3.666
 1834TIP3    H1 5466   1.393   1.576   3.754
 1834TIP3    H2 5467   1.333   1.473   3.660
 1835TIP3   OH2 5468   0.529   0.243   0.831
 1835TIP3    H1 5469   0.539   0.178   0.762
 1835TIP3    H2 5470   0.471   0.309   0.793
 1836TIP3   OH2 5471   0.819   3.685   0.712
 1836TIP3    H1 5472   0.847   3.636   0.634
 1836TIP3    H2 5473   0.810   3.618   0.780
 1837TIP3   OH2 5474   6.112   0.425   3.282
 1837TIP3    H1 5475   6.196   0.411   3.325
 1837TIP3    H2 5476   6.057   0.465   3.350
 1838TIP3   OH2 5477   1.441   3.610   3.067
 1838TIP3    H1 5478   1.404   3.544   3.008
 1838TIP3    H2 5479   1.533   3.615   3.042
 1839TIP3   OH2 5480   1.536   5.025   4.437
 1839TIP3    H1 5481   1.472   5.079   4.485
 1839TIP3    H2 5482   1.505   5.026   4.346
 1840TIP3   OH2 5483   0.455   5.275   1.995
 1840TIP3    H1 5484   0.444   5.235   1.908
 1840TIP3    H2 5485   0.469   5.201   2.054
 1841TIP3   OH2 5486   5.050   3.619   4.281
 1841TIP3    H1 5487   5.097   3.600   4.200
 1841TIP3    H2 5488   4.968   3.660   4.252
 1842TIP3   OH2 5489   2.950   0.855   5.872
 1842TIP3    H1 5490   3.046   0.851   5.874
 1842TIP3    H2 5491   2.930   0.947   5.892
 1843TIP3   OH2 5492   0.843   4.066   3.644
 1843TIP3    H1 5493   0.771   4.011   3.613
 1843TIP3    H2 5494   0.908   4.060   3.574
 1844TIP3   OH2 5495   2.229   5.630   5.185
 1844TIP3    H1 5496   2.156   5.629   5.248
 1844TIP3    H2 5497   2.237   5.539   5.157
 1845TIP3   OH2 5498   6.475   5.859   4.527
 1845TIP3    H1 5499   6.508   5.869   4.616
 1845TIP3    H2 5500   6.448   5.767   4.522
 1846TIP3   OH2 5501   3.787   6.136   1.647
 1846TIP3    H1 5502   3.868   6.163   1.603
 1846TIP3    H2 5503   3.742   6.082   1.582
 1847TIP3   OH2 5504   4.731   1.386   4.953
 1847TIP3    H1 5505   4.786   1.309   4.958
 1847TIP3    H2 5506   4.710   1.395   4.859
 1848TIP3   OH2 5507   5.067   3.628   1.323
 1848TIP3    H1 5508   5.074   3.601   1.231
 1848TIP3    H2 5509   4.987   3.682   1.326
 1849TIP3   OH2 5510   2.779   4.152   3.887
 1849TIP3    H1 5511   2.846   4.088   3.910
 1849TIP3    H2 5512   2.704   4.100   3.857
 1850TIP3   OH2 5513   4.828   1.431   1.797
 1850TIP3    H1 5514   4.888   1.500   1.825
 1850TIP3    H2 5515   4.834   1.364   1.865
 1851TIP3   OH2 5516   3.183   3.631   2.286
 1851TIP3    H1 5517   3.273   3.640   2.254
 1851TIP3    H2 5518   3.191   3.632   2.382
 1852TIP3   OH2 5519   1.989   0.160   5.644
 1852TIP3    H1 5520   1.950   0.093   5.700
 1852TIP3    H2 5521   1.969   0.242   5.687
 1853TIP3   OH2 5522   3.164   5.109   5.247
 1853TIP3    H1 5523   3.251   5.080   5.275
 1853TIP3    H2 5524   3.171   5.204   5.240
 1854TIP3   OH2 5525   4.877   6.208   1.154
 1854TIP3    H1 5526   4.942   6.226   1.222
 1854TIP3    H2 5527   4.792   6.218   1.199
 1855TIP3   OH2 5528   0.588   2.127   1.021
 1855TIP3    H1 5529   0.561   2.219   1.018
 1855TIP3    H2 5530   0.670   2.128   1.069
 1856TIP3   OH2 5531   0.740   2.753   2.106
 1856TIP3    H1 5532   0.828   2.785   2.087
 1856TIP3    H2 5533   0.688   2.832   2.119
 1857TIP3   OH2 5534   2.505   2.822   0.405
 1857TIP3    H1 5535   2.588   2.784   0.434
 1857TIP3    H2 5536   2.438   2.762   0.438
 1858TIP3   OH2 5537   2.873   6.542   1.582
 1858TIP3    H1 5538   2.791   6.492   1.585
 1858TIP3    H2 5539   2.862   6.600   1.506
 1859TIP3   OH2 5540   1.325   3.098   0.236
 1859TIP3    H1 5541   1.386   3.032   0.204
 1859TIP3    H2 5542   1.345   3.106   0.329
 1860TIP3   OH2 5543   2.523   2.791   4.345
 1860TIP3    H1 5544   2.600   2.739   4.320
 1860TIP3    H2 5545   2.560   2.870   4.384
 1861TIP3   OH2 5546   6.106   0.558   5.439
 1861TIP3    H1 5547   6.182   0.552   5.381
 1861TIP3    H2 5548   6.072   0.646   5.425
 1862TIP3   OH2 5549   6.508   4.841   2.070
 1862TIP3    H1 5550   6.560   4.859   1.992
 1862TIP3    H2 5551   6.454   4.919   2.082
 1863TIP3   OH2 5552   2.861   5.667   2.815
 1863TIP3    H1 5553   2.859   5.759   2.840
 1863TIP3    H2 5554   2.954   5.647   2.804
 1864TIP3   OH2 5555   1.036   5.351   4.066
 1864TIP3    H1 5556   1.021   5.370   3.974
 1864TIP3    H2 5557   0.949   5.360   4.107
 1865TIP3   OH2 5558   6.399   4.722   1.463
 1865TIP3    H1 5559   6.418   4.758   1.376
 1865TIP3    H2 5560   6.469   4.756   1.519
 1866TIP3   OH2 5561   4.850  -0.018   1.380
 1866TIP3    H1 5562   4.883   0.067   1.351
 1866TIP3    H2 5563   4.904  -0.039   1.456
 1867TIP3   OH2 5564   0.095   4.659   2.781
 1867TIP3    H1 5565   0.035   4.674   2.854
 1867TIP3    H2 5566   0.172   4.618   2.821
 1868TIP3   OH2 5567   3.421   3.205   4.841
 1868TIP3    H1 5568   3.511   3.179   4.819
 1868TIP3    H2 5569   3.399   3.151   4.917
 1869TIP3   OH2 5570   5.028   2.674   2.814
 1869TIP3    H1 5571   4.976   2.752   2.833
 1869TIP3    H2 5572   5.118   2.699   2.837
 1870TIP3   OH2 5573   2.812   2.213   1.074
 1870TIP3    H1 5574   2.725   2.234   1.107
 1870TIP3    H2 5575   2.805   2.121   1.046
 1871TIP3   OH2 5576   0.259   1.866   1.844
 1871TIP3    H1 5577   0.341   1.908   1.820
 1871TIP3    H2 5578   0.198   1.939   1.860
 1872TIP3   OH2 5579   1.845   4.124   2.879
 1872TIP3    H1 5580   1.906   4.180   2.830
 1872TIP3    H2 5581   1.814   4.180   2.950
 1873TIP3   OH2 5582   6.280   3.794   3.266
 1873TIP3    H1 5583   6.288   3.877   3.220
 1873TIP3    H2 5584   6.219   3.742   3.212
 1874TIP3   OH2 5585   2.022   2.585   2.534
 1874TIP3    H1 5586   1.991   2.602   2.623
 1874TIP3    H2 5587   2.090   2.519   2.544
 1875TIP3   OH2 5588   4.598   6.650   4.807
 1875TIP3    H1 5589   4.651   6.705   4.864
 1875TIP3    H2 5590   4.546   6.596   4.868
 1876TIP3   OH2 5591   5.974   2.658   4.783
 1876TIP3    H1 5592   6.031   2.727   4.748
 1876TIP3    H2 5593   5.906   2.705   4.831
 1877TIP3   OH2 5594   4.916   0.772   5.266
 1877TIP3    H1 5595   4.829   0.804   5.242
 1877TIP3    H2 5596   4.958   0.753   5.182
 1878TIP3   OH2 5597   3.546   5.894   2.090
 1878TIP3    H1 5598   3.621   5.835   2.098
 1878TIP3    H2 5599   3.581   5.980   2.114
 1879TIP3   OH2 5600   1.104   5.072   4.024
 1879TIP3    H1 5601   1.077   5.156   4.062
 1879TIP3    H2 5602   1.136   5.095   3.937
 1880TIP3   OH2 5603   6.979   3.925   3.874
 1880TIP3    H1 5604   7.023   3.996   3.920
 1880TIP3    H2 5605   7.014   3.845   3.914
 1881TIP3   OH2 5606   2.553   5.497   3.828
 1881TIP3    H1 5607   2.560   5.592   3.836
 1881TIP3    H2 5608   2.643   5.467   3.816
 1882TIP3   OH2 5609   6.048   2.020   3.837
 1882TIP3    H1 5610   6.128   2.032   3.787
 1882TIP3    H2 5611   5.982   1.998   3.771
 1883TIP3   OH2 5612   4.308   3.564   1.560
 1883TIP3    H1 5613   4.224   3.518   1.551
 1883TIP3    H2 5614   4.287   3.644   1.608
 1884TIP3   OH2 5615   2.730   3.631   5.745
 1884TIP3    H1 5616   2.715   3.537   5.760
 1884TIP3    H2 5617   2.759   3.636   5.654
 1885TIP3   OH2 5618   1.373   5.263   4.195
 1885TIP3    H1 5619   1.466   5.285   4.203
 1885TIP3    H2 5620   1.370   5.168   4.207
 1886TIP3   OH2 5621   6.715   4.856   3.468
 1886TIP3    H1 5622   6.697   4.949   3.484
 1886TIP3    H2 5623   6.672   4.812   3.541
 1887TIP3   OH2 5624   1.078   3.644   5.289
 1887TIP3    H1 5625   1.139   3.709   5.255
 1887TIP3    H2 5626   1.053   3.592   5.213
 1888TIP3   OH2 5627   2.393   2.162   3.659
 1888TIP3    H1 5628   2.417   2.204   3.577
 1888TIP3    H2 5629   2.416   2.226   3.726
 1889TIP3   OH2 5630   5.505   2.151   4.340
 1889TIP3    H1 5631   5.484   2.182   4.252
 1889TIP3    H2 5632   5.505   2.230   4.394
 1890TIP3   OH2 5633   6.970   0.743   2.775
 1890TIP3    H1 5634   7.000   0.666   2.726
 1890TIP3    H2 5635   6.937   0.707   2.858
 1891TIP3   OH2 5636   4.092   6.526   0.764
 1891TIP3    H1 5637   4.056   6.511   0.852
 1891TIP3    H2 5638   4.183   6.496   0.770
 1892TIP3   OH2 5639   0.119   0.471   4.874
 1892TIP3    H1 5640   0.189   0.494   4.935
 1892TIP3    H2 5641   0.165   0.455   4.791
 1893TIP3   OH2 5642   3.789   1.090   2.317
 1893TIP3    H1 5643   3.837   1.036   2.381
 1893TIP3    H2 5644   3.806   1.180   2.344
 1894TIP3   OH2 5645   6.952   2.651   1.365
 1894TIP3    H1 5646   6.876   2.691   1.323
 1894TIP3    H2 5647   7.025   2.670   1.306
 1895TIP3   OH2 5648   1.824   3.041   3.730
 1895TIP3    H1 5649   1.762   3.006   3.666
 1895TIP3    H2 5650   1.789   3.012   3.815
 1896TIP3   OH2 5651   4.565   4.879   0.722
 1896TIP3    H1 5652   4.523   4.946   0.775
 1896TIP3    H2 5653   4.643   4.854   0.772
 1897TIP3   OH2 5654   4.176   3.784   5.034
 1897TIP3    H1 5655   4.212   3.824   4.954
 1897TIP3    H2 5656   4.243   3.721   5.060
 1898TIP3   OH2 5657   1.259   6.060   5.586
 1898TIP3    H1 5658   1.188   6.080   5.648
 1898TIP3    H2 5659   1.222   6.078   5.500
 1899TIP3   OH2 5660   2.281   6.770   4.117
 1899TIP3    H1 5661   2.305   6.696   4.061
 1899TIP3    H2 5662   2.185   6.763   4.124
 1900TIP3   OH2 5663   5.707   4.014   5.483
 1900TIP3    H1 5664   5.714   3.953   5.556
 1900TIP3    H2 5665   5.629   4.065   5.501
 1901TIP3   OH2 5666   1.243   2.540   3.777
 1901TIP3    H1 5667   1.251   2.445   3.773
 1901TIP3    H2 5668   1.293   2.566   3.855
 1902TIP3   OH2 5669   3.680   1.585   1.591
 1902TIP3    H1 5670   3.599   1.598   1.542
 1902TIP3    H2 5671   3.685   1.661   1.649
 1903TIP3   OH2 5672   0.401   3.113   0.423
 1903TIP3    H1 5673   0.322   3.066   0.393
 1903TIP3    H2 5674   0.427   3.165   0.348
 1904TIP3   OH2 5675   7.032   4.065   0.757
 1904TIP3    H1 5676   7.026   4.048   0.663
 1904TIP3    H2 5677   6.976   3.998   0.798
 1905TIP3   OH2 5678   5.709   5.190   3.090
 1905TIP3    H1 5679   5.782   5.200   3.029
 1905TIP3    H2 5680   5.747   5.208   3.176
 1906TIP3   OH2 5681   0.726   4.124   2.394
 1906TIP3    H1 5682   0.679   4.184   2.452
 1906TIP3    H2 5683   0.769   4.180   2.330
 1907TIP3   OH2 5684   6.029   2.496   5.021
 1907TIP3    H1 5685   6.124   2.501   5.029
 1907TIP3    H2 5686   6.009   2.544   4.941
 1908TIP3   OH2 5687   6.891   2.934   2.169
 1908TIP3    H1 5688   6.798   2.953   2.160
 1908TIP3    H2 5689   6.929   3.017   2.199
 1909TIP3   OH2 5690   4.655   6.431   3.673
 1909TIP3    H1 5691   4.735   6.403   3.717
 1909TIP3    H2 5692   4.590   6.437   3.743
 1910TIP3   OH2 5693   2.865   6.775   2.364
 1910TIP3    H1 5694   2.831   6.687   2.377
 1910TIP3    H2 5695   2.935   6.784   2.428
 1911TIP3   OH2 5696   0.780   1.556   2.266
 1911TIP3    H1 5697   0.875   1.546   2.256
 1911TIP3    H2 5698   0.768   1.584   2.357
 1912TIP3   OH2 5699   6.959   5.025   5.833
 1912TIP3    H1 5700   6.966   4.970   5.755
 1912TIP3    H2 5701   6.892   5.089   5.811
 1913TIP3   OH2 5702   0.948   6.501   1.199
 1913TIP3    H1 5703   1.006   6.475   1.127
 1913TIP3    H2 5704   0.982   6.454   1.275
 1914TIP3   OH2 5705   5.903   6.193   0.706
 1914TIP3    H1 5706   5.930   6.242   0.784
 1914TIP3    H2 5707   5.917   6.101   0.730
 1915TIP3   OH2 5708   6.866   3.957   2.348
 1915TIP3    H1 5709   6.825   3.895   2.407
 1915TIP3    H2 5710   6.827   3.938   2.262
 1916TIP3   OH2 5711   3.116   4.550   1.228
 1916TIP3    H1 5712   3.111   4.511   1.141
 1916TIP3    H2 5713   3.208   4.539   1.254
 1917TIP3   OH2 5714   3.443   4.918   2.171
 1917TIP3    H1 5715   3.461   5.002   2.214
 1917TIP3    H2 5716   3.407   4.862   2.240
 1918TIP3   OH2 5717   4.167   1.852   2.865
 1918TIP3    H1 5718   4.219   1.925   2.831
 1918TIP3    H2 5719   4.085   1.858   2.817
 1919TIP3   OH2 5720   0.940   3.684   1.832
 1919TIP3    H1 5721   0.880   3.757   1.825
 1919TIP3    H2 5722   0.908   3.619   1.769
 1920TIP3   OH2 5723   1.642   3.831   3.072
 1920TIP3    H1 5724   1.622   3.805   2.982
 1920TIP3    H2 5725   1.737   3.846   3.072
 1921TIP3   OH2 5726   3.689   3.936   0.106
 1921TIP3    H1 5727   3.668   3.843   0.092
 1921TIP3    H2 5728   3.746   3.936   0.183
 1922TIP3   OH2 5729   2.802   4.840   0.712
 1922TIP3    H1 5730   2.807   4.916   0.653
 1922TIP3    H2 5731   2.890   4.802   0.709
 1923TIP3   OH2 5732   0.760   4.704   4.224
 1923TIP3    H1 5733   0.790   4.795   4.224
 1923TIP3    H2 5734   0.671   4.709   4.189
 1924TIP3   OH2 5735   0.721   4.694   4.578
 1924TIP3    H1 5736   0.648   4.737   4.533
 1924TIP3    H2 5737   0.744   4.620   4.522
 1925TIP3   OH2 5738   2.204   1.076   3.935
 1925TIP3    H1 5739   2.153   1.138   3.883
 1925TIP3    H2 5740   2.237   1.128   4.009
 1926TIP3   OH2 5741   4.840   5.256   4.445
 1926TIP3    H1 5742   4.817   5.324   4.508
 1926TIP3    H2 5743   4.785   5.181   4.469
 1927TIP3   OH2 5744   6.393   0.126   1.686
 1927TIP3    H1 5745   6.381   0.141   1.592
 1927TIP3    H2 5746   6.349   0.043   1.702
 1928TIP3   OH2 5747   2.720   5.044   3.524
 1928TIP3    H1 5748   2.645   5.004   3.480
 1928TIP3    H2 5749   2.791   5.038   3.460
 1929TIP3   OH2 5750   1.034   5.657   0.429
 1929TIP3    H1 5751   1.018   5.749   0.449
 1929TIP3    H2 5752   1.127   5.644   0.446
 1930TIP3   OH2 5753   4.449   2.980   3.992
 1930TIP3    H1 5754   4.525   2.957   4.046
 1930TIP3    H2 5755   4.485   3.029   3.918
 1931TIP3   OH2 5756   5.476   3.994   2.585
 1931TIP3    H1 5757   5.445   3.944   2.509
 1931TIP3    H2 5758   5.540   4.055   2.548
 1932TIP3   OH2 5759   5.316   5.809   1.702
 1932TIP3    H1 5760   5.257   5.853   1.640
 1932TIP3    H2 5761   5.387   5.775   1.648
 1933TIP3   OH2 5762   1.067   6.191   2.454
 1933TIP3    H1 5763   1.121   6.265   2.428
 1933TIP3    H2 5764   0.997   6.188   2.389
 1934TIP3   OH2 5765   4.317   3.368   1.204
 1934TIP3    H1 5766   4.346   3.278   1.222
 1934TIP3    H2 5767   4.389   3.423   1.231
 1935TIP3   OH2 5768   6.113   6.249   3.076
 1935TIP3    H1 5769   6.044   6.195   3.114
 1935TIP3    H2 5770   6.087   6.339   3.097
 1936TIP3   OH2 5771   0.230   5.543   0.950
 1936TIP3    H1 5772   0.160   5.490   0.911
 1936TIP3    H2 5773   0.195   5.632   0.950
 1937TIP3   OH2 5774   2.234   5.887   3.345
 1937TIP3    H1 5775   2.190   5.961   3.302
 1937TIP3    H2 5776   2.325   5.893   3.316
 1938TIP3   OH2 5777   6.592   0.388   0.328
 1938TIP3    H1 5778   6.570   0.309   0.278
 1938TIP3    H2 5779   6.602   0.357   0.418
 1939TIP3   OH2 5780   4.446   6.544   3.865
 1939TIP3    H1 5781   4.508   6.616   3.874
 1939TIP3    H2 5782   4.368   6.573   3.913
 1940TIP3   OH2 5783   6.589   2.992   2.876
 1940TIP3    H1 5784   6.596   3.026   2.966
 1940TIP3    H2 5785   6.589   3.069   2.821
 1941TIP3   OH2 5786   1.307   5.462   4.011
 1941TIP3    H1 5787   1.216   5.452   3.985
 1941TIP3    H2 5788   1.319   5.400   4.083
 1942TIP3   OH2 5789   4.138   5.226   0.194
 1942TIP3    H1 5790   4.200   5.153   0.197
 1942TIP3    H2 5791   4.192   5.303   0.182
 1943TIP3   OH2 5792   2.583   3.684   1.462
 1943TIP3    H1 5793   2.536   3.752   1.413
 1943TIP3    H2 5794   2.663   3.728   1.492
 1944TIP3   OH2 5795   7.148   2.553   0.561
 1944TIP3    H1 5796   7.159   2.469   0.607
 1944TIP3    H2 5797   7.105   2.610   0.625
 1945TIP3   OH2 5798   1.233   5.666   3.184
 1945TIP3    H1 5799   1.214   5.713   3.102
 1945TIP3    H2 5800   1.223   5.574   3.161
 1946TIP3   OH2 5801   1.218   4.087   0.997
 1946TIP3    H1 5802   1.206   4.177   0.966
 1946TIP3    H2 5803   1.255   4.041   0.922
 1947TIP3   OH2 5804   0.848   0.366   3.071
 1947TIP3    H1 5805   0.873   0.301   3.137
 1947TIP3    H2 5806   0.855   0.321   2.988
 1948TIP3   OH2 5807   4.737   5.005   3.656
 1948TIP3    H1 5808   4.753   4.919   3.695
 1948TIP3    H2 5809   4.737   4.990   3.562
 1949TIP3   OH2 5810   3.287   2.143   1.525
 1949TIP3    H1 5811   3.197   2.151   1.495
 1949TIP3    H2 5812   3.285   2.170   1.616
 1950TIP3   OH2 5813   4.290   5.653   2.787
 1950TIP3    H1 5814   4.214   5.649   2.845
 1950TIP3    H2 5815   4.365   5.637   2.844
 1951TIP3   OH2 5816   3.788   3.771   3.448
 1951TIP3    H1 5817   3.721   3.773   3.517
 1951TIP3    H2 5818   3.839   3.851   3.463
 1952TIP3   OH2 5819   6.205   2.179   3.355
 1952TIP3    H1 5820   6.259   2.160   3.277
 1952TIP3    H2 5821   6.116   2.187   3.321
 1953TIP3   OH2 5822   4.542   3.020   2.194
 1953TIP3    H1 5823   4.458   3.004   2.236
 1953TIP3    H2 5824   4.607   2.987   2.257
 1954TIP3   OH2 5825   6.228   4.884   5.436
 1954TIP3    H1 5826   6.266   4.972   5.428
 1954TIP3    H2 5827   6.192   4.883   5.525
 1955TIP3   OH2 5828   0.149   3.396   1.709
 1955TIP3    H1 5829   0.164   3.472   1.764
 1955TIP3    H2 5830   0.083   3.424   1.646
 1956TIP3   OH2 5831   4.033   2.288   1.432
 1956TIP3    H1 5832   3.961   2.293   1.370
 1956TIP3    H2 5833   4.008   2.347   1.503
 1957TIP3   OH2 5834   6.020   3.888   0.635
 1957TIP3    H1 5835   5.938   3.875   0.587
 1957TIP3    H2 5836   5.994   3.941   0.711
 1958TIP3   OH2 5837   4.622   0.354   0.218
 1958TIP3    H1 5838   4.540   0.404   0.219
 1958TIP3    H2 5839   4.642   0.338   0.311
 1959TIP3   OH2 5840   4.617   5.864   5.053
 1959TIP3    H1 5841   4.611   5.958   5.069
 1959TIP3    H2 5842   4.662   5.830   5.130
 1960TIP3   OH2 5843   1.961   6.596   2.768
 1960TIP3    H1 5844   1.877   6.619   2.806
 1960TIP3    H2 5845   1.966   6.647   2.687
 1961TIP3   OH2 5846   4.737   1.855   4.185
 1961TIP3    H1 5847   4.824   1.815   4.195
 1961TIP3    H2 5848   4.712   1.836   4.095
 1962TIP3   OH2 5849   6.778   4.325   0.096
 1962TIP3    H1 5850   6.776   4.410   0.052
 1962TIP3    H2 5851   6.731   4.267   0.037
 1963TIP3   OH2 5852   0.399   5.198   5.573
 1963TIP3    H1 5853   0.327   5.261   5.583
 1963TIP3    H2 5854   0.380   5.152   5.492
 1964TIP3   OH2 5855   2.374   5.558   3.238
 1964TIP3    H1 5856   2.279   5.574   3.241
 1964TIP3    H2 5857   2.382   5.464   3.227
 1965TIP3   OH2 5858   0.155   4.871   4.532
 1965TIP3    H1 5859   0.205   4.803   4.577
 1965TIP3    H2 5860   0.067   4.835   4.525
 1966TIP3   OH2 5861   6.784   1.219   0.364
 1966TIP3    H1 5862   6.750   1.174   0.441
 1966TIP3    H2 5863   6.879   1.219   0.375
 1967TIP3   OH2 5864   0.419   5.445   2.940
 1967TIP3    H1 5865   0.379   5.431   2.854
 1967TIP3    H2 5866   0.504   5.483   2.922
 1968TIP3   OH2 5867   4.566   3.053   5.586
 1968TIP3    H1 5868   4.658   3.077   5.600
 1968TIP3    H2 5869   4.545   3.089   5.500
 1969TIP3   OH2 5870   2.532   4.835   2.089
 1969TIP3    H1 5871   2.493   4.921   2.072
 1969TIP3    H2 5872   2.519   4.821   2.183
 1970TIP3   OH2 5873   2.694   1.890   4.740
 1970TIP3    H1 5874   2.789   1.894   4.748
 1970TIP3    H2 5875   2.672   1.962   4.681
 1971TIP3   OH2 5876   3.463   4.033   1.636
 1971TIP3    H1 5877   3.473   3.941   1.660
 1971TIP3    H2 5878   3.550   4.060   1.606
 1972TIP3   OH2 5879   2.320   3.642   4.657
 1972TIP3    H1 5880   2.279   3.706   4.715
 1972TIP3    H2 5881   2.388   3.692   4.611
 1973TIP3   OH2 5882   3.253   0.906   2.024
 1973TIP3    H1 5883   3.321   0.869   1.967
 1973TIP3    H2 5884   3.226   0.987   1.980
 1974TIP3   OH2 5885   6.090   0.568   4.297
 1974TIP3    H1 5886   6.079   0.625   4.374
 1974TIP3    H2 5887   6.035   0.492   4.317
 1975TIP3   OH2 5888   3.260   2.497   3.958
 1975TIP3    H1 5889   3.342   2.531   3.921
 1975TIP3    H2 5890   3.226   2.439   3.890
 1976TIP3   OH2 5891   1.399   1.751   3.288
 1976TIP3    H1 5892   1.422   1.675   3.234
 1976TIP3    H2 5893   1.467   1.753   3.356
 1977TIP3   OH2 5894   1.096   1.054   5.791
 1977TIP3    H1 5895   1.066   1.129   5.739
 1977TIP3    H2 5896   1.191   1.062   5.792
 1978TIP3   OH2 5897   1.852   2.501   0.690
 1978TIP3    H1 5898   1.828   2.593   0.679
 1978TIP3    H2 5899   1.795   2.470   0.761
 1979TIP3   OH2 5900   5.308   5.984   0.174
 1979TIP3    H1 5901   5.244   5.992   0.103
 1979TIP3    H2 5902   5.385   5.947   0.133
 1980TIP3   OH2 5903   2.601   2.266   1.550
 1980TIP3    H1 5904   2.534   2.212   1.591
 1980TIP3    H2 5905   2.553   2.329   1.497
 1981TIP3   OH2 5906   6.543   4.694   3.118
 1981TIP3    H1 5907   6.469   4.727   3.169
 1981TIP3    H2 5908   6.611   4.676   3.182
 1982TIP3   OH2 5909   0.903   0.181   5.019
 1982TIP3    H1 5910   0.993   0.150   5.022
 1982TIP3    H2 5911   0.911   0.276   5.009
 1983TIP3   OH2 5912   3.633   1.659   1.119
 1983TIP3    H1 5913   3.561   1.596   1.111
 1983TIP3    H2 5914   3.618   1.723   1.050
 1984TIP3   OH2 5915   5.766   5.122   2.107
 1984TIP3    H1 5916   5.731   5.137   2.019
 1984TIP3    H2 5917   5.810   5.037   2.101
 1985TIP3   OH2 5918   3.565   1.552   3.935
 1985TIP3    H1 5919   3.610   1.634   3.954
 1985TIP3    H2 5920   3.472   1.572   3.944
 1986TIP3   OH2 5921   1.552   2.840   4.421
 1986TIP3    H1 5922   1.578   2.894   4.497
 1986TIP3    H2 5923   1.561   2.899   4.346
 1987TIP3   OH2 5924   1.025   3.511   4.254
 1987TIP3    H1 5925   0.990   3.528   4.166
 1987TIP3    H2 5926   0.955   3.466   4.300
 1988TIP3   OH2 5927   0.446   3.808   1.191
 1988TIP3    H1 5928   0.403   3.871   1.249
 1988TIP3    H2 5929   0.521   3.856   1.156
 1989TIP3   OH2 5930   5.447   5.094   3.370
 1989TIP3    H1 5931   5.489   5.180   3.356
 1989TIP3    H2 5932   5.355   5.115   3.385
 1990TIP3   OH2 5933   4.338   2.403   3.992
 1990TIP3    H1 5934   4.367   2.382   4.081
 1990TIP3    H2 5935   4.293   2.487   4.001
 1991TIP3   OH2 5936   5.261   5.137   3.963
 1991TIP3    H1 5937   5.204   5.141   4.040
 1991TIP3    H2 5938   5.347   5.161   3.995
 1992TIP3   OH2 5939   6.364   1.258   0.458
 1992TIP3    H1 5940   6.378   1.353   0.461
 1992TIP3    H2 5941   6.363   1.237   0.365
 1993TIP3   OH2 5942   0.438   4.023   0.312
 1993TIP3    H1 5943   0.527   3.997   0.335
 1993TIP3    H2 5944   0.447   4.107   0.269
 1994TIP3   OH2 5945   5.028   6.544   4.175
 1994TIP3    H1 5946   4.976   6.501   4.108
 1994TIP3    H2 5947   5.010   6.637   4.163
 1995TIP3   OH2 5948   0.192   3.931   4.767
 1995TIP3    H1 5949   0.280   3.946   4.801
 1995TIP3    H2 5950   0.205   3.914   4.673
 1996TIP3   OH2 5951   0.214   6.719   4.427
 1996TIP3    H1 5952   0.254   6.639   4.459
 1996TIP3    H2 5953   0.126   6.719   4.466
 1997TIP3   OH2 5954   4.837   4.493   2.793
 1997TIP3    H1 5955   4.823   4.507   2.700
 1997TIP3    H2 5956   4.773   4.425   2.817
 1998TIP3   OH2 5957   2.998   5.882   1.879
 1998TIP3    H1 5958   2.905   5.864   1.888
 1998TIP3    H2 5959   3.003   5.977   1.864
 1999TIP3   OH2 5960   0.259   0.215   2.552
 1999TIP3    H1 5961   0.206   0.267   2.491
 1999TIP3    H2 5962   0.211   0.132   2.559
 2000TIP3   OH2 5963   5.370   2.596   2.046
 2000TIP3    H1 5964   5.447   2.579   2.100
 2000TIP3    H2 5965   5.383   2.542   1.968
 2001TIP3   OH2 5966   1.257   1.500   0.541
 2001TIP3    H1 5967   1.196   1.541   0.602
 2001TIP3    H2 5968   1.236   1.407   0.545
 2002TIP3   OH2 5969   4.272   2.621   1.977
 2002TIP3    H1 5970   4.231   2.703   2.004
 2002TIP3    H2 5971   4.344   2.649   1.921
 2003TIP3   OH2 5972   5.624   6.095   1.702
 2003TIP3    H1 5973   5.679   6.094   1.780
 2003TIP3    H2 5974   5.536   6.078   1.734
 2004TIP3   OH2 5975   0.828   1.711   2.826
 2004TIP3    H1 5976   0.786   1.635   2.865
 2004TIP3    H2 5977   0.905   1.677   2.781
 2005TIP3   OH2 5978   1.233   2.069   3.015
 2005TIP3    H1 5979   1.298   2.038   3.077
 2005TIP3    H2 5980   1.204   1.990   2.969
 2006TIP3   OH2 5981   4.182   5.971   4.115
 2006TIP3    H1 5982   4.133   6.015   4.185
 2006TIP3    H2 5983   4.239   5.910   4.160
 2007TIP3   OH2 5984   5.555   0.859   4.962
 2007TIP3    H1 5985   5.517   0.813   4.888
 2007TIP3    H2 5986   5.515   0.818   5.039
 2008TIP3   OH2 5987   7.110   1.154   3.303
 2008TIP3    H1 5988   7.073   1.197   3.381
 2008TIP3    H2 5989   7.158   1.224   3.258
 2009TIP3   OH2 5990   3.081   2.276   4.784
 2009TIP3    H1 5991   3.168   2.292   4.820
 2009TIP3    H2 5992   3.022   2.328   4.838
 2010TIP3   OH2 5993   1.871   5.087   2.238
 2010TIP3    H1 5994   1.965   5.107   2.241
 2010TIP3    H2 5995   1.853   5.067   2.146
 2011TIP3   OH2 5996   2.795   0.749   0.118
 2011TIP3    H1 5997   2.840   0.740   0.202
 2011TIP3    H2 5998   2.832   0.828   0.079
 2012TIP3   OH2 5999   2.045   0.046   0.433
 2012TIP3    H1 6000   2.112  -0.022   0.445
 2012TIP3    H2 6001   2.087   0.126   0.464
 2013TIP3   OH2 6002   0.710   3.018   2.279
 2013TIP3    H1 6003   0.735   2.986   2.366
 2013TIP3    H2 6004   0.792   3.022   2.230
 2014TIP3   OH2 6005   1.133   0.504   1.429
 2014TIP3    H1 6006   1.165   0.594   1.433
 2014TIP3    H2 6007   1.208   0.453   1.398
 2015TIP3   OH2 6008   6.905   0.774   0.510
 2015TIP3    H1 6009   6.857   0.709   0.562
 2015TIP3    H2 6010   6.842   0.843   0.492
 2016TIP3   OH2 6011   3.645   5.995   2.436
 2016TIP3    H1 6012   3.699   6.048   2.377
 2016TIP3    H2 6013   3.556   6.007   2.403
 2017TIP3   OH2 6014   5.909   3.521   4.335
 2017TIP3    H1 6015   5.906   3.600   4.390
 2017TIP3    H2 6016   5.944   3.453   4.392
 2018TIP3   OH2 6017   3.093   3.864   3.724
 2018TIP3    H1 6018   3.141   3.782   3.715
 2018TIP3    H2 6019   3.152   3.931   3.690
 2019TIP3   OH2 6020   4.490   2.235   3.137
 2019TIP3    H1 6021   4.468   2.247   3.044
 2019TIP3    H2 6022   4.439   2.159   3.164
 2020TIP3   OH2 6023   2.984   0.874   2.855
 2020TIP3    H1 6024   2.956   0.783   2.855
 2020TIP3    H2 6025   3.059   0.876   2.914
 2021TIP3   OH2 6026   4.639   0.602   1.243
 2021TIP3    H1 6027   4.670   0.681   1.199
 2021TIP3    H2 6028   4.562   0.630   1.292
 2022TIP3   OH2 6029   0.436   4.702   5.159
 2022TIP3    H1 6030   0.477   4.622   5.128
 2022TIP3    H2 6031   0.509   4.758   5.187
 2023TIP3   OH2 6032   4.548   0.530   4.492
 2023TIP3    H1 6033   4.611   0.462   4.470
 2023TIP3    H2 6034   4.543   0.529   4.587
 2024TIP3   OH2 6035   0.540   2.867   5.601
 2024TIP3    H1 6036   0.488   2.831   5.529
 2024TIP3    H2 6037   0.631   2.860   5.571
 2025TIP3   OH2 6038   0.676   6.488   5.329
 2025TIP3    H1 6039   0.691   6.540   5.249
 2025TIP3    H2 6040   0.596   6.440   5.312
 2026TIP3   OH2 6041   1.631   6.767   5.650
 2026TIP3    H1 6042   1.659   6.801   5.734
 2026TIP3    H2 6043   1.639   6.841   5.590
 2027TIP3   OH2 6044   5.377   3.859   5.664
 2027TIP3    H1 6045   5.331   3.935   5.628
 2027TIP3    H2 6046   5.369   3.793   5.595
 2028TIP3   OH2 6047   5.120   4.292   4.204
 2028TIP3    H1 6048   5.066   4.260   4.132
 2028TIP3    H2 6049   5.180   4.220   4.224
 2029TIP3   OH2 6050   0.908   4.128   0.780
 2029TIP3    H1 6051   0.906   4.139   0.876
 2029TIP3    H2 6052   0.881   4.213   0.746
 2030TIP3   OH2 6053   6.882   1.179   0.660
 2030TIP3    H1 6054   6.946   1.126   0.707
 2030TIP3    H2 6055   6.821   1.209   0.728
 2031TIP3   OH2 6056   3.324   0.926   0.234
 2031TIP3    H1 6057   3.314   0.852   0.294
 2031TIP3    H2 6058   3.335   0.886   0.148
 2032TIP3   OH2 6059   1.472   6.550   5.640
 2032TIP3    H1 6060   1.540   6.483   5.637
 2032TIP3    H2 6061   1.520   6.633   5.634
 2033TIP3   OH2 6062   6.478   5.252   0.683
 2033TIP3    H1 6063   6.422   5.175   0.674
 2033TIP3    H2 6064   6.546   5.240   0.617
 2034TIP3   OH2 6065   4.207   1.511   5.873
 2034TIP3    H1 6066   4.170   1.509   5.785
 2034TIP3    H2 6067   4.298   1.538   5.860
 2035TIP3   OH2 6068   7.028   4.330   0.386
 2035TIP3    H1 6069   7.055   4.293   0.471
 2035TIP3    H2 6070   7.105   4.323   0.331
 2036TIP3   OH2 6071   6.101   6.270   4.873
 2036TIP3    H1 6072   6.079   6.333   4.942
 2036TIP3    H2 6073   6.114   6.187   4.919
 2037TIP3   OH2 6074   3.250   5.743   4.633
 2037TIP3    H1 6075   3.206   5.731   4.718
 2037TIP3    H2 6076   3.187   5.711   4.569
 2038TIP3   OH2 6077   0.160   4.369   2.706
 2038TIP3    H1 6078   0.243   4.331   2.735
 2038TIP3    H2 6079   0.120   4.301   2.651
 2039TIP3   OH2 6080   5.469   0.663   3.275
 2039TIP3    H1 6081   5.461   0.737   3.215
 2039TIP3    H2 6082   5.460   0.701   3.362
 2040TIP3   OH2 6083   7.051   5.295   2.572
 2040TIP3    H1 6084   7.021   5.348   2.646
 2040TIP3    H2 6085   7.072   5.210   2.610
 2041TIP3   OH2 6086   2.034   1.693   3.932
 2041TIP3    H1 6087   1.963   1.675   3.994
 2041TIP3    H2 6088   1.992   1.745   3.863
 2042TIP3   OH2 6089   2.943   2.431   0.173
 2042TIP3    H1 6090   2.962   2.398   0.260
 2042TIP3    H2 6091   2.902   2.517   0.187
 2043TIP3   OH2 6092   5.238   1.970   4.688
 2043TIP3    H1 6093   5.325   2.002   4.710
 2043TIP3    H2 6094   5.178   2.038   4.720
 2044TIP3   OH2 6095   6.454   4.726   5.468
 2044TIP3    H1 6096   6.485   4.803   5.514
 2044TIP3    H2 6097   6.363   4.746   5.446
 2045TIP3   OH2 6098   6.357   5.129   5.390
 2045TIP3    H1 6099   6.324   5.213   5.359
 2045TIP3    H2 6100   6.418   5.150   5.460
 2046TIP3   OH2 6101   2.506   1.952   5.159
 2046TIP3    H1 6102   2.555   1.898   5.096
 2046TIP3    H2 6103   2.451   2.008   5.104
 2047TIP3   OH2 6104   6.320   3.507   1.028
 2047TIP3    H1 6105   6.242   3.553   0.996
 2047TIP3    H2 6106   6.309   3.502   1.123
 2048TIP3   OH2 6107   3.398   3.540   1.932
 2048TIP3    H1 6108   3.363   3.473   1.873
 2048TIP3    H2 6109   3.477   3.500   1.970
 2049TIP3   OH2 6110   1.967   0.345   3.476
 2049TIP3    H1 6111   2.045   0.394   3.504
 2049TIP3    H2 6112   1.947   0.380   3.389
 2050TIP3   OH2 6113   5.977   2.933   4.734
 2050TIP3    H1 6114   6.020   2.965   4.655
 2050TIP3    H2 6115   6.037   2.958   4.805
 2051TIP3   OH2 6116   4.844   5.127   5.355
 2051TIP3    H1 6117   4.812   5.087   5.436
 2051TIP3    H2 6118   4.888   5.207   5.383
 2052TIP3   OH2 6119   5.549   4.405   3.545
 2052TIP3    H1 6120   5.586   4.392   3.458
 2052TIP3    H2 6121   5.600   4.347   3.603
 2053TIP3   OH2 6122   5.503   5.041   1.236
 2053TIP3    H1 6123   5.494   5.060   1.143
 2053TIP3    H2 6124   5.570   4.973   1.241
 2054TIP3   OH2 6125   4.933   3.466   2.178
 2054TIP3    H1 6126   4.868   3.535   2.185
 2054TIP3    H2 6127   5.006   3.495   2.232
 2055TIP3   OH2 6128   2.870   5.117   0.962
 2055TIP3    H1 6129   2.774   5.109   0.965
 2055TIP3    H2 6130   2.886   5.195   0.910
 2056TIP3   OH2 6131   5.206   4.980   1.605
 2056TIP3    H1 6132   5.247   5.062   1.578
 2056TIP3    H2 6133   5.145   5.006   1.674
 2057TIP3   OH2 6134   5.573   4.660   2.260
 2057TIP3    H1 6135   5.622   4.586   2.298
 2057TIP3    H2 6136   5.482   4.632   2.262
 2058TIP3   OH2 6137   5.173   0.342   4.537
 2058TIP3    H1 6138   5.216   0.279   4.479
 2058TIP3    H2 6139   5.207   0.322   4.623
 2059TIP3   OH2 6140   6.157   3.178   0.285
 2059TIP3    H1 6141   6.196   3.252   0.240
 2059TIP3    H2 6142   6.117   3.125   0.216
 2060TIP3   OH2 6143   6.428   1.325   1.798
 2060TIP3    H1 6144   6.364   1.297   1.862
 2060TIP3    H2 6145   6.508   1.278   1.822
 2061TIP3   OH2 6146   5.988   2.177   4.814
 2061TIP3    H1 6147   5.946   2.221   4.740
 2061TIP3    H2 6148   5.942   2.094   4.822
 2062TIP3   OH2 6149   0.573   1.092   5.469
 2062TIP3    H1 6150   0.595   1.050   5.385
 2062TIP3    H2 6151   0.507   1.157   5.447
 2063TIP3   OH2 6152   6.763   1.698   0.614
 2063TIP3    H1 6153   6.718   1.659   0.690
 2063TIP3    H2 6154   6.697   1.697   0.545
 2064TIP3   OH2 6155   3.398   3.178   0.804
 2064TIP3    H1 6156   3.416   3.138   0.719
 2064TIP3    H2 6157   3.461   3.250   0.810
 2065TIP3   OH2 6158   6.528   5.363   1.921
 2065TIP3    H1 6159   6.508   5.429   1.854
 2065TIP3    H2 6160   6.483   5.395   1.999
 2066TIP3   OH2 6161   5.463   5.380   3.300
 2066TIP3    H1 6162   5.394   5.442   3.324
 2066TIP3    H2 6163   5.533   5.434   3.264
 2067TIP3   OH2 6164   0.139   0.875   4.854
 2067TIP3    H1 6165   0.133   0.813   4.781
 2067TIP3    H2 6166   0.095   0.831   4.927
 2068TIP3   OH2 6167   5.047   0.698   2.669
 2068TIP3    H1 6168   5.116   0.707   2.734
 2068TIP3    H2 6169   4.966   0.716   2.718
 2069TIP3   OH2 6170   1.173   4.107   4.579
 2069TIP3    H1 6171   1.162   4.067   4.493
 2069TIP3    H2 6172   1.265   4.134   4.582
 2070TIP3   OH2 6173   1.576   2.012   1.580
 2070TIP3    H1 6174   1.616   2.068   1.513
 2070TIP3    H2 6175   1.536   1.940   1.531
 2071TIP3   OH2 6176   5.278   0.563   1.630
 2071TIP3    H1 6177   5.368   0.568   1.664
 2071TIP3    H2 6178   5.273   0.475   1.591
 2072TIP3   OH2 6179   5.498   6.194   3.430
 2072TIP3    H1 6180   5.543   6.208   3.514
 2072TIP3    H2 6181   5.464   6.105   3.436
 2073TIP3   OH2 6182   1.705   1.714   1.901
 2073TIP3    H1 6183   1.775   1.776   1.879
 2073TIP3    H2 6184   1.627   1.768   1.910
 2074TIP3   OH2 6185   6.005   0.278   4.997
 2074TIP3    H1 6186   6.049   0.232   4.925
 2074TIP3    H2 6187   6.050   0.362   5.002
 2075TIP3   OH2 6188   0.421   1.820   0.306
 2075TIP3    H1 6189   0.333   1.795   0.276
 2075TIP3    H2 6190   0.480   1.764   0.256
 2076TIP3   OH2 6191   5.622   3.104   2.572
 2076TIP3    H1 6192   5.609   3.009   2.565
 2076TIP3    H2 6193   5.625   3.134   2.482
 2077TIP3   OH2 6194   1.236   5.209   5.621
 2077TIP3    H1 6195   1.170   5.242   5.561
 2077TIP3    H2 6196   1.293   5.154   5.567
 2078TIP3   OH2 6197   1.996   6.052   4.898
 2078TIP3    H1 6198   1.941   5.980   4.867
 2078TIP3    H2 6199   2.051   6.013   4.966
 2079TIP3   OH2 6200   4.253   5.156   2.925
 2079TIP3    H1 6201   4.174   5.173   2.976
 2079TIP3    H2 6202   4.276   5.065   2.945
 2080TIP3   OH2 6203   4.650   6.400   2.938
 2080TIP3    H1 6204   4.570   6.395   2.991
 2080TIP3    H2 6205   4.632   6.470   2.876
 2081TIP3   OH2 6206   3.577   4.539   2.232
 2081TIP3    H1 6207   3.648   4.594   2.197
 2081TIP3    H2 6208   3.611   4.507   2.316
 2082TIP3   OH2 6209   2.507   4.741   4.605
 2082TIP3    H1 6210   2.444   4.782   4.545
 2082TIP3    H2 6211   2.522   4.654   4.567
 2083TIP3   OH2 6212   6.019   1.148   0.969
 2083TIP3    H1 6213   5.954   1.078   0.977
 2083TIP3    H2 6214   6.080   1.117   0.902
 2084TIP3   OH2 6215   4.735   1.385   4.673
 2084TIP3    H1 6216   4.747   1.298   4.635
 2084TIP3    H2 6217   4.822   1.424   4.670
 2085TIP3   OH2 6218   0.762   3.997   1.538
 2085TIP3    H1 6219   0.722   3.916   1.508
 2085TIP3    H2 6220   0.856   3.979   1.536
 2086TIP3   OH2 6221   2.015   1.209   5.736
 2086TIP3    H1 6222   2.098   1.189   5.692
 2086TIP3    H2 6223   1.976   1.279   5.682
 2087TIP3   OH2 6224   3.230   0.495   5.665
 2087TIP3    H1 6225   3.202   0.465   5.752
 2087TIP3    H2 6226   3.178   0.574   5.649
 2088TIP3   OH2 6227   2.903   3.291   3.244
 2088TIP3    H1 6228   2.809   3.279   3.236
 2088TIP3    H2 6229   2.917   3.384   3.228
 2089TIP3   OH2 6230   2.885   0.083   1.254
 2089TIP3    H1 6231   2.894   0.103   1.347
 2089TIP3    H2 6232   2.812   0.138   1.224
 2090TIP3   OH2 6233   4.869   5.483   1.069
 2090TIP3    H1 6234   4.785   5.466   1.110
 2090TIP3    H2 6235   4.868   5.577   1.049
 2091TIP3   OH2 6236   4.733   4.747   1.893
 2091TIP3    H1 6237   4.746   4.656   1.921
 2091TIP3    H2 6238   4.740   4.744   1.798
 2092TIP3   OH2 6239   5.091   1.539   1.351
 2092TIP3    H1 6240   5.040   1.596   1.293
 2092TIP3    H2 6241   5.141   1.600   1.406
 2093TIP3   OH2 6242   1.267   4.489   1.067
 2093TIP3    H1 6243   1.257   4.400   1.032
 2093TIP3    H2 6244   1.187   4.534   1.042
 2094TIP3   OH2 6245   7.209   2.599   2.317
 2094TIP3    H1 6246   7.180   2.687   2.291
 2094TIP3    H2 6247   7.186   2.543   2.243
 2095TIP3   OH2 6248   2.617   3.667   0.033
 2095TIP3    H1 6249   2.631   3.761   0.040
 2095TIP3    H2 6250   2.685   3.628   0.088
 2096TIP3   OH2 6251   5.257   2.369   1.307
 2096TIP3    H1 6252   5.265   2.319   1.388
 2096TIP3    H2 6253   5.221   2.307   1.244
 2097TIP3   OH2 6254   6.229   1.242   5.421
 2097TIP3    H1 6255   6.202   1.184   5.492
 2097TIP3    H2 6256   6.325   1.247   5.430
 2098TIP3   OH2 6257   1.654   4.395   1.945
 2098TIP3    H1 6258   1.737   4.354   1.971
 2098TIP3    H2 6259   1.661   4.403   1.850
 2099TIP3   OH2 6260   1.099   6.271   0.756
 2099TIP3    H1 6261   1.071   6.297   0.667
 2099TIP3    H2 6262   1.032   6.208   0.783
 2100TIP3   OH2 6263   4.510   0.904   1.428
 2100TIP3    H1 6264   4.585   0.945   1.386
 2100TIP3    H2 6265   4.436   0.960   1.407
 2101TIP3   OH2 6266   2.051   4.163   1.775
 2101TIP3    H1 6267   2.105   4.240   1.790
 2101TIP3    H2 6268   2.041   4.159   1.680
 2102TIP3   OH2 6269   1.918   1.336   1.719
 2102TIP3    H1 6270   1.884   1.403   1.659
 2102TIP3    H2 6271   1.876   1.355   1.803
 2103TIP3   OH2 6272   0.032   2.767   4.415
 2103TIP3    H1 6273   0.120   2.735   4.399
 2103TIP3    H2 6274  -0.025   2.695   4.387
 2104TIP3   OH2 6275   5.848   3.004   1.328
 2104TIP3    H1 6276   5.784   2.970   1.265
 2104TIP3    H2 6277   5.933   2.981   1.291
 2105TIP3   OH2 6278   0.871   4.967   2.220
 2105TIP3    H1 6279   0.831   4.893   2.267
 2105TIP3    H2 6280   0.949   4.989   2.271
 2106TIP3   OH2 6281   1.266   0.757   3.794
 2106TIP3    H1 6282   1.177   0.758   3.760
 2106TIP3    H2 6283   1.279   0.668   3.825
 2107TIP3   OH2 6284   1.864   5.504   2.557
 2107TIP3    H1 6285   1.857   5.455   2.475
 2107TIP3    H2 6286   1.950   5.546   2.553
 2108TIP3   OH2 6287   3.519   2.597   1.789
 2108TIP3    H1 6288   3.431   2.601   1.753
 2108TIP3    H2 6289   3.574   2.568   1.716
 2109TIP3   OH2 6290   3.287   3.442   4.848
 2109TIP3    H1 6291   3.323   3.504   4.784
 2109TIP3    H2 6292   3.350   3.370   4.850
 2110TIP3   OH2 6293   4.996   5.461   0.210
 2110TIP3    H1 6294   4.929   5.512   0.255
 2110TIP3    H2 6295   5.074   5.472   0.264
 2111TIP3   OH2 6296   3.971   1.574   1.582
 2111TIP3    H1 6297   3.988   1.625   1.503
 2111TIP3    H2 6298   3.878   1.590   1.600
 2112TIP3   OH2 6299   2.437   3.809   5.644
 2112TIP3    H1 6300   2.464   3.885   5.695
 2112TIP3    H2 6301   2.466   3.733   5.695
 2113TIP3   OH2 6302   1.056   4.197   0.150
 2113TIP3    H1 6303   1.125   4.228   0.092
 2113TIP3    H2 6304   1.028   4.275   0.198
 2114TIP3   OH2 6305   5.246   2.435   1.005
 2114TIP3    H1 6306   5.215   2.506   0.948
 2114TIP3    H2 6307   5.303   2.478   1.068
 2115TIP3   OH2 6308   1.402   1.474   0.105
 2115TIP3    H1 6309   1.342   1.423   0.159
 2115TIP3    H2 6310   1.389   1.564   0.133
 2116TIP3   OH2 6311   1.453   2.464   2.810
 2116TIP3    H1 6312   1.499   2.382   2.823
 2116TIP3    H2 6313   1.487   2.498   2.727
 2117TIP3   OH2 6314   2.823   1.143   0.980
 2117TIP3    H1 6315   2.828   1.059   1.025
 2117TIP3    H2 6316   2.906   1.149   0.933
 2118TIP3   OH2 6317   2.592   4.827   2.673
 2118TIP3    H1 6318   2.641   4.875   2.741
 2118TIP3    H2 6319   2.651   4.757   2.646
 2119TIP3   OH2 6320   2.680   0.419   1.444
 2119TIP3    H1 6321   2.588   0.395   1.430
 2119TIP3    H2 6322   2.676   0.500   1.494
 2120TIP3   OH2 6323   2.751   4.074   4.296
 2120TIP3    H1 6324   2.823   4.012   4.281
 2120TIP3    H2 6325   2.794   4.149   4.339
 2121TIP3   OH2 6326   5.911   5.424   5.501
 2121TIP3    H1 6327   5.842   5.487   5.523
 2121TIP3    H2 6328   5.992   5.467   5.530
 2122TIP3   OH2 6329   1.815   1.720   5.253
 2122TIP3    H1 6330   1.889   1.724   5.313
 2122TIP3    H2 6331   1.833   1.645   5.196
 2123TIP3   OH2 6332   2.735   3.595   0.790
 2123TIP3    H1 6333   2.717   3.598   0.884
 2123TIP3    H2 6334   2.824   3.630   0.782
 2124TIP3   OH2 6335   5.897   2.223   1.720
 2124TIP3    H1 6336   5.971   2.283   1.712
 2124TIP3    H2 6337   5.934   2.136   1.704
 2125TIP3   OH2 6338   4.101   1.305   3.543
 2125TIP3    H1 6339   4.175   1.343   3.495
 2125TIP3    H2 6340   4.064   1.241   3.482
 2126TIP3   OH2 6341   1.826   5.115   0.843
 2126TIP3    H1 6342   1.747   5.118   0.788
 2126TIP3    H2 6343   1.896   5.088   0.783
 2127TIP3   OH2 6344   3.634   4.676   1.671
 2127TIP3    H1 6345   3.717   4.688   1.718
 2127TIP3    H2 6346   3.656   4.616   1.599
 2128TIP3   OH2 6347   6.073   1.409   4.490
 2128TIP3    H1 6348   6.146   1.347   4.482
 2128TIP3    H2 6349   6.100   1.484   4.438
 2129TIP3   OH2 6350   2.377   5.406   4.537
 2129TIP3    H1 6351   2.408   5.496   4.531
 2129TIP3    H2 6352   2.284   5.411   4.514
 2130TIP3   OH2 6353   5.252   0.224   0.232
 2130TIP3    H1 6354   5.216   0.167   0.301
 2130TIP3    H2 6355   5.233   0.177   0.151
 2131TIP3   OH2 6356   0.349   6.498   1.936
 2131TIP3    H1 6357   0.258   6.519   1.959
 2131TIP3    H2 6358   0.401   6.538   2.006
 2132TIP3   OH2 6359   5.534   1.712   4.571
 2132TIP3    H1 6360   5.533   1.751   4.484
 2132TIP3    H2 6361   5.594   1.768   4.621
 2133TIP3   OH2 6362   3.297   1.281   5.502
 2133TIP3    H1 6363   3.216   1.239   5.530
 2133TIP3    H2 6364   3.313   1.349   5.568
 2134TIP3   OH2 6365   0.310   1.353   1.595
 2134TIP3    H1 6366   0.372   1.282   1.579
 2134TIP3    H2 6367   0.272   1.334   1.680
 2135TIP3   OH2 6368   0.061   3.127   2.198
 2135TIP3    H1 6369   0.108   3.160   2.274
 2135TIP3    H2 6370  -0.029   3.157   2.210
 2136TIP3   OH2 6371   1.642   0.999   4.200
 2136TIP3    H1 6372   1.597   1.050   4.267
 2136TIP3    H2 6373   1.734   1.021   4.211
 2137TIP3   OH2 6374   1.059   5.250   4.530
 2137TIP3    H1 6375   1.014   5.334   4.525
 2137TIP3    H2 6376   1.042   5.219   4.619
 2138TIP3   OH2 6377   0.758   3.492   0.879
 2138TIP3    H1 6378   0.745   3.533   0.965
 2138TIP3    H2 6379   0.676   3.444   0.863
 2139TIP3   OH2 6380   3.933   0.949   5.647
 2139TIP3    H1 6381   3.853   0.968   5.597
 2139TIP3    H2 6382   3.906   0.885   5.712
 2140TIP3   OH2 6383   2.369   2.020   4.937
 2140TIP3    H1 6384   2.348   1.937   4.895
 2140TIP3    H2 6385   2.367   2.085   4.866
 2141TIP3   OH2 6386   6.436   5.900   2.056
 2141TIP3    H1 6387   6.429   5.806   2.037
 2141TIP3    H2 6388   6.529   5.913   2.076
 2142TIP3   OH2 6389   3.444   6.634   3.041
 2142TIP3    H1 6390   3.485   6.550   3.021
 2142TIP3    H2 6391   3.467   6.650   3.133
 2143TIP3   OH2 6392   6.959   1.151   5.754
 2143TIP3    H1 6393   6.986   1.243   5.755
 2143TIP3    H2 6394   7.011   1.112   5.684
 2144TIP3   OH2 6395   0.341   1.605   4.061
 2144TIP3    H1 6396   0.317   1.662   4.133
 2144TIP3    H2 6397   0.316   1.653   3.982
 2145TIP3   OH2 6398   2.934   6.388   4.384
 2145TIP3    H1 6399   2.931   6.371   4.479
 2145TIP3    H2 6400   2.909   6.481   4.376
 2146TIP3   OH2 6401   6.783   3.899   2.075
 2146TIP3    H1 6402   6.809   3.980   2.033
 2146TIP3    H2 6403   6.707   3.869   2.025
 2147TIP3   OH2 6404   3.787   1.771   4.758
 2147TIP3    H1 6405   3.790   1.750   4.851
 2147TIP3    H2 6406   3.716   1.834   4.750
 2148TIP3   OH2 6407   7.091   0.247   4.040
 2148TIP3    H1 6408   7.070   0.337   4.016
 2148TIP3    H2 6409   7.186   0.240   4.027
 2149TIP3   OH2 6410   0.583   5.985   3.848
 2149TIP3    H1 6411   0.667   5.989   3.802
 2149TIP3    H2 6412   0.604   5.945   3.932
 2150TIP3   OH2 6413   7.157   2.356   5.201
 2150TIP3    H1 6414   7.212   2.332   5.127
 2150TIP3    H2 6415   7.143   2.450   5.191
 2151TIP3   OH2 6416   5.453   2.111   5.862
 2151TIP3    H1 6417   5.535   2.070   5.889
 2151TIP3    H2 6418   5.430   2.068   5.779
 2152TIP3   OH2 6419   6.498   2.748   2.742
 2152TIP3    H1 6420   6.553   2.756   2.664
 2152TIP3    H2 6421   6.502   2.834   2.783
 2153TIP3   OH2 6422   2.486   5.219   3.456
 2153TIP3    H1 6423   2.462   5.246   3.545
 2153TIP3    H2 6424   2.408   5.175   3.422
 2154TIP3   OH2 6425   0.496   4.944   3.562
 2154TIP3    H1 6426   0.541   4.932   3.646
 2154TIP3    H2 6427   0.566   4.966   3.500
 2155TIP3   OH2 6428   3.969   4.031   0.664
 2155TIP3    H1 6429   3.937   4.094   0.728
 2155TIP3    H2 6430   3.898   4.024   0.600
 2156TIP3   OH2 6431   3.007   1.664   4.690
 2156TIP3    H1 6432   3.084   1.635   4.641
 2156TIP3    H2 6433   3.013   1.760   4.689
 2157TIP3   OH2 6434   3.477   1.005   4.740
 2157TIP3    H1 6435   3.467   1.087   4.692
 2157TIP3    H2 6436   3.394   0.960   4.727
 2158TIP3   OH2 6437   4.118   6.453   4.363
 2158TIP3    H1 6438   4.075   6.503   4.294
 2158TIP3    H2 6439   4.201   6.499   4.379
 2159TIP3   OH2 6440   1.171   5.092   2.801
 2159TIP3    H1 6441   1.195   5.032   2.872
 2159TIP3    H2 6442   1.243   5.155   2.798
 2160TIP3   OH2 6443   2.842   1.431   3.489
 2160TIP3    H1 6444   2.869   1.380   3.565
 2160TIP3    H2 6445   2.752   1.456   3.507
 2161TIP3   OH2 6446   2.546   0.894   3.416
 2161TIP3    H1 6447   2.451   0.893   3.401
 2161TIP3    H2 6448   2.561   0.823   3.478
 2162TIP3   OH2 6449   2.025   4.111   0.742
 2162TIP3    H1 6450   2.105   4.163   0.740
 2162TIP3    H2 6451   1.954   4.175   0.743
 2163TIP3   OH2 6452   5.030   2.621   4.385
 2163TIP3    H1 6453   5.061   2.581   4.304
 2163TIP3    H2 6454   5.003   2.547   4.439
 2164TIP3   OH2 6455   5.714   5.630   1.684
 2164TIP3    H1 6456   5.800   5.671   1.683
 2164TIP3    H2 6457   5.678   5.651   1.770
 2165TIP3   OH2 6458   1.547   5.591   4.745
 2165TIP3    H1 6459   1.556   5.609   4.838
 2165TIP3    H2 6460   1.491   5.662   4.712
 2166TIP3   OH2 6461   0.049   0.811   5.695
 2166TIP3    H1 6462   0.011   0.881   5.642
 2166TIP3    H2 6463   0.068   0.852   5.779
 2167TIP3   OH2 6464   6.965   5.623   1.791
 2167TIP3    H1 6465   7.024   5.547   1.797
 2167TIP3    H2 6466   7.021   5.694   1.759
 2168TIP3   OH2 6467   6.257   5.356   0.496
 2168TIP3    H1 6468   6.283   5.434   0.446
 2168TIP3    H2 6469   6.319   5.353   0.569
 2169TIP3   OH2 6470   2.956   4.431   5.569
 2169TIP3    H1 6471   2.999   4.383   5.640
 2169TIP3    H2 6472   2.863   4.422   5.586
 2170TIP3   OH2 6473   1.433   5.625   5.060
 2170TIP3    H1 6474   1.381   5.551   5.092
 2170TIP3    H2 6475   1.379   5.667   4.994
 2171TIP3   OH2 6476   2.868   3.564   1.680
 2171TIP3    H1 6477   2.828   3.641   1.640
 2171TIP3    H2 6478   2.961   3.587   1.690
 2172TIP3   OH2 6479   1.239   4.855   4.633
 2172TIP3    H1 6480   1.227   4.939   4.589
 2172TIP3    H2 6481   1.155   4.809   4.621
 2173TIP3   OH2 6482   6.143   1.078   4.710
 2173TIP3    H1 6483   6.162   1.066   4.616
 2173TIP3    H2 6484   6.064   1.131   4.712
 2174TIP3   OH2 6485   6.055   3.495   2.564
 2174TIP3    H1 6486   6.123   3.561   2.578
 2174TIP3    H2 6487   5.977   3.545   2.541
 2175TIP3   OH2 6488   3.132   0.567   1.992
 2175TIP3    H1 6489   3.167   0.508   1.925
 2175TIP3    H2 6490   3.091   0.638   1.943
 2176TIP3   OH2 6491   5.776   5.454   3.417
 2176TIP3    H1 6492   5.810   5.371   3.383
 2176TIP3    H2 6493   5.771   5.441   3.511
 2177TIP3   OH2 6494   1.945   0.077   1.558
 2177TIP3    H1 6495   2.038   0.074   1.536
 2177TIP3    H2 6496   1.936   0.156   1.613
 2178TIP3   OH2 6497   5.375   3.803   1.613
 2178TIP3    H1 6498   5.329   3.876   1.573
 2178TIP3    H2 6499   5.344   3.726   1.566
 2179TIP3   OH2 6500   6.326   4.237   4.000
 2179TIP3    H1 6501   6.301   4.189   3.921
 2179TIP3    H2 6502   6.390   4.301   3.969
 2180TIP3   OH2 6503   5.802   1.558   2.050
 2180TIP3    H1 6504   5.727   1.617   2.062
 2180TIP3    H2 6505   5.846   1.591   1.971
 2181TIP3   OH2 6506   2.782   2.455   2.113
 2181TIP3    H1 6507   2.839   2.512   2.165
 2181TIP3    H2 6508   2.803   2.367   2.143
 2182TIP3   OH2 6509   1.621   6.329   5.736
 2182TIP3    H1 6510   1.607   6.318   5.830
 2182TIP3    H2 6511   1.689   6.395   5.729
 2183TIP3   OH2 6512   5.099   3.608   2.342
 2183TIP3    H1 6513   5.119   3.701   2.331
 2183TIP3    H2 6514   5.185   3.565   2.342
 2184TIP3   OH2 6515   6.950   3.564   3.466
 2184TIP3    H1 6516   7.044   3.563   3.454
 2184TIP3    H2 6517   6.938   3.586   3.559
 2185TIP3   OH2 6518   5.411   3.861   1.896
 2185TIP3    H1 6519   5.395   3.835   1.806
 2185TIP3    H2 6520   5.324   3.868   1.935
 2186TIP3   OH2 6521   2.442   6.294   1.861
 2186TIP3    H1 6522   2.364   6.239   1.871
 2186TIP3    H2 6523   2.417   6.379   1.897
 2187TIP3   OH2 6524   3.792   5.406   3.661
 2187TIP3    H1 6525   3.740   5.466   3.716
 2187TIP3    H2 6526   3.814   5.458   3.584
 2188TIP3   OH2 6527   0.351   6.777   0.854
 2188TIP3    H1 6528   0.291   6.726   0.801
 2188TIP3    H2 6529   0.339   6.867   0.824
 2189TIP3   OH2 6530   3.716   3.524   2.977
 2189TIP3    H1 6531   3.723   3.435   3.013
 2189TIP3    H2 6532   3.801   3.564   2.997
 2190TIP3   OH2 6533   3.952   0.456   4.591
 2190TIP3    H1 6534   3.974   0.489   4.504
 2190TIP3    H2 6535   4.020   0.491   4.648
 2191TIP3   OH2 6536   2.363   2.884   4.955
 2191TIP3    H1 6537   2.393   2.834   4.880
 2191TIP3    H2 6538   2.440   2.889   5.012
 2192TIP3   OH2 6539   4.779   6.618   3.884
 2192TIP3    H1 6540   4.716   6.681   3.849
 2192TIP3    H2 6541   4.765   6.621   3.979
 2193TIP3   OH2 6542   1.154   1.347   1.344
 2193TIP3    H1 6543   1.102   1.311   1.272
 2193TIP3    H2 6544   1.130   1.439   1.347
 2194TIP3   OH2 6545   6.783   6.416   3.206
 2194TIP3    H1 6546   6.788   6.481   3.277
 2194TIP3    H2 6547   6.874   6.397   3.185
 2195TIP3   OH2 6548   2.372   0.068   3.960
 2195TIP3    H1 6549   2.391  -0.024   3.941
 2195TIP3    H2 6550   2.295   0.065   4.018
 2196TIP3   OH2 6551   1.082   4.310   3.640
 2196TIP3    H1 6552   1.101   4.250   3.712
 2196TIP3    H2 6553   1.159   4.366   3.633
 2197TIP3   OH2 6554   1.116   3.948   0.747
 2197TIP3    H1 6555   1.144   3.916   0.662
 2197TIP3    H2 6556   1.063   4.026   0.727
 2198TIP3   OH2 6557   2.136   2.867   4.739
 2198TIP3    H1 6558   2.143   2.829   4.827
 2198TIP3    H2 6559   2.101   2.796   4.685
 2199TIP3   OH2 6560   4.769   5.781   2.011
 2199TIP3    H1 6561   4.846   5.837   2.007
 2199TIP3    H2 6562   4.727   5.792   1.926
 2200TIP3   OH2 6563   1.271   2.807   3.620
 2200TIP3    H1 6564   1.211   2.787   3.692
 2200TIP3    H2 6565   1.319   2.885   3.649
 2201TIP3   OH2 6566   6.871   1.086   3.146
 2201TIP3    H1 6567   6.796   1.144   3.138
 2201TIP3    H2 6568   6.930   1.130   3.206
 2202TIP3   OH2 6569   2.544   5.909   0.877
 2202TIP3    H1 6570   2.552   5.948   0.790
 2202TIP3    H2 6571   2.462   5.860   0.874
 2203TIP3   OH2 6572   1.010   5.145   0.173
 2203TIP3    H1 6573   0.994   5.213   0.108
 2203TIP3    H2 6574   1.062   5.079   0.126
 2204TIP3   OH2 6575   0.084   1.215   0.568
 2204TIP3    H1 6576   0.157   1.269   0.539
 2204TIP3    H2 6577   0.097   1.206   0.663
 2205TIP3   OH2 6578   3.934   0.166   2.596
 2205TIP3    H1 6579   3.912   0.099   2.532
 2205TIP3    H2 6580   3.959   0.117   2.675
 2206TIP3   OH2 6581   0.543   4.439   2.385
 2206TIP3    H1 6582   0.488   4.511   2.355
 2206TIP3    H2 6583   0.505   4.361   2.344
 2207TIP3   OH2 6584   1.017   2.713   3.162
 2207TIP3    H1 6585   0.989   2.803   3.145
 2207TIP3    H2 6586   1.062   2.718   3.246
 2208TIP3   OH2 6587   0.185   0.846   1.391
 2208TIP3    H1 6588   0.151   0.926   1.351
 2208TIP3    H2 6589   0.264   0.825   1.342
 2209TIP3   OH2 6590   4.046   1.747   3.093
 2209TIP3    H1 6591   3.965   1.799   3.095
 2209TIP3    H2 6592   4.099   1.788   3.025
 2210TIP3   OH2 6593   4.006   3.189   5.429
 2210TIP3    H1 6594   3.939   3.248   5.393
 2210TIP3    H2 6595   4.070   3.180   5.358
 2211TIP3   OH2 6596   2.785   6.033   3.180
 2211TIP3    H1 6597   2.837   6.002   3.107
 2211TIP3    H2 6598   2.734   6.106   3.145
 2212TIP3   OH2 6599   1.468   1.545   5.173
 2212TIP3    H1 6600   1.554   1.514   5.145
 2212TIP3    H2 6601   1.418   1.557   5.092
 2213TIP3   OH2 6602   1.286   0.389   0.248
 2213TIP3    H1 6603   1.304   0.420   0.159
 2213TIP3    H2 6604   1.366   0.345   0.275
 2214TIP3   OH2 6605   2.668   5.356   1.566
 2214TIP3    H1 6606   2.685   5.373   1.659
 2214TIP3    H2 6607   2.573   5.359   1.559
 2215TIP3   OH2 6608   4.380   2.845   4.541
 2215TIP3    H1 6609   4.458   2.880   4.499
 2215TIP3    H2 6610   4.382   2.751   4.521
 2216TIP3   OH2 6611   6.618   2.965   1.832
 2216TIP3    H1 6612   6.573   2.927   1.757
 2216TIP3    H2 6613   6.672   2.893   1.867
 2217TIP3   OH2 6614   7.146   0.372   0.893
 2217TIP3    H1 6615   7.219   0.314   0.913
 2217TIP3    H2 6616   7.160   0.450   0.947
 2218TIP3   OH2 6617   6.227   2.569   5.827
 2218TIP3    H1 6618   6.209   2.629   5.900
 2218TIP3    H2 6619   6.295   2.510   5.860
 2219TIP3   OH2 6620   3.585   2.252   2.519
 2219TIP3    H1 6621   3.546   2.257   2.432
 2219TIP3    H2 6622   3.578   2.160   2.543
 2220TIP3   OH2 6623   0.290   1.110   1.777
 2220TIP3    H1 6624   0.385   1.121   1.776
 2220TIP3    H2 6625   0.277   1.025   1.820
 2221TIP3   OH2 6626   5.952   4.505   5.577
 2221TIP3    H1 6627   5.990   4.585   5.615
 2221TIP3    H2 6628   6.013   4.481   5.507
 2222TIP3   OH2 6629   6.071   3.255   2.732
 2222TIP3    H1 6630   6.064   3.349   2.719
 2222TIP3    H2 6631   5.985   3.220   2.706
 2223TIP3   OH2 6632   0.361   2.733   2.196
 2223TIP3    H1 6633   0.421   2.793   2.239
 2223TIP3    H2 6634   0.288   2.789   2.168
 2224TIP3   OH2 6635   0.917   0.643   1.379
 2224TIP3    H1 6636   0.837   0.600   1.409
 2224TIP3    H2 6637   0.988   0.586   1.410
 2225TIP3   OH2 6638   2.688   3.178   1.839
 2225TIP3    H1 6639   2.725   3.106   1.890
 2225TIP3    H2 6640   2.593   3.170   1.853
 2226TIP3   OH2 6641   2.367   2.198   5.369
 2226TIP3    H1 6642   2.327   2.211   5.456
 2226TIP3    H2 6643   2.310   2.134   5.326
 2227TIP3   OH2 6644   0.820   5.976   3.713
 2227TIP3    H1 6645   0.777   5.919   3.650
 2227TIP3    H2 6646   0.907   5.990   3.676
 2228TIP3   OH2 6647   4.672   2.542   0.144
 2228TIP3    H1 6648   4.616   2.485   0.092
 2228TIP3    H2 6649   4.760   2.507   0.131
 2229TIP3   OH2 6650   0.363   6.001   1.257
 2229TIP3    H1 6651   0.303   6.029   1.327
 2229TIP3    H2 6652   0.372   6.078   1.201
 2230TIP3   OH2 6653   1.637   3.562   1.694
 2230TIP3    H1 6654   1.713   3.506   1.705
 2230TIP3    H2 6655   1.563   3.501   1.690
 2231TIP3   OH2 6656   2.589   1.311   1.371
 2231TIP3    H1 6657   2.505   1.346   1.402
 2231TIP3    H2 6658   2.567   1.256   1.296
 2232TIP3   OH2 6659   3.001   1.336   3.283
 2232TIP3    H1 6660   2.949   1.366   3.357
 2232TIP3    H2 6661   3.040   1.254   3.312
 2233TIP3   OH2 6662   2.948   4.958   5.286
 2233TIP3    H1 6663   2.984   4.881   5.329
 2233TIP3    H2 6664   3.022   5.017   5.275
 2234TIP3   OH2 6665   4.850   0.453   5.078
 2234TIP3    H1 6666   4.891   0.428   5.161
 2234TIP3    H2 6667   4.787   0.521   5.101
 2235TIP3   OH2 6668   6.749   5.455   2.554
 2235TIP3    H1 6669   6.688   5.529   2.560
 2235TIP3    H2 6670   6.834   5.495   2.537
 2236TIP3   OH2 6671   2.806   0.889   2.136
 2236TIP3    H1 6672   2.852   0.966   2.102
 2236TIP3    H2 6673   2.875   0.836   2.177
 2237TIP3   OH2 6674   5.142   3.501   0.702
 2237TIP3    H1 6675   5.196   3.438   0.656
 2237TIP3    H2 6676   5.148   3.581   0.650
 2238TIP3   OH2 6677   3.476   0.989   3.777
 2238TIP3    H1 6678   3.484   0.928   3.851
 2238TIP3    H2 6679   3.386   0.976   3.746
 2239TIP3   OH2 6680   5.168   6.647   0.383
 2239TIP3    H1 6681   5.182   6.639   0.288
 2239TIP3    H2 6682   5.254   6.667   0.418
 2240TIP3   OH2 6683   5.649   1.394   3.389
 2240TIP3    H1 6684   5.679   1.485   3.387
 2240TIP3    H2 6685   5.718   1.347   3.435
 2241TIP3   OH2 6686   6.776   1.723   1.524
 2241TIP3    H1 6687   6.733   1.647   1.563
 2241TIP3    H2 6688   6.721   1.797   1.551
 2242TIP3   OH2 6689   4.761   1.807   3.334
 2242TIP3    H1 6690   4.807   1.828   3.253
 2242TIP3    H2 6691   4.759   1.711   3.336
 2243TIP3   OH2 6692   1.850   2.890   3.122
 2243TIP3    H1 6693   1.892   2.931   3.197
 2243TIP3    H2 6694   1.884   2.800   3.122
 2244TIP3   OH2 6695   3.788   5.317   2.722
 2244TIP3    H1 6696   3.861   5.368   2.757
 2244TIP3    H2 6697   3.761   5.260   2.794
 2245TIP3   OH2 6698   4.662   1.102   1.753
 2245TIP3    H1 6699   4.715   1.148   1.688
 2245TIP3    H2 6700   4.576   1.094   1.713
 2246TIP3   OH2 6701   0.975   1.575   1.051
 2246TIP3    H1 6702   1.008   1.488   1.027
 2246TIP3    H2 6703   0.922   1.560   1.129
 2247TIP3   OH2 6704   5.930   1.793   5.109
 2247TIP3    H1 6705   5.952   1.848   5.184
 2247TIP3    H2 6706   5.843   1.822   5.083
 2248TIP3   OH2 6707   1.222   4.983   2.271
 2248TIP3    H1 6708   1.287   5.009   2.336
 2248TIP3    H2 6709   1.264   4.912   2.221
 2249TIP3   OH2 6710   3.636   3.412   3.674
 2249TIP3    H1 6711   3.560   3.409   3.733
 2249TIP3    H2 6712   3.679   3.328   3.686
 2250TIP3   OH2 6713   3.242   6.487   2.618
 2250TIP3    H1 6714   3.170   6.544   2.591
 2250TIP3    H2 6715   3.319   6.522   2.574
 2251TIP3   OH2 6716   5.903   4.989   4.060
 2251TIP3    H1 6717   5.945   4.998   4.145
 2251TIP3    H2 6718   5.890   4.895   4.049
 2252TIP3   OH2 6719   5.359   5.791   4.620
 2252TIP3    H1 6720   5.414   5.761   4.547
 2252TIP3    H2 6721   5.363   5.720   4.684
 2253TIP3   OH2 6722   1.770   6.392   2.725
 2253TIP3    H1 6723   1.763   6.424   2.635
 2253TIP3    H2 6724   1.843   6.443   2.762
 2254TIP3   OH2 6725   2.897   2.305   5.398
 2254TIP3    H1 6726   2.922   2.228   5.346
 2254TIP3    H2 6727   2.825   2.274   5.452
 2255TIP3   OH2 6728   4.129   6.231   0.258
 2255TIP3    H1 6729   4.126   6.212   0.352
 2255TIP3    H2 6730   4.206   6.287   0.247
 2256TIP3   OH2 6731   1.595   6.522   3.528
 2256TIP3    H1 6732   1.625   6.451   3.471
 2256TIP3    H2 6733   1.535   6.573   3.473
 2257TIP3   OH2 6734   5.210   3.103   0.282
 2257TIP3    H1 6735   5.194   3.176   0.342
 2257TIP3    H2 6736   5.131   3.100   0.227
 2258TIP3   OH2 6737   2.984   6.814   3.966
 2258TIP3    H1 6738   3.055   6.829   4.028
 2258TIP3    H2 6739   2.947   6.730   3.992
 2259TIP3   OH2 6740   0.103   3.195   3.695
 2259TIP3    H1 6741   0.177   3.183   3.635
 2259TIP3    H2 6742   0.053   3.114   3.688
 2260TIP3   OH2 6743   3.046   5.370   1.854
 2260TIP3    H1 6744   3.140   5.357   1.846
 2260TIP3    H2 6745   3.037   5.450   1.905
 2261TIP3   OH2 6746   2.081   6.161   2.651
 2261TIP3    H1 6747   2.055   6.146   2.560
 2261TIP3    H2 6748   2.120   6.248   2.651
 2262TIP3   OH2 6749   3.652   4.252   3.425
 2262TIP3    H1 6750   3.695   4.271   3.342
 2262TIP3    H2 6751   3.683   4.164   3.449
 2263TIP3   OH2 6752   3.961   0.519   0.689
 2263TIP3    H1 6753   3.898   0.585   0.716
 2263TIP3    H2 6754   4.021   0.510   0.763
 2264TIP3   OH2 6755   2.312   4.886   2.678
 2264TIP3    H1 6756   2.401   4.879   2.644
 2264TIP3    H2 6757   2.258   4.846   2.610
 2265TIP3   OH2 6758   0.438   4.473   5.408
 2265TIP3    H1 6759   0.503   4.543   5.413
 2265TIP3    H2 6760   0.396   4.485   5.323
 2266TIP3   OH2 6761   2.674   5.980   1.109
 2266TIP3    H1 6762   2.724   5.901   1.128
 2266TIP3    H2 6763   2.641   5.967   1.020
 2267TIP3   OH2 6764   5.604   3.890   4.255
 2267TIP3    H1 6765   5.602   3.905   4.161
 2267TIP3    H2 6766   5.640   3.802   4.265
 2268TIP3   OH2 6767   1.304   5.608   1.873
 2268TIP3    H1 6768   1.328   5.528   1.919
 2268TIP3    H2 6769   1.387   5.651   1.854
 2269TIP3   OH2 6770   6.024   5.489   1.712
 2269TIP3    H1 6771   6.073   5.473   1.631
 2269TIP3    H2 6772   5.983   5.405   1.732
 2270TIP3   OH2 6773   0.598   4.572   5.937
 2270TIP3    H1 6774   0.565   4.552   6.025
 2270TIP3    H2 6775   0.520   4.567   5.881
 2271TIP3   OH2 6776   5.675   3.490   2.880
 2271TIP3    H1 6777   5.603   3.554   2.883
 2271TIP3    H2 6778   5.676   3.461   2.789
 2272TIP3   OH2 6779   0.393   6.657   5.202
 2272TIP3    H1 6780   0.456   6.711   5.250
 2272TIP3    H2 6781   0.431   6.645   5.115
 2273TIP3   OH2 6782   3.874   1.492   3.948
 2273TIP3    H1 6783   3.921   1.488   3.864
 2273TIP3    H2 6784   3.912   1.567   3.993
 2274TIP3   OH2 6785   3.757   0.945   0.028
 2274TIP3    H1 6786   3.845   0.983   0.033
 2274TIP3    H2 6787   3.771   0.851   0.041
 2275TIP3   OH2 6788   4.352   4.199   1.936
 2275TIP3    H1 6789   4.295   4.186   2.012
 2275TIP3    H2 6790   4.440   4.181   1.968
 2276TIP3   OH2 6791   6.572   4.316   3.684
 2276TIP3    H1 6792   6.578   4.233   3.731
 2276TIP3    H2 6793   6.560   4.381   3.752
 2277TIP3   OH2 6794   2.006   6.646   5.223
 2277TIP3    H1 6795   2.071   6.602   5.278
 2277TIP3    H2 6796   2.054   6.719   5.183
 2278TIP3   OH2 6797   3.922   3.070   3.144
 2278TIP3    H1 6798   3.935   3.073   3.050
 2278TIP3    H2 6799   3.935   3.160   3.174
 2279TIP3   OH2 6800   3.118   5.121   0.502
 2279TIP3    H1 6801   3.165   5.090   0.580
 2279TIP3    H2 6802   3.167   5.198   0.474
 2280TIP3   OH2 6803   3.948   1.162   4.460
 2280TIP3    H1 6804   3.892   1.239   4.460
 2280TIP3    H2 6805   3.992   1.163   4.545
 2281TIP3   OH2 6806   2.888   4.276   2.943
 2281TIP3    H1 6807   2.893   4.363   2.982
 2281TIP3    H2 6808   2.799   4.245   2.962
 2282TIP3   OH2 6809   5.432   2.418   1.853
 2282TIP3    H1 6810   5.504   2.422   1.791
 2282TIP3    H2 6811   5.382   2.341   1.828
 2283TIP3   OH2 6812   4.000   5.115   5.849
 2283TIP3    H1 6813   4.094   5.098   5.840
 2283TIP3    H2 6814   3.995   5.182   5.918
 2284TIP3   OH2 6815   6.193   5.520   5.597
 2284TIP3    H1 6816   6.282   5.512   5.632
 2284TIP3    H2 6817   6.142   5.556   5.669
 2285TIP3   OH2 6818   3.766   3.713   2.740
 2285TIP3    H1 6819   3.852   3.746   2.713
 2285TIP3    H2 6820   3.725   3.785   2.787
 2286TIP3   OH2 6821   2.470   3.037   2.826
 2286TIP3    H1 6822   2.457   3.129   2.802
 2286TIP3    H2 6823   2.432   2.988   2.754
 2287TIP3   OH2 6824   4.904   2.165   0.155
 2287TIP3    H1 6825   4.888   2.113   0.076
 2287TIP3    H2 6826   4.998   2.179   0.155
 2288TIP3   OH2 6827   3.947   0.209   0.344
 2288TIP3    H1 6828   3.871   0.239   0.394
 2288TIP3    H2 6829   3.942   0.114   0.346
 2289TIP3   OH2 6830   3.724   6.559   4.071
 2289TIP3    H1 6831   3.687   6.473   4.090
 2289TIP3    H2 6832   3.793   6.543   4.007
 2290TIP3   OH2 6833   6.287   4.775   2.463
 2290TIP3    H1 6834   6.236   4.747   2.539
 2290TIP3    H2 6835   6.222   4.815   2.404
 2291TIP3   OH2 6836   2.318   0.860   5.027
 2291TIP3    H1 6837   2.395   0.814   5.062
 2291TIP3    H2 6838   2.302   0.930   5.089
 2292TIP3   OH2 6839   3.706   1.037   3.652
 2292TIP3    H1 6840   3.624   1.019   3.698
 2292TIP3    H2 6841   3.740   0.951   3.628
 2293TIP3   OH2 6842   3.115   5.804   3.996
 2293TIP3    H1 6843   3.155   5.835   4.078
 2293TIP3    H2 6844   3.163   5.724   3.975
 2294TIP3   OH2 6845   3.527   3.877   0.685
 2294TIP3    H1 6846   3.614   3.840   0.667
 2294TIP3    H2 6847   3.466   3.819   0.638
 2295TIP3   OH2 6848   5.641   6.628   3.516
 2295TIP3    H1 6849   5.622   6.561   3.582
 2295TIP3    H2 6850   5.677   6.580   3.442
 2296TIP3   OH2 6851   2.488   2.045   0.928
 2296TIP3    H1 6852   2.494   1.956   0.963
 2296TIP3    H2 6853   2.412   2.083   0.972
 2297TIP3   OH2 6854   6.144   1.291   0.596
 2297TIP3    H1 6855   6.101   1.351   0.536
 2297TIP3    H2 6856   6.230   1.277   0.558
 2298TIP3   OH2 6857   7.249   5.372   0.805
 2298TIP3    H1 6858   7.175   5.311   0.808
 2298TIP3    H2 6859   7.326   5.315   0.806
 2299TIP3   OH2 6860   5.075   4.650   2.809
 2299TIP3    H1 6861   5.055   4.704   2.886
 2299TIP3    H2 6862   4.994   4.604   2.789
 2300TIP3   OH2 6863   2.515   5.579   3.501
 2300TIP3    H1 6864   2.592   5.633   3.518
 2300TIP3    H2 6865   2.524   5.554   3.409
 2301TIP3   OH2 6866   2.635   5.238   0.645
 2301TIP3    H1 6867   2.552   5.190   0.648
 2301TIP3    H2 6868   2.696   5.176   0.604
 2302TIP3   OH2 6869   3.303   5.628   3.974
 2302TIP3    H1 6870   3.348   5.588   4.048
 2302TIP3    H2 6871   3.368   5.685   3.935
 2303TIP3   OH2 6872   5.878   2.393   5.219
 2303TIP3    H1 6873   5.922   2.445   5.152
 2303TIP3    H2 6874   5.791   2.375   5.182
 2304TIP3   OH2 6875   3.467   4.751   1.967
 2304TIP3    H1 6876   3.549   4.751   1.917
 2304TIP3    H2 6877   3.472   4.830   2.020
 2305TIP3   OH2 6878   0.378   2.964   5.842
 2305TIP3    H1 6879   0.364   2.895   5.906
 2305TIP3    H2 6880   0.441   2.927   5.780
 2306TIP3   OH2 6881   7.124   5.453   2.083
 2306TIP3    H1 6882   7.042   5.420   2.045
 2306TIP3    H2 6883   7.193   5.402   2.040
 2307TIP3   OH2 6884   4.735   2.768   5.866
 2307TIP3    H1 6885   4.651   2.806   5.890
 2307TIP3    H2 6886   4.798   2.809   5.926
 2308TIP3   OH2 6887   5.624   6.384   1.934
 2308TIP3    H1 6888   5.704   6.371   1.883
 2308TIP3    H2 6889   5.653   6.425   2.015
 2309TIP3   OH2 6890   5.887   5.155   1.281
 2309TIP3    H1 6891   5.805   5.127   1.239
 2309TIP3    H2 6892   5.883   5.250   1.281
 2310TIP3   OH2 6893   6.244   4.981   0.081
 2310TIP3    H1 6894   6.200   4.896   0.076
 2310TIP3    H2 6895   6.197   5.037   0.020
 2311TIP3   OH2 6896   5.141   6.599   2.109
 2311TIP3    H1 6897   5.094   6.595   2.192
 2311TIP3    H2 6898   5.232   6.619   2.134
 2312TIP3   OH2 6899   3.542   6.116   0.055
 2312TIP3    H1 6900   3.493   6.197   0.064
 2312TIP3    H2 6901   3.531   6.071   0.139
 2313TIP3   OH2 6902   6.471   4.412   2.704
 2313TIP3    H1 6903   6.431   4.452   2.781
 2313TIP3    H2 6904   6.474   4.483   2.639
 2314TIP3   OH2 6905   0.411   4.852   0.804
 2314TIP3    H1 6906   0.405   4.940   0.843
 2314TIP3    H2 6907   0.479   4.808   0.854
 2315TIP3   OH2 6908   0.240   5.201   0.837
 2315TIP3    H1 6909   0.328   5.172   0.811
 2315TIP3    H2 6910   0.181   5.157   0.775
 2316TIP3   OH2 6911   3.501   5.058   1.785
 2316TIP3    H1 6912   3.438   5.003   1.739
 2316TIP3    H2 6913   3.538   5.114   1.717
 2317TIP3   OH2 6914   6.853   2.912   3.044
 2317TIP3    H1 6915   6.829   2.845   2.980
 2317TIP3    H2 6916   6.769   2.947   3.074
 2318TIP3   OH2 6917   2.007   6.511   2.443
 2318TIP3    H1 6918   2.050   6.552   2.518
 2318TIP3    H2 6919   2.075   6.458   2.402
 2319TIP3   OH2 6920   6.279   1.676   1.260
 2319TIP3    H1 6921   6.342   1.642   1.198
 2319TIP3    H2 6922   6.332   1.708   1.334
 2320TIP3   OH2 6923   1.543   0.847   1.523
 2320TIP3    H1 6924   1.581   0.861   1.437
 2320TIP3    H2 6925   1.467   0.906   1.526
 2321TIP3   OH2 6926   6.001   5.902   4.888
 2321TIP3    H1 6927   6.092   5.885   4.912
 2321TIP3    H2 6928   5.998   5.890   4.793
 2322TIP3   OH2 6929   6.599   2.565   3.777
 2322TIP3    H1 6930   6.579   2.638   3.719
 2322TIP3    H2 6931   6.571   2.487   3.729
 2323TIP3   OH2 6932   1.489   5.232   3.667
 2323TIP3    H1 6933   1.407   5.184   3.656
 2323TIP3    H2 6934   1.475   5.286   3.745
 2324TIP3   OH2 6935   7.181   1.023   2.591
 2324TIP3    H1 6936   7.108   1.083   2.611
 2324TIP3    H2 6937   7.138   0.941   2.567
 2325TIP3   OH2 6938   3.387   5.913   1.585
 2325TIP3    H1 6939   3.448   5.857   1.634
 2325TIP3    H2 6940   3.304   5.866   1.590
 2326TIP3   OH2 6941   3.917   0.255   3.032
 2326TIP3    H1 6942   3.826   0.237   3.057
 2326TIP3    H2 6943   3.936   0.341   3.071
 2327TIP3   OH2 6944   6.745   2.792   1.260
 2327TIP3    H1 6945   6.705   2.789   1.174
 2327TIP3    H2 6946   6.702   2.864   1.305
 2328TIP3   OH2 6947   1.200   0.266   3.985
 2328TIP3    H1 6948   1.178   0.262   4.078
 2328TIP3    H2 6949   1.176   0.179   3.951
 2329TIP3   OH2 6950   1.625   1.540   1.713
 2329TIP3    H1 6951   1.663   1.593   1.783
 2329TIP3    H2 6952   1.538   1.517   1.746
 2330TIP3   OH2 6953   1.883   0.403   2.007
 2330TIP3    H1 6954   1.818   0.333   2.012
 2330TIP3    H2 6955   1.832   0.483   1.992
 2331TIP3   OH2 6956   3.364   1.454   5.708
 2331TIP3    H1 6957   3.458   1.466   5.697
 2331TIP3    H2 6958   3.329   1.544   5.712
 2332TIP3   OH2 6959   4.100   5.577   1.736
 2332TIP3    H1 6960   4.064   5.656   1.775
 2332TIP3    H2 6961   4.195   5.584   1.748
 2333TIP3   OH2 6962   2.028   2.236   2.807
 2333TIP3    H1 6963   1.982   2.167   2.759
 2333TIP3    H2 6964   1.979   2.316   2.787
 2334TIP3   OH2 6965   1.531   2.123   5.269
 2334TIP3    H1 6966   1.468   2.055   5.294
 2334TIP3    H2 6967   1.486   2.205   5.290
 2335TIP3   OH2 6968   3.537   6.115   1.835
 2335TIP3    H1 6969   3.568   6.106   1.925
 2335TIP3    H2 6970   3.616   6.134   1.785
 2336TIP3   OH2 6971   3.483   5.603   1.810
 2336TIP3    H1 6972   3.471   5.609   1.715
 2336TIP3    H2 6973   3.535   5.523   1.823
 2337TIP3   OH2 6974   7.039   4.211   4.818
 2337TIP3    H1 6975   7.123   4.178   4.849
 2337TIP3    H2 6976   7.059   4.254   4.735
 2338TIP3   OH2 6977   0.820   4.468   2.326
 2338TIP3    H1 6978   0.888   4.423   2.377
 2338TIP3    H2 6979   0.739   4.448   2.372
 2339TIP3   OH2 6980   1.912   1.915   2.200
 2339TIP3    H1 6981   1.995   1.937   2.157
 2339TIP3    H2 6982   1.896   1.989   2.259
 2340TIP3   OH2 6983   3.102   1.993   1.334
 2340TIP3    H1 6984   3.145   2.056   1.276
 2340TIP3    H2 6985   3.011   2.020   1.335
 2341TIP3   OH2 6986   0.071   2.306   0.337
 2341TIP3    H1 6987  -0.011   2.350   0.317
 2341TIP3    H2 6988   0.138   2.357   0.291
 2342TIP3   OH2 6989   2.157   0.080   4.126
 2342TIP3    H1 6990   2.104   0.007   4.094
 2342TIP3    H2 6991   2.210   0.042   4.196
 2343TIP3   OH2 6992   4.496   1.595   2.107
 2343TIP3    H1 6993   4.408   1.584   2.072
 2343TIP3    H2 6994   4.524   1.681   2.077
 2344TIP3   OH2 6995   2.890   4.035   1.707
 2344TIP3    H1 6996   2.922   4.104   1.649
 2344TIP3    H2 6997   2.945   3.959   1.687
 2345TIP3   OH2 6998   1.356   0.511   2.370
 2345TIP3    H1 6999   1.271   0.535   2.406
 2345TIP3    H2 7000   1.347   0.420   2.343
 2346TIP3   OH2 7001   5.192   3.709   2.721
 2346TIP3    H1 7002   5.185   3.731   2.628
 2346TIP3    H2 7003   5.106   3.671   2.742
 2347TIP3   OH2 7004   4.375   5.673   1.763
 2347TIP3    H1 7005   4.409   5.730   1.832
 2347TIP3    H2 7006   4.402   5.585   1.790
 2348TIP3   OH2 7007   3.130   6.365   1.054
 2348TIP3    H1 7008   3.042   6.398   1.037
 2348TIP3    H2 7009   3.155   6.405   1.137
 2349TIP3   OH2 7010   5.786   3.846   2.317
 2349TIP3    H1 7011   5.711   3.859   2.259
 2349TIP3    H2 7012   5.793   3.928   2.367
 2350TIP3   OH2 7013   1.177   4.342   1.820
 2350TIP3    H1 7014   1.226   4.317   1.898
 2350TIP3    H2 7015   1.126   4.264   1.798
 2351TIP3   OH2 7016   4.845   0.512   1.420
 2351TIP3    H1 7017   4.929   0.559   1.425
 2351TIP3    H2 7018   4.789   0.569   1.368
 2352TIP3   OH2 7019   4.259   0.665   3.534
 2352TIP3    H1 7020   4.305   0.628   3.609
 2352TIP3    H2 7021   4.235   0.589   3.481
 2353TIP3   OH2 7022   6.453   4.770   4.865
 2353TIP3    H1 7023   6.539   4.807   4.845
 2353TIP3    H2 7024   6.418   4.742   4.781
 2354TIP3   OH2 7025   0.114   3.897   2.630
 2354TIP3    H1 7026   0.024   3.893   2.598
 2354TIP3    H2 7027   0.126   3.988   2.657
 2355TIP3   OH2 7028   6.990   3.235   4.244
 2355TIP3    H1 7029   6.970   3.282   4.325
 2355TIP3    H2 7030   7.075   3.268   4.218
 2356TIP3   OH2 7031   4.143   4.588   0.496
 2356TIP3    H1 7032   4.081   4.525   0.532
 2356TIP3    H2 7033   4.089   4.651   0.448
 2357TIP3   OH2 7034   3.037   5.297   1.160
 2357TIP3    H1 7035   3.006   5.341   1.240
 2357TIP3    H2 7036   2.971   5.230   1.143
 2358TIP3   OH2 7037   0.097   1.128   4.753
 2358TIP3    H1 7038   0.162   1.104   4.687
 2358TIP3    H2 7039   0.084   1.048   4.804
 2359TIP3   OH2 7040   3.988   0.720   3.607
 2359TIP3    H1 7041   3.969   0.662   3.681
 2359TIP3    H2 7042   4.081   0.706   3.589
 2360TIP3   OH2 7043   3.338   5.883   3.159
 2360TIP3    H1 7044   3.356   5.809   3.217
 2360TIP3    H2 7045   3.243   5.887   3.154
 2361TIP3   OH2 7046   6.919   4.651   2.418
 2361TIP3    H1 7047   6.901   4.745   2.419
 2361TIP3    H2 7048   6.844   4.611   2.463
 2362TIP3   OH2 7049   2.555   4.404   1.086
 2362TIP3    H1 7050   2.470   4.403   1.131
 2362TIP3    H2 7051   2.613   4.450   1.147
 2363TIP3   OH2 7052   2.108   4.771   1.969
 2363TIP3    H1 7053   2.177   4.706   1.980
 2363TIP3    H2 7054   2.064   4.745   1.888
 2364TIP3   OH2 7055   3.164   0.650   0.644
 2364TIP3    H1 7056   3.092   0.645   0.707
 2364TIP3    H2 7057   3.229   0.587   0.677
 2365TIP3   OH2 7058   5.887   3.271   0.371
 2365TIP3    H1 7059   5.870   3.263   0.465
 2365TIP3    H2 7060   5.979   3.297   0.366
 2366TIP3   OH2 7061   5.085   0.741   1.659
 2366TIP3    H1 7062   5.028   0.686   1.713
 2366TIP3    H2 7063   5.165   0.690   1.648
 2367TIP3   OH2 7064   2.483   5.410   5.089
 2367TIP3    H1 7065   2.567   5.407   5.136
 2367TIP3    H2 7066   2.425   5.353   5.139
 2368TIP3   OH2 7067   4.265   0.250   1.797
 2368TIP3    H1 7068   4.331   0.318   1.810
 2368TIP3    H2 7069   4.308   0.168   1.822
 2369TIP3   OH2 7070   5.495   1.623   5.313
 2369TIP3    H1 7071   5.497   1.543   5.365
 2369TIP3    H2 7072   5.514   1.694   5.374
 2370TIP3   OH2 7073   2.288   0.993   0.963
 2370TIP3    H1 7074   2.345   1.009   0.888
 2370TIP3    H2 7075   2.203   1.028   0.937
 2371TIP3   OH2 7076   4.389   6.753   0.142
 2371TIP3    H1 7077   4.429   6.744   0.229
 2371TIP3    H2 7078   4.460   6.732   0.081
 2372TIP3   OH2 7079   6.262   6.326   0.809
 2372TIP3    H1 7080   6.226   6.270   0.877
 2372TIP3    H2 7081   6.251   6.415   0.843
 2373TIP3   OH2 7082   4.062   2.113   1.709
 2373TIP3    H1 7083   3.996   2.182   1.717
 2373TIP3    H2 7084   4.137   2.145   1.759
 2374TIP3   OH2 7085   2.308   1.665   3.047
 2374TIP3    H1 7086   2.233   1.611   3.021
 2374TIP3    H2 7087   2.268   1.743   3.087
 2375TIP3   OH2 7088   2.333   3.106   4.382
 2375TIP3    H1 7089   2.352   3.096   4.289
 2375TIP3    H2 7090   2.418   3.113   4.424
 2376TIP3   OH2 7091   1.212   2.412   1.586
 2376TIP3    H1 7092   1.281   2.373   1.533
 2376TIP3    H2 7093   1.254   2.431   1.670
 2377TIP3   OH2 7094   6.018   4.007   0.332
 2377TIP3    H1 7095   5.947   3.965   0.381
 2377TIP3    H2 7096   6.045   4.080   0.387
 2378TIP3   OH2 7097   3.955   1.886   2.248
 2378TIP3    H1 7098   4.017   1.960   2.252
 2378TIP3    H2 7099   3.979   1.839   2.168
 2379TIP3   OH2 7100   4.012   1.304   4.732
 2379TIP3    H1 7101   4.084   1.319   4.672
 2379TIP3    H2 7102   3.997   1.388   4.775
 2380TIP3   OH2 7103   6.535   6.479   1.276
 2380TIP3    H1 7104   6.548   6.562   1.230
 2380TIP3    H2 7105   6.581   6.489   1.359
 2381TIP3   OH2 7106   0.782   4.264   5.195
 2381TIP3    H1 7107   0.851   4.330   5.185
 2381TIP3    H2 7108   0.821   4.184   5.159
 2382TIP3   OH2 7109   5.616   2.847   2.511
 2382TIP3    H1 7110   5.536   2.796   2.499
 2382TIP3    H2 7111   5.687   2.782   2.510
 2383TIP3   OH2 7112   5.000   2.254   3.537
 2383TIP3    H1 7113   4.917   2.243   3.491
 2383TIP3    H2 7114   5.027   2.344   3.517
 2384TIP3   OH2 7115   3.537   0.142   0.711
 2384TIP3    H1 7116   3.495   0.219   0.672
 2384TIP3    H2 7117   3.594   0.108   0.643
 2385TIP3   OH2 7118   5.264   1.082   1.501
 2385TIP3    H1 7119   5.333   1.147   1.512
 2385TIP3    H2 7120   5.233   1.094   1.411
 2386TIP3   OH2 7121   4.434   4.176   5.878
 2386TIP3    H1 7122   4.466   4.213   5.796
 2386TIP3    H2 7123   4.508   4.182   5.938
 2387TIP3   OH2 7124   6.708   1.809   5.426
 2387TIP3    H1 7125   6.689   1.883   5.368
 2387TIP3    H2 7126   6.700   1.732   5.370
 2388TIP3   OH2 7127   2.058   5.207   0.107
 2388TIP3    H1 7128   2.069   5.118   0.074
 2388TIP3    H2 7129   2.140   5.226   0.153
 2389TIP3   OH2 7130   1.785   5.762   1.483
 2389TIP3    H1 7131   1.732   5.696   1.528
 2389TIP3    H2 7132   1.754   5.760   1.393
 2390TIP3   OH2 7133   0.141   6.770   2.973
 2390TIP3    H1 7134   0.116   6.752   3.063
 2390TIP3    H2 7135   0.062   6.753   2.922
 2391TIP3   OH2 7136   3.460   6.125   5.276
 2391TIP3    H1 7137   3.550   6.142   5.250
 2391TIP3    H2 7138   3.467   6.090   5.365
 2392TIP3   OH2 7139   6.098   1.118   5.645
 2392TIP3    H1 7140   6.013   1.084   5.618
 2392TIP3    H2 7141   6.145   1.042   5.678
 2393TIP3   OH2 7142   5.871   5.533   2.109
 2393TIP3    H1 7143   5.897   5.568   2.024
 2393TIP3    H2 7144   5.895   5.601   2.172
 2394TIP3   OH2 7145   1.969   4.420   5.424
 2394TIP3    H1 7146   1.900   4.401   5.488
 2394TIP3    H2 7147   2.039   4.461   5.475
 2395TIP3   OH2 7148   1.724   2.852   0.335
 2395TIP3    H1 7149   1.784   2.823   0.265
 2395TIP3    H2 7150   1.773   2.837   0.416
 2396TIP3   OH2 7151   0.499   4.789   4.118
 2396TIP3    H1 7152   0.495   4.881   4.091
 2396TIP3    H2 7153   0.478   4.740   4.039
 2397TIP3   OH2 7154   5.860   4.573   1.447
 2397TIP3    H1 7155   5.926   4.524   1.398
 2397TIP3    H2 7156   5.837   4.517   1.520
 2398TIP3   OH2 7157   3.137   2.364   2.476
 2398TIP3    H1 7158   3.186   2.413   2.410
 2398TIP3    H2 7159   3.202   2.346   2.545
 2399TIP3   OH2 7160   1.055   4.804   1.668
 2399TIP3    H1 7161   1.041   4.711   1.685
 2399TIP3    H2 7162   1.000   4.849   1.732
 2400TIP3   OH2 7163   1.871   5.846   5.133
 2400TIP3    H1 7164   1.962   5.871   5.117
 2400TIP3    H2 7165   1.846   5.894   5.211
 2401TIP3   OH2 7166   6.092   5.676   2.700
 2401TIP3    H1 7167   6.135   5.757   2.728
 2401TIP3    H2 7168   6.009   5.675   2.748
 2402TIP3   OH2 7169   6.632   4.050   1.027
 2402TIP3    H1 7170   6.600   4.129   0.983
 2402TIP3    H2 7171   6.713   4.028   0.982
 2403TIP3   OH2 7172   1.290   0.088   4.232
 2403TIP3    H1 7173   1.266   0.030   4.304
 2403TIP3    H2 7174   1.240   0.168   4.247
 2404TIP3   OH2 7175   3.755   5.322   3.268
 2404TIP3    H1 7176   3.820   5.327   3.198
 2404TIP3    H2 7177   3.780   5.392   3.329
 2405TIP3   OH2 7178   5.486   4.648   5.240
 2405TIP3    H1 7179   5.546   4.637   5.314
 2405TIP3    H2 7180   5.542   4.646   5.163
 2406TIP3   OH2 7181   1.339   1.140   1.180
 2406TIP3    H1 7182   1.396   1.154   1.105
 2406TIP3    H2 7183   1.272   1.207   1.172
 2407TIP3   OH2 7184   5.369   0.031   0.629
 2407TIP3    H1 7185   5.388  -0.044   0.685
 2407TIP3    H2 7186   5.440   0.031   0.565
 2408TIP3   OH2 7187   5.432   6.270   3.180
 2408TIP3    H1 7188   5.467   6.266   3.268
 2408TIP3    H2 7189   5.448   6.359   3.151
 2409TIP3   OH2 7190   6.656   5.981   4.365
 2409TIP3    H1 7191   6.595   5.931   4.419
 2409TIP3    H2 7192   6.671   6.062   4.414
 2410TIP3   OH2 7193   4.418   4.741   1.444
 2410TIP3    H1 7194   4.402   4.699   1.528
 2410TIP3    H2 7195   4.474   4.816   1.465
 2411TIP3   OH2 7196   4.343   5.630   0.285
 2411TIP3    H1 7197   4.426   5.666   0.255
 2411TIP3    H2 7198   4.331   5.550   0.234
 2412TIP3   OH2 7199   5.515   6.104   4.056
 2412TIP3    H1 7200   5.449   6.075   3.994
 2412TIP3    H2 7201   5.465   6.138   4.131
 2413TIP3   OH2 7202   6.171   4.192   1.923
 2413TIP3    H1 7203   6.083   4.155   1.925
 2413TIP3    H2 7204   6.204   4.183   2.012
 2414TIP3   OH2 7205   4.267   2.409   3.328
 2414TIP3    H1 7206   4.237   2.486   3.280
 2414TIP3    H2 7207   4.332   2.368   3.271
 2415TIP3   OH2 7208   0.437   2.863   2.568
 2415TIP3    H1 7209   0.346   2.842   2.588
 2415TIP3    H2 7210   0.435   2.893   2.477
 2416TIP3   OH2 7211   0.492   5.084   2.208
 2416TIP3    H1 7212   0.515   5.095   2.301
 2416TIP3    H2 7213   0.411   5.033   2.210
 2417TIP3   OH2 7214   3.637   5.192   1.061
 2417TIP3    H1 7215   3.662   5.221   0.974
 2417TIP3    H2 7216   3.713   5.144   1.094
 2418TIP3   OH2 7217   6.621   0.261   3.327
 2418TIP3    H1 7218   6.674   0.293   3.254
 2418TIP3    H2 7219   6.674   0.279   3.404
 2419TIP3   OH2 7220   4.160   6.406   4.965
 2419TIP3    H1 7221   4.101   6.333   4.982
 2419TIP3    H2 7222   4.219   6.407   5.041
 2420TIP3   OH2 7223   4.844   1.104   5.331
 2420TIP3    H1 7224   4.922   1.072   5.287
 2420TIP3    H2 7225   4.873   1.125   5.420
 2421TIP3   OH2 7226   3.164   3.752   4.574
 2421TIP3    H1 7227   3.234   3.709   4.623
 2421TIP3    H2 7228   3.187   3.845   4.576
 2422TIP3   OH2 7229   2.728   0.552   3.693
 2422TIP3    H1 7230   2.718   0.516   3.605
 2422TIP3    H2 7231   2.786   0.627   3.682
 2423TIP3   OH2 7232   6.684   0.943   0.401
 2423TIP3    H1 7233   6.600   0.905   0.426
 2423TIP3    H2 7234   6.664   0.997   0.325
 2424TIP3   OH2 7235   5.583   2.282   2.319
 2424TIP3    H1 7236   5.649   2.346   2.289
 2424TIP3    H2 7237   5.561   2.311   2.407
 2425TIP3   OH2 7238   5.753   4.162   1.501
 2425TIP3    H1 7239   5.674   4.215   1.486
 2425TIP3    H2 7240   5.720   4.076   1.527
 2426TIP3   OH2 7241   3.448   0.589   2.298
 2426TIP3    H1 7242   3.502   0.666   2.280
 2426TIP3    H2 7243   3.474   0.561   2.386
 2427TIP3   OH2 7244   5.645   0.450   5.206
 2427TIP3    H1 7245   5.724   0.397   5.206
 2427TIP3    H2 7246   5.605   0.433   5.292
 2428TIP3   OH2 7247   2.037   1.323   0.097
 2428TIP3    H1 7248   1.989   1.406   0.091
 2428TIP3    H2 7249   2.103   1.338   0.165
 2429TIP3   OH2 7250   2.790   1.644   4.361
 2429TIP3    H1 7251   2.767   1.597   4.441
 2429TIP3    H2 7252   2.853   1.587   4.317
 2430TIP3   OH2 7253   3.771   5.421   4.755
 2430TIP3    H1 7254   3.761   5.512   4.783
 2430TIP3    H2 7255   3.833   5.383   4.817
 2431TIP3   OH2 7256   4.884   6.557   2.862
 2431TIP3    H1 7257   4.797   6.568   2.825
 2431TIP3    H2 7258   4.916   6.474   2.825
 2432TIP3   OH2 7259   0.997   3.269   3.793
 2432TIP3    H1 7260   0.944   3.343   3.763
 2432TIP3    H2 7261   1.054   3.306   3.861
 2433TIP3   OH2 7262   3.921   4.586   3.449
 2433TIP3    H1 7263   3.828   4.573   3.467
 2433TIP3    H2 7264   3.943   4.666   3.496
 2434TIP3   OH2 7265   0.761   6.347   3.084
 2434TIP3    H1 7266   0.706   6.335   3.007
 2434TIP3    H2 7267   0.824   6.414   3.059
 2435TIP3   OH2 7268   4.561   2.153   0.247
 2435TIP3    H1 7269   4.608   2.152   0.164
 2435TIP3    H2 7270   4.568   2.244   0.276
 2436TIP3   OH2 7271   1.460   2.964   5.550
 2436TIP3    H1 7272   1.381   2.958   5.497
 2436TIP3    H2 7273   1.491   2.873   5.556
 2437TIP3   OH2 7274   2.341   4.576   5.063
 2437TIP3    H1 7275   2.388   4.613   4.989
 2437TIP3    H2 7276   2.405   4.519   5.106
 2438TIP3   OH2 7277   2.362   5.712   1.516
 2438TIP3    H1 7278   2.299   5.655   1.472
 2438TIP3    H2 7279   2.417   5.745   1.445
 2439TIP3   OH2 7280   6.188   0.015   0.396
 2439TIP3    H1 7281   6.115   0.022   0.334
 2439TIP3    H2 7282   6.171  -0.067   0.443
 2440TIP3   OH2 7283   3.154   0.666   0.348
 2440TIP3    H1 7284   3.069   0.701   0.322
 2440TIP3    H2 7285   3.152   0.667   0.443
 2441TIP3   OH2 7286   5.405   6.745   0.506
 2441TIP3    H1 7287   5.454   6.818   0.470
 2441TIP3    H2 7288   5.458   6.714   0.579
 2442TIP3   OH2 7289   6.539   6.646   0.704
 2442TIP3    H1 7290   6.626   6.607   0.694
 2442TIP3    H2 7291   6.524   6.693   0.621
 2443TIP3   OH2 7292   0.695   0.145   3.682
 2443TIP3    H1 7293   0.690   0.068   3.739
 2443TIP3    H2 7294   0.691   0.109   3.593
 2444TIP3   OH2 7295   3.405   3.141   0.083
 2444TIP3    H1 7296   3.346   3.107   0.151
 2444TIP3    H2 7297   3.431   3.063   0.034
 2445TIP3   OH2 7298   5.924   5.635   4.980
 2445TIP3    H1 7299   5.985   5.593   4.920
 2445TIP3    H2 7300   5.942   5.728   4.971
 2446TIP3   OH2 7301   0.695   5.623   4.893
 2446TIP3    H1 7302   0.621   5.680   4.913
 2446TIP3    H2 7303   0.656   5.543   4.859
 2447TIP3   OH2 7304   5.316   3.600   1.445
 2447TIP3    H1 7305   5.221   3.598   1.435
 2447TIP3    H2 7306   5.346   3.515   1.414
 2448TIP3   OH2 7307   1.732   6.478   4.270
 2448TIP3    H1 7308   1.749   6.442   4.182
 2448TIP3    H2 7309   1.674   6.414   4.311
 2449TIP3   OH2 7310   0.155   3.727   3.780
 2449TIP3    H1 7311   0.205   3.721   3.699
 2449TIP3    H2 7312   0.180   3.811   3.817
 2450TIP3   OH2 7313   2.499   5.768   5.302
 2450TIP3    H1 7314   2.556   5.793   5.375
 2450TIP3    H2 7315   2.463   5.683   5.327
 2451TIP3   OH2 7316   4.382   5.158   3.736
 2451TIP3    H1 7317   4.360   5.065   3.744
 2451TIP3    H2 7318   4.357   5.196   3.820
 2452TIP3   OH2 7319   6.141   4.527   2.418
 2452TIP3    H1 7320   6.224   4.489   2.447
 2452TIP3    H2 7321   6.107   4.574   2.494
 2453TIP3   OH2 7322   0.474   1.600   1.446
 2453TIP3    H1 7323   0.479   1.690   1.416
 2453TIP3    H2 7324   0.407   1.601   1.515
 2454TIP3   OH2 7325   5.630   3.950   5.223
 2454TIP3    H1 7326   5.679   4.015   5.172
 2454TIP3    H2 7327   5.666   3.957   5.311
 2455TIP3   OH2 7328   2.956   3.915   5.177
 2455TIP3    H1 7329   2.874   3.898   5.222
 2455TIP3    H2 7330   2.932   3.915   5.084
 2456TIP3   OH2 7331   5.093   5.841   3.887
 2456TIP3    H1 7332   5.157   5.877   3.948
 2456TIP3    H2 7333   5.012   5.889   3.905
 2457TIP3   OH2 7334   1.379   3.498   5.045
 2457TIP3    H1 7335   1.335   3.419   5.012
 2457TIP3    H2 7336   1.428   3.532   4.970
 2458TIP3   OH2 7337   1.422   3.890   0.881
 2458TIP3    H1 7338   1.431   3.939   0.799
 2458TIP3    H2 7339   1.403   3.800   0.853
 2459TIP3   OH2 7340   1.704   3.961   2.071
 2459TIP3    H1 7341   1.726   4.015   1.996
 2459TIP3    H2 7342   1.649   3.891   2.034
 2460TIP3   OH2 7343   4.405   0.116   0.583
 2460TIP3    H1 7344   4.339   0.151   0.523
 2460TIP3    H2 7345   4.488   0.125   0.536
 2461TIP3   OH2 7346   6.053   2.869   5.042
 2461TIP3    H1 7347   5.993   2.834   4.976
 2461TIP3    H2 7348   6.085   2.792   5.089
 2462TIP3   OH2 7349   4.951   6.490   0.443
 2462TIP3    H1 7350   4.951   6.489   0.538
 2462TIP3    H2 7351   5.010   6.562   0.420
 2463TIP3   OH2 7352   1.514  -0.019   4.539
 2463TIP3    H1 7353   1.541   0.026   4.459
 2463TIP3    H2 7354   1.425  -0.049   4.521
 2464TIP3   OH2 7355   4.773   4.700   1.137
 2464TIP3    H1 7356   4.847   4.647   1.165
 2464TIP3    H2 7357   4.736   4.654   1.063
 2465TIP3   OH2 7358   1.227   3.088   4.450
 2465TIP3    H1 7359   1.203   3.150   4.382
 2465TIP3    H2 7360   1.317   3.112   4.474
 2466TIP3   OH2 7361   4.694   0.108   4.902
 2466TIP3    H1 7362   4.615   0.089   4.954
 2466TIP3    H2 7363   4.699   0.204   4.901
 2467TIP3   OH2 7364   3.866   2.239   5.746
 2467TIP3    H1 7365   3.947   2.266   5.702
 2467TIP3    H2 7366   3.858   2.146   5.725
 2468TIP3   OH2 7367   2.470   6.286   0.855
 2468TIP3    H1 7368   2.467   6.330   0.940
 2468TIP3    H2 7369   2.378   6.271   0.833
 2469TIP3   OH2 7370   1.083   6.507   1.477
 2469TIP3    H1 7371   1.065   6.597   1.450
 2469TIP3    H2 7372   0.997   6.470   1.497
 2470TIP3   OH2 7373   0.132   4.654   1.834
 2470TIP3    H1 7374   0.186   4.721   1.875
 2470TIP3    H2 7375   0.045   4.693   1.828
 2471TIP3   OH2 7376   6.170   4.124   4.219
 2471TIP3    H1 7377   6.192   4.032   4.233
 2471TIP3    H2 7378   6.218   4.149   4.140
 2472TIP3   OH2 7379   2.956   3.001   1.730
 2472TIP3    H1 7380   2.957   3.095   1.711
 2472TIP3    H2 7381   2.880   2.990   1.788
 2473TIP3   OH2 7382   1.635   1.394   0.015
 2473TIP3    H1 7383   1.561   1.402   0.075
 2473TIP3    H2 7384   1.603   1.431  -0.067
 2474TIP3   OH2 7385   5.678   2.821   3.104
 2474TIP3    H1 7386   5.618   2.815   3.029
 2474TIP3    H2 7387   5.623   2.801   3.180
 2475TIP3   OH2 7388   4.403   2.035   1.201
 2475TIP3    H1 7389   4.440   1.972   1.264
 2475TIP3    H2 7390   4.360   2.101   1.256
 2476TIP3   OH2 7391   5.754   4.308   3.966
 2476TIP3    H1 7392   5.679   4.292   4.024
 2476TIP3    H2 7393   5.827   4.325   4.026
 2477TIP3   OH2 7394   4.233   4.887   5.227
 2477TIP3    H1 7395   4.238   4.884   5.322
 2477TIP3    H2 7396   4.156   4.835   5.205
 2478TIP3   OH2 7397   5.793   2.792   4.964
 2478TIP3    H1 7398   5.816   2.764   5.053
 2478TIP3    H2 7399   5.725   2.858   4.976
 2479TIP3   OH2 7400   1.533   3.173   2.238
 2479TIP3    H1 7401   1.510   3.090   2.280
 2479TIP3    H2 7402   1.591   3.149   2.166
 2480TIP3   OH2 7403   0.260   0.325   1.863
 2480TIP3    H1 7404   0.288   0.408   1.825
 2480TIP3    H2 7405   0.286   0.260   1.798
 2481TIP3   OH2 7406   5.601   4.555   3.764
 2481TIP3    H1 7407   5.583   4.510   3.681
 2481TIP3    H2 7408   5.530   4.525   3.822
 2482TIP3   OH2 7409   0.289   1.064   3.277
 2482TIP3    H1 7410   0.308   1.107   3.361
 2482TIP3    H2 7411   0.292   0.970   3.297
 2483TIP3   OH2 7412   1.336   2.136   0.556
 2483TIP3    H1 7413   1.366   2.054   0.595
 2483TIP3    H2 7414   1.241   2.131   0.559
 2484TIP3   OH2 7415   3.104   1.110   1.183
 2484TIP3    H1 7416   3.183   1.075   1.222
 2484TIP3    H2 7417   3.042   1.038   1.185
 2485TIP3   OH2 7418   3.697   5.781   1.592
 2485TIP3    H1 7419   3.706   5.689   1.568
 2485TIP3    H2 7420   3.719   5.829   1.512
 2486TIP3   OH2 7421   6.409   1.749   0.946
 2486TIP3    H1 7422   6.462   1.702   1.011
 2486TIP3    H2 7423   6.445   1.838   0.947
 2487TIP3   OH2 7424   1.038   2.403   3.260
 2487TIP3    H1 7425   0.982   2.470   3.299
 2487TIP3    H2 7426   1.049   2.338   3.330
 2488TIP3   OH2 7427   6.996   0.935   4.189
 2488TIP3    H1 7428   6.935   1.009   4.183
 2488TIP3    H2 7429   7.077   0.974   4.221
 2489TIP3   OH2 7430   2.690   0.161   4.345
 2489TIP3    H1 7431   2.597   0.182   4.355
 2489TIP3    H2 7432   2.696   0.068   4.366
 2490TIP3   OH2 7433   1.686   4.245   4.366
 2490TIP3    H1 7434   1.750   4.310   4.336
 2490TIP3    H2 7435   1.610   4.296   4.393
 2491TIP3   OH2 7436   4.013   4.315   0.255
 2491TIP3    H1 7437   4.025   4.343   0.346
 2491TIP3    H2 7438   3.941   4.370   0.223
 2492TIP3   OH2 7439   5.768   4.310   4.436
 2492TIP3    H1 7440   5.813   4.251   4.375
 2492TIP3    H2 7441   5.834   4.375   4.461
 2493TIP3   OH2 7442   0.710   3.956   0.392
 2493TIP3    H1 7443   0.696   3.957   0.486
 2493TIP3    H2 7444   0.775   4.025   0.376
 2494TIP3   OH2 7445   1.199   3.891   0.498
 2494TIP3    H1 7446   1.182   3.800   0.477
 2494TIP3    H2 7447   1.127   3.940   0.458
 2495TIP3   OH2 7448   3.554   1.858   2.339
 2495TIP3    H1 7449   3.481   1.801   2.313
 2495TIP3    H2 7450   3.591   1.888   2.256
 2496TIP3   OH2 7451   5.880   4.397   3.398
 2496TIP3    H1 7452   5.909   4.421   3.310
 2496TIP3    H2 7453   5.787   4.375   3.388
 2497TIP3   OH2 7454   4.289   6.256   3.523
 2497TIP3    H1 7455   4.216   6.281   3.465
 2497TIP3    H2 7456   4.363   6.308   3.492
 2498TIP3   OH2 7457   1.419   6.345   4.657
 2498TIP3    H1 7458   1.348   6.392   4.702
 2498TIP3    H2 7459   1.374   6.283   4.600
 2499TIP3   OH2 7460   0.432   2.396   1.770
 2499TIP3    H1 7461   0.484   2.476   1.782
 2499TIP3    H2 7462   0.488   2.326   1.803
 2500TIP3   OH2 7463   0.267   0.940   0.751
 2500TIP3    H1 7464   0.175   0.955   0.774
 2500TIP3    H2 7465   0.314   1.011   0.795
 2501TIP3   OH2 7466   4.237   3.191   4.757
 2501TIP3    H1 7467   4.214   3.222   4.669
 2501TIP3    H2 7468   4.305   3.126   4.743
 2502TIP3   OH2 7469   5.391   3.433   2.135
 2502TIP3    H1 7470   5.397   3.432   2.040
 2502TIP3    H2 7471   5.471   3.392   2.166
 2503TIP3   OH2 7472   4.912   0.872   4.159
 2503TIP3    H1 7473   4.987   0.919   4.196
 2503TIP3    H2 7474   4.907   0.791   4.209
 2504TIP3   OH2 7475   3.962   4.924   0.916
 2504TIP3    H1 7476   3.973   4.831   0.900
 2504TIP3    H2 7477   4.017   4.967   0.850
 2505TIP3   OH2 7478   7.118   4.446   1.945
 2505TIP3    H1 7479   7.060   4.425   2.019
 2505TIP3    H2 7480   7.132   4.541   1.953
 2506TIP3   OH2 7481   5.966   6.349   2.011
 2506TIP3    H1 7482   5.972   6.429   1.960
 2506TIP3    H2 7483   6.006   6.371   2.095
 2507TIP3   OH2 7484   5.824   3.069   1.792
 2507TIP3    H1 7485   5.907   3.113   1.777
 2507TIP3    H2 7486   5.759   3.123   1.746
 2508TIP3   OH2 7487   3.491   0.194   0.415
 2508TIP3    H1 7488   3.451   0.280   0.432
 2508TIP3    H2 7489   3.512   0.195   0.322
 2509TIP3   OH2 7490   6.998   2.193   4.241
 2509TIP3    H1 7491   6.934   2.241   4.293
 2509TIP3    H2 7492   6.945   2.140   4.181
 2510TIP3   OH2 7493   6.040   0.586   4.805
 2510TIP3    H1 7494   6.034   0.613   4.713
 2510TIP3    H2 7495   5.949   0.575   4.832
 2511TIP3   OH2 7496   2.656   6.079   1.648
 2511TIP3    H1 7497   2.678   5.999   1.599
 2511TIP3    H2 7498   2.703   6.149   1.601
 2512TIP3   OH2 7499   1.630   1.803   5.060
 2512TIP3    H1 7500   1.630   1.891   5.023
 2512TIP3    H2 7501   1.701   1.804   5.124
 2513TIP3   OH2 7502   1.524   5.222   0.182
 2513TIP3    H1 7503   1.450   5.280   0.164
 2513TIP3    H2 7504   1.601   5.271   0.153
 2514TIP3   OH2 7505   3.872   2.458   5.195
 2514TIP3    H1 7506   3.854   2.463   5.289
 2514TIP3    H2 7507   3.814   2.524   5.156
 2515TIP3   OH2 7508   5.294   6.328   1.449
 2515TIP3    H1 7509   5.250   6.410   1.470
 2515TIP3    H2 7510   5.317   6.336   1.356
 2516TIP3   OH2 7511   6.646   6.016   4.712
 2516TIP3    H1 7512   6.710   6.074   4.753
 2516TIP3    H2 7513   6.561   6.059   4.729
 2517TIP3   OH2 7514   3.774   4.528   0.251
 2517TIP3    H1 7515   3.793   4.578   0.331
 2517TIP3    H2 7516   3.713   4.460   0.279
 2518TIP3   OH2 7517   3.784   0.352   0.533
 2518TIP3    H1 7518   3.844   0.403   0.588
 2518TIP3    H2 7519   3.698   0.392   0.549
 2519TIP3   OH2 7520   5.022   0.205   4.755
 2519TIP3    H1 7521   5.072   0.129   4.785
 2519TIP3    H2 7522   5.017   0.194   4.660
 2520TIP3   OH2 7523   1.974   4.890   5.551
 2520TIP3    H1 7524   2.019   4.916   5.631
 2520TIP3    H2 7525   2.002   4.955   5.486
 2521TIP3   OH2 7526   2.362   5.325   2.854
 2521TIP3    H1 7527   2.446   5.372   2.850
 2521TIP3    H2 7528   2.307   5.369   2.790
 2522TIP3   OH2 7529   1.034   0.468   1.955
 2522TIP3    H1 7530   1.099   0.529   1.993
 2522TIP3    H2 7531   1.041   0.481   1.861
 2523TIP3   OH2 7532   0.125   0.628   4.629
 2523TIP3    H1 7533   0.190   0.576   4.580
 2523TIP3    H2 7534   0.068   0.665   4.561
 2524TIP3   OH2 7535   4.673   4.994   2.023
 2524TIP3    H1 7536   4.666   4.906   1.986
 2524TIP3    H2 7537   4.760   4.997   2.062
 2525TIP3   OH2 7538   2.945   5.472   0.318
 2525TIP3    H1 7539   2.968   5.380   0.308
 2525TIP3    H2 7540   2.855   5.471   0.350
 2526TIP3   OH2 7541   1.621   2.550   3.360
 2526TIP3    H1 7542   1.583   2.488   3.299
 2526TIP3    H2 7543   1.560   2.550   3.434
 2527TIP3   OH2 7544   1.710   1.158   5.441
 2527TIP3    H1 7545   1.704   1.072   5.483
 2527TIP3    H2 7546   1.620   1.181   5.421
 2528TIP3   OH2 7547   4.593   2.458   3.844
 2528TIP3    H1 7548   4.502   2.434   3.864
 2528TIP3    H2 7549   4.645   2.406   3.904
 2529TIP3   OH2 7550   2.225   6.669   2.847
 2529TIP3    H1 7551   2.141   6.623   2.846
 2529TIP3    H2 7552   2.273   6.628   2.919
 2530TIP3   OH2 7553   0.548   2.159   4.173
 2530TIP3    H1 7554   0.533   2.242   4.218
 2530TIP3    H2 7555   0.471   2.149   4.116
 2531TIP3   OH2 7556   3.757   0.478   1.564
 2531TIP3    H1 7557   3.817   0.409   1.591
 2531TIP3    H2 7558   3.718   0.510   1.646
 2532TIP3   OH2 7559   4.020   6.726   5.578
 2532TIP3    H1 7560   4.002   6.781   5.501
 2532TIP3    H2 7561   3.983   6.641   5.555
 2533TIP3   OH2 7562   4.038   3.008   0.850
 2533TIP3    H1 7563   4.035   2.948   0.776
 2533TIP3    H2 7564   3.966   2.981   0.906
 2534TIP3   OH2 7565  -0.023   1.393   3.213
 2534TIP3    H1 7566   0.021   1.364   3.133
 2534TIP3    H2 7567  -0.017   1.488   3.211
 2535TIP3   OH2 7568   1.303   5.245   3.266
 2535TIP3    H1 7569   1.331   5.156   3.248
 2535TIP3    H2 7570   1.369   5.300   3.224
 2536TIP3   OH2 7571   6.987   4.207   2.347
 2536TIP3    H1 7572   6.935   4.127   2.348
 2536TIP3    H2 7573   7.078   4.177   2.339
 2537TIP3   OH2 7574   5.383   3.753   5.905
 2537TIP3    H1 7575   5.380   3.785   5.815
 2537TIP3    H2 7576   5.465   3.704   5.911
 2538TIP3   OH2 7577   6.571   2.548   0.712
 2538TIP3    H1 7578   6.633   2.476   0.711
 2538TIP3    H2 7579   6.502   2.523   0.650
 2539TIP3   OH2 7580   3.410   3.652   3.789
 2539TIP3    H1 7581   3.388   3.604   3.709
 2539TIP3    H2 7582   3.336   3.634   3.847
 2540TIP3   OH2 7583   6.227   3.123   1.857
 2540TIP3    H1 7584   6.176   3.042   1.867
 2540TIP3    H2 7585   6.288   3.122   1.931
 2541TIP3   OH2 7586   2.402   2.204   4.302
 2541TIP3    H1 7587   2.454   2.173   4.376
 2541TIP3    H2 7588   2.377   2.293   4.325
 2542TIP3   OH2 7589   1.522   2.872   4.082
 2542TIP3    H1 7590   1.442   2.912   4.047
 2542TIP3    H2 7591   1.508   2.778   4.072
 2543TIP3   OH2 7592   2.713   6.745   4.795
 2543TIP3    H1 7593   2.741   6.656   4.775
 2543TIP3    H2 7594   2.636   6.733   4.851
 2544TIP3   OH2 7595   4.693   1.564   2.353
 2544TIP3    H1 7596   4.645   1.593   2.276
 2544TIP3    H2 7597   4.683   1.636   2.416
 2545TIP3   OH2 7598   1.275   3.679   3.493
 2545TIP3    H1 7599   1.325   3.603   3.464
 2545TIP3    H2 7600   1.195   3.677   3.440
 2546TIP3   OH2 7601   1.092   6.723   5.487
 2546TIP3    H1 7602   1.019   6.778   5.515
 2546TIP3    H2 7603   1.051   6.641   5.460
 2547TIP3   OH2 7604   1.774   5.570   0.278
 2547TIP3    H1 7605   1.859   5.612   0.293
 2547TIP3    H2 7606   1.781   5.534   0.190
 2548TIP3   OH2 7607   1.101   5.575   4.785
 2548TIP3    H1 7608   1.164   5.538   4.723
 2548TIP3    H2 7609   1.037   5.620   4.730
 2549TIP3   OH2 7610   1.033   3.273   0.086
 2549TIP3    H1 7611   1.090   3.328   0.032
 2549TIP3    H2 7612   1.067   3.185   0.075
 2550TIP3   OH2 7613   1.293   4.681   2.179
 2550TIP3    H1 7614   1.210   4.682   2.227
 2550TIP3    H2 7615   1.360   4.700   2.244
 2551TIP3   OH2 7616   6.132   6.505   2.639
 2551TIP3    H1 7617   6.221   6.526   2.668
 2551TIP3    H2 7618   6.131   6.409   2.632
 2552TIP3   OH2 7619   0.951   1.870   4.175
 2552TIP3    H1 7620   0.882   1.927   4.210
 2552TIP3    H2 7621   0.955   1.892   4.082
 2553TIP3   OH2 7622   6.065   3.677   2.097
 2553TIP3    H1 7623   6.072   3.694   2.191
 2553TIP3    H2 7624   5.989   3.729   2.069
 2554TIP3   OH2 7625   2.873   6.501   1.132
 2554TIP3    H1 7626   2.780   6.506   1.108
 2554TIP3    H2 7627   2.886   6.412   1.163
 2555TIP3   OH2 7628   0.965   4.578   1.252
 2555TIP3    H1 7629   1.046   4.546   1.292
 2555TIP3    H2 7630   0.944   4.658   1.300
 2556TIP3   OH2 7631   0.970   2.269   5.095
 2556TIP3    H1 7632   1.064   2.259   5.110
 2556TIP3    H2 7633   0.940   2.181   5.073
 2557TIP3   OH2 7634   6.985   0.015   3.855
 2557TIP3    H1 7635   6.898   0.044   3.884
 2557TIP3    H2 7636   7.045   0.081   3.890
 2558TIP3   OH2 7637   1.607   4.879   3.601
 2558TIP3    H1 7638   1.694   4.899   3.635
 2558TIP3    H2 7639   1.578   4.803   3.651
 2559TIP3   OH2 7640   7.208   6.111   1.544
 2559TIP3    H1 7641   7.210   6.153   1.458
 2559TIP3    H2 7642   7.261   6.031   1.533
 2560TIP3   OH2 7643   0.741   5.092   0.497
 2560TIP3    H1 7644   0.801   5.022   0.471
 2560TIP3    H2 7645   0.667   5.046   0.536
 2561TIP3   OH2 7646   6.239   6.571   5.179
 2561TIP3    H1 7647   6.177   6.516   5.132
 2561TIP3    H2 7648   6.291   6.614   5.111
 2562TIP3   OH2 7649   7.086   2.394   3.545
 2562TIP3    H1 7650   7.139   2.469   3.571
 2562TIP3    H2 7651   7.004   2.433   3.513
 2563TIP3   OH2 7652   1.734   5.131   3.784
 2563TIP3    H1 7653   1.756   5.216   3.823
 2563TIP3    H2 7654   1.653   5.147   3.736
 2564TIP3   OH2 7655   4.074   6.008   2.665
 2564TIP3    H1 7656   4.011   6.055   2.719
 2564TIP3    H2 7657   4.020   5.954   2.606
 2565TIP3   OH2 7658   3.784   5.887   0.484
 2565TIP3    H1 7659   3.752   5.964   0.532
 2565TIP3    H2 7660   3.760   5.905   0.393
 2566TIP3   OH2 7661   1.123   1.310   1.028
 2566TIP3    H1 7662   1.195   1.313   0.965
 2566TIP3    H2 7663   1.056   1.257   0.985
 2567TIP3   OH2 7664   4.034   6.448   5.498
 2567TIP3    H1 7665   3.953   6.402   5.521
 2567TIP3    H2 7666   4.092   6.433   5.572
 2568TIP3   OH2 7667   0.470   6.554   4.963
 2568TIP3    H1 7668   0.408   6.481   4.962
 2568TIP3    H2 7669   0.555   6.513   4.949
 2569TIP3   OH2 7670   6.562   1.633   0.437
 2569TIP3    H1 7671   6.479   1.586   0.446
 2569TIP3    H2 7672   6.547   1.696   0.367
 2570TIP3   OH2 7673   0.838   3.820   5.767
 2570TIP3    H1 7674   0.896   3.849   5.697
 2570TIP3    H2 7675   0.763   3.881   5.762
 2571TIP3   OH2 7676   2.631   2.986   3.984
 2571TIP3    H1 7677   2.708   2.940   4.017
 2571TIP3    H2 7678   2.656   3.015   3.896
 2572TIP3   OH2 7679   3.130   4.860   5.635
 2572TIP3    H1 7680   3.093   4.806   5.566
 2572TIP3    H2 7681   3.186   4.801   5.685
 2573TIP3   OH2 7682   5.855  -0.016   4.781
 2573TIP3    H1 7683   5.865   0.070   4.740
 2573TIP3    H2 7684   5.913  -0.013   4.857
 2574TIP3   OH2 7685   3.290   6.009   1.299
 2574TIP3    H1 7686   3.223   5.994   1.233
 2574TIP3    H2 7687   3.372   5.984   1.257
 2575TIP3   OH2 7688   5.375   1.468   5.696
 2575TIP3    H1 7689   5.461   1.480   5.737
 2575TIP3    H2 7690   5.395   1.462   5.602
 2576TIP3   OH2 7691   4.513   5.950   0.720
 2576TIP3    H1 7692   4.522   6.035   0.763
 2576TIP3    H2 7693   4.431   5.914   0.755
 2577TIP3   OH2 7694   4.907   0.636   3.985
 2577TIP3    H1 7695   4.869   0.559   4.026
 2577TIP3    H2 7696   4.862   0.710   4.026
 2578TIP3   OH2 7697   5.300   0.626   5.832
 2578TIP3    H1 7698   5.313   0.705   5.885
 2578TIP3    H2 7699   5.335   0.555   5.886
 2579TIP3   OH2 7700   2.134   3.590   5.340
 2579TIP3    H1 7701   2.141   3.612   5.433
 2579TIP3    H2 7702   2.154   3.497   5.336
 2580TIP3   OH2 7703   2.888   0.621   2.527
 2580TIP3    H1 7704   2.863   0.713   2.528
 2580TIP3    H2 7705   2.887   0.595   2.619
 2581TIP3   OH2 7706   1.510   2.240   1.764
 2581TIP3    H1 7707   1.477   2.258   1.676
 2581TIP3    H2 7708   1.530   2.327   1.799
 2582TIP3   OH2 7709   5.917   5.835   5.672
 2582TIP3    H1 7710   5.824   5.819   5.653
 2582TIP3    H2 7711   5.958   5.842   5.586
 2583TIP3   OH2 7712   2.155   5.789   0.130
 2583TIP3    H1 7713   2.232   5.783   0.073
 2583TIP3    H2 7714   2.181   5.849   0.200
 2584TIP3   OH2 7715   6.443   1.474   4.424
 2584TIP3    H1 7716   6.537   1.476   4.442
 2584TIP3    H2 7717   6.422   1.562   4.391
 2585TIP3   OH2 7718   6.818   4.060   3.028
 2585TIP3    H1 7719   6.876   4.001   3.077
 2585TIP3    H2 7720   6.836   4.147   3.065
 2586TIP3   OH2 7721   5.272   0.710   2.845
 2586TIP3    H1 7722   5.339   0.648   2.816
 2586TIP3    H2 7723   5.318   0.772   2.902
 2587TIP3   OH2 7724   3.468   6.841   0.355
 2587TIP3    H1 7725   3.440   6.851   0.264
 2587TIP3    H2 7726   3.407   6.777   0.392
 2588TIP3   OH2 7727   4.620   5.309   5.196
 2588TIP3    H1 7728   4.578   5.281   5.278
 2588TIP3    H2 7729   4.683   5.239   5.177
 2589TIP3   OH2 7730   1.046   4.499   2.522
 2589TIP3    H1 7731   1.093   4.557   2.582
 2589TIP3    H2 7732   1.096   4.417   2.524
 2590TIP3   OH2 7733   6.691   0.834   5.796
 2590TIP3    H1 7734   6.658   0.844   5.886
 2590TIP3    H2 7735   6.616   0.855   5.741
 2591TIP3   OH2 7736   2.749   2.417   2.625
 2591TIP3    H1 7737   2.655   2.410   2.637
 2591TIP3    H2 7738   2.761   2.499   2.577
 2592TIP3   OH2 7739   0.009   6.202   4.088
 2592TIP3    H1 7740  -0.069   6.240   4.129
 2592TIP3    H2 7741   0.080   6.260   4.116
 2593TIP3   OH2 7742   4.921   2.619   2.323
 2593TIP3    H1 7743   4.900   2.529   2.347
 2593TIP3    H2 7744   5.010   2.613   2.288
 2594TIP3   OH2 7745   2.548   0.699   5.666
 2594TIP3    H1 7746   2.591   0.638   5.726
 2594TIP3    H2 7747   2.569   0.786   5.701
 2595TIP3   OH2 7748   4.045   3.844   5.433
 2595TIP3    H1 7749   4.085   3.762   5.403
 2595TIP3    H2 7750   4.069   3.908   5.366
 2596TIP3   OH2 7751   0.377   2.062   0.626
 2596TIP3    H1 7752   0.392   2.156   0.632
 2596TIP3    H2 7753   0.446   2.029   0.568
 2597TIP3   OH2 7754   6.890   1.628   5.593
 2597TIP3    H1 7755   6.923   1.665   5.676
 2597TIP3    H2 7756   6.830   1.695   5.560
 2598TIP3   OH2 7757   4.283   3.533   3.849
 2598TIP3    H1 7758   4.331   3.614   3.829
 2598TIP3    H2 7759   4.246   3.506   3.765
 2599TIP3   OH2 7760   7.150   3.747   1.476
 2599TIP3    H1 7761   7.230   3.714   1.434
 2599TIP3    H2 7762   7.135   3.832   1.435
 2600TIP3   OH2 7763   1.181   6.725   1.728
 2600TIP3    H1 7764   1.271   6.696   1.742
 2600TIP3    H2 7765   1.127   6.650   1.754
 2601TIP3   OH2 7766   0.119   5.110   0.590
 2601TIP3    H1 7767   0.043   5.108   0.532
 2601TIP3    H2 7768   0.188   5.153   0.538
 2602TIP3   OH2 7769   0.883   2.937   3.494
 2602TIP3    H1 7770   0.958   2.893   3.455
 2602TIP3    H2 7771   0.838   2.977   3.420
 2603TIP3   OH2 7772   7.129   6.471   0.211
 2603TIP3    H1 7773   7.200   6.447   0.151
 2603TIP3    H2 7774   7.056   6.494   0.153
 2604TIP3   OH2 7775   5.519   5.017   2.210
 2604TIP3    H1 7776   5.598   5.068   2.192
 2604TIP3    H2 7777   5.538   4.930   2.175
 2605TIP3   OH2 7778   4.410   6.652   5.578
 2605TIP3    H1 7779   4.436   6.714   5.510
 2605TIP3    H2 7780   4.367   6.706   5.645
 2606TIP3   OH2 7781   5.924   0.204   3.288
 2606TIP3    H1 7782   5.984   0.278   3.300
 2606TIP3    H2 7783   5.844   0.243   3.253
 2607TIP3   OH2 7784   3.331   5.382   1.910
 2607TIP3    H1 7785   3.323   5.477   1.911
 2607TIP3    H2 7786   3.424   5.366   1.897
 2608TIP3   OH2 7787   3.328   2.836   0.450
 2608TIP3    H1 7788   3.330   2.766   0.515
 2608TIP3    H2 7789   3.297   2.794   0.370
 2609TIP3   OH2 7790   5.996   4.294   1.548
 2609TIP3    H1 7791   5.973   4.354   1.619
 2609TIP3    H2 7792   5.913   4.255   1.522
 2610TIP3   OH2 7793   3.144   0.753   4.473
 2610TIP3    H1 7794   3.111   0.676   4.519
 2610TIP3    H2 7795   3.197   0.718   4.402
 2611TIP3   OH2 7796   3.441   0.552   5.513
 2611TIP3    H1 7797   3.350   0.537   5.539
 2611TIP3    H2 7798   3.444   0.522   5.422
 2612TIP3   OH2 7799   7.203   3.668   3.385
 2612TIP3    H1 7800   7.149   3.744   3.407
 2612TIP3    H2 7801   7.228   3.682   3.293
 2613TIP3   OH2 7802   2.601   6.124   0.661
 2613TIP3    H1 7803   2.538   6.112   0.590
 2613TIP3    H2 7804   2.554   6.172   0.728
 2614TIP3   OH2 7805   1.054   1.664   2.068
 2614TIP3    H1 7806   1.005   1.725   2.123
 2614TIP3    H2 7807   1.026   1.577   2.098
 2615TIP3   OH2 7808   2.703   1.576   5.688
 2615TIP3    H1 7809   2.626   1.590   5.633
 2615TIP3    H2 7810   2.760   1.651   5.668
 2616TIP3   OH2 7811   5.745   0.495   2.352
 2616TIP3    H1 7812   5.771   0.473   2.441
 2616TIP3    H2 7813   5.650   0.505   2.356
 2617TIP3   OH2 7814   1.233   6.337   1.856
 2617TIP3    H1 7815   1.227   6.324   1.762
 2617TIP3    H2 7816   1.270   6.256   1.890
 2618TIP3   OH2 7817   3.882   2.267   2.407
 2618TIP3    H1 7818   3.812   2.264   2.341
 2618TIP3    H2 7819   3.870   2.187   2.458
 2619TIP3   OH2 7820   1.951   6.755   2.296
 2619TIP3    H1 7821   1.970   6.662   2.294
 2619TIP3    H2 7822   2.014   6.794   2.236
 2620TIP3   OH2 7823   6.674   1.216   1.880
 2620TIP3    H1 7824   6.687   1.127   1.914
 2620TIP3    H2 7825   6.762   1.254   1.878
 2621TIP3   OH2 7826   3.308   1.715   5.664
 2621TIP3    H1 7827   3.237   1.770   5.698
 2621TIP3    H2 7828   3.324   1.748   5.576
 2622TIP3   OH2 7829   6.890   4.154   1.659
 2622TIP3    H1 7830   6.923   4.166   1.570
 2622TIP3    H2 7831   6.842   4.071   1.655
 2623TIP3   OH2 7832   1.202   2.157   1.946
 2623TIP3    H1 7833   1.124   2.166   2.001
 2623TIP3    H2 7834   1.170   2.166   1.857
 2624TIP3   OH2 7835   1.454   0.828   4.516
 2624TIP3    H1 7836   1.542   0.792   4.529
 2624TIP3    H2 7837   1.410   0.764   4.460
 2625TIP3   OH2 7838   0.718   0.174   5.918
 2625TIP3    H1 7839   0.777   0.240   5.881
 2625TIP3    H2 7840   0.759   0.090   5.897
 2626TIP3   OH2 7841   2.903   3.491   2.612
 2626TIP3    H1 7842   2.958   3.429   2.658
 2626TIP3    H2 7843   2.912   3.468   2.520
 2627TIP3   OH2 7844   1.027   5.562   1.709
 2627TIP3    H1 7845   1.112   5.583   1.747
 2627TIP3    H2 7846   0.993   5.491   1.762
 2628TIP3   OH2 7847   1.607   0.652   2.815
 2628TIP3    H1 7848   1.519   0.691   2.822
 2628TIP3    H2 7849   1.590   0.558   2.806
 2629TIP3   OH2 7850   3.326   6.580   0.426
 2629TIP3    H1 7851   3.383   6.548   0.355
 2629TIP3    H2 7852   3.251   6.521   0.425
 2630TIP3   OH2 7853   5.574   6.343   1.531
 2630TIP3    H1 7854   5.564   6.250   1.551
 2630TIP3    H2 7855   5.499   6.385   1.572
 2631TIP3   OH2 7856   6.668   0.550   4.575
 2631TIP3    H1 7857   6.749   0.520   4.534
 2631TIP3    H2 7858   6.692   0.630   4.622
 2632TIP3   OH2 7859   6.054   4.981   3.135
 2632TIP3    H1 7860   6.009   4.970   3.051
 2632TIP3    H2 7861   6.050   4.895   3.176
 2633TIP3   OH2 7862   0.606   0.553   5.419
 2633TIP3    H1 7863   0.698   0.574   5.433
 2633TIP3    H2 7864   0.587   0.587   5.332
 2634TIP3   OH2 7865   1.668   3.068   0.496
 2634TIP3    H1 7866   1.696   3.015   0.422
 2634TIP3    H2 7867   1.743   3.126   0.512
 2635TIP3   OH2 7868   5.521   5.193   4.531
 2635TIP3    H1 7869   5.431   5.164   4.518
 2635TIP3    H2 7870   5.533   5.194   4.627
 2636TIP3   OH2 7871   5.820   0.542   4.625
 2636TIP3    H1 7872   5.834   0.517   4.533
 2636TIP3    H2 7873   5.806   0.459   4.670
 2637TIP3   OH2 7874   2.536   0.030   5.353
 2637TIP3    H1 7875   2.533   0.126   5.348
 2637TIP3    H2 7876   2.629   0.010   5.366
 2638TIP3   OH2 7877   2.853   3.590   0.157
 2638TIP3    H1 7878   2.945   3.598   0.130
 2638TIP3    H2 7879   2.839   3.496   0.164
 2639TIP3   OH2 7880   3.340   4.711   5.813
 2639TIP3    H1 7881   3.382   4.781   5.863
 2639TIP3    H2 7882   3.281   4.668   5.875
 2640TIP3   OH2 7883   5.318   1.404   3.541
 2640TIP3    H1 7884   5.393   1.392   3.599
 2640TIP3    H2 7885   5.335   1.344   3.468
 2641TIP3   OH2 7886   2.692   2.597   4.218
 2641TIP3    H1 7887   2.756   2.627   4.153
 2641TIP3    H2 7888   2.740   2.535   4.272
 2642TIP3   OH2 7889   2.664   0.140   0.571
 2642TIP3    H1 7890   2.746   0.183   0.594
 2642TIP3    H2 7891   2.600   0.211   0.563
 2643TIP3   OH2 7892   6.443   1.953   3.440
 2643TIP3    H1 7893   6.516   2.002   3.480
 2643TIP3    H2 7894   6.427   1.999   3.358
 2644TIP3   OH2 7895   7.052   5.996   1.265
 2644TIP3    H1 7896   7.034   5.960   1.178
 2644TIP3    H2 7897   7.054   6.091   1.253
 2645TIP3   OH2 7898   3.779   0.263   1.749
 2645TIP3    H1 7899   3.849   0.203   1.775
 2645TIP3    H2 7900   3.724   0.211   1.690
 2646TIP3   OH2 7901   6.092   2.937   0.644
 2646TIP3    H1 7902   6.156   3.009   0.641
 2646TIP3    H2 7903   6.145   2.858   0.639
 2647TIP3   OH2 7904   6.225   4.210   5.225
 2647TIP3    H1 7905   6.288   4.277   5.252
 2647TIP3    H2 7906   6.152   4.259   5.189
 2648TIP3   OH2 7907   4.590   2.299   3.377
 2648TIP3    H1 7908   4.648   2.224   3.365
 2648TIP3    H2 7909   4.544   2.308   3.294
 2649TIP3   OH2 7910   5.520   6.252   0.877
 2649TIP3    H1 7911   5.434   6.216   0.856
 2649TIP3    H2 7912   5.560   6.186   0.933
 2650TIP3   OH2 7913   4.742   3.937   0.302
 2650TIP3    H1 7914   4.781   3.849   0.306
 2650TIP3    H2 7915   4.781   3.983   0.376
 2651TIP3   OH2 7916   4.689   6.182   4.451
 2651TIP3    H1 7917   4.775   6.140   4.450
 2651TIP3    H2 7918   4.704   6.268   4.489
 2652TIP3   OH2 7919   4.909   4.596   2.172
 2652TIP3    H1 7920   4.977   4.616   2.108
 2652TIP3    H2 7921   4.920   4.502   2.190
 2653TIP3   OH2 7922   1.673   0.238   0.985
 2653TIP3    H1 7923   1.759   0.195   0.987
 2653TIP3    H2 7924   1.633   0.209   0.903
 2654TIP3   OH2 7925   4.890   6.645   2.283
 2654TIP3    H1 7926   4.799   6.674   2.289
 2654TIP3    H2 7927   4.885   6.549   2.284
 2655TIP3   OH2 7928   7.168   2.987   3.628
 2655TIP3    H1 7929   7.106   2.995   3.556
 2655TIP3    H2 7930   7.114   2.969   3.705
 2656TIP3   OH2 7931   5.264   6.112   0.836
 2656TIP3    H1 7932   5.237   6.105   0.928
 2656TIP3    H2 7933   5.265   6.022   0.804
 2657TIP3   OH2 7934   6.651   5.428   3.819
 2657TIP3    H1 7935   6.666   5.370   3.893
 2657TIP3    H2 7936   6.579   5.486   3.846
 2658TIP3   OH2 7937   5.585   3.234   1.117
 2658TIP3    H1 7938   5.541   3.310   1.079
 2658TIP3    H2 7939   5.612   3.262   1.204
 2659TIP3   OH2 7940   2.952   1.634   5.550
 2659TIP3    H1 7941   3.000   1.579   5.612
 2659TIP3    H2 7942   2.921   1.573   5.483
 2660TIP3   OH2 7943   3.742   1.291   4.790
 2660TIP3    H1 7944   3.826   1.273   4.749
 2660TIP3    H2 7945   3.751   1.256   4.879
 2661TIP3   OH2 7946   7.019   2.150   4.623
 2661TIP3    H1 7947   7.041   2.057   4.616
 2661TIP3    H2 7948   6.954   2.154   4.693
 2662TIP3   OH2 7949   5.520   3.130   2.074
 2662TIP3    H1 7950   5.427   3.146   2.056
 2662TIP3    H2 7951   5.546   3.064   2.010
 2663TIP3   OH2 7952   0.140   5.119   3.612
 2663TIP3    H1 7953   0.210   5.119   3.546
 2663TIP3    H2 7954   0.179   5.074   3.688
 2664TIP3   OH2 7955   0.557   0.370   4.086
 2664TIP3    H1 7956   0.632   0.402   4.036
 2664TIP3    H2 7957   0.524   0.296   4.035
 2665TIP3   OH2 7958   7.006   5.727   4.054
 2665TIP3    H1 7959   7.036   5.721   3.963
 2665TIP3    H2 7960   7.013   5.820   4.075
 2666TIP3   OH2 7961   5.211   0.647   5.570
 2666TIP3    H1 7962   5.224   0.647   5.665
 2666TIP3    H2 7963   5.160   0.727   5.553
 2667TIP3   OH2 7964   0.861   6.753   4.930
 2667TIP3    H1 7965   0.937   6.806   4.956
 2667TIP3    H2 7966   0.838   6.786   4.843
 2668TIP3   OH2 7967   2.945   1.140   5.250
 2668TIP3    H1 7968   2.992   1.208   5.203
 2668TIP3    H2 7969   3.002   1.064   5.248
 2669TIP3   OH2 7970   4.585   2.708   4.777
 2669TIP3    H1 7971   4.615   2.794   4.805
 2669TIP3    H2 7972   4.638   2.646   4.828
 2670TIP3   OH2 7973   1.044   1.844   2.978
 2670TIP3    H1 7974   0.996   1.837   3.060
 2670TIP3    H2 7975   0.979   1.827   2.910
 2671TIP3   OH2 7976   4.116   0.608   4.734
 2671TIP3    H1 7977   4.190   0.578   4.788
 2671TIP3    H2 7978   4.063   0.661   4.794
 2672TIP3   OH2 7979   1.378   1.025   2.283
 2672TIP3    H1 7980   1.457   1.079   2.291
 2672TIP3    H2 7981   1.390   0.977   2.201
 2673TIP3   OH2 7982   2.981   1.687   3.482
 2673TIP3    H1 7983   2.933   1.605   3.477
 2673TIP3    H2 7984   2.929   1.742   3.541
 2674TIP3   OH2 7985   3.618   1.317   3.280
 2674TIP3    H1 7986   3.653   1.288   3.196
 2674TIP3    H2 7987   3.524   1.323   3.266
 2675TIP3   OH2 7988   5.009   5.331   3.341
 2675TIP3    H1 7989   5.063   5.252   3.342
 2675TIP3    H2 7990   4.923   5.301   3.371
 2676TIP3   OH2 7991   1.714   1.705   2.199
 2676TIP3    H1 7992   1.778   1.754   2.249
 2676TIP3    H2 7993   1.734   1.726   2.108
 2677TIP3   OH2 7994   5.090   4.861   0.091
 2677TIP3    H1 7995   5.030   4.934   0.073
 2677TIP3    H2 7996   5.091   4.811   0.009
 2678TIP3   OH2 7997   3.694   0.442   2.899
 2678TIP3    H1 7998   3.756   0.507   2.865
 2678TIP3    H2 7999   3.717   0.433   2.992
 2679TIP3   OH2 8000   3.534   6.123   2.728
 2679TIP3    H1 8001   3.460   6.159   2.681
 2679TIP3    H2 8002   3.611   6.161   2.686
 2680TIP3   OH2 8003   4.967   6.127   4.412
 2680TIP3    H1 8004   5.010   6.072   4.346
 2680TIP3    H2 8005   5.030   6.134   4.483
 2681TIP3   OH2 8006   3.246   6.731   1.333
 2681TIP3    H1 8007   3.221   6.640   1.317
 2681TIP3    H2 8008   3.336   6.738   1.300
 2682TIP3   OH2 8009   6.440   5.925   2.697
 2682TIP3    H1 8010   6.405   5.967   2.776
 2682TIP3    H2 8011   6.535   5.935   2.704
 2683TIP3   OH2 8012   0.083   0.662   2.577
 2683TIP3    H1 8013   0.146   0.692   2.511
 2683TIP3    H2 8014   0.087   0.729   2.646
 2684TIP3   OH2 8015   5.785   3.856   4.895
 2684TIP3    H1 8016   5.812   3.795   4.963
 2684TIP3    H2 8017   5.865   3.873   4.845
 2685TIP3   OH2 8018   4.316   6.404   5.735
 2685TIP3    H1 8019   4.324   6.455   5.654
 2685TIP3    H2 8020   4.342   6.315   5.710
 2686TIP3   OH2 8021   1.175   3.909   5.315
 2686TIP3    H1 8022   1.196   3.992   5.273
 2686TIP3    H2 8023   1.079   3.907   5.319
 2687TIP3   OH2 8024   6.378   1.591   1.832
 2687TIP3    H1 8025   6.375   1.501   1.799
 2687TIP3    H2 8026   6.311   1.595   1.900
 2688TIP3   OH2 8027   6.382   4.287   3.486
 2688TIP3    H1 8028   6.443   4.305   3.557
 2688TIP3    H2 8029   6.298   4.273   3.530
 2689TIP3   OH2 8030   3.048   1.088   3.966
 2689TIP3    H1 8031   2.996   1.165   3.942
 2689TIP3    H2 8032   2.997   1.047   4.036
 2690TIP3   OH2 8033   6.874   4.024   0.032
 2690TIP3    H1 8034   6.809   4.076  -0.014
 2690TIP3    H2 8035   6.952   4.028  -0.024
 2691TIP3   OH2 8036   3.718   0.084   3.835
 2691TIP3    H1 8037   3.683   0.012   3.783
 2691TIP3    H2 8038   3.643   0.116   3.885
 2692TIP3   OH2 8039   1.373   5.321   1.369
 2692TIP3    H1 8040   1.351   5.353   1.456
 2692TIP3    H2 8041   1.465   5.347   1.356
 2693TIP3   OH2 8042   3.596   0.239   4.901
 2693TIP3    H1 8043   3.564   0.150   4.892
 2693TIP3    H2 8044   3.684   0.237   4.862
 2694TIP3   OH2 8045   4.714   5.611   3.334
 2694TIP3    H1 8046   4.761   5.682   3.291
 2694TIP3    H2 8047   4.665   5.654   3.404
 2695TIP3   OH2 8048   6.414   6.017   3.896
 2695TIP3    H1 8049   6.476   5.955   3.935
 2695TIP3    H2 8050   6.433   6.014   3.802
 2696TIP3   OH2 8051   5.482   0.040   0.965
 2696TIP3    H1 8052   5.443   0.010   1.047
 2696TIP3    H2 8053   5.496   0.134   0.978
 2697TIP3   OH2 8054   6.553   6.300   3.498
 2697TIP3    H1 8055   6.460   6.298   3.523
 2697TIP3    H2 8056   6.554   6.267   3.408
 2698TIP3   OH2 8057   3.805   2.907   4.977
 2698TIP3    H1 8058   3.785   2.987   4.929
 2698TIP3    H2 8059   3.875   2.932   5.037
 2699TIP3   OH2 8060   5.074   4.530   4.678
 2699TIP3    H1 8061   5.033   4.491   4.755
 2699TIP3    H2 8062   5.124   4.459   4.639
 2700TIP3   OH2 8063   0.563   5.323   5.868
 2700TIP3    H1 8064   0.579   5.403   5.817
 2700TIP3    H2 8065   0.469   5.308   5.859
 2701TIP3   OH2 8066   1.198   5.244   3.785
 2701TIP3    H1 8067   1.121   5.291   3.817
 2701TIP3    H2 8068   1.214   5.281   3.698
 2702TIP3   OH2 8069   5.384   2.897   1.078
 2702TIP3    H1 8070   5.398   2.877   0.985
 2702TIP3    H2 8071   5.342   2.983   1.078
 2703TIP3   OH2 8072   2.360   2.407   3.926
 2703TIP3    H1 8073   2.316   2.484   3.890
 2703TIP3    H2 8074   2.289   2.349   3.954
 2704TIP3   OH2 8075   5.855   4.169   0.588
 2704TIP3    H1 8076   5.829   4.077   0.582
 2704TIP3    H2 8077   5.798   4.206   0.655
 2705TIP3   OH2 8078   6.369   1.685   3.421
 2705TIP3    H1 8079   6.308   1.666   3.493
 2705TIP3    H2 8080   6.376   1.780   3.420
 2706TIP3   OH2 8081   1.724   2.360   4.498
 2706TIP3    H1 8082   1.748   2.288   4.557
 2706TIP3    H2 8083   1.796   2.422   4.505
 2707TIP3   OH2 8084   3.306   1.540   0.221
 2707TIP3    H1 8085   3.355   1.609   0.266
 2707TIP3    H2 8086   3.351   1.531   0.136
 2708TIP3   OH2 8087   1.480   4.534   5.780
 2708TIP3    H1 8088   1.471   4.469   5.710
 2708TIP3    H2 8089   1.527   4.487   5.850
 2709TIP3   OH2 8090   2.656   4.433   4.241
 2709TIP3    H1 8091   2.591   4.479   4.188
 2709TIP3    H2 8092   2.730   4.421   4.183
 2710TIP3   OH2 8093   2.142   4.939   0.461
 2710TIP3    H1 8094   2.058   4.933   0.414
 2710TIP3    H2 8095   2.208   4.938   0.392
 2711TIP3   OH2 8096   1.616   6.094   5.011
 2711TIP3    H1 8097   1.564   6.014   5.021
 2711TIP3    H2 8098   1.564   6.162   5.054
 2712TIP3   OH2 8099   5.476   1.183   1.720
 2712TIP3    H1 8100   5.545   1.247   1.738
 2712TIP3    H2 8101   5.523   1.104   1.695
 2713TIP3   OH2 8102   1.788   3.745   0.806
 2713TIP3    H1 8103   1.775   3.721   0.898
 2713TIP3    H2 8104   1.737   3.826   0.795
 2714TIP3   OH2 8105   0.808   2.013   2.781
 2714TIP3    H1 8106   0.750   1.938   2.784
 2714TIP3    H2 8107   0.893   1.978   2.753
 2715TIP3   OH2 8108   4.742   5.330   4.078
 2715TIP3    H1 8109   4.826   5.284   4.085
 2715TIP3    H2 8110   4.685   5.271   4.029
 2716TIP3   OH2 8111   2.778   3.330   0.119
 2716TIP3    H1 8112   2.695   3.361   0.154
 2716TIP3    H2 8113   2.764   3.237   0.104
 2717TIP3   OH2 8114   0.861   4.507   2.043
 2717TIP3    H1 8115   0.833   4.516   2.134
 2717TIP3    H2 8116   0.808   4.571   1.995
 2718TIP3   OH2 8117   0.543   4.183   2.594
 2718TIP3    H1 8118   0.540   4.090   2.614
 2718TIP3    H2 8119   0.504   4.226   2.671
 2719TIP3   OH2 8120   5.210   4.248   4.641
 2719TIP3    H1 8121   5.243   4.267   4.728
 2719TIP3    H2 8122   5.274   4.188   4.604
 2720TIP3   OH2 8123   3.204   3.379   5.281
 2720TIP3    H1 8124   3.209   3.362   5.375
 2720TIP3    H2 8125   3.127   3.434   5.270
 2721TIP3   OH2 8126   5.610   0.219   2.021
 2721TIP3    H1 8127   5.631   0.128   2.001
 2721TIP3    H2 8128   5.624   0.227   2.115
 2722TIP3   OH2 8129   5.431   3.275   3.667
 2722TIP3    H1 8130   5.515   3.305   3.632
 2722TIP3    H2 8131   5.398   3.215   3.601
 2723TIP3   OH2 8132   2.039   0.504   4.338
 2723TIP3    H1 8133   2.113   0.519   4.279
 2723TIP3    H2 8134   2.033   0.584   4.390
 2724TIP3   OH2 8135   4.033   3.491   1.219
 2724TIP3    H1 8136   4.103   3.433   1.191
 2724TIP3    H2 8137   4.004   3.456   1.303
 2725TIP3   OH2 8138   0.856   6.708   1.731
 2725TIP3    H1 8139   0.781   6.692   1.788
 2725TIP3    H2 8140   0.925   6.649   1.763
 2726TIP3   OH2 8141   5.012   0.942   1.482
 2726TIP3    H1 8142   5.086   1.001   1.475
 2726TIP3    H2 8143   5.022   0.901   1.568
 2727TIP3   OH2 8144   1.816   1.965   5.630
 2727TIP3    H1 8145   1.782   2.024   5.563
 2727TIP3    H2 8146   1.903   1.999   5.650
 2728TIP3   OH2 8147   3.234   4.963   4.677
 2728TIP3    H1 8148   3.210   4.920   4.759
 2728TIP3    H2 8149   3.306   5.022   4.701
 2729TIP3   OH2 8150   6.069   2.819   1.832
 2729TIP3    H1 8151   6.043   2.732   1.863
 2729TIP3    H2 8152   6.009   2.838   1.761
 2730TIP3   OH2 8153   3.519   2.339   3.148
 2730TIP3    H1 8154   3.465   2.298   3.216
 2730TIP3    H2 8155   3.547   2.422   3.188
 2731TIP3   OH2 8156   1.017   2.582   5.254
 2731TIP3    H1 8157   1.061   2.667   5.258
 2731TIP3    H2 8158   1.085   2.519   5.279
 2732TIP3   OH2 8159   4.351   5.491   0.599
 2732TIP3    H1 8160   4.307   5.481   0.683
 2732TIP3    H2 8161   4.439   5.520   0.621
 2733TIP3   OH2 8162   1.972   0.134   2.818
 2733TIP3    H1 8163   2.056   0.178   2.802
 2733TIP3    H2 8164   1.906   0.202   2.807
 2734TIP3   OH2 8165   4.072   1.483   3.757
 2734TIP3    H1 8166   4.050   1.567   3.716
 2734TIP3    H2 8167   4.057   1.418   3.687
 2735TIP3   OH2 8168   5.998   0.807   3.790
 2735TIP3    H1 8169   6.091   0.826   3.775
 2735TIP3    H2 8170   5.996   0.762   3.874
 2736TIP3   OH2 8171   5.198   3.077   1.140
 2736TIP3    H1 8172   5.200   3.131   1.061
 2736TIP3    H2 8173   5.165   3.136   1.209
 2737TIP3   OH2 8174   2.048   0.072   2.015
 2737TIP3    H1 8175   1.990   0.034   1.949
 2737TIP3    H2 8176   1.991   0.087   2.091
 2738TIP3   OH2 8177   5.404   5.379   1.854
 2738TIP3    H1 8178   5.396   5.327   1.933
 2738TIP3    H2 8179   5.491   5.420   1.861
 2739TIP3   OH2 8180   2.650   3.466   5.113
 2739TIP3    H1 8181   2.598   3.490   5.189
 2739TIP3    H2 8182   2.647   3.542   5.056
 2740TIP3   OH2 8183   6.458   1.743   2.588
 2740TIP3    H1 8184   6.482   1.789   2.508
 2740TIP3    H2 8185   6.540   1.705   2.619
 2741TIP3   OH2 8186   3.810   5.924   4.415
 2741TIP3    H1 8187   3.766   6.001   4.452
 2741TIP3    H2 8188   3.817   5.863   4.489
 2742TIP3   OH2 8189   4.318   4.180   3.150
 2742TIP3    H1 8190   4.384   4.139   3.206
 2742TIP3    H2 8191   4.354   4.176   3.062
 2743TIP3   OH2 8192   1.554   5.777   3.775
 2743TIP3    H1 8193   1.577   5.799   3.685
 2743TIP3    H2 8194   1.636   5.784   3.823
 2744TIP3   OH2 8195   5.328   1.010   5.693
 2744TIP3    H1 8196   5.307   1.063   5.616
 2744TIP3    H2 8197   5.403   0.957   5.666
 2745TIP3   OH2 8198   7.099   1.747   4.150
 2745TIP3    H1 8199   7.130   1.709   4.068
 2745TIP3    H2 8200   7.045   1.822   4.123
 2746TIP3   OH2 8201   4.336   1.793   0.338
 2746TIP3    H1 8202   4.347   1.712   0.287
 2746TIP3    H2 8203   4.253   1.781   0.384
 2747TIP3   OH2 8204   2.053   5.094   4.762
 2747TIP3    H1 8205   2.019   5.009   4.734
 2747TIP3    H2 8206   1.979   5.154   4.754
 2748TIP3   OH2 8207   0.951   4.271   3.409
 2748TIP3    H1 8208   0.939   4.364   3.390
 2748TIP3    H2 8209   0.974   4.269   3.502
 2749TIP3   OH2 8210   2.772   5.284   4.075
 2749TIP3    H1 8211   2.705   5.347   4.101
 2749TIP3    H2 8212   2.802   5.315   3.990
 2750TIP3   OH2 8213   6.580   4.663   4.453
 2750TIP3    H1 8214   6.667   4.623   4.463
 2750TIP3    H2 8215   6.528   4.625   4.523
 2751TIP3   OH2 8216   6.130   5.465   1.344
 2751TIP3    H1 8217   6.192   5.478   1.272
 2751TIP3    H2 8218   6.126   5.550   1.388
 2752TIP3   OH2 8219   2.062   6.476   0.267
 2752TIP3    H1 8220   1.994   6.536   0.295
 2752TIP3    H2 8221   2.037   6.392   0.306
 2753TIP3   OH2 8222   3.925   5.825   2.919
 2753TIP3    H1 8223   3.899   5.901   2.970
 2753TIP3    H2 8224   3.902   5.848   2.829
 2754TIP3   OH2 8225   5.635   3.879   1.538
 2754TIP3    H1 8226   5.713   3.832   1.569
 2754TIP3    H2 8227   5.562   3.837   1.582
 2755TIP3   OH2 8228   6.336   2.701   1.074
 2755TIP3    H1 8229   6.414   2.755   1.065
 2755TIP3    H2 8230   6.269   2.747   1.023
 2756TIP3   OH2 8231   6.231   5.030   2.679
 2756TIP3    H1 8232   6.226   4.968   2.752
 2756TIP3    H2 8233   6.144   5.027   2.639
 2757TIP3   OH2 8234   5.479   0.543   2.452
 2757TIP3    H1 8235   5.387   0.517   2.457
 2757TIP3    H2 8236   5.521   0.502   2.528
 2758TIP3   OH2 8237   6.041   0.746   1.625
 2758TIP3    H1 8238   6.024   0.663   1.670
 2758TIP3    H2 8239   5.972   0.804   1.655
 2759TIP3   OH2 8240   0.922   1.691   4.804
 2759TIP3    H1 8241   0.899   1.598   4.810
 2759TIP3    H2 8242   0.852   1.735   4.852
 2760TIP3   OH2 8243   1.256   1.726   1.333
 2760TIP3    H1 8244   1.175   1.676   1.345
 2760TIP3    H2 8245   1.326   1.665   1.356
 2761TIP3   OH2 8246   4.797   0.417   4.113
 2761TIP3    H1 8247   4.803   0.338   4.060
 2761TIP3    H2 8248   4.755   0.388   4.194
 2762TIP3   OH2 8249   5.537   1.239   3.935
 2762TIP3    H1 8250   5.594   1.163   3.926
 2762TIP3    H2 8251   5.505   1.235   4.025
 2763TIP3   OH2 8252   2.378   2.344   1.832
 2763TIP3    H1 8253   2.465   2.373   1.858
 2763TIP3    H2 8254   2.345   2.413   1.774
 2764TIP3   OH2 8255   7.061   6.396   0.817
 2764TIP3    H1 8256   7.031   6.480   0.783
 2764TIP3    H2 8257   7.004   6.331   0.776
 2765TIP3   OH2 8258   3.062   2.492   2.721
 2765TIP3    H1 8259   3.142   2.469   2.673
 2765TIP3    H2 8260   2.991   2.458   2.666
 2766TIP3   OH2 8261   0.870   6.343   1.462
 2766TIP3    H1 8262   0.906   6.306   1.381
 2766TIP3    H2 8263   0.775   6.333   1.453
 2767TIP3   OH2 8264   2.361   4.338   3.493
 2767TIP3    H1 8265   2.377   4.427   3.460
 2767TIP3    H2 8266   2.308   4.297   3.425
 2768TIP3   OH2 8267   1.333   3.114   3.482
 2768TIP3    H1 8268   1.239   3.115   3.503
 2768TIP3    H2 8269   1.338   3.067   3.398
 2769TIP3   OH2 8270   4.489   1.336   5.418
 2769TIP3    H1 8271   4.549   1.315   5.490
 2769TIP3    H2 8272   4.532   1.301   5.340
 2770TIP3   OH2 8273   4.231   6.031   2.965
 2770TIP3    H1 8274   4.314   6.014   2.922
 2770TIP3    H2 8275   4.165   6.004   2.901
 2771TIP3   OH2 8276   0.496   5.915   5.637
 2771TIP3    H1 8277   0.501   5.923   5.732
 2771TIP3    H2 8278   0.440   5.987   5.610
 2772TIP3   OH2 8279   3.617   3.996   5.208
 2772TIP3    H1 8280   3.630   3.905   5.179
 2772TIP3    H2 8281   3.679   4.007   5.279
 2773TIP3   OH2 8282   3.495   5.303   2.640
 2773TIP3    H1 8283   3.437   5.327   2.568
 2773TIP3    H2 8284   3.583   5.306   2.603
 2774TIP3   OH2 8285   1.670   0.538   1.920
 2774TIP3    H1 8286   1.676   0.600   1.847
 2774TIP3    H2 8287   1.575   0.528   1.935
 2775TIP3   OH2 8288   4.092   4.387   1.794
 2775TIP3    H1 8289   4.085   4.310   1.738
 2775TIP3    H2 8290   4.179   4.423   1.773
 2776TIP3   OH2 8291   6.830   2.224   5.376
 2776TIP3    H1 8292   6.756   2.234   5.316
 2776TIP3    H2 8293   6.907   2.222   5.318
 2777TIP3   OH2 8294   1.657   5.245   4.163
 2777TIP3    H1 8295   1.714   5.321   4.152
 2777TIP3    H2 8296   1.716   5.173   4.186
 2778TIP3   OH2 8297   6.032   5.624   0.384
 2778TIP3    H1 8298   6.102   5.617   0.318
 2778TIP3    H2 8299   5.985   5.541   0.378
 2779TIP3   OH2 8300   4.863   4.231   0.853
 2779TIP3    H1 8301   4.777   4.189   0.842
 2779TIP3    H2 8302   4.854   4.316   0.810
 2780TIP3   OH2 8303   3.077   1.433   2.188
 2780TIP3    H1 8304   3.021   1.499   2.228
 2780TIP3    H2 8305   3.138   1.483   2.133
 2781TIP3   OH2 8306   4.716   3.470   5.451
 2781TIP3    H1 8307   4.774   3.401   5.419
 2781TIP3    H2 8308   4.760   3.505   5.528
 2782TIP3   OH2 8309   0.289   0.311   0.713
 2782TIP3    H1 8310   0.289   0.392   0.663
 2782TIP3    H2 8311   0.303   0.242   0.648
 2783TIP3   OH2 8312   3.620   5.379   1.853
 2783TIP3    H1 8313   3.610   5.292   1.893
 2783TIP3    H2 8314   3.715   5.389   1.842
 2784TIP3   OH2 8315   0.837   0.208   5.295
 2784TIP3    H1 8316   0.875   0.265   5.228
 2784TIP3    H2 8317   0.911   0.185   5.352
 2785TIP3   OH2 8318   1.780   2.523   2.420
 2785TIP3    H1 8319   1.757   2.602   2.371
 2785TIP3    H2 8320   1.869   2.540   2.451
 2786TIP3   OH2 8321   0.852   3.546   0.470
 2786TIP3    H1 8322   0.858   3.463   0.422
 2786TIP3    H2 8323   0.818   3.608   0.405
 2787TIP3   OH2 8324   0.208   5.987   5.701
 2787TIP3    H1 8325   0.129   5.972   5.651
 2787TIP3    H2 8326   0.262   6.043   5.645
 2788TIP3   OH2 8327   5.292   1.664   2.232
 2788TIP3    H1 8328   5.340   1.598   2.282
 2788TIP3    H2 8329   5.288   1.740   2.291
 2789TIP3   OH2 8330   6.940   4.480   4.108
 2789TIP3    H1 8331   6.927   4.476   4.014
 2789TIP3    H2 8332   6.926   4.572   4.130
 2790TIP3   OH2 8333   5.309   0.891   2.014
 2790TIP3    H1 8334   5.308   0.898   1.919
 2790TIP3    H2 8335   5.339   0.977   2.044
 2791TIP3   OH2 8336   6.836   4.646   0.146
 2791TIP3    H1 8337   6.879   4.668   0.229
 2791TIP3    H2 8338   6.752   4.692   0.150
 2792TIP3   OH2 8339   2.441   4.924   1.581
 2792TIP3    H1 8340   2.406   4.835   1.579
 2792TIP3    H2 8341   2.450   4.949   1.489
 2793TIP3   OH2 8342   1.770   2.757   0.622
 2793TIP3    H1 8343   1.692   2.781   0.672
 2793TIP3    H2 8344   1.837   2.821   0.648
 2794TIP3   OH2 8345   4.787   3.664   1.444
 2794TIP3    H1 8346   4.784   3.760   1.440
 2794TIP3    H2 8347   4.703   3.636   1.407
 2795TIP3   OH2 8348   5.755   2.436   1.376
 2795TIP3    H1 8349   5.714   2.488   1.445
 2795TIP3    H2 8350   5.811   2.498   1.329
 2796TIP3   OH2 8351   2.331   2.829   2.195
 2796TIP3    H1 8352   2.402   2.772   2.225
 2796TIP3    H2 8353   2.274   2.772   2.144
 2797TIP3   OH2 8354   5.283   5.866   5.176
 2797TIP3    H1 8355   5.246   5.816   5.103
 2797TIP3    H2 8356   5.374   5.835   5.182
 2798TIP3   OH2 8357   4.254   4.936   3.811
 2798TIP3    H1 8358   4.228   4.894   3.892
 2798TIP3    H2 8359   4.281   4.864   3.754
 2799TIP3   OH2 8360   1.892   3.762   4.627
 2799TIP3    H1 8361   1.836   3.684   4.625
 2799TIP3    H2 8362   1.935   3.757   4.712
 2800TIP3   OH2 8363   6.873   0.847   3.494
 2800TIP3    H1 8364   6.885   0.777   3.558
 2800TIP3    H2 8365   6.843   0.921   3.546
 2801TIP3   OH2 8366   6.541   1.756   3.102
 2801TIP3    H1 8367   6.449   1.767   3.080
 2801TIP3    H2 8368   6.557   1.821   3.171
 2802TIP3   OH2 8369   0.791   2.816   3.712
 2802TIP3    H1 8370   0.819   2.866   3.635
 2802TIP3    H2 8371   0.837   2.733   3.705
 2803TIP3   OH2 8372   2.213   0.359   4.501
 2803TIP3    H1 8373   2.172   0.329   4.583
 2803TIP3    H2 8374   2.149   0.419   4.463
 2804TIP3   OH2 8375   6.005   6.478   1.182
 2804TIP3    H1 8376   6.079   6.417   1.180
 2804TIP3    H2 8377   5.974   6.476   1.272
 2805TIP3   OH2 8378   1.126   3.461   3.127
 2805TIP3    H1 8379   1.101   3.369   3.137
 2805TIP3    H2 8380   1.165   3.466   3.040
 2806TIP3   OH2 8381   2.741   1.416   4.889
 2806TIP3    H1 8382   2.744   1.323   4.912
 2806TIP3    H2 8383   2.796   1.459   4.954
 2807TIP3   OH2 8384   3.616   1.934   0.336
 2807TIP3    H1 8385   3.590   1.966   0.422
 2807TIP3    H2 8386   3.642   2.012   0.287
 2808TIP3   OH2 8387   6.616   0.402   5.696
 2808TIP3    H1 8388   6.669   0.466   5.744
 2808TIP3    H2 8389   6.674   0.327   5.683
 2809TIP3   OH2 8390   6.815   3.778   3.312
 2809TIP3    H1 8391   6.758   3.744   3.243
 2809TIP3    H2 8392   6.824   3.706   3.374
 2810TIP3   OH2 8393   3.074   2.749   1.699
 2810TIP3    H1 8394   3.168   2.762   1.693
 2810TIP3    H2 8395   3.038   2.837   1.710
 2811TIP3   OH2 8396   0.820   5.514   3.651
 2811TIP3    H1 8397   0.839   5.607   3.665
 2811TIP3    H2 8398   0.725   5.508   3.654
 2812TIP3   OH2 8399   5.218   5.102   0.875
 2812TIP3    H1 8400   5.207   5.090   0.969
 2812TIP3    H2 8401   5.163   5.178   0.854
 2813TIP3   OH2 8402   2.319   4.537   0.699
 2813TIP3    H1 8403   2.347   4.626   0.722
 2813TIP3    H2 8404   2.238   4.550   0.649
 2814TIP3   OH2 8405   2.432   0.260   4.372
 2814TIP3    H1 8406   2.450   0.336   4.317
 2814TIP3    H2 8407   2.365   0.289   4.433
 2815TIP3   OH2 8408   1.471   4.616   5.250
 2815TIP3    H1 8409   1.537   4.555   5.219
 2815TIP3    H2 8410   1.490   4.698   5.205
 2816TIP3   OH2 8411   0.879   5.060   3.691
 2816TIP3    H1 8412   0.908   5.116   3.619
 2816TIP3    H2 8413   0.937   4.984   3.687
 2817TIP3   OH2 8414   7.041   3.383   3.247
 2817TIP3    H1 8415   6.954   3.418   3.268
 2817TIP3    H2 8416   7.063   3.327   3.321
 2818TIP3   OH2 8417   1.194   5.808   4.017
 2818TIP3    H1 8418   1.251   5.824   4.092
 2818TIP3    H2 8419   1.205   5.715   3.998
 2819TIP3   OH2 8420   3.829   5.761   1.159
 2819TIP3    H1 8421   3.750   5.719   1.125
 2819TIP3    H2 8422   3.809   5.854   1.161
 2820TIP3   OH2 8423   3.233   5.782   5.384
 2820TIP3    H1 8424   3.269   5.694   5.393
 2820TIP3    H2 8425   3.176   5.792   5.460
 2821TIP3   OH2 8426   2.807   2.196   2.185
 2821TIP3    H1 8427   2.840   2.119   2.137
 2821TIP3    H2 8428   2.846   2.188   2.272
 2822TIP3   OH2 8429   4.419   4.558   2.786
 2822TIP3    H1 8430   4.428   4.653   2.782
 2822TIP3    H2 8431   4.367   4.542   2.865
 2823TIP3   OH2 8432   0.051   4.834   0.441
 2823TIP3    H1 8433   0.142   4.853   0.419
 2823TIP3    H2 8434   0.022   4.774   0.373
 2824TIP3   OH2 8435   1.443   0.789   0.636
 2824TIP3    H1 8436   1.450   0.817   0.545
 2824TIP3    H2 8437   1.394   0.706   0.633
 2825TIP3   OH2 8438   2.772   5.925   1.456
 2825TIP3    H1 8439   2.837   5.855   1.459
 2825TIP3    H2 8440   2.808   5.988   1.393
 2826TIP3   OH2 8441   4.091   6.298   3.361
 2826TIP3    H1 8442   4.119   6.209   3.340
 2826TIP3    H2 8443   4.053   6.331   3.280
 2827TIP3   OH2 8444   5.720   4.704   4.235
 2827TIP3    H1 8445   5.744   4.670   4.148
 2827TIP3    H2 8446   5.689   4.627   4.282
 2828TIP3   OH2 8447   6.309   3.849   4.997
 2828TIP3    H1 8448   6.273   3.937   5.001
 2828TIP3    H2 8449   6.397   3.857   5.035
 2829TIP3   OH2 8450   3.781   4.338   0.694
 2829TIP3    H1 8451   3.751   4.252   0.725
 2829TIP3    H2 8452   3.702   4.391   0.692
 2830TIP3   OH2 8453   4.179   2.842   1.595
 2830TIP3    H1 8454   4.148   2.835   1.505
 2830TIP3    H2 8455   4.270   2.869   1.587
 2831TIP3   OH2 8456   5.888   2.202   1.259
 2831TIP3    H1 8457   5.979   2.229   1.271
 2831TIP3    H2 8458   5.841   2.246   1.330
 2832TIP3   OH2 8459   4.555   4.067   3.262
 2832TIP3    H1 8460   4.573   4.001   3.195
 2832TIP3    H2 8461   4.594   4.030   3.342
 2833TIP3   OH2 8462   3.114   5.765   1.644
 2833TIP3    H1 8463   3.075   5.808   1.720
 2833TIP3    H2 8464   3.096   5.672   1.656
 2834TIP3   OH2 8465   1.517   3.142   2.898
 2834TIP3    H1 8466   1.606   3.160   2.929
 2834TIP3    H2 8467   1.527   3.066   2.840
 2835TIP3   OH2 8468   5.597   2.228   5.154
 2835TIP3    H1 8469   5.551   2.220   5.238
 2835TIP3    H2 8470   5.556   2.302   5.111
 2836TIP3   OH2 8471   3.817   3.847   1.437
 2836TIP3    H1 8472   3.878   3.880   1.372
 2836TIP3    H2 8473   3.871   3.831   1.515
 2837TIP3   OH2 8474   5.075   3.719   4.931
 2837TIP3    H1 8475   4.983   3.745   4.935
 2837TIP3    H2 8476   5.100   3.707   5.023
 2838TIP3   OH2 8477   2.941   3.142   5.056
 2838TIP3    H1 8478   2.885   3.080   5.010
 2838TIP3    H2 8479   3.011   3.162   4.993
 2839TIP3   OH2 8480   2.945   3.487   5.256
 2839TIP3    H1 8481   2.883   3.433   5.206
 2839TIP3    H2 8482   2.997   3.531   5.189
 2840TIP3   OH2 8483   1.968   2.993   1.001
 2840TIP3    H1 8484   2.042   3.050   1.025
 2840TIP3    H2 8485   1.904   3.007   1.070
 2841TIP3   OH2 8486   6.324   0.141   4.344
 2841TIP3    H1 8487   6.242   0.120   4.390
 2841TIP3    H2 8488   6.317   0.233   4.321
 2842TIP3   OH2 8489   1.270   2.935   5.367
 2842TIP3    H1 8490   1.188   2.892   5.345
 2842TIP3    H2 8491   1.304   2.968   5.284
 2843TIP3   OH2 8492   5.519   6.744   5.595
 2843TIP3    H1 8493   5.452   6.769   5.659
 2843TIP3    H2 8494   5.598   6.730   5.647
 2844TIP3   OH2 8495   4.413   6.341   1.551
 2844TIP3    H1 8496   4.378   6.412   1.498
 2844TIP3    H2 8497   4.346   6.324   1.617
 2845TIP3   OH2 8498   4.101   0.077   3.118
 2845TIP3    H1 8499   4.027   0.125   3.080
 2845TIP3    H2 8500   4.068   0.044   3.202
 2846TIP3   OH2 8501   6.408   1.867   3.878
 2846TIP3    H1 8502   6.409   1.963   3.886
 2846TIP3    H2 8503   6.494   1.840   3.911
 2847TIP3   OH2 8504   0.371   4.077   5.805
 2847TIP3    H1 8505   0.436   4.097   5.738
 2847TIP3    H2 8506   0.289   4.066   5.755
 2848TIP3   OH2 8507   1.550   2.306   0.570
 2848TIP3    H1 8508   1.604   2.257   0.631
 2848TIP3    H2 8509   1.474   2.251   0.555
 2849TIP3   OH2 8510   5.671   4.611   5.486
 2849TIP3    H1 8511   5.743   4.658   5.445
 2849TIP3    H2 8512   5.711   4.561   5.557
 2850TIP3   OH2 8513   3.505   2.800   1.963
 2850TIP3    H1 8514   3.524   2.722   1.911
 2850TIP3    H2 8515   3.589   2.845   1.970
 2851TIP3   OH2 8516   4.805   2.162   4.211
 2851TIP3    H1 8517   4.884   2.200   4.249
 2851TIP3    H2 8518   4.789   2.213   4.131
 2852TIP3   OH2 8519   7.125   5.784   0.136
 2852TIP3    H1 8520   7.088   5.847   0.197
 2852TIP3    H2 8521   7.051   5.729   0.109
 2853TIP3   OH2 8522   1.493   1.035   3.407
 2853TIP3    H1 8523   1.451   0.961   3.451
 2853TIP3    H2 8524   1.461   1.112   3.455
 2854TIP3   OH2 8525   3.485   6.508   5.370
 2854TIP3    H1 8526   3.426   6.567   5.323
 2854TIP3    H2 8527   3.427   6.454   5.424
 2855TIP3   OH2 8528   5.537   1.803   2.956
 2855TIP3    H1 8529   5.612   1.781   2.902
 2855TIP3    H2 8530   5.473   1.735   2.938
 2856TIP3   OH2 8531   1.175   4.682   2.683
 2856TIP3    H1 8532   1.147   4.700   2.773
 2856TIP3    H2 8533   1.139   4.755   2.632
 2857TIP3   OH2 8534   1.897   3.786   4.286
 2857TIP3    H1 8535   1.922   3.721   4.351
 2857TIP3    H2 8536   1.818   3.826   4.322
 2858TIP3   OH2 8537   3.692   2.416   3.682
 2858TIP3    H1 8538   3.755   2.393   3.751
 2858TIP3    H2 8539   3.731   2.491   3.638
 2859TIP3   OH2 8540   0.206   1.753   2.107
 2859TIP3    H1 8541   0.234   1.795   2.025
 2859TIP3    H2 8542   0.160   1.822   2.155
 2860TIP3   OH2 8543   2.503   3.912   5.356
 2860TIP3    H1 8544   2.518   4.006   5.356
 2860TIP3    H2 8545   2.467   3.894   5.443
 2861TIP3   OH2 8546   1.646   0.194   3.943
 2861TIP3    H1 8547   1.614   0.139   4.014
 2861TIP3    H2 8548   1.604   0.159   3.865
 2862TIP3   OH2 8549   1.062   0.429   4.943
 2862TIP3    H1 8550   1.078   0.469   5.028
 2862TIP3    H2 8551   1.045   0.503   4.885
 2863TIP3   OH2 8552   2.814   3.884   5.835
 2863TIP3    H1 8553   2.732   3.861   5.878
 2863TIP3    H2 8554   2.842   3.804   5.792
 2864TIP3   OH2 8555   1.134   1.944   5.840
 2864TIP3    H1 8556   1.125   2.025   5.790
 2864TIP3    H2 8557   1.202   1.964   5.905
 2865TIP3   OH2 8558   0.785   3.244   1.923
 2865TIP3    H1 8559   0.771   3.154   1.894
 2865TIP3    H2 8560   0.754   3.298   1.850
 2866TIP3   OH2 8561   6.325   1.715   2.890
 2866TIP3    H1 8562   6.358   1.638   2.844
 2866TIP3    H2 8563   6.276   1.679   2.964
 2867TIP3   OH2 8564   5.380   0.698   4.541
 2867TIP3    H1 8565   5.384   0.725   4.632
 2867TIP3    H2 8566   5.380   0.602   4.545
 2868TIP3   OH2 8567   6.837   6.291   5.631
 2868TIP3    H1 8568   6.837   6.314   5.723
 2868TIP3    H2 8569   6.810   6.199   5.629
 2869TIP3   OH2 8570   0.601   0.470   4.440
 2869TIP3    H1 8571   0.692   0.442   4.448
 2869TIP3    H2 8572   0.600   0.527   4.363
 2870TIP3   OH2 8573   5.815   3.106   0.043
 2870TIP3    H1 8574   5.846   3.050   0.114
 2870TIP3    H2 8575   5.853   3.067  -0.036
 2871TIP3   OH2 8576   0.530   4.765   3.330
 2871TIP3    H1 8577   0.476   4.767   3.409
 2871TIP3    H2 8578   0.576   4.849   3.331
 2872TIP3   OH2 8579   0.365   3.819   2.567
 2872TIP3    H1 8580   0.271   3.828   2.577
 2872TIP3    H2 8581   0.376   3.753   2.498
 2873TIP3   OH2 8582   4.669   0.602   1.829
 2873TIP3    H1 8583   4.658   0.670   1.762
 2873TIP3    H2 8584   4.763   0.600   1.847
 2874TIP3   OH2 8585   0.490   5.063   2.489
 2874TIP3    H1 8586   0.405   5.077   2.532
 2874TIP3    H2 8587   0.522   4.981   2.525
 2875TIP3   OH2 8588   1.992   4.307   2.345
 2875TIP3    H1 8589   2.023   4.374   2.406
 2875TIP3    H2 8590   2.064   4.245   2.338
 2876TIP3   OH2 8591   2.906   6.391   1.977
 2876TIP3    H1 8592   2.823   6.356   2.009
 2876TIP3    H2 8593   2.941   6.321   1.922
 2877TIP3   OH2 8594   3.975   5.985   3.429
 2877TIP3    H1 8595   4.023   6.013   3.351
 2877TIP3    H2 8596   3.883   5.999   3.407
 2878TIP3   OH2 8597   4.069   6.215   2.470
 2878TIP3    H1 8598   4.083   6.306   2.494
 2878TIP3    H2 8599   4.100   6.165   2.546
 2879TIP3   OH2 8600   1.511   3.035   5.263
 2879TIP3    H1 8601   1.512   3.130   5.250
 2879TIP3    H2 8602   1.500   3.024   5.358
 2880TIP3   OH2 8603   3.249   3.118   5.206
 2880TIP3    H1 8604   3.171   3.071   5.178
 2880TIP3    H2 8605   3.216   3.203   5.235
 2881TIP3   OH2 8606   0.918   1.500   5.482
 2881TIP3    H1 8607   0.879   1.559   5.417
 2881TIP3    H2 8608   0.958   1.559   5.547
 2882TIP3   OH2 8609   4.253   0.256   3.302
 2882TIP3    H1 8610   4.347   0.273   3.306
 2882TIP3    H2 8611   4.227   0.286   3.215
 2883TIP3   OH2 8612   3.623   3.312   4.045
 2883TIP3    H1 8613   3.581   3.336   4.128
 2883TIP3    H2 8614   3.702   3.365   4.042
 2884TIP3   OH2 8615   4.884   1.216   0.702
 2884TIP3    H1 8616   4.937   1.136   0.692
 2884TIP3    H2 8617   4.902   1.266   0.623
 2885TIP3   OH2 8618   5.812   4.927   5.854
 2885TIP3    H1 8619   5.762   4.849   5.830
 2885TIP3    H2 8620   5.841   4.963   5.770
 2886TIP3   OH2 8621   3.128   5.993   2.703
 2886TIP3    H1 8622   3.201   6.023   2.757
 2886TIP3    H2 8623   3.167   5.929   2.643
 2887TIP3   OH2 8624   1.951   5.030   3.337
 2887TIP3    H1 8625   1.912   5.040   3.250
 2887TIP3    H2 8626   1.882   4.990   3.390
 2888TIP3   OH2 8627   0.845   3.781   5.374
 2888TIP3    H1 8628   0.903   3.723   5.324
 2888TIP3    H2 8629   0.842   3.862   5.322
 2889TIP3   OH2 8630   5.054   4.014   3.137
 2889TIP3    H1 8631   5.067   3.920   3.144
 2889TIP3    H2 8632   4.963   4.024   3.109
 2890TIP3   OH2 8633   4.406   1.078   1.636
 2890TIP3    H1 8634   4.431   1.129   1.559
 2890TIP3    H2 8635   4.349   1.009   1.602
 2891TIP3   OH2 8636   2.128   3.138   2.849
 2891TIP3    H1 8637   2.128   3.048   2.881
 2891TIP3    H2 8638   2.073   3.136   2.770
 2892TIP3   OH2 8639   5.354   2.246   0.497
 2892TIP3    H1 8640   5.385   2.177   0.555
 2892TIP3    H2 8641   5.334   2.319   0.555
 2893TIP3   OH2 8642   6.261   5.828   4.899
 2893TIP3    H1 8643   6.234   5.775   4.825
 2893TIP3    H2 8644   6.295   5.765   4.963
 2894TIP3   OH2 8645   4.906   4.601   5.545
 2894TIP3    H1 8646   4.895   4.689   5.580
 2894TIP3    H2 8647   5.000   4.584   5.553
 2895TIP3   OH2 8648   3.736   5.190   0.380
 2895TIP3    H1 8649   3.765   5.191   0.289
 2895TIP3    H2 8650   3.654   5.240   0.380
 2896TIP3   OH2 8651   5.128   1.428   3.773
 2896TIP3    H1 8652   5.058   1.443   3.709
 2896TIP3    H2 8653   5.209   1.444   3.725
 2897TIP3   OH2 8654   2.392   3.888   0.748
 2897TIP3    H1 8655   2.339   3.962   0.778
 2897TIP3    H2 8656   2.397   3.900   0.653
 2898TIP3   OH2 8657   1.554   6.752   3.856
 2898TIP3    H1 8658   1.556   6.784   3.947
 2898TIP3    H2 8659   1.474   6.789   3.819
 2899TIP3   OH2 8660   4.531   2.608   4.529
 2899TIP3    H1 8661   4.475   2.533   4.513
 2899TIP3    H2 8662   4.537   2.615   4.624
 2900TIP3   OH2 8663   4.856   5.627   5.012
 2900TIP3    H1 8664   4.902   5.705   4.981
 2900TIP3    H2 8665   4.853   5.569   4.936
 2901TIP3   OH2 8666   1.108   5.807   1.314
 2901TIP3    H1 8667   1.037   5.856   1.357
 2901TIP3    H2 8668   1.065   5.760   1.242
 2902TIP3   OH2 8669   5.122   4.644   5.072
 2902TIP3    H1 8670   5.092   4.604   5.154
 2902TIP3    H2 8671   5.104   4.578   5.006
 2903TIP3   OH2 8672   0.220   0.332   4.199
 2903TIP3    H1 8673   0.282   0.403   4.182
 2903TIP3    H2 8674   0.271   0.265   4.244
 2904TIP3   OH2 8675   6.434   3.396   1.881
 2904TIP3    H1 8676   6.497   3.468   1.882
 2904TIP3    H2 8677   6.396   3.396   1.969
 2905TIP3   OH2 8678   4.120   0.218   1.565
 2905TIP3    H1 8679   4.087   0.153   1.627
 2905TIP3    H2 8680   4.175   0.275   1.618
 2906TIP3   OH2 8681   4.389   2.846   2.698
 2906TIP3    H1 8682   4.360   2.934   2.672
 2906TIP3    H2 8683   4.327   2.787   2.655
 2907TIP3   OH2 8684   4.057   2.732   0.170
 2907TIP3    H1 8685   4.027   2.654   0.216
 2907TIP3    H2 8686   3.986   2.752   0.108
 2908TIP3   OH2 8687   2.913   2.507   3.798
 2908TIP3    H1 8688   2.817   2.504   3.794
 2908TIP3    H2 8689   2.937   2.571   3.731
 2909TIP3   OH2 8690   4.496   1.094   0.452
 2909TIP3    H1 8691   4.458   1.038   0.384
 2909TIP3    H2 8692   4.534   1.032   0.515
 2910TIP3   OH2 8693   2.627   5.228   4.549
 2910TIP3    H1 8694   2.666   5.157   4.601
 2910TIP3    H2 8695   2.696   5.252   4.487
 2911TIP3   OH2 8696   0.331   6.348   2.701
 2911TIP3    H1 8697   0.274   6.290   2.752
 2911TIP3    H2 8698   0.420   6.318   2.722
 2912TIP3   OH2 8699   6.654   1.540   2.065
 2912TIP3    H1 8700   6.613   1.543   2.151
 2912TIP3    H2 8701   6.697   1.455   2.061
 2913TIP3   OH2 8702   4.970   5.539   5.240
 2913TIP3    H1 8703   4.923   5.559   5.321
 2913TIP3    H2 8704   4.918   5.580   5.171
 2914TIP3   OH2 8705   3.685   4.218   0.033
 2914TIP3    H1 8706   3.600   4.250   0.063
 2914TIP3    H2 8707   3.699   4.137   0.081
 2915TIP3   OH2 8708   6.000   3.298   1.737
 2915TIP3    H1 8709   6.012   3.374   1.680
 2915TIP3    H2 8710   6.087   3.282   1.773
 2916TIP3   OH2 8711   1.978   0.149   0.191
 2916TIP3    H1 8712   2.006   0.097   0.266
 2916TIP3    H2 8713   2.005   0.097   0.115
 2917TIP3   OH2 8714   2.918   0.141   5.030
 2917TIP3    H1 8715   2.964   0.066   5.068
 2917TIP3    H2 8716   2.950   0.145   4.940
 2918TIP3   OH2 8717   0.924   5.649   4.298
 2918TIP3    H1 8718   0.973   5.731   4.307
 2918TIP3    H2 8719   0.832   5.675   4.311
 2919TIP3   OH2 8720   5.179   6.662   4.847
 2919TIP3    H1 8721   5.146   6.727   4.784
 2919TIP3    H2 8722   5.258   6.627   4.806
 2920TIP3   OH2 8723   4.227   5.927   0.290
 2920TIP3    H1 8724   4.234   5.875   0.210
 2920TIP3    H2 8725   4.298   5.990   0.284
 2921TIP3   OH2 8726   0.161   2.057   4.629
 2921TIP3    H1 8727   0.125   2.106   4.703
 2921TIP3    H2 8728   0.165   2.121   4.557
 2922TIP3   OH2 8729   6.862   3.349   1.600
 2922TIP3    H1 8730   6.808   3.285   1.646
 2922TIP3    H2 8731   6.808   3.429   1.599
 2923TIP3   OH2 8732   3.860   6.149   2.236
 2923TIP3    H1 8733   3.921   6.174   2.305
 2923TIP3    H2 8734   3.890   6.062   2.208
 2924TIP3   OH2 8735   0.001   0.046   0.953
 2924TIP3    H1 8736   0.035   0.123   0.998
 2924TIP3    H2 8737   0.041   0.050   0.866
 2925TIP3   OH2 8738   0.922   5.936   1.698
 2925TIP3    H1 8739   0.941   5.931   1.604
 2925TIP3    H2 8740   0.829   5.915   1.705
 2926TIP3   OH2 8741   3.443   2.429   0.593
 2926TIP3    H1 8742   3.454   2.520   0.622
 2926TIP3    H2 8743   3.358   2.403   0.629
 2927TIP3   OH2 8744   2.158   5.265   3.740
 2927TIP3    H1 8745   2.098   5.338   3.724
 2927TIP3    H2 8746   2.244   5.299   3.716
 2928TIP3   OH2 8747   5.454   4.898   0.752
 2928TIP3    H1 8748   5.360   4.906   0.769
 2928TIP3    H2 8749   5.491   4.864   0.834
 2929TIP3   OH2 8750   6.392   6.754   3.543
 2929TIP3    H1 8751   6.328   6.825   3.548
 2929TIP3    H2 8752   6.473   6.796   3.513
 2930TIP3   OH2 8753   4.474   0.652   0.554
 2930TIP3    H1 8754   4.484   0.746   0.570
 2930TIP3    H2 8755   4.405   0.625   0.615
 2931TIP3   OH2 8756   1.361   1.823   5.054
 2931TIP3    H1 8757   1.378   1.865   4.969
 2931TIP3    H2 8758   1.448   1.802   5.087
 2932TIP3   OH2 8759   3.237   2.438   1.322
 2932TIP3    H1 8760   3.228   2.462   1.415
 2932TIP3    H2 8761   3.235   2.522   1.276
 2933TIP3   OH2 8762   2.332   4.087   0.930
 2933TIP3    H1 8763   2.264   4.126   0.985
 2933TIP3    H2 8764   2.408   4.079   0.987
 2934TIP3   OH2 8765   5.844   2.679   2.516
 2934TIP3    H1 8766   5.874   2.616   2.451
 2934TIP3    H2 8767   5.833   2.628   2.596
 2935TIP3   OH2 8768   6.411   5.543   0.339
 2935TIP3    H1 8769   6.355   5.593   0.280
 2935TIP3    H2 8770   6.471   5.608   0.376
 2936TIP3   OH2 8771   2.807   0.367   4.494
 2936TIP3    H1 8772   2.787   0.284   4.451
 2936TIP3    H2 8773   2.782   0.434   4.430
 2937TIP3   OH2 8774   0.286   1.160   2.758
 2937TIP3    H1 8775   0.250   1.074   2.737
 2937TIP3    H2 8776   0.362   1.170   2.700
 2938TIP3   OH2 8777   3.955   2.408   4.283
 2938TIP3    H1 8778   3.894   2.412   4.356
 2938TIP3    H2 8779   3.924   2.474   4.222
 2939TIP3   OH2 8780   1.979   4.029   3.410
 2939TIP3    H1 8781   1.894   4.023   3.454
 2939TIP3    H2 8782   2.038   3.975   3.464
 2940TIP3   OH2 8783   2.770   1.831   0.626
 2940TIP3    H1 8784   2.711   1.821   0.551
 2940TIP3    H2 8785   2.719   1.801   0.700
 2941TIP3   OH2 8786   4.460   2.331   4.479
 2941TIP3    H1 8787   4.430   2.379   4.557
 2941TIP3    H2 8788   4.386   2.276   4.455
 2942TIP3   OH2 8789   6.302   1.355   4.834
 2942TIP3    H1 8790   6.311   1.282   4.772
 2942TIP3    H2 8791   6.221   1.398   4.808
 2943TIP3   OH2 8792   3.150   3.917   2.438
 2943TIP3    H1 8793   3.089   3.961   2.498
 2943TIP3    H2 8794   3.155   3.827   2.471
 2944TIP3   OH2 8795   6.149   4.743   5.733
 2944TIP3    H1 8796   6.223   4.686   5.755
 2944TIP3    H2 8797   6.130   4.790   5.814
 2945TIP3   OH2 8798   4.130   2.393   5.594
 2945TIP3    H1 8799   4.183   2.372   5.518
 2945TIP3    H2 8800   4.057   2.445   5.559
 2946TIP3   OH2 8801   4.254   3.102   3.296
 2946TIP3    H1 8802   4.298   3.180   3.260
 2946TIP3    H2 8803   4.233   3.049   3.219
 2947TIP3   OH2 8804   2.041   3.145   3.884
 2947TIP3    H1 8805   1.999   3.222   3.923
 2947TIP3    H2 8806   1.974   3.108   3.826
 2948TIP3   OH2 8807   1.506   6.630   4.222
 2948TIP3    H1 8808   1.595   6.601   4.241
 2948TIP3    H2 8809   1.465   6.641   4.308
 2949TIP3   OH2 8810   4.050   1.857   5.531
 2949TIP3    H1 8811   3.971   1.907   5.550
 2949TIP3    H2 8812   4.031   1.812   5.449
 2950TIP3   OH2 8813   3.489   2.559   3.822
 2950TIP3    H1 8814   3.502   2.643   3.865
 2950TIP3    H2 8815   3.577   2.522   3.814
 2951TIP3   OH2 8816   7.186   5.716   2.031
 2951TIP3    H1 8817   7.274   5.708   1.993
 2951TIP3    H2 8818   7.163   5.627   2.057
 2952TIP3   OH2 8819   2.817   0.434   3.324
 2952TIP3    H1 8820   2.725   0.420   3.303
 2952TIP3    H2 8821   2.861   0.353   3.297
 2953TIP3   OH2 8822   6.837   5.964   1.890
 2953TIP3    H1 8823   6.793   5.898   1.837
 2953TIP3    H2 8824   6.881   5.915   1.959
 2954TIP3   OH2 8825   0.288   5.468   1.853
 2954TIP3    H1 8826   0.218   5.403   1.847
 2954TIP3    H2 8827   0.357   5.424   1.902
 2955TIP3   OH2 8828   5.302   2.158   4.979
 2955TIP3    H1 8829   5.337   2.247   4.978
 2955TIP3    H2 8830   5.364   2.108   4.926
 2956TIP3   OH2 8831   1.589   4.267   2.203
 2956TIP3    H1 8832   1.669   4.292   2.156
 2956TIP3    H2 8833   1.573   4.340   2.263
 2957TIP3   OH2 8834   2.368   2.992   1.554
 2957TIP3    H1 8835   2.423   3.070   1.552
 2957TIP3    H2 8836   2.365   2.967   1.647
 2958TIP3   OH2 8837   6.617   1.557   0.817
 2958TIP3    H1 8838   6.606   1.573   0.910
 2958TIP3    H2 8839   6.530   1.534   0.786
 2959TIP3   OH2 8840   6.514   0.640   4.894
 2959TIP3    H1 8841   6.526   0.730   4.924
 2959TIP3    H2 8842   6.557   0.586   4.961
 2960TIP3   OH2 8843   4.690   6.105   2.086
 2960TIP3    H1 8844   4.703   6.135   1.996
 2960TIP3    H2 8845   4.741   6.024   2.092
 2961TIP3   OH2 8846   0.392   1.567   2.165
 2961TIP3    H1 8847   0.458   1.608   2.222
 2961TIP3    H2 8848   0.333   1.638   2.141
 2962TIP3   OH2 8849   6.406   2.002   0.627
 2962TIP3    H1 8850   6.392   2.043   0.712
 2962TIP3    H2 8851   6.321   2.005   0.584
 2963TIP3   OH2 8852   4.457   3.823   1.973
 2963TIP3    H1 8853   4.539   3.785   2.003
 2963TIP3    H2 8854   4.467   3.917   1.988
 2964TIP3   OH2 8855   2.718   2.070   4.952
 2964TIP3    H1 8856   2.671   2.131   5.009
 2964TIP3    H2 8857   2.649   2.016   4.914
 2965TIP3   OH2 8858   3.636   0.303   2.118
 2965TIP3    H1 8859   3.631   0.217   2.076
 2965TIP3    H2 8860   3.550   0.315   2.157
 2966TIP3   OH2 8861   0.377   0.703   0.786
 2966TIP3    H1 8862   0.332   0.777   0.745
 2966TIP3    H2 8863   0.469   0.728   0.787
 2967TIP3   OH2 8864   5.309   0.299   4.785
 2967TIP3    H1 8865   5.369   0.373   4.796
 2967TIP3    H2 8866   5.251   0.304   4.860
 2968TIP3   OH2 8867   2.957   3.598   3.016
 2968TIP3    H1 8868   3.017   3.661   2.977
 2968TIP3    H2 8869   3.007   3.517   3.023
 2969TIP3   OH2 8870   5.726   3.082   3.046
 2969TIP3    H1 8871   5.725   3.001   3.097
 2969TIP3    H2 8872   5.647   3.078   2.992
 2970TIP3   OH2 8873   0.341   4.516   3.910
 2970TIP3    H1 8874   0.249   4.503   3.888
 2970TIP3    H2 8875   0.358   4.608   3.890
 2971TIP3   OH2 8876   7.140   4.922   0.940
 2971TIP3    H1 8877   7.103   4.834   0.953
 2971TIP3    H2 8878   7.228   4.906   0.907
 2972TIP3   OH2 8879   1.837   6.220   1.629
 2972TIP3    H1 8880   1.922   6.191   1.594
 2972TIP3    H2 8881   1.780   6.145   1.617
 2973TIP3   OH2 8882   1.646   2.830   5.101
 2973TIP3    H1 8883   1.712   2.867   5.159
 2973TIP3    H2 8884   1.563   2.865   5.133
 2974TIP3   OH2 8885   4.351   3.301   3.163
 2974TIP3    H1 8886   4.408   3.349   3.102
 2974TIP3    H2 8887   4.273   3.356   3.171
 2975TIP3   OH2 8888   2.272   6.698   0.384
 2975TIP3    H1 8889   2.215   6.626   0.357
 2975TIP3    H2 8890   2.358   6.676   0.348
 2976TIP3   OH2 8891   2.274   4.703   1.092
 2976TIP3    H1 8892   2.353   4.676   1.044
 2976TIP3    H2 8893   2.224   4.622   1.104
 2977TIP3   OH2 8894   1.905   6.365   4.574
 2977TIP3    H1 8895   1.911   6.460   4.584
 2977TIP3    H2 8896   1.956   6.346   4.495
 2978TIP3   OH2 8897   5.421   5.870   0.409
 2978TIP3    H1 8898   5.474   5.824   0.344
 2978TIP3    H2 8899   5.375   5.938   0.360
 2979TIP3   OH2 8900   6.790   4.455   3.611
 2979TIP3    H1 8901   6.716   4.397   3.630
 2979TIP3    H2 8902   6.778   4.479   3.519
 2980TIP3   OH2 8903   5.939   5.287   3.215
 2980TIP3    H1 8904   5.958   5.197   3.244
 2980TIP3    H2 8905   6.019   5.314   3.170
 2981TIP3   OH2 8906   6.879   3.877   4.911
 2981TIP3    H1 8907   6.789   3.891   4.882
 2981TIP3    H2 8908   6.902   3.958   4.958
 2982TIP3   OH2 8909   6.828   6.283   4.519
 2982TIP3    H1 8910   6.746   6.298   4.567
 2982TIP3    H2 8911   6.897   6.303   4.583
 2983TIP3   OH2 8912   6.109   0.576   1.957
 2983TIP3    H1 8913   6.029   0.550   1.911
 2983TIP3    H2 8914   6.124   0.666   1.930
 2984TIP3   OH2 8915   5.448   4.369   2.138
 2984TIP3    H1 8916   5.406   4.300   2.086
 2984TIP3    H2 8917   5.542   4.349   2.133
 2985TIP3   OH2 8918   4.284   6.282   2.273
 2985TIP3    H1 8919   4.203   6.240   2.304
 2985TIP3    H2 8920   4.296   6.357   2.331
 2986TIP3   OH2 8921   2.789   5.660   5.477
 2986TIP3    H1 8922   2.748   5.605   5.544
 2986TIP3    H2 8923   2.750   5.747   5.492
 2987TIP3   OH2 8924   3.866   6.421   3.478
 2987TIP3    H1 8925   3.898   6.492   3.533
 2987TIP3    H2 8926   3.945   6.370   3.457
 2988TIP3   OH2 8927   5.472   6.772   1.375
 2988TIP3    H1 8928   5.386   6.814   1.366
 2988TIP3    H2 8929   5.456   6.679   1.362
 2989TIP3   OH2 8930   5.971   0.049   1.879
 2989TIP3    H1 8931   5.923   0.056   1.961
 2989TIP3    H2 8932   5.913  -0.002   1.822
 2990TIP3   OH2 8933   2.332   1.581   3.662
 2990TIP3    H1 8934   2.253   1.616   3.622
 2990TIP3    H2 8935   2.300   1.526   3.733
 2991TIP3   OH2 8936   5.991   0.415   0.317
 2991TIP3    H1 8937   5.963   0.449   0.233
 2991TIP3    H2 8938   6.063   0.356   0.297
 2992TIP3   OH2 8939   6.226   5.386   5.366
 2992TIP3    H1 8940   6.205   5.434   5.446
 2992TIP3    H2 8941   6.316   5.411   5.345
 2993TIP3   OH2 8942   4.950   3.175   2.416
 2993TIP3    H1 8943   4.936   3.105   2.481
 2993TIP3    H2 8944   4.862   3.200   2.389
 2994TIP3   OH2 8945   4.874   5.810   3.181
 2994TIP3    H1 8946   4.873   5.822   3.086
 2994TIP3    H2 8947   4.826   5.884   3.216
 2995TIP3   OH2 8948   1.879   1.768   3.692
 2995TIP3    H1 8949   1.849   1.818   3.616
 2995TIP3    H2 8950   1.799   1.744   3.739
 2996TIP3   OH2 8951   1.721   0.244   2.513
 2996TIP3    H1 8952   1.679   0.174   2.564
 2996TIP3    H2 8953   1.727   0.207   2.425
 2997TIP3   OH2 8954   3.399   4.992   5.268
 2997TIP3    H1 8955   3.373   4.906   5.237
 2997TIP3    H2 8956   3.447   4.975   5.349
 2998TIP3   OH2 8957   2.863   1.122   3.108
 2998TIP3    H1 8958   2.906   1.202   3.139
 2998TIP3    H2 8959   2.805   1.097   3.180
 2999TIP3   OH2 8960   2.342   1.211   2.474
 2999TIP3    H1 8961   2.364   1.299   2.443
 2999TIP3    H2 8962   2.346   1.156   2.395
 3000TIP3   OH2 8963   5.078   4.156   3.737
 3000TIP3    H1 8964   5.132   4.200   3.671
 3000TIP3    H2 8965   5.032   4.087   3.689
 3001TIP3   OH2 8966   6.016   1.982   1.634
 3001TIP3    H1 8967   6.063   1.907   1.669
 3001TIP3    H2 8968   6.048   1.991   1.544
 3002TIP3   OH2 8969   3.766   2.660   3.587
 3002TIP3    H1 8970   3.761   2.695   3.676
 3002TIP3    H2 8971   3.698   2.707   3.539
 3003TIP3   OH2 8972   6.461   3.390   4.982
 3003TIP3    H1 8973   6.541   3.421   4.940
 3003TIP3    H2 8974   6.457   3.438   5.064
 3004TIP3   OH2 8975   2.627   3.859   3.097
 3004TIP3    H1 8976   2.703   3.909   3.067
 3004TIP3    H2 8977   2.552   3.912   3.071
 3005TIP3   OH2 8978   0.213   2.687   4.805
 3005TIP3    H1 8979   0.139   2.702   4.747
 3005TIP3    H2 8980   0.287   2.670   4.746
 3006TIP3   OH2 8981   6.561   4.605   2.238
 3006TIP3    H1 8982   6.646   4.620   2.279
 3006TIP3    H2 8983   6.548   4.681   2.182
 3007TIP3   OH2 8984   6.037   6.457   0.565
 3007TIP3    H1 8985   6.045   6.371   0.522
 3007TIP3    H2 8986   5.947   6.484   0.545
 3008TIP3   OH2 8987   1.688   2.028   1.863
 3008TIP3    H1 8988   1.725   2.117   1.867
 3008TIP3    H2 8989   1.764   1.971   1.874
 3009TIP3   OH2 8990   1.039   6.766   0.996
 3009TIP3    H1 8991   0.991   6.781   1.077
 3009TIP3    H2 8992   1.130   6.787   1.018
 3010TIP3   OH2 8993   3.990   2.470   0.351
 3010TIP3    H1 8994   3.992   2.547   0.408
 3010TIP3    H2 8995   3.944   2.403   0.402
 3011TIP3   OH2 8996   7.127   0.691   1.580
 3011TIP3    H1 8997   7.174   0.746   1.643
 3011TIP3    H2 8998   7.035   0.699   1.606
 3012TIP3   OH2 8999   7.165   2.946   0.875
 3012TIP3    H1 9000   7.232   2.927   0.941
 3012TIP3    H2 9001   7.180   3.037   0.851
 3013TIP3   OH2 9002   6.418   5.374   0.102
 3013TIP3    H1 9003   6.471   5.294   0.101
 3013TIP3    H2 9004   6.430   5.411   0.189
 3014TIP3   OH2 9005   5.671   1.728   3.870
 3014TIP3    H1 9006   5.636   1.683   3.946
 3014TIP3    H2 9007   5.645   1.675   3.795
 3015TIP3   OH2 9008   3.225  -0.019   5.410
 3015TIP3    H1 9009   3.216   0.041   5.483
 3015TIP3    H2 9010   3.254  -0.101   5.450
 3016TIP3   OH2 9011   0.327   5.306   1.200
 3016TIP3    H1 9012   0.294   5.365   1.132
 3016TIP3    H2 9013   0.251   5.255   1.226
 3017TIP3   OH2 9014   5.344   3.335   4.203
 3017TIP3    H1 9015   5.282   3.266   4.227
 3017TIP3    H2 9016   5.430   3.291   4.203
 3018TIP3   OH2 9017   3.410   4.324   5.872
 3018TIP3    H1 9018   3.369   4.340   5.787
 3018TIP3    H2 9019   3.381   4.236   5.896
 3019TIP3   OH2 9020   4.794   5.016   4.138
 3019TIP3    H1 9021   4.707   5.057   4.131
 3019TIP3    H2 9022   4.791   4.968   4.221
 3020TIP3   OH2 9023   6.825   6.264   2.830
 3020TIP3    H1 9024   6.743   6.239   2.871
 3020TIP3    H2 9025   6.805   6.346   2.785
 3021TIP3   OH2 9026   3.314   0.443   4.738
 3021TIP3    H1 9027   3.305   0.398   4.821
 3021TIP3    H2 9028   3.339   0.533   4.762
 3022TIP3   OH2 9029   4.947   5.647   4.560
 3022TIP3    H1 9030   4.881   5.578   4.551
 3022TIP3    H2 9031   5.002   5.619   4.632
 3023TIP3   OH2 9032   3.000   0.694   4.813
 3023TIP3    H1 9033   2.992   0.683   4.718
 3023TIP3    H2 9034   2.940   0.629   4.850
 3024TIP3   OH2 9035   1.505   3.309   5.239
 3024TIP3    H1 9036   1.461   3.392   5.220
 3024TIP3    H2 9037   1.566   3.297   5.167
 3025TIP3   OH2 9038   5.738   2.242   4.682
 3025TIP3    H1 9039   5.688   2.209   4.608
 3025TIP3    H2 9040   5.774   2.325   4.652
 3026TIP3   OH2 9041   2.173   5.403   0.743
 3026TIP3    H1 9042   2.177   5.334   0.809
 3026TIP3    H2 9043   2.100   5.459   0.770
 3027TIP3   OH2 9044   6.559   1.132   1.256
 3027TIP3    H1 9045   6.619   1.148   1.329
 3027TIP3    H2 9046   6.486   1.085   1.295
 3028TIP3   OH2 9047   4.780   5.506   1.799
 3028TIP3    H1 9048   4.769   5.497   1.894
 3028TIP3    H2 9049   4.695   5.482   1.762
 3029TIP3   OH2 9050   5.644   3.793   2.660
 3029TIP3    H1 9051   5.585   3.859   2.623
 3029TIP3    H2 9052   5.593   3.750   2.729
 3030TIP3   OH2 9053   1.392   1.791   4.396
 3030TIP3    H1 9054   1.451   1.722   4.428
 3030TIP3    H2 9055   1.310   1.746   4.379
 3031TIP3   OH2 9056   2.389   1.178   3.445
 3031TIP3    H1 9057   2.472   1.206   3.483
 3031TIP3    H2 9058   2.337   1.258   3.436
 3032TIP3   OH2 9059   2.930   6.559   4.021
 3032TIP3    H1 9060   2.854   6.505   4.044
 3032TIP3    H2 9061   2.965   6.519   3.942
 3033TIP3   OH2 9062   0.965   5.591   2.750
 3033TIP3    H1 9063   1.001   5.503   2.759
 3033TIP3    H2 9064   0.993   5.620   2.664
 3034TIP3   OH2 9065   5.923   0.694   1.038
 3034TIP3    H1 9066   5.878   0.611   1.054
 3034TIP3    H2 9067   6.010   0.682   1.076
 3035TIP3   OH2 9068   3.459   6.284   3.470
 3035TIP3    H1 9069   3.457   6.214   3.404
 3035TIP3    H2 9070   3.500   6.357   3.425
 3036TIP3   OH2 9071   6.528   1.342   1.096
 3036TIP3    H1 9072   6.559   1.273   1.155
 3036TIP3    H2 9073   6.443   1.312   1.064
 3037TIP3   OH2 9074   3.191   6.448   2.911
 3037TIP3    H1 9075   3.222   6.534   2.880
 3037TIP3    H2 9076   3.161   6.464   3.000
 3038TIP3   OH2 9077   4.332   5.754   0.809
 3038TIP3    H1 9078   4.300   5.750   0.719
 3038TIP3    H2 9079   4.253   5.766   0.862
 3039TIP3   OH2 9080   4.487   5.955   0.441
 3039TIP3    H1 9081   4.515   5.945   0.532
 3039TIP3    H2 9082   4.401   5.913   0.438
 3040TIP3   OH2 9083   3.092   1.849   5.711
 3040TIP3    H1 9084   3.019   1.911   5.711
 3040TIP3    H2 9085   3.066   1.782   5.647
 3041TIP3   OH2 9086   2.794   0.497   4.978
 3041TIP3    H1 9087   2.845   0.454   5.047
 3041TIP3    H2 9088   2.795   0.434   4.905
 3042TIP3   OH2 9089   1.205   3.328   5.429
 3042TIP3    H1 9090   1.166   3.274   5.498
 3042TIP3    H2 9091   1.234   3.408   5.473
 3043TIP3   OH2 9092   6.857   5.638   3.475
 3043TIP3    H1 9093   6.865   5.621   3.381
 3043TIP3    H2 9094   6.943   5.671   3.501
 3044TIP3   OH2 9095   2.934   3.906   0.120
 3044TIP3    H1 9096   2.947   3.832   0.060
 3044TIP3    H2 9097   2.875   3.872   0.187
 3045TIP3   OH2 9098   7.022   3.386   2.736
 3045TIP3    H1 9099   7.071   3.456   2.694
 3045TIP3    H2 9100   6.984   3.336   2.664
 3046TIP3   OH2 9101   1.949   3.555   1.756
 3046TIP3    H1 9102   1.943   3.628   1.818
 3046TIP3    H2 9103   1.934   3.477   1.810
 3047TIP3   OH2 9104   0.604   5.334   0.910
 3047TIP3    H1 9105   0.581   5.427   0.908
 3047TIP3    H2 9106   0.699   5.332   0.898
 3048TIP3   OH2 9107   2.474   2.780   1.374
 3048TIP3    H1 9108   2.422   2.849   1.415
 3048TIP3    H2 9109   2.548   2.826   1.335
 3049TIP3   OH2 9110   2.111   3.197   3.421
 3049TIP3    H1 9111   2.092   3.257   3.348
 3049TIP3    H2 9112   2.060   3.232   3.494
 3050TIP3   OH2 9113   0.233   4.532   1.113
 3050TIP3    H1 9114   0.195   4.530   1.025
 3050TIP3    H2 9115   0.163   4.502   1.170
 3051TIP3   OH2 9116   2.226   3.840   2.835
 3051TIP3    H1 9117   2.209   3.885   2.918
 3051TIP3    H2 9118   2.270   3.759   2.860
 3052TIP3   OH2 9119   5.551   4.570   1.460
 3052TIP3    H1 9120   5.643   4.589   1.442
 3052TIP3    H2 9121   5.530   4.621   1.538
 3053TIP3   OH2 9122   5.134   4.852   0.378
 3053TIP3    H1 9123   5.123   4.938   0.338
 3053TIP3    H2 9124   5.057   4.802   0.350
 3054TIP3   OH2 9125   2.302   4.769   3.555
 3054TIP3    H1 9126   2.318   4.703   3.623
 3054TIP3    H2 9127   2.260   4.841   3.601
 3055TIP3   OH2 9128   5.119   5.484   0.636
 3055TIP3    H1 9129   5.207   5.474   0.672
 3055TIP3    H2 9130   5.087   5.566   0.673
 3056TIP3   OH2 9131   6.221   6.254   2.613
 3056TIP3    H1 9132   6.291   6.206   2.568
 3056TIP3    H2 9133   6.191   6.194   2.681
 3057TIP3   OH2 9134   7.037   0.009   5.824
 3057TIP3    H1 9135   6.965  -0.021   5.880
 3057TIP3    H2 9136   7.071   0.086   5.869
 3058TIP3   OH2 9137   5.687   3.307   0.188
 3058TIP3    H1 9138   5.758   3.315   0.252
 3058TIP3    H2 9139   5.693   3.217   0.157
 3059TIP3   OH2 9140   0.245   4.160   0.154
 3059TIP3    H1 9141   0.234   4.148   0.060
 3059TIP3    H2 9142   0.299   4.086   0.181
 3060TIP3   OH2 9143   2.115   6.397   1.723
 3060TIP3    H1 9144   2.174   6.472   1.724
 3060TIP3    H2 9145   2.074   6.398   1.809
 3061TIP3   OH2 9146   6.549   4.499   1.389
 3061TIP3    H1 9147   6.487   4.555   1.435
 3061TIP3    H2 9148   6.520   4.410   1.409
 3062TIP3   OH2 9149   2.705   4.623   1.190
 3062TIP3    H1 9150   2.772   4.687   1.166
 3062TIP3    H2 9151   2.650   4.669   1.254
 3063TIP3   OH2 9152   3.485   0.937   5.367
 3063TIP3    H1 9153   3.477   1.013   5.310
 3063TIP3    H2 9154   3.486   0.862   5.307
 3064TIP3   OH2 9155   5.768   4.702   4.590
 3064TIP3    H1 9156   5.696   4.662   4.639
 3064TIP3    H2 9157   5.725   4.756   4.524
 3065TIP3   OH2 9158   1.572   3.138   4.232
 3065TIP3    H1 9159   1.586   3.093   4.148
 3065TIP3    H2 9160   1.659   3.169   4.257
 3066TIP3   OH2 9161   0.272   0.844   5.376
 3066TIP3    H1 9162   0.290   0.847   5.470
 3066TIP3    H2 9163   0.178   0.863   5.369
 3067TIP3   OH2 9164   0.268   2.367   5.232
 3067TIP3    H1 9165   0.230   2.425   5.166
 3067TIP3    H2 9166   0.323   2.307   5.182
 3068TIP3   OH2 9167   3.841   3.137   0.195
 3068TIP3    H1 9168   3.874   3.068   0.138
 3068TIP3    H2 9169   3.770   3.095   0.244
 3069TIP3   OH2 9170   2.537   3.132   5.770
 3069TIP3    H1 9171   2.567   3.046   5.799
 3069TIP3    H2 9172   2.510   3.119   5.679
 3070TIP3   OH2 9173   6.844   6.608   5.892
 3070TIP3    H1 9174   6.866   6.687   5.941
 3070TIP3    H2 9175   6.764   6.630   5.844
 3071TIP3   OH2 9176   1.427   4.684   2.929
 3071TIP3    H1 9177   1.463   4.598   2.950
 3071TIP3    H2 9178   1.488   4.721   2.866
 3072TIP3   OH2 9179   5.528   6.263   1.267
 3072TIP3    H1 9180   5.531   6.278   1.362
 3072TIP3    H2 9181   5.609   6.215   1.248
 3073TIP3   OH2 9182   5.483   2.327   4.568
 3073TIP3    H1 9183   5.396   2.360   4.590
 3073TIP3    H2 9184   5.539   2.405   4.572
 3074TIP3   OH2 9185   0.608   4.884   2.017
 3074TIP3    H1 9186   0.612   4.943   2.092
 3074TIP3    H2 9187   0.645   4.934   1.945
 3075TIP3   OH2 9188   4.230   2.648   2.617
 3075TIP3    H1 9189   4.155   2.608   2.572
 3075TIP3    H2 9190   4.292   2.576   2.627
 3076TIP3   OH2 9191   3.656   4.923   0.428
 3076TIP3    H1 9192   3.656   4.912   0.523
 3076TIP3    H2 9193   3.679   5.015   0.414
 3077TIP3   OH2 9194   2.295   6.534   2.325
 3077TIP3    H1 9195   2.362   6.578   2.377
 3077TIP3    H2 9196   2.276   6.454   2.373
 3078TIP3   OH2 9197   2.406   4.897   0.354
 3078TIP3    H1 9198   2.473   4.907   0.287
 3078TIP3    H2 9199   2.442   4.832   0.414
 3079TIP3   OH2 9200   1.428   2.587   3.553
 3079TIP3    H1 9201   1.399   2.671   3.519
 3079TIP3    H2 9202   1.383   2.578   3.637
 3080TIP3   OH2 9203   5.729   2.039   2.125
 3080TIP3    H1 9204   5.703   2.078   2.209
 3080TIP3    H2 9205   5.748   2.114   2.069
 3081TIP3   OH2 9206   0.853   2.435   2.330
 3081TIP3    H1 9207   0.850   2.496   2.256
 3081TIP3    H2 9208   0.773   2.452   2.379
 3082TIP3   OH2 9209   3.884   4.765   2.333
 3082TIP3    H1 9210   3.830   4.767   2.253
 3082TIP3    H2 9211   3.960   4.819   2.312
 3083TIP3   OH2 9212   0.609   3.734   5.004
 3083TIP3    H1 9213   0.636   3.720   5.095
 3083TIP3    H2 9214   0.677   3.790   4.967
 3084TIP3   OH2 9215   6.438   6.112   2.489
 3084TIP3    H1 9216   6.440   6.047   2.419
 3084TIP3    H2 9217   6.426   6.060   2.569
 3085TIP3   OH2 9218   2.802   6.506   0.815
 3085TIP3    H1 9219   2.883   6.557   0.810
 3085TIP3    H2 9220   2.826   6.428   0.867
 3086TIP3   OH2 9221   2.654   5.749   3.885
 3086TIP3    H1 9222   2.599   5.821   3.916
 3086TIP3    H2 9223   2.738   5.790   3.865
 3087TIP3   OH2 9224   6.901   0.657   4.940
 3087TIP3    H1 9225   6.951   0.613   4.871
 3087TIP3    H2 9226   6.892   0.748   4.909
 3088TIP3   OH2 9227   3.143   5.973   4.258
 3088TIP3    H1 9228   3.070   5.986   4.318
 3088TIP3    H2 9229   3.130   6.039   4.190
 3089TIP3   OH2 9230   3.378   2.709   4.988
 3089TIP3    H1 9231   3.285   2.703   5.011
 3089TIP3    H2 9232   3.423   2.716   5.072
 3090TIP3   OH2 9233   2.980   1.267   1.556
 3090TIP3    H1 9234   2.967   1.173   1.570
 3090TIP3    H2 9235   2.958   1.307   1.640
 3091TIP3   OH2 9236   2.732   6.495   2.290
 3091TIP3    H1 9237   2.693   6.411   2.315
 3091TIP3    H2 9238   2.826   6.476   2.282
 3092TIP3   OH2 9239   7.051   4.228   0.044
 3092TIP3    H1 9240   6.965   4.241   0.085
 3092TIP3    H2 9241   7.114   4.240   0.115
 3093TIP3   OH2 9242   1.756   5.653   2.244
 3093TIP3    H1 9243   1.720   5.564   2.248
 3093TIP3    H2 9244   1.847   5.644   2.270
 3094TIP3   OH2 9245   6.926   6.032   5.066
 3094TIP3    H1 9246   6.986   5.959   5.082
 3094TIP3    H2 9247   6.958   6.102   5.123
 3095TIP3   OH2 9248   4.190   5.433   2.044
 3095TIP3    H1 9249   4.163   5.367   1.980
 3095TIP3    H2 9250   4.124   5.427   2.113
 3096TIP3   OH2 9251   1.976   4.927   5.159
 3096TIP3    H1 9252   1.907   4.944   5.094
 3096TIP3    H2 9253   1.968   4.834   5.178
 3097TIP3   OH2 9254   3.212   5.572   5.661
 3097TIP3    H1 9255   3.140   5.631   5.639
 3097TIP3    H2 9256   3.196   5.494   5.609
 3098TIP3   OH2 9257   0.907   1.430   4.477
 3098TIP3    H1 9258   0.929   1.363   4.412
 3098TIP3    H2 9259   0.861   1.498   4.427
 3099TIP3   OH2 9260   2.399   1.681   2.722
 3099TIP3    H1 9261   2.381   1.587   2.715
 3099TIP3    H2 9262   2.412   1.696   2.816
 3100TIP3   OH2 9263   4.623   0.723   0.202
 3100TIP3    H1 9264   4.676   0.774   0.141
 3100TIP3    H2 9265   4.687   0.679   0.258
 3101TIP3   OH2 9266   1.904   5.256   4.487
 3101TIP3    H1 9267   1.824   5.221   4.526
 3101TIP3    H2 9268   1.919   5.201   4.410
 3102TIP3   OH2 9269   3.444   2.657   2.530
 3102TIP3    H1 9270   3.511   2.692   2.590
 3102TIP3    H2 9271   3.443   2.719   2.458
 3103TIP3   OH2 9272   2.301   3.131   0.686
 3103TIP3    H1 9273   2.346   3.171   0.611
 3103TIP3    H2 9274   2.371   3.102   0.744
 3104TIP3   OH2 9275   0.669   1.232   4.159
 3104TIP3    H1 9276   0.672   1.213   4.065
 3104TIP3    H2 9277   0.628   1.318   4.165
 3105TIP3   OH2 9278   1.973   5.640   5.407
 3105TIP3    H1 9279   1.983   5.571   5.473
 3105TIP3    H2 9280   1.931   5.712   5.453
 3106TIP3   OH2 9281   1.659   2.218   3.825
 3106TIP3    H1 9282   1.711   2.193   3.749
 3106TIP3    H2 9283   1.722   2.258   3.885
 3107TIP3   OH2 9284   1.098   5.916   0.534
 3107TIP3    H1 9285   1.024   5.962   0.495
 3107TIP3    H2 9286   1.175   5.962   0.500
 3108TIP3   OH2 9287   3.507   5.377   1.252
 3108TIP3    H1 9288   3.584   5.420   1.216
 3108TIP3    H2 9289   3.433   5.430   1.220
 3109TIP3   OH2 9290   6.224   6.586   0.913
 3109TIP3    H1 9291   6.227   6.641   0.991
 3109TIP3    H2 9292   6.198   6.645   0.843
 3110TIP3   OH2 9293   3.681   5.063   3.854
 3110TIP3    H1 9294   3.759   5.117   3.865
 3110TIP3    H2 9295   3.706   4.977   3.887
 3111TIP3   OH2 9296   4.994   4.867   5.536
 3111TIP3    H1 9297   5.030   4.816   5.609
 3111TIP3    H2 9298   5.061   4.864   5.468
 3112TIP3   OH2 9299   4.550   0.210   5.594
 3112TIP3    H1 9300   4.495   0.279   5.631
 3112TIP3    H2 9301   4.609   0.255   5.533
 3113TIP3   OH2 9302   7.210   0.810   0.858
 3113TIP3    H1 9303   7.143   0.874   0.834
 3113TIP3    H2 9304   7.164   0.748   0.915
 3114TIP3   OH2 9305   5.134   2.982   5.090
 3114TIP3    H1 9306   5.135   3.008   4.998
 3114TIP3    H2 9307   5.044   2.951   5.105
 3115TIP3   OH2 9308   2.690   4.080   5.171
 3115TIP3    H1 9309   2.759   4.066   5.105
 3115TIP3    H2 9310   2.735   4.071   5.255
 3116TIP3   OH2 9311   6.530   4.096   2.488
 3116TIP3    H1 9312   6.555   4.071   2.577
 3116TIP3    H2 9313   6.584   4.173   2.469
 3117TIP3   OH2 9314   6.504   1.072   0.627
 3117TIP3    H1 9315   6.460   1.142   0.579
 3117TIP3    H2 9316   6.456   0.993   0.604
 3118TIP3   OH2 9317   6.762   3.324   4.882
 3118TIP3    H1 9318   6.756   3.277   4.798
 3118TIP3    H2 9319   6.727   3.262   4.946
 3119TIP3   OH2 9320   5.267   2.892   4.584
 3119TIP3    H1 9321   5.359   2.890   4.558
 3119TIP3    H2 9322   5.269   2.914   4.677
 3120TIP3   OH2 9323   3.356   5.718   2.066
 3120TIP3    H1 9324   3.382   5.711   1.975
 3120TIP3    H2 9325   3.401   5.795   2.099
 3121TIP3   OH2 9326   6.082   3.980   5.313
 3121TIP3    H1 9327   6.134   4.055   5.284
 3121TIP3    H2 9328   5.996   4.017   5.332
 3122TIP3   OH2 9329   3.389   4.325   1.440
 3122TIP3    H1 9330   3.356   4.334   1.530
 3122TIP3    H2 9331   3.317   4.282   1.393
 3123TIP3   OH2 9332   6.067   2.294   3.940
 3123TIP3    H1 9333   6.072   2.199   3.927
 3123TIP3    H2 9334   6.072   2.330   3.852
 3124TIP3   OH2 9335   0.097   1.084   2.081
 3124TIP3    H1 9336   0.062   1.032   2.153
 3124TIP3    H2 9337   0.150   1.023   2.030
 3125TIP3   OH2 9338   5.038   1.382   0.252
 3125TIP3    H1 9339   5.094   1.456   0.229
 3125TIP3    H2 9340   4.979   1.372   0.177
 3126TIP3   OH2 9341   4.435  -0.006   3.572
 3126TIP3    H1 9342   4.457   0.028   3.485
 3126TIP3    H2 9343   4.341  -0.023   3.568
 3127TIP3   OH2 9344   6.828   1.766   1.260
 3127TIP3    H1 9345   6.818   1.751   1.354
 3127TIP3    H2 9346   6.923   1.767   1.246
 3128TIP3   OH2 9347   1.418   3.040   4.745
 3128TIP3    H1 9348   1.403   3.066   4.654
 3128TIP3    H2 9349   1.484   2.971   4.739
 3129TIP3   OH2 9350   3.504   5.043   0.823
 3129TIP3    H1 9351   3.503   5.039   0.919
 3129TIP3    H2 9352   3.418   5.079   0.801
 3130TIP3   OH2 9353   3.558   2.327   4.586
 3130TIP3    H1 9354   3.490   2.355   4.648
 3130TIP3    H2 9355   3.635   2.378   4.609
 3131TIP3   OH2 9356   4.079   5.046   2.678
 3131TIP3    H1 9357   4.111   5.135   2.664
 3131TIP3    H2 9358   4.058   5.042   2.771
 3132TIP3   OH2 9359   2.683   2.660   2.537
 3132TIP3    H1 9360   2.702   2.728   2.602
 3132TIP3    H2 9361   2.673   2.708   2.455
 3133TIP3   OH2 9362   6.648   2.656   5.003
 3133TIP3    H1 9363   6.711   2.728   5.005
 3133TIP3    H2 9364   6.619   2.646   5.093
 3134TIP3   OH2 9365   6.327   5.571   3.697
 3134TIP3    H1 9366   6.413   5.612   3.687
 3134TIP3    H2 9367   6.289   5.572   3.609
 3135TIP3   OH2 9368   2.201   3.772   0.319
 3135TIP3    H1 9369   2.273   3.713   0.342
 3135TIP3    H2 9370   2.164   3.798   0.404
 3136TIP3   OH2 9371   3.594   2.129   4.899
 3136TIP3    H1 9372   3.580   2.043   4.861
 3136TIP3    H2 9373   3.507   2.168   4.905
 3137TIP3   OH2 9374   1.238   6.297   1.598
 3137TIP3    H1 9375   1.265   6.228   1.537
 3137TIP3    H2 9376   1.165   6.341   1.554
 3138TIP3   OH2 9377   0.125   4.885   1.528
 3138TIP3    H1 9378   0.052   4.877   1.590
 3138TIP3    H2 9379   0.089   4.856   1.445
 3139TIP3   OH2 9380   0.153   4.133   4.161
 3139TIP3    H1 9381   0.082   4.189   4.192
 3139TIP3    H2 9382   0.222   4.144   4.226
 3140TIP3   OH2 9383   5.711   5.780   2.599
 3140TIP3    H1 9384   5.687   5.869   2.627
 3140TIP3    H2 9385   5.656   5.763   2.523
 3141TIP3   OH2 9386   0.248   2.178   1.967
 3141TIP3    H1 9387   0.272   2.154   2.056
 3141TIP3    H2 9388   0.228   2.272   1.972
 3142TIP3   OH2 9389   2.775   5.576   4.788
 3142TIP3    H1 9390   2.816   5.492   4.810
 3142TIP3    H2 9391   2.750   5.614   4.872
 3143TIP3   OH2 9392   6.844   1.514   3.847
 3143TIP3    H1 9393   6.853   1.421   3.830
 3143TIP3    H2 9394   6.921   1.554   3.805
 3144TIP3   OH2 9395   0.588   0.738   3.897
 3144TIP3    H1 9396   0.585   0.781   3.983
 3144TIP3    H2 9397   0.654   0.670   3.907
 3145TIP3   OH2 9398   7.044   1.343   3.520
 3145TIP3    H1 9399   6.954   1.317   3.502
 3145TIP3    H2 9400   7.044   1.438   3.509
 3146TIP3   OH2 9401   5.285   1.767   1.214
 3146TIP3    H1 9402   5.302   1.673   1.220
 3146TIP3    H2 9403   5.198   1.774   1.176
 3147TIP3   OH2 9404   1.126   2.186   1.363
 3147TIP3    H1 9405   1.101   2.109   1.312
 3147TIP3    H2 9406   1.152   2.251   1.297
 3148TIP3   OH2 9407   0.232   4.731   4.988
 3148TIP3    H1 9408   0.156   4.753   5.042
 3148TIP3    H2 9409   0.303   4.717   5.050
 3149TIP3   OH2 9410   3.126   4.072   0.183
 3149TIP3    H1 9411   3.050   4.014   0.172
 3149TIP3    H2 9412   3.194   4.033   0.127
 3150TIP3   OH2 9413   6.032   1.852   2.011
 3150TIP3    H1 9414   6.001   1.822   2.096
 3150TIP3    H2 9415   5.966   1.822   1.948
 3151TIP3   OH2 9416   1.382   0.337   5.038
 3151TIP3    H1 9417   1.288   0.319   5.030
 3151TIP3    H2 9418   1.398   0.410   4.978
 3152TIP3   OH2 9419   4.330   4.898   2.973
 3152TIP3    H1 9420   4.363   4.837   3.038
 3152TIP3    H2 9421   4.321   4.847   2.893
 3153TIP3   OH2 9422   0.737   6.466   0.640
 3153TIP3    H1 9423   0.771   6.540   0.691
 3153TIP3    H2 9424   0.710   6.402   0.706
 3154TIP3   OH2 9425   6.487   3.903   2.028
 3154TIP3    H1 9426   6.431   3.835   1.990
 3154TIP3    H2 9427   6.448   3.921   2.114
 3155TIP3   OH2 9428   2.434   6.139   4.231
 3155TIP3    H1 9429   2.415   6.149   4.138
 3155TIP3    H2 9430   2.436   6.045   4.245
 3156TIP3   OH2 9431   6.632   4.319   2.053
 3156TIP3    H1 9432   6.610   4.319   1.960
 3156TIP3    H2 9433   6.702   4.254   2.061
 3157TIP3   OH2 9434   1.652   1.433   0.925
 3157TIP3    H1 9435   1.627   1.493   0.996
 3157TIP3    H2 9436   1.694   1.360   0.970
 3158TIP3   OH2 9437   5.848   5.649   2.826
 3158TIP3    H1 9438   5.788   5.703   2.774
 3158TIP3    H2 9439   5.803   5.637   2.909
 3159TIP3   OH2 9440   2.587   4.545   3.154
 3159TIP3    H1 9441   2.502   4.589   3.150
 3159TIP3    H2 9442   2.646   4.609   3.193
 3160TIP3   OH2 9443   0.995   4.815   1.399
 3160TIP3    H1 9444   1.061   4.843   1.335
 3160TIP3    H2 9445   1.042   4.816   1.483
 3161TIP3   OH2 9446   5.643   2.554   2.258
 3161TIP3    H1 9447   5.659   2.646   2.235
 3161TIP3    H2 9448   5.557   2.555   2.300
 3162TIP3   OH2 9449   2.712   4.380   5.357
 3162TIP3    H1 9450   2.756   4.298   5.333
 3162TIP3    H2 9451   2.624   4.353   5.383
 3163TIP3   OH2 9452   1.098   1.801   5.101
 3163TIP3    H1 9453   1.123   1.747   5.176
 3163TIP3    H2 9454   1.172   1.796   5.041
 3164TIP3   OH2 9455   0.746   3.129   4.564
 3164TIP3    H1 9456   0.675   3.192   4.551
 3164TIP3    H2 9457   0.734   3.097   4.654
 3165TIP3   OH2 9458   1.024   4.841   3.627
 3165TIP3    H1 9459   1.098   4.829   3.687
 3165TIP3    H2 9460   0.975   4.760   3.633
 3166TIP3   OH2 9461   3.414   2.037   1.795
 3166TIP3    H1 9462   3.375   2.090   1.864
 3166TIP3    H2 9463   3.494   2.084   1.770
 3167TIP3   OH2 9464   3.321   3.799   1.869
 3167TIP3    H1 9465   3.410   3.834   1.874
 3167TIP3    H2 9466   3.333   3.704   1.867
 3168TIP3   OH2 9467   5.890   0.800   3.533
 3168TIP3    H1 9468   5.922   0.886   3.507
 3168TIP3    H2 9469   5.932   0.784   3.618
 3169TIP3   OH2 9470   7.085   5.465   4.568
 3169TIP3    H1 9471   7.046   5.495   4.486
 3169TIP3    H2 9472   7.178   5.483   4.559
 3170TIP3   OH2 9473   6.681   6.274   0.580
 3170TIP3    H1 9474   6.656   6.211   0.512
 3170TIP3    H2 9475   6.624   6.253   0.654
 3171TIP3   OH2 9476   6.589   2.590   1.677
 3171TIP3    H1 9477   6.592   2.672   1.628
 3171TIP3    H2 9478   6.502   2.591   1.719
 3172TIP3   OH2 9479   4.871   3.524   5.659
 3172TIP3    H1 9480   4.793   3.560   5.702
 3172TIP3    H2 9481   4.894   3.447   5.712
 3173TIP3   OH2 9482   1.573   0.719   4.844
 3173TIP3    H1 9483   1.651   0.669   4.867
 3173TIP3    H2 9484   1.565   0.786   4.912
 3174TIP3   OH2 9485   0.086   4.548   3.688
 3174TIP3    H1 9486   0.003   4.594   3.698
 3174TIP3    H2 9487   0.113   4.565   3.598
 3175TIP3   OH2 9488   5.871   5.162   0.052
 3175TIP3    H1 9489   5.788   5.126   0.021
 3175TIP3    H2 9490   5.875   5.137   0.145
 3176TIP3   OH2 9491   0.327   3.099   2.092
 3176TIP3    H1 9492   0.380   3.179   2.084
 3176TIP3    H2 9493   0.248   3.128   2.139
 3177TIP3   OH2 9494   2.348   0.691   3.885
 3177TIP3    H1 9495   2.416   0.688   3.952
 3177TIP3    H2 9496   2.320   0.600   3.875
 3178TIP3   OH2 9497   1.573   0.887   0.856
 3178TIP3    H1 9498   1.566   0.813   0.915
 3178TIP3    H2 9499   1.552   0.851   0.769
 3179TIP3   OH2 9500   5.671   5.902   4.225
 3179TIP3    H1 9501   5.592   5.946   4.194
 3179TIP3    H2 9502   5.708   5.962   4.290
 3180TIP3   OH2 9503   3.517   6.586   1.793
 3180TIP3    H1 9504   3.580   6.538   1.740
 3180TIP3    H2 9505   3.542   6.569   1.884
 3181TIP3   OH2 9506   1.692   6.187   3.698
 3181TIP3    H1 9507   1.658   6.178   3.787
 3181TIP3    H2 9508   1.745   6.267   3.701
 3182TIP3   OH2 9509   2.186   1.100   3.248
 3182TIP3    H1 9510   2.182   1.009   3.219
 3182TIP3    H2 9511   2.277   1.112   3.276
 3183TIP3   OH2 9512   5.055   6.729   4.415
 3183TIP3    H1 9513   5.124   6.664   4.426
 3183TIP3    H2 9514   4.992   6.709   4.483
 3184TIP3   OH2 9515   0.665   0.359   2.478
 3184TIP3    H1 9516   0.587   0.414   2.480
 3184TIP3    H2 9517   0.636   0.276   2.518
 3185TIP3   OH2 9518   6.191   6.522   5.654
 3185TIP3    H1 9519   6.221   6.493   5.740
 3185TIP3    H2 9520   6.110   6.474   5.639
 3186TIP3   OH2 9521   6.691   1.897   2.856
 3186TIP3    H1 9522   6.666   1.959   2.924
 3186TIP3    H2 9523   6.655   1.813   2.885
 3187TIP3   OH2 9524   3.696   5.335   2.468
 3187TIP3    H1 9525   3.759   5.381   2.412
 3187TIP3    H2 9526   3.749   5.304   2.542
 3188TIP3   OH2 9527   5.472   2.817   0.044
 3188TIP3    H1 9528   5.440   2.814  -0.046
 3188TIP3    H2 9529   5.480   2.911   0.064
 3189TIP3   OH2 9530   4.264   6.340   3.782
 3189TIP3    H1 9531   4.324   6.411   3.802
 3189TIP3    H2 9532   4.271   6.329   3.687
 3190TIP3   OH2 9533   5.265   5.518   3.059
 3190TIP3    H1 9534   5.295   5.427   3.061
 3190TIP3    H2 9535   5.215   5.529   3.139
 3191TIP3   OH2 9536   5.572   5.993   0.610
 3191TIP3    H1 9537   5.663   5.963   0.609
 3191TIP3    H2 9538   5.535   5.960   0.528
 3192TIP3   OH2 9539   0.685   5.930   2.927
 3192TIP3    H1 9540   0.692   5.848   2.974
 3192TIP3    H2 9541   0.771   5.943   2.887
 3193TIP3   OH2 9542   4.548   3.139   5.290
 3193TIP3    H1 9543   4.515   3.105   5.207
 3193TIP3    H2 9544   4.640   3.112   5.292
 3194TIP3   OH2 9545   5.659   3.878   3.975
 3194TIP3    H1 9546   5.570   3.886   3.941
 3194TIP3    H2 9547   5.712   3.853   3.900
 3195TIP3   OH2 9548   5.148   4.468   1.782
 3195TIP3    H1 9549   5.200   4.393   1.752
 3195TIP3    H2 9550   5.191   4.544   1.745
 3196TIP3   OH2 9551   6.265   2.500   4.906
 3196TIP3    H1 9552   6.226   2.468   4.825
 3196TIP3    H2 9553   6.258   2.595   4.901
 3197TIP3   OH2 9554   5.932   3.414   1.292
 3197TIP3    H1 9555   5.950   3.464   1.371
 3197TIP3    H2 9556   6.004   3.351   1.286
 3198TIP3   OH2 9557   6.704   2.567   5.639
 3198TIP3    H1 9558   6.710   2.582   5.734
 3198TIP3    H2 9559   6.764   2.494   5.622
 3199TIP3   OH2 9560   0.658   3.959   1.097
 3199TIP3    H1 9561   0.707   4.012   1.160
 3199TIP3    H2 9562   0.633   4.021   1.029
 3200TIP3   OH2 9563   6.904   0.423   4.527
 3200TIP3    H1 9564   6.945   0.476   4.595
 3200TIP3    H2 9565   6.932   0.463   4.445
 3201TIP3   OH2 9566   7.178   2.782   4.689
 3201TIP3    H1 9567   7.175   2.808   4.597
 3201TIP3    H2 9568   7.099   2.729   4.701
 3202TIP3   OH2 9569   5.542   4.353   4.972
 3202TIP3    H1 9570   5.597   4.280   4.942
 3202TIP3    H2 9571   5.453   4.328   4.946
 3203TIP3   OH2 9572   5.303   2.958   5.373
 3203TIP3    H1 9573   5.367   2.956   5.302
 3203TIP3    H2 9574   5.265   3.046   5.367
 3204TIP3   OH2 9575   6.336   1.133   2.129
 3204TIP3    H1 9576   6.431   1.127   2.142
 3204TIP3    H2 9577   6.307   1.194   2.197
 3205TIP3   OH2 9578   1.261   0.723   0.037
 3205TIP3    H1 9579   1.257   0.672  -0.044
 3205TIP3    H2 9580   1.207   0.800   0.020
 3206TIP3   OH2 9581   5.130   1.293   4.175
 3206TIP3    H1 9582   5.144   1.211   4.223
 3206TIP3    H2 9583   5.124   1.266   4.084
 3207TIP3   OH2 9584   1.779   1.009   5.865
 3207TIP3    H1 9585   1.862   0.973   5.834
 3207TIP3    H2 9586   1.736   1.043   5.787
 3208TIP3   OH2 9587   4.020   1.573   2.205
 3208TIP3    H1 9588   4.085   1.558   2.135
 3208TIP3    H2 9589   4.059   1.532   2.282
 3209TIP3   OH2 9590   2.720   3.083   0.023
 3209TIP3    H1 9591   2.664   3.102  -0.052
 3209TIP3    H2 9592   2.660   3.077   0.097
 3210TIP3   OH2 9593   2.125   2.573   0.718
 3210TIP3    H1 9594   2.039   2.548   0.684
 3210TIP3    H2 9595   2.107   2.642   0.782
 3211TIP3   OH2 9596   0.759   3.698   1.051
 3211TIP3    H1 9597   0.838   3.719   1.001
 3211TIP3    H2 9598   0.718   3.783   1.069
 3212TIP3   OH2 9599   0.974   4.298   1.457
 3212TIP3    H1 9600   1.049   4.352   1.433
 3212TIP3    H2 9601   0.946   4.256   1.375
 3213TIP3   OH2 9602   5.891   3.147   3.537
 3213TIP3    H1 9603   5.885   3.169   3.444
 3213TIP3    H2 9604   5.961   3.082   3.542
 3214TIP3   OH2 9605   3.418   6.369   0.083
 3214TIP3    H1 9606   3.471   6.429   0.135
 3214TIP3    H2 9607   3.344   6.346   0.139
 3215TIP3   OH2 9608   6.332   2.387   5.593
 3215TIP3    H1 9609   6.355   2.480   5.594
 3215TIP3    H2 9610   6.375   2.351   5.671
 3216TIP3   OH2 9611   0.382   1.427   0.906
 3216TIP3    H1 9612   0.436   1.462   0.977
 3216TIP3    H2 9613   0.294   1.420   0.944
 3217TIP3   OH2 9614   3.514   3.114   0.509
 3217TIP3    H1 9615   3.431   3.113   0.461
 3217TIP3    H2 9616   3.545   3.024   0.506
 3218TIP3   OH2 9617   1.294   5.131   2.497
 3218TIP3    H1 9618   1.239   5.117   2.420
 3218TIP3    H2 9619   1.236   5.171   2.561
 3219TIP3   OH2 9620   0.460   6.218   4.012
 3219TIP3    H1 9621   0.501   6.157   3.951
 3219TIP3    H2 9622   0.502   6.302   3.992
 3220TIP3   OH2 9623   0.924   4.930   4.203
 3220TIP3    H1 9624   0.971   4.875   4.266
 3220TIP3    H2 9625   0.992   4.978   4.156
 3221TIP3   OH2 9626   4.256   0.659   2.643
 3221TIP3    H1 9627   4.318   0.590   2.663
 3221TIP3    H2 9628   4.203   0.669   2.722
 3222TIP3   OH2 9629   5.808   5.131   4.360
 3222TIP3    H1 9630   5.733   5.153   4.416
 3222TIP3    H2 9631   5.810   5.035   4.359
 3223TIP3   OH2 9632   2.926   0.273   3.847
 3223TIP3    H1 9633   2.978   0.275   3.927
 3223TIP3    H2 9634   2.836   0.283   3.877
 3224TIP3   OH2 9635   1.509   1.371   0.372
 3224TIP3    H1 9636   1.570   1.443   0.388
 3224TIP3    H2 9637   1.431   1.394   0.424
 3225TIP3   OH2 9638   1.181   2.491   2.801
 3225TIP3    H1 9639   1.265   2.477   2.844
 3225TIP3    H2 9640   1.202   2.551   2.728
 3226TIP3   OH2 9641   2.244   3.048   2.039
 3226TIP3    H1 9642   2.291   2.995   2.103
 3226TIP3    H2 9643   2.291   3.131   2.037
 3227TIP3   OH2 9644   6.551   6.608   2.519
 3227TIP3    H1 9645   6.536   6.513   2.513
 3227TIP3    H2 9646   6.497   6.645   2.449
 3228TIP3   OH2 9647   4.013   0.998   3.684
 3228TIP3    H1 9648   3.924   1.021   3.713
 3228TIP3    H2 9649   4.013   0.902   3.684
 3229TIP3   OH2 9650   0.855   2.344   5.539
 3229TIP3    H1 9651   0.779   2.288   5.556
 3229TIP3    H2 9652   0.822   2.410   5.477
 3230TIP3   OH2 9653   4.134   3.118   0.382
 3230TIP3    H1 9654   4.059   3.062   0.402
 3230TIP3    H2 9655   4.185   3.068   0.318
 3231TIP3   OH2 9656   0.897   4.400   4.867
 3231TIP3    H1 9657   0.971   4.339   4.858
 3231TIP3    H2 9658   0.915   4.469   4.803
 3232TIP3   OH2 9659   6.278   1.034   4.944
 3232TIP3    H1 9660   6.208   0.974   4.920
 3232TIP3    H2 9661   6.270   1.107   4.882
 3233TIP3   OH2 9662   5.513   0.589   2.735
 3233TIP3    H1 9663   5.544   0.573   2.824
 3233TIP3    H2 9664   5.562   0.665   2.706
 3234TIP3   OH2 9665   5.003   5.826   2.534
 3234TIP3    H1 9666   5.079   5.858   2.486
 3234TIP3    H2 9667   5.017   5.731   2.541
 3235TIP3   OH2 9668   2.405   4.617   2.805
 3235TIP3    H1 9669   2.436   4.700   2.768
 3235TIP3    H2 9670   2.473   4.554   2.781
 3236TIP3   OH2 9671   1.228   2.762   2.357
 3236TIP3    H1 9672   1.222   2.680   2.307
 3236TIP3    H2 9673   1.211   2.831   2.292
 3237TIP3   OH2 9674   5.997   5.009   3.703
 3237TIP3    H1 9675   5.928   5.072   3.723
 3237TIP3    H2 9676   5.997   5.002   3.608
 3238TIP3   OH2 9677   2.024   5.680   0.334
 3238TIP3    H1 9678   2.060   5.690   0.246
 3238TIP3    H2 9679   2.077   5.611   0.374
 3239TIP3   OH2 9680   1.560   6.573   1.050
 3239TIP3    H1 9681   1.558   6.478   1.044
 3239TIP3    H2 9682   1.639   6.593   1.100
 3240TIP3   OH2 9683   0.824   2.480   5.021
 3240TIP3    H1 9684   0.841   2.397   5.065
 3240TIP3    H2 9685   0.883   2.542   5.063
 3241TIP3   OH2 9686   0.706   2.734   5.832
 3241TIP3    H1 9687   0.670   2.810   5.878
 3241TIP3    H2 9688   0.741   2.771   5.750
 3242TIP3   OH2 9689   0.004   0.048   1.752
 3242TIP3    H1 9690   0.009   0.071   1.845
 3242TIP3    H2 9691   0.010  -0.047   1.751
 3243TIP3   OH2 9692   6.346   3.157   4.833
 3243TIP3    H1 9693   6.408   3.092   4.865
 3243TIP3    H2 9694   6.379   3.240   4.867
 3244TIP3   OH2 9695   0.720   3.952   0.679
 3244TIP3    H1 9696   0.725   3.864   0.715
 3244TIP3    H2 9697   0.800   3.995   0.710
 3245TIP3   OH2 9698   4.213   1.903   4.037
 3245TIP3    H1 9699   4.142   1.888   3.974
 3245TIP3    H2 9700   4.228   1.997   4.035
 3246TIP3   OH2 9701   4.910   4.126   5.461
 3246TIP3    H1 9702   4.886   4.192   5.396
 3246TIP3    H2 9703   4.858   4.049   5.437
 3247TIP3   OH2 9704   6.783   0.609   0.143
 3247TIP3    H1 9705   6.741   0.558   0.213
 3247TIP3    H2 9706   6.725   0.598   0.067
 3248TIP3   OH2 9707   1.501   6.278   3.183
 3248TIP3    H1 9708   1.575   6.321   3.226
 3248TIP3    H2 9709   1.526   6.186   3.179
 3249TIP3   OH2 9710   5.897   4.864   1.928
 3249TIP3    H1 9711   5.811   4.852   1.968
 3249TIP3    H2 9712   5.950   4.794   1.964
 3250TIP3   OH2 9713   1.010   3.242   1.686
 3250TIP3    H1 9714   1.033   3.256   1.778
 3250TIP3    H2 9715   1.054   3.313   1.640
 3251TIP3   OH2 9716   2.670   6.620   4.267
 3251TIP3    H1 9717   2.643   6.549   4.209
 3251TIP3    H2 9718   2.655   6.585   4.355
 3252TIP3   OH2 9719   2.952   4.816   1.175
 3252TIP3    H1 9720   2.978   4.877   1.244
 3252TIP3    H2 9721   2.985   4.731   1.204
 3253TIP3   OH2 9722   3.330   0.506   0.849
 3253TIP3    H1 9723   3.321   0.570   0.919
 3253TIP3    H2 9724   3.393   0.546   0.788
 3254TIP3   OH2 9725   2.122   2.861   5.071
 3254TIP3    H1 9726   2.202   2.870   5.020
 3254TIP3    H2 9727   2.111   2.946   5.114
 3255TIP3   OH2 9728   6.714   3.218   4.610
 3255TIP3    H1 9729   6.783   3.267   4.565
 3255TIP3    H2 9730   6.736   3.126   4.596
 3256TIP3   OH2 9731   2.490   1.474   4.298
 3256TIP3    H1 9732   2.460   1.564   4.302
 3256TIP3    H2 9733   2.507   1.459   4.205
 3257TIP3   OH2 9734   3.669   3.774   5.051
 3257TIP3    H1 9735   3.762   3.761   5.072
 3257TIP3    H2 9736   3.669   3.821   4.968
 3258TIP3   OH2 9737   5.647   4.931   4.466
 3258TIP3    H1 9738   5.610   5.019   4.470
 3258TIP3    H2 9739   5.580   4.878   4.423
 3259TIP3   OH2 9740   4.399   1.357   5.696
 3259TIP3    H1 9741   4.437   1.420   5.756
 3259TIP3    H2 9742   4.470   1.334   5.636
 3260TIP3   OH2 9743   0.676   1.399   2.025
 3260TIP3    H1 9744   0.707   1.411   2.115
 3260TIP3    H2 9745   0.639   1.484   2.001
 3261TIP3   OH2 9746   2.123   1.004   0.308
 3261TIP3    H1 9747   2.198   1.018   0.367
 3261TIP3    H2 9748   2.154   0.938   0.246
 3262TIP3   OH2 9749   5.479   6.233   0.400
 3262TIP3    H1 9750   5.408   6.200   0.455
 3262TIP3    H2 9751   5.539   6.276   0.462
 3263TIP3   OH2 9752   5.643   5.708   5.272
 3263TIP3    H1 9753   5.655   5.772   5.342
 3263TIP3    H2 9754   5.606   5.758   5.200
 3264TIP3   OH2 9755   2.994   4.733   5.409
 3264TIP3    H1 9756   2.899   4.747   5.406
 3264TIP3    H2 9757   3.007   4.646   5.371
 3265TIP3   OH2 9758   4.609   3.060   1.419
 3265TIP3    H1 9759   4.634   3.067   1.326
 3265TIP3    H2 9760   4.592   3.150   1.446
 3266TIP3   OH2 9761   3.916   6.142   3.085
 3266TIP3    H1 9762   3.833   6.181   3.114
 3266TIP3    H2 9763   3.916   6.054   3.123
 3267TIP3   OH2 9764   6.233   2.156   0.819
 3267TIP3    H1 9765   6.166   2.131   0.756
 3267TIP3    H2 9766   6.258   2.245   0.794
 3268TIP3   OH2 9767   5.906   1.888   3.344
 3268TIP3    H1 9768   5.821   1.844   3.338
 3268TIP3    H2 9769   5.965   1.832   3.294
 3269TIP3   OH2 9770   0.884   0.521   5.483
 3269TIP3    H1 9771   0.910   0.546   5.572
 3269TIP3    H2 9772   0.853   0.431   5.492
 3270TIP3   OH2 9773   6.573   0.360   4.411
 3270TIP3    H1 9774   6.628   0.282   4.410
 3270TIP3    H2 9775   6.612   0.416   4.478
 3271TIP3   OH2 9776   5.368   2.715   2.563
 3271TIP3    H1 9777   5.394   2.760   2.643
 3271TIP3    H2 9778   5.277   2.740   2.550
 3272TIP3   OH2 9779   3.501   2.245   3.621
 3272TIP3    H1 9780   3.506   2.190   3.699
 3272TIP3    H2 9781   3.570   2.311   3.633
 3273TIP3   OH2 9782   6.870   0.386   5.293
 3273TIP3    H1 9783   6.829   0.348   5.216
 3273TIP3    H2 9784   6.947   0.331   5.308
 3274TIP3   OH2 9785   6.940   5.357   1.894
 3274TIP3    H1 9786   6.894   5.415   1.833
 3274TIP3    H2 9787   6.883   5.281   1.903
 3275TIP3   OH2 9788   6.976   6.743   3.727
 3275TIP3    H1 9789   6.969   6.839   3.724
 3275TIP3    H2 9790   6.886   6.713   3.734
 3276TIP3   OH2 9791   5.577   4.785   0.517
 3276TIP3    H1 9792   5.632   4.724   0.565
 3276TIP3    H2 9793   5.515   4.817   0.582
 3277TIP3   OH2 9794   3.851   0.379   0.031
 3277TIP3    H1 9795   3.886   0.410   0.115
 3277TIP3    H2 9796   3.928   0.347  -0.016
 3278TIP3   OH2 9797   6.245   1.312   1.144
 3278TIP3    H1 9798   6.229   1.233   1.093
 3278TIP3    H2 9799   6.178   1.373   1.115
 3279TIP3   OH2 9800   4.214   0.869   0.477
 3279TIP3    H1 9801   4.170   0.940   0.431
 3279TIP3    H2 9802   4.261   0.821   0.408
 3280TIP3   OH2 9803   3.895   4.125   1.798
 3280TIP3    H1 9804   3.857   4.184   1.732
 3280TIP3    H2 9805   3.826   4.115   1.863
 3281TIP3   OH2 9806   6.635   6.070   5.400
 3281TIP3    H1 9807   6.649   6.134   5.330
 3281TIP3    H2 9808   6.633   5.986   5.356
 3282TIP3   OH2 9809   5.634   3.240   1.655
 3282TIP3    H1 9810   5.605   3.171   1.595
 3282TIP3    H2 9811   5.641   3.318   1.600
 3283TIP3   OH2 9812   0.649   5.443   3.169
 3283TIP3    H1 9813   0.583   5.506   3.197
 3283TIP3    H2 9814   0.671   5.468   3.080
 3284TIP3   OH2 9815   3.667   5.183   2.931
 3284TIP3    H1 9816   3.684   5.123   2.858
 3284TIP3    H2 9817   3.656   5.126   3.007
 3285TIP3   OH2 9818   5.515   6.501   5.864
 3285TIP3    H1 9819   5.452   6.496   5.792
 3285TIP3    H2 9820   5.571   6.425   5.853
 3286TIP3   OH2 9821   1.589   3.456   0.838
 3286TIP3    H1 9822   1.533   3.486   0.767
 3286TIP3    H2 9823   1.676   3.448   0.799
 3287TIP3   OH2 9824   2.445   3.606   1.998
 3287TIP3    H1 9825   2.454   3.520   2.039
 3287TIP3    H2 9826   2.535   3.635   1.982
 3288TIP3   OH2 9827   1.518   3.697   3.321
 3288TIP3    H1 9828   1.565   3.724   3.242
 3288TIP3    H2 9829   1.472   3.617   3.296
 3289TIP3   OH2 9830   4.114   3.203   0.074
 3289TIP3    H1 9831   4.144   3.250   0.152
 3289TIP3    H2 9832   4.021   3.185   0.091
 3290TIP3   OH2 9833   2.845   5.312   4.377
 3290TIP3    H1 9834   2.916   5.250   4.357
 3290TIP3    H2 9835   2.862   5.387   4.321
 3291TIP3   OH2 9836   2.419   1.470   2.375
 3291TIP3    H1 9837   2.450   1.447   2.287
 3291TIP3    H2 9838   2.443   1.562   2.386
 3292TIP3   OH2 9839   2.248   4.667   1.695
 3292TIP3    H1 9840   2.156   4.657   1.718
 3292TIP3    H2 9841   2.286   4.716   1.767
 3293TIP3   OH2 9842   2.770   4.701   0.187
 3293TIP3    H1 9843   2.825   4.708   0.110
 3293TIP3    H2 9844   2.761   4.607   0.203
 3294TIP3   OH2 9845   3.076   3.104   2.511
 3294TIP3    H1 9846   3.083   3.022   2.561
 3294TIP3    H2 9847   3.076   3.172   2.578
 3295TIP3   OH2 9848   5.500   5.394   4.933
 3295TIP3    H1 9849   5.420   5.344   4.947
 3295TIP3    H2 9850   5.485   5.442   4.852
 3296TIP3   OH2 9851   1.394   4.465   0.702
 3296TIP3    H1 9852   1.479   4.430   0.730
 3296TIP3    H2 9853   1.384   4.546   0.752
 3297TIP3   OH2 9854   0.459   3.503   5.077
 3297TIP3    H1 9855   0.461   3.599   5.067
 3297TIP3    H2 9856   0.550   3.480   5.098
 3298TIP3   OH2 9857   0.262   6.558   0.012
 3298TIP3    H1 9858   0.190   6.619   0.028
 3298TIP3    H2 9859   0.313   6.559   0.094
 3299TIP3   OH2 9860   0.825   2.382   3.633
 3299TIP3    H1 9861   0.808   2.412   3.722
 3299TIP3    H2 9862   0.906   2.332   3.639
 3300TIP3   OH2 9863   1.834   0.288   3.030
 3300TIP3    H1 9864   1.903   0.222   3.023
 3300TIP3    H2 9865   1.878   0.370   3.010
 3301TIP3   OH2 9866   0.088   5.246   1.078
 3301TIP3    H1 9867   0.153   5.221   1.013
 3301TIP3    H2 9868   0.029   5.306   1.031
 3302TIP3   OH2 9869   3.195   2.528   3.107
 3302TIP3    H1 9870   3.100   2.520   3.116
 3302TIP3    H2 9871   3.228   2.516   3.196
 3303TIP3   OH2 9872   0.023   1.214   5.195
 3303TIP3    H1 9873   0.035   1.297   5.242
 3303TIP3    H2 9874   0.113   1.184   5.178
 3304TIP3   OH2 9875   0.105   1.476   1.804
 3304TIP3    H1 9876   0.073   1.397   1.847
 3304TIP3    H2 9877   0.147   1.526   1.874
 3305TIP3   OH2 9878   5.074   1.083   0.937
 3305TIP3    H1 9879   5.168   1.078   0.921
 3305TIP3    H2 9880   5.045   1.159   0.887
 3306TIP3   OH2 9881   7.192   6.307   3.834
 3306TIP3    H1 9882   7.098   6.305   3.817
 3306TIP3    H2 9883   7.201   6.279   3.925
 3307TIP3   OH2 9884   2.484   1.887   1.917
 3307TIP3    H1 9885   2.490   1.966   1.864
 3307TIP3    H2 9886   2.471   1.817   1.854
 3308TIP3   OH2 9887   3.405   4.482   5.621
 3308TIP3    H1 9888   3.385   4.550   5.685
 3308TIP3    H2 9889   3.338   4.492   5.553
 3309TIP3   OH2 9890   1.746   6.675   1.875
 3309TIP3    H1 9891   1.759   6.597   1.821
 3309TIP3    H2 9892   1.733   6.641   1.963
 3310TIP3   OH2 9893   2.881   5.360   2.284
 3310TIP3    H1 9894   2.891   5.416   2.361
 3310TIP3    H2 9895   2.947   5.292   2.295
 3311TIP3   OH2 9896   5.705   4.245   3.714
 3311TIP3    H1 9897   5.778   4.185   3.697
 3311TIP3    H2 9898   5.721   4.277   3.803
 3312TIP3   OH2 9899   3.545   0.920   1.042
 3312TIP3    H1 9900   3.577   0.840   1.001
 3312TIP3    H2 9901   3.506   0.970   0.970
 3313TIP3   OH2 9902   6.923   4.420   5.247
 3313TIP3    H1 9903   6.912   4.330   5.277
 3313TIP3    H2 9904   6.895   4.418   5.155
 3314TIP3   OH2 9905   4.069   3.384   1.625
 3314TIP3    H1 9906   4.063   3.289   1.622
 3314TIP3    H2 9907   3.984   3.415   1.594
 3315TIP3   OH2 9908   4.113   1.865   2.509
 3315TIP3    H1 9909   4.041   1.872   2.446
 3315TIP3    H2 9910   4.140   1.955   2.524
 3316TIP3   OH2 9911   4.017   4.075   2.252
 3316TIP3    H1 9912   4.042   4.138   2.320
 3316TIP3    H2 9913   4.098   4.058   2.204
 3317TIP3   OH2 9914   4.870   2.817   0.046
 3317TIP3    H1 9915   4.846   2.826  -0.047
 3317TIP3    H2 9916   4.787   2.824   0.093
 3318TIP3   OH2 9917   2.945   5.355   2.909
 3318TIP3    H1 9918   2.990   5.352   2.824
 3318TIP3    H2 9919   3.015   5.350   2.974
 3319TIP3   OH2 9920   2.560   5.915   2.900
 3319TIP3    H1 9921   2.654   5.908   2.884
 3319TIP3    H2 9922   2.521   5.926   2.813
 3320TIP3   OH2 9923   4.902   3.587   2.799
 3320TIP3    H1 9924   4.810   3.586   2.774
 3320TIP3    H2 9925   4.905   3.544   2.884
 3321TIP3   OH2 9926   4.924   4.485   4.046
 3321TIP3    H1 9927   4.997   4.452   3.994
 3321TIP3    H2 9928   4.933   4.580   4.043
 3322TIP3   OH2 9929   1.139   0.561   2.531
 3322TIP3    H1 9930   1.098   0.640   2.566
 3322TIP3    H2 9931   1.078   0.490   2.553
 3323TIP3   OH2 9932   0.422   2.964   3.376
 3323TIP3    H1 9933   0.328   2.950   3.381
 3323TIP3    H2 9934   0.460   2.895   3.430
 3324TIP3   OH2 9935   5.978   2.247   2.542
 3324TIP3    H1 9936   6.002   2.230   2.633
 3324TIP3    H2 9937   6.002   2.167   2.495
 3325TIP3   OH2 9938   1.766   1.752   5.775
 3325TIP3    H1 9939   1.728   1.809   5.842
 3325TIP3    H2 9940   1.785   1.811   5.701
 3326TIP3   OH2 9941   6.251   5.770   0.542
 3326TIP3    H1 9942   6.178   5.722   0.581
 3326TIP3    H2 9943   6.275   5.718   0.465
 3327TIP3   OH2 9944   3.239   0.443   2.231
 3327TIP3    H1 9945   3.215   0.479   2.145
 3327TIP3    H2 9946   3.321   0.486   2.253
 3328TIP3   OH2 9947   2.756   4.184   0.060
 3328TIP3    H1 9948   2.838   4.157   0.019
 3328TIP3    H2 9949   2.696   4.110   0.045
 3329TIP3   OH2 9950   5.734   3.123   0.871
 3329TIP3    H1 9951   5.706   3.158   0.955
 3329TIP3    H2 9952   5.659   3.136   0.813
 3330TIP3   OH2 9953   0.596   4.196   1.528
 3330TIP3    H1 9954   0.663   4.128   1.537
 3330TIP3    H2 9955   0.645   4.278   1.521
 3331TIP3   OH2 9956   0.808   3.252   3.384
 3331TIP3    H1 9957   0.778   3.171   3.343
 3331TIP3    H2 9958   0.897   3.264   3.350
 3332TIP3   OH2 9959   5.047   0.540   2.155
 3332TIP3    H1 9960   5.076   0.475   2.091
 3332TIP3    H2 9961   5.105   0.528   2.230
 3333TIP3   OH2 9962   0.238   3.038   3.028
 3333TIP3    H1 9963   0.216   2.960   2.977
 3333TIP3    H2 9964   0.179   3.036   3.103
 3334TIP3   OH2 9965   4.966   4.088   4.352
 3334TIP3    H1 9966   5.035   4.153   4.336
 3334TIP3    H2 9967   5.010   4.018   4.401
 3335TIP3   OH2 9968   6.716   0.363   3.078
 3335TIP3    H1 9969   6.649   0.321   3.024
 3335TIP3    H2 9970   6.720   0.453   3.047
 3336TIP3   OH2 9971   0.497   4.575   1.171
 3336TIP3    H1 9972   0.409   4.543   1.149
 3336TIP3    H2 9973   0.481   4.656   1.219
 3337TIP3   OH2 9974   0.656   4.051   5.843
 3337TIP3    H1 9975   0.716   4.120   5.871
 3337TIP3    H2 9976   0.619   4.017   5.924
 3338TIP3   OH2 9977   5.220   2.578   3.196
 3338TIP3    H1 9978   5.215   2.659   3.145
 3338TIP3    H2 9979   5.197   2.509   3.134
 3339TIP3   OH2 9980   5.584   5.910   5.111
 3339TIP3    H1 9981   5.574   5.994   5.154
 3339TIP3    H2 9982   5.581   5.930   5.017
 3340TIP3   OH2 9983   0.036   5.684   3.000
 3340TIP3    H1 9984  -0.016   5.747   2.950
 3340TIP3    H2 9985   0.114   5.669   2.947
 3341TIP3   OH2 9986   5.901   5.061   5.629
 3341TIP3    H1 9987   5.889   5.151   5.660
 3341TIP3    H2 9988   5.996   5.048   5.628
 3342TIP3   OH2 9989   6.000   5.231   2.658
 3342TIP3    H1 9990   5.947   5.245   2.737
 3342TIP3    H2 9991   5.994   5.137   2.642
 3343TIP3   OH2 9992   5.711   5.695   5.905
 3343TIP3    H1 9993   5.681   5.772   5.857
 3343TIP3    H2 9994   5.685   5.711   5.995
 3344TIP3   OH2 9995   0.765   1.171   0.100
 3344TIP3    H1 9996   0.732   1.084   0.081
 3344TIP3    H2 9997   0.686   1.225   0.110
 3345TIP3   OH2 9998   2.146   0.350   2.036
 3345TIP3    H1 9999   2.058   0.377   2.011
 3345TIP3    H210000   2.140   0.256   2.050
 3346TIP3   OH210001   0.590   4.839   1.247
 3346TIP3    H110002   0.646   4.818   1.321
 3346TIP3    H210003   0.533   4.909   1.279
 3347TIP3   OH210004   2.377   4.965   3.193
 3347TIP3    H110005   2.293   5.009   3.206
 3347TIP3    H210006   2.409   4.998   3.109
 3348TIP3   OH210007   6.262   3.028   4.613
 3348TIP3    H110008   6.299   3.052   4.528
 3348TIP3    H210009   6.307   3.084   4.676
 3349TIP3   OH210010   3.633   0.794   4.231
 3349TIP3    H110011   3.596   0.780   4.319
 3349TIP3    H210012   3.724   0.767   4.239
 3350TIP3   OH210013   2.300   0.348   5.015
 3350TIP3    H110014   2.345   0.370   4.933
 3350TIP3    H210015   2.261   0.262   4.997
 3351TIP3   OH210016   0.888   1.976   5.153
 3351TIP3    H110017   0.954   1.912   5.127
 3351TIP3    H210018   0.809   1.951   5.104
 3352TIP3   OH210019   4.518   0.974   2.710
 3352TIP3    H110020   4.524   0.958   2.804
 3352TIP3    H210021   4.546   0.892   2.669
 3353TIP3   OH210022   4.796   4.565   2.545
 3353TIP3    H110023   4.700   4.566   2.541
 3353TIP3    H210024   4.823   4.629   2.478
 3354TIP3   OH210025   6.609   1.147   5.732
 3354TIP3    H110026   6.591   1.075   5.671
 3354TIP3    H210027   6.694   1.125   5.770
 3355TIP3   OH210028   2.385   2.571   4.150
 3355TIP3    H110029   2.379   2.537   4.061
 3355TIP3    H210030   2.472   2.611   4.155
 3356TIP3   OH210031   4.636   1.235   0.232
 3356TIP3    H110032   4.604   1.178   0.302
 3356TIP3    H210033   4.649   1.320   0.274
 3357TIP3   OH210034   0.401   0.924   4.341
 3357TIP3    H110035   0.479   0.892   4.386
 3357TIP3    H210036   0.359   0.983   4.404
 3358TIP3   OH210037   4.720   2.293   0.716
 3358TIP3    H110038   4.757   2.342   0.642
 3358TIP3    H210039   4.693   2.361   0.778
 3359TIP3   OH210040   4.244   4.191   5.285
 3359TIP3    H110041   4.196   4.116   5.250
 3359TIP3    H210042   4.310   4.210   5.219
 3360TIP3   OH210043   2.637   6.810   4.526
 3360TIP3    H110044   2.666   6.737   4.472
 3360TIP3    H210045   2.669   6.789   4.614
 3361TIP3   OH210046   3.110   4.087   3.555
 3361TIP3    H110047   3.060   4.040   3.489
 3361TIP3    H210048   3.180   4.130   3.507
 3362TIP3   OH210049   6.420   3.024   1.260
 3362TIP3    H110050   6.352   3.082   1.293
 3362TIP3    H210051   6.495   3.040   1.317
 3363TIP3   OH210052   6.255   2.025   1.055
 3363TIP3    H110053   6.264   2.059   0.966
 3363TIP3    H210054   6.171   1.979   1.054
 3364TIP3   OH210055   1.599   4.671   1.306
 3364TIP3    H110056   1.613   4.639   1.216
 3364TIP3    H210057   1.631   4.761   1.304
 3365TIP3   OH210058   3.497   4.859   5.514
 3365TIP3    H110059   3.426   4.819   5.563
 3365TIP3    H210060   3.563   4.791   5.506
 3366TIP3   OH210061   5.757   6.483   5.248
 3366TIP3    H110062   5.754   6.524   5.161
 3366TIP3    H210063   5.773   6.390   5.229
 3367TIP3   OH210064   1.834   6.314   4.945
 3367TIP3    H110065   1.827   6.221   4.923
 3367TIP3    H210066   1.783   6.324   5.026
 3368TIP3   OH210067   1.938   3.980   3.136
 3368TIP3    H110068   1.983   4.012   3.214
 3368TIP3    H210069   1.861   4.037   3.128
 3369TIP3   OH210070   0.784   0.792   2.151
 3369TIP3    H110071   0.790   0.829   2.063
 3369TIP3    H210072   0.765   0.867   2.207
 3370TIP3   OH210073   3.688   1.029   5.555
 3370TIP3    H110074   3.651   1.096   5.612
 3370TIP3    H210075   3.612   0.978   5.526
 3371TIP3   OH210076   2.958   1.319   5.512
 3371TIP3    H110077   2.910   1.306   5.431
 3371TIP3    H210078   2.972   1.231   5.546
 3372TIP3   OH210079   2.504   0.255   0.799
 3372TIP3    H110080   2.593   0.220   0.804
 3372TIP3    H210081   2.473   0.255   0.889
 3373TIP3   OH210082   4.317   6.284   4.529
 3373TIP3    H110083   4.332   6.337   4.608
 3373TIP3    H210084   4.252   6.334   4.479
 3374TIP3   OH210085   5.109   0.381   0.557
 3374TIP3    H110086   5.109   0.445   0.486
 3374TIP3    H210087   5.022   0.387   0.595
 3375TIP3   OH210088   3.698   1.730   2.897
 3375TIP3    H110089   3.669   1.652   2.849
 3375TIP3    H210090   3.618   1.766   2.934
 3376TIP3   OH210091   6.944   1.865   3.079
 3376TIP3    H110092   6.922   1.886   3.169
 3376TIP3    H210093   7.014   1.801   3.086
 3377TIP3   OH210094   2.830   4.956   1.801
 3377TIP3    H110095   2.834   4.866   1.770
 3377TIP3    H210096   2.741   4.985   1.781
 3378TIP3   OH210097   6.534   4.741   0.202
 3378TIP3    H110098   6.526   4.808   0.134
 3378TIP3    H210099   6.525   4.658   0.156
 3379TIP3   OH210100   1.818   0.328   0.544
 3379TIP3    H110101   1.895   0.272   0.533
 3379TIP3    H210102   1.799   0.360   0.456
 3380TIP3   OH210103   4.277   0.593   3.977
 3380TIP3    H110104   4.273   0.688   3.990
 3380TIP3    H210105   4.306   0.582   3.887
 3381TIP3   OH210106   5.672   4.479   0.542
 3381TIP3    H110107   5.666   4.484   0.446
 3381TIP3    H210108   5.759   4.512   0.563
 3382TIP3   OH210109   0.536   1.219   3.165
 3382TIP3    H110110   0.519   1.271   3.087
 3382TIP3    H210111   0.538   1.129   3.135
 3383TIP3   OH210112   2.903   4.566   1.470
 3383TIP3    H110113   2.968   4.539   1.405
 3383TIP3    H210114   2.833   4.502   1.462
 3384TIP3   OH210115   6.556   4.356   3.277
 3384TIP3    H110116   6.609   4.435   3.289
 3384TIP3    H210117   6.494   4.358   3.349
 3385TIP3   OH210118   0.089   2.198   0.003
 3385TIP3    H110119   0.024   2.263   0.030
 3385TIP3    H210120   0.129   2.168   0.085
 3386TIP3   OH210121   1.642   3.841   5.552
 3386TIP3    H110122   1.680   3.904   5.492
 3386TIP3    H210123   1.604   3.894   5.622
 3387TIP3   OH210124   4.850   5.938   3.916
 3387TIP3    H110125   4.766   5.916   3.875
 3387TIP3    H210126   4.827   5.991   3.992
 3388TIP3   OH210127   2.706   5.708   0.562
 3388TIP3    H110128   2.621   5.747   0.583
 3388TIP3    H210129   2.751   5.776   0.511
 3389TIP3   OH210130   1.389   2.713   0.743
 3389TIP3    H110131   1.462   2.774   0.756
 3389TIP3    H210132   1.391   2.656   0.820
 3390TIP3   OH210133   5.454   3.616   4.254
 3390TIP3    H110134   5.493   3.642   4.337
 3390TIP3    H210135   5.434   3.523   4.264
 3391TIP3   OH210136   6.668   3.716   4.692
 3391TIP3    H110137   6.657   3.703   4.786
 3391TIP3    H210138   6.627   3.639   4.653
 3392TIP3   OH210139   1.048   1.923   1.737
 3392TIP3    H110140   1.094   1.842   1.762
 3392TIP3    H210141   1.088   1.948   1.653
 3393TIP3   OH210142   7.166   3.565   0.817
 3393TIP3    H110143   7.112   3.496   0.779
 3393TIP3    H210144   7.134   3.573   0.907
 3394TIP3   OH210145   0.494   2.100   1.310
 3394TIP3    H110146   0.494   2.184   1.356
 3394TIP3    H210147   0.446   2.118   1.229
 3395TIP3   OH210148   2.647   6.549   5.700
 3395TIP3    H110149   2.609   6.514   5.620
 3395TIP3    H210150   2.741   6.541   5.688
 3396TIP3   OH210151   0.359   4.533   3.264
 3396TIP3    H110152   0.397   4.469   3.324
 3396TIP3    H210153   0.414   4.611   3.275
 3397TIP3   OH210154   0.151   1.786   2.766
 3397TIP3    H110155   0.227   1.837   2.737
 3397TIP3    H210156   0.183   1.737   2.842
 3398TIP3   OH210157   2.749   1.031   2.867
 3398TIP3    H110158   2.829   0.992   2.903
 3398TIP3    H210159   2.721   1.094   2.933
 3399TIP3   OH210160   5.146   2.081   3.293
 3399TIP3    H110161   5.218   2.130   3.255
 3399TIP3    H210162   5.187   2.003   3.331
 3400TIP3   OH210163   4.057   2.239   3.369
 3400TIP3    H110164   4.132   2.297   3.384
 3400TIP3    H210165   4.089   2.151   3.389
 3401TIP3   OH210166   2.975   1.705   0.411
 3401TIP3    H110167   2.937   1.731   0.328
 3401TIP3    H210168   2.906   1.653   0.454
 3402TIP3   OH210169   1.697   5.665   2.685
 3402TIP3    H110170   1.725   5.701   2.770
 3402TIP3    H210171   1.778   5.634   2.645
 3403TIP3   OH210172   0.283   2.817   0.706
 3403TIP3    H110173   0.297   2.911   0.711
 3403TIP3    H210174   0.371   2.780   0.699
 3404TIP3   OH210175   3.978   5.373   3.132
 3404TIP3    H110176   4.004   5.434   3.063
 3404TIP3    H210177   4.018   5.290   3.108
 3405TIP3   OH210178   3.722   5.698   2.372
 3405TIP3    H110179   3.638   5.709   2.416
 3405TIP3    H210180   3.741   5.605   2.379
 3406TIP3   OH210181   0.794   3.246   0.653
 3406TIP3    H110182   0.882   3.207   0.645
 3406TIP3    H210183   0.807   3.337   0.628
 3407TIP3   OH210184   1.413   5.390   1.976
 3407TIP3    H110185   1.346   5.323   1.991
 3407TIP3    H210186   1.496   5.345   1.991
 3408TIP3   OH210187   4.436   4.022   1.633
 3408TIP3    H110188   4.434   3.971   1.552
 3408TIP3    H210189   4.421   4.112   1.605
 3409TIP3   OH210190   4.507   3.644   0.517
 3409TIP3    H110191   4.423   3.690   0.524
 3409TIP3    H210192   4.485   3.557   0.485
 3410TIP3   OH210193   5.181   5.144   3.449
 3410TIP3    H110194   5.238   5.201   3.501
 3410TIP3    H210195   5.130   5.096   3.514
 3411TIP3   OH210196   0.228   4.104   1.585
 3411TIP3    H110197   0.203   4.171   1.650
 3411TIP3    H210198   0.240   4.154   1.504
 3412TIP3   OH210199   3.873   1.352   2.362
 3412TIP3    H110200   3.857   1.396   2.278
 3412TIP3    H210201   3.967   1.364   2.377
 3413TIP3   OH210202   0.077   2.099   0.896
 3413TIP3    H110203   0.050   2.054   0.977
 3413TIP3    H210204   0.168   2.074   0.884
 3414TIP3   OH210205   7.059   5.062   1.282
 3414TIP3    H110206   7.095   4.980   1.247
 3414TIP3    H210207   7.039   5.042   1.373
 3415TIP3   OH210208   4.022   1.660   4.964
 3415TIP3    H110209   4.113   1.634   4.973
 3415TIP3    H210210   3.997   1.631   4.876
 3416TIP3   OH210211   5.167   2.315   5.259
 3416TIP3    H110212   5.089   2.263   5.237
 3416TIP3    H210213   5.230   2.250   5.290
 3417TIP3   OH210214   2.457   2.447   5.426
 3417TIP3    H110215   2.387   2.408   5.374
 3417TIP3    H210216   2.508   2.373   5.458
 3418TIP3   OH210217   1.000   2.881   2.069
 3418TIP3    H110218   1.053   2.934   2.010
 3418TIP3    H210219   1.063   2.823   2.112
 3419TIP3   OH210220   6.028   1.429   0.833
 3419TIP3    H110221   5.981   1.439   0.750
 3419TIP3    H210222   6.008   1.339   0.861
 3420TIP3   OH210223   1.505   6.122   1.324
 3420TIP3    H110224   1.447   6.050   1.299
 3420TIP3    H210225   1.447   6.186   1.366
 3421TIP3   OH210226   3.995   6.630   4.190
 3421TIP3    H110227   4.004   6.725   4.197
 3421TIP3    H210228   3.908   6.617   4.152
 3422TIP3   OH210229   0.434   5.235   3.845
 3422TIP3    H110230   0.523   5.239   3.809
 3422TIP3    H210231   0.387   5.305   3.800
 3423TIP3   OH210232   0.382   6.711   2.895
 3423TIP3    H110233   0.290   6.736   2.899
 3423TIP3    H210234   0.418   6.764   2.824
 3424TIP3   OH210235   6.295   5.142   3.020
 3424TIP3    H110236   6.269   5.183   2.937
 3424TIP3    H210237   6.244   5.189   3.087
 3425TIP3   OH210238   0.878   1.307   3.826
 3425TIP3    H110239   0.800   1.353   3.794
 3425TIP3    H210240   0.865   1.216   3.799
 3426TIP3   OH210241   3.837   1.548   3.071
 3426TIP3    H110242   3.790   1.628   3.047
 3426TIP3    H210243   3.920   1.554   3.023
 3427TIP3   OH210244   4.710   6.122   0.391
 3427TIP3    H110245   4.620   6.094   0.375
 3427TIP3    H210246   4.702   6.215   0.415
 3428TIP3   OH210247   4.132   3.129   2.866
 3428TIP3    H110248   4.193   3.169   2.805
 3428TIP3    H210249   4.060   3.192   2.873
 3429TIP3   OH210250   2.196   2.616   5.216
 3429TIP3    H110251   2.118   2.600   5.269
 3429TIP3    H210252   2.176   2.697   5.168
 3430TIP3   OH210253   3.217   5.746   0.943
 3430TIP3    H110254   3.148   5.806   0.914
 3430TIP3    H210255   3.229   5.686   0.868
 3431TIP3   OH210256   4.977   6.692   5.041
 3431TIP3    H110257   5.056   6.651   5.006
 3431TIP3    H210258   4.953   6.758   4.976
 3432TIP3   OH210259   4.182   2.653   4.207
 3432TIP3    H110260   4.213   2.682   4.293
 3432TIP3    H210261   4.089   2.637   4.219
 3433TIP3   OH210262   1.365   2.436   5.123
 3433TIP3    H110263   1.324   2.353   5.100
 3433TIP3    H210264   1.401   2.422   5.210
 3434TIP3   OH210265   6.238   1.941   4.542
 3434TIP3    H110266   6.309   1.971   4.598
 3434TIP3    H210267   6.212   1.857   4.579
 3435TIP3   OH210268   6.685   2.571   5.304
 3435TIP3    H110269   6.717   2.568   5.394
 3435TIP3    H210270   6.670   2.664   5.286
 3436TIP3   OH210271   6.618   5.389   0.465
 3436TIP3    H110272   6.537   5.423   0.429
 3436TIP3    H210273   6.677   5.381   0.390
 3437TIP3   OH210274   2.015   3.321   0.083
 3437TIP3    H110275   1.987   3.273   0.005
 3437TIP3    H210276   1.942   3.311   0.144
 3438TIP3   OH210277   0.981   0.329   2.505
 3438TIP3    H110278   0.886   0.338   2.516
 3438TIP3    H210279   1.006   0.263   2.569
 3439TIP3   OH210280   2.639   0.464   3.986
 3439TIP3    H110281   2.651   0.502   3.899
 3439TIP3    H210282   2.652   0.370   3.973
 3440TIP3   OH210283   3.521   1.250   3.940
 3440TIP3    H110284   3.505   1.190   3.867
 3440TIP3    H210285   3.501   1.198   4.018
 3441TIP3   OH210286   4.202   1.340   4.525
 3441TIP3    H110287   4.213   1.245   4.513
 3441TIP3    H210288   4.216   1.377   4.437
 3442TIP3   OH210289   4.807   5.967   0.604
 3442TIP3    H110290   4.734   5.952   0.664
 3442TIP3    H210291   4.766   5.994   0.523
 3443TIP3   OH210292   6.458   2.755   4.295
 3443TIP3    H110293   6.512   2.761   4.217
 3443TIP3    H210294   6.388   2.819   4.282
 3444TIP3   OH210295   3.912   0.703   4.193
 3444TIP3    H110296   3.946   0.627   4.240
 3444TIP3    H210297   3.921   0.775   4.256
 3445TIP3   OH210298   2.894   4.312   2.281
 3445TIP3    H110299   2.839   4.376   2.235
 3445TIP3    H210300   2.972   4.361   2.306
 3446TIP3   OH210301   5.523   4.756   2.586
 3446TIP3    H110302   5.510   4.681   2.529
 3446TIP3    H210303   5.578   4.816   2.535
 3447TIP3   OH210304   1.580   0.076   0.779
 3447TIP3    H110305   1.618  -0.011   0.792
 3447TIP3    H210306   1.574   0.086   0.684
 3448TIP3   OH210307   5.285   0.198   4.330
 3448TIP3    H110308   5.218   0.218   4.265
 3448TIP3    H210309   5.365   0.235   4.293
 3449TIP3   OH210310   7.148   3.972   1.950
 3449TIP3    H110311   7.139   3.933   1.863
 3449TIP3    H210312   7.146   3.897   2.010
 3450TIP3   OH210313   4.009   1.302   1.666
 3450TIP3    H110314   4.029   1.281   1.574
 3450TIP3    H210315   3.983   1.394   1.664
 3451TIP3   OH210316   3.133   5.687   1.197
 3451TIP3    H110317   3.189   5.610   1.201
 3451TIP3    H210318   3.147   5.723   1.109
 3452TIP3   OH210319   6.862   6.328   5.899
 3452TIP3    H110320   6.893   6.416   5.881
 3452TIP3    H210321   6.783   6.341   5.952
 3453TIP3   OH210322   0.652   0.859   1.309
 3453TIP3    H110323   0.666   0.818   1.394
 3453TIP3    H210324   0.715   0.816   1.251
 3454TIP3   OH210325   5.287   6.612   2.656
 3454TIP3    H110326   5.276   6.584   2.747
 3454TIP3    H210327   5.227   6.686   2.647
 3455TIP3   OH210328   7.039   3.092   3.106
 3455TIP3    H110329   6.984   3.169   3.090
 3455TIP3    H210330   7.001   3.023   3.051
 3456TIP3   OH210331   1.309   4.998   3.585
 3456TIP3    H110332   1.256   4.960   3.655
 3456TIP3    H210333   1.378   4.934   3.568
 3457TIP3   OH210334   4.591   0.072   3.816
 3457TIP3    H110335   4.543   0.053   3.735
 3457TIP3    H210336   4.659   0.005   3.820
 3458TIP3   OH210337   0.063   3.096   3.245
 3458TIP3    H110338  -0.025   3.085   3.208
 3458TIP3    H210339   0.074   3.191   3.251
 3459TIP3   OH210340   1.691   3.471   0.074
 3459TIP3    H110341   1.731   3.525   0.143
 3459TIP3    H210342   1.614   3.433   0.116
 3460TIP3   OH210343   5.599   5.120   0.601
 3460TIP3    H110344   5.525   5.065   0.628
 3460TIP3    H210345   5.675   5.064   0.611
 3461TIP3   OH210346   4.480   4.593   1.693
 3461TIP3    H110347   4.470   4.672   1.747
 3461TIP3    H210348   4.559   4.609   1.641
 3462TIP3   OH210349   4.579   5.078   4.538
 3462TIP3    H110350   4.503   5.082   4.481
 3462TIP3    H210351   4.639   5.017   4.495
 3463TIP3   OH210352   4.088   3.389   0.355
 3463TIP3    H110353   4.098   3.294   0.367
 3463TIP3    H210354   4.132   3.427   0.431
 3464TIP3   OH210355   5.460   2.770   3.292
 3464TIP3    H110356   5.446   2.682   3.327
 3464TIP3    H210357   5.431   2.829   3.362
 3465TIP3   OH210358   1.626   4.825   3.335
 3465TIP3    H110359   1.624   4.836   3.430
 3465TIP3    H210360   1.585   4.904   3.300
 3466TIP3   OH210361   5.204   4.246   1.405
 3466TIP3    H110362   5.252   4.327   1.394
 3466TIP3    H210363   5.191   4.213   1.316
 3467TIP3   OH210364   6.707   2.944   3.920
 3467TIP3    H110365   6.760   2.949   3.841
 3467TIP3    H210366   6.764   2.979   3.989
 3468TIP3   OH210367   5.136   6.011   3.505
 3468TIP3    H110368   5.084   5.957   3.565
 3468TIP3    H210369   5.097   5.996   3.419
 3469TIP3   OH210370   6.795   0.566   1.081
 3469TIP3    H110371   6.787   0.514   1.161
 3469TIP3    H210372   6.787   0.657   1.111
 3470TIP3   OH210373   6.185   6.157   5.098
 3470TIP3    H110374   6.261   6.174   5.154
 3470TIP3    H210375   6.115   6.135   5.159
 3471TIP3   OH210376   2.583   3.577   0.577
 3471TIP3    H110377   2.668   3.580   0.534
 3471TIP3    H210378   2.604   3.566   0.670
 3472TIP3   OH210379   0.718   1.816   4.958
 3472TIP3    H110380   0.673   1.736   4.987
 3472TIP3    H210381   0.655   1.886   4.977
 3473TIP3   OH210382   3.864   5.286   0.091
 3473TIP3    H110383   3.832   5.205   0.051
 3473TIP3    H210384   3.939   5.258   0.144
 3474TIP3   OH210385   1.963   4.864   4.647
 3474TIP3    H110386   1.931   4.782   4.684
 3474TIP3    H210387   2.018   4.836   4.573
 3475TIP3   OH210388   1.005   5.221   4.795
 3475TIP3    H110389   0.955   5.141   4.814
 3475TIP3    H210390   1.049   5.242   4.877
 3476TIP3   OH210391   2.746   3.244   2.754
 3476TIP3    H110392   2.691   3.272   2.828
 3476TIP3    H210393   2.685   3.234   2.681
 3477TIP3   OH210394   1.245   0.038   1.513
 3477TIP3    H110395   1.152   0.061   1.517
 3477TIP3    H210396   1.291   0.122   1.516
 3478TIP3   OH210397   3.323   1.673   2.299
 3478TIP3    H110398   3.282   1.624   2.229
 3478TIP3    H210399   3.266   1.659   2.375
 3479TIP3   OH210400   3.194   5.217   2.080
 3479TIP3    H110401   3.147   5.165   2.016
 3479TIP3    H210402   3.241   5.284   2.029
 3480TIP3   OH210403   1.531   1.941   3.507
 3480TIP3    H110404   1.599   2.007   3.493
 3480TIP3    H210405   1.578   1.865   3.540
 3481TIP3   OH210406   7.061   5.769   2.748
 3481TIP3    H110407   6.999   5.841   2.762
 3481TIP3    H210408   7.111   5.795   2.670
 3482TIP3   OH210409   3.615   4.889   4.098
 3482TIP3    H110410   3.550   4.829   4.061
 3482TIP3    H210411   3.639   4.850   4.182
 3483TIP3   OH210412   0.185   2.659   0.444
 3483TIP3    H110413   0.121   2.612   0.498
 3483TIP3    H210414   0.233   2.714   0.507
 3484TIP3   OH210415   3.286   3.441   3.323
 3484TIP3    H110416   3.250   3.495   3.252
 3484TIP3    H210417   3.381   3.453   3.316
 3485TIP3   OH210418   7.152   4.142   5.457
 3485TIP3    H110419   7.105   4.133   5.374
 3485TIP3    H210420   7.115   4.221   5.498
 3486TIP3   OH210421   0.716   3.144   0.919
 3486TIP3    H110422   0.710   3.209   0.849
 3486TIP3    H210423   0.688   3.191   0.997
 3487TIP3   OH210424   5.264   6.603   0.115
 3487TIP3    H110425   5.295   6.514   0.132
 3487TIP3    H210426   5.334   6.643   0.063
 3488TIP3   OH210427   1.141   5.403   3.096
 3488TIP3    H110428   1.167   5.350   3.172
 3488TIP3    H210429   1.073   5.352   3.054
 3489TIP3   OH210430   3.105   3.150   1.439
 3489TIP3    H110431   3.194   3.126   1.463
 3489TIP3    H210432   3.086   3.097   1.362
 3490TIP3   OH210433   6.386   4.156   4.792
 3490TIP3    H110434   6.365   4.247   4.810
 3490TIP3    H210435   6.481   4.150   4.803
 3491TIP3   OH210436   5.882   5.711   2.384
 3491TIP3    H110437   5.890   5.764   2.463
 3491TIP3    H210438   5.969   5.673   2.372
 3492TIP3   OH210439   6.920   1.018   0.889
 3492TIP3    H110440   6.873   0.980   0.815
 3492TIP3    H210441   6.858   1.078   0.930
 3493TIP3   OH210442   4.626   6.126   5.148
 3493TIP3    H110443   4.710   6.170   5.133
 3493TIP3    H210444   4.628   6.103   5.241
 3494TIP3   OH210445   5.851   2.175   5.593
 3494TIP3    H110446   5.927   2.229   5.611
 3494TIP3    H210447   5.776   2.228   5.622
 3495TIP3   OH210448   4.627   2.902   2.450
 3495TIP3    H110449   4.577   2.838   2.400
 3495TIP3    H210450   4.658   2.854   2.526
 3496TIP3   OH210451   5.548   0.809   2.441
 3496TIP3    H110452   5.529   0.724   2.480
 3496TIP3    H210453   5.644   0.814   2.437
 3497TIP3   OH210454   6.071   6.740   0.742
 3497TIP3    H110455   6.061   6.699   0.656
 3497TIP3    H210456   6.094   6.831   0.723
 3498TIP3   OH210457   0.716   6.704   4.168
 3498TIP3    H110458   0.640   6.704   4.226
 3498TIP3    H210459   0.727   6.612   4.144
 3499TIP3   OH210460   0.409   4.427   0.851
 3499TIP3    H110461   0.316   4.435   0.833
 3499TIP3    H210462   0.432   4.508   0.897
 3500TIP3   OH210463   3.638   6.311   3.714
 3500TIP3    H110464   3.600   6.271   3.636
 3500TIP3    H210465   3.652   6.402   3.690
 3501TIP3   OH210466   4.459   2.664   2.388
 3501TIP3    H110467   4.437   2.574   2.361
 3501TIP3    H210468   4.375   2.709   2.392
 3502TIP3   OH210469   7.147   6.567   4.198
 3502TIP3    H110470   7.149   6.656   4.232
 3502TIP3    H210471   7.165   6.577   4.104
 3503TIP3   OH210472   3.190   3.614   3.971
 3503TIP3    H110473   3.186   3.573   4.057
 3503TIP3    H210474   3.104   3.655   3.960
 3504TIP3   OH210475   1.889   1.440   0.474
 3504TIP3    H110476   1.821   1.487   0.425
 3504TIP3    H210477   1.840   1.381   0.532
 3505TIP3   OH210478   4.840   2.284   1.199
 3505TIP3    H110479   4.869   2.237   1.121
 3505TIP3    H210480   4.850   2.221   1.270
 3506TIP3   OH210481   0.167   5.050   1.233
 3506TIP3    H110482   0.133   4.962   1.251
 3506TIP3    H210483   0.092   5.098   1.197
 3507TIP3   OH210484   1.685   3.642   1.051
 3507TIP3    H110485   1.640   3.567   1.011
 3507TIP3    H210486   1.615   3.692   1.093
 3508TIP3   OH210487   2.869   5.291  -0.004
 3508TIP3    H110488   2.881   5.382  -0.031
 3508TIP3    H210489   2.898   5.288   0.087
 3509TIP3   OH210490   6.909   1.313   4.864
 3509TIP3    H110491   6.902   1.396   4.912
 3509TIP3    H210492   6.961   1.334   4.787
 3510TIP3   OH210493   3.345   4.721   5.162
 3510TIP3    H110494   3.342   4.626   5.160
 3510TIP3    H210495   3.430   4.742   5.201
 3511TIP3   OH210496   3.866   1.747   5.302
 3511TIP3    H110497   3.905   1.659   5.301
 3511TIP3    H210498   3.840   1.762   5.211
 3512TIP3   OH210499   0.677   6.161   2.081
 3512TIP3    H110500   0.629   6.178   2.000
 3512TIP3    H210501   0.610   6.167   2.150
 3513TIP3   OH210502   0.277   0.455   3.884
 3513TIP3    H110503   0.247   0.513   3.954
 3513TIP3    H210504   0.318   0.514   3.820
 3514TIP3   OH210505   1.549   5.090   3.360
 3514TIP3    H110506   1.600   5.168   3.341
 3514TIP3    H210507   1.532   5.095   3.454
 3515TIP3   OH210508   5.804   1.271   4.450
 3515TIP3    H110509   5.895   1.293   4.471
 3515TIP3    H210510   5.752   1.332   4.502
 3516TIP3   OH210511   5.286   2.322   5.551
 3516TIP3    H110512   5.316   2.408   5.523
 3516TIP3    H210513   5.195   2.318   5.522
 3517TIP3   OH210514   6.408   1.765   1.497
 3517TIP3    H110515   6.479   1.825   1.519
 3517TIP3    H210516   6.447   1.678   1.505
 3518TIP3   OH210517   2.505   2.152   1.220
 3518TIP3    H110518   2.495   2.059   1.199
 3518TIP3    H210519   2.523   2.153   1.314
 3519TIP3   OH210520   1.259   5.444   5.789
 3519TIP3    H110521   1.333   5.439   5.849
 3519TIP3    H210522   1.264   5.364   5.737
 3520TIP3   OH210523   2.645   5.633   3.007
 3520TIP3    H110524   2.714   5.625   2.940
 3520TIP3    H210525   2.622   5.725   3.007
 3521TIP3   OH210526   4.543   6.485   0.080
 3521TIP3    H110527   4.627   6.497   0.125
 3521TIP3    H210528   4.536   6.562   0.023
 3522TIP3   OH210529   3.020   4.712   4.333
 3522TIP3    H110530   3.077   4.789   4.324
 3522TIP3    H210531   2.982   4.700   4.246
 3523TIP3   OH210532   5.041   3.129   0.782
 3523TIP3    H110533   5.110   3.194   0.795
 3523TIP3    H210534   4.981   3.169   0.720
 3524TIP3   OH210535   5.945   4.025   2.147
 3524TIP3    H110536   5.908   3.964   2.212
 3524TIP3    H210537   6.039   4.021   2.161
 3525TIP3   OH210538   1.694   2.204   5.543
 3525TIP3    H110539   1.652   2.290   5.539
 3525TIP3    H210540   1.650   2.159   5.615
 3526TIP3   OH210541   6.537   2.676   4.537
 3526TIP3    H110542   6.515   2.755   4.586
 3526TIP3    H210543   6.534   2.703   4.445
 3527TIP3   OH210544   1.734   1.163   3.195
 3527TIP3    H110545   1.762   1.205   3.277
 3527TIP3    H210546   1.796   1.092   3.182
 3528TIP3   OH210547   0.691   3.244   2.806
 3528TIP3    H110548   0.630   3.218   2.737
 3528TIP3    H210549   0.777   3.216   2.774
 3529TIP3   OH210550   4.438   0.508   2.773
 3529TIP3    H110551   4.452   0.446   2.701
 3529TIP3    H210552   4.410   0.453   2.846
 3530TIP3   OH210553   4.018   6.169   5.879
 3530TIP3    H110554   4.024   6.152   5.785
 3530TIP3    H210555   3.943   6.117   5.909
 3531TIP3   OH210556   4.666   5.139   2.862
 3531TIP3    H110557   4.745   5.098   2.827
 3531TIP3    H210558   4.683   5.147   2.956
 3532TIP3   OH210559   5.100   0.353   5.826
 3532TIP3    H110560   5.131   0.382   5.911
 3532TIP3    H210561   5.099   0.257   5.832
 3533TIP3   OH210562   3.759   1.752   0.114
 3533TIP3    H110563   3.714   1.815   0.170
 3533TIP3    H210564   3.780   1.679   0.172
 3534TIP3   OH210565   0.674   0.213   0.500
 3534TIP3    H110566   0.735   0.222   0.573
 3534TIP3    H210567   0.674   0.299   0.458
 3535TIP3   OH210568   5.282   0.088   2.110
 3535TIP3    H110569   5.341   0.159   2.134
 3535TIP3    H210570   5.290   0.025   2.181
 3536TIP3   OH210571   0.060   0.178   1.491
 3536TIP3    H110572   0.121   0.251   1.489
 3536TIP3    H210573   0.027   0.176   1.581
 3537TIP3   OH210574   5.806   0.639   2.766
 3537TIP3    H110575   5.880   0.639   2.826
 3537TIP3    H210576   5.761   0.722   2.783
 3538TIP3   OH210577   4.313   5.275   3.987
 3538TIP3    H110578   4.254   5.244   4.055
 3538TIP3    H210579   4.312   5.371   3.996
 3539TIP3   OH210580   2.165   3.935   0.114
 3539TIP3    H110581   2.222   4.012   0.107
 3539TIP3    H210582   2.189   3.895   0.198
 3540TIP3   OH210583   4.275   2.833   0.652
 3540TIP3    H110584   4.352   2.820   0.707
 3540TIP3    H210585   4.311   2.839   0.563
 3541TIP3   OH210586   2.788   1.517   0.463
 3541TIP3    H110587   2.725   1.460   0.508
 3541TIP3    H210588   2.800   1.477   0.377
 3542TIP3   OH210589   0.022   3.673   4.448
 3542TIP3    H110590   0.111   3.679   4.484
 3542TIP3    H210591   0.001   3.580   4.452
 3543TIP3   OH210592   1.759   0.613   5.012
 3543TIP3    H110593   1.722   0.654   5.090
 3543TIP3    H210594   1.852   0.635   5.016
 3544TIP3   OH210595   5.755   2.726   3.491
 3544TIP3    H110596   5.745   2.819   3.512
 3544TIP3    H210597   5.835   2.700   3.536
 3545TIP3   OH210598   3.402   5.255   2.889
 3545TIP3    H110599   3.442   5.245   2.803
 3545TIP3    H210600   3.471   5.232   2.951
 3546TIP3   OH210601   1.517   5.817   5.782
 3546TIP3    H110602   1.518   5.732   5.738
 3546TIP3    H210603   1.501   5.880   5.712
 3547TIP3   OH210604   5.717   4.868   1.293
 3547TIP3    H110605   5.801   4.902   1.325
 3547TIP3    H210606   5.734   4.776   1.274
 3548TIP3   OH210607   0.630   0.694   4.241
 3548TIP3    H110608   0.723   0.713   4.256
 3548TIP3    H210609   0.597   0.770   4.193
 3549TIP3   OH210610   5.345   1.716   4.825
 3549TIP3    H110611   5.352   1.637   4.771
 3549TIP3    H210612   5.308   1.781   4.766
 3550TIP3   OH210613   5.190   1.717   1.577
 3550TIP3    H110614   5.229   1.632   1.596
 3550TIP3    H210615   5.118   1.725   1.640
 3551TIP3   OH210616   2.900   0.871   5.081
 3551TIP3    H110617   2.852   0.824   5.150
 3551TIP3    H210618   2.833   0.893   5.016
 3552TIP3   OH210619   3.784   0.781   3.807
 3552TIP3    H110620   3.755   0.727   3.734
 3552TIP3    H210621   3.848   0.726   3.853
 3553TIP3   OH210622   5.526   6.697   2.320
 3553TIP3    H110623   5.458   6.754   2.356
 3553TIP3    H210624   5.608   6.740   2.342
 3554TIP3   OH210625   7.172   2.878   5.628
 3554TIP3    H110626   7.163   2.786   5.653
 3554TIP3    H210627   7.112   2.888   5.553
 3555TIP3   OH210628   1.143   1.703   5.341
 3555TIP3    H110629   1.114   1.739   5.424
 3555TIP3    H210630   1.196   1.626   5.364
 3556TIP3   OH210631   4.366   1.394   3.701
 3556TIP3    H110632   4.315   1.467   3.666
 3556TIP3    H210633   4.301   1.341   3.749
 3557TIP3   OH210634   2.146   1.943   2.051
 3557TIP3    H110635   2.197   2.012   2.009
 3557TIP3    H210636   2.211   1.890   2.097
 3558TIP3   OH210637   4.749   0.400   5.497
 3558TIP3    H110638   4.807   0.438   5.431
 3558TIP3    H210639   4.798   0.407   5.579
 3559TIP3   OH210640   3.638   2.919   1.708
 3559TIP3    H110641   3.662   2.895   1.797
 3559TIP3    H210642   3.688   2.999   1.691
 3560TIP3   OH210643   7.145   3.293   4.750
 3560TIP3    H110644   7.082   3.222   4.737
 3560TIP3    H210645   7.116   3.335   4.831
 3561TIP3   OH210646   3.560   3.472   3.211
 3561TIP3    H110647   3.596   3.518   3.135
 3561TIP3    H210648   3.589   3.523   3.287
 3562TIP3   OH210649   6.132   1.082   2.897
 3562TIP3    H110650   6.201   1.148   2.895
 3562TIP3    H210651   6.155   1.022   2.826
 3563TIP3   OH210652   6.430   3.351   0.404
 3563TIP3    H110653   6.361   3.344   0.339
 3563TIP3    H210654   6.385   3.377   0.485
 3564TIP3   OH210655   3.916   1.802   1.973
 3564TIP3    H110656   3.868   1.806   1.890
 3564TIP3    H210657   3.997   1.849   1.956
 3565TIP3   OH210658   4.360   5.400   4.421
 3565TIP3    H110659   4.306   5.402   4.342
 3565TIP3    H210660   4.317   5.461   4.481
 3566TIP3   OH210661   2.423   6.149   1.314
 3566TIP3    H110662   2.386   6.076   1.265
 3566TIP3    H210663   2.403   6.129   1.405
 3567TIP3   OH210664   3.471   5.646   2.483
 3567TIP3    H110665   3.402   5.587   2.514
 3567TIP3    H210666   3.470   5.636   2.388
 3568TIP3   OH210667   3.384   5.507   4.219
 3568TIP3    H110668   3.302   5.470   4.188
 3568TIP3    H210669   3.379   5.501   4.314
 3569TIP3   OH210670   4.294   4.437   4.264
 3569TIP3    H110671   4.327   4.347   4.262
 3569TIP3    H210672   4.264   4.454   4.175
 3570TIP3   OH210673   5.875   3.310   4.077
 3570TIP3    H110674   5.888   3.218   4.056
 3570TIP3    H210675   5.963   3.347   4.078
 3571TIP3   OH210676   1.035   6.681   3.931
 3571TIP3    H110677   1.040   6.607   3.991
 3571TIP3    H210678   1.037   6.642   3.844
 3572TIP3   OH210679   3.797   5.861   2.646
 3572TIP3    H110680   3.733   5.907   2.591
 3572TIP3    H210681   3.760   5.773   2.658
 3573TIP3   OH210682   5.069   4.140   2.098
 3573TIP3    H110683   4.987   4.097   2.122
 3573TIP3    H210684   5.065   4.226   2.139
 3574TIP3   OH210685   0.779   2.157   1.387
 3574TIP3    H110686   0.683   2.153   1.390
 3574TIP3    H210687   0.807   2.072   1.419
 3575TIP3   OH210688   7.036   5.278   3.949
 3575TIP3    H110689   7.105   5.345   3.946
 3575TIP3    H210690   7.074   5.202   3.904
 3576TIP3   OH210691   2.456   6.364   2.648
 3576TIP3    H110692   2.500   6.330   2.570
 3576TIP3    H210693   2.465   6.459   2.642
 3577TIP3   OH210694   2.241   2.602   1.976
 3577TIP3    H110695   2.161   2.654   1.969
 3577TIP3    H210696   2.217   2.528   2.031
 3578TIP3   OH210697   4.380   0.651   1.334
 3578TIP3    H110698   4.421   0.736   1.351
 3578TIP3    H210699   4.303   0.650   1.391
 3579TIP3   OH210700   3.680   0.315   3.171
 3579TIP3    H110701   3.672   0.378   3.242
 3579TIP3    H210702   3.617   0.246   3.192
 3580TIP3   OH210703   2.104   1.989   2.637
 3580TIP3    H110704   2.142   1.909   2.600
 3580TIP3    H210705   2.154   2.060   2.597
 3581TIP3   OH210706   5.828   2.517   4.247
 3581TIP3    H110707   5.785   2.505   4.162
 3581TIP3    H210708   5.888   2.443   4.255
 3582TIP3   OH210709   0.113   0.900   2.809
 3582TIP3    H110710   0.071   0.915   2.894
 3582TIP3    H210711   0.056   0.944   2.746
 3583TIP3   OH210712   6.340   6.606   2.805
 3583TIP3    H110713   6.418   6.609   2.750
 3583TIP3    H210714   6.363   6.657   2.883
 3584TIP3   OH210715   5.106   0.566   0.364
 3584TIP3    H110716   5.069   0.502   0.304
 3584TIP3    H210717   5.140   0.636   0.308
 3585TIP3   OH210718   3.091   1.340   5.157
 3585TIP3    H110719   3.163   1.329   5.095
 3585TIP3    H210720   3.105   1.427   5.195
 3586TIP3   OH210721   0.192   2.497   1.918
 3586TIP3    H110722   0.214   2.493   2.011
 3586TIP3    H210723   0.272   2.469   1.874
 3587TIP3   OH210724   2.616   1.361   3.301
 3587TIP3    H110725   2.662   1.437   3.263
 3587TIP3    H210726   2.569   1.396   3.376
 3588TIP3   OH210727   1.151   5.903   2.222
 3588TIP3    H110728   1.116   5.970   2.162
 3588TIP3    H210729   1.222   5.946   2.268
 3589TIP3   OH210730   1.124   2.994   0.086
 3589TIP3    H110731   1.196   3.024   0.141
 3589TIP3    H210732   1.163   2.930   0.027
 3590TIP3   OH210733   0.242   5.921   4.992
 3590TIP3    H110734   0.185   5.988   5.030
 3590TIP3    H210735   0.192   5.840   4.998
 3591TIP3   OH210736   0.172   4.029   0.625
 3591TIP3    H110737   0.128   3.947   0.647
 3591TIP3    H210738   0.254   4.026   0.675
 3592TIP3   OH210739   6.105   3.600   4.182
 3592TIP3    H110740   6.096   3.597   4.087
 3592TIP3    H210741   6.018   3.578   4.215
 3593TIP3   OH210742   1.536   6.277   4.339
 3593TIP3    H110743   1.543   6.266   4.434
 3593TIP3    H210744   1.443   6.292   4.323
 3594TIP3   OH210745   2.196   0.420   1.579
 3594TIP3    H110746   2.172   0.333   1.547
 3594TIP3    H210747   2.284   0.409   1.615
 3595TIP3   OH210748   2.376   5.591   0.339
 3595TIP3    H110749   2.374   5.679   0.378
 3595TIP3    H210750   2.327   5.536   0.401
 3596TIP3   OH210751   2.474   0.167   4.665
 3596TIP3    H110752   2.471   0.211   4.579
 3596TIP3    H210753   2.432   0.229   4.725
 3597TIP3   OH210754   4.705   2.274   5.400
 3597TIP3    H110755   4.726   2.218   5.475
 3597TIP3    H210756   4.659   2.349   5.437
 3598TIP3   OH210757   4.361   0.437   5.660
 3598TIP3    H110758   4.280   0.424   5.611
 3598TIP3    H210759   4.397   0.518   5.625
 3599TIP3   OH210760   1.794   0.942   4.969
 3599TIP3    H110761   1.705   0.923   4.997
 3599TIP3    H210762   1.841   0.961   5.050
 3600TIP3   OH210763   3.182   1.191   4.342
 3600TIP3    H110764   3.155   1.252   4.410
 3600TIP3    H210765   3.100   1.151   4.313
 3601TIP3   OH210766   5.134   4.581   2.019
 3601TIP3    H110767   5.177   4.661   1.988
 3601TIP3    H210768   5.121   4.528   1.941
 3602TIP3   OH210769   5.291   6.420   0.753
 3602TIP3    H110770   5.204   6.456   0.734
 3602TIP3    H210771   5.313   6.369   0.675
 3603TIP3   OH210772   3.965   0.833   3.124
 3603TIP3    H110773   3.900   0.891   3.085
 3603TIP3    H210774   3.987   0.874   3.207
 3604TIP3   OH210775   5.094   1.982   5.278
 3604TIP3    H110776   5.177   2.028   5.266
 3604TIP3    H210777   5.116   1.890   5.266
 3605TIP3   OH210778   1.606   1.156   2.317
 3605TIP3    H110779   1.658   1.187   2.243
 3605TIP3    H210780   1.626   1.218   2.387
 3606TIP3   OH210781   5.002   1.047   3.736
 3606TIP3    H110782   4.947   1.119   3.769
 3606TIP3    H210783   5.080   1.051   3.791
 3607TIP3   OH210784   6.184   0.715   4.536
 3607TIP3    H110785   6.175   0.788   4.597
 3607TIP3    H210786   6.274   0.684   4.549
 3608TIP3   OH210787   1.559   4.733   1.724
 3608TIP3    H110788   1.605   4.662   1.679
 3608TIP3    H210789   1.500   4.689   1.785
 3609TIP3   OH210790   5.080   2.581   5.230
 3609TIP3    H110791   5.095   2.487   5.218
 3609TIP3    H210792   5.082   2.617   5.142
 3610TIP3   OH210793   2.035   1.485   4.606
 3610TIP3    H110794   2.085   1.550   4.557
 3610TIP3    H210795   2.079   1.480   4.691
 3611TIP3   OH210796   2.182   6.654   2.085
 3611TIP3    H110797   2.156   6.745   2.101
 3611TIP3    H210798   2.205   6.620   2.172
 3612TIP3   OH210799   0.555   3.136   5.335
 3612TIP3    H110800   0.548   3.080   5.258
 3612TIP3    H210801   0.477   3.116   5.387
 3613TIP3   OH210802   1.723   1.613   5.539
 3613TIP3    H110803   1.749   1.686   5.483
 3613TIP3    H210804   1.758   1.637   5.625
 3614TIP3   OH210805   4.592   4.105   0.873
 3614TIP3    H110806   4.549   4.080   0.955
 3614TIP3    H210807   4.576   4.032   0.814
 3615TIP3   OH210808   4.158   1.954   1.121
 3615TIP3    H110809   4.180   1.913   1.037
 3615TIP3    H210810   4.242   1.971   1.163
 3616TIP3   OH210811   1.758   1.287   3.846
 3616TIP3    H110812   1.669   1.260   3.866
 3616TIP3    H210813   1.758   1.302   3.751
 3617TIP3   OH210814   6.627   1.434   3.719
 3617TIP3    H110815   6.677   1.481   3.786
 3617TIP3    H210816   6.555   1.492   3.697
 3618TIP3   OH210817   5.222   0.423   3.305
 3618TIP3    H110818   5.173   0.460   3.232
 3618TIP3    H210819   5.233   0.495   3.366
 3619TIP3   OH210820   1.594   4.156   1.493
 3619TIP3    H110821   1.543   4.224   1.537
 3619TIP3    H210822   1.594   4.082   1.554
 3620TIP3   OH210823   2.293   2.257   5.636
 3620TIP3    H110824   2.305   2.192   5.705
 3620TIP3    H210825   2.302   2.341   5.681
 3621TIP3   OH210826   3.886   4.055   3.464
 3621TIP3    H110827   3.933   4.096   3.537
 3621TIP3    H210828   3.945   4.064   3.389
 3622TIP3   OH210829   6.790   1.302   2.153
 3622TIP3    H110830   6.849   1.313   2.079
 3622TIP3    H210831   6.833   1.238   2.210
 3623TIP3   OH210832   6.848   3.728   5.496
 3623TIP3    H110833   6.862   3.753   5.405
 3623TIP3    H210834   6.905   3.786   5.546
 3624TIP3   OH210835   6.758   5.677   0.879
 3624TIP3    H110836   6.733   5.587   0.860
 3624TIP3    H210837   6.821   5.670   0.951
 3625TIP3   OH210838   4.494   4.583   4.865
 3625TIP3    H110839   4.444   4.663   4.882
 3625TIP3    H210840   4.428   4.515   4.853
 3626TIP3   OH210841   5.759   6.260   5.585
 3626TIP3    H110842   5.788   6.206   5.512
 3626TIP3    H210843   5.666   6.274   5.569
 3627TIP3   OH210844   6.900   1.601   4.962
 3627TIP3    H110845   6.835   1.615   5.032
 3627TIP3    H210846   6.983   1.596   5.009
 3628TIP3   OH210847   5.421   1.067   4.837
 3628TIP3    H110848   5.487   1.136   4.832
 3628TIP3    H210849   5.448   1.013   4.912
 3629TIP3   OH210850   0.350   5.714   4.651
 3629TIP3    H110851   0.418   5.708   4.718
 3629TIP3    H210852   0.362   5.802   4.613
 3630TIP3   OH210853   3.709   4.112   0.817
 3630TIP3    H110854   3.724   4.053   0.891
 3630TIP3    H210855   3.686   4.054   0.745
 3631TIP3   OH210856   0.390   5.784   3.793
 3631TIP3    H110857   0.439   5.862   3.818
 3631TIP3    H210858   0.362   5.745   3.876
 3632TIP3   OH210859   5.824   0.135   3.561
 3632TIP3    H110860   5.917   0.153   3.569
 3632TIP3    H210861   5.813   0.048   3.599
 3633TIP3   OH210862   1.708   5.611   3.392
 3633TIP3    H110863   1.752   5.537   3.351
 3633TIP3    H210864   1.638   5.572   3.445
 3634TIP3   OH210865   7.050   3.125   0.655
 3634TIP3    H110866   6.984   3.099   0.718
 3634TIP3    H210867   7.047   3.058   0.587
 3635TIP3   OH210868   0.041   2.283   2.138
 3635TIP3    H110869   0.099   2.351   2.171
 3635TIP3    H210870  -0.040   2.329   2.115
 3636TIP3   OH210871   0.411   6.167   2.986
 3636TIP3    H110872   0.479   6.155   2.920
 3636TIP3    H210873   0.406   6.262   2.998
 3637TIP3   OH210874   4.046   4.218   5.472
 3637TIP3    H110875   4.104   4.190   5.401
 3637TIP3    H210876   4.060   4.312   5.480
 3638TIP3   OH210877   6.270   0.696   3.294
 3638TIP3    H110878   6.177   0.674   3.302
 3638TIP3    H210879   6.302   0.636   3.226
 3639TIP3   OH210880   5.163   2.789   2.076
 3639TIP3    H110881   5.141   2.757   2.163
 3639TIP3    H210882   5.229   2.728   2.043
 3640TIP3   OH210883   5.588   1.625   2.318
 3640TIP3    H110884   5.625   1.540   2.341
 3640TIP3    H210885   5.603   1.680   2.395
 3641TIP3   OH210886   0.188   1.906   5.207
 3641TIP3    H110887   0.159   1.875   5.120
 3641TIP3    H210888   0.255   1.843   5.233
 3642TIP3   OH210889   2.961   0.790   1.871
 3642TIP3    H110890   3.006   0.853   1.816
 3642TIP3    H210891   2.946   0.835   1.954
 3643TIP3   OH210892   2.108   6.360   5.025
 3643TIP3    H110893   2.150   6.419   4.962
 3643TIP3    H210894   2.034   6.323   4.977
 3644TIP3   OH210895   6.591   0.162   0.145
 3644TIP3    H110896   6.545   0.139   0.065
 3644TIP3    H210897   6.678   0.122   0.136
 3645TIP3   OH210898   3.665   4.123   1.937
 3645TIP3    H110899   3.659   4.093   2.027
 3645TIP3    H210900   3.579   4.159   1.918
 3646TIP3   OH210901   5.480   6.176   5.673
 3646TIP3    H110902   5.444   6.132   5.597
 3646TIP3    H210903   5.416   6.244   5.695
 3647TIP3   OH210904   0.942   4.542   3.374
 3647TIP3    H110905   0.946   4.591   3.455
 3647TIP3    H210906   1.031   4.546   3.339
 3648TIP3   OH210907   4.944   4.330   2.302
 3648TIP3    H110908   4.922   4.275   2.378
 3648TIP3    H210909   5.029   4.367   2.324
 3649TIP3   OH210910   4.245   5.452   4.814
 3649TIP3    H110911   4.275   5.480   4.727
 3649TIP3    H210912   4.326   5.432   4.862
 3650TIP3   OH210913   5.045   0.789   4.497
 3650TIP3    H110914   5.025   0.706   4.454
 3650TIP3    H210915   5.030   0.772   4.590
 3651TIP3   OH210916   4.142   3.090   3.559
 3651TIP3    H110917   4.139   3.117   3.467
 3651TIP3    H210918   4.073   3.024   3.568
 3652TIP3   OH210919   3.737   2.567   0.816
 3652TIP3    H110920   3.659   2.602   0.858
 3652TIP3    H210921   3.766   2.497   0.875
 3653TIP3   OH210922   5.617   1.513   5.089
 3653TIP3    H110923   5.581   1.549   5.170
 3653TIP3    H210924   5.540   1.497   5.034
 3654TIP3   OH210925   5.633   3.091   5.801
 3654TIP3    H110926   5.590   3.097   5.886
 3654TIP3    H210927   5.568   3.124   5.739
 3655TIP3   OH210928   3.918   4.201   4.080
 3655TIP3    H110929   3.827   4.188   4.108
 3655TIP3    H210930   3.911   4.262   4.007
 3656TIP3   OH210931   0.295   0.383   2.322
 3656TIP3    H110932   0.295   0.337   2.238
 3656TIP3    H210933   0.206   0.368   2.356
 3657TIP3   OH210934   6.815   0.578   5.799
 3657TIP3    H110935   6.868   0.573   5.878
 3657TIP3    H210936   6.779   0.666   5.799
 3658TIP3   OH210937   5.991   1.593   5.935
 3658TIP3    H110938   6.056   1.569   6.000
 3658TIP3    H210939   6.020   1.549   5.855
 3659TIP3   OH210940   2.983   2.364   0.897
 3659TIP3    H110941   2.891   2.381   0.877
 3659TIP3    H210942   2.983   2.277   0.938
 3660TIP3   OH210943   1.077   0.823   1.955
 3660TIP3    H110944   1.058   0.849   2.046
 3660TIP3    H210945   1.062   0.903   1.904
 3661TIP3   OH210946   5.371   2.052   5.601
 3661TIP3    H110947   5.281   2.019   5.606
 3661TIP3    H210948   5.362   2.139   5.563
 3662TIP3   OH210949   2.899   5.311   1.407
 3662TIP3    H110950   2.818   5.312   1.458
 3662TIP3    H210951   2.953   5.244   1.450
 3663TIP3   OH210952   2.604   0.201   3.890
 3663TIP3    H110953   2.528   0.165   3.937
 3663TIP3    H210954   2.593   0.169   3.800
 3664TIP3   OH210955   1.368   0.962   3.977
 3664TIP3    H110956   1.308   1.036   3.986
 3664TIP3    H210957   1.328   0.906   3.910
 3665TIP3   OH210958   2.188   0.746   1.032
 3665TIP3    H110959   2.129   0.773   1.102
 3665TIP3    H210960   2.227   0.827   1.001
 3666TIP3   OH210961   6.992   4.039   0.456
 3666TIP3    H110962   6.962   4.107   0.395
 3666TIP3    H210963   7.006   3.962   0.400
 3667TIP3   OH210964   0.008   1.603   0.391
 3667TIP3    H110965   0.092   1.557   0.396
 3667TIP3    H210966  -0.035   1.584   0.475
 3668TIP3   OH210967   4.083   5.069   0.683
 3668TIP3    H110968   4.026   5.139   0.652
 3668TIP3    H210969   4.115   5.027   0.604
 3669TIP3   OH210970   4.006   0.981   2.863
 3669TIP3    H110971   4.031   1.036   2.938
 3669TIP3    H210972   3.977   1.044   2.797
 3670TIP3   OH210973   2.736   1.841   3.291
 3670TIP3    H110974   2.779   1.909   3.238
 3670TIP3    H210975   2.771   1.853   3.379
 3671TIP3   OH210976   2.097   4.630   3.034
 3671TIP3    H110977   2.051   4.674   3.106
 3671TIP3    H210978   2.114   4.542   3.066
 3672TIP3   OH210979   0.872   0.182   4.652
 3672TIP3    H110980   0.823   0.121   4.597
 3672TIP3    H210981   0.810   0.205   4.722
 3673TIP3   OH210982   6.109   0.095   1.504
 3673TIP3    H110983   6.127   0.163   1.569
 3673TIP3    H210984   6.028   0.054   1.534
 3674TIP3   OH210985   6.409   2.179   4.545
 3674TIP3    H110986   6.499   2.177   4.577
 3674TIP3    H210987   6.416   2.225   4.461
 3675TIP3   OH210988   3.174   0.235   4.489
 3675TIP3    H110989   3.263   0.236   4.526
 3675TIP3    H210990   3.177   0.300   4.418
 3676TIP3   OH210991   6.365   3.169   3.306
 3676TIP3    H110992   6.376   3.114   3.384
 3676TIP3    H210993   6.353   3.257   3.340
 3677TIP3   OH210994   1.408   3.444   3.336
 3677TIP3    H110995   1.460   3.371   3.369
 3677TIP3    H210996   1.371   3.412   3.254
 3678TIP3   OH210997   6.440   5.712   0.946
 3678TIP3    H110998   6.527   5.745   0.971
 3678TIP3    H210999   6.379   5.772   0.988
 3679TIP3   OH211000   1.210   3.191   5.189
 3679TIP3    H111001   1.302   3.164   5.187
 3679TIP3    H211002   1.201   3.239   5.272
 3680TIP3   OH211003   4.782   0.029   2.493
 3680TIP3    H111004   4.873   0.001   2.486
 3680TIP3    H211005   4.779   0.114   2.449
 3681TIP3   OH211006   4.546   3.716   5.421
 3681TIP3    H111007   4.578   3.626   5.422
 3681TIP3    H211008   4.625   3.769   5.409
 3682TIP3   OH211009   0.402   3.280   5.885
 3682TIP3    H111010   0.395   3.207   5.824
 3682TIP3    H211011   0.331   3.339   5.861
 3683TIP3   OH211012   2.884   0.614   0.727
 3683TIP3    H111013   2.823   0.609   0.654
 3683TIP3    H211014   2.831   0.642   0.801
 3684TIP3   OH211015   4.260   3.037   5.307
 3684TIP3    H111016   4.338   3.014   5.256
 3684TIP3    H211017   4.274   2.996   5.392
 3685TIP3   OH211018   1.572   1.258   4.905
 3685TIP3    H111019   1.567   1.178   4.854
 3685TIP3    H211020   1.481   1.288   4.914
 3686TIP3   OH211021   1.973   2.422   0.307
 3686TIP3    H111022   2.022   2.362   0.363
 3686TIP3    H211023   1.884   2.386   0.306
 3687TIP3   OH211024   4.830   5.171   1.842
 3687TIP3    H111025   4.831   5.243   1.905
 3687TIP3    H211026   4.754   5.118   1.867
 3688TIP3   OH211027   4.289   1.543   1.000
 3688TIP3    H111028   4.297   1.570   1.091
 3688TIP3    H211029   4.378   1.549   0.965
 3689TIP3   OH211030   4.659   4.216   4.109
 3689TIP3    H111031   4.660   4.181   4.197
 3689TIP3    H211032   4.667   4.311   4.121
 3690TIP3   OH211033   1.831   4.631   4.183
 3690TIP3    H111034   1.854   4.686   4.258
 3690TIP3    H211035   1.813   4.545   4.221
 3691TIP3   OH211036   2.852   3.992   3.061
 3691TIP3    H111037   2.878   4.074   3.019
 3691TIP3    H211038   2.914   3.927   3.028
 3692TIP3   OH211039   0.427   3.970   2.039
 3692TIP3    H111040   0.465   4.057   2.035
 3692TIP3    H211041   0.475   3.920   1.972
 3693TIP3   OH211042   0.647   6.800   0.138
 3693TIP3    H111043   0.720   6.852   0.104
 3693TIP3    H211044   0.686   6.716   0.161
 3694TIP3   OH211045   4.995   1.948   0.765
 3694TIP3    H111046   4.966   1.942   0.674
 3694TIP3    H211047   5.064   2.015   0.764
 3695TIP3   OH211048   3.381   4.315   4.114
 3695TIP3    H111049   3.320   4.367   4.165
 3695TIP3    H211050   3.409   4.245   4.173
 3696TIP3   OH211051   4.268   1.580   3.525
 3696TIP3    H111052   4.234   1.649   3.583
 3696TIP3    H211053   4.227   1.597   3.441
 3697TIP3   OH211054   4.809   5.371   2.750
 3697TIP3    H111055   4.768   5.454   2.773
 3697TIP3    H211056   4.757   5.305   2.796
 3698TIP3   OH211057   5.350   1.535   4.635
 3698TIP3    H111058   5.295   1.558   4.560
 3698TIP3    H211059   5.426   1.591   4.627
 3699TIP3   OH211060   4.454   6.278   3.151
 3699TIP3    H111061   4.472   6.252   3.241
 3699TIP3    H211062   4.367   6.243   3.132
 3700TIP3   OH211063   3.177   3.824   4.966
 3700TIP3    H111064   3.134   3.834   4.881
 3700TIP3    H211065   3.181   3.913   5.001
 3701TIP3   OH211066   3.245   4.613   3.844
 3701TIP3    H111067   3.277   4.639   3.758
 3701TIP3    H211068   3.152   4.638   3.844
 3702TIP3   OH211069   0.269   6.371   4.497
 3702TIP3    H111070   0.292   6.283   4.469
 3702TIP3    H211071   0.321   6.386   4.576
 3703TIP3   OH211072   6.259   2.731   0.664
 3703TIP3    H111073   6.242   2.666   0.596
 3703TIP3    H211074   6.324   2.790   0.625
 3704TIP3   OH211075   0.269   1.275   4.926
 3704TIP3    H111076   0.191   1.226   4.901
 3704TIP3    H211077   0.339   1.239   4.871
 3705TIP3   OH211078   0.604   0.870   4.522
 3705TIP3    H111079   0.606   0.860   4.617
 3705TIP3    H211080   0.685   0.829   4.491
 3706TIP3   OH211081   2.093   4.918   2.926
 3706TIP3    H111082   2.095   4.899   2.833
 3706TIP3    H211083   2.104   4.833   2.969
 3707TIP3   OH211084   6.302   1.258   4.481
 3707TIP3    H111085   6.364   1.196   4.520
 3707TIP3    H211086   6.356   1.330   4.448
 3708TIP3   OH211087   1.551   0.730   5.784
 3708TIP3    H111088   1.467   0.770   5.806
 3708TIP3    H211089   1.575   0.679   5.862
 3709TIP3   OH211090   2.986   2.325   0.434
 3709TIP3    H111091   3.062   2.285   0.477
 3709TIP3    H211092   2.918   2.328   0.502
 3710TIP3   OH211093   4.021   2.528   1.884
 3710TIP3    H111094   3.955   2.596   1.892
 3710TIP3    H211095   4.092   2.557   1.942
 3711TIP3   OH211096   5.261   1.960   1.452
 3711TIP3    H111097   5.248   1.885   1.509
 3711TIP3    H211098   5.295   1.923   1.371
 3712TIP3   OH211099   6.857   6.119   4.818
 3712TIP3    H111100   6.863   6.209   4.851
 3712TIP3    H211101   6.872   6.064   4.895
 3713TIP3   OH211102   5.040   5.334   2.926
 3713TIP3    H111103   5.005   5.386   2.998
 3713TIP3    H211104   4.981   5.353   2.853
 3714TIP3   OH211105   2.421   3.956   0.484
 3714TIP3    H111106   2.409   4.033   0.429
 3714TIP3    H211107   2.512   3.932   0.471
 3715TIP3   OH211108   4.944   2.575   5.824
 3715TIP3    H111109   4.873   2.638   5.837
 3715TIP3    H211110   5.017   2.609   5.876
 3716TIP3   OH211111   0.269   1.609   0.066
 3716TIP3    H111112   0.332   1.666   0.022
 3716TIP3    H211113   0.189   1.617   0.015
 3717TIP3   OH211114   2.239   1.979   4.305
 3717TIP3    H111115   2.303   2.049   4.296
 3717TIP3    H211116   2.196   1.996   4.389
 3718TIP3   OH211117   4.723   2.039   2.567
 3718TIP3    H111118   4.771   2.115   2.598
 3718TIP3    H211119   4.706   2.056   2.474
 3719TIP3   OH211120   2.557   6.464   1.404
 3719TIP3    H111121   2.565   6.482   1.498
 3719TIP3    H211122   2.605   6.382   1.392
 3720TIP3   OH211123   3.484   2.622   5.503
 3720TIP3    H111124   3.526   2.630   5.588
 3720TIP3    H211125   3.557   2.610   5.441
 3721TIP3   OH211126   3.562   4.254   4.985
 3721TIP3    H111127   3.482   4.227   5.030
 3721TIP3    H211128   3.548   4.347   4.965
 3722TIP3   OH211129   1.415   4.220   1.142
 3722TIP3    H111130   1.370   4.207   1.226
 3722TIP3    H211131   1.379   4.153   1.085
 3723TIP3   OH211132   4.028   3.238   2.560
 3723TIP3    H111133   4.054   3.330   2.552
 3723TIP3    H211134   4.029   3.205   2.470
 3724TIP3   OH211135   3.192   1.155   0.929
 3724TIP3    H111136   3.163   1.176   1.017
 3724TIP3    H211137   3.199   1.060   0.928
 3725TIP3   OH211138   3.367   2.234   4.084
 3725TIP3    H111139   3.317   2.307   4.048
 3725TIP3    H211140   3.321   2.211   4.165
 3726TIP3   OH211141   4.502   3.975   0.415
 3726TIP3    H111142   4.560   4.035   0.368
 3726TIP3    H211143   4.508   3.893   0.367
 3727TIP3   OH211144   3.664   5.445   0.205
 3727TIP3    H111145   3.699   5.488   0.282
 3727TIP3    H211146   3.741   5.406   0.163
 3728TIP3   OH211147   6.846   3.261   3.066
 3728TIP3    H111148   6.832   3.350   3.096
 3728TIP3    H211149   6.779   3.248   2.998
 3729TIP3   OH211150   3.003   0.947   0.223
 3729TIP3    H111151   3.092   0.965   0.253
 3729TIP3    H211152   2.968   0.886   0.288
 3730TIP3   OH211153   3.730   3.076   4.511
 3730TIP3    H111154   3.655   3.087   4.568
 3730TIP3    H211155   3.791   3.145   4.537
 3731TIP3   OH211156   2.084   3.399   1.566
 3731TIP3    H111157   2.083   3.348   1.647
 3731TIP3    H211158   2.055   3.487   1.593
 3732TIP3   OH211159   1.018   3.576   3.363
 3732TIP3    H111160   0.982   3.659   3.331
 3732TIP3    H211161   1.056   3.534   3.286
 3733TIP3   OH211162   3.275   4.389   0.345
 3733TIP3    H111163   3.355   4.441   0.337
 3733TIP3    H211164   3.204   4.453   0.336
 3734TIP3   OH211165   2.539   2.880   5.157
 3734TIP3    H111166   2.624   2.921   5.172
 3734TIP3    H211167   2.544   2.797   5.206
 3735TIP3   OH211168   2.310   3.229   3.798
 3735TIP3    H111169   2.358   3.242   3.880
 3735TIP3    H211170   2.234   3.177   3.823
 3736TIP3   OH211171   3.264   2.046   3.044
 3736TIP3    H111172   3.333   2.107   3.019
 3736TIP3    H211173   3.298   1.999   3.120
 3737TIP3   OH211174   2.136   1.462   4.037
 3737TIP3    H111175   2.053   1.449   4.081
 3737TIP3    H211176   2.139   1.556   4.019
 3738TIP3   OH211177   4.634   2.141   4.431
 3738TIP3    H111178   4.706   2.131   4.492
 3738TIP3    H211179   4.570   2.195   4.477
 3739TIP3   OH211180   3.845   2.000   5.613
 3739TIP3    H111181   3.791   2.008   5.534
 3739TIP3    H211182   3.785   1.964   5.678
 3740TIP3   OH211183   3.737   1.556   2.060
 3740TIP3    H111184   3.818   1.606   2.069
 3740TIP3    H211185   3.679   1.614   2.010
 3741TIP3   OH211186   0.108   3.992   3.951
 3741TIP3    H111187   0.163   4.048   4.007
 3741TIP3    H211188   0.042   3.957   4.010
 3742TIP3   OH211189   1.464   2.558   1.318
 3742TIP3    H111190   1.381   2.521   1.288
 3742TIP3    H211191   1.487   2.622   1.252
 3743TIP3   OH211192   3.152   2.583   0.511
 3743TIP3    H111193   3.088   2.514   0.530
 3743TIP3    H211194   3.141   2.646   0.582
 3744TIP3   OH211195   3.865   5.169   1.460
 3744TIP3    H111196   3.904   5.082   1.461
 3744TIP3    H211197   3.916   5.217   1.394
 3745TIP3   OH211198   4.958   0.060   0.276
 3745TIP3    H111199   5.004   0.135   0.239
 3745TIP3    H211200   4.912   0.021   0.201
 3746TIP3   OH211201   1.208   0.641   4.171
 3746TIP3    H111202   1.209   0.582   4.095
 3746TIP3    H211203   1.270   0.602   4.232
 3747TIP3   OH211204   2.303   5.212   0.194
 3747TIP3    H111205   2.370   5.189   0.258
 3747TIP3    H211206   2.345   5.279   0.139
 3748TIP3   OH211207   0.841   6.016   4.298
 3748TIP3    H111208   0.869   5.961   4.371
 3748TIP3    H211209   0.923   6.045   4.257
 3749TIP3   OH211210   4.295   4.106   1.287
 3749TIP3    H111211   4.369   4.129   1.230
 3749TIP3    H211212   4.300   4.010   1.294
 3750TIP3   OH211213   4.736   5.882   1.748
 3750TIP3    H111214   4.827   5.871   1.718
 3750TIP3    H211215   4.684   5.832   1.686
 3751TIP3   OH211216   2.280   5.758   4.407
 3751TIP3    H111217   2.311   5.765   4.497
 3751TIP3    H211218   2.320   5.678   4.374
 3752TIP3   OH211219   3.888   1.412   0.738
 3752TIP3    H111220   3.870   1.506   0.728
 3752TIP3    H211221   3.983   1.405   0.733
 3753TIP3   OH211222   1.201   3.720   3.130
 3753TIP3    H111223   1.294   3.707   3.113
 3753TIP3    H211224   1.163   3.632   3.127
 3754TIP3   OH211225   1.814   2.754   1.581
 3754TIP3    H111226   1.892   2.721   1.626
 3754TIP3    H211227   1.831   2.848   1.571
 3755TIP3   OH211228   5.258   1.463   0.568
 3755TIP3    H111229   5.299   1.512   0.496
 3755TIP3    H211230   5.327   1.454   0.633
 3756TIP3   OH211231   4.094   2.640   0.573
 3756TIP3    H111232   4.113   2.582   0.647
 3756TIP3    H211233   4.153   2.715   0.585
 3757TIP3   OH211234   5.016   2.946   1.417
 3757TIP3    H111235   4.930   2.956   1.459
 3757TIP3    H211236   5.027   3.026   1.366
 3758TIP3   OH211237   6.497   0.983   4.354
 3758TIP3    H111238   6.474   1.007   4.444
 3758TIP3    H211239   6.558   1.050   4.326
 3759TIP3   OH211240   2.082   6.101   4.124
 3759TIP3    H111241   2.033   6.070   4.048
 3759TIP3    H211242   2.095   6.023   4.178
 3760TIP3   OH211243   6.537   4.522   3.860
 3760TIP3    H111244   6.447   4.555   3.858
 3760TIP3    H211245   6.588   4.597   3.892
 3761TIP3   OH211246   4.043   6.494   2.601
 3761TIP3    H111247   3.973   6.466   2.660
 3761TIP3    H211248   4.120   6.504   2.657
 3762TIP3   OH211249   2.972   1.487   4.233
 3762TIP3    H111250   2.981   1.434   4.154
 3762TIP3    H211251   3.015   1.436   4.302
 3763TIP3   OH211252   5.216   1.732   5.252
 3763TIP3    H111253   5.200   1.693   5.166
 3763TIP3    H211254   5.303   1.700   5.276
 3764TIP3   OH211255   0.152   2.265   4.403
 3764TIP3    H111256   0.237   2.306   4.385
 3764TIP3    H211257   0.127   2.224   4.320
 3765TIP3   OH211258   7.002   1.330   4.194
 3765TIP3    H111259   6.952   1.256   4.159
 3765TIP3    H211260   7.046   1.368   4.117
 3766TIP3   OH211261   0.293   5.452   0.651
 3766TIP3    H111262   0.285   5.496   0.735
 3766TIP3    H211263   0.363   5.388   0.664
 3767TIP3   OH211264   4.798   1.903   4.750
 3767TIP3    H111265   4.793   1.969   4.680
 3767TIP3    H211266   4.709   1.896   4.783
 3768TIP3   OH211267   6.368   2.931   2.076
 3768TIP3    H111268   6.295   2.897   2.127
 3768TIP3    H211269   6.365   2.883   1.993
 3769TIP3   OH211270   6.563   1.187   2.290
 3769TIP3    H111271   6.555   1.218   2.380
 3769TIP3    H211272   6.617   1.254   2.247
 3770TIP3   OH211273   6.500   2.857   1.617
 3770TIP3    H111274   6.501   2.832   1.525
 3770TIP3    H211275   6.427   2.918   1.625
 3771TIP3   OH211276   1.157   6.392   5.752
 3771TIP3    H111277   1.180   6.381   5.659
 3771TIP3    H211278   1.167   6.304   5.789
 3772TIP3   OH211279   4.260   2.808   3.857
 3772TIP3    H111280   4.292   2.819   3.767
 3772TIP3    H211281   4.322   2.857   3.911
 3773TIP3   OH211282   2.154   1.212   4.432
 3773TIP3    H111283   2.173   1.154   4.359
 3773TIP3    H211284   2.240   1.244   4.460
 3774TIP3   OH211285   0.273   1.371   4.497
 3774TIP3    H111286   0.271   1.445   4.557
 3774TIP3    H211287   0.357   1.380   4.451
 3775TIP3   OH211288   5.476   4.271   5.667
 3775TIP3    H111289   5.439   4.208   5.730
 3775TIP3    H211290   5.458   4.232   5.582
 3776TIP3   OH211291   4.362   0.186   3.017
 3776TIP3    H111292   4.367   0.171   2.923
 3776TIP3    H211293   4.285   0.136   3.045
 3777TIP3   OH211294   0.755   4.160   1.279
 3777TIP3    H111295   0.715   4.155   1.366
 3777TIP3    H211296   0.742   4.251   1.253
 3778TIP3   OH211297   1.494   3.429   2.159
 3778TIP3    H111298   1.400   3.413   2.160
 3778TIP3    H211299   1.533   3.343   2.175
 3779TIP3   OH211300   5.087   6.289  -0.030
 3779TIP3    H111301   5.053   6.323   0.053
 3779TIP3    H211302   5.098   6.195  -0.013
 3780TIP3   OH211303   5.332   3.102   3.462
 3780TIP3    H111304   5.290   3.098   3.377
 3780TIP3    H211305   5.387   3.024   3.465
 3781TIP3   OH211306   0.974   0.111   1.603
 3781TIP3    H111307   0.889   0.155   1.606
 3781TIP3    H211308   0.980   0.077   1.514
 3782TIP3   OH211309   0.260   1.614   2.520
 3782TIP3    H111310   0.196   1.668   2.475
 3782TIP3    H211311   0.233   1.615   2.612
 3783TIP3   OH211312   5.322   6.053   4.868
 3783TIP3    H111313   5.400   5.997   4.862
 3783TIP3    H211314   5.256   5.997   4.910
 3784TIP3   OH211315   4.094   0.837   4.567
 3784TIP3    H111316   4.003   0.821   4.543
 3784TIP3    H211317   4.112   0.775   4.637
 3785TIP3   OH211318   5.406   5.921   3.404
 3785TIP3    H111319   5.312   5.928   3.416
 3785TIP3    H211320   5.417   5.894   3.313
 3786TIP3   OH211321   6.840   0.205   1.856
 3786TIP3    H111322   6.799   0.290   1.839
 3786TIP3    H211323   6.841   0.161   1.772
 3787TIP3   OH211324   4.941   6.288   3.239
 3787TIP3    H111325   4.930   6.195   3.255
 3787TIP3    H211326   4.989   6.321   3.316
 3788TIP3   OH211327   3.653   4.589   3.476
 3788TIP3    H111328   3.621   4.678   3.489
 3788TIP3    H211329   3.584   4.545   3.426
 3789TIP3   OH211330   4.903   3.006   4.611
 3789TIP3    H111331   4.884   3.087   4.562
 3789TIP3    H211332   4.880   2.936   4.551
 3790TIP3   OH211333   3.295   2.338   1.771
 3790TIP3    H111334   3.247   2.281   1.832
 3790TIP3    H211335   3.387   2.317   1.785
 3791TIP3   OH211336   2.521   5.300   4.301
 3791TIP3    H111337   2.616   5.294   4.296
 3791TIP3    H211338   2.500   5.269   4.389
 3792TIP3   OH211339   6.042   6.206   4.246
 3792TIP3    H111340   6.112   6.141   4.247
 3792TIP3    H211341   5.985   6.180   4.174
 3793TIP3   OH211342   5.905   3.251   0.673
 3793TIP3    H111343   5.955   3.314   0.726
 3793TIP3    H211344   5.857   3.199   0.737
 3794TIP3   OH211345   4.099   6.489   5.891
 3794TIP3    H111346   4.182   6.469   5.848
 3794TIP3    H211347   4.062   6.403   5.912
 3795TIP3   OH211348   3.371   5.441   4.525
 3795TIP3    H111349   3.410   5.450   4.612
 3795TIP3    H211350   3.277   5.439   4.542
 3796TIP3   OH211351   1.259   3.379   4.405
 3796TIP3    H111352   1.263   3.367   4.500
 3796TIP3    H211353   1.186   3.438   4.391
 3797TIP3   OH211354   6.906   3.430   5.201
 3797TIP3    H111355   6.945   3.423   5.114
 3797TIP3    H211356   6.820   3.467   5.187
 3798TIP3   OH211357   2.287   1.450   0.022
 3798TIP3    H111358   2.306   1.482   0.111
 3798TIP3    H211359   2.344   1.374   0.012
 3799TIP3   OH211360   7.084   2.512   4.952
 3799TIP3    H111361   7.045   2.560   4.879
 3799TIP3    H211362   7.015   2.453   4.981
 3800TIP3   OH211363   7.185   0.698   1.303
 3800TIP3    H111364   7.142   0.671   1.383
 3800TIP3    H211365   7.243   0.769   1.329
 3801TIP3   OH211366   4.713   4.445   2.021
 3801TIP3    H111367   4.732   4.365   2.070
 3801TIP3    H211368   4.664   4.416   1.945
 3802TIP3   OH211369   6.940   4.732   0.704
 3802TIP3    H111370   7.009   4.667   0.691
 3802TIP3    H211371   6.897   4.705   0.785
 3803TIP3   OH211372   2.214   6.558   4.584
 3803TIP3    H111373   2.251   6.624   4.525
 3803TIP3    H211374   2.211   6.478   4.531
 3804TIP3   OH211375   1.519   4.278   2.747
 3804TIP3    H111376   1.470   4.349   2.705
 3804TIP3    H211377   1.589   4.258   2.685
 3805TIP3   OH211378   2.784   5.688   0.842
 3805TIP3    H111379   2.743   5.698   0.756
 3805TIP3    H211380   2.711   5.675   0.903
 3806TIP3   OH211381   0.317   5.451   3.722
 3806TIP3    H111382   0.235   5.432   3.676
 3806TIP3    H211383   0.323   5.546   3.724
 3807TIP3   OH211384   5.133   5.215   5.855
 3807TIP3    H111385   5.189   5.193   5.929
 3807TIP3    H211386   5.119   5.309   5.862
 3808TIP3   OH211387   0.131   3.489   5.089
 3808TIP3    H111388   0.208   3.433   5.084
 3808TIP3    H211389   0.163   3.576   5.062
 3809TIP3   OH211390   1.781   3.870   0.268
 3809TIP3    H111391   1.830   3.808   0.214
 3809TIP3    H211392   1.791   3.837   0.357
 3810TIP3   OH211393   4.018   4.697   5.571
 3810TIP3    H111394   4.060   4.636   5.631
 3810TIP3    H211395   3.931   4.712   5.610
 3811TIP3   OH211396   1.283   1.002   4.998
 3811TIP3    H111397   1.227   0.971   5.069
 3811TIP3    H211398   1.244   1.085   4.971
 3812TIP3   OH211399   5.498   6.463   3.693
 3812TIP3    H111400   5.511   6.385   3.746
 3812TIP3    H211401   5.403   6.474   3.688
 3813TIP3   OH211402   4.850   6.539   3.132
 3813TIP3    H111403   4.844   6.543   3.037
 3813TIP3    H211404   4.877   6.449   3.151
 3814TIP3   OH211405   3.925   1.435   0.305
 3814TIP3    H111406   3.914   1.361   0.364
 3814TIP3    H211407   3.862   1.501   0.337
 3815TIP3   OH211408   5.163   4.429   2.420
 3815TIP3    H111409   5.151   4.511   2.468
 3815TIP3    H211410   5.242   4.442   2.369
 3816TIP3   OH211411   0.660   1.421   0.715
 3816TIP3    H111412   0.577   1.459   0.684
 3816TIP3    H211413   0.671   1.457   0.803
 3817TIP3   OH211414   4.103   0.970   5.016
 3817TIP3    H111415   4.050   0.907   4.966
 3817TIP3    H211416   4.158   1.012   4.951
 3818TIP3   OH211417   4.455   3.944   3.696
 3818TIP3    H111418   4.500   3.969   3.777
 3818TIP3    H211419   4.424   3.855   3.711
 3819TIP3   OH211420   3.383   4.769   4.290
 3819TIP3    H111421   3.462   4.762   4.343
 3819TIP3    H211422   3.409   4.737   4.203
 3820TIP3   OH211423   5.007   3.954   1.378
 3820TIP3    H111424   4.940   3.948   1.446
 3820TIP3    H211425   4.964   3.998   1.305
 3821TIP3   OH211426   1.272   2.051   3.554
 3821TIP3    H111427   1.350   2.002   3.528
 3821TIP3    H211428   1.282   2.136   3.511
 3822TIP3   OH211429   0.528   6.436   1.530
 3822TIP3    H111430   0.527   6.489   1.450
 3822TIP3    H211431   0.557   6.349   1.501
 3823TIP3   OH211432   0.972   1.505   1.813
 3823TIP3    H111433   1.000   1.566   1.881
 3823TIP3    H211434   0.943   1.562   1.741
 3824TIP3   OH211435   1.032   6.778   1.406
 3824TIP3    H111436   1.015   6.764   1.313
 3824TIP3    H211437   0.945   6.780   1.446
 3825TIP3   OH211438   3.003   0.292   0.912
 3825TIP3    H111439   3.042   0.292   0.824
 3825TIP3    H211440   3.076   0.270   0.970
 3826TIP3   OH211441   3.792   1.221   3.863
 3826TIP3    H111442   3.821   1.166   3.937
 3826TIP3    H211443   3.742   1.161   3.808
 3827TIP3   OH211444   7.039   3.943   3.192
 3827TIP3    H111445   6.989   3.889   3.253
 3827TIP3    H211446   7.090   4.002   3.248
 3828TIP3   OH211447   3.068   3.597   4.281
 3828TIP3    H111448   3.014   3.612   4.204
 3828TIP3    H211449   3.006   3.582   4.352
 3829TIP3   OH211450   3.713   0.306   4.570
 3829TIP3    H111451   3.747   0.218   4.584
 3829TIP3    H211452   3.791   0.362   4.572
 3830TIP3   OH211453   0.688   2.793   4.432
 3830TIP3    H111454   0.693   2.808   4.526
 3830TIP3    H211455   0.719   2.703   4.420
 3831TIP3   OH211456   2.329   4.654   0.114
 3831TIP3    H111457   2.383   4.704   0.054
 3831TIP3    H211458   2.242   4.695   0.108
 3832TIP3   OH211459   4.425   0.331   4.771
 3832TIP3    H111460   4.390   0.323   4.860
 3832TIP3    H211461   4.467   0.416   4.769
 3833TIP3   OH211462   3.150   0.987   5.132
 3833TIP3    H111463   3.220   0.964   5.072
 3833TIP3    H211464   3.072   0.944   5.097
 3834TIP3   OH211465   4.722   1.035   0.879
 3834TIP3    H111466   4.813   1.055   0.857
 3834TIP3    H211467   4.691   1.113   0.926
 3835TIP3   OH211468   4.320   0.201   5.246
 3835TIP3    H111469   4.305   0.138   5.316
 3835TIP3    H211470   4.239   0.201   5.194
 3836TIP3   OH211471   5.704   5.911   5.457
 3836TIP3    H111472   5.772   5.976   5.440
 3836TIP3    H211473   5.682   5.923   5.550
 3837TIP3   OH211474   4.770   4.343   5.587
 3837TIP3    H111475   4.853   4.296   5.571
 3837TIP3    H211476   4.797   4.432   5.609
 3838TIP3   OH211477   2.181   0.331   0.211
 3838TIP3    H111478   2.210   0.342   0.120
 3838TIP3    H211479   2.089   0.305   0.204
 3839TIP3   OH211480   6.615   3.282   2.892
 3839TIP3    H111481   6.680   3.337   2.848
 3839TIP3    H211482   6.539   3.340   2.903
 3840TIP3   OH211483   6.738   1.156   4.682
 3840TIP3    H111484   6.797   1.146   4.608
 3840TIP3    H211485   6.794   1.185   4.754
 3841TIP3   OH211486   0.605   5.714   5.486
 3841TIP3    H111487   0.544   5.686   5.418
 3841TIP3    H211488   0.559   5.784   5.532
 3842TIP3   OH211489   4.760   2.814   3.317
 3842TIP3    H111490   4.838   2.760   3.304
 3842TIP3    H211491   4.720   2.780   3.397
 3843TIP3   OH211492   4.730   3.310   1.516
 3843TIP3    H111493   4.701   3.389   1.561
 3843TIP3    H211494   4.788   3.342   1.447
 3844TIP3   OH211495   6.047   1.855   4.357
 3844TIP3    H111496   6.098   1.779   4.327
 3844TIP3    H211497   6.112   1.915   4.392
 3845TIP3   OH211498   0.698   3.432   1.245
 3845TIP3    H111499   0.761   3.371   1.206
 3845TIP3    H211500   0.696   3.408   1.337
 3846TIP3   OH211501   2.105   2.680   1.586
 3846TIP3    H111502   2.074   2.621   1.518
 3846TIP3    H211503   2.088   2.634   1.668
 3847TIP3   OH211504   6.432   4.520   0.050
 3847TIP3    H111505   6.460   4.448   0.105
 3847TIP3    H211506   6.479   4.507  -0.032
 3848TIP3   OH211507   2.036   2.560   1.344
 3848TIP3    H111508   1.995   2.608   1.272
 3848TIP3    H211509   2.125   2.542   1.313
 3849TIP3   OH211510   6.365   2.294   5.347
 3849TIP3    H111511   6.353   2.327   5.436
 3849TIP3    H211512   6.276   2.291   5.311
 3850TIP3   OH211513   4.987   6.476   5.482
 3850TIP3    H111514   5.066   6.530   5.486
 3850TIP3    H211515   4.948   6.495   5.397
 3851TIP3   OH211516   0.441   0.763   4.928
 3851TIP3    H111517   0.492   0.810   4.862
 3851TIP3    H211518   0.358   0.743   4.885
 3852TIP3   OH211519   0.572   4.194   0.129
 3852TIP3    H111520   0.585   4.287   0.147
 3852TIP3    H211521   0.656   4.153   0.147
 3853TIP3   OH211522   0.730   3.889   1.810
 3853TIP3    H111523   0.708   3.976   1.775
 3853TIP3    H211524   0.761   3.906   1.899
 3854TIP3   OH211525   1.862   3.797   1.617
 3854TIP3    H111526   1.851   3.704   1.601
 3854TIP3    H211527   1.857   3.837   1.531
 3855TIP3   OH211528   2.412   1.090   2.040
 3855TIP3    H111529   2.504   1.115   2.030
 3855TIP3    H211530   2.406   1.057   2.130
 3856TIP3   OH211531   0.565   3.501   1.845
 3856TIP3    H111532   0.529   3.588   1.863
 3856TIP3    H211533   0.623   3.514   1.770
 3857TIP3   OH211534   5.899   2.641   3.134
 3857TIP3    H111535   5.970   2.694   3.096
 3857TIP3    H211536   5.835   2.705   3.164
 3858TIP3   OH211537   2.247   3.760   1.876
 3858TIP3    H111538   2.179   3.760   1.944
 3858TIP3    H211539   2.313   3.698   1.908
 3859TIP3   OH211540   1.209   4.594   5.339
 3859TIP3    H111541   1.305   4.584   5.334
 3859TIP3    H211542   1.196   4.676   5.387
 3860TIP3   OH211543   1.164   0.180   4.856
 3860TIP3    H111544   1.136   0.260   4.900
 3860TIP3    H211545   1.219   0.210   4.784
 3861TIP3   OH211546   3.019   5.771   5.583
 3861TIP3    H111547   2.945   5.713   5.564
 3861TIP3    H211548   2.986   5.859   5.564
 3862TIP3   OH211549   5.849   5.112   0.916
 3862TIP3    H111550   5.781   5.165   0.957
 3862TIP3    H211551   5.877   5.162   0.840
 3863TIP3   OH211552   3.579   1.812   3.502
 3863TIP3    H111553   3.651   1.862   3.463
 3863TIP3    H211554   3.515   1.803   3.432
 3864TIP3   OH211555   3.233   0.710   3.299
 3864TIP3    H111556   3.260   0.647   3.232
 3864TIP3    H211557   3.137   0.704   3.301
 3865TIP3   OH211558   3.422   4.099   0.839
 3865TIP3    H111559   3.480   4.086   0.915
 3865TIP3    H211560   3.441   4.026   0.781
 3866TIP3   OH211561   1.406   0.217   3.729
 3866TIP3    H111562   1.346   0.155   3.770
 3866TIP3    H211563   1.351   0.272   3.674
 3867TIP3   OH211564   6.199   4.104   1.243
 3867TIP3    H111565   6.214   4.135   1.332
 3867TIP3    H211566   6.105   4.112   1.230
 3868TIP3   OH211567   0.761   4.484   1.611
 3868TIP3    H111568   0.847   4.458   1.578
 3868TIP3    H211569   0.756   4.444   1.698
 3869TIP3   OH211570   3.096   2.487   5.499
 3869TIP3    H111571   3.037   2.423   5.459
 3869TIP3    H211572   3.040   2.537   5.559
 3870TIP3   OH211573   1.516   1.086   0.572
 3870TIP3    H111574   1.548   1.174   0.590
 3870TIP3    H211575   1.594   1.032   0.571
 3871TIP3   OH211576   7.051   1.072   1.909
 3871TIP3    H111577   7.100   1.113   1.981
 3871TIP3    H211578   7.112   1.076   1.834
 3872TIP3   OH211579   3.600   5.464   2.905
 3872TIP3    H111580   3.613   5.454   2.999
 3872TIP3    H211581   3.597   5.374   2.872
 3873TIP3   OH211582   2.429   4.347   2.163
 3873TIP3    H111583   2.449   4.290   2.089
 3873TIP3    H211584   2.507   4.401   2.173
 3874TIP3   OH211585   5.448   4.376   2.574
 3874TIP3    H111586   5.477   4.431   2.646
 3874TIP3    H211587   5.368   4.334   2.606
 3875TIP3   OH211588   0.361   5.832   5.346
 3875TIP3    H111589   0.314   5.753   5.321
 3875TIP3    H211590   0.293   5.890   5.380
 3876TIP3   OH211591   3.274   2.502   3.362
 3876TIP3    H111592   3.293   2.409   3.351
 3876TIP3    H211593   3.326   2.529   3.437
 3877TIP3   OH211594   0.117   2.179   4.932
 3877TIP3    H111595   0.149   2.264   4.963
 3877TIP3    H211596   0.194   2.122   4.936
 3878TIP3   OH211597   2.475   3.385   5.543
 3878TIP3    H111598   2.498   3.437   5.466
 3878TIP3    H211599   2.475   3.448   5.615
 3879TIP3   OH211600   4.763   3.088   1.682
 3879TIP3    H111601   4.839   3.125   1.726
 3879TIP3    H211602   4.728   3.161   1.631
 3880TIP3   OH211603   5.742   2.276   1.936
 3880TIP3    H111604   5.672   2.217   1.908
 3880TIP3    H211605   5.816   2.254   1.879
 3881TIP3   OH211606   4.133   6.603   1.405
 3881TIP3    H111607   4.055   6.595   1.460
 3881TIP3    H211608   4.160   6.695   1.414
 3882TIP3   OH211609   3.470   3.395   5.209
 3882TIP3    H111610   3.442   3.425   5.123
 3882TIP3    H211611   3.388   3.378   5.256
 3883TIP3   OH211612   5.470   5.173   4.132
 3883TIP3    H111613   5.524   5.098   4.158
 3883TIP3    H211614   5.528   5.248   4.142
 3884TIP3   OH211615   0.081   2.316   0.618
 3884TIP3    H111616   0.112   2.299   0.529
 3884TIP3    H211617   0.157   2.351   0.663
 3885TIP3   OH211618   3.570   4.851   3.615
 3885TIP3    H111619   3.601   4.941   3.627
 3885TIP3    H211620   3.483   4.850   3.655
 3886TIP3   OH211621   2.115   3.873   3.608
 3886TIP3    H111622   2.175   3.800   3.594
 3886TIP3    H211623   2.039   3.833   3.650
 3887TIP3   OH211624   6.600   6.690   5.502
 3887TIP3    H111625   6.517   6.673   5.456
 3887TIP3    H211626   6.574   6.720   5.589
 3888TIP3   OH211627   6.688   1.781   3.476
 3888TIP3    H111628   6.669   1.688   3.464
 3888TIP3    H211629   6.602   1.822   3.483
 3889TIP3   OH211630   5.601   5.299   0.394
 3889TIP3    H111631   5.549   5.251   0.330
 3889TIP3    H211632   5.601   5.244   0.472
 3890TIP3   OH211633   3.353   2.204   4.372
 3890TIP3    H111634   3.396   2.277   4.418
 3890TIP3    H211635   3.292   2.167   4.436
 3891TIP3   OH211636   2.679   4.885   1.287
 3891TIP3    H111637   2.628   4.961   1.313
 3891TIP3    H211638   2.742   4.919   1.223
 3892TIP3   OH211639   6.611   2.331   5.211
 3892TIP3    H111640   6.640   2.413   5.252
 3892TIP3    H211641   6.532   2.306   5.259
 3893TIP3   OH211642   3.937   2.829   3.271
 3893TIP3    H111643   3.920   2.899   3.208
 3893TIP3    H211644   3.915   2.867   3.355
 3894TIP3   OH211645   1.216   4.541   3.302
 3894TIP3    H111646   1.272   4.503   3.369
 3894TIP3    H211647   1.261   4.622   3.277
 3895TIP3   OH211648   3.485   5.306   5.375
 3895TIP3    H111649   3.536   5.227   5.361
 3895TIP3    H211650   3.493   5.324   5.469
 3896TIP3   OH211651   4.190   2.697   5.043
 3896TIP3    H111652   4.155   2.746   5.117
 3896TIP3    H211653   4.138   2.617   5.040
 3897TIP3   OH211654   4.084   4.653   1.157
 3897TIP3    H111655   4.121   4.680   1.073
 3897TIP3    H211656   4.141   4.693   1.223
 3898TIP3   OH211657   5.011   3.940   4.134
 3898TIP3    H111658   4.945   3.872   4.137
 3898TIP3    H211659   4.987   4.000   4.205
 3899TIP3   OH211660   6.173   6.777   0.390
 3899TIP3    H111661   6.148   6.868   0.374
 3899TIP3    H211662   6.173   6.736   0.304
 3900TIP3   OH211663   1.064   2.611   1.399
 3900TIP3    H111664   1.131   2.591   1.464
 3900TIP3    H211665   0.998   2.542   1.410
 3901TIP3   OH211666   1.688   5.953   4.714
 3901TIP3    H111667   1.657   5.948   4.805
 3901TIP3    H211668   1.667   6.043   4.687
 3902TIP3   OH211669   6.743   1.454   4.095
 3902TIP3    H111670   6.794   1.496   4.164
 3902TIP3    H211671   6.783   1.485   4.013
 3903TIP3   OH211672   6.032   5.317   3.570
 3903TIP3    H111673   6.107   5.303   3.628
 3903TIP3    H211674   5.982   5.387   3.612
 3904TIP3   OH211675   1.540   2.898   2.668
 3904TIP3    H111676   1.519   2.947   2.589
 3904TIP3    H211677   1.533   2.806   2.642
 3905TIP3   OH211678   7.018   0.384   5.772
 3905TIP3    H111679   6.992   0.446   5.840
 3905TIP3    H211680   6.936   0.341   5.746
 3906TIP3   OH211681   3.792   0.746   5.780
 3906TIP3    H111682   3.795   0.728   5.874
 3906TIP3    H211683   3.711   0.796   5.768
 3907TIP3   OH211684   4.832   3.653   2.386
 3907TIP3    H111685   4.926   3.651   2.367
 3907TIP3    H211686   4.795   3.701   2.312
 3908TIP3   OH211687   3.674   1.693   5.798
 3908TIP3    H111688   3.640   1.625   5.740
 3908TIP3    H211689   3.595   1.730   5.839
 3909TIP3   OH211690   0.645   1.836   4.269
 3909TIP3    H111691   0.598   1.893   4.208
 3909TIP3    H211692   0.576   1.786   4.313
 3910TIP3   OH211693   0.051   6.300   2.545
 3910TIP3    H111694  -0.021   6.333   2.599
 3910TIP3    H211695   0.050   6.355   2.467
 3911TIP3   OH211696   1.939   5.200   5.859
 3911TIP3    H111697   1.854   5.244   5.867
 3911TIP3    H211698   1.997   5.265   5.820
 3912TIP3   OH211699   2.826   0.324   4.764
 3912TIP3    H111700   2.915   0.289   4.774
 3912TIP3    H211701   2.818   0.342   4.670
 3913TIP3   OH211702   3.641   6.056   2.972
 3913TIP3    H111703   3.587   6.079   2.897
 3913TIP3    H211704   3.724   6.102   2.957
 3914TIP3   OH211705   3.474   5.388   5.666
 3914TIP3    H111706   3.474   5.356   5.756
 3914TIP3    H211707   3.424   5.469   5.668
 3915TIP3   OH211708   4.886   6.108   5.891
 3915TIP3    H111709   4.854   6.062   5.813
 3915TIP3    H211710   4.905   6.039   5.954
 3916TIP3   OH211711   3.213   2.944   2.298
 3916TIP3    H111712   3.157   2.998   2.354
 3916TIP3    H211713   3.152   2.889   2.250
 3917TIP3   OH211714   5.083   0.805   2.160
 3917TIP3    H111715   5.072   0.710   2.156
 3917TIP3    H211716   5.169   0.821   2.122
 3918TIP3   OH211717   0.647   3.392   5.363
 3918TIP3    H111718   0.627   3.305   5.328
 3918TIP3    H211719   0.743   3.395   5.365
 3919TIP3   OH211720   1.501   1.254   1.458
 3919TIP3    H111721   1.442   1.203   1.403
 3919TIP3    H211722   1.589   1.223   1.434
 3920TIP3   OH211723   6.867   6.100   3.910
 3920TIP3    H111724   6.789   6.109   3.964
 3920TIP3    H211725   6.925   6.043   3.961
 3921TIP3   OH211726   2.938   2.553   3.254
 3921TIP3    H111727   2.917   2.631   3.204
 3921TIP3    H211728   2.947   2.583   3.344
 3922TIP3   OH211729   1.666   3.310   1.312
 3922TIP3    H111730   1.598   3.314   1.244
 3922TIP3    H211731   1.741   3.268   1.269
 3923TIP3   OH211732   4.650   0.890   4.091
 3923TIP3    H111733   4.742   0.886   4.117
 3923TIP3    H211734   4.611   0.813   4.133
 3924TIP3   OH211735   1.992   6.166   0.982
 3924TIP3    H111736   2.003   6.093   1.043
 3924TIP3    H211737   2.013   6.244   1.034
 3925TIP3   OH211738   2.506   5.424   1.179
 3925TIP3    H111739   2.516   5.333   1.151
 3925TIP3    H211740   2.411   5.435   1.189
 3926TIP3   OH211741   5.474   3.460   0.127
 3926TIP3    H111742   5.470   3.475   0.033
 3926TIP3    H211743   5.554   3.409   0.140
 3927TIP3   OH211744   2.890   5.666   4.388
 3927TIP3    H111745   2.944   5.606   4.440
 3927TIP3    H211746   2.920   5.653   4.298
 3928TIP3   OH211747   3.977   2.496   2.297
 3928TIP3    H111748   3.931   2.436   2.356
 3928TIP3    H211749   4.009   2.439   2.226
 3929TIP3   OH211750   4.695   2.541   4.977
 3929TIP3    H111751   4.789   2.545   4.963
 3929TIP3    H211752   4.684   2.488   5.056
 3930TIP3   OH211753   5.214   3.037   2.711
 3930TIP3    H111754   5.265   3.094   2.655
 3930TIP3    H211755   5.148   2.999   2.653
 3931TIP3   OH211756   3.459   6.676   2.573
 3931TIP3    H111757   3.545   6.645   2.545
 3931TIP3    H211758   3.464   6.771   2.568
 3932TIP3   OH211759   2.270   1.441   3.388
 3932TIP3    H111760   2.342   1.473   3.443
 3932TIP3    H211761   2.286   1.480   3.302
 3933TIP3   OH211762   6.276   2.278   0.498
 3933TIP3    H111763   6.362   2.299   0.460
 3933TIP3    H211764   6.275   2.323   0.582
 3934TIP3   OH211765   3.694   1.129   1.441
 3934TIP3    H111766   3.738   1.211   1.462
 3934TIP3    H211767   3.711   1.115   1.348
 3935TIP3   OH211768   1.010   4.449   5.229
 3935TIP3    H111769   1.073   4.472   5.296
 3935TIP3    H211770   1.063   4.410   5.159
 3936TIP3   OH211771   4.927   1.087   3.440
 3936TIP3    H111772   4.998   1.046   3.490
 3936TIP3    H211773   4.847   1.054   3.481
 3937TIP3   OH211774   5.773   5.527   0.712
 3937TIP3    H111775   5.696   5.480   0.680
 3937TIP3    H211776   5.788   5.595   0.648
 3938TIP3   OH211777   3.041   4.330   0.162
 3938TIP3    H111778   3.100   4.398   0.130
 3938TIP3    H211779   3.098   4.258   0.187
 3939TIP3   OH211780   5.010   3.382   1.544
 3939TIP3    H111781   4.973   3.345   1.624
 3939TIP3    H211782   5.023   3.475   1.565
 3940TIP3   OH211783   2.889   6.401   3.392
 3940TIP3    H111784   2.800   6.384   3.362
 3940TIP3    H211785   2.885   6.489   3.430
 3941TIP3   OH211786   7.148   3.659   0.454
 3941TIP3    H111787   7.195   3.736   0.421
 3941TIP3    H211788   7.055   3.683   0.446
 3942TIP3   OH211789   0.696   5.250   3.772
 3942TIP3    H111790   0.782   5.210   3.760
 3942TIP3    H211791   0.688   5.312   3.699
 3943TIP3   OH211792   6.044   0.596   2.954
 3943TIP3    H111793   6.121   0.634   2.912
 3943TIP3    H211794   5.997   0.670   2.992
 3944TIP3   OH211795   2.057   2.243   4.456
 3944TIP3    H111796   2.042   2.273   4.366
 3944TIP3    H211797   1.988   2.179   4.472
 3945TIP3   OH211798   4.708   1.640   4.541
 3945TIP3    H111799   4.649   1.572   4.573
 3945TIP3    H211800   4.789   1.594   4.519
 3946TIP3   OH211801   1.246   6.381   2.365
 3946TIP3    H111802   1.339   6.368   2.385
 3946TIP3    H211803   1.244   6.409   2.274
 3947TIP3   OH211804   2.389   1.409   3.121
 3947TIP3    H111805   2.466   1.366   3.159
 3947TIP3    H211806   2.415   1.500   3.111
 3948TIP3   OH211807   7.184   4.581   0.580
 3948TIP3    H111808   7.212   4.490   0.579
 3948TIP3    H211809   7.244   4.625   0.640
 3949TIP3   OH211810   0.720   1.314   0.440
 3949TIP3    H111811   0.689   1.334   0.528
 3949TIP3    H211812   0.688   1.225   0.424
 3950TIP3   OH211813   4.975   3.742   3.093
 3950TIP3    H111814   5.021   3.659   3.104
 3950TIP3    H211815   4.911   3.725   3.024
 3951TIP3   OH211816   7.182   5.052   2.641
 3951TIP3    H111817   7.229   5.010   2.713
 3951TIP3    H211818   7.101   5.002   2.634
 3952TIP3   OH211819   6.302   5.869   5.299
 3952TIP3    H111820   6.296   5.913   5.214
 3952TIP3    H211821   6.392   5.884   5.327
 3953TIP3   OH211822   4.656   1.238   5.605
 3953TIP3    H111823   4.749   1.257   5.613
 3953TIP3    H211824   4.637   1.179   5.678
 3954TIP3   OH211825   1.112   2.717   5.610
 3954TIP3    H111826   1.061   2.646   5.649
 3954TIP3    H211827   1.146   2.767   5.684
 3955TIP3   OH211828   3.273   2.788   0.964
 3955TIP3    H111829   3.227   2.790   1.048
 3955TIP3    H211830   3.322   2.870   0.962
 3956TIP3   OH211831   6.884   4.140   5.022
 3956TIP3    H111832   6.931   4.202   4.967
 3956TIP3    H211833   6.810   4.112   4.968
 3957TIP3   OH211834   4.015   1.615   4.688
 3957TIP3    H111835   4.063   1.605   4.607
 3957TIP3    H211836   3.951   1.683   4.670
 3958TIP3   OH211837   4.656   3.084   3.333
 3958TIP3    H111838   4.697   2.997   3.337
 3958TIP3    H211839   4.572   3.073   3.378
 3959TIP3   OH211840   0.544   4.606   2.001
 3959TIP3    H111841   0.570   4.697   1.986
 3959TIP3    H211842   0.488   4.585   1.927
 3960TIP3   OH211843   3.635   0.501   1.824
 3960TIP3    H111844   3.663   0.414   1.854
 3960TIP3    H211845   3.541   0.492   1.811
 3961TIP3   OH211846   2.360   0.576   2.530
 3961TIP3    H111847   2.422   0.522   2.579
 3961TIP3    H211848   2.278   0.526   2.531
 3962TIP3   OH211849   6.121   1.061   4.435
 3962TIP3    H111850   6.170   1.142   4.423
 3962TIP3    H211851   6.141   1.009   4.358
 3963TIP3   OH211852   6.546   0.959   1.836
 3963TIP3    H111853   6.463   1.003   1.849
 3963TIP3    H211854   6.569   0.975   1.745
 3964TIP3   OH211855   6.522   6.325   5.728
 3964TIP3    H111856   6.508   6.354   5.638
 3964TIP3    H211857   6.580   6.249   5.719
 3965TIP3   OH211858   0.505   1.376   0.082
 3965TIP3    H111859   0.437   1.425   0.037
 3965TIP3    H211860   0.566   1.443   0.114
 3966TIP3   OH211861   2.114   2.257   5.042
 3966TIP3    H111862   2.140   2.303   4.962
 3966TIP3    H211863   2.020   2.272   5.049
 3967TIP3   OH211864   3.749   1.860   1.263
 3967TIP3    H111865   3.766   1.865   1.169
 3967TIP3    H211866   3.684   1.790   1.271
 3968TIP3   OH211867   5.581   4.773   3.916
 3968TIP3    H111868   5.602   4.688   3.877
 3968TIP3    H211869   5.578   4.833   3.841
 3969TIP3   OH211870   5.933   6.275   3.845
 3969TIP3    H111871   5.923   6.181   3.858
 3969TIP3    H211872   6.028   6.289   3.846
 3970TIP3   OH211873   3.273   0.534   5.278
 3970TIP3    H111874   3.191   0.577   5.254
 3970TIP3    H211875   3.249   0.443   5.294
 3971TIP3   OH211876   3.906   6.656   5.823
 3971TIP3    H111877   3.948   6.697   5.747
 3971TIP3    H211878   3.972   6.596   5.857
 3972TIP3   OH211879   4.323   5.865   3.454
 3972TIP3    H111880   4.335   5.831   3.543
 3972TIP3    H211881   4.248   5.816   3.420
 3973TIP3   OH211882   6.857   5.040   0.886
 3973TIP3    H111883   6.839   5.028   0.792
 3973TIP3    H211884   6.933   4.984   0.903
 3974TIP3   OH211885   3.045   2.150   2.906
 3974TIP3    H111886   3.136   2.138   2.932
 3974TIP3    H211887   3.020   2.234   2.945
 3975TIP3   OH211888   6.351   1.662   2.118
 3975TIP3    H111889   6.279   1.646   2.179
 3975TIP3    H211890   6.429   1.632   2.165
 3976TIP3   OH211891   5.950   3.447   5.101
 3976TIP3    H111892   6.003   3.425   5.024
 3976TIP3    H211893   5.945   3.365   5.151
 3977TIP3   OH211894   1.000   3.909   5.567
 3977TIP3    H111895   0.947   3.874   5.495
 3977TIP3    H211896   0.989   4.004   5.562
 3978TIP3   OH211897   2.341   6.417   0.430
 3978TIP3    H111898   2.273   6.360   0.395
 3978TIP3    H211899   2.309   6.444   0.516
 3979TIP3   OH211900   4.137   0.319   2.716
 3979TIP3    H111901   4.061   0.286   2.669
 3979TIP3    H211902   4.198   0.246   2.719
 3980TIP3   OH211903   4.929   5.252   5.036
 3980TIP3    H111904   4.839   5.221   5.050
 3980TIP3    H211905   4.978   5.218   5.110
 3981TIP3   OH211906   4.076   3.704   0.463
 3981TIP3    H111907   4.109   3.749   0.541
 3981TIP3    H211908   4.096   3.611   0.479
 3982TIP3   OH211909   2.326   0.349   1.827
 3982TIP3    H111910   2.240   0.353   1.870
 3982TIP3    H211911   2.356   0.439   1.824
 3983TIP3   OH211912   2.776   6.007   5.191
 3983TIP3    H111913   2.708   6.073   5.197
 3983TIP3    H211914   2.761   5.950   5.266
 3984TIP3   OH211915   4.379   2.958   4.793
 3984TIP3    H111916   4.473   2.951   4.807
 3984TIP3    H211917   4.362   2.903   4.717
 3985TIP3   OH211918   4.657   3.591   4.028
 3985TIP3    H111919   4.688   3.501   4.029
 3985TIP3    H211920   4.665   3.618   3.936
 3986TIP3   OH211921   1.880   1.962   5.002
 3986TIP3    H111922   1.941   1.919   5.061
 3986TIP3    H211923   1.934   1.990   4.928
 3987TIP3   OH211924   7.037   2.449   2.130
 3987TIP3    H111925   7.039   2.543   2.111
 3987TIP3    H211926   6.950   2.434   2.168
 3988TIP3   OH211927   4.534   1.085   2.281
 3988TIP3    H111928   4.625   1.085   2.310
 3988TIP3    H211929   4.530   1.151   2.212
 3989TIP3   OH211930   1.828   1.792   4.596
 3989TIP3    H111931   1.740   1.789   4.634
 3989TIP3    H211932   1.883   1.746   4.659
 3990TIP3   OH211933   4.925   2.227   2.957
 3990TIP3    H111934   4.972   2.143   2.958
 3990TIP3    H211935   4.869   2.224   3.034
 3991TIP3   OH211936   6.612   4.827   2.901
 3991TIP3    H111937   6.566   4.782   2.973
 3991TIP3    H211938   6.614   4.919   2.929
 3992TIP3   OH211939   5.657   6.670   4.315
 3992TIP3    H111940   5.678   6.588   4.360
 3992TIP3    H211941   5.617   6.642   4.233
 3993TIP3   OH211942   5.188   4.811   4.671
 3993TIP3    H111943   5.139   4.864   4.733
 3993TIP3    H211944   5.147   4.725   4.675
 3994TIP3   OH211945   1.264   1.367   5.311
 3994TIP3    H111946   1.193   1.313   5.277
 3994TIP3    H211947   1.292   1.420   5.236
 3995TIP3   OH211948   6.819   1.390   1.641
 3995TIP3    H111949   6.897   1.440   1.617
 3995TIP3    H211950   6.808   1.407   1.735
 3996TIP3   OH211951   1.850   6.478   5.670
 3996TIP3    H111952   1.856   6.571   5.647
 3996TIP3    H211953   1.928   6.439   5.630
 3997TIP3   OH211954   2.807   4.771   5.132
 3997TIP3    H111955   2.776   4.741   5.217
 3997TIP3    H211956   2.854   4.853   5.151
 3998TIP3   OH211957   4.429   2.315   1.611
 3998TIP3    H111958   4.522   2.332   1.604
 3998TIP3    H211959   4.387   2.396   1.584
 3999TIP3   OH211960   5.633   3.984   1.025
 3999TIP3    H111961   5.545   4.014   1.003
 3999TIP3    H211962   5.619   3.910   1.085
 4000TIP3   OH211963   4.548   2.804   0.802
 4000TIP3    H111964   4.597   2.732   0.843
 4000TIP3    H211965   4.611   2.875   0.794
 4001TIP3   OH211966   3.600   0.773   0.384
 4001TIP3    H111967   3.529   0.809   0.437
 4001TIP3    H211968   3.555   0.720   0.317
 4002TIP3   OH211969   6.998  -0.007   3.321
 4002TIP3    H111970   7.000  -0.038   3.412
 4002TIP3    H211971   6.999   0.088   3.328
 4003TIP3   OH211972   2.928   4.755   4.068
 4003TIP3    H111973   2.943   4.696   3.994
 4003TIP3    H211974   2.835   4.777   4.062
 4004TIP3   OH211975   6.771   5.141   3.768
 4004TIP3    H111976   6.833   5.074   3.797
 4004TIP3    H211977   6.825   5.217   3.748
 4005TIP3   OH211978   4.280   2.341   2.076
 4005TIP3    H111979   4.298   2.343   2.170
 4005TIP3    H211980   4.268   2.433   2.052
 4006TIP3   OH211981   1.791   0.911   0.194
 4006TIP3    H111982   1.881   0.880   0.193
 4006TIP3    H211983   1.798   1.005   0.214
 4007TIP3   OH211984   4.279   3.830   0.276
 4007TIP3    H111985   4.221   3.798   0.346
 4007TIP3    H211986   4.279   3.925   0.285
 4008TIP3   OH211987   1.972   5.270   0.448
 4008TIP3    H111988   1.912   5.202   0.418
 4008TIP3    H211989   2.048   5.222   0.480
 4009TIP3   OH211990   5.628   6.721   0.721
 4009TIP3    H111991   5.654   6.801   0.766
 4009TIP3    H211992   5.657   6.650   0.779
 4010TIP3   OH211993   4.355   4.168   4.158
 4010TIP3    H111994   4.291   4.101   4.182
 4010TIP3    H211995   4.330   4.195   4.069
 4011TIP3   OH211996   1.779   4.277   0.703
 4011TIP3    H111997   1.770   4.343   0.635
 4011TIP3    H211998   1.775   4.327   0.785
 4012TIP3   OH211999   0.339   2.579   3.174
 4012TIP3    H112000   0.356   2.597   3.266
 4012TIP3    H212001   0.244   2.572   3.168
 4013TIP3   OH212002   5.822   0.812   4.656
 4013TIP3    H112003   5.817   0.724   4.620
 4013TIP3    H212004   5.824   0.869   4.579
 4014TIP3   OH212005   4.408   5.810   1.198
 4014TIP3    H112006   4.372   5.838   1.282
 4014TIP3    H212007   4.450   5.726   1.216
 4015TIP3   OH212008   2.910   4.464   0.429
 4015TIP3    H112009   2.986   4.496   0.381
 4015TIP3    H212010   2.911   4.514   0.511
 4016TIP3   OH212011   5.192   4.564   4.303
 4016TIP3    H112012   5.250   4.520   4.365
 4016TIP3    H212013   5.160   4.493   4.246
 4017TIP3   OH212014   1.885   2.106   2.388
 4017TIP3    H112015   1.865   2.059   2.469
 4017TIP3    H212016   1.827   2.182   2.389
 4018TIP3   OH212017   2.031   0.771   2.075
 4018TIP3    H112018   2.080   0.750   1.996
 4018TIP3    H212019   1.985   0.852   2.053
 4019TIP3   OH212020   4.038   4.163   5.746
 4019TIP3    H112021   4.057   4.176   5.653
 4019TIP3    H212022   4.113   4.113   5.778
 4020TIP3   OH212023   5.480   2.909   0.816
 4020TIP3    H112024   5.492   3.002   0.794
 4020TIP3    H212025   5.399   2.885   0.771
 4021TIP3   OH212026   1.313   2.695   2.617
 4021TIP3    H112027   1.254   2.729   2.550
 4021TIP3    H212028   1.292   2.746   2.695
 4022TIP3   OH212029   0.239   5.786   3.277
 4022TIP3    H112030   0.205   5.852   3.217
 4022TIP3    H212031   0.260   5.834   3.357
 4023TIP3   OH212032   2.968   6.358   4.881
 4023TIP3    H112033   2.965   6.293   4.951
 4023TIP3    H212034   3.006   6.436   4.921
 4024TIP3   OH212035   5.972   0.552   3.479
 4024TIP3    H112036   5.962   0.518   3.568
 4024TIP3    H212037   5.951   0.645   3.487
 4025TIP3   OH212038   5.148   2.699   0.916
 4025TIP3    H112039   5.108   2.750   0.987
 4025TIP3    H212040   5.076   2.677   0.858
 4026TIP3   OH212041   0.404   2.913   4.870
 4026TIP3    H112042   0.340   2.951   4.809
 4026TIP3    H212043   0.360   2.836   4.906
 4027TIP3   OH212044   6.516   4.012   3.172
 4027TIP3    H112045   6.568   4.089   3.197
 4027TIP3    H212046   6.436   4.021   3.224
 4028TIP3   OH212047   1.053   3.498   0.821
 4028TIP3    H112048   0.962   3.488   0.850
 4028TIP3    H212049   1.071   3.419   0.771
 4029TIP3   OH212050   3.340   0.441   3.246
 4029TIP3    H112051   3.422   0.456   3.293
 4029TIP3    H212052   3.286   0.392   3.308
 4030TIP3   OH212053   0.644   1.698   2.045
 4030TIP3    H112054   0.683   1.668   2.127
 4030TIP3    H212055   0.600   1.780   2.067
 4031TIP3   OH212056   0.040   2.757   3.867
 4031TIP3    H112057   0.009   2.810   3.940
 4031TIP3    H212058   0.134   2.746   3.883
 4032TIP3   OH212059   2.484   4.921   3.733
 4032TIP3    H112060   2.462   4.940   3.642
 4032TIP3    H212061   2.430   4.981   3.784
 4033TIP3   OH212062   1.686   3.128   3.150
 4033TIP3    H112063   1.752   3.121   3.081
 4033TIP3    H212064   1.631   3.050   3.138
 4034TIP3   OH212065   3.857   3.613   2.447
 4034TIP3    H112066   3.890   3.699   2.424
 4034TIP3    H212067   3.768   3.629   2.479
 4035TIP3   OH212068   1.743   6.741   3.621
 4035TIP3    H112069   1.688   6.762   3.696
 4035TIP3    H212070   1.692   6.677   3.572
 4036TIP3   OH212071   0.655   5.783   4.319
 4036TIP3    H112072   0.576   5.729   4.322
 4036TIP3    H212073   0.647   5.841   4.395
 4037TIP3   OH212074   0.455   2.639   1.015
 4037TIP3    H112075   0.478   2.713   0.960
 4037TIP3    H212076   0.419   2.677   1.095
 4038TIP3   OH212077   4.687   2.084   1.075
 4038TIP3    H112078   4.592   2.089   1.062
 4038TIP3    H212079   4.722   2.072   0.988
 4039TIP3   OH212080   2.579   6.634   0.891
 4039TIP3    H112081   2.652   6.587   0.852
 4039TIP3    H212082   2.577   6.604   0.982
 4040TIP3   OH212083   0.785   3.305   1.552
 4040TIP3    H112084   0.780   3.235   1.486
 4040TIP3    H212085   0.851   3.273   1.614
 4041TIP3   OH212086   5.671   4.618   1.175
 4041TIP3    H112087   5.735   4.571   1.121
 4041TIP3    H212088   5.625   4.548   1.223
 4042TIP3   OH212089   4.720   6.360   2.556
 4042TIP3    H112090   4.637   6.326   2.588
 4042TIP3    H212091   4.778   6.359   2.632
 4043TIP3   OH212092   1.850   2.624   3.205
 4043TIP3    H112093   1.781   2.643   3.269
 4043TIP3    H212094   1.803   2.590   3.129
 4044TIP3   OH212095   0.081   3.197   4.197
 4044TIP3    H112096   0.146   3.145   4.244
 4044TIP3    H212097   0.079   3.160   4.109
 4045TIP3   OH212098   7.137   4.361   4.597
 4045TIP3    H112099   7.065   4.348   4.536
 4045TIP3    H212100   7.134   4.454   4.618
 4046TIP3   OH212101   3.936   1.995   4.232
 4046TIP3    H112102   4.027   2.024   4.243
 4046TIP3    H212103   3.890   2.074   4.204
 4047TIP3   OH212104   0.828   1.672   1.628
 4047TIP3    H112105   0.763   1.713   1.684
 4047TIP3    H212106   0.790   1.587   1.605
 4048TIP3   OH212107   1.739   3.582   3.478
 4048TIP3    H112108   1.683   3.616   3.409
 4048TIP3    H212109   1.827   3.586   3.441
 4049TIP3   OH212110   5.827   3.555   5.377
 4049TIP3    H112111   5.763   3.570   5.307
 4049TIP3    H212112   5.836   3.460   5.381
 4050TIP3   OH212113   1.126   3.107   2.243
 4050TIP3    H112114   1.177   3.131   2.166
 4050TIP3    H212115   1.047   3.066   2.209
 4051TIP3   OH212116   3.480   5.423   4.778
 4051TIP3    H112117   3.574   5.424   4.793
 4051TIP3    H212118   3.442   5.400   4.863
 4052TIP3   OH212119   6.559   3.757   3.614
 4052TIP3    H112120   6.558   3.701   3.692
 4052TIP3    H212121   6.627   3.822   3.632
 4053TIP3   OH212122   2.288   5.205   5.136
 4053TIP3    H112123   2.205   5.216   5.089
 4053TIP3    H212124   2.326   5.126   5.098
 4054TIP3   OH212125   6.312   1.627   0.146
 4054TIP3    H112126   6.270   1.713   0.145
 4054TIP3    H212127   6.303   1.598   0.237
 4055TIP3   OH212128   1.137   4.739   5.056
 4055TIP3    H112129   1.065   4.710   5.113
 4055TIP3    H212130   1.213   4.746   5.115
 4056TIP3   OH212131   3.682   1.463   0.420
 4056TIP3    H112132   3.694   1.402   0.493
 4056TIP3    H212133   3.647   1.408   0.349
 4057TIP3   OH212134   1.742   6.689   2.909
 4057TIP3    H112135   1.729   6.778   2.942
 4057TIP3    H212136   1.763   6.637   2.986
 4058TIP3   OH212137   3.053   6.328   3.862
 4058TIP3    H112138   3.106   6.376   3.799
 4058TIP3    H212139   2.989   6.280   3.809
 4059TIP3   OH212140   3.695   3.857   4.782
 4059TIP3    H112141   3.789   3.847   4.769
 4059TIP3    H212142   3.655   3.805   4.713
 4060TIP3   OH212143   4.404   6.595   0.978
 4060TIP3    H112144   4.396   6.566   0.887
 4060TIP3    H212145   4.431   6.687   0.972
 4061TIP3   OH212146   1.475   2.006   4.566
 4061TIP3    H112147   1.460   1.934   4.505
 4061TIP3    H212148   1.488   2.083   4.510
 4062TIP3   OH212149   1.589   6.086   3.974
 4062TIP3    H112150   1.523   6.028   3.936
 4062TIP3    H212151   1.624   6.038   4.048
 4063TIP3   OH212152   6.377   4.974   0.779
 4063TIP3    H112153   6.380   4.952   0.872
 4063TIP3    H212154   6.289   5.012   0.767
 4064TIP3   OH212155   6.338   6.333   2.302
 4064TIP3    H112156   6.362   6.276   2.229
 4064TIP3    H212157   6.326   6.273   2.376
 4065TIP3   OH212158   3.835   1.525   3.614
 4065TIP3    H112159   3.739   1.531   3.618
 4065TIP3    H212160   3.853   1.431   3.614
 4066TIP3   OH212161   4.551   4.705   3.347
 4066TIP3    H112162   4.618   4.772   3.328
 4066TIP3    H212163   4.592   4.649   3.413
 4067TIP3   OH212164   3.878   1.554   1.108
 4067TIP3    H112165   3.932   1.607   1.048
 4067TIP3    H212166   3.795   1.601   1.112
 4068TIP3   OH212167   6.217   0.997   5.217
 4068TIP3    H112168   6.229   1.010   5.122
 4068TIP3    H212169   6.220   1.086   5.253
 4069TIP3   OH212170   2.776   4.638   4.895
 4069TIP3    H112171   2.827   4.687   4.830
 4069TIP3    H212172   2.767   4.698   4.968
 4070TIP3   OH212173   5.241   2.963   0.684
 4070TIP3    H112174   5.160   2.996   0.723
 4070TIP3    H212175   5.216   2.940   0.594
 4071TIP3   OH212176   2.721   4.151   2.538
 4071TIP3    H112177   2.732   4.109   2.452
 4071TIP3    H212178   2.641   4.112   2.573
 4072TIP3   OH212179   6.409   6.191   0.530
 4072TIP3    H112180   6.426   6.167   0.621
 4072TIP3    H212181   6.386   6.284   0.534
 4073TIP3   OH212182   0.436   0.719   1.787
 4073TIP3    H112183   0.347   0.732   1.754
 4073TIP3    H212184   0.464   0.806   1.816
 4074TIP3   OH212185   7.113   2.044   4.980
 4074TIP3    H112186   7.175   2.117   4.979
 4074TIP3    H212187   7.162   1.970   4.945
 4075TIP3   OH212188   3.586   0.362   3.700
 4075TIP3    H112189   3.615   0.304   3.630
 4075TIP3    H212190   3.664   0.375   3.754
 4076TIP3   OH212191   4.375   4.252   0.516
 4076TIP3    H112192   4.429   4.184   0.475
 4076TIP3    H212193   4.317   4.204   0.575
 4077TIP3   OH212194   0.915   0.420   3.419
 4077TIP3    H112195   0.950   0.347   3.368
 4077TIP3    H212196   0.918   0.390   3.510
 4078TIP3   OH212197   5.123   0.098   0.658
 4078TIP3    H112198   5.113   0.170   0.596
 4078TIP3    H212199   5.212   0.066   0.644
 4079TIP3   OH212200   1.085   6.225   5.135
 4079TIP3    H112201   1.028   6.282   5.187
 4079TIP3    H212202   1.050   6.137   5.149
 4080TIP3   OH212203   2.370   6.234   5.330
 4080TIP3    H112204   2.358   6.304   5.266
 4080TIP3    H212205   2.328   6.158   5.290
 4081TIP3   OH212206   5.843   6.537   5.520
 4081TIP3    H112207   5.799   6.465   5.564
 4081TIP3    H212208   5.809   6.536   5.430
 4082TIP3   OH212209   2.365   2.441   5.825
 4082TIP3    H112210   2.449   2.395   5.820
 4082TIP3    H212211   2.384   2.518   5.878
 4083TIP3   OH212212   6.186   6.031   0.455
 4083TIP3    H112213   6.222   5.942   0.463
 4083TIP3    H212214   6.250   6.087   0.497
 4084TIP3   OH212215   6.488   6.299   4.941
 4084TIP3    H112216   6.435   6.362   4.893
 4084TIP3    H212217   6.444   6.215   4.926
 4085TIP3   OH212218   5.548   6.002   0.001
 4085TIP3    H112219   5.584   6.063   0.065
 4085TIP3    H212220   5.559   5.915   0.041
 4086TIP3   OH212221   1.725   2.446   5.906
 4086TIP3    H112222   1.735   2.458   5.812
 4086TIP3    H212223   1.689   2.358   5.916
 4087TIP3   OH212224   6.202   2.123   4.989
 4087TIP3    H112225   6.118   2.144   4.948
 4087TIP3    H212226   6.263   2.114   4.916
 4088TIP3   OH212227   0.615   0.265   4.839
 4088TIP3    H112228   0.581   0.241   4.925
 4088TIP3    H212229   0.626   0.360   4.843
 4089TIP3   OH212230   1.179   4.627   5.773
 4089TIP3    H112231   1.177   4.721   5.788
 4089TIP3    H212232   1.271   4.608   5.750
 4090TIP3   OH212233   4.482   4.910   0.243
 4090TIP3    H112234   4.483   5.000   0.274
 4090TIP3    H212235   4.480   4.856   0.322
 4091TIP3   OH212236   3.961   2.190   5.273
 4091TIP3    H112237   3.941   2.267   5.219
 4091TIP3    H212238   3.883   2.135   5.266
 4092TIP3   OH212239   3.123   4.093   2.925
 4092TIP3    H112240   3.158   4.105   2.837
 4092TIP3    H212241   3.054   4.158   2.933
 4093TIP3   OH212242   1.284   6.362   2.732
 4093TIP3    H112243   1.347   6.346   2.803
 4093TIP3    H212244   1.309   6.300   2.664
 4094TIP3   OH212245   0.154   3.428   2.208
 4094TIP3    H112246   0.103   3.405   2.130
 4094TIP3    H212247   0.089   3.455   2.272
 4095TIP3   OH212248   1.683   4.758   2.073
 4095TIP3    H112249   1.645   4.721   2.153
 4095TIP3    H212250   1.653   4.700   2.003
 4096TIP3   OH212251   6.171   1.601   4.294
 4096TIP3    H112252   6.237   1.661   4.260
 4096TIP3    H212253   6.152   1.543   4.220
 4097TIP3   OH212254   5.484   3.779   5.058
 4097TIP3    H112255   5.547   3.707   5.063
 4097TIP3    H212256   5.518   3.845   5.119
 4098TIP3   OH212257   0.084   5.944   2.366
 4098TIP3    H112258   0.012   5.984   2.414
 4098TIP3    H212259   0.162   5.971   2.414
 4099TIP3   OH212260   1.294   6.785   5.683
 4099TIP3    H112261   1.207   6.758   5.655
 4099TIP3    H212262   1.352   6.716   5.650
 4100TIP3   OH212263   7.106   1.075   4.973
 4100TIP3    H112264   7.038   1.142   4.973
 4100TIP3    H212265   7.167   1.101   5.042
 4101TIP3   OH212266   1.594   0.031   2.950
 4101TIP3    H112267   1.551   0.117   2.945
 4101TIP3    H212268   1.653   0.029   2.875
 4102TIP3   OH212269   6.664   4.331   2.360
 4102TIP3    H112270   6.617   4.386   2.297
 4102TIP3    H212271   6.741   4.300   2.312
 4103TIP3   OH212272   1.229   6.510   5.123
 4103TIP3    H112273   1.139   6.491   5.148
 4103TIP3    H212274   1.257   6.579   5.183
 4104TIP3   OH212275   1.919   5.864   0.026
 4104TIP3    H112276   1.907   5.958   0.040
 4104TIP3    H212277   2.007   5.846   0.058
 4105TIP3   OH212278   6.655   1.139   2.920
 4105TIP3    H112279   6.721   1.147   2.852
 4105TIP3    H212280   6.624   1.229   2.935
 4106TIP3   OH212281   0.247   0.959   3.608
 4106TIP3    H112282   0.278   0.915   3.529
 4106TIP3    H212283   0.316   0.945   3.672
 4107TIP3   OH212284   7.013   3.077   4.972
 4107TIP3    H112285   6.970   3.143   4.918
 4107TIP3    H212286   7.075   3.125   5.026
 4108TIP3   OH212287   0.897   6.381   4.193
 4108TIP3    H112288   0.955   6.425   4.132
 4108TIP3    H212289   0.848   6.319   4.139
 4109TIP3   OH212290   2.960   2.008   0.394
 4109TIP3    H112291   2.953   1.914   0.413
 4109TIP3    H212292   2.872   2.042   0.411
 4110TIP3   OH212293   3.730   4.793   4.936
 4110TIP3    H112294   3.776   4.840   4.867
 4110TIP3    H212295   3.780   4.813   5.016
 4111TIP3   OH212296   4.314   1.196   1.236
 4111TIP3    H112297   4.248   1.250   1.193
 4111TIP3    H212298   4.333   1.243   1.317
 4112TIP3   OH212299   3.993   1.164   2.661
 4112TIP3    H112300   3.918   1.224   2.666
 4112TIP3    H212301   4.017   1.163   2.569
 4113TIP3   OH212302   5.105   2.775   5.419
 4113TIP3    H112303   5.085   2.708   5.355
 4113TIP3    H212304   5.183   2.819   5.385
 4114TIP3   OH212305   5.686   5.679   4.787
 4114TIP3    H112306   5.629   5.611   4.752
 4114TIP3    H212307   5.751   5.631   4.838
 4115TIP3   OH212308   5.660   2.121   1.557
 4115TIP3    H112309   5.679   2.049   1.496
 4115TIP3    H212310   5.739   2.129   1.610
 4116TIP3   OH212311   2.001   4.833   2.297
 4116TIP3    H112312   1.933   4.899   2.279
 4116TIP3    H212313   1.952   4.752   2.312
 4117TIP3   OH212314   0.839   5.471   0.487
 4117TIP3    H112315   0.896   5.407   0.529
 4117TIP3    H212316   0.894   5.549   0.478
 4118TIP3   OH212317   4.536   1.645   1.145
 4118TIP3    H112318   4.578   1.728   1.168
 4118TIP3    H212319   4.459   1.640   1.202
 4119TIP3   OH212320   1.906   0.240   0.823
 4119TIP3    H112321   1.862   0.252   0.739
 4119TIP3    H212322   1.934   0.328   0.849
 4120TIP3   OH212323   5.206   6.337   3.441
 4120TIP3    H112324   5.285   6.284   3.429
 4120TIP3    H212325   5.150   6.284   3.497
 4121TIP3   OH212326   3.244   1.351   4.037
 4121TIP3    H112327   3.265   1.258   4.040
 4121TIP3    H212328   3.242   1.372   3.943
 4122TIP3   OH212329   1.021   6.526   3.648
 4122TIP3    H112330   0.980   6.559   3.568
 4122TIP3    H212331   1.045   6.435   3.628
 4123TIP3   OH212332   0.843   2.732   0.455
 4123TIP3    H112333   0.807   2.799   0.512
 4123TIP3    H212334   0.903   2.779   0.397
 4124TIP3   OH212335   1.353   4.444   0.408
 4124TIP3    H112336   1.260   4.427   0.390
 4124TIP3    H212337   1.360   4.440   0.504
 4125TIP3   OH212338   5.101   0.247   1.429
 4125TIP3    H112339   5.143   0.269   1.346
 4125TIP3    H212340   5.007   0.248   1.410
 4126TIP3   OH212341   6.847   4.457   1.040
 4126TIP3    H112342   6.842   4.433   1.132
 4126TIP3    H212343   6.756   4.473   1.014
 4127TIP3   OH212344   2.531   6.274   4.433
 4127TIP3    H112345   2.522   6.209   4.502
 4127TIP3    H212346   2.494   6.233   4.355
 4128TIP3   OH212347   6.741   4.963   0.264
 4128TIP3    H112348   6.686   4.885   0.265
 4128TIP3    H212349   6.807   4.948   0.331
 4129TIP3   OH212350   4.323   2.397   3.706
 4129TIP3    H112351   4.240   2.415   3.663
 4129TIP3    H212352   4.314   2.438   3.792
 4130TIP3   OH212353   5.597   4.439   2.811
 4130TIP3    H112354   5.646   4.412   2.889
 4130TIP3    H212355   5.651   4.508   2.772
 4131TIP3   OH212356   5.376   0.694   3.737
 4131TIP3    H112357   5.387   0.600   3.719
 4131TIP3    H212358   5.309   0.697   3.805
 4132TIP3   OH212359   6.616   0.927   2.147
 4132TIP3    H112360   6.691   0.941   2.089
 4132TIP3    H212361   6.630   0.989   2.219
 4133TIP3   OH212362   4.539   5.159   2.177
 4133TIP3    H112363   4.580   5.103   2.111
 4133TIP3    H212364   4.583   5.135   2.259
 4134TIP3   OH212365   0.793   5.839   4.766
 4134TIP3    H112366   0.792   5.893   4.845
 4134TIP3    H212367   0.784   5.749   4.797
 4135TIP3   OH212368   3.485   6.450   4.424
 4135TIP3    H112369   3.398   6.490   4.431
 4135TIP3    H212370   3.536   6.489   4.495
 4136TIP3   OH212371   4.917   4.947   1.055
 4136TIP3    H112372   4.974   4.876   1.085
 4136TIP3    H212373   4.896   4.925   0.964
 4137TIP3   OH212374   0.125   5.591   3.477
 4137TIP3    H112375   0.114   5.603   3.383
 4137TIP3    H212376   0.065   5.520   3.499
 4138TIP3   OH212377   6.487   2.044   1.850
 4138TIP3    H112378   6.531   2.031   1.767
 4138TIP3    H212379   6.440   1.962   1.866
 4139TIP3   OH212380   2.219   4.136   3.993
 4139TIP3    H112381   2.270   4.059   4.016
 4139TIP3    H212382   2.147   4.137   4.055
 4140TIP3   OH212383   2.469   3.573   3.718
 4140TIP3    H112384   2.432   3.600   3.802
 4140TIP3    H212385   2.403   3.514   3.681
 4141TIP3   OH212386   1.458   4.912   5.156
 4141TIP3    H112387   1.384   4.972   5.159
 4141TIP3    H212388   1.531   4.963   5.192
 4142TIP3   OH212389   1.617   3.718   2.417
 4142TIP3    H112390   1.552   3.650   2.398
 4142TIP3    H212391   1.575   3.799   2.388
 4143TIP3   OH212392   4.999   5.113   3.670
 4143TIP3    H112393   4.904   5.107   3.663
 4143TIP3    H212394   5.028   5.024   3.693
 4144TIP3   OH212395   4.539   4.749   5.563
 4144TIP3    H112396   4.609   4.741   5.499
 4144TIP3    H212397   4.491   4.666   5.557
 4145TIP3   OH212398   5.671   1.071   1.352
 4145TIP3    H112399   5.647   0.982   1.377
 4145TIP3    H212400   5.651   1.077   1.259
 4146TIP3   OH212401   2.680   5.512   0.247
 4146TIP3    H112402   2.635   5.575   0.303
 4146TIP3    H212403   2.683   5.553   0.161
 4147TIP3   OH212404   2.029   5.889   2.616
 4147TIP3    H112405   2.032   5.970   2.565
 4147TIP3    H212406   2.082   5.908   2.694
 4148TIP3   OH212407   5.715   5.540   4.523
 4148TIP3    H112408   5.772   5.475   4.483
 4148TIP3    H212409   5.765   5.621   4.521
 4149TIP3   OH212410   5.170   0.692   3.477
 4149TIP3    H112411   5.104   0.743   3.525
 4149TIP3    H212412   5.254   0.732   3.502
 4150TIP3   OH212413   2.677   5.250   1.930
 4150TIP3    H112414   2.739   5.309   1.887
 4150TIP3    H212415   2.683   5.168   1.881
 4151TIP3   OH212416   1.278   1.367   2.167
 4151TIP3    H112417   1.372   1.386   2.161
 4151TIP3    H212418   1.267   1.283   2.123
 4152TIP3   OH212419   2.096   0.525   4.871
 4152TIP3    H112420   2.098   0.539   4.965
 4152TIP3    H212421   2.136   0.604   4.834
 4153TIP3   OH212422   3.570   0.473   5.009
 4153TIP3    H112423   3.627   0.521   4.949
 4153TIP3    H212424   3.578   0.382   4.982
 4154TIP3   OH212425   4.758   5.181   1.006
 4154TIP3    H112426   4.846   5.148   0.989
 4154TIP3    H212427   4.714   5.111   1.055
 4155TIP3   OH212428   5.862   2.420   2.124
 4155TIP3    H112429   5.799   2.478   2.167
 4155TIP3    H212430   5.812   2.380   2.053
 4156TIP3   OH212431   5.523   1.140   2.689
 4156TIP3    H112432   5.546   1.133   2.782
 4156TIP3    H212433   5.532   1.233   2.669
 4157TIP3   OH212434   2.752   2.128   0.506
 4157TIP3    H112435   2.727   2.216   0.477
 4157TIP3    H212436   2.744   2.131   0.602
 4158TIP3   OH212437   0.731   1.795   0.933
 4158TIP3    H112438   0.667   1.809   0.863
 4158TIP3    H212439   0.779   1.716   0.906
 4159TIP3   OH212440   0.192   3.433   0.867
 4159TIP3    H112441   0.110   3.481   0.872
 4159TIP3    H212442   0.170   3.350   0.825
 4160TIP3   OH212443   6.114   4.589   4.984
 4160TIP3    H112444   6.076   4.642   4.915
 4160TIP3    H212445   6.148   4.653   5.047
 4161TIP3   OH212446   6.163   2.972   1.152
 4161TIP3    H112447   6.253   2.943   1.171
 4161TIP3    H212448   6.172   3.031   1.077
 4162TIP3   OH212449   7.178   6.676   1.231
 4162TIP3    H112450   7.103   6.615   1.232
 4162TIP3    H212451   7.230   6.648   1.155
 4163TIP3   OH212452   2.227   0.479   1.122
 4163TIP3    H112453   2.139   0.461   1.152
 4163TIP3    H212454   2.231   0.575   1.114
 4164TIP3   OH212455   6.536   0.172   3.697
 4164TIP3    H112456   6.469   0.239   3.687
 4164TIP3    H212457   6.581   0.170   3.612
 4165TIP3   OH212458   6.353   3.027   3.045
 4165TIP3    H112459   6.346   3.070   2.960
 4165TIP3    H212460   6.333   3.095   3.108
 4166TIP3   OH212461   3.688   3.496   4.691
 4166TIP3    H112462   3.672   3.559   4.762
 4166TIP3    H212463   3.780   3.509   4.668
 4167TIP3   OH212464   5.890   0.836   0.270
 4167TIP3    H112465   5.958   0.773   0.246
 4167TIP3    H212466   5.809   0.785   0.267
 4168TIP3   OH212467   0.173   3.125   4.458
 4168TIP3    H112468   0.160   3.220   4.466
 4168TIP3    H212469   0.088   3.087   4.477
 4169TIP3   OH212470   0.944   0.644   3.189
 4169TIP3    H112471   0.873   0.709   3.184
 4169TIP3    H212472   0.906   0.571   3.238
 4170TIP3   OH212473   4.573   3.921   0.668
 4170TIP3    H112474   4.576   3.976   0.591
 4170TIP3    H212475   4.505   3.857   0.649
 4171TIP3   OH212476   1.288   2.854   2.876
 4171TIP3    H112477   1.194   2.856   2.862
 4171TIP3    H212478   1.313   2.946   2.884
 4172TIP3   OH212479   6.134   0.512   0.556
 4172TIP3    H112480   6.085   0.476   0.482
 4172TIP3    H212481   6.073   0.510   0.629
 4173TIP3   OH212482   7.081   1.587   4.599
 4173TIP3    H112483   7.052   1.523   4.534
 4173TIP3    H212484   7.166   1.554   4.630
 4174TIP3   OH212485   0.708   1.490   0.970
 4174TIP3    H112486   0.670   1.504   1.057
 4174TIP3    H212487   0.800   1.516   0.979
 4175TIP3   OH212488   6.215   0.466   1.381
 4175TIP3    H112489   6.288   0.404   1.386
 4175TIP3    H212490   6.235   0.520   1.305
 4176TIP3   OH212491   1.592   3.035   0.998
 4176TIP3    H112492   1.595   3.122   1.037
 4176TIP3    H212493   1.549   2.980   1.064
 4177TIP3   OH212494   0.112   5.045   5.275
 4177TIP3    H112495   0.137   5.067   5.185
 4177TIP3    H212496   0.122   5.127   5.324
 4178TIP3   OH212497   4.719   4.439   4.896
 4178TIP3    H112498   4.646   4.499   4.909
 4178TIP3    H212499   4.697   4.391   4.816
 4179TIP3   OH212500   2.794   4.064   1.960
 4179TIP3    H112501   2.870   4.084   2.015
 4179TIP3    H212502   2.831   4.039   1.876
 4180TIP3   OH212503   0.908   5.807   0.146
 4180TIP3    H112504   0.822   5.837   0.115
 4180TIP3    H212505   0.898   5.801   0.241
 4181TIP3   OH212506   1.077   2.185   0.814
 4181TIP3    H112507   1.065   2.214   0.724
 4181TIP3    H212508   0.997   2.213   0.859
 4182TIP3   OH212509   3.954   1.719   4.097
 4182TIP3    H112510   3.991   1.648   4.149
 4182TIP3    H212511   3.986   1.799   4.139
 4183TIP3   OH212512   3.471   4.543   0.232
 4183TIP3    H112513   3.515   4.532   0.147
 4183TIP3    H212514   3.441   4.634   0.231
 4184TIP3   OH212515   2.740   6.698   5.083
 4184TIP3    H112516   2.668   6.698   5.146
 4184TIP3    H212517   2.741   6.786   5.046
 4185TIP3   OH212518   0.126   4.303   1.769
 4185TIP3    H112519   0.051   4.345   1.810
 4185TIP3    H212520   0.150   4.232   1.829
 4186TIP3   OH212521   6.800   3.915   4.190
 4186TIP3    H112522   6.734   3.937   4.256
 4186TIP3    H212523   6.882   3.948   4.227
 4187TIP3   OH212524   0.988   2.849   2.836
 4187TIP3    H112525   0.971   2.755   2.845
 4187TIP3    H212526   1.019   2.860   2.746
 4188TIP3   OH212527   4.223   6.581   2.775
 4188TIP3    H112528   4.285   6.550   2.841
 4188TIP3    H212529   4.271   6.650   2.728
 4189TIP3   OH212530   5.216   3.144   3.891
 4189TIP3    H112531   5.237   3.215   3.952
 4189TIP3    H212532   5.179   3.189   3.815
 4190TIP3   OH212533   6.047   2.793   1.329
 4190TIP3    H112534   6.108   2.837   1.270
 4190TIP3    H212535   6.036   2.706   1.290
 4191TIP3   OH212536   0.567   0.264   5.688
 4191TIP3    H112537   0.647   0.256   5.636
 4191TIP3    H212538   0.544   0.173   5.711
 4192TIP3   OH212539   4.265   5.767   0.523
 4192TIP3    H112540   4.277   5.674   0.501
 4192TIP3    H212541   4.243   5.808   0.439
 4193TIP3   OH212542   3.982   1.477   5.317
 4193TIP3    H112543   4.076   1.482   5.331
 4193TIP3    H212544   3.970   1.399   5.263
 4194TIP3   OH212545   4.600   5.911   4.111
 4194TIP3    H112546   4.547   5.832   4.095
 4194TIP3    H212547   4.608   5.915   4.206
 4195TIP3   OH212548   0.499   5.711   3.176
 4195TIP3    H112549   0.416   5.696   3.221
 4195TIP3    H212550   0.533   5.793   3.213
 4196TIP3   OH212551   7.010   2.745   3.353
 4196TIP3    H112552   6.950   2.676   3.381
 4196TIP3    H212553   7.059   2.707   3.280
 4197TIP3   OH212554   4.004   5.299   4.861
 4197TIP3    H112555   4.021   5.264   4.948
 4197TIP3    H212556   4.070   5.368   4.850
 4198TIP3   OH212557   7.032   4.768   3.740
 4198TIP3    H112558   7.067   4.816   3.664
 4198TIP3    H212559   6.989   4.835   3.793
 4199TIP3   OH212560   3.571   6.434   2.016
 4199TIP3    H112561   3.628   6.475   2.081
 4199TIP3    H212562   3.632   6.390   1.956
 4200TIP3   OH212563   0.993   2.298   1.735
 4200TIP3    H112564   1.062   2.320   1.673
 4200TIP3    H212565   0.934   2.373   1.734
 4201TIP3   OH212566   3.945   6.259   5.091
 4201TIP3    H112567   3.853   6.232   5.088
 4201TIP3    H212568   3.954   6.300   5.177
 4202TIP3   OH212569   1.969   2.038   0.023
 4202TIP3    H112570   2.055   1.998   0.014
 4202TIP3    H212571   1.934   2.001   0.105
 4203TIP3   OH212572   6.951   2.167   1.220
 4203TIP3    H112573   6.878   2.229   1.217
 4203TIP3    H212574   6.947   2.130   1.308
 4204TIP3   OH212575   5.108   1.807   2.089
 4204TIP3    H112576   5.173   1.756   2.137
 4204TIP3    H212577   5.127   1.898   2.111
 4205TIP3   OH212578   3.421   2.537   5.817
 4205TIP3    H112579   3.329   2.562   5.816
 4205TIP3    H212580   3.434   2.489   5.735
 4206TIP3   OH212581   0.601   0.861   3.496
 4206TIP3    H112582   0.675   0.800   3.488
 4206TIP3    H212583   0.532   0.823   3.442
 4207TIP3   OH212584   4.900   2.392   0.503
 4207TIP3    H112585   4.934   2.447   0.432
 4207TIP3    H212586   4.881   2.308   0.462
 4208TIP3   OH212587   4.928   3.012   1.998
 4208TIP3    H112588   4.912   2.946   2.065
 4208TIP3    H212589   4.959   3.088   2.046
 4209TIP3   OH212590   2.104   6.271   4.364
 4209TIP3    H112591   2.141   6.352   4.328
 4209TIP3    H212592   2.079   6.220   4.287
 4210TIP3   OH212593   2.240   3.643   1.175
 4210TIP3    H112594   2.318   3.622   1.226
 4210TIP3    H212595   2.186   3.565   1.180
 4211TIP3   OH212596   5.338   2.218   2.248
 4211TIP3    H112597   5.286   2.290   2.211
 4211TIP3    H212598   5.427   2.252   2.250
 4212TIP3   OH212599   0.646   0.092   1.075
 4212TIP3    H112600   0.603   0.065   0.994
 4212TIP3    H212601   0.730   0.045   1.073
 4213TIP3   OH212602   3.558   1.577   3.627
 4213TIP3    H112603   3.546   1.667   3.596
 4213TIP3    H212604   3.547   1.582   3.722
 4214TIP3   OH212605   6.493   4.366   0.338
 4214TIP3    H112606   6.520   4.292   0.283
 4214TIP3    H212607   6.575   4.399   0.374
 4215TIP3   OH212608   4.187   3.445   1.855
 4215TIP3    H112609   4.213   3.537   1.846
 4215TIP3    H212610   4.171   3.416   1.766
 4216TIP3   OH212611   5.074   0.183   5.056
 4216TIP3    H112612   5.040   0.175   5.145
 4216TIP3    H212613   4.997   0.181   5.001
 4217TIP3   OH212614   4.402   4.818   4.549
 4217TIP3    H112615   4.324   4.833   4.601
 4217TIP3    H212616   4.475   4.841   4.607
 4218TIP3   OH212617   2.712   3.686   3.684
 4218TIP3    H112618   2.623   3.652   3.688
 4218TIP3    H212619   2.761   3.619   3.637
 4219TIP3   OH212620   5.800   4.105   5.090
 4219TIP3    H112621   5.844   4.179   5.134
 4219TIP3    H212622   5.871   4.053   5.053
 4220TIP3   OH212623   3.392   2.875   1.402
 4220TIP3    H112624   3.459   2.811   1.379
 4220TIP3    H212625   3.412   2.952   1.349
 4221TIP3   OH212626   5.213   5.546   3.632
 4221TIP3    H112627   5.157   5.584   3.700
 4221TIP3    H212628   5.213   5.452   3.650
 4222TIP3   OH212629   6.648   6.146   5.144
 4222TIP3    H112630   6.608   6.203   5.079
 4222TIP3    H212631   6.726   6.112   5.100
 4223TIP3   OH212632   1.076   6.424   0.178
 4223TIP3    H112633   1.018   6.349   0.196
 4223TIP3    H212634   1.140   6.422   0.249
 4224TIP3   OH212635   3.207   0.290   1.069
 4224TIP3    H112636   3.204   0.236   1.148
 4224TIP3    H212637   3.296   0.278   1.035
 4225TIP3   OH212638   1.123   2.829   3.400
 4225TIP3    H112639   1.164   2.804   3.483
 4225TIP3    H212640   1.193   2.870   3.350
 4226TIP3   OH212641   1.613   1.348   3.045
 4226TIP3    H112642   1.701   1.384   3.029
 4226TIP3    H212643   1.629   1.260   3.079
 4227TIP3   OH212644   6.233   1.152   1.582
 4227TIP3    H112645   6.261   1.211   1.512
 4227TIP3    H212646   6.286   1.177   1.657
 4228TIP3   OH212647   3.002   1.032   0.727
 4228TIP3    H112648   3.050   0.956   0.761
 4228TIP3    H212649   3.052   1.108   0.756
 4229TIP3   OH212650   1.840   2.067   4.512
 4229TIP3    H112651   1.786   2.078   4.590
 4229TIP3    H212652   1.846   1.972   4.501
 4230TIP3   OH212653   4.008   5.290   1.220
 4230TIP3    H112654   4.085   5.303   1.165
 4230TIP3    H212655   3.980   5.200   1.202
 4231TIP3   OH212656   3.582   3.351   1.060
 4231TIP3    H112657   3.632   3.276   1.030
 4231TIP3    H212658   3.614   3.424   1.007
 4232TIP3   OH212659   0.730   3.003   1.337
 4232TIP3    H112660   0.809   3.042   1.375
 4232TIP3    H212661   0.658   3.057   1.371
 4233TIP3   OH212662   6.417   4.546   2.466
 4233TIP3    H112663   6.486   4.557   2.401
 4233TIP3    H212664   6.377   4.633   2.473
 4234TIP3   OH212665   0.328   6.039   3.407
 4234TIP3    H112666   0.353   6.106   3.343
 4234TIP3    H212667   0.369   6.068   3.488
 4235TIP3   OH212668   3.000   5.694   0.619
 4235TIP3    H112669   2.907   5.673   0.631
 4235TIP3    H212670   3.044   5.645   0.688
 4236TIP3   OH212671   6.930   4.925   2.678
 4236TIP3    H112672   6.852   4.978   2.661
 4236TIP3    H212673   6.903   4.864   2.747
 4237TIP3   OH212674   2.173   3.368   4.804
 4237TIP3    H112675   2.209   3.287   4.841
 4237TIP3    H212676   2.240   3.400   4.745
 4238TIP3   OH212677   2.596   2.810   4.642
 4238TIP3    H112678   2.621   2.768   4.724
 4238TIP3    H212679   2.515   2.767   4.616
 4239TIP3   OH212680   0.010   1.388   4.455
 4239TIP3    H112681   0.101   1.393   4.485
 4239TIP3    H212682   0.015   1.410   4.362
 4240TIP3   OH212683   4.553   6.178   2.718
 4240TIP3    H112684   4.625   6.121   2.747
 4240TIP3    H212685   4.486   6.119   2.686
 4241TIP3   OH212686   3.648   2.829   0.588
 4241TIP3    H112687   3.729   2.798   0.629
 4241TIP3    H212688   3.581   2.820   0.656
 4242TIP3   OH212689   7.084   0.423   1.660
 4242TIP3    H112690   7.158   0.482   1.648
 4242TIP3    H212691   7.061   0.395   1.571
 4243TIP3   OH212692   3.855   3.787   5.620
 4243TIP3    H112693   3.921   3.819   5.559
 4243TIP3    H212694   3.852   3.693   5.606
 4244TIP3   OH212695   5.496   3.987   0.624
 4244TIP3    H112696   5.564   3.924   0.598
 4244TIP3    H212697   5.516   4.066   0.574
 4245TIP3   OH212698   6.801   3.494   3.911
 4245TIP3    H112699   6.738   3.423   3.920
 4245TIP3    H212700   6.822   3.520   4.001
 4246TIP3   OH212701   5.901   2.767   0.210
 4246TIP3    H112702   5.857   2.717   0.278
 4246TIP3    H212703   5.909   2.855   0.245
 4247TIP3   OH212704   4.212   3.426   3.585
 4247TIP3    H112705   4.210   3.484   3.509
 4247TIP3    H212706   4.304   3.403   3.595
 4248TIP3   OH212707   0.985   5.184   0.593
 4248TIP3    H112708   0.899   5.142   0.597
 4248TIP3    H212709   1.010   5.180   0.501
 4249TIP3   OH212710   1.703   5.716   0.676
 4249TIP3    H112711   1.788   5.730   0.718
 4249TIP3    H212712   1.709   5.628   0.639
 4250TIP3   OH212713   2.354   6.496   4.052
 4250TIP3    H112714   2.344   6.402   4.037
 4250TIP3    H212715   2.417   6.524   3.986
 4251TIP3   OH212716   2.305   6.548   5.141
 4251TIP3    H112717   2.331   6.624   5.090
 4251TIP3    H212718   2.240   6.503   5.086
 4252TIP3   OH212719   0.068   1.773   4.995
 4252TIP3    H112720   0.084   1.690   4.949
 4252TIP3    H212721   0.020   1.748   5.074
 4253TIP3   OH212722   3.858   6.767   2.629
 4253TIP3    H112723   3.839   6.756   2.722
 4253TIP3    H212724   3.927   6.702   2.611
 4254TIP3   OH212725   3.012   2.278   4.001
 4254TIP3    H112726   3.005   2.351   3.939
 4254TIP3    H212727   3.020   2.321   4.086
 4255TIP3   OH212728   0.877   4.692   5.354
 4255TIP3    H112729   0.943   4.761   5.344
 4255TIP3    H212730   0.915   4.616   5.309
 4256TIP3   OH212731   1.278   0.263   5.867
 4256TIP3    H112732   1.311   0.327   5.804
 4256TIP3    H212733   1.323   0.182   5.843
 4257TIP3   OH212734   0.635   0.521   4.775
 4257TIP3    H112735   0.585   0.597   4.806
 4257TIP3    H212736   0.589   0.493   4.696
 4258TIP3   OH212737   0.282   0.551   5.349
 4258TIP3    H112738   0.322   0.556   5.436
 4258TIP3    H212739   0.280   0.641   5.319
 4259TIP3   OH212740   2.109   5.821   0.554
 4259TIP3    H112741   2.199   5.845   0.530
 4259TIP3    H212742   2.070   5.787   0.474
 4260TIP3   OH212743   1.822   1.950   2.655
 4260TIP3    H112744   1.911   1.916   2.641
 4260TIP3    H212745   1.765   1.878   2.630
 4261TIP3   OH212746   2.453   5.960   3.955
 4261TIP3    H112747   2.382   5.910   3.914
 4261TIP3    H212748   2.449   5.935   4.047
 4262TIP3   OH212749   1.174   4.202   3.267
 4262TIP3    H112750   1.214   4.168   3.347
 4262TIP3    H212751   1.088   4.233   3.294
 4263TIP3   OH212752   1.537   0.914   2.870
 4263TIP3    H112753   1.630   0.903   2.849
 4263TIP3    H212754   1.533   0.903   2.965
 4264TIP3   OH212755   5.873   1.603   3.105
 4264TIP3    H112756   5.900   1.679   3.054
 4264TIP3    H212757   5.796   1.633   3.154
 4265TIP3   OH212758   2.811   4.294   4.466
 4265TIP3    H112759   2.746   4.339   4.412
 4265TIP3    H212760   2.790   4.322   4.556
 4266TIP3   OH212761   0.789   3.063   5.448
 4266TIP3    H112762   0.843   3.132   5.409
 4266TIP3    H212763   0.705   3.071   5.404
 4267TIP3   OH212764   2.086   6.276   4.746
 4267TIP3    H112765   2.003   6.297   4.703
 4267TIP3    H212766   2.070   6.193   4.790
 4268TIP3   OH212767   2.533   2.744   0.755
 4268TIP3    H112768   2.578   2.711   0.678
 4268TIP3    H212769   2.441   2.749   0.728
 4269TIP3   OH212770   4.060   3.963   0.076
 4269TIP3    H112771   4.083   3.888   0.021
 4269TIP3    H212772   4.007   3.925   0.146
 4270TIP3   OH212773   5.669   3.545   5.648
 4270TIP3    H112774   5.754   3.506   5.629
 4270TIP3    H212775   5.613   3.517   5.575
 4271TIP3   OH212776   0.283   0.250   3.702
 4271TIP3    H112777   0.271   0.303   3.780
 4271TIP3    H212778   0.294   0.313   3.631
 4272TIP3   OH212779   6.445   2.793   3.244
 4272TIP3    H112780   6.467   2.876   3.202
 4272TIP3    H212781   6.360   2.769   3.206
 4273TIP3   OH212782   4.724   2.973   4.127
 4273TIP3    H112783   4.796   3.016   4.083
 4273TIP3    H212784   4.763   2.932   4.204
 4274TIP3   OH212785   5.104   3.814   0.014
 4274TIP3    H112786   5.137   3.902  -0.006
 4274TIP3    H212787   5.029   3.830   0.073
 4275TIP3   OH212788   2.195   6.659   2.581
 4275TIP3    H112789   2.221   6.730   2.521
 4275TIP3    H212790   2.211   6.694   2.668
 4276TIP3   OH212791   4.994   4.406   0.498
 4276TIP3    H112792   4.918   4.405   0.440
 4276TIP3    H212793   5.019   4.499   0.502
 4277TIP3   OH212794   1.196   1.143   4.530
 4277TIP3    H112795   1.173   1.162   4.439
 4277TIP3    H212796   1.156   1.214   4.580
 4278TIP3   OH212797   6.173   0.965   1.244
 4278TIP3    H112798   6.198   0.894   1.303
 4278TIP3    H212799   6.081   0.983   1.265
 4279TIP3   OH212800   1.008   5.977   3.526
 4279TIP3    H112801   0.996   5.905   3.465
 4279TIP3    H212802   1.099   6.005   3.513
 4280TIP3   OH212803   2.586   6.668   2.151
 4280TIP3    H112804   2.640   6.683   2.073
 4280TIP3    H212805   2.640   6.611   2.206
 4281TIP3   OH212806   5.920   1.860   2.265
 4281TIP3    H112807   5.858   1.911   2.213
 4281TIP3    H212808   5.985   1.924   2.295
 4282TIP3   OH212809   2.777   4.116   4.786
 4282TIP3    H112810   2.746   4.181   4.723
 4282TIP3    H212811   2.791   4.165   4.867
 4283TIP3   OH212812   0.431   6.672   5.655
 4283TIP3    H112813   0.394   6.617   5.586
 4283TIP3    H212814   0.379   6.651   5.733
 4284TIP3   OH212815   4.902   4.304   1.417
 4284TIP3    H112816   4.914   4.392   1.382
 4284TIP3    H212817   4.991   4.269   1.426
 4285TIP3   OH212818   0.558   2.510   5.682
 4285TIP3    H112819   0.597   2.594   5.706
 4285TIP3    H212820   0.474   2.533   5.642
 4286TIP3   OH212821   5.666   5.294   1.060
 4286TIP3    H112822   5.594   5.238   1.032
 4286TIP3    H212823   5.623   5.376   1.087
 4287TIP3   OH212824   3.317   2.144   2.762
 4287TIP3    H112825   3.393   2.142   2.820
 4287TIP3    H212826   3.323   2.229   2.717
 4288TIP3   OH212827   2.399   0.711   1.274
 4288TIP3    H112828   2.436   0.796   1.298
 4288TIP3    H212829   2.460   0.647   1.313
 4289TIP3   OH212830   4.413   1.908   2.052
 4289TIP3    H112831   4.424   1.934   2.144
 4289TIP3    H212832   4.502   1.890   2.021
 4290TIP3   OH212833   5.047   1.761   4.700
 4290TIP3    H112834   5.118   1.824   4.684
 4290TIP3    H212835   4.967   1.808   4.676
 4291TIP3   OH212836   5.382   2.594   3.768
 4291TIP3    H112837   5.387   2.667   3.829
 4291TIP3    H212838   5.474   2.574   3.747
 4292TIP3   OH212839   0.651   5.380   2.199
 4292TIP3    H112840   0.729   5.325   2.203
 4292TIP3    H212841   0.584   5.323   2.162
 4293TIP3   OH212842   3.184   2.990   3.448
 4293TIP3    H112843   3.213   2.904   3.419
 4293TIP3    H212844   3.264   3.043   3.450
 4294TIP3   OH212845   6.851   5.853   4.610
 4294TIP3    H112846   6.798   5.918   4.657
 4294TIP3    H212847   6.941   5.875   4.634
 4295TIP3   OH212848   1.032   6.524   1.835
 4295TIP3    H112849   0.952   6.485   1.871
 4295TIP3    H212850   1.098   6.454   1.845
 4296TIP3   OH212851   6.328   0.208   1.369
 4296TIP3    H112852   6.347   0.191   1.276
 4296TIP3    H212853   6.238   0.178   1.381
 4297TIP3   OH212854   0.345   0.477   2.720
 4297TIP3    H112855   0.377   0.521   2.642
 4297TIP3    H212856   0.285   0.409   2.687
 4298TIP3   OH212857   1.189   4.476   1.367
 4298TIP3    H112858   1.238   4.402   1.404
 4298TIP3    H212859   1.232   4.493   1.283
 4299TIP3   OH212860   5.799   1.336   5.535
 4299TIP3    H112861   5.856   1.311   5.607
 4299TIP3    H212862   5.854   1.331   5.457
 4300TIP3   OH212863   1.577   2.876   3.114
 4300TIP3    H112864   1.557   2.796   3.066
 4300TIP3    H212865   1.672   2.877   3.122
 4301TIP3   OH212866   4.309   6.024   4.404
 4301TIP3    H112867   4.314   6.108   4.449
 4301TIP3    H212868   4.215   6.007   4.397
 4302TIP3   OH212869   6.662   0.969   3.649
 4302TIP3    H112870   6.613   1.045   3.618
 4302TIP3    H212871   6.601   0.896   3.641
 4303TIP3   OH212872   2.129   1.324   2.187
 4303TIP3    H112873   2.205   1.348   2.134
 4303TIP3    H212874   2.093   1.407   2.218
 4304TIP3   OH212875   5.353   6.444   5.595
 4304TIP3    H112876   5.323   6.523   5.550
 4304TIP3    H212877   5.433   6.418   5.549
 4305TIP3   OH212878   2.607   6.214   5.208
 4305TIP3    H112879   2.526   6.220   5.257
 4305TIP3    H212880   2.616   6.300   5.166
 4306TIP3   OH212881   3.225   0.208   1.952
 4306TIP3    H112882   3.214   0.128   2.003
 4306TIP3    H212883   3.146   0.259   1.969
 4307TIP3   OH212884   5.835   6.843   2.941
 4307TIP3    H112885   5.836   6.820   3.033
 4307TIP3    H212886   5.872   6.766   2.896
 4308TIP3   OH212887   0.603   3.209   4.165
 4308TIP3    H112888   0.694   3.192   4.139
 4308TIP3    H212889   0.581   3.136   4.223
 4309TIP3   OH212890   3.738   5.487   1.550
 4309TIP3    H112891   3.789   5.439   1.615
 4309TIP3    H212892   3.780   5.467   1.466
 4310TIP3   OH212893   4.968   4.155   4.764
 4310TIP3    H112894   5.055   4.174   4.730
 4310TIP3    H212895   4.945   4.070   4.727
 4311TIP3   OH212896   5.014   1.320   0.508
 4311TIP3    H112897   5.005   1.338   0.414
 4311TIP3    H212898   5.095   1.365   0.533
 4312TIP3   OH212899   3.963   4.197   4.702
 4312TIP3    H112900   3.886   4.146   4.727
 4312TIP3    H212901   3.937   4.240   4.620
 4313TIP3   OH212902   6.842   0.997   3.852
 4313TIP3    H112903   6.774   0.972   3.789
 4313TIP3    H212904   6.876   0.915   3.885
 4314TIP3   OH212905   6.451   2.040   5.406
 4314TIP3    H112906   6.512   2.026   5.334
 4314TIP3    H212907   6.412   2.126   5.387
 4315TIP3   OH212908   5.183   0.035   5.391
 4315TIP3    H112909   5.232  -0.041   5.361
 4315TIP3    H212910   5.239   0.075   5.458
 4316TIP3   OH212911   4.154   4.081   2.582
 4316TIP3    H112912   4.185   4.164   2.617
 4316TIP3    H212913   4.232   4.026   2.577
 4317TIP3   OH212914   3.904   5.719   0.667
 4317TIP3    H112915   3.848   5.687   0.738
 4317TIP3    H212916   3.844   5.766   0.610
 4318TIP3   OH212917   4.220   2.217   0.704
 4318TIP3    H112918   4.151   2.202   0.638
 4318TIP3    H212919   4.196   2.299   0.746
 4319TIP3   OH212920   6.416   4.157   2.811
 4319TIP3    H112921   6.433   4.181   2.902
 4319TIP3    H212922   6.456   4.227   2.759
 4320TIP3   OH212923   3.697   0.712   2.242
 4320TIP3    H112924   3.678   0.803   2.218
 4320TIP3    H212925   3.750   0.679   2.169
 4321TIP3   OH212926   1.214   1.334   0.263
 4321TIP3    H112927   1.154   1.334   0.338
 4321TIP3    H212928   1.213   1.245   0.230
 4322TIP3   OH212929   7.232   2.105   3.516
 4322TIP3    H112930   7.311   2.122   3.465
 4322TIP3    H212931   7.210   2.190   3.555
 4323TIP3   OH212932   5.050   2.245   2.417
 4323TIP3    H112933   5.092   2.330   2.430
 4323TIP3    H212934   4.956   2.263   2.419
 4324TIP3   OH212935   4.850   0.679   0.333
 4324TIP3    H112936   4.886   0.766   0.347
 4324TIP3    H212937   4.927   0.621   0.330
 4325TIP3   OH212938   3.305   3.340   5.528
 4325TIP3    H112939   3.364   3.276   5.488
 4325TIP3    H212940   3.280   3.301   5.612
 4326TIP3   OH212941   6.073   4.254   4.637
 4326TIP3    H112942   6.033   4.335   4.604
 4326TIP3    H212943   6.136   4.284   4.703
 4327TIP3   OH212944   5.184   2.890   0.430
 4327TIP3    H112945   5.103   2.938   0.450
 4327TIP3    H212946   5.237   2.952   0.379
 4328TIP3   OH212947   4.528   4.973   5.729
 4328TIP3    H112948   4.589   4.923   5.784
 4328TIP3    H212949   4.498   4.911   5.663
 4329TIP3   OH212950   1.966   6.091   2.427
 4329TIP3    H112951   1.916   6.019   2.390
 4329TIP3    H212952   1.985   6.149   2.353
 4330TIP3   OH212953   5.891   0.258   0.512
 4330TIP3    H112954   5.913   0.336   0.462
 4330TIP3    H212955   5.885   0.189   0.446
 4331TIP3   OH212956   6.644   4.529   0.797
 4331TIP3    H112957   6.635   4.601   0.860
 4331TIP3    H212958   6.569   4.539   0.738
 4332TIP3   OH212959   0.275   6.411   1.691
 4332TIP3    H112960   0.358   6.383   1.653
 4332TIP3    H212961   0.296   6.433   1.782
 4333TIP3   OH212962   1.684   0.942   1.290
 4333TIP3    H112963   1.679   1.022   1.342
 4333TIP3    H212964   1.768   0.903   1.314
 4334TIP3   OH212965   3.784   3.482   0.854
 4334TIP3    H112966   3.816   3.536   0.926
 4334TIP3    H212967   3.848   3.410   0.847
 4335TIP3   OH212968   3.914   4.528   2.924
 4335TIP3    H112969   3.877   4.573   3.000
 4335TIP3    H212970   3.839   4.506   2.870
 4336TIP3   OH212971   4.981   3.105   0.139
 4336TIP3    H112972   4.989   3.095   0.044
 4336TIP3    H212973   4.949   3.020   0.169
 4337TIP3   OH212974   1.624   4.789   2.564
 4337TIP3    H112975   1.635   4.788   2.659
 4337TIP3    H212976   1.684   4.857   2.534
 4338TIP3   OH212977   6.898   4.126   1.939
 4338TIP3    H112978   6.900   4.140   1.845
 4338TIP3    H212979   6.984   4.088   1.960
 4339TIP3   OH212980   0.181   0.685   2.295
 4339TIP3    H112981   0.124   0.646   2.229
 4339TIP3    H212982   0.269   0.674   2.260
 4340TIP3   OH212983   1.842   3.372   5.439
 4340TIP3    H112984   1.748   3.382   5.451
 4340TIP3    H212985   1.881   3.436   5.498
 4341TIP3   OH212986   0.405   5.822   1.507
 4341TIP3    H112987   0.321   5.810   1.463
 4341TIP3    H212988   0.432   5.733   1.532
 4342TIP3   OH212989   1.231   3.380   2.234
 4342TIP3    H112990   1.161   3.335   2.282
 4342TIP3    H212991   1.195   3.466   2.213
 4343TIP3   OH212992   4.732   2.437   3.579
 4343TIP3    H112993   4.700   2.407   3.665
 4343TIP3    H212994   4.674   2.395   3.516
 4344TIP3   OH212995   4.469   2.421  -0.008
 4344TIP3    H112996   4.389   2.471  -0.024
 4344TIP3    H212997   4.438   2.333   0.014
 4345TIP3   OH212998   6.504   1.834   0.269
 4345TIP3    H112999   6.517   1.797   0.182
 4345TIP3    H213000   6.487   1.927   0.254
 4346TIP3   OH213001   1.413   0.082   0.020
 4346TIP3    H113002   1.372   0.002   0.054
 4346TIP3    H213003   1.498   0.086   0.063
 4347TIP3   OH213004   5.303   3.694   1.136
 4347TIP3    H113005   5.262   3.735   1.060
 4347TIP3    H213006   5.251   3.725   1.211
 4348TIP3   OH213007   5.914   1.866   0.202
 4348TIP3    H113008   5.887   1.853   0.292
 4348TIP3    H213009   5.862   1.940   0.171
 4349TIP3   OH213010   6.335   6.720   4.804
 4349TIP3    H113011   6.352   6.744   4.713
 4349TIP3    H213012   6.367   6.794   4.855
 4350TIP3   OH213013   3.265   2.624   4.378
 4350TIP3    H113014   3.348   2.661   4.406
 4350TIP3    H213015   3.202   2.695   4.389
 4351TIP3   OH213016   4.955   6.674   3.645
 4351TIP3    H113017   5.027   6.733   3.667
 4351TIP3    H213018   4.901   6.671   3.724
 4352TIP3   OH213019   6.952   1.230  -0.031
 4352TIP3    H113020   6.859   1.209  -0.018
 4352TIP3    H213021   6.968   1.304   0.027
 4353TIP3   OH213022   6.371   4.160   0.627
 4353TIP3    H113023   6.463   4.139   0.611
 4353TIP3    H213024   6.335   4.083   0.670
 4354TIP3   OH213025   5.382   6.059   2.416
 4354TIP3    H113026   5.410   6.065   2.325
 4354TIP3    H213027   5.323   5.983   2.418
 4355TIP3   OH213028   5.789   4.739   3.697
 4355TIP3    H113029   5.763   4.816   3.646
 4355TIP3    H213030   5.719   4.676   3.682
 4356TIP3   OH213031   0.161   4.166   3.747
 4356TIP3    H113032   0.078   4.207   3.773
 4356TIP3    H213033   0.166   4.087   3.800
 4357TIP3   OH213034   1.110   2.163   4.261
 4357TIP3    H113035   1.017   2.158   4.238
 4357TIP3    H213036   1.130   2.257   4.261
 4358TIP3   OH213037   3.467   6.726   3.294
 4358TIP3    H113038   3.470   6.822   3.293
 4358TIP3    H213039   3.441   6.703   3.383
 4359TIP3   OH213040   5.539   6.318   2.445
 4359TIP3    H113041   5.630   6.343   2.463
 4359TIP3    H213042   5.544   6.224   2.427
 4360TIP3   OH213043   7.139   3.301   1.571
 4360TIP3    H113044   7.173   3.274   1.656
 4360TIP3    H213045   7.044   3.308   1.583
 4361TIP3   OH213046   2.163   2.053   1.619
 4361TIP3    H113047   2.173   2.148   1.619
 4361TIP3    H213048   2.071   2.038   1.639
 4362TIP3   OH213049   3.711   4.113   1.496
 4362TIP3    H113050   3.756   4.033   1.469
 4362TIP3    H213051   3.781   4.171   1.528
 4363TIP3   OH213052   5.767   6.555   0.547
 4363TIP3    H113053   5.697   6.491   0.562
 4363TIP3    H213054   5.745   6.628   0.606
 4364TIP3   OH213055   5.552   5.437   2.435
 4364TIP3    H113056   5.612   5.399   2.371
 4364TIP3    H213057   5.599   5.430   2.518
 4365TIP3   OH213058   2.252   2.065   3.417
 4365TIP3    H113059   2.344   2.059   3.392
 4365TIP3    H213060   2.253   2.101   3.506
 4366TIP3   OH213061   5.567   2.318   1.225
 4366TIP3    H113062   5.635   2.357   1.281
 4366TIP3    H213063   5.485   2.333   1.272
 4367TIP3   OH213064   4.447   2.713   4.129
 4367TIP3    H113065   4.436   2.796   4.175
 4367TIP3    H213066   4.359   2.677   4.122
 4368TIP3   OH213067   4.593   4.480   3.107
 4368TIP3    H113068   4.653   4.555   3.106
 4368TIP3    H213069   4.631   4.419   3.170
 4369TIP3   OH213070   1.795   5.542   5.220
 4369TIP3    H113071   1.796   5.614   5.156
 4369TIP3    H213072   1.848   5.574   5.293
 4370TIP3   OH213073   0.608   0.365   2.215
 4370TIP3    H113074   0.636   0.339   2.302
 4370TIP3    H213075   0.520   0.329   2.206
 4371TIP3   OH213076   2.623   5.237   0.298
 4371TIP3    H113077   2.695   5.218   0.358
 4371TIP3    H213078   2.633   5.329   0.276
 4372TIP3   OH213079   4.752   3.378   2.406
 4372TIP3    H113080   4.781   3.416   2.488
 4372TIP3    H213081   4.780   3.441   2.339
 4373TIP3   OH213082   0.546   6.347   0.327
 4373TIP3    H113083   0.604   6.272   0.315
 4373TIP3    H213084   0.474   6.330   0.266
 4374TIP3   OH213085   5.691   2.739   0.750
 4374TIP3    H113086   5.643   2.814   0.714
 4374TIP3    H213087   5.760   2.779   0.803
 4375TIP3   OH213088   0.874   6.092   5.845
 4375TIP3    H113089   0.897   6.032   5.916
 4375TIP3    H213090   0.799   6.142   5.879
 4376TIP3   OH213091   6.837   2.301   1.538
 4376TIP3    H113092   6.771   2.248   1.583
 4376TIP3    H213093   6.811   2.298   1.446
 4377TIP3   OH213094   6.473   4.251   1.419
 4377TIP3    H113095   6.392   4.227   1.465
 4377TIP3    H213096   6.513   4.167   1.397
 4378TIP3   OH213097   0.304   3.651   2.051
 4378TIP3    H113098   0.360   3.701   1.992
 4378TIP3    H213099   0.227   3.628   1.999
 4379TIP3   OH213100   5.504   3.994   4.473
 4379TIP3    H113101   5.529   3.951   4.391
 4379TIP3    H213102   5.587   4.014   4.516
 4380TIP3   OH213103   6.452   0.733   2.060
 4380TIP3    H113104   6.518   0.796   2.089
 4380TIP3    H213105   6.448   0.744   1.965
 4381TIP3   OH213106   2.962   5.197   0.276
 4381TIP3    H113107   3.020   5.191   0.351
 4381TIP3    H213108   2.920   5.111   0.271
 4382TIP3   OH213109   0.781   1.514   1.284
 4382TIP3    H113110   0.689   1.504   1.261
 4382TIP3    H213111   0.801   1.436   1.337
 4383TIP3   OH213112   5.576   6.803   4.878
 4383TIP3    H113113   5.589   6.887   4.921
 4383TIP3    H213114   5.509   6.759   4.931
 4384TIP3   OH213115   0.418   3.385   4.053
 4384TIP3    H113116   0.480   3.333   4.103
 4384TIP3    H213117   0.354   3.414   4.118
 4385TIP3   OH213118   6.557   4.022   1.310
 4385TIP3    H113119   6.577   3.929   1.316
 4385TIP3    H213120   6.563   4.042   1.216
 4386TIP3   OH213121   3.638   5.775   0.823
 4386TIP3    H113122   3.635   5.683   0.797
 4386TIP3    H213123   3.557   5.813   0.788
 4387TIP3   OH213124   7.097   5.722   4.330
 4387TIP3    H113125   7.117   5.660   4.260
 4387TIP3    H213126   7.013   5.760   4.304
 4388TIP3   OH213127   7.248   4.167   2.576
 4388TIP3    H113128   7.204   4.157   2.661
 4388TIP3    H213129   7.205   4.105   2.519
 4389TIP3   OH213130   6.528   1.564  -0.056
 4389TIP3    H113131   6.469   1.581   0.017
 4389TIP3    H213132   6.613   1.548  -0.015
 4390TIP3   OH213133   3.281   6.353   2.043
 4390TIP3    H113134   3.367   6.386   2.069
 4390TIP3    H213135   3.274   6.268   2.086
 4391TIP3   OH213136   1.002   2.258   2.152
 4391TIP3    H113137   0.971   2.303   2.231
 4391TIP3    H213138   0.926   2.256   2.095
 4392TIP3   OH213139   3.709   1.939   2.119
 4392TIP3    H113140   3.714   1.887   2.039
 4392TIP3    H213141   3.793   1.926   2.162
 4393TIP3   OH213142   4.126   5.351   0.484
 4393TIP3    H113143   4.167   5.423   0.530
 4393TIP3    H213144   4.185   5.332   0.411
 4394TIP3   OH213145   3.305   1.088   4.044
 4394TIP3    H113146   3.210   1.090   4.032
 4394TIP3    H213147   3.332   1.004   4.007
 4395TIP3   OH213148   6.455   0.554   1.614
 4395TIP3    H113149   6.461   0.484   1.678
 4395TIP3    H213150   6.398   0.619   1.654
 4396TIP3   OH213151   5.375   6.539   1.209
 4396TIP3    H113152   5.313   6.503   1.145
 4396TIP3    H213153   5.459   6.502   1.183
 4397TIP3   OH213154   2.829   1.261   4.594
 4397TIP3    H113155   2.800   1.351   4.608
 4397TIP3    H213156   2.920   1.270   4.563
 4398TIP3   OH213157   1.112   3.020   0.801
 4398TIP3    H113158   1.154   2.990   0.721
 4398TIP3    H213159   1.054   2.947   0.827
 4399TIP3   OH213160   1.259   2.694   0.312
 4399TIP3    H113161   1.352   2.671   0.304
 4399TIP3    H213162   1.218   2.613   0.343
 4400TIP3   OH213163   3.177   4.008   4.600
 4400TIP3    H113164   3.202   4.073   4.534
 4400TIP3    H213165   3.211   4.042   4.682
 4401TIP3   OH213166   2.709   1.389   1.601
 4401TIP3    H113167   2.635   1.343   1.642
 4401TIP3    H213168   2.705   1.364   1.509
 4402TIP3   OH213169   2.264   6.547   4.863
 4402TIP3    H113170   2.319   6.469   4.852
 4402TIP3    H213171   2.221   6.558   4.778
 4403TIP3   OH213172   0.619   2.006   0.506
 4403TIP3    H113173   0.656   2.071   0.447
 4403TIP3    H213174   0.620   1.925   0.456
 4404TIP3   OH213175   5.812   6.047   4.406
 4404TIP3    H113176   5.845   6.112   4.343
 4404TIP3    H213177   5.827   6.087   4.492
 4405TIP3   OH213178   0.911   5.555   4.575
 4405TIP3    H113179   0.909   5.558   4.479
 4405TIP3    H213180   0.820   5.541   4.600
 4406TIP3   OH213181   4.306   6.298   2.678
 4406TIP3    H113182   4.398   6.271   2.676
 4406TIP3    H213183   4.288   6.318   2.770
 4407TIP3   OH213184   5.494   5.126   0.957
 4407TIP3    H113185   5.403   5.129   0.925
 4407TIP3    H213186   5.540   5.072   0.893
 4408TIP3   OH213187   0.798   3.727   2.731
 4408TIP3    H113188   0.705   3.741   2.742
 4408TIP3    H213189   0.834   3.815   2.717
 4409TIP3   OH213190   4.599   5.955   3.802
 4409TIP3    H113191   4.554   6.010   3.865
 4409TIP3    H213192   4.532   5.895   3.770
 4410TIP3   OH213193   1.349   0.180   3.291
 4410TIP3    H113194   1.438   0.149   3.278
 4410TIP3    H213195   1.300   0.103   3.319
 4411TIP3   OH213196   3.498   6.786   1.617
 4411TIP3    H113197   3.426   6.791   1.555
 4411TIP3    H213198   3.493   6.696   1.652
 4412TIP3   OH213199   2.778   1.623   0.961
 4412TIP3    H113200   2.785   1.544   1.014
 4412TIP3    H213201   2.858   1.625   0.909
 4413TIP3   OH213202   4.452   5.710   2.167
 4413TIP3    H113203   4.459   5.617   2.144
 4413TIP3    H213204   4.480   5.757   2.089
 4414TIP3   OH213205   1.287   3.103   2.456
 4414TIP3    H113206   1.348   3.035   2.427
 4414TIP3    H213207   1.234   3.123   2.379
 4415TIP3   OH213208   1.724   3.722   2.673
 4415TIP3    H113209   1.702   3.815   2.680
 4415TIP3    H213210   1.690   3.696   2.587
 4416TIP3   OH213211   4.946   1.184   4.380
 4416TIP3    H113212   4.870   1.136   4.413
 4416TIP3    H213213   5.019   1.154   4.435
 4417TIP3   OH213214   6.078   4.430   0.072
 4417TIP3    H113215   6.107   4.456   0.160
 4417TIP3    H213216   6.114   4.497   0.014
 4418TIP3   OH213217   6.091   2.052   2.784
 4418TIP3    H113218   6.172   2.081   2.826
 4418TIP3    H213219   6.114   1.972   2.738
 4419TIP3   OH213220   6.377   0.203   5.763
 4419TIP3    H113221   6.293   0.218   5.808
 4419TIP3    H213222   6.424   0.143   5.820
 4420TIP3   OH213223   0.383   1.299   0.505
 4420TIP3    H113224   0.369   1.282   0.412
 4420TIP3    H213225   0.413   1.390   0.509
 4421TIP3   OH213226   6.607   3.490   1.047
 4421TIP3    H113227   6.631   3.407   1.088
 4421TIP3    H213228   6.512   3.491   1.047
 4422TIP3   OH213229   2.961   3.983   0.493
 4422TIP3    H113230   2.876   3.966   0.535
 4422TIP3    H213231   2.941   4.046   0.424
 4423TIP3   OH213232   4.921   1.844   3.541
 4423TIP3    H113233   4.883   1.907   3.603
 4423TIP3    H213234   4.864   1.848   3.464
 4424TIP3   OH213235   6.478   1.091   4.630
 4424TIP3    H113236   6.460   1.034   4.705
 4424TIP3    H213237   6.569   1.118   4.642
 4425TIP3   OH213238   6.397   5.936   3.034
 4425TIP3    H113239   6.469   5.914   3.092
 4425TIP3    H213240   6.333   5.980   3.090
 4426TIP3   OH213241   1.559   4.972   0.076
 4426TIP3    H113242   1.574   5.055   0.120
 4426TIP3    H213243   1.635   4.962   0.017
 4427TIP3   OH213244   1.052   2.474   0.513
 4427TIP3    H113245   1.147   2.474   0.525
 4427TIP3    H213246   1.019   2.529   0.585
 4428TIP3   OH213247   2.836   0.318   0.657
 4428TIP3    H113248   2.839   0.324   0.753
 4428TIP3    H213249   2.851   0.407   0.626
 4429TIP3   OH213250   5.127   2.125   5.876
 4429TIP3    H113251   5.039   2.127   5.914
 4429TIP3    H213252   5.114   2.093   5.787
 4430TIP3   OH213253   1.505   6.322   1.610
 4430TIP3    H113254   1.552   6.369   1.540
 4430TIP3    H213255   1.413   6.349   1.599
 4431TIP3   OH213256   1.574   3.268   1.574
 4431TIP3    H113257   1.509   3.211   1.533
 4431TIP3    H213258   1.619   3.310   1.500
 4432TIP3   OH213259   2.890   0.984   4.168
 4432TIP3    H113260   2.950   0.931   4.221
 4432TIP3    H213261   2.840   1.035   4.232
 4433TIP3   OH213262   6.983   4.942   2.127
 4433TIP3    H113263   6.932   4.907   2.200
 4433TIP3    H213264   6.966   5.036   2.130
 4434TIP3   OH213265   2.968   0.028   4.434
 4434TIP3    H113266   2.935   0.067   4.516
 4434TIP3    H213267   3.051   0.073   4.418
 4435TIP3   OH213268   0.126   6.478   3.690
 4435TIP3    H113269   0.209   6.456   3.731
 4435TIP3    H213270   0.064   6.415   3.726
 4436TIP3   OH213271   1.160   4.223   4.088
 4436TIP3    H113272   1.231   4.168   4.053
 4436TIP3    H213273   1.098   4.230   4.016
 4437TIP3   OH213274   1.825   2.136   3.595
 4437TIP3    H113275   1.851   2.058   3.546
 4437TIP3    H213276   1.904   2.163   3.641
 4438TIP3   OH213277   2.183   6.047   5.575
 4438TIP3    H113278   2.104   6.091   5.545
 4438TIP3    H213279   2.157   6.003   5.656
 4439TIP3   OH213280   3.950   4.013   4.459
 4439TIP3    H113281   3.955   3.968   4.375
 4439TIP3    H213282   4.038   4.004   4.496
 4440TIP3   OH213283   5.144   5.944   1.498
 4440TIP3    H113284   5.062   5.909   1.534
 4440TIP3    H213285   5.170   6.012   1.559
 4441TIP3   OH213286   5.615   5.919   5.720
 4441TIP3    H113287   5.572   6.004   5.715
 4441TIP3    H213288   5.548   5.857   5.693
 4442TIP3   OH213289   6.717   5.892   2.716
 4442TIP3    H113290   6.723   5.829   2.787
 4442TIP3    H213291   6.784   5.957   2.735
 4443TIP3   OH213292   0.969   6.108   0.375
 4443TIP3    H113293   0.960   6.185   0.431
 4443TIP3    H213294   0.884   6.100   0.332
 4444TIP3   OH213295   2.942   2.285   1.295
 4444TIP3    H113296   2.893   2.276   1.213
 4444TIP3    H213297   3.009   2.351   1.276
 4445TIP3   OH213298   0.722   4.198   4.777
 4445TIP3    H113299   0.788   4.260   4.804
 4445TIP3    H213300   0.639   4.244   4.789
 4446TIP3   OH213301   5.821   1.049   5.233
 4446TIP3    H113302   5.773   0.976   5.194
 4446TIP3    H213303   5.904   1.010   5.260
 4447TIP3   OH213304   2.678   2.418   4.908
 4447TIP3    H113305   2.628   2.378   4.979
 4447TIP3    H213306   2.769   2.415   4.938
 4448TIP3   OH213307   5.056   6.265   0.258
 4448TIP3    H113308   5.140   6.312   0.259
 4448TIP3    H213309   5.018   6.281   0.345
 4449TIP3   OH213310   0.532   3.278   4.491
 4449TIP3    H113311   0.514   3.329   4.570
 4449TIP3    H213312   0.468   3.309   4.427
 4450TIP3   OH213313   1.966   2.438   3.392
 4450TIP3    H113314   1.934   2.499   3.326
 4450TIP3    H213315   1.907   2.363   3.386
 4451TIP3   OH213316   5.353   0.428   0.890
 4451TIP3    H113317   5.373   0.413   0.798
 4451TIP3    H213318   5.436   0.412   0.935
 4452TIP3   OH213319   7.188   0.886   5.289
 4452TIP3    H113320   7.190   0.802   5.335
 4452TIP3    H213321   7.100   0.920   5.304
 4453TIP3   OH213322   4.598   2.413   0.372
 4453TIP3    H113323   4.650   2.467   0.313
 4453TIP3    H213324   4.591   2.464   0.452
 4454TIP3   OH213325   4.188   4.901   1.645
 4454TIP3    H113326   4.243   4.954   1.588
 4454TIP3    H213327   4.249   4.856   1.703
 4455TIP3   OH213328   1.457   5.331   1.038
 4455TIP3    H113329   1.440   5.247   1.080
 4455TIP3    H213330   1.406   5.394   1.090
 4456TIP3   OH213331   2.183   6.064   5.914
 4456TIP3    H113332   2.111   6.115   5.952
 4456TIP3    H213333   2.236   6.128   5.868
 4457TIP3   OH213334   0.833   0.578   2.645
 4457TIP3    H113335   0.790   0.660   2.666
 4457TIP3    H213336   0.835   0.576   2.549
 4458TIP3   OH213337   4.719   1.538   3.354
 4458TIP3    H113338   4.641   1.491   3.384
 4458TIP3    H213339   4.783   1.468   3.338
 4459TIP3   OH213340   5.713   0.505   4.162
 4459TIP3    H113341   5.722   0.569   4.232
 4459TIP3    H213342   5.712   0.557   4.082
 4460TIP3   OH213343   3.168   2.884   2.672
 4460TIP3    H113344   3.153   2.849   2.760
 4460TIP3    H213345   3.244   2.942   2.682
 4461TIP3   OH213346   0.400   1.127   0.200
 4461TIP3    H113347   0.446   1.204   0.167
 4461TIP3    H213348   0.310   1.157   0.211
 4462TIP3   OH213349   6.689   3.369   2.412
 4462TIP3    H113350   6.619   3.391   2.474
 4462TIP3    H213351   6.647   3.373   2.327
 4463TIP3   OH213352   1.361   4.490   2.660
 4463TIP3    H113353   1.311   4.559   2.703
 4463TIP3    H213354   1.389   4.530   2.577
 4464TIP3   OH213355   5.329   0.336   5.095
 4464TIP3    H113356   5.256   0.311   5.037
 4464TIP3    H213357   5.407   0.301   5.052
 4465TIP3   OH213358   4.688   1.798   5.137
 4465TIP3    H113359   4.697   1.779   5.231
 4465TIP3    H213360   4.690   1.893   5.132
 4466TIP3   OH213361   4.088   6.144   5.619
 4466TIP3    H113362   4.077   6.076   5.553
 4466TIP3    H213363   4.183   6.153   5.628
 4467TIP3   OH213364   2.436   1.769   4.721
 4467TIP3    H113365   2.471   1.684   4.694
 4467TIP3    H213366   2.514   1.818   4.750
 4468TIP3   OH213367   5.821   6.268   5.087
 4468TIP3    H113368   5.829   6.172   5.083
 4468TIP3    H213369   5.755   6.289   5.020
 4469TIP3   OH213370   5.842   0.944   1.685
 4469TIP3    H113371   5.749   0.931   1.670
 4469TIP3    H213372   5.864   1.021   1.632
 4470TIP3   OH213373   1.908   6.567   1.002
 4470TIP3    H113374   1.865   6.621   1.068
 4470TIP3    H213375   2.001   6.582   1.016
 4471TIP3   OH213376   2.548   5.639   4.575
 4471TIP3    H113377   2.627   5.644   4.629
 4471TIP3    H213378   2.578   5.661   4.487
 4472TIP3   OH213379   0.689   0.579   3.403
 4472TIP3    H113380   0.652   0.535   3.326
 4472TIP3    H213381   0.767   0.528   3.424
 4473TIP3   OH213382   5.516   6.518   0.979
 4473TIP3    H113383   5.433   6.556   0.950
 4473TIP3    H213384   5.527   6.441   0.924
 4474TIP3   OH213385   0.924   6.565   3.042
 4474TIP3    H113386   1.002   6.601   3.085
 4474TIP3    H213387   0.893   6.636   2.987
 4475TIP3   OH213388   7.099   6.216   5.209
 4475TIP3    H113389   7.079   6.231   5.301
 4475TIP3    H213390   7.085   6.301   5.167
 4476TIP3   OH213391   6.908   3.495   2.253
 4476TIP3    H113392   6.914   3.443   2.173
 4476TIP3    H213393   6.831   3.460   2.299
 4477TIP3   OH213394   3.963   6.443   3.158
 4477TIP3    H113395   3.877   6.401   3.155
 4477TIP3    H213396   3.945   6.537   3.153
 4478TIP3   OH213397   5.177   5.225   0.057
 4478TIP3    H113398   5.099   5.266   0.095
 4478TIP3    H213399   5.184   5.263  -0.030
 4479TIP3   OH213400   2.936   3.627   4.828
 4479TIP3    H113401   2.936   3.722   4.816
 4479TIP3    H213402   2.993   3.613   4.903
 4480TIP3   OH213403   5.371   3.559   2.415
 4480TIP3    H113404   5.420   3.523   2.342
 4480TIP3    H213405   5.391   3.653   2.414
 4481TIP3   OH213406   2.894   6.659   0.266
 4481TIP3    H113407   2.861   6.660   0.176
 4481TIP3    H213408   2.817   6.643   0.320
 4482TIP3   OH213409   4.918   0.078   3.521
 4482TIP3    H113410   4.982   0.083   3.593
 4482TIP3    H213411   4.968   0.102   3.443
 4483TIP3   OH213412   2.729   1.058   2.367
 4483TIP3    H113413   2.649   1.013   2.396
 4483TIP3    H213414   2.761   1.005   2.294
 4484TIP3   OH213415   3.923   0.751   0.391
 4484TIP3    H113416   3.941   0.807   0.466
 4484TIP3    H213417   3.827   0.742   0.390
 4485TIP3   OH213418   5.844   6.006   5.084
 4485TIP3    H113419   5.903   5.972   5.017
 4485TIP3    H213420   5.782   5.935   5.100
 4486TIP3   OH213421   1.201   5.105   0.410
 4486TIP3    H113422   1.133   5.096   0.342
 4486TIP3    H213423   1.261   5.032   0.393
 4487TIP3   OH213424   6.936   4.039   4.634
 4487TIP3    H113425   7.018   3.997   4.608
 4487TIP3    H213426   6.961   4.100   4.704
 4488TIP3   OH213427   2.355   4.135   1.260
 4488TIP3    H113428   2.300   4.064   1.227
 4488TIP3    H213429   2.443   4.115   1.228
 4489TIP3   OH213430   4.265   1.675   1.941
 4489TIP3    H113431   4.210   1.657   1.865
 4489TIP3    H213432   4.265   1.770   1.949
 4490TIP3   OH213433   6.719   2.685   3.233
 4490TIP3    H113434   6.652   2.750   3.255
 4490TIP3    H213435   6.762   2.719   3.155
 4491TIP3   OH213436   2.827   4.950   0.296
 4491TIP3    H113437   2.834   4.854   0.301
 4491TIP3    H213438   2.761   4.966   0.230
 4492TIP3   OH213439   5.556   1.067   2.300
 4492TIP3    H113440   5.618   0.998   2.323
 4492TIP3    H213441   5.490   1.064   2.370
 4493TIP3   OH213442   2.489   1.717   1.386
 4493TIP3    H113443   2.446   1.639   1.350
 4493TIP3    H213444   2.552   1.681   1.449
 4494TIP3   OH213445   5.528   6.750   0.065
 4494TIP3    H113446   5.594   6.721   0.128
 4494TIP3    H213447   5.504   6.838   0.094
 4495TIP3   OH213448   3.400   0.151   4.260
 4495TIP3    H113449   3.328   0.167   4.200
 4495TIP3    H213450   3.361   0.104   4.333
 4496TIP3   OH213451   1.456   5.186   2.779
 4496TIP3    H113452   1.468   5.232   2.696
 4496TIP3    H213453   1.545   5.167   2.808
 4497TIP3   OH213454   4.089   4.728   3.112
 4497TIP3    H113455   4.172   4.687   3.088
 4497TIP3    H213456   4.022   4.664   3.087
 4498TIP3   OH213457   4.029   4.315   0.590
 4498TIP3    H113458   3.941   4.320   0.627
 4498TIP3    H213459   4.084   4.289   0.665
 4499TIP3   OH213460   5.699   6.625   0.271
 4499TIP3    H113461   5.723   6.718   0.277
 4499TIP3    H213462   5.682   6.599   0.361
 4500TIP3   OH213463   7.146   6.735   1.797
 4500TIP3    H113464   7.194   6.774   1.724
 4500TIP3    H213465   7.070   6.694   1.757
 4501TIP3   OH213466   5.589   0.390   3.854
 4501TIP3    H113467   5.578   0.437   3.937
 4501TIP3    H213468   5.607   0.459   3.790
 4502TIP3   OH213469   5.420   5.223   0.175
 4502TIP3    H113470   5.332   5.193   0.156
 4502TIP3    H213471   5.424   5.312   0.138
 4503TIP3   OH213472   3.933   6.164   2.828
 4503TIP3    H113473   3.966   6.155   2.917
 4503TIP3    H213474   3.904   6.255   2.822
 4504TIP3   OH213475   3.297   2.805   4.124
 4504TIP3    H113476   3.307   2.731   4.184
 4504TIP3    H213477   3.282   2.881   4.182
 4505TIP3   OH213478   7.045   2.620   5.649
 4505TIP3    H113479   6.991   2.547   5.620
 4505TIP3    H213480   6.999   2.655   5.725
 4506TIP3   OH213481   5.743   4.276   2.111
 4506TIP3    H113482   5.808   4.339   2.078
 4506TIP3    H213483   5.795   4.213   2.161
 4507TIP3   OH213484   7.109   4.615   2.957
 4507TIP3    H113485   7.038   4.678   2.939
 4507TIP3    H213486   7.093   4.544   2.895
 4508TIP3   OH213487   3.249   2.749   5.564
 4508TIP3    H113488   3.304   2.673   5.547
 4508TIP3    H213489   3.160   2.718   5.548
 4509TIP3   OH213490   2.510   0.375   0.488
 4509TIP3    H113491   2.429   0.421   0.509
 4509TIP3    H213492   2.499   0.346   0.398
 4510TIP3   OH213493   4.687   2.239   2.114
 4510TIP3    H113494   4.722   2.325   2.137
 4510TIP3    H213495   4.661   2.247   2.022
 4511TIP3   OH213496   2.371   5.692   1.112
 4511TIP3    H113497   2.425   5.655   1.042
 4511TIP3    H213498   2.434   5.719   1.179
 4512TIP3   OH213499   3.736   6.374   5.291
 4512TIP3    H113500   3.716   6.289   5.251
 4512TIP3    H213501   3.651   6.407   5.320
 4513TIP3   OH213502   5.145   1.617   5.748
 4513TIP3    H113503   5.145   1.680   5.677
 4513TIP3    H213504   5.217   1.558   5.728
 4514TIP3   OH213505   3.959   1.271   4.203
 4514TIP3    H113506   3.991   1.223   4.279
 4514TIP3    H213507   4.011   1.351   4.202
 4515TIP3   OH213508   0.762   1.529   0.277
 4515TIP3    H113509   0.837   1.517   0.220
 4515TIP3    H213510   0.754   1.446   0.324
 4516TIP3   OH213511   5.709   2.360   0.833
 4516TIP3    H113512   5.631   2.317   0.869
 4516TIP3    H213513   5.692   2.454   0.844
 4517TIP3   OH213514   2.815   3.648   3.295
 4517TIP3    H113515   2.720   3.665   3.295
 4517TIP3    H213516   2.845   3.677   3.210
 4518TIP3   OH213517   6.446   0.080   0.392
 4518TIP3    H113518   6.495   0.055   0.313
 4518TIP3    H213519   6.361   0.036   0.382
 4519TIP3   OH213520   4.444   3.317   3.994
 4519TIP3    H113521   4.410   3.245   3.941
 4519TIP3    H213522   4.395   3.394   3.964
 4520TIP3   OH213523   4.327   2.893   5.554
 4520TIP3    H113524   4.410   2.930   5.583
 4520TIP3    H213525   4.304   2.829   5.621
 4521TIP3   OH213526   2.965   2.145   2.413
 4521TIP3    H113527   2.987   2.092   2.489
 4521TIP3    H213528   3.029   2.216   2.414
 4522TIP3   OH213529   0.743   4.717   1.455
 4522TIP3    H113530   0.817   4.777   1.448
 4522TIP3    H213531   0.777   4.643   1.506
 4523TIP3   OH213532   4.171   3.766   1.688
 4523TIP3    H113533   4.192   3.838   1.748
 4523TIP3    H213534   4.079   3.778   1.667
 4524TIP3   OH213535   4.092   1.269   5.043
 4524TIP3    H113536   4.053   1.214   4.975
 4524TIP3    H213537   4.185   1.270   5.023
 4525TIP3   OH213538   3.789   3.838   3.907
 4525TIP3    H113539   3.816   3.904   3.843
 4525TIP3    H213540   3.788   3.756   3.859
 4526TIP3   OH213541   4.033   4.937   1.410
 4526TIP3    H113542   4.106   4.906   1.356
 4526TIP3    H213543   4.048   4.898   1.496
 4527TIP3   OH213544   1.584   3.690   2.027
 4527TIP3    H113545   1.494   3.709   1.999
 4527TIP3    H213546   1.575   3.613   2.084
 4528TIP3   OH213547   3.974   6.050   5.372
 4528TIP3    H113548   3.887   6.067   5.407
 4528TIP3    H213549   3.958   6.018   5.283
 4529TIP3   OH213550   1.747   4.795   5.356
 4529TIP3    H113551   1.716   4.790   5.447
 4529TIP3    H213552   1.740   4.888   5.334
 4530TIP3   OH213553   1.079   0.534   0.352
 4530TIP3    H113554   1.136   0.563   0.423
 4530TIP3    H213555   1.136   0.479   0.297
 4531TIP3   OH213556   1.826   3.485   0.737
 4531TIP3    H113557   1.832   3.579   0.752
 4531TIP3    H213558   1.898   3.448   0.788
 4532TIP3   OH213559   0.599   3.568   2.250
 4532TIP3    H113560   0.563   3.653   2.223
 4532TIP3    H213561   0.690   3.587   2.273
 4533TIP3   OH213562   6.142   4.445   4.193
 4533TIP3    H113563   6.215   4.409   4.142
 4533TIP3    H213564   6.096   4.368   4.225
 4534TIP3   OH213565   5.780   3.599   0.284
 4534TIP3    H113566   5.805   3.690   0.298
 4534TIP3    H213567   5.860   3.556   0.256
 4535TIP3   OH213568   2.533   4.256   3.191
 4535TIP3    H113569   2.502   4.346   3.182
 4535TIP3    H213570   2.620   4.263   3.231
 4536TIP3   OH213571   2.549   4.459   1.881
 4536TIP3    H113572   2.581   4.374   1.912
 4536TIP3    H213573   2.627   4.503   1.847
 4537TIP3   OH213574   5.976   5.830   3.995
 4537TIP3    H113575   6.032   5.757   3.969
 4537TIP3    H213576   5.899   5.789   4.034
 4538TIP3   OH213577   0.932   0.127   2.688
 4538TIP3    H113578   0.862   0.064   2.676
 4538TIP3    H213579   0.983   0.094   2.761
 4539TIP3   OH213580   1.294   6.774   5.203
 4539TIP3    H113581   1.274   6.832   5.277
 4539TIP3    H213582   1.389   6.763   5.206
 4540TIP3   OH213583   4.588   4.344   0.742
 4540TIP3    H113584   4.563   4.430   0.775
 4540TIP3    H213585   4.566   4.284   0.814
 4541TIP3   OH213586   4.325   3.837   0.601
 4541TIP3    H113587   4.278   3.900   0.657
 4541TIP3    H213588   4.364   3.891   0.532
 4542TIP3   OH213589   5.394   4.813   0.098
 4542TIP3    H113590   5.431   4.833   0.012
 4542TIP3    H213591   5.304   4.845   0.094
 4543TIP3   OH213592   6.362   0.280   5.480
 4543TIP3    H113593   6.394   0.240   5.399
 4543TIP3    H213594   6.274   0.244   5.491
 4544TIP3   OH213595   4.435   3.087   2.942
 4544TIP3    H113596   4.398   3.147   2.877
 4544TIP3    H213597   4.360   3.048   2.985
 4545TIP3   OH213598   2.713   3.352   5.772
 4545TIP3    H113599   2.800   3.313   5.760
 4545TIP3    H213600   2.656   3.277   5.789
 4546TIP3   OH213601   1.080   2.141   5.646
 4546TIP3    H113602   1.022   2.095   5.585
 4546TIP3    H213603   1.156   2.166   5.593
 4547TIP3   OH213604   1.139   3.430   1.557
 4547TIP3    H113605   1.110   3.495   1.493
 4547TIP3    H213606   1.216   3.469   1.597
 4548TIP3   OH213607   0.426   4.525   1.762
 4548TIP3    H113608   0.452   4.576   1.685
 4548TIP3    H213609   0.363   4.461   1.729
 4549TIP3   OH213610   6.279   0.573   5.215
 4549TIP3    H113611   6.258   0.530   5.132
 4549TIP3    H213612   6.375   0.575   5.217
 4550TIP3   OH213613   6.104   0.234   0.687
 4550TIP3    H113614   6.014   0.246   0.656
 4550TIP3    H213615   6.158   0.253   0.610
 4551TIP3   OH213616   4.872   6.721   0.079
 4551TIP3    H113617   4.850   6.790   0.016
 4551TIP3    H213618   4.890   6.644   0.025
 4552TIP3   OH213619   0.909   2.383   1.405
 4552TIP3    H113620   0.997   2.356   1.431
 4552TIP3    H213621   0.855   2.304   1.418
 4553TIP3   OH213622   1.978   5.327   3.194
 4553TIP3    H113623   1.978   5.415   3.155
 4553TIP3    H213624   2.023   5.337   3.277
 4554TIP3   OH213625   5.162   4.678   2.528
 4554TIP3    H113626   5.221   4.751   2.507
 4554TIP3    H213627   5.122   4.702   2.611
 4555TIP3   OH213628   7.127   6.613   3.919
 4555TIP3    H113629   7.056   6.654   3.869
 4555TIP3    H213630   7.164   6.548   3.859
 4556TIP3   OH213631   7.121   3.114   5.330
 4556TIP3    H113632   7.130   3.156   5.244
 4556TIP3    H213633   7.113   3.187   5.391
 4557TIP3   OH213634   6.137   6.765   1.130
 4557TIP3    H113635   6.096   6.682   1.154
 4557TIP3    H213636   6.064   6.824   1.111
 4558TIP3   OH213637   0.727   5.602   0.705
 4558TIP3    H113638   0.633   5.591   0.714
 4558TIP3    H213639   0.753   5.538   0.639
 4559TIP3   OH213640   2.496   6.572   5.968
 4559TIP3    H113641   2.532   6.516   5.898
 4559TIP3    H213642   2.409   6.536   5.985
 4560TIP3   OH213643   0.599   1.189   4.424
 4560TIP3    H113644   0.607   1.107   4.472
 4560TIP3    H213645   0.626   1.168   4.335
 4561TIP3   OH213646   6.806   2.998   2.635
 4561TIP3    H113647   6.739   2.994   2.567
 4561TIP3    H213648   6.776   2.936   2.702
 4562TIP3   OH213649   6.807   1.723   4.711
 4562TIP3    H113650   6.885   1.730   4.655
 4562TIP3    H213651   6.841   1.690   4.794
 4563TIP3   OH213652   2.766   3.370   4.431
 4563TIP3    H113653   2.832   3.422   4.476
 4563TIP3    H213654   2.729   3.313   4.499
 4564TIP3   OH213655   6.601   2.002   5.172
 4564TIP3    H113656   6.673   2.024   5.113
 4564TIP3    H213657   6.531   1.971   5.114
 4565TIP3   OH213658   5.045   1.643   0.508
 4565TIP3    H113659   4.961   1.641   0.553
 4565TIP3    H213660   5.095   1.571   0.546
 4566TIP3   OH213661   1.939   5.538   0.849
 4566TIP3    H113662   1.946   5.634   0.853
 4566TIP3    H213663   1.874   5.517   0.916
 4567TIP3   OH213664   7.205   4.265   5.174
 4567TIP3    H113665   7.191   4.359   5.177
 4567TIP3    H213666   7.122   4.229   5.141
 4568TIP3   OH213667   6.347   3.069   2.513
 4568TIP3    H113668   6.437   3.069   2.479
 4568TIP3    H213669   6.309   2.987   2.479
 4569TIP3   OH213670   2.262   5.838   2.827
 4569TIP3    H113671   2.275   5.760   2.881
 4569TIP3    H213672   2.341   5.843   2.773
 4570TIP3   OH213673   1.611   3.570   5.217
 4570TIP3    H113674   1.673   3.554   5.147
 4570TIP3    H213675   1.530   3.594   5.173
 4571TIP3   OH213676   6.856   4.154   1.385
 4571TIP3    H113677   6.838   4.238   1.343
 4571TIP3    H213678   6.770   4.120   1.408
 4572TIP3   OH213679   4.638   6.161   1.541
 4572TIP3    H113680   4.646   6.143   1.447
 4572TIP3    H213681   4.566   6.224   1.547
 4573TIP3   OH213682   6.488   1.346   5.471
 4573TIP3    H113683   6.482   1.407   5.398
 4573TIP3    H213684   6.581   1.331   5.482
 4574TIP3   OH213685   6.468   5.381   4.214
 4574TIP3    H113686   6.446   5.359   4.304
 4574TIP3    H213687   6.511   5.302   4.180
 4575TIP3   OH213688   5.834   3.580   2.262
 4575TIP3    H113689   5.826   3.675   2.255
 4575TIP3    H213690   5.916   3.566   2.310
 4576TIP3   OH213691   1.800   5.283   0.095
 4576TIP3    H113692   1.877   5.260   0.148
 4576TIP3    H213693   1.822   5.256   0.006
 4577TIP3   OH213694   5.733   2.218   3.774
 4577TIP3    H113695   5.735   2.130   3.812
 4577TIP3    H213696   5.662   2.215   3.710
 4578TIP3   OH213697   0.726   3.453   5.083
 4578TIP3    H113698   0.776   3.446   5.002
 4578TIP3    H213699   0.791   3.450   5.152
 4579TIP3   OH213700   0.816   4.292   2.835
 4579TIP3    H113701   0.894   4.299   2.891
 4579TIP3    H213702   0.747   4.334   2.886
 4580TIP3   OH213703   3.240   6.337   3.241
 4580TIP3    H113704   3.323   6.289   3.250
 4580TIP3    H213705   3.249   6.412   3.300
 4581TIP3   OH213706   3.353   1.028   1.232
 4581TIP3    H113707   3.422   1.006   1.171
 4581TIP3    H213708   3.359   1.123   1.243
 4582TIP3   OH213709   1.029   2.481   5.719
 4582TIP3    H113710   0.973   2.440   5.653
 4582TIP3    H213711   1.117   2.451   5.698
 4583TIP3   OH213712   2.295   2.605   1.237
 4583TIP3    H113713   2.286   2.649   1.153
 4583TIP3    H213714   2.350   2.663   1.289
 4584TIP3   OH213715   0.370   6.513   0.964
 4584TIP3    H113716   0.433   6.505   1.036
 4584TIP3    H213717   0.390   6.598   0.925
 4585TIP3   OH213718   2.556   1.228   1.795
 4585TIP3    H113719   2.574   1.178   1.875
 4585TIP3    H213720   2.461   1.223   1.785
 4586TIP3   OH213721   5.141   1.807   2.724
 4586TIP3    H113722   5.101   1.857   2.653
 4586TIP3    H213723   5.082   1.819   2.798
 4587TIP3   OH213724   1.973   3.150   5.539
 4587TIP3    H113725   2.057   3.190   5.564
 4587TIP3    H213726   1.920   3.223   5.507
 4588TIP3   OH213727   4.757   3.631   3.762
 4588TIP3    H113728   4.839   3.660   3.801
 4588TIP3    H213729   4.782   3.562   3.701
 4589TIP3   OH213730   5.172   1.345   1.137
 4589TIP3    H113731   5.195   1.350   1.044
 4589TIP3    H213732   5.099   1.406   1.146
 4590TIP3   OH213733   5.036   4.431   1.035
 4590TIP3    H113734   5.108   4.372   1.060
 4590TIP3    H213735   4.989   4.383   0.966
 4591TIP3   OH213736   4.115   2.568   3.944
 4591TIP3    H113737   4.114   2.584   4.038
 4591TIP3    H213738   4.165   2.641   3.907
 4592TIP3   OH213739   6.733   0.384   1.279
 4592TIP3    H113740   6.730   0.301   1.230
 4592TIP3    H213741   6.709   0.359   1.368
 4593TIP3   OH213742   6.315   6.301   3.234
 4593TIP3    H113743   6.255   6.303   3.159
 4593TIP3    H213744   6.402   6.291   3.194
 4594TIP3   OH213745   6.301   0.971   3.965
 4594TIP3    H113746   6.315   0.962   4.060
 4594TIP3    H213747   6.321   1.062   3.946
 4595TIP3   OH213748   6.574   3.586   0.373
 4595TIP3    H113749   6.651   3.568   0.320
 4595TIP3    H213750   6.519   3.508   0.361
 4596TIP3   OH213751   5.087   2.501   2.609
 4596TIP3    H113752   5.050   2.571   2.663
 4596TIP3    H213753   5.063   2.421   2.656
 4597TIP3   OH213754   3.162   3.812   0.368
 4597TIP3    H113755   3.163   3.877   0.299
 4597TIP3    H213756   3.093   3.841   0.428
 4598TIP3   OH213757   2.855   1.434   0.739
 4598TIP3    H113758   2.851   1.468   0.649
 4598TIP3    H213759   2.947   1.412   0.751
 4599TIP3   OH213760   3.709   6.132   0.589
 4599TIP3    H113761   3.729   6.216   0.630
 4599TIP3    H213762   3.724   6.146   0.496
 4600TIP3   OH213763   3.667   6.636   3.670
 4600TIP3    H113764   3.742   6.677   3.627
 4600TIP3    H213765   3.610   6.709   3.694
 4601TIP3   OH213766   5.086   2.753   1.222
 4601TIP3    H113767   5.060   2.803   1.299
 4601TIP3    H213768   5.179   2.774   1.211
 4602TIP3   OH213769   4.225   4.265   2.323
 4602TIP3    H113770   4.249   4.192   2.265
 4602TIP3    H213771   4.186   4.330   2.265
 4603TIP3   OH213772   0.260   2.932   4.242
 4603TIP3    H113773   0.339   2.981   4.265
 4603TIP3    H213774   0.241   2.879   4.319
 4604TIP3   OH213775   7.152   3.917   4.566
 4604TIP3    H113776   7.236   3.963   4.556
 4604TIP3    H213777   7.164   3.835   4.518
 4605TIP3   OH213778   4.578   3.142   5.871
 4605TIP3    H113779   4.516   3.075   5.902
 4605TIP3    H213780   4.578   3.133   5.776
 4606TIP3   OH213781   0.953   3.174   5.251
 4606TIP3    H113782   1.042   3.161   5.218
 4606TIP3    H213783   0.897   3.128   5.189
 4607TIP3   OH213784   4.780   5.437   1.498
 4607TIP3    H113785   4.847   5.499   1.468
 4607TIP3    H213786   4.829   5.374   1.552
 4608TIP3   OH213787   3.279   1.624   3.000
 4608TIP3    H113788   3.311   1.594   2.915
 4608TIP3    H213789   3.352   1.672   3.038
 4609TIP3   OH213790   2.710   4.384   4.698
 4609TIP3    H113791   2.630   4.402   4.747
 4609TIP3    H213792   2.749   4.470   4.684
 4610TIP3   OH213793   4.847   4.590   5.287
 4610TIP3    H113794   4.825   4.599   5.380
 4610TIP3    H213795   4.938   4.562   5.286
 4611TIP3   OH213796   3.655   1.261   0.642
 4611TIP3    H113797   3.698   1.178   0.622
 4611TIP3    H213798   3.719   1.310   0.694
 4612TIP3   OH213799   6.284   4.081   4.545
 4612TIP3    H113800   6.206   4.132   4.564
 4612TIP3    H213801   6.346   4.105   4.613
 4613TIP3   OH213802   2.055   2.784   3.552
 4613TIP3    H113803   1.966   2.751   3.566
 4613TIP3    H213804   2.083   2.815   3.638
 4614TIP3   OH213805   3.628   4.985   2.745
 4614TIP3    H113806   3.669   4.949   2.667
 4614TIP3    H213807   3.538   4.952   2.742
 4615TIP3   OH213808   1.708   3.567   4.721
 4615TIP3    H113809   1.622   3.606   4.734
 4615TIP3    H213810   1.747   3.566   4.809
 4616TIP3   OH213811   5.884   3.047   4.007
 4616TIP3    H113812   5.816   2.992   4.045
 4616TIP3    H213813   5.908   3.001   3.926
 4617TIP3   OH213814   6.802   5.581   4.659
 4617TIP3    H113815   6.718   5.592   4.704
 4617TIP3    H213816   6.809   5.658   4.602
 4618TIP3   OH213817   0.390   4.925   1.582
 4618TIP3    H113818   0.403   4.976   1.502
 4618TIP3    H213819   0.295   4.915   1.588
 4619TIP3   OH213820   7.077   1.836   1.235
 4619TIP3    H113821   7.125   1.904   1.186
 4619TIP3    H213822   7.123   1.829   1.318
 4620TIP3   OH213823   6.541   3.133   0.893
 4620TIP3    H113824   6.532   3.080   0.814
 4620TIP3    H213825   6.460   3.119   0.941
 4621TIP3   OH213826   2.481   2.023   2.762
 4621TIP3    H113827   2.419   2.039   2.690
 4621TIP3    H213828   2.555   2.080   2.743
 4622TIP3   OH213829   3.631   6.145   2.101
 4622TIP3    H113830   3.593   6.220   2.146
 4622TIP3    H213831   3.724   6.147   2.126
 4623TIP3   OH213832   2.441   4.284   4.649
 4623TIP3    H113833   2.464   4.240   4.568
 4623TIP3    H213834   2.434   4.214   4.714
 4624TIP3   OH213835   6.254   3.988   1.751
 4624TIP3    H113836   6.208   4.057   1.800
 4624TIP3    H213837   6.201   3.910   1.763
 4625TIP3   OH213838   2.868   6.107   4.047
 4625TIP3    H113839   2.833   6.145   4.127
 4625TIP3    H213840   2.962   6.122   4.053
 4626TIP3   OH213841   1.558   5.397   4.562
 4626TIP3    H113842   1.560   5.442   4.647
 4626TIP3    H213843   1.635   5.430   4.515
 4627TIP3   OH213844   0.697   6.847   3.281
 4627TIP3    H113845   0.788   6.876   3.290
 4627TIP3    H213846   0.680   6.797   3.361
 4628TIP3   OH213847   4.687   2.753   3.587
 4628TIP3    H113848   4.621   2.684   3.579
 4628TIP3    H213849   4.675   2.787   3.676
 4629TIP3   OH213850   5.702   4.126   2.440
 4629TIP3    H113851   5.772   4.184   2.471
 4629TIP3    H213852   5.651   4.181   2.381
 4630TIP3   OH213853   0.368   6.140   5.532
 4630TIP3    H113854   0.368   6.151   5.436
 4630TIP3    H213855   0.430   6.205   5.563
 4631TIP3   OH213856   3.522   6.742   5.691
 4631TIP3    H113857   3.573   6.713   5.616
 4631TIP3    H213858   3.434   6.758   5.656
 4632TIP3   OH213859   3.159   0.904   3.107
 4632TIP3    H113860   3.188   0.878   3.195
 4632TIP3    H213861   3.235   0.890   3.051
 4633TIP3   OH213862   5.694   0.088   0.106
 4633TIP3    H113863   5.615   0.037   0.087
 4633TIP3    H213864   5.765   0.036   0.067
 4634TIP3   OH213865   1.963   0.854   5.728
 4634TIP3    H113866   1.930   0.781   5.676
 4634TIP3    H213867   2.054   0.864   5.700
 4635TIP3   OH213868   5.312   0.738   4.205
 4635TIP3    H113869   5.301   0.832   4.191
 4635TIP3    H213870   5.309   0.727   4.300
 4636TIP3   OH213871   1.753   4.174   2.477
 4636TIP3    H113872   1.840   4.155   2.443
 4636TIP3    H213873   1.743   4.114   2.552
 4637TIP3   OH213874   4.789   5.665   5.726
 4637TIP3    H113875   4.779   5.571   5.711
 4637TIP3    H213876   4.700   5.696   5.743
 4638TIP3   OH213877   5.832   6.572   0.843
 4638TIP3    H113878   5.818   6.477   0.841
 4638TIP3    H213879   5.927   6.582   0.836
 4639TIP3   OH213880   3.700   0.070   0.512
 4639TIP3    H113881   3.740   0.024   0.438
 4639TIP3    H213882   3.627   0.118   0.473
 4640TIP3   OH213883   4.726   5.845   5.314
 4640TIP3    H113884   4.669   5.852   5.390
 4640TIP3    H213885   4.714   5.754   5.283
 4641TIP3   OH213886   1.459   3.665   4.849
 4641TIP3    H113887   1.366   3.677   4.830
 4641TIP3    H213888   1.492   3.753   4.865
 4642TIP3   OH213889   6.069   0.146   0.960
 4642TIP3    H113890   6.067   0.165   0.867
 4642TIP3    H213891   6.157   0.112   0.976
 4643TIP3   OH213892   6.251   0.106   2.174
 4643TIP3    H113893   6.341   0.138   2.179
 4643TIP3    H213894   6.199   0.175   2.216
 4644TIP3   OH213895   3.787   1.391   1.398
 4644TIP3    H113896   3.745   1.424   1.318
 4644TIP3    H213897   3.769   1.458   1.464
 4645TIP3   OH213898   4.421   2.403   5.717
 4645TIP3    H113899   4.449   2.416   5.627
 4645TIP3    H213900   4.333   2.367   5.711
 4646TIP3   OH213901   5.791   2.418   4.918
 4646TIP3    H113902   5.881   2.432   4.947
 4646TIP3    H213903   5.790   2.329   4.883
 4647TIP3   OH213904   1.144   1.988   3.822
 4647TIP3    H113905   1.197   1.953   3.894
 4647TIP3    H213906   1.060   2.010   3.863
 4648TIP3   OH213907   6.875   2.224   3.583
 4648TIP3    H113908   6.864   2.258   3.672
 4648TIP3    H213909   6.964   2.249   3.558
 4649TIP3   OH213910   2.354   0.992   1.378
 4649TIP3    H113911   2.318   1.072   1.340
 4649TIP3    H213912   2.277   0.944   1.410
 4650TIP3   OH213913   2.039   4.125   3.769
 4650TIP3    H113914   2.090   4.167   3.838
 4650TIP3    H213915   2.004   4.198   3.717
 4651TIP3   OH213916   5.708   5.146   3.590
 4651TIP3    H113917   5.732   5.147   3.683
 4651TIP3    H213918   5.615   5.171   3.589
 4652TIP3   OH213919   4.455   1.470   4.586
 4652TIP3    H113920   4.381   1.411   4.592
 4652TIP3    H213921   4.527   1.423   4.630
 4653TIP3   OH213922   5.050   5.303   5.366
 4653TIP3    H113923   5.094   5.324   5.448
 4653TIP3    H213924   5.035   5.388   5.324
 4654TIP3   OH213925   1.332   2.285   4.842
 4654TIP3    H113926   1.392   2.308   4.771
 4654TIP3    H213927   1.255   2.340   4.827
 4655TIP3   OH213928   6.640   3.071   3.165
 4655TIP3    H113929   6.696   3.148   3.154
 4655TIP3    H213930   6.554   3.107   3.189
 4656TIP3   OH213931   3.130   5.423   5.209
 4656TIP3    H113932   3.045   5.460   5.232
 4656TIP3    H213933   3.114   5.375   5.127
 4657TIP3   OH213934   5.884   5.797   0.158
 4657TIP3    H113935   5.850   5.844   0.081
 4657TIP3    H213936   5.979   5.813   0.155
 4658TIP3   OH213937   3.155   3.998   0.854
 4658TIP3    H113938   3.249   4.019   0.854
 4658TIP3    H213939   3.114   4.071   0.809
 4659TIP3   OH213940   2.283   3.373   2.933
 4659TIP3    H113941   2.367   3.327   2.937
 4659TIP3    H213942   2.224   3.310   2.892
 4660TIP3   OH213943   5.139   3.877   0.999
 4660TIP3    H113944   5.056   3.857   0.956
 4660TIP3    H213945   5.199   3.893   0.927
 4661TIP3   OH213946   5.009   6.658   2.567
 4661TIP3    H113947   4.979   6.655   2.658
 4661TIP3    H213948   4.936   6.624   2.516
 4662TIP3   OH213949   4.719   4.184   4.394
 4662TIP3    H113950   4.804   4.140   4.407
 4662TIP3    H213951   4.742   4.272   4.366
 4663TIP3   OH213952   1.124   0.111   1.846
 4663TIP3    H113953   1.076   0.116   1.763
 4663TIP3    H213954   1.193   0.177   1.838
 4664TIP3   OH213955   4.964   6.316   2.723
 4664TIP3    H113956   5.017   6.294   2.646
 4664TIP3    H213957   4.926   6.233   2.751
 4665TIP3   OH213958   1.227   0.901   4.645
 4665TIP3    H113959   1.206   0.978   4.592
 4665TIP3    H213960   1.309   0.868   4.608
 4666TIP3   OH213961   6.459   0.884   3.350
 4666TIP3    H113962   6.378   0.838   3.329
 4666TIP3    H213963   6.521   0.814   3.371
 4667TIP3   OH213964   1.508   2.935   0.174
 4667TIP3    H113965   1.560   2.884   0.236
 4667TIP3    H213966   1.509   2.883   0.093
 4668TIP3   OH213967   0.949   4.465   0.806
 4668TIP3    H113968   0.897   4.408   0.863
 4668TIP3    H213969   0.978   4.536   0.863
 4669TIP3   OH213970   4.117   6.824   0.654
 4669TIP3    H113971   4.082   6.855   0.571
 4669TIP3    H213972   4.099   6.730   0.655
 4670TIP3   OH213973   3.601   6.050   1.464
 4670TIP3    H113974   3.564   6.138   1.462
 4670TIP3    H213975   3.527   5.993   1.486
 4671TIP3   OH213976   3.514   2.940   4.307
 4671TIP3    H113977   3.577   3.011   4.320
 4671TIP3    H213978   3.528   2.881   4.381
 4672TIP3   OH213979   0.085   0.167   3.033
 4672TIP3    H113980   0.065   0.246   2.983
 4672TIP3    H213981   0.000   0.129   3.054
 4673TIP3   OH213982   6.167   6.771   1.806
 4673TIP3    H113983   6.093   6.816   1.846
 4673TIP3    H213984   6.150   6.775   1.712
 4674TIP3   OH213985   1.103   0.059   0.984
 4674TIP3    H113986   1.095   0.029   0.893
 4674TIP3    H213987   1.020   0.036   1.025
 4675TIP3   OH213988   2.357   4.489   2.397
 4675TIP3    H113989   2.384   4.473   2.307
 4675TIP3    H213990   2.439   4.494   2.446
 4676TIP3   OH213991   1.941   6.012   0.659
 4676TIP3    H113992   1.888   5.974   0.588
 4676TIP3    H213993   2.021   5.960   0.658
 4677TIP3   OH213994   4.188   0.284   3.642
 4677TIP3    H113995   4.271   0.291   3.594
 4677TIP3    H213996   4.214   0.266   3.732
 4678TIP3   OH213997   6.577   6.238   3.219
 4678TIP3    H113998   6.635   6.311   3.238
 4678TIP3    H213999   6.631   6.177   3.168
 4679TIP3   OH214000   2.206   3.861   4.341
 4679TIP3    H114001   2.146   3.931   4.367
 4679TIP3    H214002   2.160   3.781   4.365
 4680TIP3   OH214003   2.302   6.441   4.312
 4680TIP3    H114004   2.376   6.381   4.312
 4680TIP3    H214005   2.314   6.493   4.233
 4681TIP3   OH214006   5.009  -0.035   1.623
 4681TIP3    H114007   5.095   0.009   1.620
 4681TIP3    H214008   4.995  -0.053   1.716
 4682TIP3   OH214009   5.666   2.820   2.202
 4682TIP3    H114010   5.739   2.874   2.174
 4682TIP3    H214011   5.619   2.874   2.267
 4683TIP3   OH214012   4.357   1.512   2.682
 4683TIP3    H114013   4.442   1.479   2.652
 4683TIP3    H214014   4.299   1.436   2.678
 4684TIP3   OH214015   4.608   2.609   0.554
 4684TIP3    H114016   4.669   2.655   0.612
 4684TIP3    H214017   4.544   2.676   0.529
 4685TIP3   OH214018   6.011   5.897   4.610
 4685TIP3    H114019   5.930   5.899   4.559
 4685TIP3    H214020   6.076   5.939   4.553
 4686TIP3   OH214021   5.077   0.554   4.671
 4686TIP3    H114022   5.120   0.502   4.603
 4686TIP3    H214023   5.001   0.502   4.696
 4687TIP3   OH214024   2.980   0.421   1.313
 4687TIP3    H114025   3.052   0.359   1.325
 4687TIP3    H214026   2.930   0.415   1.395
 4688TIP3   OH214027   2.278   0.378   0.704
 4688TIP3    H114028   2.257   0.334   0.786
 4688TIP3    H214029   2.367   0.348   0.683
 4689TIP3   OH214030   6.769   2.128   5.644
 4689TIP3    H114031   6.721   2.120   5.562
 4689TIP3    H214032   6.854   2.164   5.618
 4690TIP3   OH214033   5.075   2.168   0.568
 4690TIP3    H114034   5.155   2.202   0.529
 4690TIP3    H214035   5.005   2.207   0.515
 4691TIP3   OH214036   0.442   2.973   2.325
 4691TIP3    H114037   0.532   2.989   2.297
 4691TIP3    H214038   0.392   3.044   2.284
 4692TIP3   OH214039   2.113   3.067   5.239
 4692TIP3    H114040   2.199   3.083   5.277
 4692TIP3    H214041   2.059   3.140   5.268
 4693TIP3   OH214042   5.727   4.354   5.184
 4693TIP3    H114043   5.815   4.387   5.167
 4693TIP3    H214044   5.672   4.396   5.118
 4694TIP3   OH214045   2.426   5.071   0.617
 4694TIP3    H114046   2.373   5.043   0.542
 4694TIP3    H214047   2.442   4.990   0.666
 4695TIP3   OH214048   4.010   5.179   3.390
 4695TIP3    H114049   3.919   5.207   3.390
 4695TIP3    H214050   4.014   5.111   3.324
 4696TIP3   OH214051   4.585   0.749   2.601
 4696TIP3    H114052   4.611   0.748   2.509
 4696TIP3    H214053   4.564   0.657   2.621
 4697TIP3   OH214054   2.910   4.230   0.810
 4697TIP3    H114055   2.948   4.244   0.723
 4697TIP3    H214056   2.842   4.297   0.817
 4698TIP3   OH214057   1.076   2.494   2.520
 4698TIP3    H114058   1.021   2.484   2.443
 4698TIP3    H214059   1.020   2.538   2.584
 4699TIP3   OH214060   6.927   6.203   0.703
 4699TIP3    H114061   6.860   6.221   0.637
 4699TIP3    H214062   6.976   6.129   0.667
 4700TIP3   OH214063   5.744   1.880   1.443
 4700TIP3    H114064   5.824   1.905   1.397
 4700TIP3    H214065   5.722   1.794   1.407
 4701TIP3   OH214066   3.206   5.596   2.268
 4701TIP3    H114067   3.245   5.657   2.205
 4701TIP3    H214068   3.121   5.573   2.231
 4702TIP3   OH214069   2.834   6.708   1.369
 4702TIP3    H114070   2.773   6.781   1.361
 4702TIP3    H214071   2.847   6.677   1.279
 4703TIP3   OH214072   6.395   1.319   4.094
 4703TIP3    H114073   6.308   1.359   4.105
 4703TIP3    H214074   6.423   1.298   4.183
 4704TIP3   OH214075   0.476   2.422   2.368
 4704TIP3    H114076   0.546   2.482   2.395
 4704TIP3    H214077   0.404   2.440   2.429
 4705TIP3   OH214078   6.413   0.229   1.111
 4705TIP3    H114079   6.398   0.157   1.051
 4705TIP3    H214080   6.350   0.296   1.085
 4706TIP3   OH214081   0.990   1.060   0.264
 4706TIP3    H114082   1.073   1.028   0.228
 4706TIP3    H214083   0.939   1.086   0.188
 4707TIP3   OH214084   3.583   0.509   3.344
 4707TIP3    H114085   3.610   0.577   3.282
 4707TIP3    H214086   3.580   0.554   3.428
 4708TIP3   OH214087   6.373   3.975   5.448
 4708TIP3    H114088   6.297   4.027   5.421
 4708TIP3    H214089   6.364   3.969   5.543
 4709TIP3   OH214090   6.105   4.885   3.408
 4709TIP3    H114091   6.051   4.818   3.365
 4709TIP3    H214092   6.053   4.965   3.403
 4710TIP3   OH214093   0.981   2.656   0.724
 4710TIP3    H114094   0.970   2.712   0.801
 4710TIP3    H214095   0.928   2.697   0.656
 4711TIP3   OH214096   5.293   2.659   1.393
 4711TIP3    H114097   5.349   2.652   1.470
 4711TIP3    H214098   5.285   2.569   1.362
 4712TIP3   OH214099   6.492   2.341   3.557
 4712TIP3    H114100   6.410   2.301   3.528
 4712TIP3    H214101   6.517   2.399   3.485
 4713TIP3   OH214102   4.954   1.601   3.946
 4713TIP3    H114103   4.872   1.606   3.897
 4713TIP3    H214104   5.015   1.558   3.886
 4714TIP3   OH214105   4.450   0.077   5.060
 4714TIP3    H114106   4.437   0.136   5.135
 4714TIP3    H214107   4.368   0.083   5.010
 4715TIP3   OH214108   7.190   5.211   0.274
 4715TIP3    H114109   7.252   5.276   0.308
 4715TIP3    H214110   7.229   5.181   0.192
 4716TIP3   OH214111   6.356   1.970   3.164
 4716TIP3    H114112   6.271   1.927   3.158
 4716TIP3    H214113   6.364   2.019   3.082
 4717TIP3   OH214114   4.791   6.171   2.365
 4717TIP3    H114115   4.805   6.236   2.434
 4717TIP3    H214116   4.788   6.087   2.412
 4718TIP3   OH214117   1.050   5.663   5.425
 4718TIP3    H114118   1.083   5.636   5.511
 4718TIP3    H214119   1.096   5.744   5.406
 4719TIP3   OH214120   0.171   3.568   5.496
 4719TIP3    H114121   0.258   3.546   5.462
 4719TIP3    H214122   0.110   3.517   5.443
 4720TIP3   OH214123   4.036   3.021   5.615
 4720TIP3    H114124   4.024   3.082   5.542
 4720TIP3    H214125   4.101   2.957   5.583
 4721TIP3   OH214126   3.545   6.516   0.270
 4721TIP3    H114127   3.573   6.594   0.223
 4721TIP3    H214128   3.585   6.524   0.356
 4722TIP3   OH214129   3.035   3.323   3.504
 4722TIP3    H114130   2.999   3.239   3.532
 4722TIP3    H214131   3.069   3.307   3.416
 4723TIP3   OH214132   4.516   0.461   1.003
 4723TIP3    H114133   4.429   0.480   1.037
 4723TIP3    H214134   4.575   0.513   1.057
 4724TIP3   OH214135   0.739   4.277   4.093
 4724TIP3    H114136   0.707   4.266   4.182
 4724TIP3    H214137   0.670   4.241   4.038
 4725TIP3   OH214138   7.082   3.547   5.594
 4725TIP3    H114139   7.150   3.598   5.639
 4725TIP3    H214140   7.005   3.604   5.595
 4726TIP3   OH214141   6.269   0.771   0.750
 4726TIP3    H114142   6.271   0.865   0.732
 4726TIP3    H214143   6.324   0.732   0.683
 4727TIP3   OH214144   1.148   3.177   1.024
 4727TIP3    H114145   1.121   3.145   0.938
 4727TIP3    H214146   1.232   3.219   1.008
 4728TIP3   OH214147   3.189   4.973   3.883
 4728TIP3    H114148   3.245   5.024   3.942
 4728TIP3    H214149   3.201   4.882   3.911
 4729TIP3   OH214150   2.876   0.571   2.242
 4729TIP3    H114151   2.952   0.615   2.205
 4729TIP3    H214152   2.875   0.598   2.334
 4730TIP3   OH214153   6.710   0.485   5.036
 4730TIP3    H114154   6.762   0.557   5.000
 4730TIP3    H214155   6.745   0.407   4.994
 4731TIP3   OH214156   0.655   0.634   5.785
 4731TIP3    H114157   0.606   0.627   5.704
 4731TIP3    H214158   0.598   0.595   5.852
 4732TIP3   OH214159   3.910   5.970   5.104
 4732TIP3    H114160   3.982   5.963   5.042
 4732TIP3    H214161   3.902   5.882   5.142
 4733TIP3   OH214162   3.326   1.290   2.239
 4733TIP3    H114163   3.297   1.374   2.203
 4733TIP3    H214164   3.416   1.281   2.208
 4734TIP3   OH214165   3.761   6.701   0.061
 4734TIP3    H114166   3.744   6.782   0.013
 4734TIP3    H214167   3.820   6.651   0.005
 4735TIP3   OH214168   6.824   5.316   4.722
 4735TIP3    H114169   6.830   5.403   4.683
 4735TIP3    H214170   6.859   5.257   4.655
 4736TIP3   OH214171   1.814   4.306   0.159
 4736TIP3    H114172   1.907   4.329   0.154
 4736TIP3    H214173   1.804   4.266   0.246
 4737TIP3   OH214174   3.984   4.240   5.037
 4737TIP3    H114175   3.919   4.253   5.105
 4737TIP3    H214176   3.933   4.226   4.957
 4738TIP3   OH214177   5.948   4.746   3.198
 4738TIP3    H114178   5.872   4.761   3.254
 4738TIP3    H214179   5.926   4.669   3.146
 4739TIP3   OH214180   4.146   3.511   5.740
 4739TIP3    H114181   4.228   3.549   5.709
 4739TIP3    H214182   4.115   3.573   5.806
 4740TIP3   OH214183   2.333   2.159   2.568
 4740TIP3    H114184   2.397   2.230   2.579
 4740TIP3    H214185   2.321   2.152   2.473
 4741TIP3   OH214186   6.913   1.901   3.329
 4741TIP3    H114187   6.982   1.900   3.395
 4741TIP3    H214188   6.837   1.861   3.373
 4742TIP3   OH214189   1.281   0.510   3.926
 4742TIP3    H114190   1.261   0.418   3.941
 4742TIP3    H214191   1.375   0.511   3.904
 4743TIP3   OH214192   5.180   2.477   3.612
 4743TIP3    H114193   5.109   2.533   3.642
 4743TIP3    H214194   5.254   2.501   3.667
 4744TIP3   OH214195   5.633   1.024   3.321
 4744TIP3    H114196   5.605   0.985   3.239
 4744TIP3    H214197   5.716   1.067   3.300
 4745TIP3   OH214198   0.778   3.905   2.090
 4745TIP3    H114199   0.720   3.848   2.141
 4745TIP3    H214200   0.804   3.974   2.151
 4746TIP3   OH214201   1.857   6.092   5.311
 4746TIP3    H114202   1.871   6.181   5.278
 4746TIP3    H214203   1.870   6.099   5.405
 4747TIP3   OH214204   1.776   2.645   3.835
 4747TIP3    H114205   1.769   2.709   3.906
 4747TIP3    H214206   1.705   2.583   3.851
 4748TIP3   OH214207   4.095   5.571   5.072
 4748TIP3    H114208   4.152   5.610   5.006
 4748TIP3    H214209   4.091   5.635   5.143
 4749TIP3   OH214210   2.525   4.886   3.401
 4749TIP3    H114211   2.474   4.916   3.327
 4749TIP3    H214212   2.468   4.825   3.448
 4750TIP3   OH214213   5.968   6.441   4.486
 4750TIP3    H114214   5.990   6.355   4.449
 4750TIP3    H214215   5.992   6.433   4.579
 4751TIP3   OH214216   0.161   3.140   3.949
 4751TIP3    H114217   0.250   3.104   3.953
 4751TIP3    H214218   0.143   3.149   3.855
 4752TIP3   OH214219   1.341   3.124   2.047
 4752TIP3    H114220   1.381   3.110   1.961
 4752TIP3    H214221   1.392   3.195   2.086
 4753TIP3   OH214222   6.552   3.722   4.264
 4753TIP3    H114223   6.567   3.755   4.176
 4753TIP3    H214224   6.528   3.799   4.315
 4754TIP3   OH214225   3.108   5.747   4.902
 4754TIP3    H114226   3.021   5.781   4.924
 4754TIP3    H214227   3.160   5.761   4.981
 4755TIP3   OH214228   5.874   2.966   5.363
 4755TIP3    H114229   5.899   3.043   5.312
 4755TIP3    H214230   5.864   2.896   5.298
 4756TIP3   OH214231   1.577   5.138   1.781
 4756TIP3    H114232   1.609   5.169   1.865
 4756TIP3    H214233   1.585   5.213   1.723
 4757TIP3   OH214234   7.164   0.911   3.420
 4757TIP3    H114235   7.079   0.878   3.451
 4757TIP3    H214236   7.143   0.992   3.374
 4758TIP3   OH214237   6.638   2.860   5.256
 4758TIP3    H114238   6.697   2.900   5.319
 4758TIP3    H214239   6.555   2.907   5.267
 4759TIP3   OH214240   5.242   3.551   5.759
 4759TIP3    H114241   5.270   3.630   5.805
 4759TIP3    H214242   5.195   3.584   5.682
 4760TIP3   OH214243   6.496   5.388   3.021
 4760TIP3    H114244   6.587   5.415   3.010
 4760TIP3    H214245   6.453   5.412   2.939
 4761TIP3   OH214246   3.230   4.567   0.051
 4761TIP3    H114247   3.185   4.534  -0.027
 4761TIP3    H214248   3.321   4.538   0.040
 4762TIP3   OH214249   1.666   3.583   0.345
 4762TIP3    H114250   1.697   3.663   0.386
 4762TIP3    H214251   1.670   3.517   0.415
 4763TIP3   OH214252   2.332   5.161   1.766
 4763TIP3    H114253   2.281   5.080   1.755
 4763TIP3    H214254   2.338   5.197   1.677
 4764TIP3   OH214255   3.940   4.049   1.254
 4764TIP3    H114256   4.006   4.016   1.315
 4764TIP3    H214257   3.984   4.048   1.169
 4765TIP3   OH214258   5.781   5.678   1.333
 4765TIP3    H114259   5.845   5.727   1.385
 4765TIP3    H214260   5.729   5.746   1.290
 4766TIP3   OH214261   4.993   3.554   1.058
 4766TIP3    H114262   4.947   3.633   1.028
 4766TIP3    H214263   4.935   3.482   1.033
 4767TIP3   OH214264   0.706   2.347   2.595
 4767TIP3    H114265   0.693   2.256   2.568
 4767TIP3    H214266   0.620   2.388   2.583
 4768TIP3   OH214267   3.402   3.569   4.630
 4768TIP3    H114268   3.491   3.600   4.611
 4768TIP3    H214269   3.373   3.528   4.548
 4769TIP3   OH214270   5.327   2.158   1.780
 4769TIP3    H114271   5.301   2.067   1.764
 4769TIP3    H214272   5.246   2.208   1.764
 4770TIP3   OH214273   3.549   3.400   4.339
 4770TIP3    H114274   3.568   3.332   4.404
 4770TIP3    H214275   3.454   3.410   4.341
 4771TIP3   OH214276   1.973   1.338   4.290
 4771TIP3    H114277   1.945   1.424   4.323
 4771TIP3    H214278   2.028   1.303   4.359
 4772TIP3   OH214279   0.777   2.503   1.176
 4772TIP3    H114280   0.809   2.458   1.255
 4772TIP3    H214281   0.715   2.568   1.209
 4773TIP3   OH214282   0.672   2.063   0.074
 4773TIP3    H114283   0.597   2.071   0.015
 4773TIP3    H214284   0.699   1.972   0.066
 4774TIP3   OH214285   0.578   2.297   5.524
 4774TIP3    H114286   0.522   2.330   5.453
 4774TIP3    H214287   0.567   2.361   5.594
 4775TIP3   OH214288   6.721   4.323   4.232
 4775TIP3    H114289   6.726   4.240   4.184
 4775TIP3    H214290   6.777   4.383   4.183
 4776TIP3   OH214291   4.199   0.101   4.902
 4776TIP3    H114292   4.209   0.106   4.807
 4776TIP3    H214293   4.168   0.012   4.919
 4777TIP3   OH214294   3.103   3.001   1.159
 4777TIP3    H114295   3.028   2.989   1.101
 4777TIP3    H214296   3.171   3.039   1.104
 4778TIP3   OH214297   3.768   4.171   2.583
 4778TIP3    H114298   3.760   4.188   2.489
 4778TIP3    H214299   3.745   4.255   2.624
 4779TIP3   OH214300   3.823   4.348   2.048
 4779TIP3    H114301   3.799   4.291   1.975
 4779TIP3    H214302   3.808   4.437   2.016
 4780TIP3   OH214303   6.626   4.085   0.543
 4780TIP3    H114304   6.653   3.998   0.571
 4780TIP3    H214305   6.702   4.119   0.496
 4781TIP3   OH214306   5.171   0.662   0.767
 4781TIP3    H114307   5.149   0.635   0.678
 4781TIP3    H214308   5.259   0.627   0.782
 4782TIP3   OH214309   5.026   6.795   2.840
 4782TIP3    H114310   4.971   6.835   2.908
 4782TIP3    H214311   5.002   6.702   2.842
 4783TIP3   OH214312   2.002   0.712   4.494
 4783TIP3    H114313   2.019   0.799   4.458
 4783TIP3    H214314   1.976   0.729   4.585
 4784TIP3   OH214315   6.471   2.452   2.426
 4784TIP3    H114316   6.563   2.478   2.423
 4784TIP3    H214317   6.442   2.479   2.513
 4785TIP3   OH214318   3.667   6.828   4.448
 4785TIP3    H114319   3.638   6.789   4.366
 4785TIP3    H214320   3.663   6.757   4.512
 4786TIP3   OH214321   7.089   3.360   3.803
 4786TIP3    H114322   7.008   3.315   3.777
 4786TIP3    H214323   7.062   3.420   3.872
 4787TIP3   OH214324   6.079   3.780   2.355
 4787TIP3    H114325   6.165   3.758   2.391
 4787TIP3    H214326   6.063   3.870   2.385
 4788TIP3   OH214327   0.281   5.254   5.859
 4788TIP3    H114328   0.199   5.302   5.860
 4788TIP3    H214329   0.266   5.181   5.799
 4789TIP3   OH214330   1.999   3.983   4.524
 4789TIP3    H114331   1.917   4.004   4.480
 4789TIP3    H214332   1.981   3.899   4.568
 4790TIP3   OH214333   3.363   2.442   2.916
 4790TIP3    H114334   3.317   2.483   2.989
 4790TIP3    H214335   3.416   2.373   2.955
 4791TIP3   OH214336   1.873   2.057   5.936
 4791TIP3    H114337   1.885   1.980   5.880
 4791TIP3    H214338   1.950   2.112   5.919
 4792TIP3   OH214339   0.846   1.688   3.755
 4792TIP3    H114340   0.880   1.775   3.736
 4792TIP3    H214341   0.890   1.630   3.693
 4793TIP3   OH214342   2.720   2.087  -0.027
 4793TIP3    H114343   2.694   2.110  -0.116
 4793TIP3    H214344   2.801   2.135  -0.012
 4794TIP3   OH214345   5.360   1.159   1.989
 4794TIP3    H114346   5.390   1.181   1.901
 4794TIP3    H214347   5.271   1.195   1.994
 4795TIP3   OH214348   7.029   6.300   4.231
 4795TIP3    H114349   7.057   6.391   4.222
 4795TIP3    H214350   6.936   6.305   4.254
 4796TIP3   OH214351   4.904   4.077   0.482
 4796TIP3    H114352   4.834   4.142   0.473
 4796TIP3    H214353   4.981   4.127   0.507
 4797TIP3   OH214354   6.725   5.816   1.218
 4797TIP3    H114355   6.702   5.858   1.134
 4797TIP3    H214356   6.811   5.777   1.202
 4798TIP3   OH214357   1.185   4.331   0.835
 4798TIP3    H114358   1.235   4.391   0.778
 4798TIP3    H214359   1.094   4.359   0.824
 4799TIP3   OH214360   0.636   4.337   3.047
 4799TIP3    H114361   0.637   4.422   3.090
 4799TIP3    H214362   0.638   4.273   3.119
 4800TIP3   OH214363   2.310   6.574   1.270
 4800TIP3    H114364   2.370   6.499   1.274
 4800TIP3    H214365   2.361   6.646   1.307
 4801TIP3   OH214366   6.945   2.001   1.457
 4801TIP3    H114367   6.942   1.918   1.411
 4801TIP3    H214368   6.862   2.005   1.505
 4802TIP3   OH214369   4.897   0.605   4.314
 4802TIP3    H114370   4.871   0.561   4.395
 4802TIP3    H214371   4.871   0.545   4.244
 4803TIP3   OH214372   3.051   4.262   1.552
 4803TIP3    H114373   3.124   4.322   1.571
 4803TIP3    H214374   2.984   4.285   1.616
 4804TIP3   OH214375   2.786   2.986   4.906
 4804TIP3    H114376   2.751   2.907   4.948
 4804TIP3    H214377   2.849   2.953   4.842
 4805TIP3   OH214378   1.926   1.847   4.228
 4805TIP3    H114379   1.970   1.765   4.252
 4805TIP3    H214380   1.838   1.820   4.204
 4806TIP3   OH214381   2.328   0.565   0.206
 4806TIP3    H114382   2.417   0.552   0.174
 4806TIP3    H214383   2.278   0.492   0.171
 4807TIP3   OH214384   1.696   1.663   3.093
 4807TIP3    H114385   1.649   1.739   3.059
 4807TIP3    H214386   1.731   1.619   3.016
 4808TIP3   OH214387   6.107   0.590   0.834
 4808TIP3    H114388   6.026   0.635   0.861
 4808TIP3    H214389   6.168   0.661   0.815
 4809TIP3   OH214390   0.396   0.857   2.398
 4809TIP3    H114391   0.340   0.922   2.440
 4809TIP3    H214392   0.445   0.906   2.332
 4810TIP3   OH214393   2.387   1.803   5.770
 4810TIP3    H114394   2.308   1.851   5.791
 4810TIP3    H214395   2.364   1.752   5.692
 4811TIP3   OH214396   0.567   2.259   2.186
 4811TIP3    H114397   0.551   2.333   2.245
 4811TIP3    H214398   0.490   2.203   2.196
 4812TIP3   OH214399   2.118   5.622   3.297
 4812TIP3    H114400   2.153   5.709   3.312
 4812TIP3    H214401   2.032   5.637   3.258
 4813TIP3   OH214402   6.812   2.270   3.280
 4813TIP3    H114403   6.739   2.331   3.269
 4813TIP3    H214404   6.827   2.267   3.374
 4814TIP3   OH214405   2.375   5.095   3.896
 4814TIP3    H114406   2.352   5.031   3.963
 4814TIP3    H214407   2.342   5.178   3.930
 4815TIP3   OH214408   6.607   2.298   0.999
 4815TIP3    H114409   6.525   2.340   1.027
 4815TIP3    H214410   6.581   2.208   0.979
 4816TIP3   OH214411   5.619   2.326   5.670
 4816TIP3    H114412   5.626   2.420   5.651
 4816TIP3    H214413   5.565   2.321   5.748
 4817TIP3   OH214414   1.772   1.173   1.418
 4817TIP3    H114415   1.850   1.131   1.453
 4817TIP3    H214416   1.783   1.266   1.440
 4818TIP3   OH214417   5.436   0.807   3.510
 4818TIP3    H114418   5.411   0.781   3.599
 4818TIP3    H214419   5.467   0.897   3.520
 4819TIP3   OH214420   2.806   4.805   1.532
 4819TIP3    H114421   2.841   4.721   1.502
 4819TIP3    H214422   2.725   4.816   1.482
 4820TIP3   OH214423   2.603   6.566   1.146
 4820TIP3    H114424   2.643   6.651   1.165
 4820TIP3    H214425   2.594   6.524   1.232
 4821TIP3   OH214426   2.264   3.199   5.603
 4821TIP3    H114427   2.266   3.116   5.556
 4821TIP3    H214428   2.322   3.256   5.553
 4822TIP3   OH214429   6.980   2.325   1.860
 4822TIP3    H114430   6.972   2.251   1.921
 4822TIP3    H214431   6.962   2.402   1.914
 4823TIP3   OH214432   6.964   2.747   0.428
 4823TIP3    H114433   7.024   2.677   0.402
 4823TIP3    H214434   7.008   2.827   0.401
 4824TIP3   OH214435   2.502   0.492   4.550
 4824TIP3    H114436   2.547   0.466   4.470
 4824TIP3    H214437   2.500   0.588   4.546
 4825TIP3   OH214438   0.173   1.800   3.610
 4825TIP3    H114439   0.114   1.825   3.539
 4825TIP3    H214440   0.234   1.739   3.569
 4826TIP3   OH214441   0.967   0.134   4.316
 4826TIP3    H114442   0.952   0.040   4.303
 4826TIP3    H214443   1.043   0.139   4.373
 4827TIP3   OH214444   1.933   3.191   4.897
 4827TIP3    H114445   1.964   3.119   4.952
 4827TIP3    H214446   2.013   3.240   4.875
 4828TIP3   OH214447   2.139   4.742   4.295
 4828TIP3    H114448   2.218   4.749   4.349
 4828TIP3    H214449   2.079   4.687   4.346
 4829TIP3   OH214450   0.775   0.498   0.749
 4829TIP3    H114451   0.712   0.560   0.783
 4829TIP3    H214452   0.746   0.480   0.659
 4830TIP3   OH214453   1.328   2.342   2.536
 4830TIP3    H114454   1.312   2.299   2.452
 4830TIP3    H214455   1.243   2.379   2.560
 4831TIP3   OH214456   1.479   4.397   4.422
 4831TIP3    H114457   1.422   4.411   4.498
 4831TIP3    H214458   1.419   4.382   4.349
 4832TIP3   OH214459   4.789   1.079   2.355
 4832TIP3    H114460   4.754   1.113   2.438
 4832TIP3    H214461   4.875   1.120   2.347
 4833TIP3   OH214462   1.511   5.588   5.594
 4833TIP3    H114463   1.493   5.645   5.520
 4833TIP3    H214464   1.574   5.524   5.561
 4834TIP3   OH214465   3.032   6.643   0.778
 4834TIP3    H114466   3.112   6.591   0.767
 4834TIP3    H214467   3.053   6.707   0.845
 4835TIP3   OH214468   4.746   4.549   0.556
 4835TIP3    H114469   4.663   4.511   0.586
 4835TIP3    H214470   4.805   4.540   0.630
 4836TIP3   OH214471   6.817   2.307   0.825
 4836TIP3    H114472   6.754   2.311   0.896
 4836TIP3    H214473   6.769   2.266   0.753
 4837TIP3   OH214474   1.162   4.502   3.039
 4837TIP3    H114475   1.250   4.508   3.003
 4837TIP3    H214476   1.174   4.507   3.134
 4838TIP3   OH214477   1.584   3.581   3.686
 4838TIP3    H114478   1.573   3.486   3.683
 4838TIP3    H214479   1.636   3.602   3.609
 4839TIP3   OH214480   1.456   1.685   4.115
 4839TIP3    H114481   1.532   1.717   4.164
 4839TIP3    H214482   1.454   1.591   4.132
 4840TIP3   OH214483   2.468   2.178   4.022
 4840TIP3    H114484   2.460   2.269   3.993
 4840TIP3    H214485   2.448   2.181   4.115
 4841TIP3   OH214486   2.804   5.437   0.594
 4841TIP3    H114487   2.742   5.375   0.632
 4841TIP3    H214488   2.752   5.515   0.575
 4842TIP3   OH214489   5.584   5.937   4.829
 4842TIP3    H114490   5.617   5.849   4.812
 4842TIP3    H214491   5.620   5.991   4.759
 4843TIP3   OH214492   3.389   3.049   1.985
 4843TIP3    H114493   3.394   2.959   1.951
 4843TIP3    H214494   3.314   3.087   1.939
 4844TIP3   OH214495   2.735   3.886   1.112
 4844TIP3    H114496   2.787   3.814   1.147
 4844TIP3    H214497   2.774   3.904   1.027
 4845TIP3   OH214498   1.788   5.425   3.800
 4845TIP3    H114499   1.790   5.368   3.723
 4845TIP3    H214500   1.696   5.449   3.810
 4846TIP3   OH214501   1.294   0.224   0.655
 4846TIP3    H114502   1.266   0.247   0.743
 4846TIP3    H214503   1.377   0.270   0.643
 4847TIP3   OH214504   1.361   1.163   5.772
 4847TIP3    H114505   1.435   1.187   5.828
 4847TIP3    H214506   1.322   1.247   5.748
 4848TIP3   OH214507   0.385   3.847   5.493
 4848TIP3    H114508   0.427   3.933   5.500
 4848TIP3    H214509   0.434   3.791   5.552
 4849TIP3   OH214510   5.751   2.470   2.944
 4849TIP3    H114511   5.795   2.456   2.860
 4849TIP3    H214512   5.818   2.507   3.000
 4850TIP3   OH214513   7.179   5.615   1.127
 4850TIP3    H114514   7.155   5.651   1.213
 4850TIP3    H214515   7.196   5.523   1.144
 4851TIP3   OH214516   1.885   4.945   2.001
 4851TIP3    H114517   1.828   4.874   2.029
 4851TIP3    H214518   1.973   4.907   2.004
 4852TIP3   OH214519   2.231   0.676   5.490
 4852TIP3    H114520   2.225   0.718   5.576
 4852TIP3    H214521   2.184   0.736   5.431
 4853TIP3   OH214522   3.194   1.424   0.469
 4853TIP3    H114523   3.236   1.482   0.405
 4853TIP3    H214524   3.172   1.481   0.542
 4854TIP3   OH214525   2.320   3.201   0.162
 4854TIP3    H114526   2.237   3.227   0.124
 4854TIP3    H214527   2.372   3.168   0.089
 4855TIP3   OH214528   0.085   1.012   1.167
 4855TIP3    H114529   0.003   1.057   1.146
 4855TIP3    H214530   0.080   0.930   1.118
 4856TIP3   OH214531   5.902   5.285   5.252
 4856TIP3    H114532   5.816   5.317   5.227
 4856TIP3    H214533   5.920   5.324   5.337
 4857TIP3   OH214534   2.476   3.489   1.283
 4857TIP3    H114535   2.494   3.525   1.370
 4857TIP3    H214536   2.428   3.408   1.299
 4858TIP3   OH214537   6.939   0.599   4.284
 4858TIP3    H114538   6.938   0.626   4.192
 4858TIP3    H214539   6.905   0.676   4.331
 4859TIP3   OH214540   0.036   2.706   1.837
 4859TIP3    H114541   0.077   2.633   1.882
 4859TIP3    H214542   0.076   2.784   1.877
 4860TIP3   OH214543   2.454   3.979   5.035
 4860TIP3    H114544   2.515   4.028   5.089
 4860TIP3    H214545   2.369   3.991   5.077
 4861TIP3   OH214546   3.050   4.322   5.291
 4861TIP3    H114547   2.998   4.385   5.242
 4861TIP3    H214548   3.011   4.320   5.378
 4862TIP3   OH214549   6.716   6.157   2.057
 4862TIP3    H114550   6.776   6.106   2.001
 4862TIP3    H214551   6.747   6.247   2.049
 4863TIP3   OH214552   5.442   1.755   0.649
 4863TIP3    H114553   5.447   1.728   0.741
 4863TIP3    H214554   5.485   1.684   0.601
 4864TIP3   OH214555   0.902   0.676   4.329
 4864TIP3    H114556   0.894   0.580   4.324
 4864TIP3    H214557   0.969   0.698   4.264
 4865TIP3   OH214558   0.797   4.744   2.357
 4865TIP3    H114559   0.814   4.657   2.321
 4865TIP3    H214560   0.702   4.745   2.374
 4866TIP3   OH214561   4.681   1.648   3.862
 4866TIP3    H114562   4.641   1.666   3.778
 4866TIP3    H214563   4.611   1.663   3.926
 4867TIP3   OH214564   3.443   3.793   2.585
 4867TIP3    H114565   3.455   3.844   2.504
 4867TIP3    H214566   3.506   3.831   2.646
 4868TIP3   OH214567   2.596   0.739   0.681
 4868TIP3    H114568   2.683   0.779   0.693
 4868TIP3    H214569   2.606   0.650   0.715
 4869TIP3   OH214570   2.771   3.711   4.317
 4869TIP3    H114571   2.680   3.687   4.300
 4869TIP3    H214572   2.813   3.708   4.230
 4870TIP3   OH214573   2.350   3.539   5.126
 4870TIP3    H114574   2.404   3.600   5.075
 4870TIP3    H214575   2.351   3.575   5.215
 4871TIP3   OH214576   1.841   4.424   1.682
 4871TIP3    H114577   1.879   4.345   1.644
 4871TIP3    H214578   1.784   4.459   1.613
 4872TIP3   OH214579   0.483   5.417   4.770
 4872TIP3    H114580   0.420   5.365   4.720
 4872TIP3    H214581   0.524   5.354   4.829
 4873TIP3   OH214582   5.093   6.126   4.682
 4873TIP3    H114583   5.005   6.149   4.712
 4873TIP3    H214584   5.139   6.097   4.761
 4874TIP3   OH214585   3.082   2.311   5.760
 4874TIP3    H114586   3.105   2.345   5.674
 4874TIP3    H214587   3.076   2.216   5.749
 4875TIP3   OH214588   4.648   6.511   3.319
 4875TIP3    H114589   4.585   6.583   3.318
 4875TIP3    H214590   4.704   6.527   3.243
 4876TIP3   OH214591   3.367   3.190   3.437
 4876TIP3    H114592   3.379   3.191   3.531
 4876TIP3    H214593   3.349   3.281   3.413
 4877TIP3   OH214594   2.655   5.544   4.121
 4877TIP3    H114595   2.671   5.624   4.171
 4877TIP3    H214596   2.675   5.568   4.030
 4878TIP3   OH214597   1.243   0.058   2.666
 4878TIP3    H114598   1.305  -0.015   2.660
 4878TIP3    H214599   1.259   0.096   2.752
 4879TIP3   OH214600   0.221   4.567   0.239
 4879TIP3    H114601   0.131   4.595   0.257
 4879TIP3    H214602   0.242   4.607   0.155
 4880TIP3   OH214603   1.396   1.808   5.656
 4880TIP3    H114604   1.310   1.793   5.694
 4880TIP3    H214605   1.410   1.733   5.597
 4881TIP3   OH214606   7.146   4.961   4.803
 4881TIP3    H114607   7.092   5.039   4.787
 4881TIP3    H214608   7.136   4.909   4.723
 4882TIP3   OH214609   5.172   4.404   5.564
 4882TIP3    H114610   5.208   4.329   5.612
 4882TIP3    H214611   5.231   4.476   5.584
 4883TIP3   OH214612   5.114   6.245   2.484
 4883TIP3    H114613   5.138   6.267   2.394
 4883TIP3    H214614   5.198   6.231   2.528
 4884TIP3   OH214615   7.018   6.592   3.221
 4884TIP3    H114616   7.006   6.687   3.216
 4884TIP3    H214617   6.996   6.570   3.311
 4885TIP3   OH214618   3.618   5.588   3.792
 4885TIP3    H114619   3.653   5.602   3.880
 4885TIP3    H214620   3.572   5.669   3.771
 4886TIP3   OH214621   5.652   1.752   3.233
 4886TIP3    H114622   5.581   1.718   3.286
 4886TIP3    H214623   5.611   1.776   3.150
 4887TIP3   OH214624   4.198   3.704   1.211
 4887TIP3    H114625   4.266   3.685   1.277
 4887TIP3    H214626   4.134   3.634   1.222
 4888TIP3   OH214627   1.983   2.904   4.501
 4888TIP3    H114628   2.036   2.969   4.547
 4888TIP3    H214629   2.044   2.833   4.480
 4889TIP3   OH214630   7.168   5.548   5.186
 4889TIP3    H114631   7.073   5.545   5.170
 4889TIP3    H214632   7.204   5.581   5.104
 4890TIP3   OH214633   5.307   6.113   1.624
 4890TIP3    H114634   5.289   6.164   1.703
 4890TIP3    H214635   5.310   6.177   1.554
 4891TIP3   OH214636   2.458   5.129   5.873
 4891TIP3    H114637   2.418   5.059   5.821
 4891TIP3    H214638   2.389   5.194   5.881
 4892TIP3   OH214639   3.506   0.480   0.503
 4892TIP3    H114640   3.494   0.509   0.412
 4892TIP3    H214641   3.527   0.560   0.550
 4893TIP3   OH214642   3.320   0.282   3.861
 4893TIP3    H114643   3.376   0.273   3.784
 4893TIP3    H214644   3.299   0.191   3.885
 4894TIP3   OH214645   5.171   5.588   2.630
 4894TIP3    H114646   5.192   5.502   2.667
 4894TIP3    H214647   5.146   5.570   2.540
 4895TIP3   OH214648   4.553   5.242   0.068
 4895TIP3    H114649   4.471   5.228   0.115
 4895TIP3    H214650   4.599   5.308   0.120
 4896TIP3   OH214651   3.185   0.297   3.416
 4896TIP3    H114652   3.167   0.379   3.462
 4896TIP3    H214653   3.116   0.238   3.445
 4897TIP3   OH214654   5.112   5.218   4.569
 4897TIP3    H114655   5.038   5.220   4.507
 4897TIP3    H214656   5.177   5.275   4.530
 4898TIP3   OH214657   4.335   2.532   0.286
 4898TIP3    H114658   4.415   2.479   0.284
 4898TIP3    H214659   4.266   2.471   0.312
 4899TIP3   OH214660   1.773   6.477   3.073
 4899TIP3    H114661   1.793   6.394   3.116
 4899TIP3    H214662   1.750   6.452   2.984
 4900TIP3   OH214663   4.568   3.887   4.771
 4900TIP3    H114664   4.629   3.885   4.696
 4900TIP3    H214665   4.549   3.795   4.788
 4901TIP3   OH214666   2.977   5.542   4.147
 4901TIP3    H114667   3.065   5.506   4.137
 4901TIP3    H214668   2.924   5.494   4.084
 4902TIP3   OH214669   2.340   0.006   4.335
 4902TIP3    H114670   2.310  -0.017   4.423
 4902TIP3    H214671   2.384   0.090   4.346
 4903TIP3   OH214672   0.646   6.733   3.532
 4903TIP3    H114673   0.731   6.752   3.572
 4903TIP3    H214674   0.624   6.644   3.562
 4904TIP3   OH214675   1.293   4.286   5.808
 4904TIP3    H114676   1.268   4.368   5.851
 4904TIP3    H214677   1.306   4.224   5.879
 4905TIP3   OH214678   1.514   5.736   3.089
 4905TIP3    H114679   1.468   5.665   3.044
 4905TIP3    H214680   1.487   5.728   3.181
 4906TIP3   OH214681   3.194   0.762   5.629
 4906TIP3    H114682   3.216   0.760   5.722
 4906TIP3    H214683   3.274   0.792   5.586
 4907TIP3   OH214684   1.193   5.626   2.186
 4907TIP3    H114685   1.170   5.715   2.211
 4907TIP3    H214686   1.231   5.633   2.099
 4908TIP3   OH214687   5.572   6.576   4.073
 4908TIP3    H114688   5.625   6.496   4.075
 4908TIP3    H214689   5.489   6.549   4.035
 4909TIP3   OH214690   6.887   0.809   4.475
 4909TIP3    H114691   6.828   0.816   4.550
 4909TIP3    H214692   6.966   0.856   4.502
 4910TIP3   OH214693   2.256   5.346   1.183
 4910TIP3    H114694   2.221   5.434   1.173
 4910TIP3    H214695   2.244   5.306   1.097
 4911TIP3   OH214696   1.112   3.796   4.506
 4911TIP3    H114697   1.163   3.734   4.455
 4911TIP3    H214698   1.115   3.877   4.456
 4912TIP3   OH214699   2.030   0.793   3.393
 4912TIP3    H114700   1.940   0.771   3.371
 4912TIP3    H214701   2.074   0.802   3.308
 4913TIP3   OH214702   1.936   5.478   5.631
 4913TIP3    H114703   1.845   5.465   5.657
 4913TIP3    H214704   1.952   5.412   5.564
 4914TIP3   OH214705   3.692   0.585   5.582
 4914TIP3    H114706   3.716   0.616   5.670
 4914TIP3    H214707   3.596   0.587   5.581
 4915TIP3   OH214708   6.711   6.739   3.250
 4915TIP3    H114709   6.628   6.786   3.247
 4915TIP3    H214710   6.703   6.680   3.325
 4916TIP3   OH214711   4.183   0.504   1.976
 4916TIP3    H114712   4.133   0.490   1.895
 4916TIP3    H214713   4.273   0.516   1.946
 4917TIP3   OH214714   3.417   3.709   2.173
 4917TIP3    H114715   3.512   3.719   2.170
 4917TIP3    H214716   3.391   3.695   2.082
 4918TIP3   OH214717   1.196   5.235   2.129
 4918TIP3    H114718   1.212   5.289   2.207
 4918TIP3    H214719   1.200   5.145   2.161
 4919TIP3   OH214720   3.423   3.633   1.626
 4919TIP3    H114721   3.410   3.553   1.677
 4919TIP3    H214722   3.518   3.647   1.625
 4920TIP3   OH214723   2.957   1.176   2.428
 4920TIP3    H114724   2.985   1.180   2.336
 4920TIP3    H214725   2.886   1.113   2.429
 4921TIP3   OH214726   1.995   6.760   5.614
 4921TIP3    H114727   2.036   6.845   5.601
 4921TIP3    H214728   2.040   6.702   5.553
 4922TIP3   OH214729   3.910  -0.068   1.487
 4922TIP3    H114730   3.986  -0.031   1.441
 4922TIP3    H214731   3.838  -0.008   1.465
 4923TIP3   OH214732   1.436   2.917   1.749
 4923TIP3    H114733   1.392   2.995   1.715
 4923TIP3    H214734   1.477   2.877   1.672
 4924TIP3   OH214735   5.211   5.132   0.499
 4924TIP3    H114736   5.264   5.086   0.434
 4924TIP3    H214737   5.226   5.083   0.580
 4925TIP3   OH214738   4.964   1.681   4.217
 4925TIP3    H114739   5.056   1.703   4.236
 4925TIP3    H214740   4.966   1.647   4.128
 4926TIP3   OH214741   0.850   0.383   4.425
 4926TIP3    H114742   0.934   0.382   4.471
 4926TIP3    H214743   0.846   0.299   4.381
 4927TIP3   OH214744   7.097   1.524   1.424
 4927TIP3    H114745   7.191   1.506   1.412
 4927TIP3    H214746   7.092   1.574   1.505
 4928TIP3   OH214747   6.866   2.037   5.088
 4928TIP3    H114748   6.871   1.963   5.149
 4928TIP3    H214749   6.956   2.050   5.059
 4929TIP3   OH214750   0.104   3.663   1.176
 4929TIP3    H114751   0.023   3.623   1.144
 4929TIP3    H214752   0.138   3.712   1.102
 4930TIP3   OH214753   3.570   3.226   1.893
 4930TIP3    H114754   3.573   3.292   1.962
 4930TIP3    H214755   3.510   3.159   1.926
 4931TIP3   OH214756   4.948   2.607   3.663
 4931TIP3    H114757   4.904   2.680   3.620
 4931TIP3    H214758   4.901   2.529   3.634
 4932TIP3   OH214759   1.799   0.536   3.806
 4932TIP3    H114760   1.841   0.450   3.817
 4932TIP3    H214761   1.824   0.563   3.717
 4933TIP3   OH214762   5.765   0.698   4.336
 4933TIP3    H114763   5.816   0.779   4.328
 4933TIP3    H214764   5.681   0.727   4.373
 4934TIP3   OH214765   1.858   4.663   4.797
 4934TIP3    H114766   1.885   4.667   4.888
 4934TIP3    H214767   1.767   4.634   4.800
 4935TIP3   OH214768   6.465   6.003   3.629
 4935TIP3    H114769   6.553   6.034   3.609
 4935TIP3    H214770   6.409   6.046   3.564
 4936TIP3   OH214771   2.345   6.039   2.429
 4936TIP3    H114772   2.322   5.979   2.358
 4936TIP3    H214773   2.354   5.983   2.506
 4937TIP3   OH214774   4.893   4.296   1.728
 4937TIP3    H114775   4.953   4.369   1.710
 4937TIP3    H214776   4.807   4.338   1.731
 4938TIP3   OH214777   0.887   0.487   1.024
 4938TIP3    H114778   0.863   0.486   0.931
 4938TIP3    H214779   0.983   0.481   1.024
 4939TIP3   OH214780   1.117   0.726   4.903
 4939TIP3    H114781   1.137   0.803   4.957
 4939TIP3    H214782   1.067   0.761   4.829
 4940TIP3   OH214783   3.181   6.136   1.536
 4940TIP3    H114784   3.221   6.124   1.622
 4940TIP3    H214785   3.231   6.079   1.478
 4941TIP3   OH214786   2.306   3.878   4.029
 4941TIP3    H114787   2.308   3.787   3.999
 4941TIP3    H214788   2.255   3.876   4.110
 4942TIP3   OH214789   5.427   4.562   1.885
 4942TIP3    H114790   5.484   4.487   1.870
 4942TIP3    H214791   5.394   4.549   1.974
 4943TIP3   OH214792   6.325   5.982   1.307
 4943TIP3    H114793   6.420   5.984   1.297
 4943TIP3    H214794   6.300   6.074   1.316
 4944TIP3   OH214795   3.812   0.075   4.725
 4944TIP3    H114796   3.859   0.132   4.786
 4944TIP3    H214797   3.876   0.008   4.700
 4945TIP3   OH214798   0.562   2.760   3.510
 4945TIP3    H114799   0.614   2.699   3.562
 4945TIP3    H214800   0.613   2.775   3.431
 4946TIP3   OH214801   5.161   1.286   5.743
 4946TIP3    H114802   5.168   1.207   5.798
 4946TIP3    H214803   5.215   1.351   5.788
 4947TIP3   OH214804   4.378   2.132   3.910
 4947TIP3    H114805   4.368   2.227   3.919
 4947TIP3    H214806   4.349   2.113   3.821
 4948TIP3   OH214807   3.074   1.249   0.278
 4948TIP3    H114808   3.149   1.254   0.218
 4948TIP3    H214809   3.085   1.323   0.338
 4949TIP3   OH214810  -0.030   2.929   0.516
 4949TIP3    H114811   0.061   2.908   0.534
 4949TIP3    H214812  -0.029   2.970   0.430
 4950TIP3   OH214813   1.855   0.648   2.765
 4950TIP3    H114814   1.887   0.558   2.764
 4950TIP3    H214815   1.760   0.640   2.764
 4951TIP3   OH214816   5.541   6.663   1.996
 4951TIP3    H114817   5.570   6.603   2.065
 4951TIP3    H214818   5.468   6.710   2.035
 4952TIP3   OH214819   5.798   1.611   0.192
 4952TIP3    H114820   5.886   1.648   0.189
 4952TIP3    H214821   5.762   1.626   0.104
 4953TIP3   OH214822   0.207   0.606   3.343
 4953TIP3    H114823   0.158   0.616   3.425
 4953TIP3    H214824   0.148   0.558   3.285
 4954TIP3   OH214825   4.503   6.618   1.335
 4954TIP3    H114826   4.592   6.598   1.309
 4954TIP3    H214827   4.453   6.618   1.253
 4955TIP3   OH214828   2.036   1.084   3.488
 4955TIP3    H114829   2.051   1.114   3.398
 4955TIP3    H214830   2.015   0.991   3.479
 4956TIP3   OH214831   3.327   2.439   5.366
 4956TIP3    H114832   3.249   2.440   5.421
 4956TIP3    H214833   3.372   2.521   5.385
 4957TIP3   OH214834   2.537   0.817   2.468
 4957TIP3    H114835   2.586   0.810   2.550
 4957TIP3    H214836   2.489   0.735   2.461
 4958TIP3   OH214837   2.833   3.301   4.776
 4958TIP3    H114838   2.894   3.263   4.839
 4958TIP3    H214839   2.818   3.390   4.807
 4959TIP3   OH214840   0.366   2.067   5.633
 4959TIP3    H114841   0.453   2.066   5.594
 4959TIP3    H214842   0.311   2.110   5.567
 4960TIP3   OH214843   4.767   3.656   4.981
 4960TIP3    H114844   4.803   3.598   5.048
 4960TIP3    H214845   4.730   3.729   5.030
 4961TIP3   OH214846   4.386   4.196   3.650
 4961TIP3    H114847   4.469   4.244   3.643
 4961TIP3    H214848   4.410   4.105   3.633
 4962TIP3   OH214849   4.687   0.363   1.602
 4962TIP3    H114850   4.720   0.419   1.672
 4962TIP3    H214851   4.733   0.393   1.523
 4963TIP3   OH214852   2.163   2.053   2.373
 4963TIP3    H114853   2.089   2.111   2.389
 4963TIP3    H214854   2.123   1.970   2.347
 4964TIP3   OH214855   0.558   2.622   2.673
 4964TIP3    H114856   0.527   2.634   2.762
 4964TIP3    H214857   0.544   2.707   2.631
 4965TIP3   OH214858   2.642   6.455   5.056
 4965TIP3    H114859   2.694   6.532   5.076
 4965TIP3    H214860   2.573   6.488   4.997
 4966TIP3   OH214861   6.177   1.557   5.076
 4966TIP3    H114862   6.182   1.571   4.982
 4966TIP3    H214863   6.119   1.626   5.108
 4967TIP3   OH214864   6.875   5.572   5.153
 4967TIP3    H114865   6.821   5.610   5.221
 4967TIP3    H214866   6.813   5.530   5.093
 4968TIP3   OH214867   2.122   6.505   3.607
 4968TIP3    H114868   2.114   6.510   3.702
 4968TIP3    H214869   2.131   6.596   3.579
 4969TIP3   OH214870   4.886   3.508   0.766
 4969TIP3    H114871   4.980   3.515   0.746
 4969TIP3    H214872   4.846   3.580   0.718
 4970TIP3   OH214873   1.548   2.475   3.798
 4970TIP3    H114874   1.575   2.383   3.799
 4970TIP3    H214875   1.547   2.499   3.706
 4971TIP3   OH214876   6.966   2.712   1.841
 4971TIP3    H114877   7.040   2.667   1.799
 4971TIP3    H214878   6.910   2.739   1.768
 4972TIP3   OH214879   0.057   0.313   5.615
 4972TIP3    H114880   0.107   0.394   5.608
 4972TIP3    H214881  -0.019   0.336   5.669
 4973TIP3   OH214882   3.888   0.548   3.135
 4973TIP3    H114883   3.815   0.605   3.160
 4973TIP3    H214884   3.950   0.606   3.091
 4974TIP3   OH214885   5.793   0.743   5.167
 4974TIP3    H114886   5.787   0.695   5.085
 4974TIP3    H214887   5.702   0.760   5.192
 4975TIP3   OH214888   2.711   1.312   5.733
 4975TIP3    H114889   2.762   1.285   5.657
 4975TIP3    H214890   2.695   1.406   5.719
 4976TIP3   OH214891   5.447   6.295   4.736
 4976TIP3    H114892   5.458   6.240   4.658
 4976TIP3    H214893   5.398   6.241   4.797
 4977TIP3   OH214894   0.767   6.176   4.082
 4977TIP3    H114895   0.767   6.123   4.002
 4977TIP3    H214896   0.745   6.114   4.152
 4978TIP3   OH214897   4.937   4.817   3.476
 4978TIP3    H114898   5.013   4.848   3.526
 4978TIP3    H214899   4.892   4.757   3.535
 4979TIP3   OH214900   1.336   1.748   2.836
 4979TIP3    H114901   1.403   1.703   2.786
 4979TIP3    H214902   1.265   1.762   2.774
 4980TIP3   OH214903   2.824   6.256   3.709
 4980TIP3    H114904   2.738   6.266   3.751
 4980TIP3    H214905   2.808   6.273   3.616
 4981TIP3   OH214906   0.934   4.896   3.059
 4981TIP3    H114907   0.955   4.881   3.151
 4981TIP3    H214908   0.838   4.900   3.057
 4982TIP3   OH214909   3.430   1.681   1.518
 4982TIP3    H114910   3.382   1.677   1.435
 4982TIP3    H214911   3.381   1.744   1.570
 4983TIP3   OH214912   6.701   3.203   3.498
 4983TIP3    H114913   6.677   3.120   3.456
 4983TIP3    H214914   6.638   3.266   3.465
 4984TIP3   OH214915   4.823   4.950   4.803
 4984TIP3    H114916   4.830   4.932   4.897
 4984TIP3    H214917   4.760   4.885   4.772
 4985TIP3   OH214918   7.009   2.995   3.863
 4985TIP3    H114919   7.040   2.970   3.950
 4985TIP3    H214920   6.978   3.085   3.874
 4986TIP3   OH214921   6.128   5.642   4.279
 4986TIP3    H114922   6.142   5.718   4.336
 4986TIP3    H214923   6.205   5.639   4.222
 4987TIP3   OH214924   4.204   1.425   2.016
 4987TIP3    H114925   4.254   1.353   1.977
 4987TIP3    H214926   4.245   1.504   1.981
 4988TIP3   OH214927   4.097   3.241   4.004
 4988TIP3    H114928   4.088   3.179   4.077
 4988TIP3    H214929   4.158   3.199   3.944
 4989TIP3   OH214930   3.018   0.033   2.727
 4989TIP3    H114931   3.002   0.114   2.774
 4989TIP3    H214932   2.973   0.044   2.643
 4990TIP3   OH214933   4.287   3.184   3.793
 4990TIP3    H114934   4.256   3.115   3.735
 4990TIP3    H214935   4.306   3.258   3.736
 4991TIP3   OH214936   4.277   5.293   1.122
 4991TIP3    H114937   4.330   5.214   1.135
 4991TIP3    H214938   4.240   5.283   1.034
 4992TIP3   OH214939   2.370   6.726   0.102
 4992TIP3    H114940   2.401   6.784   0.032
 4992TIP3    H214941   2.420   6.645   0.089
 4993TIP3   OH214942   1.506   3.251   1.839
 4993TIP3    H114943   1.537   3.221   1.754
 4993TIP3    H214944   1.415   3.278   1.823
 4994TIP3   OH214945   3.292   6.316   5.823
 4994TIP3    H114946   3.360   6.354   5.879
 4994TIP3    H214947   3.275   6.230   5.862
 4995TIP3   OH214948   0.765   1.853   4.508
 4995TIP3    H114949   0.742   1.852   4.415
 4995TIP3    H214950   0.708   1.787   4.548
 4996TIP3   OH214951   4.905   1.524   5.395
 4996TIP3    H114952   4.813   1.552   5.391
 4996TIP3    H214953   4.933   1.524   5.303
 4997TIP3   OH214954   0.601   1.804   0.693
 4997TIP3    H114955   0.619   1.880   0.637
 4997TIP3    H214956   0.511   1.781   0.672
 4998TIP3   OH214957   3.390   1.566   3.398
 4998TIP3    H114958   3.402   1.502   3.328
 4998TIP3    H214959   3.422   1.521   3.477
 4999TIP3   OH214960   3.846   2.458   4.644
 4999TIP3    H114961   3.833   2.500   4.728
 4999TIP3    H214962   3.822   2.526   4.580
 5000TIP3   OH214963   4.120   4.760   0.265
 5000TIP3    H114964   4.150   4.819   0.196
 5000TIP3    H214965   4.031   4.736   0.239
 5001TIP3   OH214966   4.302   6.546   0.450
 5001TIP3    H114967   4.292   6.641   0.457
 5001TIP3    H214968   4.340   6.520   0.533
 5002TIP3   OH214969   5.615   4.354   1.861
 5002TIP3    H114970   5.585   4.264   1.853
 5002TIP3    H214971   5.672   4.353   1.938
 5003TIP3   OH214972   0.861   2.346   0.908
 5003TIP3    H114973   0.890   2.423   0.957
 5003TIP3    H214974   0.834   2.284   0.975
 5004TIP3   OH214975   4.533   0.599   5.495
 5004TIP3    H114976   4.585   0.519   5.485
 5004TIP3    H214977   4.590   0.658   5.545
 5005TIP3   OH214978   6.615   1.254   3.242
 5005TIP3    H114979   6.539   1.199   3.224
 5005TIP3    H214980   6.590   1.340   3.208
 5006TIP3   OH214981   2.012   0.870   1.210
 5006TIP3    H114982   2.018   0.934   1.139
 5006TIP3    H214983   1.996   0.923   1.288
 5007TIP3   OH214984   5.297   5.318   2.382
 5007TIP3    H114985   5.318   5.263   2.306
 5007TIP3    H214986   5.382   5.351   2.412
 5008TIP3   OH214987   1.763   3.017   5.827
 5008TIP3    H114988   1.830   2.996   5.893
 5008TIP3    H214989   1.723   3.098   5.860
 5009TIP3   OH214990   2.279   4.940   4.768
 5009TIP3    H114991   2.293   4.875   4.836
 5009TIP3    H214992   2.198   4.985   4.794
 5010TIP3   OH214993   5.452   1.620   1.984
 5010TIP3    H114994   5.485   1.705   2.015
 5010TIP3    H214995   5.387   1.595   2.049
 5011TIP3   OH214996   3.173   5.365   1.468
 5011TIP3    H114997   3.122   5.377   1.548
 5011TIP3    H214998   3.146   5.438   1.412
 5012TIP3   OH214999   1.124   5.178   0.814
 5012TIP3    H115000   1.114   5.086   0.837
 5012TIP3    H215001   1.071   5.189   0.735
 5013TIP3   OH215002   2.304   3.669   3.383
 5013TIP3    H115003   2.366   3.739   3.362
 5013TIP3    H215004   2.350   3.616   3.448
 5014TIP3   OH215005   6.675   1.154   4.999
 5014TIP3    H115006   6.739   1.215   4.965
 5014TIP3    H215007   6.598   1.208   5.018
 5015TIP3   OH215008   6.301   6.364   5.884
 5015TIP3    H115009   6.249   6.285   5.869
 5015TIP3    H215010   6.380   6.351   5.832
 5016TIP3   OH215011   2.604   3.047   4.479
 5016TIP3    H115012   2.678   3.091   4.523
 5016TIP3    H215013   2.570   2.987   4.545
 5017TIP3   OH215014   0.662   6.294   0.828
 5017TIP3    H115015   0.573   6.267   0.803
 5017TIP3    H215016   0.716   6.217   0.811
 5018TIP3   OH215017   7.042   1.616   3.472
 5018TIP3    H115018   7.115   1.667   3.440
 5018TIP3    H215019   6.971   1.679   3.484
 5019TIP3   OH215020   6.551   5.853   3.227
 5019TIP3    H115021   6.640   5.877   3.254
 5019TIP3    H215022   6.542   5.761   3.252
 5020TIP3   OH215023   3.299   4.645   4.623
 5020TIP3    H115024   3.370   4.684   4.674
 5020TIP3    H215025   3.337   4.629   4.536
 5021TIP3   OH215026   1.773   6.608   5.374
 5021TIP3    H115027   1.848   6.609   5.315
 5021TIP3    H215028   1.757   6.516   5.393
 5022TIP3   OH215029   2.609   1.336   0.188
 5022TIP3    H115030   2.552   1.259   0.197
 5022TIP3    H215031   2.689   1.303   0.148
 5023TIP3   OH215032   6.771   4.649   1.498
 5023TIP3    H115033   6.800   4.617   1.583
 5023TIP3    H215034   6.688   4.604   1.482
 5024TIP3   OH215035   3.596   5.568   1.039
 5024TIP3    H115036   3.656   5.607   0.975
 5024TIP3    H215037   3.524   5.534   0.986
 5025TIP3   OH215038   4.356   0.540   0.266
 5025TIP3    H115039   4.419   0.611   0.267
 5025TIP3    H215040   4.296   0.559   0.339
 5026TIP3   OH215041   1.827   5.299   4.830
 5026TIP3    H115042   1.786   5.265   4.750
 5026TIP3    H215043   1.755   5.338   4.879
 5027TIP3   OH215044   2.548   0.761   4.660
 5027TIP3    H115045   2.545   0.847   4.619
 5027TIP3    H215046   2.507   0.773   4.746
 5028TIP3   OH215047   5.542   3.085   2.836
 5028TIP3    H115048   5.450   3.106   2.819
 5028TIP3    H215049   5.588   3.110   2.756
 5029TIP3   OH215050   0.807   5.475   5.097
 5029TIP3    H115051   0.753   5.525   5.036
 5029TIP3    H215052   0.893   5.517   5.092
 5030TIP3   OH215053   2.138   5.169   2.235
 5030TIP3    H115054   2.152   5.121   2.154
 5030TIP3    H215055   2.167   5.259   2.215
 5031TIP3   OH215056   1.878   4.579   2.326
 5031TIP3    H115057   1.870   4.567   2.420
 5031TIP3    H215058   1.912   4.496   2.294
 5032TIP3   OH215059   4.495   1.735   4.132
 5032TIP3    H115060   4.518   1.654   4.178
 5032TIP3    H215061   4.508   1.804   4.198
 5033TIP3   OH215062   6.273   6.765   1.383
 5033TIP3    H115063   6.241   6.782   1.295
 5033TIP3    H215064   6.198   6.781   1.440
 5034TIP3   OH215065   5.790   6.434   1.663
 5034TIP3    H115066   5.771   6.525   1.687
 5034TIP3    H215067   5.723   6.411   1.599
 5035TIP3   OH215068   0.571   0.289   5.300
 5035TIP3    H115069   0.567   0.354   5.370
 5035TIP3    H215070   0.662   0.257   5.302
 5036TIP3   OH215071   2.301   2.478   3.204
 5036TIP3    H115072   2.237   2.519   3.263
 5036TIP3    H215073   2.363   2.434   3.263
 5037TIP3   OH215074   5.429   2.649   1.631
 5037TIP3    H115075   5.459   2.569   1.674
 5037TIP3    H215076   5.419   2.712   1.702
 5038TIP3   OH215077   5.215   2.969  -0.026
 5038TIP3    H115078   5.138   2.990  -0.080
 5038TIP3    H215079   5.178   2.931   0.054
 5039TIP3   OH215080   6.454   3.793   5.235
 5039TIP3    H115081   6.401   3.821   5.309
 5039TIP3    H215082   6.410   3.714   5.202
 5040TIP3   OH215083   6.653   3.832   0.653
 5040TIP3    H115084   6.731   3.821   0.707
 5040TIP3    H215085   6.582   3.795   0.704
 5041TIP3   OH215086   0.964   3.707   3.668
 5041TIP3    H115087   1.048   3.746   3.694
 5041TIP3    H215088   0.954   3.732   3.576
 5042TIP3   OH215089   7.191   1.844   0.822
 5042TIP3    H115090   7.261   1.836   0.886
 5042TIP3    H215091   7.229   1.810   0.741
 5043TIP3   OH215092   5.858   5.136   1.558
 5043TIP3    H115093   5.867   5.136   1.463
 5043TIP3    H215094   5.817   5.220   1.579
 5044TIP3   OH215095   6.656   6.055   4.110
 5044TIP3    H115096   6.628   5.967   4.082
 5044TIP3    H215097   6.692   6.041   4.198
 5045TIP3   OH215098   2.759   0.432   1.737
 5045TIP3    H115099   2.776   0.452   1.829
 5045TIP3    H215100   2.686   0.370   1.738
 5046TIP3   OH215101   1.214   6.582   2.583
 5046TIP3    H115102   1.258   6.506   2.620
 5046TIP3    H215103   1.230   6.576   2.488
 5047TIP3   OH215104   6.823   0.181   5.758
 5047TIP3    H115105   6.902   0.128   5.749
 5047TIP3    H215106   6.751   0.118   5.750
 5048TIP3   OH215107   6.633   1.875   2.394
 5048TIP3    H115108   6.623   1.955   2.446
 5048TIP3    H215109   6.669   1.905   2.311
 5049TIP3   OH215110   5.878   2.385   3.415
 5049TIP3    H115111   5.853   2.477   3.405
 5049TIP3    H215112   5.823   2.338   3.353
 5050TIP3   OH215113   2.070   3.956   2.646
 5050TIP3    H115114   2.051   3.875   2.599
 5050TIP3    H215115   2.139   3.932   2.708
 5051TIP3   OH215116   0.892   2.014   5.429
 5051TIP3    H115117   0.808   2.055   5.451
 5051TIP3    H215118   0.894   2.014   5.333
 5052TIP3   OH215119   7.181   0.612   5.450
 5052TIP3    H115120   7.093   0.578   5.469
 5052TIP3    H215121   7.234   0.587   5.525
 5053TIP3   OH215122   2.569   6.046   4.618
 5053TIP3    H115123   2.659   6.068   4.639
 5053TIP3    H215124   2.534   6.005   4.697
 5054TIP3   OH215125   2.230   2.059   0.444
 5054TIP3    H115126   2.260   2.094   0.528
 5054TIP3    H215127   2.163   1.995   0.467
 5055TIP3   OH215128   6.187   3.318   3.037
 5055TIP3    H115129   6.116   3.382   3.037
 5055TIP3    H215130   6.204   3.300   3.129
 5056TIP3   OH215131   4.701   6.373   4.194
 5056TIP3    H115132   4.762   6.315   4.239
 5056TIP3    H215133   4.615   6.335   4.210
 5057TIP3   OH215134   1.249   2.247   3.775
 5057TIP3    H115135   1.344   2.235   3.775
 5057TIP3    H215136   1.213   2.160   3.757
 5058TIP3   OH215137   4.871   6.636   1.069
 5058TIP3    H115138   4.825   6.693   1.007
 5058TIP3    H215139   4.936   6.590   1.016
 5059TIP3   OH215140   0.897   5.227   2.109
 5059TIP3    H115141   0.866   5.143   2.143
 5059TIP3    H215142   0.990   5.227   2.129
 5060TIP3   OH215143   0.426   2.417   4.829
 5060TIP3    H115144   0.406   2.466   4.749
 5060TIP3    H215145   0.491   2.352   4.801
 5061TIP3   OH215146   3.153   0.381   0.465
 5061TIP3    H115147   3.138   0.453   0.403
 5061TIP3    H215148   3.090   0.314   0.440
 5062TIP3   OH215149   3.400   1.195   0.624
 5062TIP3    H115150   3.487   1.224   0.595
 5062TIP3    H215151   3.354   1.172   0.543
 5063TIP3   OH215152   3.523   3.455   0.411
 5063TIP3    H115153   3.453   3.391   0.407
 5063TIP3    H215154   3.601   3.408   0.382
 5064TIP3   OH215155   2.018   3.768   4.868
 5064TIP3    H115156   2.106   3.804   4.871
 5064TIP3    H215157   2.028   3.677   4.898
 5065TIP3   OH215158   6.886   3.513   0.181
 5065TIP3    H115159   6.864   3.592   0.132
 5065TIP3    H215160   6.824   3.447   0.149
 5066TIP3   OH215161   7.240   5.939   4.412
 5066TIP3    H115162   7.197   6.007   4.361
 5066TIP3    H215163   7.200   5.857   4.381
 5067TIP3   OH215164   0.650   2.563   3.054
 5067TIP3    H115165   0.587   2.605   2.996
 5067TIP3    H215166   0.604   2.487   3.090
 5068TIP3   OH215167   5.551   1.434   3.098
 5068TIP3    H115168   5.551   1.529   3.112
 5068TIP3    H215169   5.602   1.400   3.172
 5069TIP3   OH215170   3.731   3.731   5.879
 5069TIP3    H115171   3.762   3.741   5.789
 5069TIP3    H215172   3.763   3.645   5.906
 5070TIP3   OH215173   0.757   4.680   2.792
 5070TIP3    H115174   0.848   4.651   2.803
 5070TIP3    H215175   0.718   4.616   2.732
 5071TIP3   OH215176   4.307   3.269   4.478
 5071TIP3    H115177   4.376   3.268   4.412
 5071TIP3    H215178   4.250   3.341   4.453
 5072TIP3   OH215179   2.426   5.891   2.130
 5072TIP3    H115180   2.509   5.937   2.135
 5072TIP3    H215181   2.450   5.801   2.105
 5073TIP3   OH215182   3.225   1.606   2.029
 5073TIP3    H115183   3.292   1.592   1.963
 5073TIP3    H215184   3.156   1.655   1.984
 5074TIP3   OH215185   4.505   0.201   4.046
 5074TIP3    H115186   4.570   0.192   4.115
 5074TIP3    H215187   4.545   0.159   3.970
 5075TIP3   OH215188   2.396   5.028   2.907
 5075TIP3    H115189   2.359   4.980   2.833
 5075TIP3    H215190   2.407   5.117   2.873
 5076TIP3   OH215191   3.048   3.051   4.077
 5076TIP3    H115192   3.008   3.136   4.097
 5076TIP3    H215193   3.126   3.048   4.133
 5077TIP3   OH215194   6.060   3.920   4.481
 5077TIP3    H115195   6.064   3.910   4.386
 5077TIP3    H215196   6.141   3.966   4.504
 5078TIP3   OH215197   2.149   5.473   0.453
 5078TIP3    H115198   2.154   5.466   0.549
 5078TIP3    H215199   2.079   5.412   0.429
 5079TIP3   OH215200   4.834   6.098   2.837
 5079TIP3    H115201   4.857   6.019   2.884
 5079TIP3    H215202   4.782   6.149   2.900
 5080TIP3   OH215203   0.463   4.023   4.542
 5080TIP3    H115204   0.422   4.103   4.511
 5080TIP3    H215205   0.535   4.052   4.597
 5081TIP3   OH215206   0.616   5.696   1.101
 5081TIP3    H115207   0.646   5.637   1.170
 5081TIP3    H215208   0.656   5.781   1.124
 5082TIP3   OH215209   6.656   5.694   1.457
 5082TIP3    H115210   6.676   5.747   1.380
 5082TIP3    H215211   6.560   5.693   1.461
 5083TIP3   OH215212   6.120   5.891   3.384
 5083TIP3    H115213   6.048   5.832   3.364
 5083TIP3    H215214   6.141   5.873   3.476
 5084TIP3   OH215215   3.798   6.719   0.739
 5084TIP3    H115216   3.715   6.761   0.715
 5084TIP3    H215217   3.824   6.669   0.662
 5085TIP3   OH215218   2.921   4.504   3.082
 5085TIP3    H115219   2.898   4.472   3.169
 5085TIP3    H215220   2.993   4.565   3.098
 5086TIP3   OH215221   3.412   3.334   3.867
 5086TIP3    H115222   3.474   3.326   3.939
 5086TIP3    H215223   3.342   3.388   3.902
 5087TIP3   OH215224   6.743   2.514   1.918
 5087TIP3    H115225   6.667   2.507   1.860
 5087TIP3    H215226   6.794   2.587   1.883
 5088TIP3   OH215227   5.022   5.257   1.317
 5088TIP3    H115228   5.000   5.348   1.293
 5088TIP3    H215229   4.995   5.251   1.409
 5089TIP3   OH215230   4.719   4.544   4.544
 5089TIP3    H115231   4.760   4.475   4.595
 5089TIP3    H215232   4.628   4.516   4.534
 5090TIP3   OH215233   5.732   6.499   2.159
 5090TIP3    H115234   5.796   6.567   2.139
 5090TIP3    H215235   5.731   6.495   2.255
 5091TIP3   OH215236   4.222   6.623   3.262
 5091TIP3    H115237   4.192   6.536   3.235
 5091TIP3    H215238   4.242   6.614   3.355
 5092TIP3   OH215239   2.909   4.333   2.681
 5092TIP3    H115240   2.863   4.264   2.633
 5092TIP3    H215241   2.904   4.305   2.773
 5093TIP3   OH215242   5.606   5.872   1.225
 5093TIP3    H115243   5.518   5.873   1.262
 5093TIP3    H215244   5.602   5.933   1.152
 5094TIP3   OH215245   2.820   2.981   1.977
 5094TIP3    H115246   2.773   2.901   1.954
 5094TIP3    H215247   2.776   3.013   2.056
 5095TIP3   OH215248   6.248   4.442   5.623
 5095TIP3    H115249   6.282   4.470   5.708
 5095TIP3    H215250   6.161   4.408   5.641
 5096TIP3   OH215251   1.372   1.491   1.848
 5096TIP3    H115252   1.388   1.448   1.932
 5096TIP3    H215253   1.384   1.421   1.783
 5097TIP3   OH215254   0.786   4.262   0.388
 5097TIP3    H115255   0.769   4.318   0.312
 5097TIP3    H215256   0.715   4.282   0.448
 5098TIP3   OH215257   2.355   4.596   3.356
 5098TIP3    H115258   2.333   4.655   3.428
 5098TIP3    H215259   2.374   4.653   3.282
 5099TIP3   OH215260   7.222   4.652   3.205
 5099TIP3    H115261   7.211   4.641   3.110
 5099TIP3    H215262   7.193   4.742   3.221
 5100TIP3   OH215263   5.195   0.720   3.930
 5100TIP3    H115264   5.110   0.675   3.928
 5100TIP3    H215265   5.216   0.728   4.022
 5101TIP3   OH215266   2.174   0.795   1.443
 5101TIP3    H115267   2.141   0.711   1.474
 5101TIP3    H215268   2.214   0.776   1.359
 5102TIP3   OH215269   0.741   1.502   2.975
 5102TIP3    H115270   0.777   1.489   3.063
 5102TIP3    H215271   0.649   1.479   2.983
 5103TIP3   OH215272   6.191   2.603   0.050
 5103TIP3    H115273   6.243   2.554  -0.014
 5103TIP3    H215274   6.107   2.617   0.006
 5104TIP3   OH215275   1.179   3.276   0.412
 5104TIP3    H115276   1.238   3.207   0.381
 5104TIP3    H215277   1.093   3.252   0.376
 5105TIP3   OH215278   3.917   2.930   3.522
 5105TIP3    H115279   3.859   2.874   3.574
 5105TIP3    H215280   3.859   2.993   3.481
 5106TIP3   OH215281   5.922   0.322   2.750
 5106TIP3    H115282   5.864   0.327   2.827
 5106TIP3    H215283   5.905   0.403   2.703
 5107TIP3   OH215284   6.698   2.009   3.123
 5107TIP3    H115285   6.765   1.942   3.109
 5107TIP3    H215286   6.744   2.079   3.169
 5108TIP3   OH215287   0.105   4.335   4.373
 5108TIP3    H115288   0.077   4.342   4.464
 5108TIP3    H215289   0.197   4.309   4.378
 5109TIP3   OH215290   5.962   3.980   3.289
 5109TIP3    H115291   6.008   3.950   3.368
 5109TIP3    H215292   5.922   3.900   3.253
 5110TIP3   OH215293   2.631   0.940   4.961
 5110TIP3    H115294   2.591   0.856   4.937
 5110TIP3    H215295   2.658   0.978   4.877
 5111TIP3   OH215296   6.976   0.862   2.541
 5111TIP3    H115297   6.899   0.915   2.522
 5111TIP3    H215298   6.954   0.816   2.622
 5112TIP3   OH215299   4.425   0.037   4.366
 5112TIP3    H115300   4.512   0.004   4.385
 5112TIP3    H215301   4.394  -0.018   4.293
 5113TIP3   OH215302   3.046   3.835   5.529
 5113TIP3    H115303   3.065   3.824   5.622
 5113TIP3    H215304   3.118   3.791   5.484
 5114TIP3   OH215305   2.682   1.191   2.623
 5114TIP3    H115306   2.701   1.169   2.531
 5114TIP3    H215307   2.704   1.112   2.672
 5115TIP3   OH215308   3.507   1.062   1.849
 5115TIP3    H115309   3.551   1.076   1.933
 5115TIP3    H215310   3.565   1.003   1.801
 5116TIP3   OH215311   4.797   2.370   2.376
 5116TIP3    H115312   4.782   2.385   2.470
 5116TIP3    H215313   4.709   2.363   2.339
 5117TIP3   OH215314   5.251   4.520   0.032
 5117TIP3    H115315   5.204   4.583  -0.023
 5117TIP3    H215316   5.339   4.557   0.041
 5118TIP3   OH215317   0.129   3.640   1.829
 5118TIP3    H115318   0.194   3.681   1.772
 5118TIP3    H215319   0.054   3.699   1.827
 5119TIP3   OH215320   2.927   6.620   5.344
 5119TIP3    H115321   2.953   6.621   5.436
 5119TIP3    H215322   2.937   6.528   5.318
 5120TIP3   OH215323   6.258   3.228   1.365
 5120TIP3    H115324   6.170   3.200   1.391
 5120TIP3    H215325   6.256   3.323   1.373
 5121TIP3   OH215326   1.313   0.357   4.660
 5121TIP3    H115327   1.374   0.378   4.589
 5121TIP3    H215328   1.296   0.441   4.704
 5122TIP3   OH215329   6.042   3.339   4.520
 5122TIP3    H115330   6.096   3.368   4.594
 5122TIP3    H215331   6.094   3.270   4.478
 5123TIP3   OH215332   6.981   4.362   5.610
 5123TIP3    H115333   6.906   4.402   5.567
 5123TIP3    H215334   7.001   4.421   5.683
 5124TIP3   OH215335   5.415   3.624   3.114
 5124TIP3    H115336   5.329   3.607   3.153
 5124TIP3    H215337   5.457   3.539   3.110
 5125TIP3   OH215338   0.777   2.965   1.836
 5125TIP3    H115339   0.762   2.949   1.742
 5125TIP3    H215340   0.734   2.891   1.879
 5126TIP3   OH215341   1.333   4.937   2.971
 5126TIP3    H115342   1.406   4.999   2.960
 5126TIP3    H215343   1.360   4.860   2.921
 5127TIP3   OH215344   6.374   0.021   0.940
 5127TIP3    H115345   6.465   0.004   0.915
 5127TIP3    H215346   6.322  -0.029   0.877
 5128TIP3   OH215347   5.053   5.807   5.823
 5128TIP3    H115348   4.975   5.753   5.808
 5128TIP3    H215349   5.027   5.868   5.891
 5129TIP3   OH215350   5.839   2.714   5.227
 5129TIP3    H115351   5.767   2.684   5.284
 5129TIP3    H215352   5.918   2.677   5.267
 5130TIP3   OH215353   1.980   0.555   1.467
 5130TIP3    H115354   1.930   0.564   1.548
 5130TIP3    H215355   2.057   0.503   1.492
 5131TIP3   OH215356   3.870   1.205   0.456
 5131TIP3    H115357   3.868   1.123   0.505
 5131TIP3    H215358   3.826   1.186   0.374
 5132TIP3   OH215359   6.982   2.319   3.053
 5132TIP3    H115360   6.929   2.285   3.125
 5132TIP3    H215361   7.073   2.301   3.079
 5133TIP3   OH215362   4.344   2.416   2.341
 5133TIP3    H115363   4.263   2.378   2.376
 5133TIP3    H215364   4.414   2.362   2.376
 5134TIP3   OH215365   1.302   5.994   2.902
 5134TIP3    H115366   1.246   5.965   2.974
 5134TIP3    H215367   1.255   5.968   2.823
 5135TIP3   OH215368   0.149   6.494   1.333
 5135TIP3    H115369   0.086   6.566   1.330
 5135TIP3    H215370   0.204   6.514   1.408
 5136TIP3   OH215371   5.214   4.072   5.569
 5136TIP3    H115372   5.251   4.065   5.481
 5136TIP3    H215373   5.120   4.083   5.555
 5137TIP3   OH215374   4.392   2.437   2.647
 5137TIP3    H115375   4.347   2.361   2.610
 5137TIP3    H215376   4.383   2.427   2.742
 5138TIP3   OH215377   6.530   0.498   5.249
 5138TIP3    H115378   6.611   0.502   5.198
 5138TIP3    H215379   6.541   0.564   5.318
 5139TIP3   OH215380   5.503   0.535   3.026
 5139TIP3    H115381   5.502   0.443   3.052
 5139TIP3    H215382   5.471   0.582   3.103
 5140TIP3   OH215383   5.056   3.212   2.140
 5140TIP3    H115384   5.058   3.173   2.227
 5140TIP3    H215385   5.017   3.299   2.153
 5141TIP3   OH215386   5.551   0.597   1.731
 5141TIP3    H115387   5.511   0.543   1.798
 5141TIP3    H215388   5.587   0.673   1.778
 5142TIP3   OH215389   7.145   4.906   3.512
 5142TIP3    H115390   7.110   4.906   3.422
 5142TIP3    H215391   7.239   4.888   3.501
 5143TIP3   OH215392   3.644   1.058   2.802
 5143TIP3    H115393   3.705   1.127   2.778
 5143TIP3    H215394   3.676   0.981   2.755
 5144TIP3   OH215395   5.991   0.079   2.958
 5144TIP3    H115396   5.935   0.003   2.976
 5144TIP3    H215397   5.934   0.154   2.970
 5145TIP3   OH215398   2.812   4.424   5.849
 5145TIP3    H115399   2.820   4.483   5.924
 5145TIP3    H215400   2.739   4.366   5.871
 5146TIP3   OH215401   2.507   5.835   3.242
 5146TIP3    H115402   2.581   5.841   3.302
 5146TIP3    H215403   2.468   5.749   3.261
 5147TIP3   OH215404   3.138   1.654   4.942
 5147TIP3    H115405   3.228   1.620   4.944
 5147TIP3    H215406   3.103   1.624   4.859
 5148TIP3   OH215407   3.219   0.291   0.712
 5148TIP3    H115408   3.210   0.324   0.623
 5148TIP3    H215409   3.256   0.365   0.761
 5149TIP3   OH215410   7.138   3.706   3.961
 5149TIP3    H115411   7.212   3.701   3.900
 5149TIP3    H215412   7.172   3.669   4.043
 5150TIP3   OH215413   4.680   1.410   1.200
 5150TIP3    H115414   4.685   1.387   1.293
 5150TIP3    H215415   4.621   1.485   1.197
 5151TIP3   OH215416   2.122   1.451   3.760
 5151TIP3    H115417   2.091   1.363   3.738
 5151TIP3    H215418   2.117   1.456   3.855
 5152TIP3   OH215419   0.908   4.012   3.030
 5152TIP3    H115420   0.906   3.998   2.936
 5152TIP3    H215421   0.957   4.094   3.041
 5153TIP3   OH215422   6.367   1.320   1.413
 5153TIP3    H115423   6.458   1.344   1.392
 5153TIP3    H215424   6.321   1.321   1.330
 5154TIP3   OH215425   6.546   0.680   1.396
 5154TIP3    H115426   6.526   0.640   1.481
 5154TIP3    H215427   6.509   0.619   1.332
 5155TIP3   OH215428   0.314   6.835   2.617
 5155TIP3    H115429   0.273   6.752   2.640
 5155TIP3    H215430   0.318   6.835   2.522
 5156TIP3   OH215431   4.890   0.224   1.269
 5156TIP3    H115432   4.796   0.241   1.274
 5156TIP3    H215433   4.924   0.295   1.214
 5157TIP3   OH215434   4.650   1.787   1.999
 5157TIP3    H115435   4.704   1.737   1.937
 5157TIP3    H215436   4.713   1.829   2.058
 5158TIP3   OH215437   5.794   5.674   4.074
 5158TIP3    H115438   5.734   5.611   4.034
 5158TIP3    H215439   5.739   5.748   4.098
 5159TIP3   OH215440   2.394   2.422   3.535
 5159TIP3    H115441   2.473   2.442   3.484
 5159TIP3    H215442   2.326   2.478   3.498
 5160TIP3   OH215443   1.011   2.683   4.317
 5160TIP3    H115444   1.100   2.694   4.349
 5160TIP3    H215445   0.971   2.769   4.327
 5161TIP3   OH215446   0.891   2.646   2.660
 5161TIP3    H115447   0.824   2.579   2.660
 5161TIP3    H215448   0.859   2.712   2.598
 5162TIP3   OH215449   4.811   6.602   1.347
 5162TIP3    H115450   4.891   6.617   1.399
 5162TIP3    H215451   4.836   6.626   1.258
 5163TIP3   OH215452   4.897   1.343   3.035
 5163TIP3    H115453   4.809   1.375   3.053
 5163TIP3    H215454   4.885   1.277   2.966
 5164TIP3   OH215455   0.400   4.644   2.248
 5164TIP3    H115456   0.341   4.569   2.242
 5164TIP3    H215457   0.435   4.654   2.159
 5165TIP3   OH215458   6.727   5.194   1.960
 5165TIP3    H115459   6.709   5.180   2.053
 5165TIP3    H215460   6.662   5.258   1.932
 5166TIP3   OH215461   0.425   0.644   2.150
 5166TIP3    H115462   0.464   0.582   2.090
 5166TIP3    H215463   0.498   0.675   2.204
 5167TIP3   OH215464   4.191   4.489   5.699
 5167TIP3    H115465   4.173   4.395   5.687
 5167TIP3    H215466   4.188   4.501   5.794
 5168TIP3   OH215467   7.028   0.466   0.660
 5168TIP3    H115468   7.079   0.413   0.720
 5168TIP3    H215469   6.940   0.469   0.699
 5169TIP3   OH215470   6.773   6.028   0.422
 5169TIP3    H115471   6.678   6.029   0.411
 5169TIP3    H215472   6.786   5.996   0.511
 5170TIP3   OH215473   6.637   4.931   4.395
 5170TIP3    H115474   6.707   4.940   4.460
 5170TIP3    H215475   6.597   4.846   4.415
 5171TIP3   OH215476   2.824   0.070   5.462
 5171TIP3    H115477   2.838   0.005   5.531
 5171TIP3    H215478   2.819   0.153   5.508
 5172TIP3   OH215479   1.161   4.528   3.938
 5172TIP3    H115480   1.089   4.485   3.984
 5172TIP3    H215481   1.235   4.468   3.947
 5173TIP3   OH215482   4.557   0.831   1.686
 5173TIP3    H115483   4.594   0.915   1.712
 5173TIP3    H215484   4.549   0.837   1.591
 5174TIP3   OH215485   3.436   3.314   1.400
 5174TIP3    H115486   3.523   3.352   1.396
 5174TIP3    H215487   3.377   3.389   1.396
 5175TIP3   OH215488   5.555   4.898   4.166
 5175TIP3    H115489   5.532   4.846   4.088
 5175TIP3    H215490   5.636   4.858   4.198
 5176TIP3   OH215491   4.539   2.590   2.124
 5176TIP3    H115492   4.548   2.658   2.191
 5176TIP3    H215493   4.447   2.564   2.127
 5177TIP3   OH215494   3.376   6.085   0.986
 5177TIP3    H115495   3.315   6.031   0.936
 5177TIP3    H215496   3.411   6.027   1.054
 5178TIP3   OH215497   3.049   3.796   1.725
 5178TIP3    H115498   3.016   3.800   1.815
 5178TIP3    H215499   3.138   3.830   1.730
 5179TIP3   OH215500   5.875   3.709   5.117
 5179TIP3    H115501   5.899   3.617   5.102
 5179TIP3    H215502   5.957   3.750   5.146
 5180TIP3   OH215503   6.635   3.535   1.572
 5180TIP3    H115504   6.541   3.521   1.571
 5180TIP3    H215505   6.657   3.543   1.665
 5181TIP3   OH215506   4.089   1.020   0.308
 5181TIP3    H115507   4.001   1.054   0.325
 5181TIP3    H215508   4.077   0.955   0.240
 5182TIP3   OH215509   4.440   2.573   3.514
 5182TIP3    H115510   4.453   2.516   3.439
 5182TIP3    H215511   4.381   2.524   3.572
 5183TIP3   OH215512   0.443   4.625   5.688
 5183TIP3    H115513   0.380   4.586   5.626
 5183TIP3    H215514   0.519   4.647   5.634
 5184TIP3   OH215515   2.941   2.576   2.297
 5184TIP3    H115516   3.030   2.608   2.279
 5184TIP3    H215517   2.923   2.606   2.386
 5185TIP3   OH215518   3.234   6.163   4.525
 5185TIP3    H115519   3.175   6.089   4.511
 5185TIP3    H215520   3.293   6.161   4.450
 5186TIP3   OH215521   3.691   1.330   4.153
 5186TIP3    H115522   3.619   1.271   4.175
 5186TIP3    H215523   3.770   1.279   4.172
 5187TIP3   OH215524   1.390   6.460   4.047
 5187TIP3    H115525   1.430   6.533   4.095
 5187TIP3    H215526   1.453   6.438   3.979
 5188TIP3   OH215527   5.059   2.089   2.187
 5188TIP3    H115528   5.095   2.138   2.261
 5188TIP3    H215529   5.039   2.156   2.121
 5189TIP3   OH215530   6.465   3.348   3.715
 5189TIP3    H115531   6.505   3.364   3.630
 5189TIP3    H215532   6.397   3.282   3.698
 5190TIP3   OH215533   0.307   0.340   4.702
 5190TIP3    H115534   0.279   0.366   4.614
 5190TIP3    H215535   0.380   0.280   4.687
 5191TIP3   OH215536   1.937   0.579   1.742
 5191TIP3    H115537   1.982   0.663   1.746
 5191TIP3    H215538   1.844   0.602   1.741
 5192TIP3   OH215539   3.475   5.298   0.378
 5192TIP3    H115540   3.509   5.363   0.316
 5192TIP3    H215541   3.393   5.337   0.410
 5193TIP3   OH215542   2.242   6.003   0.293
 5193TIP3    H115543   2.300   5.971   0.362
 5193TIP3    H215544   2.289   6.075   0.253
 5194TIP3   OH215545   1.573   4.133   0.530
 5194TIP3    H115546   1.624   4.185   0.592
 5194TIP3    H215547   1.557   4.050   0.576
 5195TIP3   OH215548   1.146   2.937   2.627
 5195TIP3    H115549   1.220   2.990   2.597
 5195TIP3    H215550   1.070   2.979   2.587
 5196TIP3   OH215551   0.746   0.336   1.195
 5196TIP3    H115552   0.801   0.386   1.135
 5196TIP3    H215553   0.716   0.261   1.144
 5197TIP3   OH215554   6.746   0.982   2.463
 5197TIP3    H115555   6.668   0.929   2.482
 5197TIP3    H215556   6.716   1.072   2.472
 5198TIP3   OH215557   4.898   3.005   2.637
 5198TIP3    H115558   4.864   2.943   2.701
 5198TIP3    H215559   4.848   3.085   2.652
 5199TIP3   OH215560   0.452   1.384   5.091
 5199TIP3    H115561   0.508   1.306   5.090
 5199TIP3    H215562   0.377   1.359   5.036
 5200TIP3   OH215563   4.606   2.730   3.862
 5200TIP3    H115564   4.544   2.733   3.936
 5200TIP3    H215565   4.656   2.650   3.876
 5201TIP3   OH215566   2.742   6.270   2.724
 5201TIP3    H115567   2.679   6.315   2.668
 5201TIP3    H215568   2.740   6.319   2.806
 5202TIP3   OH215569   4.483   3.391   5.891
 5202TIP3    H115570   4.521   3.303   5.889
 5202TIP3    H215571   4.533   3.440   5.825
 5203TIP3   OH215572   1.943   3.745   2.988
 5203TIP3    H115573   2.015   3.706   3.037
 5203TIP3    H215574   1.955   3.839   3.000
 5204TIP3   OH215575   5.302   3.469   3.804
 5204TIP3    H115576   5.363   3.404   3.767
 5204TIP3    H215577   5.257   3.505   3.727
 5205TIP3   OH215578   4.416   5.602   4.679
 5205TIP3    H115579   4.362   5.648   4.615
 5205TIP3    H215580   4.465   5.671   4.724
 5206TIP3   OH215581   1.646   6.450   0.298
 5206TIP3    H115582   1.730   6.482   0.331
 5206TIP3    H215583   1.652   6.355   0.306
 5207TIP3   OH215584   2.514   3.863   2.548
 5207TIP3    H115585   2.566   3.793   2.588
 5207TIP3    H215586   2.493   3.831   2.460
 5208TIP3   OH215587   1.016   1.492   0.119
 5208TIP3    H115588   1.082   1.445   0.169
 5208TIP3    H215589   1.063   1.567   0.082
 5209TIP3   OH215590   3.755   1.074   5.004
 5209TIP3    H115591   3.812   1.033   5.069
 5209TIP3    H215592   3.757   1.015   4.929
 5210TIP3   OH215593   0.801   5.429   4.180
 5210TIP3    H115594   0.841   5.514   4.202
 5210TIP3    H215595   0.707   5.446   4.183
 5211TIP3   OH215596   3.830   5.086   5.623
 5211TIP3    H115597   3.899   5.090   5.689
 5211TIP3    H215598   3.749   5.087   5.673
 5212TIP3   OH215599   4.372   4.213   2.894
 5212TIP3    H115600   4.436   4.247   2.832
 5212TIP3    H215601   4.315   4.287   2.912
 5213TIP3   OH215602   6.771   0.748   1.759
 5213TIP3    H115603   6.695   0.788   1.801
 5213TIP3    H215604   6.783   0.798   1.678
 5214TIP3   OH215605   5.333   4.472   1.306
 5214TIP3    H115606   5.413   4.518   1.331
 5214TIP3    H215607   5.296   4.526   1.236
 5215TIP3   OH215608   2.689   1.749   5.000
 5215TIP3    H115609   2.765   1.699   5.028
 5215TIP3    H215610   2.722   1.806   4.930
 5216TIP3   OH215611   5.667   4.881   4.880
 5216TIP3    H115612   5.647   4.789   4.896
 5216TIP3    H215613   5.696   4.915   4.965
 5217TIP3   OH215614   0.030   3.559   3.622
 5217TIP3    H115615   0.050   3.631   3.682
 5217TIP3    H215616   0.013   3.602   3.538
 5218TIP3   OH215617   1.327   2.954   3.257
 5218TIP3    H115618   1.326   3.018   3.185
 5218TIP3    H215619   1.403   2.899   3.238
 5219TIP3   OH215620   3.748   3.205   1.688
 5219TIP3    H115621   3.785   3.289   1.660
 5219TIP3    H215622   3.670   3.228   1.737
 5220TIP3   OH215623   0.054   4.586   4.825
 5220TIP3    H115624  -0.002   4.632   4.763
 5220TIP3    H215625   0.115   4.653   4.856
 5221TIP3   OH215626   4.215   0.820   2.906
 5221TIP3    H115627   4.199   0.781   2.992
 5221TIP3    H215628   4.132   0.862   2.883
 5222TIP3   OH215629   3.224   1.936   4.887
 5222TIP3    H115630   3.211   1.851   4.929
 5222TIP3    H215631   3.288   1.981   4.942
 5223TIP3   OH215632   1.176   3.410   3.574
 5223TIP3    H115633   1.232   3.375   3.504
 5223TIP3    H215634   1.107   3.457   3.528
 5224TIP3   OH215635   1.131   3.270   4.089
 5224TIP3    H115636   1.168   3.358   4.088
 5224TIP3    H215637   1.074   3.269   4.166
 5225TIP3   OH215638   6.146   0.159   4.789
 5225TIP3    H115639   6.211   0.224   4.763
 5225TIP3    H215640   6.196   0.094   4.840
 5226TIP3   OH215641   2.021   3.925   5.455
 5226TIP3    H115642   2.052   3.838   5.480
 5226TIP3    H215643   2.072   3.985   5.510
 5227TIP3   OH215644   3.087   1.550   1.201
 5227TIP3    H115645   3.027   1.493   1.250
 5227TIP3    H215646   3.111   1.619   1.263
 5228TIP3   OH215647   3.857   0.296   1.185
 5228TIP3    H115648   3.770   0.336   1.186
 5228TIP3    H215649   3.900   0.329   1.264
 5229TIP3   OH215650   2.186   0.132   1.447
 5229TIP3    H115651   2.223   0.047   1.468
 5229TIP3    H215652   2.219   0.153   1.360
 5230TIP3   OH215653   6.805   6.215   0.968
 5230TIP3    H115654   6.812   6.202   0.873
 5230TIP3    H215655   6.712   6.231   0.984
 5231TIP3   OH215656   5.803   1.244   3.546
 5231TIP3    H115657   5.842   1.158   3.560
 5231TIP3    H215658   5.712   1.235   3.576
 5232TIP3   OH215659   0.319   5.708   1.209
 5232TIP3    H115660   0.324   5.799   1.239
 5232TIP3    H215661   0.382   5.703   1.138
 5233TIP3   OH215662   2.219   1.662   0.834
 5233TIP3    H115663   2.215   1.569   0.813
 5233TIP3    H215664   2.292   1.695   0.781
 5234TIP3   OH215665   5.715   6.683   1.067
 5234TIP3    H115666   5.633   6.633   1.066
 5234TIP3    H215667   5.769   6.643   0.999
 5235TIP3   OH215668   4.500   2.510   5.453
 5235TIP3    H115669   4.531   2.598   5.474
 5235TIP3    H215670   4.458   2.519   5.368
 5236TIP3   OH215671   5.882   1.705   4.726
 5236TIP3    H115672   5.862   1.650   4.801
 5236TIP3    H215673   5.978   1.712   4.726
 5237TIP3   OH215674   4.165  -0.009   0.139
 5237TIP3    H115675   4.241   0.044   0.112
 5237TIP3    H215676   4.110  -0.012   0.061
 5238TIP3   OH215677   0.509   4.274   2.104
 5238TIP3    H115678   0.441   4.263   2.171
 5238TIP3    H215679   0.487   4.356   2.061
 5239TIP3   OH215680   1.815   2.005   1.367
 5239TIP3    H115681   1.828   2.043   1.454
 5239TIP3    H215682   1.858   1.920   1.371
 5240TIP3   OH215683   5.903   4.298   2.552
 5240TIP3    H115684   5.997   4.283   2.567
 5240TIP3    H215685   5.861   4.272   2.634
 5241TIP3   OH215686   5.445   2.040   1.200
 5241TIP3    H115687   5.512   1.971   1.194
 5241TIP3    H215688   5.494   2.118   1.227
 5242TIP3   OH215689   4.748   2.573   0.886
 5242TIP3    H115690   4.795   2.578   0.970
 5242TIP3    H215691   4.803   2.621   0.825
 5243TIP3   OH215692   6.319   1.886   1.982
 5243TIP3    H115693   6.346   1.796   2.002
 5243TIP3    H215694   6.224   1.885   1.994
 5244TIP3   OH215695   1.789   1.006   1.707
 5244TIP3    H115696   1.722   1.074   1.707
 5244TIP3    H215697   1.799   0.981   1.799
 5245TIP3   OH215698   3.416   6.657   3.570
 5245TIP3    H115699   3.342   6.597   3.559
 5245TIP3    H215700   3.492   6.599   3.579
 5246TIP3   OH215701   4.514   1.528   5.851
 5246TIP3    H115702   4.589   1.477   5.882
 5246TIP3    H215703   4.547   1.617   5.845
 5247TIP3   OH215704   5.212   1.368   4.813
 5247TIP3    H115705   5.253   1.386   4.897
 5247TIP3    H215706   5.270   1.409   4.748
 5248TIP3   OH215707   1.773   5.066   4.640
 5248TIP3    H115708   1.815   4.981   4.634
 5248TIP3    H215709   1.684   5.051   4.609
 5249TIP3   OH215710   4.558   3.398   5.190
 5249TIP3    H115711   4.582   3.305   5.191
 5249TIP3    H215712   4.624   3.441   5.244
 5250TIP3   OH215713   6.902   1.860   0.776
 5250TIP3    H115714   6.844   1.846   0.702
 5250TIP3    H215715   6.845   1.886   0.848
 5251TIP3   OH215716   3.278   4.969   1.672
 5251TIP3    H115717   3.207   4.937   1.617
 5251TIP3    H215718   3.234   5.001   1.751
 5252TIP3   OH215719   7.190   4.647   0.213
 5252TIP3    H115720   7.165   4.682   0.127
 5252TIP3    H215721   7.107   4.641   0.261
 5253TIP3   OH215722   5.718   0.574   0.322
 5253TIP3    H115723   5.702   0.500   0.263
 5253TIP3    H215724   5.798   0.549   0.370
 5254TIP3   OH215725   2.247   0.543   4.149
 5254TIP3    H115726   2.303   0.540   4.227
 5254TIP3    H215727   2.262   0.459   4.106
 5255TIP3   OH215728   3.348   2.412   2.627
 5255TIP3    H115729   3.392   2.487   2.586
 5255TIP3    H215730   3.362   2.425   2.721
 5256TIP3   OH215731   2.999   6.137   2.114
 5256TIP3    H115732   3.090   6.111   2.129
 5256TIP3    H215733   2.991   6.141   2.018
 5257TIP3   OH215734   5.315   4.573   2.227
 5257TIP3    H115735   5.229   4.587   2.188
 5257TIP3    H215736   5.343   4.488   2.195
 5258TIP3   OH215737   6.237   4.839   1.675
 5258TIP3    H115738   6.143   4.852   1.667
 5258TIP3    H215739   6.259   4.777   1.604
 5259TIP3   OH215740   3.442   2.959   2.961
 5259TIP3    H115741   3.426   2.876   2.916
 5259TIP3    H215742   3.536   2.962   2.974
 5260TIP3   OH215743   1.526   3.298   1.053
 5260TIP3    H115744   1.563   3.352   0.983
 5260TIP3    H215745   1.440   3.336   1.071
 5261TIP3   OH215746   0.280   5.711   4.046
 5261TIP3    H115747   0.189   5.694   4.024
 5261TIP3    H215748   0.276   5.766   4.125
 5262TIP3   OH215749   3.587   2.385   0.256
 5262TIP3    H115750   3.669   2.351   0.292
 5262TIP3    H215751   3.589   2.479   0.277
 5263TIP3   OH215752   5.431   1.761   0.195
 5263TIP3    H115753   5.513   1.789   0.237
 5263TIP3    H215754   5.427   1.814   0.115
 5264TIP3   OH215755   0.196   4.086   5.250
 5264TIP3    H115756   0.150   4.005   5.228
 5264TIP3    H215757   0.147   4.155   5.204
 5265TIP3   OH215758   6.532   4.652   3.617
 5265TIP3    H115759   6.528   4.621   3.708
 5265TIP3    H215760   6.446   4.630   3.581
 5266TIP3   OH215761   1.270   3.698   4.305
 5266TIP3    H115762   1.208   3.631   4.276
 5266TIP3    H215763   1.265   3.767   4.239
 5267TIP3   OH215764   1.618   6.143   0.650
 5267TIP3    H115765   1.604   6.049   0.662
 5267TIP3    H215766   1.681   6.167   0.718
 5268TIP3   OH215767   1.301   5.757   4.857
 5268TIP3    H115768   1.353   5.807   4.795
 5268TIP3    H215769   1.243   5.703   4.803
 5269TIP3   OH215770   0.381   2.122   3.768
 5269TIP3    H115771   0.452   2.187   3.769
 5269TIP3    H215772   0.414   2.052   3.712
 5270TIP3   OH215773   3.478   6.335   1.167
 5270TIP3    H115774   3.457   6.265   1.105
 5270TIP3    H215775   3.566   6.362   1.144
 5271TIP3   OH215776   2.233   5.437   2.102
 5271TIP3    H115777   2.301   5.418   2.038
 5271TIP3    H215778   2.225   5.532   2.102
 5272TIP3   OH215779   2.379   5.298   3.121
 5272TIP3    H115780   2.376   5.279   3.027
 5272TIP3    H215781   2.312   5.240   3.158
 5273TIP3   OH215782   5.705   1.687   2.738
 5273TIP3    H115783   5.683   1.596   2.714
 5273TIP3    H215784   5.733   1.727   2.656
 5274TIP3   OH215785   3.248   5.515   3.215
 5274TIP3    H115786   3.225   5.590   3.270
 5274TIP3    H215787   3.343   5.519   3.209
 5275TIP3   OH215788   0.805   4.307   0.983
 5275TIP3    H115789   0.715   4.280   0.966
 5275TIP3    H215790   0.805   4.336   1.074
 5276TIP3   OH215791   1.441   5.518   2.891
 5276TIP3    H115792   1.370   5.534   2.829
 5276TIP3    H215793   1.519   5.514   2.837
 5277TIP3   OH215794   4.192   6.067   3.255
 5277TIP3    H115795   4.187   6.023   3.170
 5277TIP3    H215796   4.277   6.041   3.290
 5278TIP3   OH215797   2.660   3.634   2.586
 5278TIP3    H115798   2.739   3.581   2.588
 5278TIP3    H215799   2.593   3.580   2.627
 5279TIP3   OH215800   1.182   0.697   3.453
 5279TIP3    H115801   1.203   0.609   3.420
 5279TIP3    H215802   1.124   0.681   3.527
 5280TIP3   OH215803   1.552   2.029   0.962
 5280TIP3    H115804   1.540   2.062   1.051
 5280TIP3    H215805   1.478   1.969   0.948
 5281TIP3   OH215806   4.902   5.939   5.127
 5281TIP3    H115807   4.979   5.939   5.184
 5281TIP3    H215808   4.828   5.957   5.185
 5282TIP3   OH215809   6.233   4.486   0.953
 5282TIP3    H115810   6.272   4.399   0.942
 5282TIP3    H215811   6.256   4.511   1.043
 5283TIP3   OH215812   4.049   5.706   1.438
 5283TIP3    H115813   4.100   5.658   1.504
 5283TIP3    H215814   4.074   5.667   1.355
 5284TIP3   OH215815   3.502   6.541   0.712
 5284TIP3    H115816   3.519   6.455   0.750
 5284TIP3    H215817   3.407   6.545   0.703
 5285TIP3   OH215818   2.313   1.282   4.136
 5285TIP3    H115819   2.229   1.307   4.096
 5285TIP3    H215820   2.341   1.361   4.183
 5286TIP3   OH215821   3.315   4.366   0.822
 5286TIP3    H115822   3.375   4.294   0.842
 5286TIP3    H215823   3.254   4.330   0.758
 5287TIP3   OH215824   1.165   1.681   5.733
 5287TIP3    H115825   1.097   1.722   5.680
 5287TIP3    H215826   1.157   1.724   5.819
 5288TIP3   OH215827   0.707   4.215   3.279
 5288TIP3    H115828   0.661   4.259   3.351
 5288TIP3    H215829   0.798   4.209   3.309
 5289TIP3   OH215830   3.031   2.452   4.264
 5289TIP3    H115831   3.025   2.531   4.210
 5289TIP3    H215832   3.097   2.473   4.330
 5290TIP3   OH215833   1.933   4.607   1.422
 5290TIP3    H115834   1.898   4.673   1.362
 5290TIP3    H215835   1.856   4.570   1.465
 5291TIP3   OH215836   3.657   0.092   2.787
 5291TIP3    H115837   3.660   0.175   2.835
 5291TIP3    H215838   3.579   0.100   2.732
 5292TIP3   OH215839   1.810   3.665   5.729
 5292TIP3    H115840   1.774   3.723   5.662
 5292TIP3    H215841   1.828   3.723   5.803
 5293TIP3   OH215842   3.614   3.828   3.661
 5293TIP3    H115843   3.541   3.851   3.602
 5293TIP3    H215844   3.573   3.781   3.733
 5294TIP3   OH215845   1.022   5.467   3.811
 5294TIP3    H115846   1.003   5.557   3.834
 5294TIP3    H215847   0.961   5.446   3.740
 5295TIP3   OH215848   1.981   6.845   1.881
 5295TIP3    H115849   2.051   6.787   1.853
 5295TIP3    H215850   1.902   6.791   1.879
 5296TIP3   OH215851   4.075   1.794   0.478
 5296TIP3    H115852   3.996   1.755   0.442
 5296TIP3    H215853   4.055   1.888   0.483
 5297TIP3   OH215854   2.127   2.939   1.435
 5297TIP3    H115855   2.116   2.853   1.476
 5297TIP3    H215856   2.190   2.985   1.492
 5298TIP3   OH215857   2.956   2.020   3.900
 5298TIP3    H115858   2.980   2.083   3.968
 5298TIP3    H215859   2.873   1.982   3.929
 5299TIP3   OH215860   1.538   0.365   0.626
 5299TIP3    H115861   1.585   0.330   0.550
 5299TIP3    H215862   1.605   0.410   0.677
 5300TIP3   OH215863   0.438   0.708   3.091
 5300TIP3    H115864   0.373   0.638   3.083
 5300TIP3    H215865   0.514   0.676   3.043
 5301TIP3   OH215866   5.053   0.547   1.009
 5301TIP3    H115867   5.088   0.565   0.922
 5301TIP3    H215868   5.004   0.626   1.032
 5302TIP3   OH215869   4.754   4.279   4.648
 5302TIP3    H115870   4.741   4.237   4.563
 5302TIP3    H215871   4.829   4.233   4.686
 5303TIP3   OH215872   5.115   4.533   3.629
 5303TIP3    H115873   5.096   4.601   3.693
 5303TIP3    H215874   5.178   4.573   3.569
 5304TIP3   OH215875   2.576   2.566   3.348
 5304TIP3    H115876   2.658   2.592   3.391
 5304TIP3    H215877   2.568   2.627   3.274
 5305TIP3   OH215878   3.474   1.948   4.379
 5305TIP3    H115879   3.437   1.897   4.307
 5305TIP3    H215880   3.438   2.036   4.367
 5306TIP3   OH215881   5.818   5.914   0.972
 5306TIP3    H115882   5.866   5.862   1.037
 5306TIP3    H215883   5.877   5.916   0.896
 5307TIP3   OH215884   4.826   5.384   2.039
 5307TIP3    H115885   4.911   5.402   2.080
 5307TIP3    H215886   4.762   5.407   2.106
 5308TIP3   OH215887   6.265   3.691   2.575
 5308TIP3    H115888   6.255   3.760   2.640
 5308TIP3    H215889   6.351   3.707   2.536
 5309TIP3   OH215890   3.667   3.200   5.475
 5309TIP3    H115891   3.642   3.267   5.539
 5309TIP3    H215892   3.690   3.249   5.396
 5310TIP3   OH215893   0.788   5.052   0.907
 5310TIP3    H115894   0.694   5.069   0.910
 5310TIP3    H215895   0.829   5.137   0.925
 5311TIP3   OH215896   2.390   2.477   5.061
 5311TIP3    H115897   2.350   2.490   4.975
 5311TIP3    H215898   2.334   2.526   5.121
 5312TIP3   OH215899   0.873   2.312   2.792
 5312TIP3    H115900   0.858   2.219   2.811
 5312TIP3    H215901   0.812   2.332   2.721
 5313TIP3   OH215902   0.170   5.814   3.623
 5313TIP3    H115903   0.244   5.800   3.683
 5313TIP3    H215904   0.170   5.737   3.566
 5314TIP3   OH215905   0.527   2.841   0.466
 5314TIP3    H115906   0.476   2.922   0.469
 5314TIP3    H215907   0.548   2.822   0.557
 5315TIP3   OH215908   2.984   0.620   5.301
 5315TIP3    H115909   2.931   0.553   5.257
 5315TIP3    H215910   2.920   0.676   5.344
 5316TIP3   OH215911   3.399   2.008   5.747
 5316TIP3    H115912   3.422   2.060   5.824
 5316TIP3    H215913   3.439   1.922   5.764
 5317TIP3   OH215914   5.745   6.671   1.788
 5317TIP3    H115915   5.725   6.765   1.790
 5317TIP3    H215916   5.678   6.631   1.844
 5318TIP3   OH215917   4.279   0.528   4.252
 5318TIP3    H115918   4.289   0.513   4.158
 5318TIP3    H215919   4.191   0.496   4.272
 5319TIP3   OH215920   3.049   3.127   3.808
 5319TIP3    H115921   2.961   3.139   3.773
 5319TIP3    H215922   3.035   3.100   3.899
 5320TIP3   OH215923   1.502   6.150   3.492
 5320TIP3    H115924   1.547   6.146   3.576
 5320TIP3    H215925   1.434   6.083   3.498
 5321TIP3   OH215926   1.968   4.343   3.635
 5321TIP3    H115927   1.985   4.415   3.696
 5321TIP3    H215928   1.986   4.381   3.549
 5322TIP3   OH215929   2.728   2.402   3.605
 5322TIP3    H115930   2.666   2.433   3.671
 5322TIP3    H215931   2.733   2.474   3.542
 5323TIP3   OH215932   1.988   4.943   2.610
 5323TIP3    H115933   1.929   4.918   2.539
 5323TIP3    H215934   2.062   4.985   2.566
 5324TIP3   OH215935   4.934   0.678   4.904
 5324TIP3    H115936   4.966   0.623   4.833
 5324TIP3    H215937   4.914   0.617   4.975
 5325TIP3   OH215938   5.395   5.119   2.702
 5325TIP3    H115939   5.372   5.209   2.726
 5325TIP3    H215940   5.440   5.084   2.779
 5326TIP3   OH215941   0.521   3.731   0.521
 5326TIP3    H115942   0.476   3.646   0.511
 5326TIP3    H215943   0.600   3.710   0.571
 5327TIP3   OH215944   5.688   4.463   2.434
 5327TIP3    H115945   5.636   4.392   2.471
 5327TIP3    H215946   5.775   4.425   2.420
 5328TIP3   OH215947   2.382   1.086   0.658
 5328TIP3    H115948   2.379   1.105   0.564
 5328TIP3    H215949   2.304   1.033   0.674
 5329TIP3   OH215950   4.402   6.471   0.734
 5329TIP3    H115951   4.398   6.376   0.739
 5329TIP3    H215952   4.494   6.491   0.717
 5330TIP3   OH215953   3.042   1.640   3.217
 5330TIP3    H115954   3.021   1.560   3.264
 5330TIP3    H215955   3.063   1.704   3.285
 5331TIP3   OH215956   5.908   6.052   2.714
 5331TIP3    H115957   5.873   6.013   2.794
 5331TIP3    H215958   6.002   6.059   2.730
 5332TIP3   OH215959   3.070   1.022   1.696
 5332TIP3    H115960   3.130   0.997   1.625
 5332TIP3    H215961   3.124   1.074   1.755
 5333TIP3   OH215962   0.949   4.728   3.911
 5333TIP3    H115963   0.943   4.649   3.964
 5333TIP3    H215964   0.950   4.696   3.821
 5334TIP3   OH215965   1.405   2.032   1.331
 5334TIP3    H115966   1.421   1.940   1.311
 5334TIP3    H215967   1.441   2.080   1.256
 5335TIP3   OH215968   4.450   6.566   1.811
 5335TIP3    H115969   4.490   6.555   1.725
 5335TIP3    H215970   4.358   6.585   1.793
 5336TIP3   OH215971   3.685   5.649   2.052
 5336TIP3    H115972   3.689   5.695   1.968
 5336TIP3    H215973   3.761   5.592   2.052
 5337TIP3   OH215974   2.368   3.589   0.092
 5337TIP3    H115975   2.455   3.621   0.066
 5337TIP3    H215976   2.333   3.658   0.148
 5338TIP3   OH215977   4.815   0.738   2.776
 5338TIP3    H115978   4.838   0.821   2.818
 5338TIP3    H215979   4.722   0.747   2.754
 5339TIP3   OH215980   4.765   5.181   3.144
 5339TIP3    H115981   4.856   5.172   3.115
 5339TIP3    H215982   4.763   5.266   3.189
 5340TIP3   OH215983   1.135   4.542   0.026
 5340TIP3    H115984   1.179   4.461   0.050
 5340TIP3    H215985   1.188   4.611   0.064
 5341TIP3   OH215986   0.845   6.212   1.760
 5341TIP3    H115987   0.865   6.120   1.745
 5341TIP3    H215988   0.835   6.249   1.673
 5342TIP3   OH215989   1.729   1.436   4.640
 5342TIP3    H115990   1.703   1.411   4.729
 5342TIP3    H215991   1.825   1.438   4.643
 5343TIP3   OH215992   4.898   3.415   3.418
 5343TIP3    H115993   4.939   3.402   3.333
 5343TIP3    H215994   4.858   3.502   3.413
 5344TIP3   OH215995   3.434   3.905   3.488
 5344TIP3    H115996   3.404   3.862   3.408
 5344TIP3    H215997   3.397   3.993   3.483
 5345TIP3   OH215998   0.250   2.497   2.185
 5345TIP3    H115999   0.297   2.581   2.179
 5345TIP3    H216000   0.311   2.439   2.230
 5346TIP3   OH216001   1.762   5.732   2.939
 5346TIP3    H116002   1.799   5.816   2.910
 5346TIP3    H216003   1.681   5.757   2.985
 5347TIP3   OH216004   6.045   3.413   2.051
 5347TIP3    H116005   6.035   3.506   2.071
 5347TIP3    H216006   5.961   3.387   2.013
 5348TIP3   OH216007   0.465   6.057   4.900
 5348TIP3    H116008   0.391   6.015   4.944
 5348TIP3    H216009   0.537   6.052   4.962
 5349TIP3   OH216010   6.181   3.840   4.229
 5349TIP3    H116011   6.155   3.751   4.207
 5349TIP3    H216012   6.246   3.864   4.163
 5350TIP3   OH216013   0.033   5.306   1.867
 5350TIP3    H116014  -0.050   5.335   1.830
 5350TIP3    H216015   0.023   5.211   1.877
 5351TIP3   OH216016   1.269   1.268   4.862
 5351TIP3    H116017   1.263   1.355   4.900
 5351TIP3    H216018   1.227   1.276   4.776
 5352TIP3   OH216019   4.022   5.599   0.058
 5352TIP3    H116020   3.999   5.600   0.151
 5352TIP3    H216021   4.091   5.533   0.050
 5353TIP3   OH216022   2.844   2.538   5.293
 5353TIP3    H116023   2.853   2.452   5.334
 5353TIP3    H216024   2.887   2.529   5.208
 5354TIP3   OH216025   6.449   2.626   0.421
 5354TIP3    H116026   6.486   2.542   0.392
 5354TIP3    H216027   6.524   2.673   0.458
 5355TIP3   OH216028   1.501   1.273   4.039
 5355TIP3    H116029   1.414   1.242   4.015
 5355TIP3    H216030   1.510   1.250   4.131
 5356TIP3   OH216031   3.471   0.567   5.831
 5356TIP3    H116032   3.409   0.559   5.758
 5356TIP3    H216033   3.497   0.659   5.830
 5357TIP3   OH216034   4.682   3.644   3.243
 5357TIP3    H116035   4.772   3.659   3.274
 5357TIP3    H216036   4.691   3.576   3.176
 5358TIP3   OH216037   6.294   2.555   2.799
 5358TIP3    H116038   6.234   2.591   2.864
 5358TIP3    H216039   6.357   2.625   2.782
 5359TIP3   OH216040   0.865   3.596   2.296
 5359TIP3    H116041   0.872   3.541   2.218
 5359TIP3    H216042   0.925   3.669   2.280
 5360TIP3   OH216043   2.979   3.789   1.998
 5360TIP3    H116044   3.028   3.707   2.005
 5360TIP3    H216045   2.954   3.809   2.088
 5361TIP3   OH216046   5.085   4.336   0.174
 5361TIP3    H116047   5.152   4.383   0.125
 5361TIP3    H216048   5.123   4.250   0.192
 5362TIP3   OH216049   4.673   1.480   0.341
 5362TIP3    H116050   4.700   1.447   0.427
 5362TIP3    H216051   4.657   1.574   0.355
 5363TIP3   OH216052   0.555   2.801   1.895
 5363TIP3    H116053   0.550   2.737   1.966
 5363TIP3    H216054   0.562   2.747   1.816
 5364TIP3   OH216055   4.143   1.536   5.591
 5364TIP3    H116056   4.198   1.535   5.513
 5364TIP3    H216057   4.105   1.624   5.592
 5365TIP3   OH216058   1.128   4.011   4.316
 5365TIP3    H116059   1.053   3.981   4.263
 5365TIP3    H216060   1.159   4.089   4.270
 5366TIP3   OH216061   4.200   4.686   2.353
 5366TIP3    H116062   4.151   4.763   2.322
 5366TIP3    H216063   4.276   4.681   2.296
 5367TIP3   OH216064   4.022   2.894   3.973
 5367TIP3    H116065   4.078   2.886   4.050
 5367TIP3    H216066   4.081   2.878   3.899
 5368TIP3   OH216067   5.286   2.575   5.445
 5368TIP3    H116068   5.237   2.536   5.372
 5368TIP3    H216069   5.223   2.636   5.485
 5369TIP3   OH216070   3.073   2.015   0.005
 5369TIP3    H116071   3.040   2.104  -0.012
 5369TIP3    H216072   3.133   2.026   0.078
 5370TIP3   OH216073   2.722   2.558   1.711
 5370TIP3    H116074   2.811   2.564   1.676
 5370TIP3    H216075   2.708   2.642   1.754
 5371TIP3   OH216076   4.634   5.180   5.596
 5371TIP3    H116077   4.621   5.096   5.639
 5371TIP3    H216078   4.565   5.183   5.529
 5372TIP3   OH216079   0.512   6.580   4.493
 5372TIP3    H116080   0.537   6.671   4.478
 5372TIP3    H216081   0.484   6.577   4.584
 5373TIP3   OH216082   4.757   4.725   0.349
 5373TIP3    H116083   4.676   4.774   0.363
 5373TIP3    H216084   4.760   4.662   0.421
 5374TIP3   OH216085   6.403   1.448   2.788
 5374TIP3    H116086   6.373   1.387   2.856
 5374TIP3    H216087   6.488   1.479   2.819
 5375TIP3   OH216088   5.109   2.689   4.648
 5375TIP3    H116089   5.069   2.691   4.562
 5375TIP3    H216090   5.180   2.754   4.643
 5376TIP3   OH216091   6.797   2.133   2.347
 5376TIP3    H116092   6.705   2.143   2.371
 5376TIP3    H216093   6.845   2.165   2.424
 5377TIP3   OH216094   0.739   2.456   3.892
 5377TIP3    H116095   0.798   2.386   3.917
 5377TIP3    H216096   0.777   2.535   3.930
 5378TIP3   OH216097   0.326   2.619   3.436
 5378TIP3    H116098   0.278   2.701   3.447
 5378TIP3    H216099   0.411   2.636   3.476
 5379TIP3   OH216100   6.607   4.266   4.512
 5379TIP3    H116101   6.612   4.171   4.502
 5379TIP3    H216102   6.632   4.300   4.426
 5380TIP3   OH216103   1.172   5.854   1.830
 5380TIP3    H116104   1.093   5.858   1.776
 5380TIP3    H216105   1.204   5.764   1.818
 5381TIP3   OH216106   6.932   3.168   1.348
 5381TIP3    H116107   6.969   3.086   1.315
 5381TIP3    H216108   6.999   3.204   1.406
 5382TIP3   OH216109   0.904   5.847   4.526
 5382TIP3    H116110   0.841   5.843   4.598
 5382TIP3    H216111   0.922   5.756   4.504
 5383TIP3   OH216112   1.013   3.845   3.266
 5383TIP3    H116113   1.077   3.791   3.220
 5383TIP3    H216114   0.965   3.889   3.196
 5384TIP3   OH216115   5.169   4.656   0.580
 5384TIP3    H116116   5.168   4.715   0.504
 5384TIP3    H216117   5.254   4.612   0.575
 5385TIP3   OH216118   4.851   4.874   0.780
 5385TIP3    H116119   4.908   4.939   0.737
 5385TIP3    H216120   4.911   4.805   0.807
 5386TIP3   OH216121   2.051   0.942   4.320
 5386TIP3    H116122   2.086   0.927   4.233
 5386TIP3    H216123   1.961   0.969   4.305
 5387TIP3   OH216124   5.290   6.177   1.121
 5387TIP3    H116125   5.242   6.257   1.100
 5387TIP3    H216126   5.380   6.206   1.135
 5388TIP3   OH216127   4.348   6.118   4.938
 5388TIP3    H116128   4.382   6.111   4.849
 5388TIP3    H216129   4.422   6.148   4.990
 5389TIP3   OH216130   6.577   2.727   4.050
 5389TIP3    H116131   6.636   2.797   4.022
 5389TIP3    H216132   6.558   2.678   3.970
 5390TIP3   OH216133   1.321   5.531   0.458
 5390TIP3    H116134   1.334   5.470   0.385
 5390TIP3    H216135   1.410   5.553   0.486
 5391TIP3   OH216136   6.087   6.786   3.800
 5391TIP3    H116137   6.060   6.758   3.887
 5391TIP3    H216138   6.022   6.747   3.741
 5392TIP3   OH216139   4.048   5.394   2.777
 5392TIP3    H116140   4.105   5.458   2.819
 5392TIP3    H216141   4.108   5.338   2.728
 5393TIP3   OH216142   3.085   1.608   3.781
 5393TIP3    H116143   3.053   1.657   3.706
 5393TIP3    H216144   3.007   1.571   3.822
 5394TIP3   OH216145   0.332   0.548   4.454
 5394TIP3    H116146   0.425   0.526   4.446
 5394TIP3    H216147   0.313   0.603   4.378
 5395TIP3   OH216148   1.024   3.405   5.153
 5395TIP3    H116149   1.000   3.347   5.226
 5395TIP3    H216150   1.075   3.349   5.094
 5396TIP3   OH216151   6.159   4.799   5.159
 5396TIP3    H116152   6.156   4.862   5.087
 5396TIP3    H216153   6.189   4.850   5.234
 5397TIP3   OH216154   5.356   3.157   1.753
 5397TIP3    H116155   5.315   3.119   1.831
 5397TIP3    H216156   5.402   3.083   1.712
 5398TIP3   OH216157   2.127   5.409   3.455
 5398TIP3    H116158   2.202   5.423   3.513
 5398TIP3    H216159   2.109   5.496   3.419
 5399TIP3   OH216160   3.836   6.168   4.773
 5399TIP3    H116161   3.870   6.150   4.686
 5399TIP3    H216162   3.897   6.125   4.833
 5400TIP3   OH216163   3.940   0.789   0.909
 5400TIP3    H116164   3.986   0.770   0.991
 5400TIP3    H216165   3.996   0.852   0.864
 5401TIP3   OH216166   1.263   6.710   3.632
 5401TIP3    H116167   1.234   6.620   3.640
 5401TIP3    H216168   1.271   6.725   3.538
 5402TIP3   OH216169   0.978   1.085   0.637
 5402TIP3    H116170   1.006   0.999   0.670
 5402TIP3    H216171   0.884   1.087   0.653
 5403TIP3   OH216172   4.872   1.768   0.233
 5403TIP3    H116173   4.780   1.765   0.261
 5403TIP3    H216174   4.875   1.710   0.156
 5404TIP3   OH216175   5.288   1.125   0.272
 5404TIP3    H116176   5.220   1.065   0.240
 5404TIP3    H216177   5.265   1.139   0.364
 5405TIP3   OH216178   4.841   0.345   0.619
 5405TIP3    H116179   4.820   0.383   0.704
 5405TIP3    H216180   4.770   0.373   0.561
 5406TIP3   OH216181   4.662   2.588   4.270
 5406TIP3    H116182   4.598   2.651   4.237
 5406TIP3    H216183   4.643   2.580   4.363
 5407TIP3   OH216184   2.410   0.432   4.782
 5407TIP3    H116185   2.338   0.495   4.786
 5407TIP3    H216186   2.457   0.454   4.702
 5408TIP3   OH216187   0.120   1.515   2.172
 5408TIP3    H116188   0.142   1.604   2.144
 5408TIP3    H216189   0.191   1.490   2.231
 5409TIP3   OH216190   2.503   2.868   5.516
 5409TIP3    H116191   2.541   2.955   5.503
 5409TIP3    H216192   2.571   2.819   5.562
 5410TIP3   OH216193   4.348   0.610   2.323
 5410TIP3    H116194   4.438   0.577   2.316
 5410TIP3    H216195   4.347   0.687   2.267
 5411TIP3   OH216196   4.514   0.291   3.273
 5411TIP3    H116197   4.504   0.276   3.179
 5411TIP3    H216198   4.585   0.355   3.280
 5412TIP3   OH216199   1.701   2.498   2.993
 5412TIP3    H116200   1.616   2.543   2.995
 5412TIP3    H216201   1.688   2.425   2.932
 5413TIP3   OH216202   2.879   5.428   2.545
 5413TIP3    H116203   2.828   5.473   2.612
 5413TIP3    H216204   2.926   5.359   2.593
 5414TIP3   OH216205   2.119   3.223   1.804
 5414TIP3    H116206   2.116   3.129   1.823
 5414TIP3    H216207   2.052   3.261   1.861
 5415TIP3   OH216208   3.580   6.752   4.207
 5415TIP3    H116209   3.622   6.678   4.163
 5415TIP3    H216210   3.611   6.829   4.159
 5416TIP3   OH216211   6.177   4.586   3.067
 5416TIP3    H116212   6.159   4.668   3.113
 5416TIP3    H216213   6.110   4.581   2.999
 5417TIP3   OH216214   0.115   5.259   2.152
 5417TIP3    H116215   0.037   5.225   2.197
 5417TIP3    H216216   0.166   5.181   2.131
 5418TIP3   OH216217   1.009   2.207   0.517
 5418TIP3    H116218   0.923   2.184   0.482
 5418TIP3    H216219   1.010   2.303   0.518
 5419TIP3   OH216220   5.167   5.797   4.942
 5419TIP3    H116221   5.156   5.709   4.978
 5419TIP3    H216222   5.093   5.809   4.883
 5420TIP3   OH216223   3.988   3.350   3.715
 5420TIP3    H116224   4.033   3.328   3.797
 5420TIP3    H216225   4.058   3.365   3.652
 5421TIP3   OH216226   1.553   4.264   4.864
 5421TIP3    H116227   1.518   4.276   4.776
 5421TIP3    H216228   1.630   4.208   4.852
 5422TIP3   OH216229   0.074   0.166   3.554
 5422TIP3    H116230   0.132   0.204   3.488
 5422TIP3    H216231   0.129   0.155   3.631
 5423TIP3   OH216232   3.581   6.578   4.663
 5423TIP3    H116233   3.583   6.526   4.743
 5423TIP3    H216234   3.538   6.660   4.688
 5424TIP3   OH216235   3.647   1.050   2.102
 5424TIP3    H116236   3.581   0.992   2.140
 5424TIP3    H216237   3.703   1.074   2.176
 5425TIP3   OH216238   5.442   1.473   3.808
 5425TIP3    H116239   5.381   1.519   3.866
 5425TIP3    H216240   5.479   1.403   3.862
 5426TIP3   OH216241   3.763   0.156   5.886
 5426TIP3    H116242   3.688   0.210   5.909
 5426TIP3    H216243   3.731   0.095   5.820
 5427TIP3   OH216244   3.465   2.915   3.675
 5427TIP3    H116245   3.515   2.879   3.748
 5427TIP3    H216246   3.414   2.986   3.714
 5428TIP3   OH216247   0.507   5.543   5.319
 5428TIP3    H116248   0.518   5.451   5.295
 5428TIP3    H216249   0.412   5.557   5.316
 5429TIP3   OH216250   3.152   5.311   3.069
 5429TIP3    H116251   3.233   5.321   3.019
 5429TIP3    H216252   3.170   5.356   3.151
 5430TIP3   OH216253   3.000   6.671   1.815
 5430TIP3    H116254   3.081   6.620   1.817
 5430TIP3    H216255   2.950   6.634   1.742
 5431TIP3   OH216256   0.062   0.256   1.112
 5431TIP3    H116257   0.020   0.223   1.191
 5431TIP3    H216258   0.110   0.333   1.141
 5432TIP3   OH216259   4.474   5.001   3.336
 5432TIP3    H116260   4.569   4.990   3.341
 5432TIP3    H216261   4.446   4.939   3.269
 5433TIP3   OH216262   0.190   5.181   1.585
 5433TIP3    H116263   0.112   5.233   1.602
 5433TIP3    H216264   0.158   5.091   1.577
 5434TIP3   OH216265   2.375   4.682   1.947
 5434TIP3    H116266   2.440   4.731   1.997
 5434TIP3    H216267   2.423   4.609   1.908
 5435TIP3   OH216268   5.485   1.208   4.204
 5435TIP3    H116269   5.508   1.294   4.240
 5435TIP3    H216270   5.566   1.156   4.212
 5436TIP3   OH216271   2.381   1.745   0.653
 5436TIP3    H116272   2.426   1.826   0.628
 5436TIP3    H216273   2.452   1.686   0.680
 5437TIP3   OH216274   2.369   6.062   1.581
 5437TIP3    H116275   2.463   6.081   1.582
 5437TIP3    H216276   2.359   5.987   1.639
 5438TIP3   OH216277   5.066   0.034   1.155
 5438TIP3    H116278   5.131   0.070   1.094
 5438TIP3    H216279   5.018   0.111   1.186
 5439TIP3   OH216280   1.815   0.312   4.620
 5439TIP3    H116281   1.755   0.245   4.587
 5439TIP3    H216282   1.758   0.381   4.655
 5440TIP3   OH216283   4.716   1.021   3.609
 5440TIP3    H116284   4.656   0.963   3.655
 5440TIP3    H216285   4.777   1.050   3.677
 5441TIP3   OH216286   2.964   4.458   2.003
 5441TIP3    H116287   3.014   4.499   2.074
 5441TIP3    H216288   2.889   4.516   1.990
 5442TIP3   OH216289   0.023   0.477   3.999
 5442TIP3    H116290   0.087   0.430   4.052
 5442TIP3    H216291  -0.031   0.525   4.062
 5443TIP3   OH216292   1.652   2.115   4.750
 5443TIP3    H116293   1.624   2.102   4.840
 5443TIP3    H216294   1.577   2.090   4.697
 5444TIP3   OH216295   3.370   3.561   1.320
 5444TIP3    H116296   3.364   3.655   1.337
 5444TIP3    H216297   3.379   3.555   1.224
 5445TIP3   OH216298   7.220   0.527   4.295
 5445TIP3    H116299   7.239   0.600   4.355
 5445TIP3    H216300   7.124   0.520   4.296
 5446TIP3   OH216301   5.914   6.634   4.005
 5446TIP3    H116302   5.965   6.602   4.080
 5446TIP3    H216303   5.832   6.583   4.010
 5447TIP3   OH216304   3.081   5.993   3.170
 5447TIP3    H116305   3.052   6.083   3.173
 5447TIP3    H216306   3.018   5.944   3.222
 5448TIP3   OH216307   2.721   2.704   0.221
 5448TIP3    H116308   2.771   2.763   0.165
 5448TIP3    H216309   2.633   2.742   0.223
 5449TIP3   OH216310   4.599   3.812   4.377
 5449TIP3    H116311   4.551   3.894   4.382
 5449TIP3    H216312   4.610   3.785   4.468
 5450TIP3   OH216313   1.546   2.510   0.111
 5450TIP3    H116314   1.577   2.550   0.192
 5450TIP3    H216315   1.475   2.451   0.138
 5451TIP3   OH216316   4.558   5.878   3.120
 5451TIP3    H116317   4.529   5.912   3.205
 5451TIP3    H216318   4.608   5.950   3.081
 5452TIP3   OH216319   0.200   4.371   4.719
 5452TIP3    H116320   0.217   4.459   4.752
 5452TIP3    H216321   0.105   4.362   4.721
 5453TIP3   OH216322   2.831   6.264   0.927
 5453TIP3    H116323   2.831   6.183   0.876
 5453TIP3    H216324   2.795   6.238   1.012
 5454TIP3   OH216325   2.416   4.311   5.165
 5454TIP3    H116326   2.446   4.243   5.226
 5454TIP3    H216327   2.322   4.295   5.157
 5455TIP3   OH216328   1.870   2.239   4.869
 5455TIP3    H116329   1.835   2.246   4.958
 5455TIP3    H216330   1.811   2.179   4.825
 5456TIP3   OH216331   0.153   2.795   2.895
 5456TIP3    H116332   0.111   2.712   2.916
 5456TIP3    H216333   0.087   2.844   2.848
 5457TIP3   OH216334   3.852   5.058   2.147
 5457TIP3    H116335   3.764   5.093   2.133
 5457TIP3    H216336   3.850   4.971   2.108
 5458TIP3   OH216337   2.196   1.379   1.111
 5458TIP3    H116338   2.254   1.376   1.035
 5458TIP3    H216339   2.121   1.431   1.082
 5459TIP3   OH216340   3.468   0.709   5.135
 5459TIP3    H116341   3.394   0.668   5.178
 5459TIP3    H216342   3.518   0.637   5.097
 5460TIP3   OH216343   2.749   5.354   3.392
 5460TIP3    H116344   2.731   5.366   3.299
 5460TIP3    H216345   2.675   5.302   3.424
 5461TIP3   OH216346   5.749   1.180   0.027
 5461TIP3    H116347   5.820   1.175  -0.038
 5461TIP3    H216348   5.735   1.089   0.054
 5462TIP3   OH216349   4.623   4.209   5.028
 5462TIP3    H116350   4.538   4.236   5.064
 5462TIP3    H216351   4.652   4.284   4.977
 5463TIP3   OH216352   1.721   4.679   3.139
 5463TIP3    H116353   1.698   4.592   3.172
 5463TIP3    H216354   1.692   4.739   3.207
 5464TIP3   OH216355   0.260   3.666   0.713
 5464TIP3    H116356   0.269   3.639   0.622
 5464TIP3    H216357   0.284   3.589   0.764
 5465TIP3   OH216358   0.139   1.811   0.247
 5465TIP3    H116359   0.078   1.748   0.285
 5465TIP3    H216360   0.106   1.826   0.158
 5466TIP3   OH216361   1.779   6.480   0.650
 5466TIP3    H116362   1.826   6.421   0.709
 5466TIP3    H216363   1.688   6.454   0.659
 5467TIP3   OH216364   5.986   4.862   2.306
 5467TIP3    H116365   6.043   4.934   2.279
 5467TIP3    H216366   6.010   4.790   2.248
 5468TIP3   OH216367   6.432   1.546   5.248
 5468TIP3    H116368   6.354   1.561   5.194
 5468TIP3    H216369   6.446   1.629   5.294
 5469TIP3   OH216370   3.842   4.379   0.963
 5469TIP3    H116371   3.817   4.371   0.871
 5469TIP3    H216372   3.936   4.361   0.964
 5470TIP3   OH216373   0.750   4.289   1.825
 5470TIP3    H116374   0.760   4.347   1.900
 5470TIP3    H216375   0.662   4.253   1.834
 5471TIP3   OH216376   3.886   0.759   5.420
 5471TIP3    H116377   3.970   0.746   5.463
 5471TIP3    H216378   3.827   0.696   5.461
 5472TIP3   OH216379   5.033   1.049   5.141
 5472TIP3    H116380   5.104   1.013   5.088
 5472TIP3    H216381   4.978   1.096   5.078
 5473TIP3   OH216382   2.336   0.071   0.202
 5473TIP3    H116383   2.426   0.067   0.234
 5473TIP3    H216384   2.309   0.161   0.218
 5474TIP3   OH216385   3.467   2.830   2.261
 5474TIP3    H116386   3.378   2.863   2.269
 5474TIP3    H216387   3.493   2.852   2.171
 5475TIP3   OH216388   1.687   2.301   2.551
 5475TIP3    H116389   1.593   2.301   2.568
 5475TIP3    H216390   1.699   2.367   2.484
 5476TIP3   OH216391   5.166   5.668   1.227
 5476TIP3    H116392   5.122   5.667   1.142
 5476TIP3    H216393   5.254   5.701   1.208
 5477TIP3   OH216394   4.072   2.450   5.021
 5477TIP3    H116395   3.999   2.459   5.084
 5477TIP3    H216396   4.070   2.359   4.994
 5478TIP3   OH216397   6.660   6.696   3.717
 5478TIP3    H116398   6.688   6.765   3.777
 5478TIP3    H216399   6.573   6.724   3.688
 5479TIP3   OH216400   2.568   0.671   4.932
 5479TIP3    H116401   2.511   0.612   4.982
 5479TIP3    H216402   2.656   0.636   4.945
 5480TIP3   OH216403   4.992   3.221   1.307
 5480TIP3    H116404   4.943   3.295   1.272
 5480TIP3    H216405   5.026   3.252   1.391
 5481TIP3   OH216406   5.468   2.032   0.616
 5481TIP3    H116407   5.462   1.937   0.608
 5481TIP3    H216408   5.523   2.047   0.692
 5482TIP3   OH216409   7.156   5.042   3.833
 5482TIP3    H116410   7.206   5.004   3.906
 5482TIP3    H216411   7.220   5.051   3.763
 5483TIP3   OH216412   4.978   0.436   3.790
 5483TIP3    H116413   4.955   0.514   3.841
 5483TIP3    H216414   4.942   0.454   3.703
 5484TIP3   OH216415   1.912   3.674   1.195
 5484TIP3    H116416   1.888   3.624   1.273
 5484TIP3    H216417   1.831   3.680   1.144
 5485TIP3   OH216418   3.495   1.587   2.518
 5485TIP3    H116419   3.453   1.556   2.438
 5485TIP3    H216420   3.454   1.672   2.536
 5486TIP3   OH216421   2.201   1.190   1.281
 5486TIP3    H116422   2.191   1.243   1.202
 5486TIP3    H216423   2.165   1.243   1.351
 5487TIP3   OH216424   4.438   1.002   3.947
 5487TIP3    H116425   4.384   0.932   3.984
 5487TIP3    H216426   4.520   0.998   3.996
 5488TIP3   OH216427   7.095   3.002   1.603
 5488TIP3    H116428   7.161   3.044   1.658
 5488TIP3    H216429   7.030   2.968   1.665
 5489TIP3   OH216430   1.600   1.574   1.146
 5489TIP3    H116431   1.534   1.643   1.136
 5489TIP3    H216432   1.664   1.611   1.207
 5490TIP3   OH216433   6.283   3.847   1.007
 5490TIP3    H116434   6.218   3.777   0.996
 5490TIP3    H216435   6.232   3.923   1.035
 5491TIP3   OH216436   6.346   6.447   1.959
 5491TIP3    H116437   6.417   6.439   2.023
 5491TIP3    H216438   6.292   6.370   1.974
 5492TIP3   OH216439   4.938   0.920   4.789
 5492TIP3    H116440   5.007   0.981   4.816
 5492TIP3    H216441   4.950   0.843   4.845
 5493TIP3   OH216442   1.818   5.895   0.455
 5493TIP3    H116443   1.743   5.934   0.409
 5493TIP3    H216444   1.804   5.800   0.447
 5494TIP3   OH216445   5.610   0.421   3.286
 5494TIP3    H116446   5.618   0.399   3.379
 5494TIP3    H216447   5.572   0.509   3.286
 5495TIP3   OH216448   6.108   3.322   4.893
 5495TIP3    H116449   6.149   3.290   4.974
 5495TIP3    H216450   6.181   3.350   4.839
 5496TIP3   OH216451   5.551   0.937   3.970
 5496TIP3    H116452   5.597   0.973   4.046
 5496TIP3    H216453   5.591   0.850   3.957
 5497TIP3   OH216454   7.014   5.805   0.742
 5497TIP3    H116455   7.090   5.748   0.730
 5497TIP3    H216456   6.939   5.745   0.743
 5498TIP3   OH216457   1.428   3.546   0.583
 5498TIP3    H116458   1.466   3.472   0.535
 5498TIP3    H216459   1.346   3.565   0.537
 5499TIP3   OH216460   3.054   5.159   4.285
 5499TIP3    H116461   2.984   5.136   4.225
 5499TIP3    H216462   3.091   5.074   4.312
 5500TIP3   OH216463   5.767   3.825   0.847
 5500TIP3    H116464   5.716   3.895   0.888
 5500TIP3    H216465   5.708   3.750   0.844
 5501TIP3   OH216466   3.728   0.339   2.503
 5501TIP3    H116467   3.776   0.288   2.569
 5501TIP3    H216468   3.637   0.310   2.512
 5502TIP3   OH216469   0.823   4.079   0.097
 5502TIP3    H116470   0.861   4.023   0.030
 5502TIP3    H216471   0.897   4.125   0.136
 5503TIP3   OH216472   1.807   1.203   2.069
 5503TIP3    H116473   1.804   1.293   2.037
 5503TIP3    H216474   1.881   1.201   2.130
 5504TIP3   OH216475   6.945   4.427   2.217
 5504TIP3    H116476   6.957   4.340   2.256
 5504TIP3    H216477   6.995   4.486   2.274
 5505TIP3   OH216478   2.862   0.369   5.225
 5505TIP3    H116479   2.784   0.318   5.247
 5505TIP3    H216480   2.922   0.305   5.187
 5506TIP3   OH216481   1.682   4.510   0.572
 5506TIP3    H116482   1.603   4.504   0.518
 5506TIP3    H216483   1.732   4.582   0.535
 5507TIP3   OH216484   1.506   3.866   0.308
 5507TIP3    H116485   1.483   3.959   0.310
 5507TIP3    H216486   1.602   3.866   0.301
 5508TIP3   OH216487   6.084   6.357   0.188
 5508TIP3    H116488   6.034   6.307   0.123
 5508TIP3    H216489   6.077   6.305   0.268
 5509TIP3   OH216490   1.203   0.711   5.670
 5509TIP3    H116491   1.116   0.683   5.697
 5509TIP3    H216492   1.237   0.759   5.746
 5510TIP3   OH216493   6.218   0.093   3.138
 5510TIP3    H116494   6.226   0.121   3.229
 5510TIP3    H216495   6.207   0.174   3.088
 5511TIP3   OH216496   4.862   1.379   4.113
 5511TIP3    H116497   4.937   1.353   4.167
 5511TIP3    H216498   4.887   1.463   4.075
 5512TIP3   OH216499   6.451   0.823   0.504
 5512TIP3    H116500   6.484   0.744   0.462
 5512TIP3    H216501   6.358   0.824   0.483
 5513TIP3   OH216502   1.197   6.036   2.630
 5513TIP3    H116503   1.143   6.096   2.580
 5513TIP3    H216504   1.287   6.053   2.600
 5514TIP3   OH216505   4.994   5.766   0.691
 5514TIP3    H116506   5.087   5.790   0.685
 5514TIP3    H216507   4.947   5.847   0.671
 5515TIP3   OH216508   4.466   4.352   1.473
 5515TIP3    H116509   4.466   4.416   1.401
 5515TIP3    H216510   4.527   4.284   1.445
 5516TIP3   OH216511   0.024   0.455   5.231
 5516TIP3    H116512   0.115   0.476   5.211
 5516TIP3    H216513   0.003   0.509   5.307
 5517TIP3   OH216514   5.881   4.750   5.382
 5517TIP3    H116515   5.898   4.841   5.407
 5517TIP3    H216516   5.966   4.707   5.386
 5518TIP3   OH216517   4.203   1.684   1.642
 5518TIP3    H116518   4.261   1.608   1.640
 5518TIP3    H216519   4.115   1.647   1.633
 5519TIP3   OH216520   5.415   3.616   0.854
 5519TIP3    H116521   5.345   3.555   0.834
 5519TIP3    H216522   5.394   3.695   0.805
 5520TIP3   OH216523   2.654   1.186   2.055
 5520TIP3    H116524   2.673   1.253   2.120
 5520TIP3    H216525   2.740   1.161   2.021
 5521TIP3   OH216526   4.354   5.555   1.459
 5521TIP3    H116527   4.404   5.624   1.504
 5521TIP3    H216528   4.309   5.600   1.387
 5522TIP3   OH216529   1.400   3.121   0.526
 5522TIP3    H116530   1.490   3.091   0.516
 5522TIP3    H216531   1.356   3.051   0.574
 5523TIP3   OH216532   3.807   3.435   1.557
 5523TIP3    H116533   3.760   3.437   1.474
 5523TIP3    H216534   3.779   3.514   1.603
 5524TIP3   OH216535   5.581   2.950   5.046
 5524TIP3    H116536   5.510   2.995   5.093
 5524TIP3    H216537   5.630   3.021   5.005
 5525TIP3   OH216538   6.603   4.573   5.290
 5525TIP3    H116539   6.683   4.624   5.278
 5525TIP3    H216540   6.552   4.622   5.355
 5526TIP3   OH216541   1.527   4.016   5.738
 5526TIP3    H116542   1.481   3.948   5.787
 5526TIP3    H216543   1.458   4.074   5.707
 5527TIP3   OH216544   6.013   3.694   5.828
 5527TIP3    H116545   6.007   3.721   5.737
 5527TIP3    H216546   6.098   3.728   5.858
 5528TIP3   OH216547   7.187   0.492   3.104
 5528TIP3    H116548   7.126   0.429   3.065
 5528TIP3    H216549   7.160   0.497   3.196
 5529TIP3   OH216550   3.718   5.273   0.814
 5529TIP3    H116551   3.789   5.282   0.750
 5529TIP3    H216552   3.663   5.202   0.779
 5530TIP3   OH216553   2.533   4.006   4.762
 5530TIP3    H116554   2.626   4.030   4.755
 5530TIP3    H216555   2.514   4.010   4.855
 5531TIP3   OH216556   0.933   1.383   0.683
 5531TIP3    H116557   0.855   1.438   0.672
 5531TIP3    H216558   0.952   1.352   0.594
 5532TIP3   OH216559   4.075   4.145   3.628
 5532TIP3    H116560   4.090   4.238   3.610
 5532TIP3    H216561   4.141   4.122   3.693
 5533TIP3   OH216562   0.092   0.323   4.458
 5533TIP3    H116563   0.155   0.286   4.396
 5533TIP3    H216564   0.059   0.401   4.415
 5534TIP3   OH216565   3.964   4.682   1.622
 5534TIP3    H116566   3.963   4.631   1.540
 5534TIP3    H216567   4.046   4.731   1.618
 5535TIP3   OH216568   4.576   4.280   2.350
 5535TIP3    H116569   4.514   4.326   2.294
 5535TIP3    H216570   4.617   4.215   2.293
 5536TIP3   OH216571   2.451   2.106   1.729
 5536TIP3    H116572   2.379   2.097   1.666
 5536TIP3    H216573   2.440   2.195   1.764
 5537TIP3   OH216574   1.054   1.934   4.769
 5537TIP3    H116575   1.021   1.844   4.768
 5537TIP3    H216576   1.051   1.962   4.677
 5538TIP3   OH216577   5.015   4.402   4.922
 5538TIP3    H116578   4.922   4.418   4.937
 5538TIP3    H216579   5.018   4.309   4.898
 5539TIP3   OH216580   5.045   5.986   0.339
 5539TIP3    H116581   5.088   6.054   0.287
 5539TIP3    H216582   4.957   6.020   0.354
 5540TIP3   OH216583   0.887   4.069   4.562
 5540TIP3    H116584   0.976   4.104   4.567
 5540TIP3    H216585   0.849   4.089   4.648
 5541TIP3   OH216586   6.260   3.426   3.300
 5541TIP3    H116587   6.278   3.488   3.229
 5541TIP3    H216588   6.196   3.470   3.355
 5542TIP3   OH216589   1.417   2.381   0.311
 5542TIP3    H116590   1.371   2.433   0.377
 5542TIP3    H216591   1.381   2.293   0.321
 5543TIP3   OH216592   0.156   3.817   0.951
 5543TIP3    H116593   0.223   3.775   0.897
 5543TIP3    H216594   0.083   3.834   0.891
 5544TIP3   OH216595   0.542   2.447   3.582
 5544TIP3    H116596   0.627   2.444   3.627
 5544TIP3    H216597   0.479   2.465   3.651
 5545TIP3   OH216598   2.597   3.148   5.505
 5545TIP3    H116599   2.557   3.227   5.541
 5545TIP3    H216600   2.618   3.171   5.415
 5546TIP3   OH216601   4.168   3.008   4.549
 5546TIP3    H116602   4.207   2.935   4.501
 5546TIP3    H216603   4.228   3.081   4.534
 5547TIP3   OH216604   2.857   4.639   4.598
 5547TIP3    H116605   2.816   4.698   4.534
 5547TIP3    H216606   2.915   4.695   4.649
 5548TIP3   OH216607   2.545   3.709   4.989
 5548TIP3    H116608   2.538   3.804   4.982
 5548TIP3    H216609   2.554   3.679   4.899
 5549TIP3   OH216610   0.803   5.908   1.082
 5549TIP3    H116611   0.776   5.906   0.990
 5549TIP3    H216612   0.877   5.846   1.086
 5550TIP3   OH216613   5.866   3.741   4.516
 5550TIP3    H116614   5.896   3.704   4.599
 5550TIP3    H216615   5.915   3.823   4.507
 5551TIP3   OH216616   3.260   6.709   5.502
 5551TIP3    H116617   3.265   6.669   5.415
 5551TIP3    H216618   3.203   6.651   5.552
 5552TIP3   OH216619   2.695   4.995   2.883
 5552TIP3    H116620   2.747   5.047   2.944
 5552TIP3    H216621   2.604   5.018   2.904
 5553TIP3   OH216622   4.744   6.630   4.157
 5553TIP3    H116623   4.703   6.686   4.223
 5553TIP3    H216624   4.720   6.541   4.182
 5554TIP3   OH216625   0.693   5.316   0.323
 5554TIP3    H116626   0.671   5.260   0.397
 5554TIP3    H216627   0.760   5.376   0.358
 5555TIP3   OH216628   6.901   0.844   5.588
 5555TIP3    H116629   6.845   0.852   5.665
 5555TIP3    H216630   6.936   0.755   5.594
 5556TIP3   OH216631   1.620   2.280   3.468
 5556TIP3    H116632   1.656   2.329   3.394
 5556TIP3    H216633   1.693   2.226   3.499
 5557TIP3   OH216634   1.537   3.599   5.499
 5557TIP3    H116635   1.591   3.671   5.531
 5557TIP3    H216636   1.558   3.593   5.406
 5558TIP3   OH216637   2.287   5.017   1.096
 5558TIP3    H116638   2.361   5.077   1.102
 5558TIP3    H216639   2.304   4.951   1.163
 5559TIP3   OH216640   5.462   4.973   1.880
 5559TIP3    H116641   5.552   4.987   1.850
 5559TIP3    H216642   5.427   5.061   1.891
 5560TIP3   OH216643   1.727   5.626   1.726
 5560TIP3    H116644   1.653   5.677   1.759
 5560TIP3    H216645   1.790   5.627   1.798
 5561TIP3   OH216646   5.788   2.362   4.017
 5561TIP3    H116647   5.879   2.331   4.021
 5561TIP3    H216648   5.761   2.346   3.926
 5562TIP3   OH216649   3.189   4.035   1.654
 5562TIP3    H116650   3.283   4.045   1.637
 5562TIP3    H216651   3.150   4.116   1.622
 5563TIP3   OH216652   4.527   5.252   3.502
 5563TIP3    H116653   4.510   5.209   3.418
 5563TIP3    H216654   4.474   5.203   3.565
 5564TIP3   OH216655   2.404   0.102   5.862
 5564TIP3    H116656   2.361   0.072   5.782
 5564TIP3    H216657   2.351   0.177   5.890
 5565TIP3   OH216658   5.598   4.191   0.034
 5565TIP3    H116659   5.650   4.253   0.085
 5565TIP3    H216660   5.627   4.105   0.064
 5566TIP3   OH216661   1.291   4.709   0.801
 5566TIP3    H116662   1.240   4.674   0.874
 5566TIP3    H216663   1.226   4.726   0.733
 5567TIP3   OH216664   3.123   5.524   3.777
 5567TIP3    H116665   3.124   5.429   3.793
 5567TIP3    H216666   3.215   5.550   3.787
 5568TIP3   OH216667   6.615   3.346   5.588
 5568TIP3    H116668   6.639   3.416   5.649
 5568TIP3    H216669   6.694   3.333   5.535
 5569TIP3   OH216670   0.642   3.065   4.823
 5569TIP3    H116671   0.593   3.145   4.843
 5569TIP3    H216672   0.577   2.995   4.830
 5570TIP3   OH216673   5.051   4.696   0.815
 5570TIP3    H116674   5.106   4.668   0.742
 5570TIP3    H216675   5.100   4.671   0.893
 5571TIP3   OH216676   1.720   2.006   2.905
 5571TIP3    H116677   1.757   1.974   2.822
 5571TIP3    H216678   1.651   1.944   2.927
 5572TIP3   OH216679   5.870   4.511   2.022
 5572TIP3    H116680   5.914   4.507   2.107
 5572TIP3    H216681   5.922   4.573   1.971
 5573TIP3   OH216682   2.580   3.969   0.039
 5573TIP3    H116683   2.554   3.959  -0.053
 5573TIP3    H216684   2.497   3.970   0.087
 5574TIP3   OH216685   4.549   4.205   5.615
 5574TIP3    H116686   4.611   4.274   5.639
 5574TIP3    H216687   4.539   4.214   5.520
 5575TIP3   OH216688   6.483   4.145   0.151
 5575TIP3    H116689   6.514   4.075   0.094
 5575TIP3    H216690   6.390   4.126   0.165
 5576TIP3   OH216691   1.868   6.042   3.542
 5576TIP3    H116692   1.942   6.103   3.544
 5576TIP3    H216693   1.796   6.091   3.582
 5577TIP3   OH216694   0.681   1.434   5.677
 5577TIP3    H116695   0.743   1.461   5.609
 5577TIP3    H216696   0.596   1.464   5.645
 5578TIP3   OH216697   2.228   0.015   3.397
 5578TIP3    H116698   2.230   0.085   3.462
 5578TIP3    H216699   2.153  -0.040   3.422
 5579TIP3   OH216700   3.054   3.964   3.311
 5579TIP3    H116701   3.058   4.059   3.304
 5579TIP3    H216702   2.992   3.938   3.243
 5580TIP3   OH216703   4.548   1.985   5.857
 5580TIP3    H116704   4.506   1.938   5.929
 5580TIP3    H216705   4.564   1.919   5.790
 5581TIP3   OH216706   1.075   2.858   5.179
 5581TIP3    H116707   1.109   2.878   5.092
 5581TIP3    H216708   0.982   2.877   5.174
 5582TIP3   OH216709   0.024   6.717  -0.009
 5582TIP3    H116710  -0.058   6.711   0.039
 5582TIP3    H216711   0.060   6.802   0.016
 5583TIP3   OH216712   1.397   6.609   4.461
 5583TIP3    H116713   1.434   6.609   4.549
 5583TIP3    H216714   1.313   6.655   4.469
 5584TIP3   OH216715   1.348   2.300   3.462
 5584TIP3    H116716   1.443   2.301   3.474
 5584TIP3    H216717   1.331   2.374   3.403
 5585TIP3   OH216718   0.714   5.087   4.295
 5585TIP3    H116719   0.742   5.178   4.286
 5585TIP3    H216720   0.787   5.036   4.258
 5586TIP3   OH216721   3.162   4.166   4.347
 5586TIP3    H116722   3.098   4.096   4.339
 5586TIP3    H216723   3.126   4.238   4.295
 5587TIP3   OH216724   0.420   1.160   4.727
 5587TIP3    H116725   0.505   1.204   4.733
 5587TIP3    H216726   0.406   1.148   4.633
 5588TIP3   OH216727   4.066   1.010   2.128
 5588TIP3    H116728   4.052   0.975   2.216
 5588TIP3    H216729   4.000   1.078   2.118
 5589TIP3   OH216730   0.331   4.346   0.336
 5589TIP3    H116731   0.297   4.264   0.303
 5589TIP3    H216732   0.297   4.413   0.277
 5590TIP3   OH216733   4.221   5.701   4.516
 5590TIP3    H116734   4.128   5.682   4.499
 5590TIP3    H216735   4.255   5.730   4.432
 5591TIP3   OH216736   2.331   4.393   2.956
 5591TIP3    H116737   2.299   4.395   2.866
 5591TIP3    H216738   2.412   4.444   2.954
 5592TIP3   OH216739   6.672   0.638   2.418
 5592TIP3    H116740   6.663   0.559   2.364
 5592TIP3    H216741   6.750   0.681   2.383
 5593TIP3   OH216742   4.047   3.789   2.009
 5593TIP3    H116743   4.131   3.807   1.966
 5593TIP3    H216744   4.060   3.707   2.055
 5594TIP3   OH216745   7.028   2.964   1.177
 5594TIP3    H116746   7.037   2.868   1.176
 5594TIP3    H216747   6.977   2.984   1.099
 5595TIP3   OH216748   5.379   3.035   4.154
 5595TIP3    H116749   5.370   2.981   4.076
 5595TIP3    H216750   5.306   3.009   4.210
 5596TIP3   OH216751   5.438   0.054   4.816
 5596TIP3    H116752   5.411   0.145   4.826
 5596TIP3    H216753   5.441   0.040   4.721
 5597TIP3   OH216754   6.582   4.122   3.884
 5597TIP3    H116755   6.644   4.144   3.953
 5597TIP3    H216756   6.525   4.055   3.923
 5598TIP3   OH216757   0.052   3.444   0.550
 5598TIP3    H116758   0.146   3.461   0.547
 5598TIP3    H216759   0.012   3.528   0.528
 5599TIP3   OH216760   4.573   6.369   4.962
 5599TIP3    H116761   4.541   6.420   5.036
 5599TIP3    H216762   4.603   6.287   5.001
 5600TIP3   OH216763   2.067   6.187   2.926
 5600TIP3    H116764   2.128   6.261   2.922
 5600TIP3    H216765   2.053   6.162   2.835
 5601TIP3   OH216766   1.103   5.187   1.293
 5601TIP3    H116767   1.180   5.238   1.265
 5601TIP3    H216768   1.117   5.175   1.387
 5602TIP3   OH216769   1.172   5.925   5.038
 5602TIP3    H116770   1.243   5.970   5.085
 5602TIP3    H216771   1.217   5.863   4.981
 5603TIP3   OH216772   3.667   4.404   2.885
 5603TIP3    H116773   3.725   4.338   2.923
 5603TIP3    H216774   3.591   4.354   2.855
 5604TIP3   OH216775   1.386   4.743   3.223
 5604TIP3    H116776   1.394   4.733   3.128
 5604TIP3    H216777   1.474   4.769   3.251
 5605TIP3   OH216778   4.836   6.256   4.763
 5605TIP3    H116779   4.838   6.254   4.858
 5605TIP3    H216780   4.799   6.342   4.741
 5606TIP3   OH216781   5.157   2.500   3.911
 5606TIP3    H116782   5.099   2.435   3.872
 5606TIP3    H216783   5.219   2.522   3.841
 5607TIP3   OH216784   6.876   2.922   5.609
 5607TIP3    H116785   6.851   2.857   5.674
 5607TIP3    H216786   6.866   3.006   5.654
 5608TIP3   OH216787   2.643   1.410   2.743
 5608TIP3    H116788   2.559   1.405   2.789
 5608TIP3    H216789   2.655   1.324   2.704
 5609TIP3   OH216790   4.839   2.088   3.703
 5609TIP3    H116791   4.863   2.110   3.792
 5609TIP3    H216792   4.899   2.138   3.648
 5610TIP3   OH216793   6.309   2.500   1.792
 5610TIP3    H116794   6.276   2.551   1.719
 5610TIP3    H216795   6.266   2.415   1.783
 5611TIP3   OH216796   7.194   2.061   2.900
 5611TIP3    H116797   7.214   2.133   2.840
 5611TIP3    H216798   7.115   2.020   2.863
 5612TIP3   OH216799   3.528   5.030   4.966
 5612TIP3    H116800   3.621   5.006   4.964
 5612TIP3    H216801   3.497   4.997   5.050
 5613TIP3   OH216802   5.270   4.687   1.671
 5613TIP3    H116803   5.349   4.679   1.725
 5613TIP3    H216804   5.267   4.779   1.647
 5614TIP3   OH216805   5.291   5.303   5.125
 5614TIP3    H116806   5.321   5.326   5.213
 5614TIP3    H216807   5.249   5.218   5.136
 5615TIP3   OH216808   3.735   6.018   1.234
 5615TIP3    H116809   3.798   6.088   1.222
 5615TIP3    H216810   3.676   6.049   1.303
 5616TIP3   OH216811   1.692   6.342   5.168
 5616TIP3    H116812   1.679   6.310   5.257
 5616TIP3    H216813   1.606   6.376   5.142
 5617TIP3   OH216814   2.976   6.133   1.340
 5617TIP3    H116815   3.004   6.088   1.260
 5617TIP3    H216816   3.053   6.129   1.397
 5618TIP3   OH216817   0.420   6.173   0.760
 5618TIP3    H116818   0.410   6.083   0.730
 5618TIP3    H216819   0.392   6.227   0.685
 5619TIP3   OH216820   4.003   4.700   5.201
 5619TIP3    H116821   3.964   4.631   5.255
 5619TIP3    H216822   4.025   4.656   5.119
 5620TIP3   OH216823   6.531   0.007   1.921
 5620TIP3    H116824   6.507   0.083   1.868
 5620TIP3    H216825   6.558  -0.059   1.857
 5621TIP3   OH216826   5.469   6.261   4.365
 5621TIP3    H116827   5.526   6.318   4.416
 5621TIP3    H216828   5.389   6.313   4.352
 5622TIP3   OH216829   0.971   0.375   2.819
 5622TIP3    H116830   0.928   0.443   2.768
 5622TIP3    H216831   0.948   0.293   2.775
 5623TIP3   OH216832   5.757   1.660   0.943
 5623TIP3    H116833   5.755   1.569   0.974
 5623TIP3    H216834   5.686   1.703   0.990
 5624TIP3   OH216835   1.091   3.261   0.668
 5624TIP3    H116836   1.109   3.196   0.736
 5624TIP3    H216837   1.157   3.244   0.601
 5625TIP3   OH216838   4.905   1.768   5.918
 5625TIP3    H116839   4.902   1.864   5.916
 5625TIP3    H216840   4.989   1.745   5.880
 5626TIP3   OH216841   6.920   1.032   1.350
 5626TIP3    H116842   6.908   1.125   1.328
 5626TIP3    H216843   7.015   1.019   1.348
 5627TIP3   OH216844   1.529   6.100   5.612
 5627TIP3    H116845   1.544   6.188   5.645
 5627TIP3    H216846   1.434   6.089   5.613
 5628TIP3   OH216847   4.274   0.741   5.763
 5628TIP3    H116848   4.275   0.810   5.696
 5628TIP3    H216849   4.196   0.690   5.743
 5629TIP3   OH216850   2.132   5.603   1.068
 5629TIP3    H116851   2.115   5.622   0.976
 5629TIP3    H216852   2.215   5.647   1.086
 5630TIP3   OH216853   6.982   1.864   2.178
 5630TIP3    H116854   6.952   1.844   2.267
 5630TIP3    H216855   6.903   1.892   2.132
 5631TIP3   OH216856   2.640   4.177   2.889
 5631TIP3    H116857   2.677   4.089   2.875
 5631TIP3    H216858   2.545   4.164   2.882
 5632TIP3   OH216859   0.509   1.534   1.146
 5632TIP3    H116860   0.491   1.492   1.230
 5632TIP3    H216861   0.463   1.617   1.150
 5633TIP3   OH216862   3.949   6.275   4.526
 5633TIP3    H116863   3.926   6.340   4.592
 5633TIP3    H216864   4.012   6.320   4.469
 5634TIP3   OH216865   0.116   6.309   0.080
 5634TIP3    H116866   0.167   6.371   0.028
 5634TIP3    H216867   0.179   6.276   0.145
 5635TIP3   OH216868   6.933   4.489   4.951
 5635TIP3    H116869   6.985   4.567   4.929
 5635TIP3    H216870   6.854   4.498   4.898
 5636TIP3   OH216871   1.215   3.672   4.725
 5636TIP3    H116872   1.192   3.580   4.711
 5636TIP3    H216873   1.176   3.718   4.650
 5637TIP3   OH216874   4.874   5.382   5.642
 5637TIP3    H116875   4.823   5.376   5.561
 5637TIP3    H216876   4.891   5.292   5.667
 5638TIP3   OH216877   0.862   6.724   2.816
 5638TIP3    H116878   0.887   6.646   2.768
 5638TIP3    H216879   0.788   6.761   2.767
 5639TIP3   OH216880   4.629   1.761   0.394
 5639TIP3    H116881   4.543   1.786   0.360
 5639TIP3    H216882   4.626   1.784   0.487
 5640TIP3   OH216883   3.409   0.971   5.030
 5640TIP3    H116884   3.485   0.996   4.979
 5640TIP3    H216885   3.432   0.886   5.069
 5641TIP3   OH216886   5.848   5.313   2.874
 5641TIP3    H116887   5.866   5.396   2.917
 5641TIP3    H216888   5.753   5.311   2.865
 5642TIP3   OH216889   4.072   3.748   3.693
 5642TIP3    H116890   4.111   3.664   3.716
 5642TIP3    H216891   3.980   3.740   3.717
 5643TIP3   OH216892   0.024   2.188   4.149
 5643TIP3    H116893  -0.053   2.179   4.206
 5643TIP3    H216894  -0.009   2.232   4.071
 5644TIP3   OH216895   1.590   1.898   0.177
 5644TIP3    H116896   1.625   1.986   0.161
 5644TIP3    H216897   1.622   1.875   0.264
 5645TIP3   OH216898   2.506   1.042   5.489
 5645TIP3    H116899   2.581   1.100   5.474
 5645TIP3    H216900   2.465   1.077   5.568
 5646TIP3   OH216901   3.838   4.190   2.881
 5646TIP3    H116902   3.893   4.163   2.955
 5646TIP3    H216903   3.901   4.218   2.814
 5647TIP3   OH216904   1.579   2.931   1.984
 5647TIP3    H116905   1.523   2.913   1.908
 5647TIP3    H216906   1.544   2.875   2.054
 5648TIP3   OH216907   0.355   3.253   2.357
 5648TIP3    H116908   0.303   3.222   2.431
 5648TIP3    H216909   0.319   3.339   2.336
 5649TIP3   OH216910   2.899   3.872   4.518
 5649TIP3    H116911   2.995   3.864   4.524
 5649TIP3    H216912   2.876   3.825   4.438
 5650TIP3   OH216913   4.226   5.681   2.500
 5650TIP3    H116914   4.247   5.679   2.593
 5650TIP3    H216915   4.131   5.683   2.496
 5651TIP3   OH216916   6.785   4.195   2.807
 5651TIP3    H116917   6.781   4.289   2.821
 5651TIP3    H216918   6.783   4.157   2.895
 5652TIP3   OH216919   6.789   4.129   0.293
 5652TIP3    H116920   6.779   4.224   0.284
 5652TIP3    H216921   6.757   4.094   0.210
 5653TIP3   OH216922   0.070   3.873   0.345
 5653TIP3    H116923   0.113   3.815   0.282
 5653TIP3    H216924   0.142   3.918   0.389
 5654TIP3   OH216925   6.372   4.366   1.173
 5654TIP3    H116926   6.434   4.415   1.227
 5654TIP3    H216927   6.339   4.298   1.231
 5655TIP3   OH216928   2.156   5.514   1.472
 5655TIP3    H116929   2.081   5.467   1.435
 5655TIP3    H216930   2.120   5.562   1.547
 5656TIP3   OH216931   2.357   0.568   5.153
 5656TIP3    H116932   2.336   0.481   5.118
 5656TIP3    H216933   2.277   0.619   5.141
 5657TIP3   OH216934   2.228   4.008   5.154
 5657TIP3    H116935   2.219   4.072   5.224
 5657TIP3    H216936   2.158   3.945   5.169
 5658TIP3   OH216937   0.813   0.900   2.598
 5658TIP3    H116938   0.867   0.967   2.639
 5658TIP3    H216939   0.838   0.902   2.505
 5659TIP3   OH216940   3.663   5.578   0.461
 5659TIP3    H116941   3.580   5.619   0.436
 5659TIP3    H216942   3.729   5.643   0.438
 5660TIP3   OH216943   6.014   5.235   0.453
 5660TIP3    H116944   6.005   5.146   0.486
 5660TIP3    H216945   6.100   5.264   0.485
 5661TIP3   OH216946   3.103   3.192   0.800
 5661TIP3    H116947   3.198   3.202   0.806
 5661TIP3    H216948   3.071   3.279   0.777
 5662TIP3   OH216949   5.431   3.435   4.567
 5662TIP3    H116950   5.503   3.494   4.545
 5662TIP3    H216951   5.375   3.486   4.625
 5663TIP3   OH216952   1.427   4.516   4.024
 5663TIP3    H116953   1.468   4.598   4.052
 5663TIP3    H216954   1.501   4.458   4.005
 5664TIP3   OH216955   1.398   2.882   5.824
 5664TIP3    H116956   1.413   2.929   5.906
 5664TIP3    H216957   1.457   2.924   5.762
 5665TIP3   OH216958   2.363   3.082   5.331
 5665TIP3    H116959   2.391   2.997   5.298
 5665TIP3    H216960   2.421   3.145   5.287
 5666TIP3   OH216961   2.511   3.224   1.494
 5666TIP3    H116962   2.598   3.191   1.475
 5666TIP3    H216963   2.525   3.314   1.524
 5667TIP3   OH216964   0.587   0.410   3.654
 5667TIP3    H116965   0.623   0.321   3.660
 5667TIP3    H216966   0.529   0.407   3.577
 5668TIP3   OH216967   2.341   1.896   5.511
 5668TIP3    H116968   2.318   1.982   5.545
 5668TIP3    H216969   2.397   1.913   5.436
 5669TIP3   OH216970   5.522   4.304   4.110
 5669TIP3    H116971   5.481   4.346   4.034
 5669TIP3    H216972   5.471   4.224   4.123
 5670TIP3   OH216973   0.280   6.776   1.899
 5670TIP3    H116974   0.263   6.686   1.871
 5670TIP3    H216975   0.331   6.767   1.980
 5671TIP3   OH216976   4.410   2.980   5.054
 5671TIP3    H116977   4.385   2.974   4.962
 5671TIP3    H216978   4.464   2.903   5.070
 5672TIP3   OH216979   5.917   3.131   4.289
 5672TIP3    H116980   5.904   3.209   4.235
 5672TIP3    H216981   5.908   3.058   4.227
 5673TIP3   OH216982   3.675   2.312   0.693
 5673TIP3    H116983   3.720   2.383   0.738
 5673TIP3    H216984   3.597   2.352   0.655
 5674TIP3   OH216985   2.455   4.095   1.654
 5674TIP3    H116986   2.426   4.046   1.577
 5674TIP3    H216987   2.518   4.158   1.620
 5675TIP3   OH216988   2.370   0.909   5.309
 5675TIP3    H116989   2.391   0.978   5.372
 5675TIP3    H216990   2.429   0.837   5.331
 5676TIP3   OH216991   7.174   6.438   4.804
 5676TIP3    H116992   7.241   6.492   4.845
 5676TIP3    H216993   7.202   6.430   4.713
 5677TIP3   OH216994   0.177   0.544   5.632
 5677TIP3    H116995   0.163   0.635   5.657
 5677TIP3    H216996   0.272   0.534   5.628
 5678TIP3   OH216997   3.005   2.217   1.685
 5678TIP3    H116998   2.936   2.250   1.628
 5678TIP3    H216999   3.057   2.295   1.708
 5679TIP3   OH217000   4.300   1.695   4.729
 5679TIP3    H117001   4.265   1.657   4.810
 5679TIP3    H217002   4.395   1.682   4.735
 5680TIP3   OH217003   0.728   2.745   3.258
 5680TIP3    H117004   0.716   2.719   3.166
 5680TIP3    H217005   0.791   2.683   3.293
 5681TIP3   OH217006   1.615   3.577   4.413
 5681TIP3    H117007   1.588   3.511   4.349
 5681TIP3    H217008   1.693   3.541   4.454
 5682TIP3   OH217009   6.038   5.219   1.799
 5682TIP3    H117010   6.125   5.185   1.778
 5682TIP3    H217011   5.987   5.205   1.719
 5683TIP3   OH217012   4.268   1.574   3.965
 5683TIP3    H117013   4.200   1.542   3.906
 5683TIP3    H217014   4.309   1.495   4.000
 5684TIP3   OH217015   5.219   4.162   2.525
 5684TIP3    H117016   5.299   4.143   2.475
 5684TIP3    H217017   5.185   4.243   2.486
 5685TIP3   OH217018   6.656   1.289   2.544
 5685TIP3    H117019   6.740   1.275   2.588
 5685TIP3    H217020   6.612   1.355   2.597
 5686TIP3   OH217021   7.055   4.473   1.498
 5686TIP3    H117022   7.092   4.395   1.455
 5686TIP3    H217023   7.130   4.515   1.541
 5687TIP3   OH217024   5.202   0.802   5.165
 5687TIP3    H117025   5.233   0.853   5.239
 5687TIP3    H217026   5.269   0.735   5.152
 5688TIP3   OH217027   4.836   5.019   0.075
 5688TIP3    H117028   4.823   5.079   0.002
 5688TIP3    H217029   4.834   5.075   0.153
 5689TIP3   OH217030   2.970   5.080   1.580
 5689TIP3    H117031   2.922   4.997   1.579
 5689TIP3    H217032   2.981   5.100   1.673
 5690TIP3   OH217033   0.092   4.544   1.559
 5690TIP3    H117034   0.119   4.567   1.648
 5690TIP3    H217035   0.171   4.505   1.520
 5691TIP3   OH217036   6.653   6.092   5.682
 5691TIP3    H117037   6.675   6.005   5.716
 5691TIP3    H217038   6.641   6.079   5.588
 5692TIP3   OH217039   5.225   1.436   2.677
 5692TIP3    H117040   5.194   1.357   2.632
 5692TIP3    H217041   5.148   1.466   2.727
 5693TIP3   OH217042   1.816   4.183   4.884
 5693TIP3    H117043   1.864   4.117   4.935
 5693TIP3    H217044   1.883   4.224   4.829
 5694TIP3   OH217045   0.409   3.356   3.326
 5694TIP3    H117046   0.340   3.391   3.269
 5694TIP3    H217047   0.463   3.303   3.268
 5695TIP3   OH217048   2.466   1.898   1.172
 5695TIP3    H117049   2.482   1.817   1.220
 5695TIP3    H217050   2.372   1.898   1.156
 5696TIP3   OH217051   0.387   4.658   2.668
 5696TIP3    H117052   0.392   4.734   2.727
 5696TIP3    H217053   0.456   4.599   2.700
 5697TIP3   OH217054   5.132   3.220   3.652
 5697TIP3    H117055   5.206   3.185   3.603
 5697TIP3    H217056   5.121   3.309   3.620
 5698TIP3   OH217057   0.168   6.373   4.208
 5698TIP3    H117058   0.201   6.357   4.296
 5698TIP3    H217059   0.224   6.444   4.174
 5699TIP3   OH217060   6.045   2.060   0.684
 5699TIP3    H117061   5.969   2.114   0.664
 5699TIP3    H217062   6.013   1.970   0.678
 5700TIP3   OH217063   5.810   3.204   4.534
 5700TIP3    H117064   5.873   3.271   4.559
 5700TIP3    H217065   5.849   3.162   4.457
 5701TIP3   OH217066   2.274   0.343   3.957
 5701TIP3    H117067   2.303   0.252   3.950
 5701TIP3    H217068   2.291   0.381   3.871
 5702TIP3   OH217069   6.562   0.155   2.627
 5702TIP3    H117070   6.495   0.178   2.563
 5702TIP3    H217071   6.572   0.234   2.680
 5703TIP3   OH217072   1.035   0.963   1.229
 5703TIP3    H117073   1.111   0.910   1.206
 5703TIP3    H217074   0.961   0.920   1.184
 5704TIP3   OH217075   5.512   0.281   1.099
 5704TIP3    H117076   5.550   0.349   1.155
 5704TIP3    H217077   5.494   0.208   1.158
 5705TIP3   OH217078   1.721   5.061   1.109
 5705TIP3    H117079   1.765   5.088   1.029
 5705TIP3    H217080   1.628   5.074   1.091
 5706TIP3   OH217081   1.999   6.668   4.149
 5706TIP3    H117082   1.967   6.578   4.148
 5706TIP3    H217083   1.953   6.710   4.076
 5707TIP3   OH217084   6.996   3.317   1.093
 5707TIP3    H117085   6.963   3.276   1.172
 5707TIP3    H217086   6.957   3.265   1.021
 5708TIP3   OH217087   3.511   2.172   2.938
 5708TIP3    H117088   3.600   2.147   2.912
 5708TIP3    H217089   3.523   2.219   3.021
 5709TIP3   OH217090   5.233   2.064   3.852
 5709TIP3    H117091   5.207   1.976   3.824
 5709TIP3    H217092   5.287   2.097   3.780
 5710TIP3   OH217093   6.910   4.295   3.386
 5710TIP3    H117094   6.907   4.352   3.463
 5710TIP3    H217095   6.899   4.207   3.421
 5711TIP3   OH217096   3.974   4.784   3.633
 5711TIP3    H117097   4.058   4.829   3.646
 5711TIP3    H217098   3.927   4.798   3.715
 5712TIP3   OH217099   4.041   6.066   4.353
 5712TIP3    H117100   4.023   6.143   4.406
 5712TIP3    H217101   3.971   6.004   4.374
 5713TIP3   OH217102   4.343   1.550   3.148
 5713TIP3    H117103   4.343   1.484   3.218
 5713TIP3    H217104   4.257   1.592   3.154
 5714TIP3   OH217105   5.443   4.943   0.344
 5714TIP3    H117106   5.489   4.879   0.398
 5714TIP3    H217107   5.464   4.917   0.254
 5715TIP3   OH217108   3.036   3.418   0.469
 5715TIP3    H117109   3.078   3.339   0.435
 5715TIP3    H217110   2.983   3.387   0.543
 5716TIP3   OH217111   3.989   2.688   1.150
 5716TIP3    H117112   3.944   2.674   1.233
 5716TIP3    H217113   3.993   2.601   1.110
 5717TIP3   OH217114   3.372   4.516   2.075
 5717TIP3    H117115   3.399   4.585   2.015
 5717TIP3    H217116   3.441   4.512   2.141
 5718TIP3   OH217117   1.921   3.296   3.604
 5718TIP3    H117118   1.858   3.313   3.533
 5718TIP3    H217119   1.879   3.230   3.658
 5719TIP3   OH217120   2.059   5.523   3.816
 5719TIP3    H117121   1.963   5.514   3.815
 5719TIP3    H217122   2.078   5.584   3.745
 5720TIP3   OH217123   4.664   0.549   0.752
 5720TIP3    H117124   4.598   0.553   0.683
 5720TIP3    H217125   4.613   0.534   0.832
 5721TIP3   OH217126   6.204   1.992   5.744
 5721TIP3    H117127   6.283   2.029   5.704
 5721TIP3    H217128   6.227   1.902   5.764
 5722TIP3   OH217129   5.221   1.887   0.479
 5722TIP3    H117130   5.300   1.861   0.527
 5722TIP3    H217131   5.196   1.971   0.517
 5723TIP3   OH217132   3.154   6.728   2.242
 5723TIP3    H117133   3.128   6.701   2.330
 5723TIP3    H217134   3.177   6.821   2.251
 5724TIP3   OH217135   4.443   5.200   5.398
 5724TIP3    H117136   4.409   5.126   5.347
 5724TIP3    H217137   4.377   5.268   5.388
 5725TIP3   OH217138   6.887   2.980   0.850
 5725TIP3    H117139   6.818   2.917   0.829
 5725TIP3    H217140   6.966   2.927   0.858
 5726TIP3   OH217141   0.879   1.697   0.619
 5726TIP3    H117142   0.857   1.702   0.526
 5726TIP3    H217143   0.797   1.716   0.664
 5727TIP3   OH217144   5.117   1.274   5.244
 5727TIP3    H117145   5.085   1.193   5.205
 5727TIP3    H217146   5.062   1.342   5.205
 5728TIP3   OH217147   6.358   0.837   5.388
 5728TIP3    H117148   6.310   0.908   5.345
 5728TIP3    H217149   6.346   0.762   5.330
 5729TIP3   OH217150   5.901   6.727   3.583
 5729TIP3    H117151   5.856   6.811   3.570
 5729TIP3    H217152   5.832   6.661   3.575
 5730TIP3   OH217153   6.544   1.552   1.570
 5730TIP3    H117154   6.590   1.471   1.546
 5730TIP3    H217155   6.510   1.534   1.658
 5731TIP3   OH217156   0.704   4.980   3.339
 5731TIP3    H117157   0.729   5.070   3.321
 5731TIP3    H217158   0.782   4.928   3.317
 5732TIP3   OH217159   4.627   5.750   0.334
 5732TIP3    H117160   4.591   5.835   0.358
 5732TIP3    H217161   4.718   5.768   0.311
 5733TIP3   OH217162   3.542   0.835   5.807
 5733TIP3    H117163   3.542   0.902   5.875
 5733TIP3    H217164   3.484   0.868   5.739
 5734TIP3   OH217165   5.779   4.680   2.988
 5734TIP3    H117166   5.688   4.693   2.965
 5734TIP3    H217167   5.787   4.586   3.003
 5735TIP3   OH217168   5.121   3.890   2.411
 5735TIP3    H117169   5.065   3.930   2.345
 5735TIP3    H217170   5.188   3.956   2.428
 5736TIP3   OH217171   6.752   3.500   5.787
 5736TIP3    H117172   6.773   3.593   5.795
 5736TIP3    H217173   6.818   3.456   5.840
 5737TIP3   OH217174   3.619   6.047   4.890
 5737TIP3    H117175   3.548   6.030   4.828
 5737TIP3    H217176   3.680   6.103   4.842
 5738TIP3   OH217177   4.162   5.276   0.850
 5738TIP3    H117178   4.146   5.370   0.842
 5738TIP3    H217179   4.096   5.236   0.794
 5739TIP3   OH217180   2.923   3.025   2.880
 5739TIP3    H117181   3.018   3.028   2.881
 5739TIP3    H217182   2.897   3.110   2.845
 5740TIP3   OH217183   4.721   0.455   3.265
 5740TIP3    H117184   4.717   0.534   3.211
 5740TIP3    H217185   4.769   0.481   3.343
 5741TIP3   OH217186   5.488   3.841  -0.025
 5741TIP3    H117187   5.509   3.748  -0.015
 5741TIP3    H217188   5.400   3.841  -0.062
 5742TIP3   OH217189   5.038   2.595   1.695
 5742TIP3    H117190   5.095   2.519   1.684
 5742TIP3    H217191   5.093   2.669   1.669
 5743TIP3   OH217192   6.256   5.882   1.044
 5743TIP3    H117193   6.282   5.911   1.131
 5743TIP3    H217194   6.178   5.828   1.059
 5744TIP3   OH217195   3.107   3.211   4.832
 5744TIP3    H117196   3.154   3.295   4.837
 5744TIP3    H217197   3.117   3.183   4.741
 5745TIP3   OH217198   1.247   5.487   1.160
 5745TIP3    H117199   1.197   5.562   1.129
 5745TIP3    H217200   1.231   5.484   1.254
 5746TIP3   OH217201   5.374   3.320   2.700
 5746TIP3    H117202   5.332   3.336   2.615
 5746TIP3    H217203   5.451   3.377   2.699
 5747TIP3   OH217204   2.673   4.467   2.192
 5747TIP3    H117205   2.672   4.533   2.262
 5747TIP3    H217206   2.691   4.517   2.112
 5748TIP3   OH217207   0.306   2.764   5.120
 5748TIP3    H117208   0.213   2.781   5.103
 5748TIP3    H217209   0.313   2.669   5.120
 5749TIP3   OH217210   5.378   1.356   5.035
 5749TIP3    H117211   5.324   1.363   5.114
 5749TIP3    H217212   5.445   1.291   5.057
 5750TIP3   OH217213   7.159   1.693   3.035
 5750TIP3    H117214   7.178   1.651   2.951
 5750TIP3    H217215   7.229   1.757   3.046
 5751TIP3   OH217216   0.168   2.455   4.998
 5751TIP3    H117217   0.241   2.493   4.950
 5751TIP3    H217218   0.091   2.475   4.944
 5752TIP3   OH217219   3.660   2.083   0.896
 5752TIP3    H117220   3.580   2.037   0.873
 5752TIP3    H217221   3.676   2.142   0.823
 5753TIP3   OH217222   1.973   4.189   1.497
 5753TIP3    H117223   2.003   4.248   1.429
 5753TIP3    H217224   1.953   4.107   1.451
 5754TIP3   OH217225   3.611   5.156   2.026
 5754TIP3    H117226   3.550   5.108   1.971
 5754TIP3    H217227   3.559   5.183   2.102
 5755TIP3   OH217228   6.166   2.189   1.261
 5755TIP3    H117229   6.188   2.145   1.178
 5755TIP3    H217230   6.194   2.127   1.329
 5756TIP3   OH217231   0.257   4.266   5.476
 5756TIP3    H117232   0.313   4.335   5.441
 5756TIP3    H217233   0.217   4.227   5.398
 5757TIP3   OH217234   6.405   6.176   5.258
 5757TIP3    H117235   6.436   6.216   5.340
 5757TIP3    H217236   6.484   6.166   5.205
 5758TIP3   OH217237   2.920   2.207   4.361
 5758TIP3    H117238   2.834   2.248   4.365
 5758TIP3    H217239   2.974   2.267   4.310
 5759TIP3   OH217240   6.512   2.282   4.895
 5759TIP3    H117241   6.489   2.362   4.943
 5759TIP3    H217242   6.602   2.296   4.867
 5760TIP3   OH217243   3.041   5.105   3.576
 5760TIP3    H117244   3.026   5.199   3.563
 5760TIP3    H217245   2.997   5.085   3.658
 5761TIP3   OH217246   7.110   2.119   0.665
 5761TIP3    H117247   7.050   2.160   0.603
 5761TIP3    H217248   7.170   2.189   0.692
 5762TIP3   OH217249   1.142   0.304   2.289
 5762TIP3    H117250   1.077   0.320   2.357
 5762TIP3    H217251   1.118   0.363   2.218
 5763TIP3   OH217252   0.153   2.792   1.006
 5763TIP3    H117253   0.190   2.824   0.923
 5763TIP3    H217254   0.220   2.811   1.071
 5764TIP3   OH217255   2.149   1.743   0.077
 5764TIP3    H117256   2.196   1.671   0.034
 5764TIP3    H217257   2.076   1.700   0.121
 5765TIP3   OH217258   7.060   2.583   2.940
 5765TIP3    H117259   6.995   2.524   2.978
 5765TIP3    H217260   7.144   2.546   2.967
 5766TIP3   OH217261   5.154   4.398   3.876
 5766TIP3    H117262   5.103   4.317   3.878
 5766TIP3    H217263   5.123   4.444   3.798
 5767TIP3   OH217264   2.548  -0.030   3.258
 5767TIP3    H117265   2.498   0.050   3.241
 5767TIP3    H217266   2.630   0.002   3.298
 5768TIP3   OH217267   2.453   2.045   0.098
 5768TIP3    H117268   2.538   2.036   0.055
 5768TIP3    H217269   2.392   2.063   0.027
 5769TIP3   OH217270   3.301   4.428   5.151
 5769TIP3    H117271   3.329   4.337   5.142
 5769TIP3    H217272   3.209   4.423   5.177
 5770TIP3   OH217273   1.616   5.359   1.648
 5770TIP3    H117274   1.604   5.388   1.557
 5770TIP3    H217275   1.670   5.427   1.688
 5771TIP3   OH217276   4.486   2.178   0.823
 5771TIP3    H117277   4.424   2.211   0.759
 5771TIP3    H217278   4.570   2.176   0.776
 5772TIP3   OH217279   2.298   4.754   5.288
 5772TIP3    H117280   2.228   4.804   5.246
 5772TIP3    H217281   2.325   4.691   5.222
 5773TIP3   OH217282   5.284   2.870   5.667
 5773TIP3    H117283   5.303   2.852   5.574
 5773TIP3    H217284   5.342   2.810   5.714
 5774TIP3   OH217285   0.691   4.549   3.666
 5774TIP3    H117286   0.643   4.532   3.585
 5774TIP3    H217287   0.691   4.465   3.712
 5775TIP3   OH217288   0.013   5.472   3.145
 5775TIP3    H117289  -0.041   5.401   3.112
 5775TIP3    H217290   0.013   5.537   3.075
 5776TIP3   OH217291   5.402   0.607   5.125
 5776TIP3    H117292   5.486   0.598   5.170
 5776TIP3    H217293   5.364   0.519   5.126
 5777TIP3   OH217294   0.528   0.160   2.654
 5777TIP3    H117295   0.567   0.239   2.691
 5777TIP3    H217296   0.440   0.187   2.627
 5778TIP3   OH217297   4.142   2.882   1.259
 5778TIP3    H117298   4.230   2.851   1.238
 5778TIP3    H217299   4.084   2.818   1.217
 5779TIP3   OH217300   5.565   0.937   1.766
 5779TIP3    H117301   5.470   0.932   1.766
 5779TIP3    H217302   5.592   0.879   1.837
 5780TIP3   OH217303   1.705   5.735   1.227
 5780TIP3    H117304   1.659   5.697   1.152
 5780TIP3    H217305   1.720   5.826   1.202
 5781TIP3   OH217306   3.465   4.616   0.974
 5781TIP3    H117307   3.477   4.521   0.971
 5781TIP3    H217308   3.552   4.650   0.997
 5782TIP3   OH217309   0.070   2.485   1.469
 5782TIP3    H117310   0.079   2.450   1.381
 5782TIP3    H217311   0.128   2.429   1.523
 5783TIP3   OH217312   3.967   1.971   4.579
 5783TIP3    H117313   3.893   2.013   4.534
 5783TIP3    H217314   3.989   1.896   4.523
 5784TIP3   OH217315   2.675   5.171   2.659
 5784TIP3    H117316   2.676   5.104   2.727
 5784TIP3    H217317   2.727   5.133   2.588
 5785TIP3   OH217318   6.598   4.602   1.724
 5785TIP3    H117319   6.512   4.564   1.741
 5785TIP3    H217320   6.659   4.528   1.727
 5786TIP3   OH217321   3.088   2.433   4.545
 5786TIP3    H117322   3.155   2.500   4.534
 5786TIP3    H217323   3.112   2.387   4.625
 5787TIP3   OH217324   1.884   1.130   0.389
 5787TIP3    H117325   1.882   1.217   0.350
 5787TIP3    H217326   1.970   1.094   0.365
 5788TIP3   OH217327   5.582   0.951   0.028
 5788TIP3    H117328   5.530   1.007  -0.029
 5788TIP3    H217329   5.559   0.979   0.116
 5789TIP3   OH217330   2.557   1.822   2.911
 5789TIP3    H117331   2.499   1.819   2.987
 5789TIP3    H217332   2.523   1.893   2.857
 5790TIP3   OH217333   2.551   4.082   1.106
 5790TIP3    H117334   2.611   4.008   1.107
 5790TIP3    H217335   2.604   4.156   1.135
 5791TIP3   OH217336   4.799   2.759   4.514
 5791TIP3    H117337   4.863   2.707   4.465
 5791TIP3    H217338   4.725   2.701   4.528
 5792TIP3   OH217339   3.207   3.350   4.088
 5792TIP3    H117340   3.248   3.277   4.134
 5792TIP3    H217341   3.113   3.339   4.105
 5793TIP3   OH217342   0.096   4.517   4.171
 5793TIP3    H117343   0.101   4.438   4.224
 5793TIP3    H217344   0.082   4.485   4.081
 5794TIP3   OH217345   1.564   2.109   4.994
 5794TIP3    H117346   1.550   2.089   5.087
 5794TIP3    H217347   1.494   2.172   4.973
 5795TIP3   OH217348   4.787   4.445   4.285
 5795TIP3    H117349   4.861   4.466   4.228
 5795TIP3    H217350   4.806   4.490   4.367
 5796TIP3   OH217351   2.804   0.636   5.827
 5796TIP3    H117352   2.843   0.721   5.848
 5796TIP3    H217353   2.847   0.610   5.746
 5797TIP3   OH217354   2.848   5.823   4.095
 5797TIP3    H117355   2.872   5.913   4.073
 5797TIP3    H217356   2.923   5.771   4.067
 5798TIP3   OH217357   6.930   2.394   5.561
 5798TIP3    H117358   6.885   2.349   5.490
 5798TIP3    H217359   7.023   2.384   5.541
 5799TIP3   OH217360   5.241   6.385   4.297
 5799TIP3    H117361   5.187   6.447   4.248
 5799TIP3    H217362   5.233   6.303   4.248
 5800TIP3   OH217363   0.030   5.413   5.832
 5800TIP3    H117364   0.092   5.409   5.759
 5800TIP3    H217365  -0.055   5.394   5.794
 5801TIP3   OH217366   4.168   0.680   5.179
 5801TIP3    H117367   4.144   0.649   5.266
 5801TIP3    H217368   4.172   0.775   5.188
 5802TIP3   OH217369   4.061   0.417   0.214
 5802TIP3    H117370   4.004   0.380   0.281
 5802TIP3    H217371   4.131   0.460   0.264
 5803TIP3   OH217372   0.378   0.398   3.465
 5803TIP3    H117373   0.319   0.472   3.454
 5803TIP3    H217374   0.424   0.391   3.382
 5804TIP3   OH217375   1.971   6.335   5.242
 5804TIP3    H117376   1.894   6.374   5.200
 5804TIP3    H217377   2.041   6.346   5.177
 5805TIP3   OH217378   5.336   0.234   1.608
 5805TIP3    H117379   5.301   0.211   1.695
 5805TIP3    H217380   5.258   0.247   1.554
 5806TIP3   OH217381   0.570   3.434   4.722
 5806TIP3    H117382   0.657   3.474   4.718
 5806TIP3    H217383   0.559   3.411   4.815
 5807TIP3   OH217384   5.008   1.771   1.810
 5807TIP3    H117385   4.970   1.843   1.861
 5807TIP3    H217386   5.041   1.710   1.876
 5808TIP3   OH217387   6.837   5.387   3.625
 5808TIP3    H117388   6.768   5.388   3.691
 5808TIP3    H217389   6.832   5.473   3.583
 5809TIP3   OH217390   3.747   1.102   1.178
 5809TIP3    H117391   3.791   1.146   1.106
 5809TIP3    H217392   3.676   1.052   1.137
 5810TIP3   OH217393   0.440   3.952   4.863
 5810TIP3    H117394   0.527   3.944   4.823
 5810TIP3    H217395   0.457   3.955   4.957
 5811TIP3   OH217396   4.990   3.025   4.035
 5811TIP3    H117397   4.971   2.945   3.986
 5811TIP3    H217398   5.046   3.075   3.976
 5812TIP3   OH217399   3.420   1.921   0.984
 5812TIP3    H117400   3.444   1.897   0.894
 5812TIP3    H217401   3.332   1.960   0.976
 5813TIP3   OH217402   3.651   3.981   5.670
 5813TIP3    H117403   3.586   3.912   5.657
 5813TIP3    H217404   3.734   3.940   5.646
 5814TIP3   OH217405   5.964   5.891   1.900
 5814TIP3    H117406   5.883   5.915   1.945
 5814TIP3    H217407   6.013   5.973   1.894
 5815TIP3   OH217408   1.768   4.905   1.698
 5815TIP3    H117409   1.694   4.851   1.726
 5815TIP3    H217410   1.747   4.993   1.731
 5816TIP3   OH217411   6.321   3.587   4.412
 5816TIP3    H117412   6.284   3.661   4.364
 5816TIP3    H217413   6.397   3.560   4.361
 5817TIP3   OH217414   6.998   4.812   1.444
 5817TIP3    H117415   7.017   4.833   1.536
 5817TIP3    H217416   6.939   4.736   1.449
 5818TIP3   OH217417   4.169   0.550   1.533
 5818TIP3    H117418   4.146   0.606   1.607
 5818TIP3    H217419   4.257   0.518   1.552
 5819TIP3   OH217420   5.819   0.593   2.102
 5819TIP3    H117421   5.892   0.648   2.133
 5819TIP3    H217422   5.777   0.562   2.182
 5820TIP3   OH217423   4.912   2.175   5.229
 5820TIP3    H117424   4.967   2.105   5.265
 5820TIP3    H217425   4.832   2.173   5.281
 5821TIP3   OH217426   4.058   4.224   3.180
 5821TIP3    H117427   4.081   4.307   3.222
 5821TIP3    H217428   4.142   4.180   3.168
 5822TIP3   OH217429   1.830   1.787   1.016
 5822TIP3    H117430   1.832   1.753   1.106
 5822TIP3    H217431   1.832   1.882   1.026
 5823TIP3   OH217432   7.043   0.727   0.094
 5823TIP3    H117433   6.976   0.658   0.090
 5823TIP3    H217434   7.046   0.752   0.186
 5824TIP3   OH217435   4.131   0.578  -0.001
 5824TIP3    H117436   4.114   0.506   0.059
 5824TIP3    H217437   4.225   0.595   0.007
 5825TIP3   OH217438   4.153   1.922   1.975
 5825TIP3    H117439   4.181   1.994   1.918
 5825TIP3    H217440   4.228   1.907   2.033
 5826TIP3   OH217441   6.853   6.641   2.880
 5826TIP3    H117442   6.761   6.633   2.902
 5826TIP3    H217443   6.876   6.556   2.840
 5827TIP3   OH217444   4.581   0.463   2.306
 5827TIP3    H117445   4.559   0.429   2.219
 5827TIP3    H217446   4.677   0.467   2.306
 5828TIP3   OH217447   3.724   4.029   0.534
 5828TIP3    H117448   3.652   3.973   0.503
 5828TIP3    H217449   3.712   4.112   0.488
 5829TIP3   OH217450   0.433   5.722   4.930
 5829TIP3    H117451   0.382   5.643   4.950
 5829TIP3    H217452   0.393   5.791   4.982
 5830TIP3   OH217453   4.067   2.182   3.938
 5830TIP3    H117454   4.010   2.259   3.931
 5830TIP3    H217455   4.113   2.194   4.021
 5831TIP3   OH217456   0.784   3.454   2.629
 5831TIP3    H117457   0.703   3.430   2.584
 5831TIP3    H217458   0.757   3.520   2.693
 5832TIP3   OH217459   1.800   4.675   0.924
 5832TIP3    H117460   1.741   4.711   0.858
 5832TIP3    H217461   1.882   4.724   0.913
 5833TIP3   OH217462   7.124   0.690   2.120
 5833TIP3    H117463   7.145   0.597   2.127
 5833TIP3    H217464   7.070   0.696   2.041
 5834TIP3   OH217465   7.057   5.981   5.766
 5834TIP3    H117466   7.064   6.055   5.826
 5834TIP3    H217467   7.011   5.913   5.816
 5835TIP3   OH217468   5.706   2.002   3.990
 5835TIP3    H117469   5.773   2.004   4.058
 5835TIP3    H217470   5.677   1.911   3.989
 5836TIP3   OH217471   6.901   3.428   0.775
 5836TIP3    H117472   6.877   3.436   0.682
 5836TIP3    H217473   6.843   3.359   0.808
 5837TIP3   OH217474   4.807   0.407   4.509
 5837TIP3    H117475   4.809   0.391   4.604
 5837TIP3    H217476   4.823   0.321   4.470
 5838TIP3   OH217477   6.484   6.025   1.762
 5838TIP3    H117478   6.551   6.080   1.720
 5838TIP3    H217479   6.533   5.951   1.798
 5839TIP3   OH217480   5.287   1.167   0.536
 5839TIP3    H117481   5.318   1.258   0.536
 5839TIP3    H217482   5.347   1.121   0.596
 5840TIP3   OH217483   0.739   2.166   0.327
 5840TIP3    H117484   0.743   2.131   0.238
 5840TIP3    H217485   0.695   2.250   0.318
 5841TIP3   OH217486   0.847   2.128   4.285
 5841TIP3    H117487   0.757   2.123   4.255
 5841TIP3    H217488   0.859   2.219   4.311
 5842TIP3   OH217489   4.394   1.935   4.602
 5842TIP3    H117490   4.410   1.989   4.680
 5842TIP3    H217491   4.339   1.863   4.634
 5843TIP3   OH217492   4.799   4.087   2.738
 5843TIP3    H117493   4.895   4.081   2.741
 5843TIP3    H217494   4.782   4.146   2.664
 5844TIP3   OH217495   3.664   2.889   5.603
 5844TIP3    H117496   3.590   2.935   5.643
 5844TIP3    H217497   3.687   2.821   5.666
 5845TIP3   OH217498   1.478   2.585   4.830
 5845TIP3    H117499   1.403   2.591   4.889
 5845TIP3    H217500   1.471   2.498   4.791
 5846TIP3   OH217501   4.794   5.999   2.587
 5846TIP3    H117502   4.864   5.934   2.579
 5846TIP3    H217503   4.796   6.025   2.679
 5847TIP3   OH217504   5.994   1.974   5.312
 5847TIP3    H117505   6.089   1.974   5.323
 5847TIP3    H217506   5.969   2.066   5.314
 5848TIP3   OH217507   0.070   2.017   3.797
 5848TIP3    H117508   0.072   2.111   3.777
 5848TIP3    H217509   0.121   1.977   3.726
 5849TIP3   OH217510   0.426   3.983   0.680
 5849TIP3    H117511   0.517   4.010   0.692
 5849TIP3    H217512   0.432   3.907   0.621
 5850TIP3   OH217513   0.139   4.861   0.761
 5850TIP3    H117514   0.220   4.816   0.787
 5850TIP3    H217515   0.163   4.910   0.683
 5851TIP3   OH217516   4.209   4.362   1.239
 5851TIP3    H117517   4.189   4.339   1.148
 5851TIP3    H217518   4.276   4.300   1.266
 5852TIP3   OH217519   3.347   0.199   2.780
 5852TIP3    H117520   3.305   0.117   2.804
 5852TIP3    H217521   3.347   0.252   2.860
 5853TIP3   OH217522   4.091   0.179   1.082
 5853TIP3    H117523   4.130   0.236   1.016
 5853TIP3    H217524   4.003   0.215   1.096
 5854TIP3   OH217525   4.010   1.199   5.289
 5854TIP3    H117526   4.031   1.221   5.199
 5854TIP3    H217527   3.936   1.139   5.283
 5855TIP3   OH217528   4.319   6.605   4.497
 5855TIP3    H117529   4.413   6.595   4.487
 5855TIP3    H217530   4.300   6.566   4.582
 5856TIP3   OH217531   2.436   1.092   3.764
 5856TIP3    H117532   2.356   1.069   3.811
 5856TIP3    H217533   2.455   1.017   3.708
 5857TIP3   OH217534   3.409   0.101   3.350
 5857TIP3    H117535   3.368   0.180   3.385
 5857TIP3    H217536   3.501   0.110   3.373
 5858TIP3   OH217537   0.945   6.013   5.306
 5858TIP3    H117538   0.918   6.031   5.396
 5858TIP3    H217539   0.892   5.939   5.278
 5859TIP3   OH217540   5.252   4.736   4.094
 5859TIP3    H117541   5.219   4.824   4.115
 5859TIP3    H217542   5.253   4.690   4.178
 5860TIP3   OH217543   2.888   1.565   5.089
 5860TIP3    H117544   2.980   1.555   5.064
 5860TIP3    H217545   2.886   1.541   5.182
 5861TIP3   OH217546   0.337   4.691   4.644
 5861TIP3    H117547   0.395   4.646   4.704
 5861TIP3    H217548   0.388   4.700   4.563
 5862TIP3   OH217549   4.924   1.198   2.755
 5862TIP3    H117550   4.999   1.178   2.698
 5862TIP3    H217551   4.916   1.122   2.812
 5863TIP3   OH217552   1.451   2.900   2.371
 5863TIP3    H117553   1.528   2.862   2.328
 5863TIP3    H217554   1.387   2.829   2.373
 5864TIP3   OH217555   5.047   1.757   5.497
 5864TIP3    H117556   5.111   1.770   5.428
 5864TIP3    H217557   4.997   1.680   5.469
 5865TIP3   OH217558   1.545   4.766   5.642
 5865TIP3    H117559   1.512   4.741   5.729
 5865TIP3    H217560   1.640   4.763   5.652
 5866TIP3   OH217561   6.373   6.373   0.022
 5866TIP3    H117562   6.345   6.414   0.104
 5866TIP3    H217563   6.395   6.283   0.047
 5867TIP3   OH217564   3.156   6.177   4.069
 5867TIP3    H117565   3.248   6.191   4.092
 5867TIP3    H217566   3.142   6.235   3.993
 5868TIP3   OH217567   4.905   0.679   5.833
 5868TIP3    H117568   4.821   0.659   5.873
 5868TIP3    H217569   4.926   0.600   5.782
 5869TIP3   OH217570   2.365   0.185   3.232
 5869TIP3    H117571   2.317   0.221   3.157
 5869TIP3    H217572   2.308   0.116   3.267
 5870TIP3   OH217573   3.123   4.491   2.244
 5870TIP3    H117574   3.171   4.493   2.327
 5870TIP3    H217575   3.189   4.471   2.178
 5871TIP3   OH217576   2.607   1.737   2.536
 5871TIP3    H117577   2.534   1.747   2.598
 5871TIP3    H217578   2.620   1.825   2.501
 5872TIP3   OH217579   5.411   6.557   4.758
 5872TIP3    H117580   5.488   6.610   4.737
 5872TIP3    H217581   5.443   6.466   4.754
 5873TIP3   OH217582   2.451   3.605   5.834
 5873TIP3    H117583   2.383   3.638   5.894
 5873TIP3    H217584   2.525   3.664   5.848
 5874TIP3   OH217585   3.970   3.880   4.820
 5874TIP3    H117586   3.940   3.925   4.898
 5874TIP3    H217587   4.053   3.923   4.797
 5875TIP3   OH217588   2.597   5.086   1.745
 5875TIP3    H117589   2.556   5.029   1.680
 5875TIP3    H217590   2.525   5.139   1.779
 5876TIP3   OH217591   4.853   1.240   3.889
 5876TIP3    H117592   4.864   1.275   3.978
 5876TIP3    H217593   4.783   1.293   3.851
 5877TIP3   OH217594   6.158   5.011   5.739
 5877TIP3    H117595   6.151   5.029   5.833
 5877TIP3    H217596   6.166   4.915   5.734
 5878TIP3   OH217597   5.742   0.437   1.912
 5878TIP3    H117598   5.772   0.492   1.985
 5878TIP3    H217599   5.694   0.366   1.953
 5879TIP3   OH217600   0.273   1.232   3.637
 5879TIP3    H117601   0.255   1.138   3.632
 5879TIP3    H217602   0.308   1.244   3.725
 5880TIP3   OH217603   2.179   1.118   5.082
 5880TIP3    H117604   2.087   1.094   5.079
 5880TIP3    H217605   2.195   1.161   4.997
 5881TIP3   OH217606   1.927   3.265   1.150
 5881TIP3    H117607   1.932   3.324   1.075
 5881TIP3    H217608   1.982   3.306   1.217
 5882TIP3   OH217609   2.107   4.103   5.652
 5882TIP3    H117610   2.036   4.130   5.710
 5882TIP3    H217611   2.186   4.113   5.704
 5883TIP3   OH217612   3.070   4.370   3.601
 5883TIP3    H117613   3.103   4.430   3.534
 5883TIP3    H217614   3.092   4.283   3.568
 5884TIP3   OH217615   3.623   5.096   1.355
 5884TIP3    H117616   3.716   5.080   1.374
 5884TIP3    H217617   3.576   5.047   1.422
 5885TIP3   OH217618   2.291   2.848   3.160
 5885TIP3    H117619   2.198   2.853   3.185
 5885TIP3    H217620   2.304   2.923   3.103
 5886TIP3   OH217621   6.579   3.937   5.029
 5886TIP3    H117622   6.591   3.905   5.118
 5886TIP3    H217623   6.560   4.030   5.040
 5887TIP3   OH217624   3.579   4.743   5.247
 5887TIP3    H117625   3.617   4.683   5.312
 5887TIP3    H217626   3.648   4.807   5.230
 5888TIP3   OH217627   0.197   1.633   3.251
 5888TIP3    H117628   0.271   1.630   3.312
 5888TIP3    H217629   0.138   1.698   3.288
 5889TIP3   OH217630   0.915   3.016   3.937
 5889TIP3    H117631   0.936   3.106   3.913
 5889TIP3    H217632   0.862   2.984   3.864
 5890TIP3   OH217633   3.177   5.361   5.510
 5890TIP3    H117634   3.153   5.400   5.426
 5890TIP3    H217635   3.135   5.275   5.510
 5891TIP3   OH217636   2.905   6.267   1.624
 5891TIP3    H117637   2.924   6.358   1.599
 5891TIP3    H217638   2.942   6.215   1.553
 5892TIP3   OH217639   7.021   2.737   0.707
 5892TIP3    H117640   7.084   2.804   0.736
 5892TIP3    H217641   6.986   2.771   0.625
 5893TIP3   OH217642   1.485   4.850   3.904
 5893TIP3    H117643   1.491   4.944   3.922
 5893TIP3    H217644   1.519   4.809   3.983
 5894TIP3   OH217645   0.773   5.211   1.564
 5894TIP3    H117646   0.756   5.290   1.513
 5894TIP3    H217647   0.792   5.144   1.498
 5895TIP3   OH217648   7.023   5.788   3.774
 5895TIP3    H117649   7.060   5.728   3.709
 5895TIP3    H217650   7.075   5.868   3.764
 5896TIP3   OH217651   6.879   4.934   4.555
 5896TIP3    H117652   6.951   4.871   4.547
 5896TIP3    H217653   6.917   5.017   4.524
 5897TIP3   OH217654   3.467   0.629   2.729
 5897TIP3    H117655   3.539   0.571   2.704
 5897TIP3    H217656   3.399   0.612   2.665
 5898TIP3   OH217657   1.971   0.588   1.196
 5898TIP3    H117658   1.989   0.682   1.203
 5898TIP3    H217659   1.952   0.560   1.285
 5899TIP3   OH217660   4.483   3.955   5.699
 5899TIP3    H117661   4.438   4.006   5.766
 5899TIP3    H217662   4.526   4.020   5.644
 5900TIP3   OH217663   2.070   0.026   4.670
 5900TIP3    H117664   2.162   0.000   4.660
 5900TIP3    H217665   2.073   0.113   4.709
 5901TIP3   OH217666   0.922   6.722   0.322
 5901TIP3    H117667   0.876   6.771   0.390
 5901TIP3    H217668   1.001   6.691   0.365
 5902TIP3   OH217669   1.547   0.363   1.633
 5902TIP3    H117670   1.632   0.397   1.664
 5902TIP3    H217671   1.563   0.270   1.616
 5903TIP3   OH217672   5.109   3.807   0.328
 5903TIP3    H117673   5.150   3.891   0.310
 5903TIP3    H217674   5.166   3.742   0.287
 5904TIP3   OH217675   4.666   2.172   1.810
 5904TIP3    H117676   4.611   2.108   1.766
 5904TIP3    H217677   4.688   2.235   1.742
 5905TIP3   OH217678   5.617   3.003   5.397
 5905TIP3    H117679   5.711   2.995   5.379
 5905TIP3    H217680   5.591   2.915   5.425
 5906TIP3   OH217681   6.547   3.616   3.841
 5906TIP3    H117682   6.618   3.552   3.844
 5906TIP3    H217683   6.478   3.573   3.790
 5907TIP3   OH217684   5.826   0.505   0.647
 5907TIP3    H117685   5.756   0.527   0.708
 5907TIP3    H217686   5.807   0.415   0.620
 5908TIP3   OH217687   0.570   4.328   0.536
 5908TIP3    H117688   0.497   4.280   0.497
 5908TIP3    H217689   0.529   4.386   0.601
 5909TIP3   OH217690   5.847   3.572   1.102
 5909TIP3    H117691   5.756   3.595   1.118
 5909TIP3    H217692   5.863   3.497   1.159
 5910TIP3   OH217693   3.147   4.895   2.416
 5910TIP3    H117694   3.173   4.941   2.496
 5910TIP3    H217695   3.224   4.843   2.392
 5911TIP3   OH217696   7.111   4.965   0.642
 5911TIP3    H117697   7.093   4.910   0.718
 5911TIP3    H217698   7.164   4.911   0.584
 5912TIP3   OH217699   7.103   4.283   4.232
 5912TIP3    H117700   7.164   4.298   4.304
 5912TIP3    H217701   7.059   4.367   4.219
 5913TIP3   OH217702   1.282   2.697   1.578
 5913TIP3    H117703   1.357   2.714   1.522
 5913TIP3    H217704   1.320   2.657   1.657
 5914TIP3   OH217705   5.518   2.082   3.354
 5914TIP3    H117706   5.541   2.035   3.274
 5914TIP3    H217707   5.492   2.169   3.325
 5915TIP3   OH217708   0.063   6.365   3.435
 5915TIP3    H117709   0.041   6.273   3.447
 5915TIP3    H217710   0.078   6.398   3.524
 5916TIP3   OH217711   2.023   4.619   4.509
 5916TIP3    H117712   1.946   4.564   4.491
 5916TIP3    H217713   2.079   4.565   4.564
 5917TIP3   OH217714   1.941   3.607   4.078
 5917TIP3    H117715   1.888   3.680   4.109
 5917TIP3    H217716   2.022   3.614   4.128
 5918TIP3   OH217717   3.678   6.443   1.628
 5918TIP3    H117718   3.646   6.395   1.551
 5918TIP3    H217719   3.704   6.375   1.690
 5919TIP3   OH217720   2.112   3.700   2.407
 5919TIP3    H117721   2.129   3.645   2.330
 5919TIP3    H217722   2.138   3.788   2.379
 5920TIP3   OH217723   6.147   0.161   5.192
 5920TIP3    H117724   6.237   0.175   5.163
 5920TIP3    H217725   6.098   0.234   5.154
 5921TIP3   OH217726   2.198   2.097   1.316
 5921TIP3    H117727   2.118   2.142   1.288
 5921TIP3    H217728   2.174   2.004   1.317
 5922TIP3   OH217729   4.513   6.160   0.886
 5922TIP3    H117730   4.491   6.108   0.962
 5922TIP3    H217731   4.584   6.217   0.915
 5923TIP3   OH217732   2.883   5.541   5.228
 5923TIP3    H117733   2.881   5.622   5.177
 5923TIP3    H217734   2.847   5.565   5.313
 5924TIP3   OH217735   5.013   2.549   0.279
 5924TIP3    H117736   4.993   2.543   0.186
 5924TIP3    H217737   5.100   2.509   0.287
 5925TIP3   OH217738   3.626   1.423   5.675
 5925TIP3    H117739   3.702   1.429   5.733
 5925TIP3    H217740   3.663   1.409   5.588
 5926TIP3   OH217741   5.726   3.200   4.946
 5926TIP3    H117742   5.721   3.149   4.865
 5926TIP3    H217743   5.750   3.288   4.917
 5927TIP3   OH217744   5.933   5.087   3.428
 5927TIP3    H117745   5.987   5.160   3.458
 5927TIP3    H217746   5.847   5.101   3.468
 5928TIP3   OH217747   4.993   2.781   3.903
 5928TIP3    H117748   4.957   2.838   3.835
 5928TIP3    H217749   4.996   2.694   3.862
 5929TIP3   OH217750   1.068   3.694   0.319
 5929TIP3    H117751   1.098   3.614   0.363
 5929TIP3    H217752   0.973   3.688   0.322
 5930TIP3   OH217753   4.539   0.001   3.334
 5930TIP3    H117754   4.519  -0.031   3.246
 5930TIP3    H217755   4.538   0.097   3.324
 5931TIP3   OH217756   7.109   5.138   3.247
 5931TIP3    H117757   7.048   5.184   3.304
 5931TIP3    H217758   7.118   5.195   3.171
 5932TIP3   OH217759   3.934   3.252   4.520
 5932TIP3    H117760   4.028   3.233   4.519
 5932TIP3    H217761   3.927   3.332   4.573
 5933TIP3   OH217762   0.655   2.750   0.215
 5933TIP3    H117763   0.642   2.729   0.307
 5933TIP3    H217764   0.567   2.749   0.177
 5934TIP3   OH217765   3.405   6.533   4.118
 5934TIP3    H117766   3.325   6.499   4.157
 5934TIP3    H217767   3.448   6.582   4.188
 5935TIP3   OH217768   2.523   0.769   4.291
 5935TIP3    H117769   2.443   0.820   4.296
 5935TIP3    H217770   2.584   0.824   4.242
 5936TIP3   OH217771   4.159   2.699   3.432
 5936TIP3    H117772   4.085   2.756   3.412
 5936TIP3    H217773   4.190   2.670   3.346
 5937TIP3   OH217774   5.870   5.028   5.348
 5937TIP3    H117775   5.877   5.028   5.444
 5937TIP3    H217776   5.864   5.121   5.325
 5938TIP3   OH217777   1.768   1.369   3.593
 5938TIP3    H117778   1.757   1.463   3.603
 5938TIP3    H217779   1.841   1.360   3.532
 5939TIP3   OH217780   1.427   0.722   2.234
 5939TIP3    H117781   1.409   0.648   2.291
 5939TIP3    H217782   1.433   0.798   2.293
 5940TIP3   OH217783   4.688   5.209   4.753
 5940TIP3    H117784   4.641   5.194   4.671
 5940TIP3    H217785   4.730   5.125   4.772
 5941TIP3   OH217786   0.144   6.453   5.739
 5941TIP3    H117787   0.057   6.412   5.737
 5941TIP3    H217788   0.129   6.541   5.706
 5942TIP3   OH217789   6.236   0.348   1.976
 5942TIP3    H117790   6.205   0.438   1.967
 5942TIP3    H217791   6.198   0.318   2.059
 5943TIP3   OH217792   6.005   2.566   1.896
 5943TIP3    H117793   5.961   2.524   1.971
 5943TIP3    H217794   6.097   2.568   1.921
 5944TIP3   OH217795   3.405   1.433   1.126
 5944TIP3    H117796   3.314   1.460   1.119
 5944TIP3    H217797   3.409   1.384   1.209
 5945TIP3   OH217798   1.136   5.048   4.363
 5945TIP3    H117799   1.073   4.986   4.402
 5945TIP3    H217800   1.114   5.132   4.402
 5946TIP3   OH217801   4.421   4.506   5.565
 5946TIP3    H117802   4.458   4.449   5.499
 5946TIP3    H217803   4.330   4.478   5.573
 5947TIP3   OH217804   2.067   4.503   3.351
 5947TIP3    H117805   2.107   4.461   3.275
 5947TIP3    H217806   2.126   4.576   3.372
 5948TIP3   OH217807   0.424   0.195   0.129
 5948TIP3    H117808   0.354   0.140   0.164
 5948TIP3    H217809   0.388   0.231   0.048
 5949TIP3   OH217810   5.435   1.126   4.555
 5949TIP3    H117811   5.429   1.120   4.650
 5949TIP3    H217812   5.479   1.209   4.538
 5950TIP3   OH217813   5.195   4.663   3.255
 5950TIP3    H117814   5.231   4.666   3.343
 5950TIP3    H217815   5.129   4.594   3.258
 5951TIP3   OH217816   5.439   0.466   3.563
 5951TIP3    H117817   5.373   0.451   3.496
 5951TIP3    H217818   5.518   0.423   3.529
 5952TIP3   OH217819   5.404   3.831   3.897
 5952TIP3    H117820   5.388   3.765   3.964
 5952TIP3    H217821   5.323   3.882   3.893
 5953TIP3   OH217822   2.605   1.216   0.843
 5953TIP3    H117823   2.550   1.138   0.848
 5953TIP3    H217824   2.691   1.186   0.874
 5954TIP3   OH217825   4.253   3.676   5.364
 5954TIP3    H117826   4.319   3.680   5.294
 5954TIP3    H217827   4.303   3.667   5.444
 5955TIP3   OH217828   0.806   2.849   5.085
 5955TIP3    H117829   0.765   2.784   5.028
 5955TIP3    H217830   0.794   2.932   5.039
 5956TIP3   OH217831   0.449   3.095   3.937
 5956TIP3    H117832   0.479   3.012   3.974
 5956TIP3    H217833   0.503   3.161   3.982
 5957TIP3   OH217834   6.113   3.638   0.943
 5957TIP3    H117835   6.087   3.656   0.853
 5957TIP3    H217836   6.057   3.566   0.971
 5958TIP3   OH217837   4.020   6.569   5.247
 5958TIP3    H117838   4.004   6.535   5.335
 5958TIP3    H217839   4.104   6.615   5.254
 5959TIP3   OH217840   6.975   4.672   0.384
 5959TIP3    H117841   6.887   4.661   0.418
 5959TIP3    H217842   7.031   4.677   0.462
 5960TIP3   OH217843   4.285   5.371   3.100
 5960TIP3    H117844   4.275   5.303   3.034
 5960TIP3    H217845   4.379   5.380   3.112
 5961TIP3   OH217846   5.335   6.347   2.633
 5961TIP3    H117847   5.317   6.438   2.656
 5961TIP3    H217848   5.417   6.350   2.585
 5962TIP3   OH217849   6.582   4.950   5.586
 5962TIP3    H117850   6.651   5.009   5.559
 5962TIP3    H217851   6.525   5.003   5.642
 5963TIP3   OH217852   1.533   3.804   1.671
 5963TIP3    H117853   1.582   3.724   1.689
 5963TIP3    H217854   1.584   3.874   1.713
 5964TIP3   OH217855   0.397  -0.034   1.252
 5964TIP3    H117856   0.424  -0.122   1.226
 5964TIP3    H217857   0.397   0.016   1.170
 5965TIP3   OH217858   5.127   1.339   3.184
 5965TIP3    H117859   5.078   1.342   3.102
 5965TIP3    H217860   5.144   1.246   3.198
 5966TIP3   OH217861   6.340   6.476   0.531
 5966TIP3    H117862   6.252   6.499   0.560
 5966TIP3    H217863   6.397   6.509   0.602
 5967TIP3   OH217864   3.848   2.298   1.845
 5967TIP3    H117865   3.864   2.252   1.927
 5967TIP3    H217866   3.909   2.372   1.847
 5968TIP3   OH217867   5.728   0.699   3.923
 5968TIP3    H117868   5.703   0.705   3.831
 5968TIP3    H217869   5.822   0.683   3.921
 5969TIP3   OH217870   5.342   0.717   4.894
 5969TIP3    H117871   5.384   0.678   4.971
 5969TIP3    H217872   5.257   0.748   4.926
 5970TIP3   OH217873   3.641   2.413   5.369
 5970TIP3    H117874   3.610   2.419   5.279
 5970TIP3    H217875   3.603   2.332   5.402
 5971TIP3   OH217876   1.398   4.073   4.333
 5971TIP3    H117877   1.345   3.998   4.305
 5971TIP3    H217878   1.436   4.106   4.252
 5972TIP3   OH217879   5.271   6.742   2.957
 5972TIP3    H117880   5.224   6.661   2.941
 5972TIP3    H217881   5.208   6.811   2.938
 5973TIP3   OH217882   4.464   4.494   2.177
 5973TIP3    H117883   4.502   4.493   2.089
 5973TIP3    H217884   4.524   4.548   2.228
 5974TIP3   OH217885   2.160   4.304   2.013
 5974TIP3    H117886   2.224   4.334   2.077
 5974TIP3    H217887   2.189   4.343   1.930
 5975TIP3   OH217888   1.447   1.198   5.447
 5975TIP3    H117889   1.434   1.185   5.541
 5975TIP3    H217890   1.388   1.270   5.424
 5976TIP3   OH217891   5.685   0.499   0.873
 5976TIP3    H117892   5.731   0.433   0.925
 5976TIP3    H217893   5.637   0.551   0.938
 5977TIP3   OH217894   6.522   0.485   4.144
 5977TIP3    H117895   6.545   0.575   4.167
 5977TIP3    H217896   6.556   0.432   4.216
 5978TIP3   OH217897   0.884   2.567   3.410
 5978TIP3    H117898   0.853   2.518   3.485
 5978TIP3    H217899   0.942   2.634   3.446
 5979TIP3   OH217900   4.977   0.457   5.625
 5979TIP3    H117901   5.061   0.485   5.587
 5979TIP3    H217902   5.001   0.419   5.709
 5980TIP3   OH217903   6.763   4.206   5.711
 5980TIP3    H117904   6.835   4.233   5.655
 5980TIP3    H217905   6.689   4.261   5.683
 5981TIP3   OH217906   3.433   1.425   4.540
 5981TIP3    H117907   3.367   1.477   4.495
 5981TIP3    H217908   3.506   1.485   4.554
 5982TIP3   OH217909   5.730   5.308   4.766
 5982TIP3    H117910   5.665   5.334   4.831
 5982TIP3    H217911   5.708   5.217   4.745
 5983TIP3   OH217912   5.530   1.066   0.619
 5983TIP3    H117913   5.519   1.000   0.688
 5983TIP3    H217914   5.553   1.146   0.666
 5984TIP3   OH217915   4.797   3.473   3.048
 5984TIP3    H117916   4.838   3.393   3.082
 5984TIP3    H217917   4.738   3.442   2.979
 5985TIP3   OH217918   2.631   4.108   0.355
 5985TIP3    H117919   2.604   4.140   0.270
 5985TIP3    H217920   2.718   4.147   0.369
 5986TIP3   OH217921   4.790   6.781   5.447
 5986TIP3    H117922   4.863   6.792   5.386
 5986TIP3    H217923   4.820   6.712   5.507
 5987TIP3   OH217924   6.887   5.533   1.442
 5987TIP3    H117925   6.817   5.597   1.450
 5987TIP3    H217926   6.965   5.584   1.422
 5988TIP3   OH217927   5.732   5.920   3.446
 5988TIP3    H117928   5.702   5.939   3.535
 5988TIP3    H217929   5.810   5.867   3.458
 5989TIP3   OH217930   6.016   3.013   5.606
 5989TIP3    H117931   5.948   2.989   5.543
 5989TIP3    H217932   6.080   3.063   5.554
 5990TIP3   OH217933   5.956   6.476   1.464
 5990TIP3    H117934   6.043   6.492   1.500
 5990TIP3    H217935   5.896   6.488   1.538
 5991TIP3   OH217936   7.126   2.400   0.038
 5991TIP3    H117937   7.103   2.434   0.124
 5991TIP3    H217938   7.056   2.430  -0.020
 5992TIP3   OH217939   0.728   0.512   3.875
 5992TIP3    H117940   0.820   0.492   3.859
 5992TIP3    H217941   0.681   0.468   3.804
 5993TIP3   OH217942   6.149   6.087   2.839
 5993TIP3    H117943   6.160   6.150   2.910
 5993TIP3    H217944   6.156   6.001   2.882
 5994TIP3   OH217945   1.693   5.037   5.248
 5994TIP3    H117946   1.734   5.035   5.162
 5994TIP3    H217947   1.698   5.128   5.275
 5995TIP3   OH217948   0.165   4.360   3.302
 5995TIP3    H117949   0.227   4.368   3.230
 5995TIP3    H217950   0.176   4.440   3.353
 5996TIP3   OH217951   5.219   3.241   5.367
 5996TIP3    H117952   5.271   3.262   5.445
 5996TIP3    H217953   5.264   3.287   5.296
 5997TIP3   OH217954   6.022   3.169   1.451
 5997TIP3    H117955   6.006   3.228   1.525
 5997TIP3    H217956   5.935   3.144   1.420
 5998TIP3   OH217957   1.905   1.596   3.265
 5998TIP3    H117958   1.963   1.667   3.294
 5998TIP3    H217959   1.821   1.640   3.248
 5999TIP3   OH217960   5.579   6.204   3.781
 5999TIP3    H117961   5.551   6.129   3.730
 5999TIP3    H217962   5.562   6.179   3.872
 6000TIP3   OH217963   5.789   3.546   3.605
 6000TIP3    H117964   5.771   3.482   3.674
 6000TIP3    H217965   5.781   3.497   3.524
 6001TIP3   OH217966   6.685   5.768   4.993
 6001TIP3    H117967   6.640   5.735   4.915
 6001TIP3    H217968   6.776   5.743   4.981
 6002TIP3   OH217969   4.760   2.519   5.247
 6002TIP3    H117970   4.759   2.429   5.279
 6002TIP3    H217971   4.843   2.555   5.277
 6003TIP3   OH217972   0.847   6.795   0.586
 6003TIP3    H117973   0.848   6.754   0.672
 6003TIP3    H217974   0.921   6.855   0.587
 6004TIP3   OH217975   3.567   2.187   1.562
 6004TIP3    H117976   3.492   2.131   1.539
 6004TIP3    H217977   3.643   2.136   1.535
 6005TIP3   OH217978   3.296   6.764   2.007
 6005TIP3    H117979   3.294   6.688   1.949
 6005TIP3    H217980   3.245   6.737   2.084
 6006TIP3   OH217981   2.900   6.096   0.629
 6006TIP3    H117982   2.916   6.061   0.541
 6006TIP3    H217983   2.807   6.119   0.629
 6007TIP3   OH217984   2.215   3.157   1.033
 6007TIP3    H117985   2.291   3.128   0.983
 6007TIP3    H217986   2.253   3.194   1.113
 6008TIP3   OH217987   0.411   2.508   3.824
 6008TIP3    H117988   0.468   2.583   3.843
 6008TIP3    H217989   0.387   2.475   3.911
 6009TIP3   OH217990   5.203   3.384   4.796
 6009TIP3    H117991   5.286   3.336   4.808
 6009TIP3    H217992   5.230   3.469   4.760
 6010TIP3   OH217993   0.960   2.194   0.059
 6010TIP3    H117994   0.921   2.114   0.026
 6010TIP3    H217995   0.886   2.250   0.082
 6011TIP3   OH217996   2.202   5.141   3.411
 6011TIP3    H117997   2.118   5.114   3.374
 6011TIP3    H217998   2.191   5.234   3.431
 6012TIP3   OH217999   1.690   5.371   5.542
 6012TIP3    H118000   1.710   5.334   5.456
 6012TIP3    H218001   1.634   5.306   5.584
 6013TIP3   OH218002   1.554   1.131   0.990
 6013TIP3    H118003   1.635   1.140   1.039
 6013TIP3    H218004   1.565   1.049   0.941
 6014TIP3   OH218005   2.157   0.832   3.766
 6014TIP3    H118006   2.164   0.924   3.791
 6014TIP3    H218007   2.243   0.794   3.789
 6015TIP3   OH218008   2.056   2.058   4.114
 6015TIP3    H118009   2.003   1.978   4.119
 6015TIP3    H218010   2.142   2.032   4.147
 6016TIP3   OH218011   0.134   0.458   0.053
 6016TIP3    H118012   0.144   0.451   0.148
 6016TIP3    H218013   0.133   0.552   0.035
 6017TIP3   OH218014   0.400   4.945   3.141
 6017TIP3    H118015   0.423   4.987   3.224
 6017TIP3    H218016   0.467   4.877   3.129
 6018TIP3   OH218017   0.261   5.243   4.166
 6018TIP3    H118018   0.339   5.198   4.198
 6018TIP3    H218019   0.255   5.322   4.220
 6019TIP3   OH218020   0.396   2.604   4.610
 6019TIP3    H118021   0.466   2.657   4.572
 6019TIP3    H218022   0.386   2.530   4.550
 6020TIP3   OH218023   6.856   3.384   5.475
 6020TIP3    H118024   6.887   3.372   5.385
 6020TIP3    H218025   6.899   3.464   5.504
 6021TIP3   OH218026   1.622   6.610   3.254
 6021TIP3    H118027   1.648   6.561   3.332
 6021TIP3    H218028   1.668   6.567   3.182
 6022TIP3   OH218029   4.523   0.848   3.721
 6022TIP3    H118030   4.436   0.851   3.680
 6022TIP3    H218031   4.507   0.872   3.812
 6023TIP3   OH218032   3.497   0.594   1.305
 6023TIP3    H118033   3.408   0.613   1.334
 6023TIP3    H218034   3.551   0.659   1.350
 6024TIP3   OH218035   0.185   6.345   0.828
 6024TIP3    H118036   0.222   6.363   0.741
 6024TIP3    H218037   0.244   6.390   0.889
 6025TIP3   OH218038   2.094   3.520   5.023
 6025TIP3    H118039   2.109   3.461   4.948
 6025TIP3    H218040   2.175   3.513   5.074
 6026TIP3   OH218041   5.198   5.107   1.154
 6026TIP3    H118042   5.218   5.044   1.223
 6026TIP3    H218043   5.117   5.150   1.183
 6027TIP3   OH218044   4.061   5.785   5.248
 6027TIP3    H118045   4.095   5.875   5.255
 6027TIP3    H218046   4.020   5.769   5.333
 6028TIP3   OH218047   2.092   0.305   0.494
 6028TIP3    H118048   2.137   0.360   0.430
 6028TIP3    H218049   2.104   0.351   0.577
 6029TIP3   OH218050   0.114   1.456   3.649
 6029TIP3    H118051   0.024   1.425   3.638
 6029TIP3    H218052   0.136   1.434   3.740
 6030TIP3   OH218053   4.061   0.284   4.061
 6030TIP3    H118054   3.976   0.294   4.019
 6030TIP3    H218055   4.062   0.194   4.095
 6031TIP3   OH218056   2.171   2.282   4.713
 6031TIP3    H118057   2.114   2.292   4.636
 6031TIP3    H218058   2.248   2.236   4.679
 6032TIP3   OH218059   0.464   4.292   4.728
 6032TIP3    H118060   0.372   4.316   4.713
 6032TIP3    H218061   0.509   4.375   4.738
 6033TIP3   OH218062   4.940   3.693   3.364
 6033TIP3    H118063   4.963   3.736   3.282
 6033TIP3    H218064   5.014   3.712   3.422
 6034TIP3   OH218065   1.124   0.536   0.792
 6034TIP3    H118066   1.179   0.559   0.866
 6034TIP3    H218067   1.062   0.472   0.827
 6035TIP3   OH218068   0.476   6.676   3.170
 6035TIP3    H118069   0.503   6.760   3.205
 6035TIP3    H218070   0.427   6.698   3.090
 6036TIP3   OH218071   1.631   6.162   2.737
 6036TIP3    H118072   1.694   6.229   2.714
 6036TIP3    H218073   1.597   6.189   2.823
 6037TIP3   OH218074   6.837   6.650   4.092
 6037TIP3    H118075   6.836   6.582   4.159
 6037TIP3    H218076   6.795   6.609   4.016
 6038TIP3   OH218077   2.651   2.274   3.073
 6038TIP3    H118078   2.680   2.365   3.063
 6038TIP3    H218079   2.722   2.232   3.122
 6039TIP3   OH218080   0.034   0.975   0.061
 6039TIP3    H118081  -0.050   0.958   0.018
 6039TIP3    H218082   0.011   1.029   0.137
 6040TIP3   OH218083   3.700   0.195   3.501
 6040TIP3    H118084   3.794   0.207   3.490
 6040TIP3    H218085   3.678   0.120   3.445
 6041TIP3   OH218086   6.799   2.437   4.989
 6041TIP3    H118087   6.747   2.388   5.052
 6041TIP3    H218088   6.751   2.519   4.976
 6042TIP3   OH218089   0.338   2.518   5.478
 6042TIP3    H118090   0.259   2.569   5.458
 6042TIP3    H218091   0.350   2.463   5.401
 6043TIP3   OH218092   7.162   3.662   5.826
 6043TIP3    H118093   7.166   3.748   5.867
 6043TIP3    H218094   7.070   3.652   5.802
 6044TIP3   OH218095   1.683   1.599   0.437
 6044TIP3    H118096   1.606   1.648   0.467
 6044TIP3    H218097   1.750   1.665   0.425
 6045TIP3   OH218098   6.064   2.366   5.652
 6045TIP3    H118099   6.048   2.375   5.746
 6045TIP3    H218100   6.159   2.368   5.643
 6046TIP3   OH218101   4.770   1.225   1.977
 6046TIP3    H118102   4.724   1.185   1.903
 6046TIP3    H218103   4.794   1.151   2.033
 6047TIP3   OH218104   1.064   2.555   4.579
 6047TIP3    H118105   1.142   2.577   4.527
 6047TIP3    H218106   0.994   2.545   4.514
 6048TIP3   OH218107   6.666   6.493   0.168
 6048TIP3    H118108   6.650   6.575   0.214
 6048TIP3    H218109   6.582   6.472   0.127
 6049TIP3   OH218110   3.884   5.442   1.858
 6049TIP3    H118111   3.918   5.401   1.938
 6049TIP3    H218112   3.958   5.491   1.823
 6050TIP3   OH218113   0.181   3.632   0.293
 6050TIP3    H118114   0.107   3.583   0.255
 6050TIP3    H218115   0.211   3.578   0.366
 6051TIP3   OH218116   1.921   5.637   1.916
 6051TIP3    H118117   1.941   5.684   1.997
 6051TIP3    H218118   1.939   5.545   1.936
 6052TIP3   OH218119   6.599   1.741   1.903
 6052TIP3    H118120   6.521   1.709   1.857
 6052TIP3    H218121   6.635   1.663   1.945
 6053TIP3   OH218122   2.038   6.564   3.858
 6053TIP3    H118123   2.034   6.542   3.951
 6053TIP3    H218124   2.001   6.652   3.852
 6054TIP3   OH218125   3.629   0.047   4.148
 6054TIP3    H118126   3.554   0.093   4.184
 6054TIP3    H218127   3.591  -0.019   4.090
 6055TIP3   OH218128   2.100   5.435   4.499
 6055TIP3    H118129   2.015   5.395   4.485
 6055TIP3    H218130   2.083   5.510   4.556
 6056TIP3   OH218131   3.140   3.528   1.629
 6056TIP3    H118132   3.212   3.466   1.642
 6056TIP3    H218133   3.181   3.614   1.641
 6057TIP3   OH218134   3.072   0.411   4.298
 6057TIP3    H118135   3.015   0.486   4.313
 6057TIP3    H218136   3.108   0.426   4.210
 6058TIP3   OH218137   0.802   6.032   2.545
 6058TIP3    H118138   0.796   6.012   2.452
 6058TIP3    H218139   0.817   5.947   2.587
 6059TIP3   OH218140   3.139   4.593   3.285
 6059TIP3    H118141   3.078   4.628   3.350
 6059TIP3    H218142   3.171   4.670   3.238
 6060TIP3   OH218143   4.454   3.487   2.230
 6060TIP3    H118144   4.546   3.495   2.205
 6060TIP3    H218145   4.416   3.429   2.164
 6061TIP3   OH218146   2.518   1.560   1.087
 6061TIP3    H118147   2.561   1.502   1.149
 6061TIP3    H218148   2.588   1.596   1.033
 6062TIP3   OH218149   0.130   0.481   1.256
 6062TIP3    H118150   0.062   0.548   1.244
 6062TIP3    H218151   0.210   0.524   1.226
 6063TIP3   OH218152   1.440   6.630   1.784
 6063TIP3    H118153   1.482   6.674   1.709
 6063TIP3    H218154   1.465   6.538   1.774
 6064TIP3   OH218155   1.828   3.766   2.252
 6064TIP3    H118156   1.759   3.763   2.319
 6064TIP3    H218157   1.797   3.830   2.189
 6065TIP3   OH218158   4.266   2.190   1.378
 6065TIP3    H118159   4.326   2.198   1.452
 6065TIP3    H218160   4.189   2.240   1.403
 6066TIP3   OH218161   4.281   3.008   1.009
 6066TIP3    H118162   4.212   3.013   0.942
 6066TIP3    H218163   4.266   2.924   1.053
 6067TIP3   OH218164   2.862   2.384   1.544
 6067TIP3    H118165   2.766   2.379   1.536
 6067TIP3    H218166   2.894   2.352   1.459
 6068TIP3   OH218167   2.208   6.239   0.815
 6068TIP3    H118168   2.222   6.181   0.740
 6068TIP3    H218169   2.144   6.193   0.869
 6069TIP3   OH218170   3.803   1.884   1.004
 6069TIP3    H118171   3.755   1.953   0.959
 6069TIP3    H218172   3.895   1.904   0.986
 6070TIP3   OH218173   3.782   4.081   4.922
 6070TIP3    H118174   3.740   4.015   4.867
 6070TIP3    H218175   3.710   4.134   4.956
 6071TIP3   OH218176   7.255   6.258   1.902
 6071TIP3    H118177   7.251   6.163   1.908
 6071TIP3    H218178   7.238   6.276   1.809
 6072TIP3   OH218179   2.949   6.632   3.540
 6072TIP3    H118180   2.891   6.707   3.552
 6072TIP3    H218181   2.997   6.624   3.622
 6073TIP3   OH218182   4.345   2.590   1.602
 6073TIP3    H118183   4.390   2.626   1.679
 6073TIP3    H218184   4.277   2.654   1.583
 6074TIP3   OH218185   3.602   4.583   0.712
 6074TIP3    H118186   3.515   4.613   0.685
 6074TIP3    H218187   3.613   4.618   0.800
 6075TIP3   OH218188   2.101   0.829   1.784
 6075TIP3    H118189   2.180   0.820   1.837
 6075TIP3    H218190   2.098   0.923   1.762
 6076TIP3   OH218191   5.336   5.188   2.128
 6076TIP3    H118192   5.246   5.156   2.136
 6076TIP3    H218193   5.388   5.124   2.176
 6077TIP3   OH218194   1.769   5.502   4.367
 6077TIP3    H118195   1.858   5.476   4.345
 6077TIP3    H218196   1.774   5.528   4.459
 6078TIP3   OH218197   5.017   2.277   5.597
 6078TIP3    H118198   4.979   2.352   5.551
 6078TIP3    H218199   4.965   2.270   5.678
 6079TIP3   OH218200   3.416   4.190   0.207
 6079TIP3    H118201   3.360   4.235   0.271
 6079TIP3    H218202   3.372   4.203   0.123
 6080TIP3   OH218203   6.130   2.410   1.510
 6080TIP3    H118204   6.150   2.390   1.418
 6080TIP3    H218205   6.150   2.503   1.520
 6081TIP3   OH218206   5.225   5.472   4.519
 6081TIP3    H118207   5.186   5.542   4.466
 6081TIP3    H218208   5.192   5.488   4.608
 6082TIP3   OH218209   4.527   6.339   1.937
 6082TIP3    H118210   4.491   6.407   1.880
 6082TIP3    H218211   4.579   6.283   1.879
 6083TIP3   OH218212   5.668   1.146   2.057
 6083TIP3    H118213   5.587   1.108   2.022
 6083TIP3    H218214   5.664   1.126   2.151
 6084TIP3   OH218215   1.374   3.952   4.977
 6084TIP3    H118216   1.404   4.004   4.903
 6084TIP3    H218217   1.453   3.935   5.028
 6085TIP3   OH218218   5.492   4.876   3.524
 6085TIP3    H118219   5.468   4.931   3.599
 6085TIP3    H218220   5.494   4.936   3.450
 6086TIP3   OH218221   3.555   4.540   2.517
 6086TIP3    H118222   3.642   4.500   2.517
 6086TIP3    H218223   3.548   4.583   2.602
 6087TIP3   OH218224   5.654   6.172   0.219
 6087TIP3    H118225   5.685   6.256   0.184
 6087TIP3    H218226   5.583   6.197   0.278
 6088TIP3   OH218227   6.707   4.677   0.456
 6088TIP3    H118228   6.698   4.582   0.446
 6088TIP3    H218229   6.642   4.699   0.523
 6089TIP3   OH218230   0.474   0.491   1.931
 6089TIP3    H118231   0.465   0.577   1.890
 6089TIP3    H218232   0.550   0.452   1.887
 6090TIP3   OH218233   6.727   6.119   3.642
 6090TIP3    H118234   6.708   6.199   3.593
 6090TIP3    H218235   6.801   6.143   3.698
 6091TIP3   OH218236   4.596   2.741   5.118
 6091TIP3    H118237   4.604   2.679   5.046
 6091TIP3    H218238   4.596   2.686   5.197
 6092TIP3   OH218239   6.172   1.805   2.665
 6092TIP3    H118240   6.255   1.769   2.636
 6092TIP3    H218241   6.156   1.764   2.750
 6093TIP3   OH218242   6.561   1.543   3.300
 6093TIP3    H118243   6.492   1.583   3.353
 6093TIP3    H218244   6.570   1.601   3.225
 6094TIP3   OH218245   5.389   2.002   2.059
 6094TIP3    H118246   5.446   2.048   1.998
 6094TIP3    H218247   5.365   2.068   2.124
 6095TIP3   OH218248   2.062   5.426   4.885
 6095TIP3    H118249   2.096   5.488   4.821
 6095TIP3    H218250   1.986   5.387   4.843
 6096TIP3   OH218251   3.946   5.723   5.520
 6096TIP3    H118252   3.953   5.755   5.610
 6096TIP3    H218253   3.859   5.683   5.515
 6097TIP3   OH218254   4.524   1.876   4.876
 6097TIP3    H118255   4.541   1.794   4.923
 6097TIP3    H218256   4.479   1.931   4.940
 6098TIP3   OH218257   2.404   3.052   2.333
 6098TIP3    H118258   2.405   2.981   2.268
 6098TIP3    H218259   2.312   3.059   2.358
 6099TIP3   OH218260   5.127   1.342   1.787
 6099TIP3    H118261   5.211   1.352   1.742
 6099TIP3    H218262   5.112   1.427   1.829
 6100TIP3   OH218263   3.579  -0.025   2.304
 6100TIP3    H118264   3.515   0.047   2.303
 6100TIP3    H218265   3.546  -0.087   2.240
 6101TIP3   OH218266   3.101   1.368   4.524
 6101TIP3    H118267   3.092   1.343   4.616
 6101TIP3    H218268   3.135   1.457   4.526
 6102TIP3   OH218269   7.172   4.335   3.771
 6102TIP3    H118270   7.232   4.404   3.744
 6102TIP3    H218271   7.085   4.375   3.766
 6103TIP3   OH218272   0.212   5.976   3.037
 6103TIP3    H118273   0.285   6.032   3.011
 6103TIP3    H218274   0.243   5.887   3.023
 6104TIP3   OH218275   7.081   0.564   2.438
 6104TIP3    H118276   7.158   0.604   2.478
 6104TIP3    H218277   7.026   0.638   2.413
 6105TIP3   OH218278   5.683   3.452   4.815
 6105TIP3    H118279   5.763   3.471   4.766
 6105TIP3    H218280   5.630   3.531   4.806
 6106TIP3   OH218281   4.400   0.167   2.737
 6106TIP3    H118282   4.367   0.092   2.688
 6106TIP3    H218283   4.459   0.212   2.676
 6107TIP3   OH218284   3.907   5.383   5.512
 6107TIP3    H118285   3.911   5.288   5.513
 6107TIP3    H218286   3.997   5.411   5.494
 6108TIP3   OH218287   4.732   2.241   4.931
 6108TIP3    H118288   4.702   2.172   4.990
 6108TIP3    H218289   4.827   2.246   4.947
 6109TIP3   OH218290   6.161   5.578   3.478
 6109TIP3    H118291   6.083   5.626   3.451
 6109TIP3    H218292   6.146   5.488   3.449
 6110TIP3   OH218293   0.185   1.253   4.187
 6110TIP3    H118294   0.169   1.347   4.196
 6110TIP3    H218295   0.246   1.246   4.114
 6111TIP3   OH218296   1.150   3.560   1.966
 6111TIP3    H118297   1.073   3.591   1.917
 6111TIP3    H218298   1.210   3.635   1.966
 6112TIP3   OH218299   4.318   0.900   3.355
 6112TIP3    H118300   4.246   0.875   3.413
 6112TIP3    H218301   4.346   0.985   3.387
 6113TIP3   OH218302   3.689   0.461   4.346
 6113TIP3    H118303   3.644   0.539   4.379
 6113TIP3    H218304   3.658   0.390   4.402
 6114TIP3   OH218305   3.369   4.816   2.633
 6114TIP3    H118306   3.398   4.737   2.679
 6114TIP3    H218307   3.355   4.880   2.703
 6115TIP3   OH218308   2.065   4.796   0.921
 6115TIP3    H118309   2.153   4.791   0.957
 6115TIP3    H218310   2.079   4.800   0.826
 6116TIP3   OH218311   0.420   3.016   5.130
 6116TIP3    H118312   0.411   2.923   5.153
 6116TIP3    H218313   0.445   3.015   5.038
 6117TIP3   OH218314   6.779   2.334   2.159
 6117TIP3    H118315   6.743   2.296   2.079
 6117TIP3    H218316   6.804   2.258   2.212
 6118TIP3   OH218317   3.027   2.025   5.450
 6118TIP3    H118318   2.969   1.952   5.429
 6118TIP3    H218319   3.093   2.023   5.382
 6119TIP3   OH218320   1.152   5.730   2.920
 6119TIP3    H118321   1.220   5.718   2.854
 6119TIP3    H218322   1.076   5.685   2.885
 6120TIP3   OH218323   6.855   6.427   2.042
 6120TIP3    H118324   6.929   6.464   1.994
 6120TIP3    H218325   6.896   6.370   2.107
 6121TIP3   OH218326   1.143   3.884   1.765
 6121TIP3    H118327   1.099   3.800   1.751
 6121TIP3    H218328   1.082   3.949   1.729
 6122TIP3   OH218329   2.111   6.469   0.633
 6122TIP3    H118330   2.018   6.446   0.623
 6122TIP3    H218331   2.146   6.402   0.692
 6123TIP3   OH218332   3.794   2.149   2.946
 6123TIP3    H118333   3.812   2.208   2.872
 6123TIP3    H218334   3.833   2.193   3.021
 6124TIP3   OH218335   6.909   0.581   5.513
 6124TIP3    H118336   6.888   0.552   5.601
 6124TIP3    H218337   6.884   0.508   5.457
 6125TIP3   OH218338   1.640   2.320   3.210
 6125TIP3    H118339   1.661   2.371   3.132
 6125TIP3    H218340   1.691   2.239   3.199
 6126TIP3   OH218341   0.361   0.779   2.777
 6126TIP3    H118342   0.274   0.816   2.793
 6126TIP3    H218343   0.357   0.691   2.815
 6127TIP3   OH218344   1.253   1.234   3.932
 6127TIP3    H118345   1.244   1.270   3.844
 6127TIP3    H218346   1.213   1.300   3.989
 6128TIP3   OH218347   2.953   1.727   1.432
 6128TIP3    H118348   3.034   1.775   1.411
 6128TIP3    H218349   2.890   1.757   1.366
 6129TIP3   OH218350   7.128   1.237   3.887
 6129TIP3    H118351   7.051   1.255   3.833
 6129TIP3    H218352   7.160   1.152   3.856
 6130TIP3   OH218353   4.646   0.796   5.643
 6130TIP3    H118354   4.636   0.800   5.738
 6130TIP3    H218355   4.731   0.838   5.626
 6131TIP3   OH218356   0.091   5.891   1.393
 6131TIP3    H118357   0.048   5.806   1.386
 6131TIP3    H218358   0.082   5.930   1.306
 6132TIP3   OH218359   6.496   0.262   4.937
 6132TIP3    H118360   6.589   0.254   4.956
 6132TIP3    H218361   6.490   0.256   4.841
 6133TIP3   OH218362   1.343   6.730   2.015
 6133TIP3    H118363   1.390   6.712   1.933
 6133TIP3    H218364   1.321   6.643   2.050
 6134TIP3   OH218365   0.763   6.411   1.927
 6134TIP3    H118366   0.775   6.346   1.857
 6134TIP3    H218367   0.737   6.358   2.003
 6135TIP3   OH218368   1.363   6.499   5.907
 6135TIP3    H118369   1.404   6.569   5.855
 6135TIP3    H218370   1.284   6.476   5.858
 6136TIP3   OH218371   6.010   6.457   5.073
 6136TIP3    H118372   5.945   6.388   5.087
 6136TIP3    H218373   5.958   6.538   5.073
 6137TIP3   OH218374   0.075   4.879   2.382
 6137TIP3    H118375   0.004   4.929   2.421
 6137TIP3    H218376   0.124   4.843   2.456
 6138TIP3   OH218377   4.467   1.413   0.792
 6138TIP3    H118378   4.506   1.344   0.738
 6138TIP3    H218379   4.420   1.469   0.731
 6139TIP3   OH218380   3.374   2.183   2.206
 6139TIP3    H118381   3.301   2.189   2.268
 6139TIP3    H218382   3.332   2.170   2.121
 6140TIP3   OH218383   1.280   2.182   5.086
 6140TIP3    H118384   1.243   2.096   5.103
 6140TIP3    H218385   1.262   2.199   4.993
 6141TIP3   OH218386   5.480   5.611   2.922
 6141TIP3    H118387   5.452   5.668   2.850
 6141TIP3    H218388   5.399   5.576   2.958
 6142TIP3   OH218389   3.952   3.337   3.238
 6142TIP3    H118390   4.042   3.368   3.249
 6142TIP3    H218391   3.901   3.391   3.299
 6143TIP3   OH218392   2.111   6.819   0.105
 6143TIP3    H118393   2.183   6.879   0.087
 6143TIP3    H218394   2.152   6.745   0.150
 6144TIP3   OH218395   0.329   5.196   0.376
 6144TIP3    H118396   0.270   5.270   0.386
 6144TIP3    H218397   0.343   5.189   0.282
 6145TIP3   OH218398   4.709   2.699   5.544
 6145TIP3    H118399   4.659   2.700   5.625
 6145TIP3    H218400   4.760   2.781   5.546
 6146TIP3   OH218401   0.569   0.375   3.266
 6146TIP3    H118402   0.537   0.285   3.259
 6146TIP3    H218403   0.659   0.372   3.231
 6147TIP3   OH218404   3.061   1.285   4.789
 6147TIP3    H118405   3.120   1.291   4.864
 6147TIP3    H218406   3.051   1.191   4.773
 6148TIP3   OH218407   5.130   4.863   2.285
 6148TIP3    H118408   5.197   4.893   2.347
 6148TIP3    H218409   5.178   4.810   2.222
 6149TIP3   OH218410   2.906   0.039   2.143
 6149TIP3    H118411   2.938   0.128   2.158
 6149TIP3    H218412   2.965  -0.017   2.195
 6150TIP3   OH218413   1.135   0.217   0.439
 6150TIP3    H118414   1.198   0.221   0.511
 6150TIP3    H218415   1.167   0.280   0.375
 6151TIP3   OH218416   5.990   5.445   4.153
 6151TIP3    H118417   6.012   5.537   4.138
 6151TIP3    H218418   6.032   5.398   4.082
 6152TIP3   OH218419   6.945   5.662   4.907
 6152TIP3    H118420   6.903   5.633   4.826
 6152TIP3    H218421   6.935   5.589   4.967
 6153TIP3   OH218422   2.330   4.212   0.428
 6153TIP3    H118423   2.411   4.239   0.472
 6153TIP3    H218424   2.267   4.202   0.499
 6154TIP3   OH218425   2.085   3.255   4.326
 6154TIP3    H118426   2.142   3.315   4.279
 6154TIP3    H218427   2.144   3.195   4.371
 6155TIP3   OH218428   3.116   4.326   3.931
 6155TIP3    H118429   3.200   4.371   3.933
 6155TIP3    H218430   3.088   4.331   3.840
 6156TIP3   OH218431   6.342   0.340   4.693
 6156TIP3    H118432   6.305   0.404   4.633
 6156TIP3    H218433   6.426   0.316   4.655
 6157TIP3   OH218434   0.970   1.268   5.722
 6157TIP3    H118435   0.939   1.320   5.797
 6157TIP3    H218436   0.979   1.332   5.651
 6158TIP3   OH218437   6.582   3.622   2.996
 6158TIP3    H118438   6.526   3.583   2.929
 6158TIP3    H218439   6.573   3.717   2.984
 6159TIP3   OH218440   4.799   5.595   4.000
 6159TIP3    H118441   4.764   5.513   4.033
 6159TIP3    H218442   4.805   5.651   4.078
 6160TIP3   OH218443   1.243   4.221   5.547
 6160TIP3    H118444   1.149   4.212   5.564
 6160TIP3    H218445   1.279   4.254   5.629
 6161TIP3   OH218446   0.741   6.461   3.825
 6161TIP3    H118447   0.714   6.452   3.733
 6161TIP3    H218448   0.804   6.391   3.838
 6162TIP3   OH218449   5.703   2.312   0.344
 6162TIP3    H118450   5.646   2.346   0.413
 6162TIP3    H218451   5.643   2.282   0.276
 6163TIP3   OH218452   6.899   3.847   0.249
 6163TIP3    H118453   6.806   3.850   0.273
 6163TIP3    H218454   6.911   3.920   0.188
 6164TIP3   OH218455   6.189   0.761   0.485
 6164TIP3    H118456   6.177   0.677   0.530
 6164TIP3    H218457   6.111   0.811   0.507
 6165TIP3   OH218458   5.844   6.241   1.382
 6165TIP3    H118459   5.916   6.292   1.420
 6165TIP3    H218460   5.766   6.296   1.394
 6166TIP3   OH218461   6.830   2.384   4.369
 6166TIP3    H118462   6.782   2.447   4.315
 6166TIP3    H218463   6.825   2.420   4.458
 6167TIP3   OH218464   1.306   2.269   0.026
 6167TIP3    H118465   1.341   2.200  -0.029
 6167TIP3    H218466   1.271   2.224   0.103
 6168TIP3   OH218467   2.544   4.728   0.547
 6168TIP3    H118468   2.631   4.769   0.544
 6168TIP3    H218469   2.562   4.634   0.537
 6169TIP3   OH218470   5.072   6.254   3.839
 6169TIP3    H118471   5.019   6.241   3.759
 6169TIP3    H218472   5.012   6.297   3.900
 6170TIP3   OH218473   6.895   4.961   3.938
 6170TIP3    H118474   6.891   4.982   4.031
 6170TIP3    H218475   6.979   4.996   3.909
 6171TIP3   OH218476   0.286   0.127   0.492
 6171TIP3    H118477   0.334   0.054   0.454
 6171TIP3    H218478   0.237   0.164   0.419
 6172TIP3   OH218479   0.295   1.928   4.920
 6172TIP3    H118480   0.313   1.889   4.835
 6172TIP3    H218481   0.207   1.897   4.943
 6173TIP3   OH218482   0.420   1.314   2.529
 6173TIP3    H118483   0.411   1.410   2.526
 6173TIP3    H218484   0.376   1.284   2.450
 6174TIP3   OH218485   2.217   5.746   1.817
 6174TIP3    H118486   2.158   5.716   1.749
 6174TIP3    H218487   2.179   5.829   1.848
 6175TIP3   OH218488   1.638   6.644   2.563
 6175TIP3    H118489   1.575   6.650   2.635
 6175TIP3    H218490   1.585   6.616   2.488
 6176TIP3   OH218491   4.052   5.701   4.196
 6176TIP3    H118492   4.016   5.677   4.281
 6176TIP3    H218493   3.984   5.756   4.156
 6177TIP3   OH218494   4.130   3.350   2.099
 6177TIP3    H118495   4.153   3.370   2.009
 6177TIP3    H218496   4.095   3.432   2.134
 6178TIP3   OH218497   1.855   2.262   1.851
 6178TIP3    H118498   1.839   2.357   1.857
 6178TIP3    H218499   1.947   2.252   1.872
 6179TIP3   OH218500   6.406   2.670   1.977
 6179TIP3    H118501   6.380   2.606   1.911
 6179TIP3    H218502   6.356   2.646   2.055
 6180TIP3   OH218503   3.678   6.137   4.561
 6180TIP3    H118504   3.589   6.161   4.538
 6180TIP3    H218505   3.731   6.213   4.536
 6181TIP3   OH218506   2.185   1.509   2.551
 6181TIP3    H118507   2.227   1.463   2.478
 6181TIP3    H218508   2.131   1.442   2.594
 6182TIP3   OH218509   3.565   5.126   3.350
 6182TIP3    H118510   3.632   5.187   3.318
 6182TIP3    H218511   3.558   5.145   3.443
 6183TIP3   OH218512   4.187   3.230   2.323
 6183TIP3    H118513   4.156   3.258   2.237
 6183TIP3    H218514   4.225   3.308   2.362
 6184TIP3   OH218515   1.331   4.078   3.938
 6184TIP3    H118516   1.308   4.089   3.846
 6184TIP3    H218517   1.420   4.042   3.937
 6185TIP3   OH218518   2.042   0.313   4.102
 6185TIP3    H118519   2.090   0.244   4.149
 6185TIP3    H218520   2.104   0.344   4.036
 6186TIP3   OH218521   3.653   4.825   0.169
 6186TIP3    H118522   3.558   4.821   0.156
 6186TIP3    H218523   3.663   4.856   0.259
 6187TIP3   OH218524   2.626   2.122   4.511
 6187TIP3    H118525   2.680   2.055   4.470
 6187TIP3    H218526   2.653   2.204   4.468
 6188TIP3   OH218527   2.336   4.843   1.317
 6188TIP3    H118528   2.364   4.775   1.378
 6188TIP3    H218529   2.293   4.796   1.246
 6189TIP3   OH218530   3.787   3.740   3.170
 6189TIP3    H118531   3.772   3.724   3.263
 6189TIP3    H218532   3.820   3.830   3.166
 6190TIP3   OH218533   5.548   5.734   4.412
 6190TIP3    H118534   5.616   5.758   4.350
 6190TIP3    H218535   5.585   5.660   4.460
 6191TIP3   OH218536   2.355   1.425   2.806
 6191TIP3    H118537   2.353   1.335   2.775
 6191TIP3    H218538   2.343   1.419   2.901
 6192TIP3   OH218539   2.755   2.426   0.565
 6192TIP3    H118540   2.719   2.445   0.651
 6192TIP3    H218541   2.743   2.508   0.516
 6193TIP3   OH218542   1.469   4.591   1.972
 6193TIP3    H118543   1.501   4.502   1.988
 6193TIP3    H218544   1.406   4.607   2.043
 6194TIP3   OH218545   4.606   2.928   4.399
 6194TIP3    H118546   4.679   2.875   4.431
 6194TIP3    H218547   4.643   3.015   4.384
 6195TIP3   OH218548   6.723   4.113   4.813
 6195TIP3    H118549   6.701   4.206   4.821
 6195TIP3    H218550   6.744   4.102   4.720
 6196TIP3   OH218551   4.685   2.506   3.014
 6196TIP3    H118552   4.632   2.578   3.047
 6196TIP3    H218553   4.626   2.455   2.959
 6197TIP3   OH218554   0.573   1.159   5.039
 6197TIP3    H118555   0.572   1.093   5.108
 6197TIP3    H218556   0.665   1.168   5.015
 6198TIP3   OH218557   5.402   4.382   3.213
 6198TIP3    H118558   5.320   4.337   3.193
 6198TIP3    H218559   5.417   4.439   3.138
 6199TIP3   OH218560   1.368   4.128   0.325
 6199TIP3    H118561   1.366   4.215   0.285
 6199TIP3    H218562   1.381   4.144   0.418
 6200TIP3   OH218563   5.881   2.124   3.208
 6200TIP3    H118564   5.878   2.047   3.264
 6200TIP3    H218565   5.843   2.095   3.125
 6201TIP3   OH218566   5.440   3.449   0.649
 6201TIP3    H118567   5.483   3.511   0.708
 6201TIP3    H218568   5.473   3.472   0.562
 6202TIP3   OH218569   1.733   6.033   0.946
 6202TIP3    H118570   1.814   6.079   0.927
 6202TIP3    H218571   1.724   6.038   1.041
 6203TIP3   OH218572   0.891   1.753   3.190
 6203TIP3    H118573   0.957   1.765   3.257
 6203TIP3    H218574   0.831   1.688   3.226
 6204TIP3   OH218575   5.998   4.319   2.261
 6204TIP3    H118576   6.060   4.371   2.312
 6204TIP3    H218577   6.050   4.244   2.230
 6205TIP3   OH218578   0.845   6.753   1.179
 6205TIP3    H118579   0.871   6.667   1.212
 6205TIP3    H218580   0.756   6.741   1.148
 6206TIP3   OH218581   1.903   0.859   0.649
 6206TIP3    H118582   1.892   0.764   0.646
 6206TIP3    H218583   1.846   0.892   0.579
 6207TIP3   OH218584   0.536   3.533   2.807
 6207TIP3    H118585   0.497   3.473   2.743
 6207TIP3    H218586   0.583   3.476   2.868
 6208TIP3   OH218587   0.425   4.280   2.818
 6208TIP3    H118588   0.427   4.197   2.865
 6208TIP3    H218589   0.481   4.338   2.868
 6209TIP3   OH218590   7.239   4.202   0.905
 6209TIP3    H118591   7.244   4.112   0.936
 6209TIP3    H218592   7.164   4.202   0.845
 6210TIP3   OH218593   5.566   3.532   1.540
 6210TIP3    H118594   5.581   3.581   1.621
 6210TIP3    H218595   5.487   3.572   1.503
 6211TIP3   OH218596   7.015   6.472   5.125
 6211TIP3    H118597   6.986   6.454   5.036
 6211TIP3    H218598   6.947   6.529   5.162
 6212TIP3   OH218599   3.557   2.096   0.071
 6212TIP3    H118600   3.526   2.097  -0.020
 6212TIP3    H218601   3.478   2.089   0.124
 6213TIP3   OH218602   3.632   0.442   4.048
 6213TIP3    H118603   3.685   0.381   3.997
 6213TIP3    H218604   3.660   0.427   4.139
 6214TIP3   OH218605   3.522   4.902   1.505
 6214TIP3    H118606   3.575   4.847   1.563
 6214TIP3    H218607   3.438   4.910   1.551
 6215TIP3   OH218608   0.257   3.415   4.270
 6215TIP3    H118609   0.265   3.445   4.360
 6215TIP3    H218610   0.184   3.352   4.272
 6216TIP3   OH218611   2.466   3.208   4.010
 6216TIP3    H118612   2.509   3.123   4.000
 6216TIP3    H218613   2.538   3.271   4.015
 6217TIP3   OH218614   6.770   2.785   0.088
 6217TIP3    H118615   6.701   2.765   0.025
 6217TIP3    H218616   6.734   2.856   0.141
 6218TIP3   OH218617   1.938   0.528   2.247
 6218TIP3    H118618   1.950   0.491   2.160
 6218TIP3    H218619   1.848   0.507   2.270
 6219TIP3   OH218620   6.387   5.625   2.050
 6219TIP3    H118621   6.392   5.547   2.105
 6219TIP3    H218622   6.297   5.628   2.019
 6220TIP3   OH218623   6.534   5.646   2.634
 6220TIP3    H118624   6.565   5.721   2.685
 6220TIP3    H218625   6.480   5.685   2.565
 6221TIP3   OH218626   0.221   6.657   1.580
 6221TIP3    H118627   0.309   6.687   1.600
 6221TIP3    H218628   0.211   6.576   1.630
 6222TIP3   OH218629   4.027   0.593   5.706
 6222TIP3    H118630   3.954   0.651   5.725
 6222TIP3    H218631   3.994   0.505   5.725
 6223TIP3   OH218632   5.079   2.914   2.922
 6223TIP3    H118633   5.123   2.986   2.877
 6223TIP3    H218634   5.150   2.863   2.960
 6224TIP3   OH218635   2.294   1.216   1.853
 6224TIP3    H118636   2.306   1.171   1.936
 6224TIP3    H218637   2.233   1.160   1.804
 6225TIP3   OH218638   6.547   6.199   4.473
 6225TIP3    H118639   6.478   6.137   4.496
 6225TIP3    H218640   6.517   6.239   4.391
 6226TIP3   OH218641   2.540   1.760   2.171
 6226TIP3    H118642   2.524   1.806   2.089
 6226TIP3    H218643   2.595   1.685   2.146
 6227TIP3   OH218644   3.694   3.676   1.631
 6227TIP3    H118645   3.748   3.700   1.707
 6227TIP3    H218646   3.696   3.754   1.575
 6228TIP3   OH218647   2.545   0.916   1.585
 6228TIP3    H118648   2.623   0.949   1.541
 6228TIP3    H218649   2.473   0.935   1.523
 6229TIP3   OH218650   1.128   1.697   4.308
 6229TIP3    H118651   1.078   1.754   4.250
 6229TIP3    H218652   1.063   1.663   4.369
 6230TIP3   OH218653   4.847   2.153   3.332
 6230TIP3    H118654   4.935   2.118   3.319
 6230TIP3    H218655   4.799   2.126   3.254
 6231TIP3   OH218656   3.646   0.610   2.489
 6231TIP3    H118657   3.668   0.616   2.396
 6231TIP3    H218658   3.658   0.517   2.511
 6232TIP3   OH218659   5.759   0.278   5.533
 6232TIP3    H118660   5.819   0.323   5.593
 6232TIP3    H218661   5.814   0.246   5.462
 6233TIP3   OH218662   2.183   4.374   5.818
 6233TIP3    H118663   2.152   4.322   5.892
 6233TIP3    H218664   2.158   4.464   5.839
 6234TIP3   OH218665   6.247   2.664   5.138
 6234TIP3    H118666   6.318   2.614   5.097
 6234TIP3    H218667   6.257   2.645   5.232
 6235TIP3   OH218668   0.571   0.959   2.728
 6235TIP3    H118669   0.633   0.908   2.676
 6235TIP3    H218670   0.504   0.896   2.754
 6236TIP3   OH218671   5.721   2.836   5.913
 6236TIP3    H118672   5.806   2.808   5.878
 6236TIP3    H218673   5.713   2.927   5.886
 6237TIP3   OH218674   3.268   5.751   3.433
 6237TIP3    H118675   3.251   5.826   3.490
 6237TIP3    H218676   3.318   5.690   3.487
 6238TIP3   OH218677   4.109   6.005   2.024
 6238TIP3    H118678   4.196   6.041   2.009
 6238TIP3    H218679   4.101   5.999   2.119
 6239TIP3   OH218680   0.612   4.462   0.243
 6239TIP3    H118681   0.651   4.539   0.282
 6239TIP3    H218682   0.522   4.460   0.277
 6240TIP3   OH218683   6.440   5.888   0.729
 6240TIP3    H118684   6.393   5.882   0.812
 6240TIP3    H218685   6.380   5.851   0.665
 6241TIP3   OH218686   1.634   6.156   2.330
 6241TIP3    H118687   1.694   6.081   2.324
 6241TIP3    H218688   1.689   6.226   2.365
 6242TIP3   OH218689   4.722   4.678   1.619
 6242TIP3    H118690   4.765   4.736   1.556
 6242TIP3    H218691   4.787   4.611   1.639
 6243TIP3   OH218692   3.800   3.348   2.320
 6243TIP3    H118693   3.813   3.424   2.375
 6243TIP3    H218694   3.768   3.280   2.379
 6244TIP3   OH218695   3.836   5.497   1.291
 6244TIP3    H118696   3.852   5.584   1.256
 6244TIP3    H218697   3.911   5.445   1.262
 6245TIP3   OH218698   2.968   4.429   4.926
 6245TIP3    H118699   2.986   4.417   4.833
 6245TIP3    H218700   2.893   4.488   4.930
 6246TIP3   OH218701   4.095   3.942   1.465
 6246TIP3    H118702   4.110   4.020   1.518
 6246TIP3    H218703   4.174   3.890   1.475
 6247TIP3   OH218704   6.919   6.363   4.906
 6247TIP3    H118705   6.853   6.399   4.847
 6247TIP3    H218706   7.002   6.375   4.860
 6248TIP3   OH218707   1.565   0.376   2.829
 6248TIP3    H118708   1.652   0.348   2.858
 6248TIP3    H218709   1.507   0.354   2.901
 6249TIP3   OH218710   0.651   1.626   4.642
 6249TIP3    H118711   0.660   1.616   4.737
 6249TIP3    H218712   0.613   1.543   4.613
 6250TIP3   OH218713   1.388   5.231   0.728
 6250TIP3    H118714   1.383   5.298   0.796
 6250TIP3    H218715   1.306   5.182   0.736
 6251TIP3   OH218716   1.528   4.287  -0.045
 6251TIP3    H118717   1.434   4.268  -0.041
 6251TIP3    H218718   1.568   4.224   0.014
 6252TIP3   OH218719   1.074   3.190   3.282
 6252TIP3    H118720   1.088   3.154   3.370
 6252TIP3    H218721   1.076   3.113   3.224
 6253TIP3   OH218722   1.761   6.054   5.802
 6253TIP3    H118723   1.788   5.968   5.835
 6253TIP3    H218724   1.667   6.043   5.784
 6254TIP3   OH218725   0.645   3.761   1.459
 6254TIP3    H118726   0.578   3.696   1.480
 6254TIP3    H218727   0.629   3.785   1.368
 6255TIP3   OH218728   5.952   3.576   4.773
 6255TIP3    H118729   5.979   3.492   4.810
 6255TIP3    H218730   6.034   3.625   4.762
 6256TIP3   OH218731   1.912   1.547   2.567
 6256TIP3    H118732   1.994   1.582   2.532
 6256TIP3    H218733   1.939   1.480   2.630
 6257TIP3   OH218734   4.704   1.323   1.454
 6257TIP3    H118735   4.768   1.267   1.496
 6257TIP3    H218736   4.664   1.372   1.526
 6258TIP3   OH218737   2.794   6.129   2.303
 6258TIP3    H118738   2.859   6.154   2.238
 6258TIP3    H218739   2.845   6.100   2.379
 6259TIP3   OH218740   1.316   1.002   1.425
 6259TIP3    H118741   1.261   1.069   1.466
 6259TIP3    H218742   1.327   1.033   1.335
 6260TIP3   OH218743   5.438   3.117   0.094
 6260TIP3    H118744   5.433   3.063   0.173
 6260TIP3    H218745   5.358   3.169   0.096
 6261TIP3   OH218746   1.839   5.220   2.657
 6261TIP3    H118747   1.934   5.232   2.657
 6261TIP3    H218748   1.804   5.305   2.631
 6262TIP3   OH218749   2.779   5.138   3.109
 6262TIP3    H118750   2.754   5.226   3.082
 6262TIP3    H218751   2.802   5.147   3.201
 6263TIP3   OH218752   5.430   4.602   5.615
 6263TIP3    H118753   5.379   4.683   5.604
 6263TIP3    H218754   5.504   4.612   5.556
 6264TIP3   OH218755   2.544   0.390   0.116
 6264TIP3    H118756   2.580   0.312   0.158
 6264TIP3    H218757   2.619   0.430   0.072
 6265TIP3   OH218758   2.428   6.330   1.127
 6265TIP3    H118759   2.420   6.265   1.197
 6265TIP3    H218760   2.496   6.390   1.158
 6266TIP3   OH218761   6.916   5.894   2.393
 6266TIP3    H118762   6.954   5.947   2.462
 6266TIP3    H218763   6.821   5.904   2.404
 6267TIP3   OH218764   2.741   3.855   0.312
 6267TIP3    H118765   2.756   3.837   0.404
 6267TIP3    H218766   2.698   3.941   0.311
 6268TIP3   OH218767   5.286   3.327   1.473
 6268TIP3    H118768   5.197   3.357   1.492
 6268TIP3    H218769   5.304   3.261   1.540
 6269TIP3   OH218770   1.945   3.135   1.393
 6269TIP3    H118771   1.998   3.055   1.391
 6269TIP3    H218772   1.966   3.179   1.311
 6270TIP3   OH218773   1.215   1.206   1.584
 6270TIP3    H118774   1.169   1.247   1.511
 6270TIP3    H218775   1.263   1.277   1.626
 6271TIP3   OH218776   5.310   4.370   2.850
 6271TIP3    H118777   5.362   4.299   2.811
 6271TIP3    H218778   5.373   4.419   2.903
 6272TIP3   OH218779   1.779   5.422   0.650
 6272TIP3    H118780   1.865   5.401   0.612
 6272TIP3    H218781   1.800   5.466   0.733
 6273TIP3   OH218782   0.213   4.992   2.144
 6273TIP3    H118783   0.149   4.956   2.204
 6273TIP3    H218784   0.259   4.916   2.109
 6274TIP3   OH218785   1.734   1.332   0.681
 6274TIP3    H118786   1.701   1.379   0.758
 6274TIP3    H218787   1.729   1.239   0.705
 6275TIP3   OH218788   7.252   0.349   2.359
 6275TIP3    H118789   7.184   0.401   2.402
 6275TIP3    H218790   7.220   0.337   2.270
 6276TIP3   OH218791   1.623   4.072   0.079
 6276TIP3    H118792   1.663   3.986   0.083
 6276TIP3    H218793   1.646   4.113   0.163
 6277TIP3   OH218794   0.149   1.611   4.671
 6277TIP3    H118795   0.153   1.560   4.752
 6277TIP3    H218796   0.204   1.687   4.687
 6278TIP3   OH218797   5.580   2.177   2.842
 6278TIP3    H118798   5.510   2.116   2.867
 6278TIP3    H218799   5.572   2.249   2.905
 6279TIP3   OH218800   4.279   3.161   1.684
 6279TIP3    H118801   4.329   3.115   1.751
 6279TIP3    H218802   4.197   3.186   1.728
 6280TIP3   OH218803   2.288   5.249   4.767
 6280TIP3    H118804   2.255   5.162   4.787
 6280TIP3    H218805   2.222   5.309   4.804
 6281TIP3   OH218806   3.439   1.435   5.233
 6281TIP3    H118807   3.360   1.457   5.282
 6281TIP3    H218808   3.445   1.340   5.239
 6282TIP3   OH218809   1.651   1.873   4.220
 6282TIP3    H118810   1.674   1.928   4.145
 6282TIP3    H218811   1.641   1.935   4.292
 6283TIP3   OH218812   0.973   5.177   2.479
 6283TIP3    H118813   0.891   5.217   2.451
 6283TIP3    H218814   0.948   5.088   2.504
 6284TIP3   OH218815   6.070   1.434   5.711
 6284TIP3    H118816   6.064   1.341   5.732
 6284TIP3    H218817   6.114   1.437   5.626
 6285TIP3   OH218818   2.680   5.551   1.327
 6285TIP3    H118819   2.635   5.499   1.261
 6285TIP3    H218820   2.692   5.491   1.400
 6286TIP3   OH218821   5.578   1.203   2.960
 6286TIP3    H118822   5.551   1.292   2.983
 6286TIP3    H218823   5.531   1.147   3.021
 6287TIP3   OH218824   1.532   6.560   0.029
 6287TIP3    H118825   1.443   6.535   0.003
 6287TIP3    H218826   1.546   6.515   0.112
 6288TIP3   OH218827   6.541   6.202   1.074
 6288TIP3    H118828   6.560   6.126   1.129
 6288TIP3    H218829   6.557   6.277   1.130
 6289TIP3   OH218830   5.542   2.258   2.590
 6289TIP3    H118831   5.459   2.211   2.580
 6289TIP3    H218832   5.583   2.219   2.667
 6290TIP3   OH218833   6.158   0.953   2.425
 6290TIP3    H118834   6.157   0.921   2.515
 6290TIP3    H218835   6.133   1.045   2.432
 6291TIP3   OH218836   6.852   3.230   3.724
 6291TIP3    H118837   6.778   3.258   3.777
 6291TIP3    H218838   6.816   3.217   3.637
 6292TIP3   OH218839   4.760   3.337   0.930
 6292TIP3    H118840   4.666   3.333   0.915
 6292TIP3    H218841   4.790   3.411   0.877
 6293TIP3   OH218842   3.636   5.775   2.988
 6293TIP3    H118843   3.634   5.871   2.978
 6293TIP3    H218844   3.627   5.741   2.900
 6294TIP3   OH218845   2.176   2.691   3.936
 6294TIP3    H118846   2.141   2.711   4.023
 6294TIP3    H218847   2.255   2.745   3.928
 6295TIP3   OH218848   1.359   4.906   0.251
 6295TIP3    H118849   1.360   4.812   0.236
 6295TIP3    H218850   1.435   4.939   0.203
 6296TIP3   OH218851   2.893   2.909   0.992
 6296TIP3    H118852   2.880   2.815   1.004
 6296TIP3    H218853   2.904   2.920   0.897
 6297TIP3   OH218854   3.116   1.592   5.289
 6297TIP3    H118855   3.069   1.643   5.355
 6297TIP3    H218856   3.190   1.647   5.263
 6298TIP3   OH218857   0.159   2.905   3.421
 6298TIP3    H118858   0.084   2.910   3.480
 6298TIP3    H218859   0.134   2.955   3.344
 6299TIP3   OH218860   4.699   1.162   2.600
 6299TIP3    H118861   4.658   1.092   2.651
 6299TIP3    H218862   4.781   1.180   2.646
 6300TIP3   OH218863   1.788   3.168   2.891
 6300TIP3    H118864   1.804   3.098   2.828
 6300TIP3    H218865   1.817   3.248   2.846
 6301TIP3   OH218866   0.767   3.279   0.028
 6301TIP3    H118867   0.851   3.232   0.027
 6301TIP3    H218868   0.780   3.351  -0.034
 6302TIP3   OH218869   3.031   5.110   5.559
 6302TIP3    H118870   2.945   5.088   5.596
 6302TIP3    H218871   3.074   5.025   5.546
 6303TIP3   OH218872   3.522   2.287   5.695
 6303TIP3    H118873   3.461   2.267   5.625
 6303TIP3    H218874   3.573   2.206   5.707
 6304TIP3   OH218875   4.616   0.120   2.178
 6304TIP3    H118876   4.666   0.177   2.237
 6304TIP3    H218877   4.557   0.180   2.132
 6305TIP3   OH218878   2.479   4.186   5.455
 6305TIP3    H118879   2.389   4.192   5.422
 6305TIP3    H218880   2.477   4.231   5.539
 6306TIP3   OH218881   6.527   5.740   3.620
 6306TIP3    H118882   6.502   5.832   3.620
 6306TIP3    H218883   6.619   5.741   3.648
 6307TIP3   OH218884   0.767   2.481   0.375
 6307TIP3    H118885   0.799   2.566   0.405
 6307TIP3    H218886   0.786   2.422   0.448
 6308TIP3   OH218887   6.087   5.344   2.040
 6308TIP3    H118888   6.030   5.420   2.051
 6308TIP3    H218889   6.058   5.304   1.958
 6309TIP3   OH218890   3.772   4.282   5.188
 6309TIP3    H118891   3.734   4.203   5.227
 6309TIP3    H218892   3.712   4.304   5.116
 6310TIP3   OH218893   0.083   3.946   5.898
 6310TIP3    H118894   0.096   3.962   5.804
 6310TIP3    H218895   0.038   4.024   5.930
 6311TIP3   OH218896   3.170   5.350   4.123
 6311TIP3    H118897   3.170   5.295   4.045
 6311TIP3    H218898   3.139   5.292   4.193
 6312TIP3   OH218899   3.104   3.100   3.174
 6312TIP3    H118900   3.155   3.056   3.242
 6312TIP3    H218901   3.023   3.127   3.219
 6313TIP3   OH218902   6.954   1.336   1.302
 6313TIP3    H118903   6.971   1.354   1.210
 6313TIP3    H218904   6.980   1.416   1.348
 6314TIP3   OH218905   0.723   4.593   3.193
 6314TIP3    H118906   0.675   4.660   3.242
 6314TIP3    H218907   0.807   4.586   3.238
 6315TIP3   OH218908   4.995   1.523   2.793
 6315TIP3    H118909   4.930   1.593   2.790
 6315TIP3    H218910   4.948   1.449   2.832
 6316TIP3   OH218911   5.112   2.816   2.511
 6316TIP3    H118912   5.050   2.860   2.570
 6316TIP3    H218913   5.056   2.773   2.446
 6317TIP3   OH218914   7.069   2.834   5.239
 6317TIP3    H118915   7.112   2.836   5.154
 6317TIP3    H218916   7.095   2.916   5.281
 6318TIP3   OH218917   1.109   1.892   0.049
 6318TIP3    H118918   1.155   1.940   0.118
 6318TIP3    H218919   1.163   1.815   0.032
 6319TIP3   OH218920   2.952   0.796   1.433
 6319TIP3    H118921   2.942   0.745   1.513
 6319TIP3    H218922   2.876   0.855   1.432
 6320TIP3   OH218923   4.337   4.271   5.051
 6320TIP3    H118924   4.291   4.252   4.970
 6320TIP3    H218925   4.288   4.343   5.090
 6321TIP3   OH218926   3.598   3.136   2.423
 6321TIP3    H118927   3.543   3.153   2.347
 6321TIP3    H218928   3.544   3.080   2.479
 6322TIP3   OH218929   1.610   0.975   5.627
 6322TIP3    H118930   1.524   1.003   5.659
 6322TIP3    H218931   1.619   0.885   5.658
 6323TIP3   OH218932  -0.023   4.917   0.006
 6323TIP3    H118933   0.011   4.894  -0.080
 6323TIP3    H218934   0.022   4.999   0.028
 6324TIP3   OH218935   5.465   2.259   0.974
 6324TIP3    H118936   5.507   2.284   1.057
 6324TIP3    H218937   5.373   2.284   0.985
 6325TIP3   OH218938   5.205   6.289   2.231
 6325TIP3    H118939   5.235   6.207   2.191
 6325TIP3    H218940   5.282   6.346   2.229
 6326TIP3   OH218941   3.648   1.444   0.065
 6326TIP3    H118942   3.565   1.479   0.034
 6326TIP3    H218943   3.624   1.373   0.125
 6327TIP3   OH218944   1.753   0.936   3.390
 6327TIP3    H118945   1.729   0.895   3.473
 6327TIP3    H218946   1.686   1.004   3.377
 6328TIP3   OH218947   6.654   3.764   1.369
 6328TIP3    H118948   6.744   3.739   1.349
 6328TIP3    H218949   6.621   3.694   1.426
 6329TIP3   OH218950   6.134   1.180   3.713
 6329TIP3    H118951   6.202   1.195   3.778
 6329TIP3    H218952   6.173   1.119   3.650
 6330TIP3   OH218953   5.630   4.055   3.499
 6330TIP3    H118954   5.629   4.117   3.426
 6330TIP3    H218955   5.624   4.110   3.577
 6331TIP3   OH218956   0.174   2.876   2.515
 6331TIP3    H118957   0.102   2.930   2.547
 6331TIP3    H218958   0.161   2.872   2.421
 6332TIP3   OH218959   1.258   4.195   1.393
 6332TIP3    H118960   1.290   4.144   1.467
 6332TIP3    H218961   1.177   4.151   1.366
 6333TIP3   OH218962   4.829   3.153   5.017
 6333TIP3    H118963   4.882   3.233   5.008
 6333TIP3    H218964   4.829   3.115   4.929
 6334TIP3   OH218965   5.316   3.658   0.212
 6334TIP3    H118966   5.376   3.589   0.182
 6334TIP3    H218967   5.374   3.728   0.243
 6335TIP3   OH218968   4.219   6.599   4.014
 6335TIP3    H118969   4.142   6.633   4.061
 6335TIP3    H218970   4.222   6.506   4.039
 6336TIP3   OH218971   2.295   0.838   1.990
 6336TIP3    H118972   2.314   0.810   2.080
 6336TIP3    H218973   2.323   0.929   1.987
 6337TIP3   OH218974   1.569   6.483   3.834
 6337TIP3    H118975   1.602   6.479   3.745
 6337TIP3    H218976   1.546   6.575   3.847
 6338TIP3   OH218977   3.967   3.854   2.401
 6338TIP3    H118978   3.947   3.895   2.485
 6338TIP3    H218979   3.980   3.928   2.341
 6339TIP3   OH218980   4.783   3.721   0.990
 6339TIP3    H118981   4.696   3.684   0.982
 6339TIP3    H218982   4.810   3.741   0.900
 6340TIP3   OH218983   1.463   1.566   1.445
 6340TIP3    H118984   1.511   1.549   1.526
 6340TIP3    H218985   1.467   1.484   1.396
 6341TIP3   OH218986   3.697   6.633   5.510
 6341TIP3    H118987   3.770   6.648   5.451
 6341TIP3    H218988   3.629   6.593   5.455
 6342TIP3   OH218989   6.219   6.349   4.436
 6342TIP3    H118990   6.156   6.337   4.364
 6342TIP3    H218991   6.270   6.425   4.410
 6343TIP3   OH218992   0.881   0.735   1.698
 6343TIP3    H118993   0.955   0.676   1.686
 6343TIP3    H218994   0.810   0.695   1.647
 6344TIP3   OH218995   6.337   5.537   2.786
 6344TIP3    H118996   6.399   5.554   2.716
 6344TIP3    H218997   6.271   5.606   2.778
 6345TIP3   OH218998   1.505   1.275   4.564
 6345TIP3    H118999   1.594   1.290   4.596
 6345TIP3    H219000   1.458   1.240   4.640
 6346TIP3   OH219001   6.259   3.216   0.951
 6346TIP3    H119002   6.239   3.255   0.866
 6346TIP3    H219003   6.271   3.290   1.010
 6347TIP3   OH219004   7.160   0.710   3.806
 6347TIP3    H119005   7.093   0.672   3.863
 6347TIP3    H219006   7.166   0.801   3.835
 6348TIP3   OH219007   1.048   3.767   2.196
 6348TIP3    H119008   0.992   3.794   2.123
 6348TIP3    H219009   1.093   3.847   2.222
 6349TIP3   OH219010   1.529   0.256   4.326
 6349TIP3    H119011   1.460   0.253   4.259
 6349TIP3    H219012   1.525   0.345   4.360
 6350TIP3   OH219013   1.131   6.790   4.954
 6350TIP3    H119014   1.174   6.808   5.038
 6350TIP3    H219015   1.190   6.729   4.910
 6351TIP3   OH219016   1.507   6.571   2.304
 6351TIP3    H119017   1.491   6.665   2.307
 6351TIP3    H219018   1.440   6.536   2.245
 6352TIP3   OH219019   1.581   2.531   1.797
 6352TIP3    H119020   1.602   2.553   1.706
 6352TIP3    H219021   1.663   2.544   1.845
 6353TIP3   OH219022   4.053   2.103   0.923
 6353TIP3    H119023   4.084   2.187   0.957
 6353TIP3    H219024   4.069   2.041   0.995
 6354TIP3   OH219025   5.769   6.818   1.359
 6354TIP3    H119026   5.678   6.790   1.352
 6354TIP3    H219027   5.818   6.751   1.312
 6355TIP3   OH219028   4.099   4.587   2.579
 6355TIP3    H119029   4.155   4.513   2.599
 6355TIP3    H219030   4.122   4.611   2.489
 6356TIP3   OH219031   3.039   1.344   2.608
 6356TIP3    H119032   2.984   1.315   2.535
 6356TIP3    H219033   3.017   1.284   2.679
 6357TIP3   OH219034   1.558   0.494   3.942
 6357TIP3    H119035   1.636   0.517   3.891
 6357TIP3    H219036   1.540   0.403   3.919
 6358TIP3   OH219037   4.134   6.148  -0.007
 6358TIP3    H119038   4.101   6.145   0.083
 6358TIP3    H219039   4.112   6.235  -0.039
 6359TIP3   OH219040   0.973   1.457   4.017
 6359TIP3    H119041   0.910   1.529   4.009
 6359TIP3    H219042   0.951   1.397   3.946
 6360TIP3   OH219043   6.748   5.164   1.327
 6360TIP3    H119044   6.767   5.227   1.258
 6360TIP3    H219045   6.680   5.206   1.380
 6361TIP3   OH219046   0.735   5.559   1.305
 6361TIP3    H119047   0.766   5.600   1.386
 6361TIP3    H219048   0.798   5.490   1.287
 6362TIP3   OH219049   4.636   6.595   2.738
 6362TIP3    H119050   4.573   6.582   2.668
 6362TIP3    H219051   4.664   6.686   2.730
 6363TIP3   OH219052   6.302   3.421   2.147
 6363TIP3    H119053   6.287   3.389   2.236
 6363TIP3    H219054   6.215   3.429   2.109
 6364TIP3   OH219055   5.197   4.831   5.337
 6364TIP3    H119056   5.191   4.745   5.295
 6364TIP3    H219057   5.287   4.836   5.370
 6365TIP3   OH219058   2.014   3.312   5.237
 6365TIP3    H119059   2.020   3.378   5.168
 6365TIP3    H219060   1.936   3.335   5.286
 6366TIP3   OH219061   5.473   0.065   5.262
 6366TIP3    H119062   5.422  -0.015   5.254
 6366TIP3    H219063   5.539   0.059   5.192
 6367TIP3   OH219064   6.710   4.496   2.886
 6367TIP3    H119065   6.635   4.485   2.828
 6367TIP3    H219066   6.680   4.556   2.954
 6368TIP3   OH219067   0.646   2.694   4.950
 6368TIP3    H119068   0.682   2.605   4.941
 6368TIP3    H219069   0.552   2.680   4.966
 6369TIP3   OH219070   1.664   4.586   4.477
 6369TIP3    H119071   1.616   4.506   4.455
 6369TIP3    H219072   1.607   4.633   4.537
 6370TIP3   OH219073   4.415   3.985   2.537
 6370TIP3    H119074   4.451   3.977   2.448
 6370TIP3    H219075   4.443   4.072   2.566
 6371TIP3   OH219076   6.702   2.742   0.466
 6371TIP3    H119077   6.797   2.745   0.455
 6371TIP3    H219078   6.670   2.812   0.409
 6372TIP3   OH219079   6.115   3.570   3.917
 6372TIP3    H119080   6.107   3.487   3.871
 6372TIP3    H219081   6.065   3.632   3.864
 6373TIP3   OH219082   3.627   2.820   0.064
 6373TIP3    H119083   3.590   2.839  -0.022
 6373TIP3    H219084   3.628   2.724   0.069
 6374TIP3   OH219085   7.058   1.898   3.550
 6374TIP3    H119086   7.028   1.875   3.638
 6374TIP3    H219087   7.106   1.980   3.562
 6375TIP3   OH219088   7.068   3.472   4.979
 6375TIP3    H119089   7.024   3.526   4.913
 6375TIP3    H219090   7.119   3.534   5.030
 6376TIP3   OH219091   6.925   5.654   0.035
 6376TIP3    H119092   6.896   5.705  -0.041
 6376TIP3    H219093   6.896   5.565   0.016
 6377TIP3   OH219094   3.936   1.349   2.005
 6377TIP3    H119095   4.027   1.377   2.013
 6377TIP3    H219096   3.886   1.430   1.999
 6378TIP3   OH219097   4.497   1.431   3.449
 6378TIP3    H119098   4.476   1.341   3.475
 6378TIP3    H219099   4.446   1.486   3.508
 6379TIP3   OH219100   4.558   1.836   1.435
 6379TIP3    H119101   4.531   1.921   1.470
 6379TIP3    H219102   4.613   1.798   1.503
 6380TIP3   OH219103   4.958   6.385   2.214
 6380TIP3    H119104   4.913   6.311   2.256
 6380TIP3    H219105   5.050   6.360   2.214
 6381TIP3   OH219106   6.970   0.336   2.978
 6381TIP3    H119107   6.901   0.354   3.042
 6381TIP3    H219108   6.926   0.336   2.894
 6382TIP3   OH219109   0.112   5.330   3.957
 6382TIP3    H119110   0.178   5.304   4.022
 6382TIP3    H219111   0.133   5.277   3.879
 6383TIP3   OH219112   7.024   5.279   4.935
 6383TIP3    H119113   7.079   5.358   4.931
 6383TIP3    H219114   6.961   5.291   4.864
 6384TIP3   OH219115   2.892   1.424   3.059
 6384TIP3    H119116   2.939   1.413   3.142
 6384TIP3    H219117   2.809   1.464   3.084
 6385TIP3   OH219118   0.585   6.286   2.312
 6385TIP3    H119119   0.584   6.191   2.305
 6385TIP3    H219120   0.668   6.306   2.357
 6386TIP3   OH219121   7.015   1.420   1.030
 6386TIP3    H119122   6.976   1.429   0.943
 6386TIP3    H219123   7.078   1.492   1.036
 6387TIP3   OH219124   0.057   2.530   3.081
 6387TIP3    H119125   0.056   2.434   3.085
 6387TIP3    H219126   0.032   2.558   3.169
 6388TIP3   OH219127   3.717   0.581   4.803
 6388TIP3    H119128   3.810   0.602   4.802
 6388TIP3    H219129   3.708   0.501   4.751
 6389TIP3   OH219130   4.156   0.481   0.869
 6389TIP3    H119131   4.232   0.523   0.828
 6389TIP3    H219132   4.170   0.494   0.963
 6390TIP3   OH219133   1.157   0.110   5.148
 6390TIP3    H119134   1.251   0.097   5.140
 6390TIP3    H219135   1.141   0.119   5.242
 6391TIP3   OH219136   3.406   4.289   3.154
 6391TIP3    H119137   3.347   4.342   3.101
 6391TIP3    H219138   3.437   4.349   3.222
 6392TIP3   OH219139   4.289   1.564   4.978
 6392TIP3    H119140   4.383   1.580   4.976
 6392TIP3    H219141   4.280   1.475   5.014
 6393TIP3   OH219142   3.460   4.427   4.736
 6393TIP3    H119143   3.429   4.448   4.648
 6393TIP3    H219144   3.427   4.498   4.791
 6394TIP3   OH219145   5.855   1.573   4.962
 6394TIP3    H119146   5.894   1.632   5.027
 6394TIP3    H219147   5.782   1.532   5.007
 6395TIP3   OH219148   0.818   3.486   3.726
 6395TIP3    H119149   0.871   3.562   3.703
 6395TIP3    H219150   0.779   3.457   3.644
 6396TIP3   OH219151   6.454   5.156   2.567
 6396TIP3    H119152   6.381   5.116   2.616
 6396TIP3    H219153   6.417   5.237   2.532
 6397TIP3   OH219154   3.133   4.624   0.302
 6397TIP3    H119155   3.192   4.687   0.343
 6397TIP3    H219156   3.170   4.611   0.214
 6398TIP3   OH219157   2.621   1.922   5.674
 6398TIP3    H119158   2.595   1.932   5.582
 6398TIP3    H219159   2.540   1.902   5.720
 6399TIP3   OH219160   1.844   6.638   4.479
 6399TIP3    H119161   1.823   6.580   4.406
 6399TIP3    H219162   1.850   6.725   4.439
 6400TIP3   OH219163   5.764   6.062   2.225
 6400TIP3    H119164   5.856   6.085   2.215
 6400TIP3    H219165   5.742   6.088   2.314
 6401TIP3   OH219166   3.881   2.478   5.489
 6401TIP3    H119167   3.869   2.573   5.481
 6401TIP3    H219168   3.797   2.441   5.460
 6402TIP3   OH219169   0.549   6.627   0.493
 6402TIP3    H119170   0.569   6.679   0.570
 6402TIP3    H219171   0.596   6.545   0.506
 6403TIP3   OH219172   6.891   5.594   1.137
 6403TIP3    H119173   6.983   5.615   1.118
 6403TIP3    H219174   6.896   5.518   1.195
 6404TIP3   OH219175   6.331   1.951   2.300
 6404TIP3    H119176   6.335   1.960   2.205
 6404TIP3    H219177   6.403   2.005   2.332
 6405TIP3   OH219178   3.516   2.376   1.369
 6405TIP3    H119179   3.527   2.299   1.425
 6405TIP3    H219180   3.422   2.383   1.355
 6406TIP3   OH219181   1.780   2.011   5.296
 6406TIP3    H119182   1.691   2.042   5.283
 6406TIP3    H219183   1.777   1.918   5.275
 6407TIP3   OH219184   3.776   1.575   5.052
 6407TIP3    H119185   3.866   1.606   5.043
 6407TIP3    H219186   3.784   1.490   5.095
 6408TIP3   OH219187   5.235   2.611   0.482
 6408TIP3    H119188   5.203   2.698   0.456
 6408TIP3    H219189   5.263   2.622   0.573
 6409TIP3   OH219190   1.787   1.441   1.511
 6409TIP3    H119191   1.728   1.472   1.580
 6409TIP3    H219192   1.821   1.521   1.471
 6410TIP3   OH219193   3.983   4.320   2.671
 6410TIP3    H119194   3.974   4.407   2.633
 6410TIP3    H219195   4.021   4.267   2.601
 6411TIP3   OH219196   1.016   2.899   4.674
 6411TIP3    H119197   0.978   2.826   4.723
 6411TIP3    H219198   1.108   2.876   4.664
 6412TIP3   OH219199   2.420   0.602   1.853
 6412TIP3    H119200   2.388   0.664   1.788
 6412TIP3    H219201   2.464   0.657   1.918
 6413TIP3   OH219202   3.768   2.904   1.983
 6413TIP3    H119203   3.828   2.831   1.966
 6413TIP3    H219204   3.825   2.975   2.012
 6414TIP3   OH219205   0.441   6.207   4.658
 6414TIP3    H119206   0.445   6.169   4.746
 6414TIP3    H219207   0.402   6.139   4.604
 6415TIP3   OH219208   3.597   2.551   3.323
 6415TIP3    H119209   3.649   2.501   3.387
 6415TIP3    H219210   3.609   2.643   3.349
 6416TIP3   OH219211   2.166   5.870   5.069
 6416TIP3    H119212   2.198   5.911   5.150
 6416TIP3    H219213   2.201   5.781   5.072
 6417TIP3   OH219214   7.066   0.533   4.737
 6417TIP3    H119215   7.114   0.471   4.790
 6417TIP3    H219216   7.134   0.589   4.698
 6418TIP3   OH219217   7.208   1.201   1.478
 6418TIP3    H119218   7.147   1.274   1.491
 6418TIP3    H219219   7.280   1.239   1.428
 6419TIP3   OH219220   4.580   0.926   0.673
 6419TIP3    H119221   4.646   0.857   0.679
 6419TIP3    H219222   4.603   0.987   0.743
 6420TIP3   OH219223   5.831   0.225   5.260
 6420TIP3    H119224   5.825   0.174   5.180
 6420TIP3    H219225   5.925   0.238   5.274
 6421TIP3   OH219226   2.044   1.092   1.814
 6421TIP3    H119227   2.000   1.159   1.762
 6421TIP3    H219228   2.001   1.096   1.899
 6422TIP3   OH219229   5.418   3.824   2.374
 6422TIP3    H119230   5.485   3.833   2.306
 6422TIP3    H219231   5.335   3.823   2.326
 6423TIP3   OH219232   2.039   1.715   5.387
 6423TIP3    H119233   2.098   1.790   5.386
 6423TIP3    H219234   2.086   1.648   5.437
 6424TIP3   OH219235   6.232   4.082   3.775
 6424TIP3    H119236   6.179   4.116   3.703
 6424TIP3    H219237   6.282   4.010   3.735
 6425TIP3   OH219238   4.513   2.092   4.149
 6425TIP3    H119239   4.511   2.181   4.184
 6425TIP3    H219240   4.476   2.100   4.061
 6426TIP3   OH219241   1.611   5.807   4.996
 6426TIP3    H119242   1.702   5.814   5.025
 6426TIP3    H219243   1.574   5.737   5.049
 6427TIP3   OH219244   5.904   1.779   2.895
 6427TIP3    H119245   5.849   1.722   2.841
 6427TIP3    H219246   5.872   1.867   2.878
 6428TIP3   OH219247   1.682   4.397   3.912
 6428TIP3    H119248   1.734   4.342   3.970
 6428TIP3    H219249   1.692   4.358   3.826
 6429TIP3   OH219250   2.622   3.122   2.519
 6429TIP3    H119251   2.700   3.153   2.472
 6429TIP3    H219252   2.563   3.091   2.451
 6430TIP3   OH219253   4.983   1.506   4.702
 6430TIP3    H119254   4.995   1.598   4.726
 6430TIP3    H219255   5.072   1.471   4.696
 6431TIP3   OH219256   5.595   0.726   1.981
 6431TIP3    H119257   5.531   0.723   2.052
 6431TIP3    H219258   5.667   0.672   2.012
 6432TIP3   OH219259   5.811   4.960   0.256
 6432TIP3    H119260   5.743   4.987   0.193
 6432TIP3    H219261   5.849   4.881   0.219
 6433TIP3   OH219262   2.391   1.554   0.264
 6433TIP3    H119263   2.473   1.536   0.218
 6433TIP3    H219264   2.400   1.644   0.295
 6434TIP3   OH219265   1.825   4.281   5.247
 6434TIP3    H119266   1.886   4.344   5.285
 6434TIP3    H219267   1.807   4.316   5.160
 6435TIP3   OH219268   3.700   1.790   3.987
 6435TIP3    H119269   3.722   1.884   3.989
 6435TIP3    H219270   3.759   1.751   4.052
 6436TIP3   OH219271   1.932   5.879   4.668
 6436TIP3    H119272   1.846   5.908   4.696
 6436TIP3    H219273   1.951   5.930   4.590
 6437TIP3   OH219274   6.767   4.408   0.406
 6437TIP3    H119275   6.806   4.374   0.487
 6437TIP3    H219276   6.834   4.393   0.339
 6438TIP3   OH219277   4.967   5.109   0.635
 6438TIP3    H119278   4.957   5.174   0.704
 6438TIP3    H219279   5.047   5.135   0.589
 6439TIP3   OH219280   5.568   3.478   0.415
 6439TIP3    H119281   5.646   3.524   0.384
 6439TIP3    H219282   5.530   3.439   0.336
 6440TIP3   OH219283   4.487   0.665   3.310
 6440TIP3    H119284   4.444   0.744   3.341
 6440TIP3    H219285   4.421   0.621   3.257
 6441TIP3   OH219286   5.548   5.110   4.788
 6441TIP3    H119287   5.456   5.095   4.765
 6441TIP3    H219288   5.582   5.024   4.810
 6442TIP3   OH219289   1.293   5.528   4.603
 6442TIP3    H119290   1.299   5.516   4.509
 6442TIP3    H219291   1.382   5.515   4.635
 6443TIP3   OH219292   0.423   3.755   2.916
 6443TIP3    H119293   0.440   3.736   3.008
 6443TIP3    H219294   0.456   3.678   2.869
 6444TIP3   OH219295   6.363   6.657   2.289
 6444TIP3    H119296   6.278   6.682   2.252
 6444TIP3    H219297   6.361   6.562   2.293
 6445TIP3   OH219298   4.116   6.052   3.675
 6445TIP3    H119299   4.066   6.030   3.597
 6445TIP3    H219300   4.193   6.100   3.643
 6446TIP3   OH219301   5.771   4.872   0.734
 6446TIP3    H119302   5.832   4.897   0.665
 6446TIP3    H219303   5.801   4.919   0.811
 6447TIP3   OH219304   2.883   6.341   5.298
 6447TIP3    H119305   2.952   6.303   5.352
 6447TIP3    H219306   2.876   6.282   5.223
 6448TIP3   OH219307   5.964   3.741   0.077
 6448TIP3    H119308   5.957   3.824   0.030
 6448TIP3    H219309   6.026   3.757   0.147
 6449TIP3   OH219310   0.913   0.826   5.862
 6449TIP3    H119311   0.960   0.906   5.838
 6449TIP3    H219312   0.859   0.806   5.786
 6450TIP3   OH219313   0.693   3.317   3.069
 6450TIP3    H119314   0.697   3.294   2.976
 6450TIP3    H219315   0.638   3.250   3.109
 6451TIP3   OH219316   1.496   5.893   0.653
 6451TIP3    H119317   1.461   5.878   0.565
 6451TIP3    H219318   1.564   5.827   0.663
 6452TIP3   OH219319   1.430   6.241   2.924
 6452TIP3    H119320   1.428   6.284   3.009
 6452TIP3    H219321   1.403   6.151   2.942
 6453TIP3   OH219322   3.621   6.478   3.392
 6453TIP3    H119323   3.656   6.555   3.348
 6453TIP3    H219324   3.698   6.435   3.429
 6454TIP3   OH219325   4.384   2.002   0.572
 6454TIP3    H119326   4.342   1.946   0.507
 6454TIP3    H219327   4.327   2.079   0.578
 6455TIP3   OH219328   6.617   4.715   1.042
 6455TIP3    H119329   6.673   4.791   1.058
 6455TIP3    H219330   6.537   4.734   1.093
 6456TIP3   OH219331   3.192   1.087   2.663
 6456TIP3    H119332   3.136   1.105   2.739
 6456TIP3    H219333   3.210   1.174   2.626
 6457TIP3   OH219334   2.226   5.980   3.057
 6457TIP3    H119335   2.234   5.922   2.981
 6457TIP3    H219336   2.189   6.060   3.022
 6458TIP3   OH219337   5.307   3.862   0.754
 6458TIP3    H119338   5.259   3.817   0.685
 6458TIP3    H219339   5.362   3.925   0.707
 6459TIP3   OH219340   3.803   3.654   1.892
 6459TIP3    H119341   3.822   3.560   1.896
 6459TIP3    H219342   3.818   3.685   1.981
 6460TIP3   OH219343   0.850   0.747   1.150
 6460TIP3    H119344   0.842   0.672   1.090
 6460TIP3    H219345   0.900   0.713   1.224
 6461TIP3   OH219346   6.734   0.462   1.791
 6461TIP3    H119347   6.639   0.449   1.788
 6461TIP3    H219348   6.745   0.555   1.810
 6462TIP3   OH219349   2.769   4.230   1.253
 6462TIP3    H119350   2.834   4.165   1.280
 6462TIP3    H219351   2.815   4.286   1.191
 6463TIP3   OH219352   6.307   4.665   4.653
 6463TIP3    H119353   6.221   4.676   4.695
 6463TIP3    H219354   6.288   4.663   4.559
 6464TIP3   OH219355   6.022   4.719   4.763
 6464TIP3    H119356   5.936   4.699   4.726
 6464TIP3    H219357   6.014   4.810   4.793
 6465TIP3   OH219358   1.100   5.780   2.537
 6465TIP3    H119359   1.117   5.782   2.443
 6465TIP3    H219360   1.110   5.871   2.565
 6466TIP3   OH219361   1.329   2.523   0.529
 6466TIP3    H119362   1.357   2.604   0.573
 6466TIP3    H219363   1.366   2.453   0.583
 6467TIP3   OH219364   5.865   4.032   3.624
 6467TIP3    H119365   5.794   4.003   3.567
 6467TIP3    H219366   5.934   3.966   3.611
 6468TIP3   OH219367   1.798   6.607   4.876
 6468TIP3    H119368   1.887   6.630   4.848
 6468TIP3    H219369   1.806   6.515   4.903
 6469TIP3   OH219370   6.695   5.890   0.682
 6469TIP3    H119371   6.736   5.811   0.716
 6469TIP3    H219372   6.601   5.874   0.692
 6470TIP3   OH219373   7.019   3.154   2.273
 6470TIP3    H119374   6.984   3.176   2.359
 6470TIP3    H219375   6.984   3.222   2.215
 6471TIP3   OH219376   1.731   5.279   2.979
 6471TIP3    H119377   1.788   5.352   3.003
 6471TIP3    H219378   1.764   5.250   2.894
 6472TIP3   OH219379   1.081   5.129   1.552
 6472TIP3    H119380   0.996   5.133   1.596
 6472TIP3    H219381   1.141   5.098   1.620
 6473TIP3   OH219382   2.254   2.379   2.123
 6473TIP3    H119383   2.236   2.357   2.214
 6473TIP3    H219384   2.338   2.337   2.104
 6474TIP3   OH219385   2.386   3.600   0.386
 6474TIP3    H119386   2.455   3.628   0.446
 6474TIP3    H219387   2.340   3.531   0.433
 6475TIP3   OH219388   3.401   6.066   0.523
 6475TIP3    H119389   3.324   6.119   0.541
 6475TIP3    H219390   3.469   6.130   0.500
 6476TIP3   OH219391   2.103   5.051   5.361
 6476TIP3    H119392   2.197   5.049   5.340
 6476TIP3    H219393   2.062   5.002   5.290
 6477TIP3   OH219394   6.902   1.624   4.322
 6477TIP3    H119395   6.987   1.663   4.299
 6477TIP3    H219396   6.839   1.696   4.310
 6478TIP3   OH219397   3.698   6.148   5.144
 6478TIP3    H119398   3.668   6.140   5.054
 6478TIP3    H219399   3.774   6.089   5.149
 6479TIP3   OH219400   5.340   2.091   5.281
 6479TIP3    H119401   5.430   2.090   5.312
 6479TIP3    H219402   5.346   2.113   5.188
 6480TIP3   OH219403   6.644   1.970   0.485
 6480TIP3    H119404   6.559   1.988   0.525
 6480TIP3    H219405   6.625   1.910   0.413
 6481TIP3   OH219406   6.864   0.287   2.697
 6481TIP3    H119407   6.770   0.304   2.694
 6481TIP3    H219408   6.887   0.258   2.609
 6482TIP3   OH219409   4.596   5.600   1.237
 6482TIP3    H119410   4.663   5.632   1.298
 6482TIP3    H219411   4.603   5.658   1.161
 6483TIP3   OH219412   6.123   1.821   4.037
 6483TIP3    H119413   6.208   1.802   4.078
 6483TIP3    H219414   6.145   1.865   3.955
 6484TIP3   OH219415   0.274   5.679   2.019
 6484TIP3    H119416   0.285   5.633   2.103
 6484TIP3    H219417   0.289   5.611   1.953
 6485TIP3   OH219418   6.074   6.706   3.363
 6485TIP3    H119419   6.003   6.708   3.428
 6485TIP3    H219420   6.125   6.629   3.386
 6486TIP3   OH219421   6.262   5.277   3.734
 6486TIP3    H119422   6.317   5.199   3.734
 6486TIP3    H219423   6.323   5.350   3.746
 6487TIP3   OH219424   6.100   6.638   0.142
 6487TIP3    H119425   6.097   6.549   0.177
 6487TIP3    H219426   6.045   6.635   0.064
 6488TIP3   OH219427   1.339   6.504   0.335
 6488TIP3    H119428   1.427   6.537   0.316
 6488TIP3    H219429   1.354   6.427   0.390
 6489TIP3   OH219430   5.374   6.085   2.136
 6489TIP3    H119431   5.350   6.001   2.096
 6489TIP3    H219432   5.410   6.136   2.064
 6490TIP3   OH219433   2.124   2.253   1.903
 6490TIP3    H119434   2.208   2.255   1.857
 6490TIP3    H219435   2.132   2.321   1.969
 6491TIP3   OH219436   5.494   0.311   4.193
 6491TIP3    H119437   5.585   0.327   4.165
 6491TIP3    H219438   5.445   0.386   4.160
 6492TIP3   OH219439   0.216   6.751   3.754
 6492TIP3    H119440   0.224   6.808   3.678
 6492TIP3    H219441   0.174   6.672   3.720
 6493TIP3   OH219442   3.115   5.706   2.778
 6493TIP3    H119443   3.161   5.624   2.795
 6493TIP3    H219444   3.164   5.772   2.826
 6494TIP3   OH219445   3.943   4.939   4.172
 6494TIP3    H119446   3.974   5.006   4.233
 6494TIP3    H219447   3.896   4.988   4.105
 6495TIP3   OH219448   6.443   5.154   5.709
 6495TIP3    H119449   6.436   5.248   5.726
 6495TIP3    H219450   6.366   5.117   5.753
 6496TIP3   OH219451   0.823   4.494   4.424
 6496TIP3    H119452   0.832   4.536   4.339
 6496TIP3    H219453   0.913   4.480   4.454
 6497TIP3   OH219454   6.398   2.035   4.803
 6497TIP3    H119455   6.448   1.954   4.793
 6497TIP3    H219456   6.464   2.104   4.803
 6498TIP3   OH219457   2.559   3.246   3.263
 6498TIP3    H119458   2.497   3.274   3.330
 6498TIP3    H219459   2.548   3.151   3.257
 6499TIP3   OH219460   2.331   2.409   0.741
 6499TIP3    H119461   2.249   2.459   0.744
 6499TIP3    H219462   2.381   2.439   0.816
 6500TIP3   OH219463   0.534   6.060   2.660
 6500TIP3    H119464   0.622   6.052   2.623
 6500TIP3    H219465   0.538   6.136   2.717
 6501TIP3   OH219466   6.719   0.072   4.452
 6501TIP3    H119467   6.717   0.062   4.357
 6501TIP3    H219468   6.728  -0.017   4.486
 6502TIP3   OH219469   1.224   4.837   1.974
 6502TIP3    H119470   1.311   4.878   1.973
 6502TIP3    H219471   1.233   4.765   2.038
 6503TIP3   OH219472   5.932   1.642   1.799
 6503TIP3    H119473   5.924   1.554   1.761
 6503TIP3    H219474   6.010   1.679   1.758
 6504TIP3   OH219475   3.056   0.828   2.226
 6504TIP3    H119476   3.129   0.837   2.164
 6504TIP3    H219477   3.096   0.838   2.312
 6505TIP3   OH219478   1.507   1.858   3.006
 6505TIP3    H119479   1.437   1.834   2.946
 6505TIP3    H219480   1.463   1.874   3.090
 6506TIP3   OH219481   0.142   3.479   5.820
 6506TIP3    H119482   0.071   3.542   5.813
 6506TIP3    H219483   0.219   3.525   5.787
 6507TIP3   OH219484   2.778   2.912   2.642
 6507TIP3    H119485   2.832   2.937   2.716
 6507TIP3    H219486   2.725   2.990   2.623
 6508TIP3   OH219487   6.410   0.600   4.625
 6508TIP3    H119488   6.495   0.579   4.586
 6508TIP3    H219489   6.420   0.581   4.718
 6509TIP3   OH219490   5.921   6.595   2.822
 6509TIP3    H119491   5.835   6.596   2.782
 6509TIP3    H219492   5.981   6.571   2.751
 6510TIP3   OH219493   2.342   3.161   1.273
 6510TIP3    H119494   2.413   3.157   1.337
 6510TIP3    H219495   2.301   3.075   1.277
 6511TIP3   OH219496   3.019   5.513   4.563
 6511TIP3    H119497   3.041   5.420   4.569
 6511TIP3    H219498   2.950   5.525   4.627
 6512TIP3   OH219499   4.137   3.448   4.329
 6512TIP3    H119500   4.083   3.419   4.255
 6512TIP3    H219501   4.099   3.533   4.354
 6513TIP3   OH219502   5.667   6.526   3.268
 6513TIP3    H119503   5.687   6.435   3.247
 6513TIP3    H219504   5.609   6.555   3.197
 6514TIP3   OH219505   4.873   4.479   0.231
 6514TIP3    H119506   4.879   4.570   0.261
 6514TIP3    H219507   4.963   4.448   0.227
 6515TIP3   OH219508   1.828   3.990   3.898
 6515TIP3    H119509   1.893   4.010   3.831
 6515TIP3    H219510   1.758   3.945   3.851
 6516TIP3   OH219511   4.358   4.538   5.195
 6516TIP3    H119512   4.276   4.538   5.245
 6516TIP3    H219513   4.363   4.625   5.157
 6517TIP3   OH219514   6.723   2.234   4.715
 6517TIP3    H119515   6.749   2.158   4.767
 6517TIP3    H219516   6.737   2.208   4.625
 6518TIP3   OH219517   4.523   2.242   2.460
 6518TIP3    H119518   4.458   2.231   2.529
 6518TIP3    H219519   4.515   2.164   2.406
 6519TIP3   OH219520   0.416   0.320   1.365
 6519TIP3    H119521   0.359   0.302   1.440
 6519TIP3    H219522   0.463   0.238   1.351
 6520TIP3   OH219523   6.000   4.518   2.841
 6520TIP3    H119524   5.967   4.442   2.890
 6520TIP3    H219525   5.922   4.558   2.802
 6521TIP3   OH219526   5.933   0.347   4.334
 6521TIP3    H119527   5.845   0.372   4.306
 6521TIP3    H219528   5.966   0.292   4.263
 6522TIP3   OH219529   4.745   2.040   0.802
 6522TIP3    H119530   4.828   1.992   0.800
 6522TIP3    H219531   4.766   2.127   0.768
 6523TIP3   OH219532   1.300   3.626   0.835
 6523TIP3    H119533   1.221   3.573   0.828
 6523TIP3    H219534   1.348   3.608   0.754
 6524TIP3   OH219535   2.075   0.546   2.570
 6524TIP3    H119536   2.040   0.623   2.525
 6524TIP3    H219537   2.065   0.566   2.663
 6525TIP3   OH219538   0.203   0.772   3.941
 6525TIP3    H119539   0.271   0.754   3.876
 6525TIP3    H219540   0.130   0.714   3.917
 6526TIP3   OH219541   3.525   5.560   3.180
 6526TIP3    H119542   3.577   5.616   3.122
 6526TIP3    H219543   3.558   5.577   3.268
 6527TIP3   OH219544   2.153   2.386   0.111
 6527TIP3    H119545   2.096   2.417   0.181
 6527TIP3    H219546   2.237   2.369   0.154
 6528TIP3   OH219547   0.304   5.503   5.011
 6528TIP3    H119548   0.362   5.438   5.051
 6528TIP3    H219549   0.244   5.452   4.957
 6529TIP3   OH219550   2.565   1.599   5.206
 6529TIP3    H119551   2.599   1.658   5.138
 6529TIP3    H219552   2.478   1.574   5.174
 6530TIP3   OH219553   0.365   0.157   4.322
 6530TIP3    H119554   0.389   0.112   4.241
 6530TIP3    H219555   0.326   0.089   4.377
 6531TIP3   OH219556   0.688   5.235   2.442
 6531TIP3    H119557   0.630   5.170   2.483
 6531TIP3    H219558   0.629   5.297   2.400
 6532TIP3   OH219559   0.262   1.774   1.175
 6532TIP3    H119560   0.344   1.825   1.173
 6532TIP3    H219561   0.218   1.796   1.093
 6533TIP3   OH219562   0.715   5.849   0.821
 6533TIP3    H119563   0.638   5.866   0.766
 6533TIP3    H219564   0.742   5.760   0.797
 6534TIP3   OH219565   0.213   1.207   5.864
 6534TIP3    H119566   0.174   1.288   5.831
 6534TIP3    H219567   0.254   1.232   5.947
 6535TIP3   OH219568   2.707   2.017   4.070
 6535TIP3    H119569   2.642   2.087   4.075
 6535TIP3    H219570   2.730   1.998   4.161
 6536TIP3   OH219571   7.161   3.933   0.099
 6536TIP3    H119572   7.226   3.934   0.169
 6536TIP3    H219573   7.116   3.849   0.110
 6537TIP3   OH219574   3.082   6.701   2.522
 6537TIP3    H119575   3.151   6.750   2.567
 6537TIP3    H219576   3.010   6.697   2.585
 6538TIP3   OH219577   1.367   1.963   1.831
 6538TIP3    H119578   1.314   1.886   1.811
 6538TIP3    H219579   1.314   2.015   1.890
 6539TIP3   OH219580   6.298   2.357   0.174
 6539TIP3    H119581   6.385   2.373   0.211
 6539TIP3    H219582   6.266   2.443   0.149
 6540TIP3   OH219583   1.887   0.370   2.694
 6540TIP3    H119584   1.957   0.397   2.634
 6540TIP3    H219585   1.823   0.325   2.638
 6541TIP3   OH219586   1.364   5.951   3.837
 6541TIP3    H119587   1.416   5.874   3.819
 6541TIP3    H219588   1.291   5.920   3.890
 6542TIP3   OH219589   0.815   4.842   1.091
 6542TIP3    H119590   0.790   4.860   1.000
 6542TIP3    H219591   0.731   4.832   1.137
 6543TIP3   OH219592   3.592   2.815   3.454
 6543TIP3    H119593   3.546   2.815   3.370
 6543TIP3    H219594   3.533   2.862   3.513
 6544TIP3   OH219595   6.301   3.901   3.595
 6544TIP3    H119596   6.388   3.865   3.614
 6544TIP3    H219597   6.289   3.887   3.502
 6545TIP3   OH219598   2.059   2.929   3.319
 6545TIP3    H119599   2.077   3.022   3.336
 6545TIP3    H219600   2.091   2.884   3.397
 6546TIP3   OH219601   5.870   5.502   3.704
 6546TIP3    H119602   5.934   5.515   3.774
 6546TIP3    H219603   5.789   5.477   3.750
 6547TIP3   OH219604   0.952   2.702   4.850
 6547TIP3    H119605   0.964   2.615   4.890
 6547TIP3    H219606   0.984   2.763   4.916
 6548TIP3   OH219607   3.268   0.954   1.546
 6548TIP3    H119608   3.275   0.860   1.561
 6548TIP3    H219609   3.272   0.963   1.451
 6549TIP3   OH219610   5.335   4.434   5.185
 6549TIP3    H119611   5.367   4.397   5.102
 6549TIP3    H219612   5.383   4.516   5.195
 6550TIP3   OH219613   3.796   3.069   2.644
 6550TIP3    H119614   3.853   3.129   2.692
 6550TIP3    H219615   3.753   3.124   2.578
 6551TIP3   OH219616   7.226   3.834   0.706
 6551TIP3    H119617   7.232   3.739   0.698
 6551TIP3    H219618   7.186   3.863   0.624
 6552TIP3   OH219619   0.315   0.191   3.184
 6552TIP3    H119620   0.238   0.180   3.128
 6552TIP3    H219621   0.378   0.238   3.130
 6553TIP3   OH219622   1.751   0.520   1.009
 6553TIP3    H119623   1.715   0.431   0.998
 6553TIP3    H219624   1.816   0.511   1.078
 6554TIP3   OH219625   5.281   5.028   4.512
 6554TIP3    H119626   5.278   4.938   4.543
 6554TIP3    H219627   5.205   5.070   4.552
 6555TIP3   OH219628   5.634   3.410   2.341
 6555TIP3    H119629   5.692   3.341   2.310
 6555TIP3    H219630   5.679   3.492   2.318
 6556TIP3   OH219631   5.939   4.846   4.343
 6556TIP3    H119632   5.862   4.790   4.347
 6556TIP3    H219633   6.001   4.799   4.287
 6557TIP3   OH219634   5.588   5.538   1.135
 6557TIP3    H119635   5.511   5.594   1.121
 6557TIP3    H219636   5.606   5.544   1.228
 6558TIP3   OH219637   2.701   2.046   2.452
 6558TIP3    H119638   2.783   2.094   2.464
 6558TIP3    H219639   2.634   2.105   2.486
 6559TIP3   OH219640   4.154   2.282   2.941
 6559TIP3    H119641   4.107   2.276   2.859
 6559TIP3    H219642   4.087   2.272   3.009
 6560TIP3   OH219643   1.789   3.551   1.428
 6560TIP3    H119644   1.715   3.591   1.473
 6560TIP3    H219645   1.752   3.475   1.384
 6561TIP3   OH219646   0.657   5.584   1.743
 6561TIP3    H119647   0.735   5.530   1.751
 6561TIP3    H219648   0.615   5.579   1.829
 6562TIP3   OH219649   0.809   6.782   2.147
 6562TIP3    H119650   0.864   6.711   2.113
 6562TIP3    H219651   0.781   6.751   2.233
 6563TIP3   OH219652   1.920   1.485   5.106
 6563TIP3    H119653   1.842   1.433   5.124
 6563TIP3    H219654   1.986   1.450   5.166
 6564TIP3   OH219655   6.293   4.600   3.926
 6564TIP3    H119656   6.265   4.691   3.921
 6564TIP3    H219657   6.213   4.549   3.913
 6565TIP3   OH219658   3.190   2.054   0.239
 6565TIP3    H119659   3.117   2.038   0.299
 6565TIP3    H219660   3.239   2.126   0.280
 6566TIP3   OH219661   6.551   6.315   4.173
 6566TIP3    H119662   6.590   6.237   4.134
 6566TIP3    H219663   6.473   6.332   4.119
 6567TIP3   OH219664   6.370   0.718   1.008
 6567TIP3    H119665   6.446   0.776   1.006
 6567TIP3    H219666   6.317   0.744   0.933
 6568TIP3   OH219667   3.631   0.364   1.342
 6568TIP3    H119668   3.571   0.426   1.302
 6568TIP3    H219669   3.660   0.407   1.422
 6569TIP3   OH219670   0.381   6.426   3.086
 6569TIP3    H119671   0.298   6.470   3.107
 6569TIP3    H219672   0.444   6.497   3.078
 6570TIP3   OH219673   7.101   1.141   1.051
 6570TIP3    H119674   7.060   1.226   1.065
 6570TIP3    H219675   7.040   1.094   0.994
 6571TIP3   OH219676   1.699   6.061   4.226
 6571TIP3    H119677   1.622   6.112   4.250
 6571TIP3    H219678   1.750   6.055   4.307
 6572TIP3   OH219679   1.498   6.518   0.576
 6572TIP3    H119680   1.482   6.562   0.659
 6572TIP3    H219681   1.424   6.458   0.566
 6573TIP3   OH219682   0.945   6.541   2.635
 6573TIP3    H119683   0.953   6.448   2.656
 6573TIP3    H219684   1.025   6.563   2.588
 6574TIP3   OH219685   5.447   1.657   3.368
 6574TIP3    H119686   5.364   1.612   3.355
 6574TIP3    H219687   5.453   1.670   3.463
 6575TIP3   OH219688   0.651   5.680   2.513
 6575TIP3    H119689   0.584   5.722   2.567
 6575TIP3    H219690   0.605   5.606   2.472
 6576TIP3   OH219691   2.492   1.522   4.028
 6576TIP3    H119692   2.412   1.571   4.013
 6576TIP3    H219693   2.560   1.589   4.037
 6577TIP3   OH219694   3.254   2.769   3.296
 6577TIP3    H119695   3.252   2.674   3.307
 6577TIP3    H219696   3.191   2.786   3.226
 6578TIP3   OH219697   2.590   6.539   2.915
 6578TIP3    H119698   2.618   6.547   2.824
 6578TIP3    H219699   2.556   6.449   2.922
 6579TIP3   OH219700   5.662   5.446   5.167
 6579TIP3    H119701   5.656   5.535   5.202
 6579TIP3    H219702   5.617   5.450   5.083
 6580TIP3   OH219703   2.563   3.310   2.980
 6580TIP3    H119704   2.607   3.395   2.986
 6580TIP3    H219705   2.537   3.291   3.070
 6581TIP3   OH219706   3.278   4.056   2.060
 6581TIP3    H119707   3.184   4.068   2.074
 6581TIP3    H219708   3.284   3.992   1.989
 6582TIP3   OH219709   5.137   2.473   2.188
 6582TIP3    H119710   5.080   2.428   2.126
 6582TIP3    H219711   5.213   2.500   2.137
 6583TIP3   OH219712   4.817   3.763   4.192
 6583TIP3    H119713   4.774   3.701   4.134
 6583TIP3    H219714   4.751   3.785   4.257
 6584TIP3   OH219715   2.913   0.564   5.595
 6584TIP3    H119716   2.925   0.631   5.527
 6584TIP3    H219717   2.923   0.481   5.549
 6585TIP3   OH219718   3.988   5.083   3.014
 6585TIP3    H119719   3.988   5.030   3.094
 6585TIP3    H219720   3.931   5.036   2.953
 6586TIP3   OH219721   1.813   2.545   1.947
 6586TIP3    H119722   1.759   2.582   2.016
 6586TIP3    H219723   1.894   2.596   1.950
 6587TIP3   OH219724   3.643   5.631   2.687
 6587TIP3    H119725   3.573   5.603   2.628
 6587TIP3    H219726   3.637   5.570   2.761
 6588TIP3   OH219727   5.604   1.434   1.840
 6588TIP3    H119728   5.639   1.401   1.923
 6588TIP3    H219729   5.535   1.496   1.866
 6589TIP3   OH219730   3.738   2.739   2.261
 6589TIP3    H119731   3.656   2.787   2.264
 6589TIP3    H219732   3.717   2.652   2.295
 6590TIP3   OH219733   2.606   0.505   0.790
 6590TIP3    H119734   2.593   0.412   0.769
 6590TIP3    H219735   2.561   0.518   0.873
 6591TIP3   OH219736   0.973   5.674   1.105
 6591TIP3    H119737   1.002   5.651   1.017
 6591TIP3    H219738   0.915   5.602   1.131
 6592TIP3   OH219739   2.631   6.210   3.902
 6592TIP3    H119740   2.718   6.169   3.902
 6592TIP3    H219741   2.570   6.137   3.911
 6593TIP3   OH219742   6.742   6.402   5.353
 6593TIP3    H119743   6.821   6.453   5.337
 6593TIP3    H219744   6.755   6.363   5.439
 6594TIP3   OH219745   3.833   4.312   1.246
 6594TIP3    H119746   3.865   4.308   1.156
 6594TIP3    H219747   3.864   4.231   1.286
 6595TIP3   OH219748   4.797   1.955   5.355
 6595TIP3    H119749   4.788   1.995   5.442
 6595TIP3    H219750   4.886   1.919   5.354
 6596TIP3   OH219751   1.597   5.792   0.086
 6596TIP3    H119752   1.677   5.741   0.099
 6596TIP3    H219753   1.531   5.728   0.060
 6597TIP3   OH219754   3.427   0.632   0.232
 6597TIP3    H119755   3.442   0.592   0.147
 6597TIP3    H219756   3.332   0.624   0.246
 6598TIP3   OH219757   6.364   0.518   3.082
 6598TIP3    H119758   6.424   0.453   3.118
 6598TIP3    H219759   6.301   0.466   3.031
 6599TIP3   OH219760   4.985   6.449   1.950
 6599TIP3    H119761   5.051   6.497   1.999
 6599TIP3    H219762   4.927   6.413   2.017
 6600TIP3   OH219763   4.026   5.778   5.784
 6600TIP3    H119764   4.003   5.846   5.847
 6600TIP3    H219765   4.063   5.707   5.837
 6601TIP3   OH219766   4.047   0.698   1.735
 6601TIP3    H119767   4.112   0.766   1.752
 6601TIP3    H219768   3.986   0.704   1.809
 6602TIP3   OH219769   6.344   5.354   2.125
 6602TIP3    H119770   6.377   5.266   2.107
 6602TIP3    H219771   6.253   5.352   2.094
 6603TIP3   OH219772   6.641   3.284   3.925
 6603TIP3    H119773   6.602   3.248   4.005
 6603TIP3    H219774   6.571   3.282   3.860
 6604TIP3   OH219775   1.803   1.942   3.411
 6604TIP3    H119776   1.770   1.984   3.332
 6604TIP3    H219777   1.897   1.932   3.396
 6605TIP3   OH219778   4.600   3.079   3.742
 6605TIP3    H119779   4.615   3.163   3.698
 6605TIP3    H219780   4.545   3.030   3.681
 6606TIP3   OH219781   5.259   2.443   4.737
 6606TIP3    H119782   5.333   2.471   4.791
 6606TIP3    H219783   5.217   2.525   4.710
 6607TIP3   OH219784   2.057   2.629   4.555
 6607TIP3    H119785   2.046   2.580   4.474
 6607TIP3    H219786   1.981   2.606   4.608
 6608TIP3   OH219787   4.262   5.080   5.770
 6608TIP3    H119788   4.353   5.051   5.773
 6608TIP3    H219789   4.264   5.162   5.719
 6609TIP3   OH219790   0.501   4.977   0.578
 6609TIP3    H119791   0.459   4.933   0.652
 6609TIP3    H219792   0.460   4.939   0.501
 6610TIP3   OH219793   0.604   0.917   4.802
 6610TIP3    H119794   0.551   0.997   4.794
 6610TIP3    H219795   0.683   0.946   4.847
 6611TIP3   OH219796   1.643   6.327   1.159
 6611TIP3    H119797   1.731   6.361   1.172
 6611TIP3    H219798   1.622   6.283   1.241
 6612TIP3   OH219799   2.603   1.320   3.897
 6612TIP3    H119800   2.530   1.259   3.887
 6612TIP3    H219801   2.567   1.393   3.946
 6613TIP3   OH219802   0.474   4.671   1.528
 6613TIP3    H119803   0.566   4.696   1.535
 6613TIP3    H219804   0.426   4.753   1.540
 6614TIP3   OH219805   0.191   4.635   3.457
 6614TIP3    H119806   0.204   4.722   3.495
 6614TIP3    H219807   0.147   4.652   3.373
 6615TIP3   OH219808   2.443   4.473   4.055
 6615TIP3    H119809   2.367   4.530   4.063
 6615TIP3    H219810   2.418   4.407   3.990
 6616TIP3   OH219811   5.673   1.343   2.399
 6616TIP3    H119812   5.587   1.380   2.414
 6616TIP3    H219813   5.662   1.286   2.323
 6617TIP3   OH219814   0.920   4.482   0.176
 6617TIP3    H119815   0.994   4.503   0.119
 6617TIP3    H219816   0.842   4.503   0.124
 6618TIP3   OH219817   2.900   0.868   4.449
 6618TIP3    H119818   2.988   0.831   4.445
 6618TIP3    H219819   2.849   0.804   4.498
 6619TIP3   OH219820   6.351   1.756   4.199
 6619TIP3    H119821   6.410   1.688   4.165
 6619TIP3    H219822   6.410   1.823   4.233
 6620TIP3   OH219823   6.519   2.178   1.318
 6620TIP3    H119824   6.494   2.250   1.375
 6620TIP3    H219825   6.571   2.121   1.374
 6621TIP3   OH219826   5.032   3.350   2.724
 6621TIP3    H119827   4.970   3.289   2.684
 6621TIP3    H219828   4.990   3.436   2.715
 6622TIP3   OH219829   1.630   2.815   4.824
 6622TIP3    H119830   1.587   2.729   4.820
 6622TIP3    H219831   1.641   2.832   4.918
 6623TIP3   OH219832   2.852   5.030   4.158
 6623TIP3    H119833   2.804   5.110   4.136
 6623TIP3    H219834   2.845   4.975   4.079
 6624TIP3   OH219835   6.163   5.150   0.802
 6624TIP3    H119836   6.094   5.209   0.772
 6624TIP3    H219837   6.162   5.157   0.897
 6625TIP3   OH219838   3.260   0.902   2.426
 6625TIP3    H119839   3.187   0.940   2.475
 6625TIP3    H219840   3.337   0.920   2.480
 6626TIP3   OH219841   3.778   4.786   1.185
 6626TIP3    H119842   3.857   4.736   1.206
 6626TIP3    H219843   3.761   4.766   1.093
 6627TIP3   OH219844   3.153   3.823   1.083
 6627TIP3    H119845   3.244   3.847   1.101
 6627TIP3    H219846   3.145   3.832   0.988
 6628TIP3   OH219847   5.801   2.487   1.079
 6628TIP3    H119848   5.769   2.397   1.085
 6628TIP3    H219849   5.730   2.540   1.115
 6629TIP3   OH219850   0.495   5.879   0.664
 6629TIP3    H119851   0.465   5.805   0.612
 6629TIP3    H219852   0.422   5.899   0.723
 6630TIP3   OH219853   6.470   0.291   3.961
 6630TIP3    H119854   6.519   0.357   4.010
 6630TIP3    H219855   6.405   0.342   3.913
 6631TIP3   OH219856   1.899   4.915   0.291
 6631TIP3    H119857   1.843   4.993   0.286
 6631TIP3    H219858   1.853   4.850   0.237
 6632TIP3   OH219859   3.846   6.156   0.328
 6632TIP3    H119860   3.885   6.219   0.267
 6632TIP3    H219861   3.877   6.071   0.297
 6633TIP3   OH219862   0.973   0.562   5.747
 6633TIP3    H119863   0.986   0.481   5.796
 6633TIP3    H219864   0.902   0.607   5.793
 6634TIP3   OH219865   1.814   3.750   1.899
 6634TIP3    H119866   1.724   3.731   1.926
 6634TIP3    H219867   1.806   3.791   1.813
 6635TIP3   OH219868   4.139   0.071   5.408
 6635TIP3    H119869   4.152  -0.024   5.410
 6635TIP3    H219870   4.102   0.088   5.321
 6636TIP3   OH219871   1.835   2.904   5.271
 6636TIP3    H119872   1.803   2.925   5.359
 6636TIP3    H219873   1.917   2.953   5.263
 6637TIP3   OH219874   1.897   4.419   4.363
 6637TIP3    H119875   1.917   4.380   4.448
 6637TIP3    H219876   1.976   4.406   4.311
 6638TIP3   OH219877   1.173   2.666   4.091
 6638TIP3    H119878   1.172   2.723   4.014
 6638TIP3    H219879   1.081   2.655   4.113
 6639TIP3   OH219880   4.900   0.554   3.521
 6639TIP3    H119881   4.808   0.579   3.520
 6639TIP3    H219882   4.947   0.635   3.538
 6640TIP3   OH219883   2.941   2.238   3.495
 6640TIP3    H119884   2.877   2.286   3.547
 6640TIP3    H219885   2.984   2.180   3.557
 6641TIP3   OH219886   1.079   4.681   2.340
 6641TIP3    H119887   1.045   4.605   2.386
 6641TIP3    H219888   1.023   4.753   2.369
 6642TIP3   OH219889   3.568   4.009   2.723
 6642TIP3    H119890   3.641   4.043   2.672
 6642TIP3    H219891   3.608   3.972   2.802
 6643TIP3   OH219892   5.566   1.394   4.491
 6643TIP3    H119893   5.480   1.415   4.526
 6643TIP3    H219894   5.577   1.453   4.416
 6644TIP3   OH219895   1.212   4.974   3.230
 6644TIP3    H119896   1.229   4.957   3.137
 6644TIP3    H219897   1.268   4.912   3.276
 6645TIP3   OH219898   4.144   0.929   1.864
 6645TIP3    H119899   4.104   0.982   1.934
 6645TIP3    H219900   4.236   0.923   1.888
 6646TIP3   OH219901   7.141   5.042   1.896
 6646TIP3    H119902   7.066   5.064   1.840
 6646TIP3    H219903   7.101   5.010   1.977
 6647TIP3   OH219904   3.651   1.838   5.030
 6647TIP3    H119905   3.634   1.744   5.037
 6647TIP3    H219906   3.744   1.843   5.008
 6648TIP3   OH219907   4.863   3.507   5.187
 6648TIP3    H119908   4.892   3.435   5.243
 6648TIP3    H219909   4.910   3.584   5.220
 6649TIP3   OH219910   1.572   4.048   4.090
 6649TIP3    H119911   1.658   4.089   4.080
 6649TIP3    H219912   1.587   3.975   4.149
 6650TIP3   OH219913   3.098   2.710   2.883
 6650TIP3    H119914   3.186   2.683   2.907
 6650TIP3    H219915   3.082   2.667   2.799
 6651TIP3   OH219916   6.384   3.458   2.876
 6651TIP3    H119917   6.322   3.400   2.920
 6651TIP3    H219918   6.347   3.545   2.887
 6652TIP3   OH219919   3.654   2.686   5.130
 6652TIP3    H119920   3.708   2.715   5.056
 6652TIP3    H219921   3.661   2.758   5.193
 6653TIP3   OH219922   0.216   1.335   3.348
 6653TIP3    H119923   0.242   1.287   3.270
 6653TIP3    H219924   0.125   1.360   3.331
 6654TIP3   OH219925   7.151   5.055   5.481
 6654TIP3    H119926   7.103   4.997   5.540
 6654TIP3    H219927   7.168   5.002   5.404
 6655TIP3   OH219928   5.447   2.735   5.178
 6655TIP3    H119929   5.368   2.751   5.127
 6655TIP3    H219930   5.517   2.776   5.127
 6656TIP3   OH219931   4.297   1.024   3.698
 6656TIP3    H119932   4.323   1.080   3.771
 6656TIP3    H219933   4.201   1.025   3.700
 6657TIP3   OH219934   1.291   3.425   1.093
 6657TIP3    H119935   1.206   3.422   1.138
 6657TIP3    H219936   1.294   3.513   1.056
 6658TIP3   OH219937   5.071   2.237   4.285
 6658TIP3    H119938   5.106   2.161   4.332
 6658TIP3    H219939   5.145   2.297   4.277
 6659TIP3   OH219940   2.008  -0.001   5.413
 6659TIP3    H119941   1.942  -0.056   5.455
 6659TIP3    H219942   1.995   0.086   5.451
 6660TIP3   OH219943   7.078   4.586   5.402
 6660TIP3    H119944   7.010   4.540   5.352
 6660TIP3    H219945   7.155   4.530   5.394
 6661TIP3   OH219946   5.949   4.499   4.538
 6661TIP3    H119947   6.021   4.560   4.520
 6661TIP3    H219948   5.882   4.554   4.578
 6662TIP3   OH219949   6.056   5.302   3.921
 6662TIP3    H119950   6.009   5.219   3.931
 6662TIP3    H219951   6.102   5.294   3.837
 6663TIP3   OH219952   0.615   3.686   4.342
 6663TIP3    H119953   0.672   3.762   4.334
 6663TIP3    H219954   0.565   3.684   4.260
 6664TIP3   OH219955   2.356   5.611   5.477
 6664TIP3    H119956   2.316   5.526   5.460
 6664TIP3    H219957   2.294   5.655   5.535
 6665TIP3   OH219958   4.682   2.460   2.615
 6665TIP3    H119959   4.589   2.469   2.591
 6665TIP3    H219960   4.701   2.537   2.668
 6666TIP3   OH219961   1.681   4.526   3.517
 6666TIP3    H119962   1.771   4.532   3.551
 6666TIP3    H219963   1.630   4.582   3.576
 6667TIP3   OH219964   5.942   0.028   3.798
 6667TIP3    H119965   5.865  -0.003   3.846
 6667TIP3    H219966   5.950   0.120   3.823
 6668TIP3   OH219967   6.949   5.301   3.388
 6668TIP3    H119968   6.881   5.345   3.336
 6668TIP3    H219969   6.911   5.295   3.476
 6669TIP3   OH219970   4.088   5.107   4.444
 6669TIP3    H119971   4.010   5.151   4.478
 6669TIP3    H219972   4.115   5.048   4.514
 6670TIP3   OH219973   0.795   2.801   1.583
 6670TIP3    H119974   0.881   2.827   1.614
 6670TIP3    H219975   0.793   2.829   1.491
 6671TIP3   OH219976   5.618   2.926   1.906
 6671TIP3    H119977   5.699   2.963   1.870
 6671TIP3    H219978   5.648   2.866   1.975
 6672TIP3   OH219979   4.116   1.326   1.124
 6672TIP3    H119980   4.150   1.401   1.074
 6672TIP3    H219981   4.051   1.286   1.067
 6673TIP3   OH219982   2.627   0.931   0.883
 6673TIP3    H119983   2.585   0.911   0.799
 6673TIP3    H219984   2.700   0.870   0.889
 6674TIP3   OH219985   5.892   0.932   1.215
 6674TIP3    H119986   5.876   0.858   1.157
 6674TIP3    H219987   5.835   0.916   1.291
 6675TIP3   OH219988   5.175   0.988   0.035
 6675TIP3    H119989   5.116   0.980  -0.040
 6675TIP3    H219990   5.192   0.897   0.062
 6676TIP3   OH219991   3.128   4.248   5.675
 6676TIP3    H119992   3.116   4.174   5.616
 6676TIP3    H219993   3.149   4.208   5.759
 6677TIP3   OH219994   2.204   4.196   5.363
 6677TIP3    H119995   2.151   4.196   5.443
 6677TIP3    H219996   2.167   4.267   5.310
 6678TIP3   OH219997   3.460   2.191   5.326
 6678TIP3    H119998   3.420   2.272   5.358
 6678TIP3    H219999   3.432   2.125   5.389
 6679TIP3   OH220000   0.523   3.988   4.212
 6679TIP3    H120001   0.462   3.939   4.268
 6679TIP3    H220002   0.608   3.948   4.229
 6680TIP3   OH220003   4.375   5.880   2.360
 6680TIP3    H120004   4.300   5.825   2.384
 6680TIP3    H220005   4.422   5.829   2.294
 6681TIP3   OH220006   4.874   2.077   4.553
 6681TIP3    H120007   4.941   2.117   4.608
 6681TIP3    H220008   4.922   2.018   4.495
 6682TIP3   OH220009   3.377   5.059   1.127
 6682TIP3    H120010   3.386   4.974   1.170
 6682TIP3    H220011   3.285   5.064   1.101
 6683TIP3   OH220012   0.328   1.211   5.388
 6683TIP3    H120013   0.339   1.150   5.315
 6683TIP3    H220014   0.286   1.159   5.457
 6684TIP3   OH220015   4.100   4.516   4.481
 6684TIP3    H120016   4.049   4.435   4.484
 6684TIP3    H220017   4.166   4.501   4.414
 6685TIP3   OH220018   1.583   4.780   0.793
 6685TIP3    H120019   1.507   4.731   0.824
 6685TIP3    H220020   1.591   4.757   0.701
 6686TIP3   OH220021   2.040   5.858   1.392
 6686TIP3    H120022   1.955   5.885   1.427
 6686TIP3    H220023   2.056   5.773   1.432
 6687TIP3   OH220024   3.429   2.885   5.746
 6687TIP3    H120025   3.379   2.915   5.822
 6687TIP3    H220026   3.367   2.830   5.697
 6688TIP3   OH220027   3.409   3.933   2.340
 6688TIP3    H120028   3.324   3.946   2.383
 6688TIP3    H220029   3.392   3.861   2.278
 6689TIP3   OH220030   3.514   2.670   1.291
 6689TIP3    H120031   3.511   2.655   1.197
 6689TIP3    H220032   3.503   2.583   1.329
 6690TIP3   OH220033   3.251   1.371   3.741
 6690TIP3    H120034   3.346   1.364   3.740
 6690TIP3    H220035   3.234   1.465   3.734
 6691TIP3   OH220036   3.916   1.908   5.019
 6691TIP3    H120037   3.975   1.860   4.960
 6691TIP3    H220038   3.927   1.999   4.993
 6692TIP3   OH220039   3.463   0.896   2.214
 6692TIP3    H120040   3.449   0.900   2.309
 6692TIP3    H220041   3.375   0.888   2.178
 6693TIP3   OH220042   1.325   0.664   2.904
 6693TIP3    H120043   1.268   0.587   2.905
 6693TIP3    H220044   1.268   0.737   2.929
 6694TIP3   OH220045   6.176   5.991   4.127
 6694TIP3    H120046   6.250   6.015   4.071
 6694TIP3    H220047   6.122   5.934   4.072
 6695TIP3   OH220048   4.829   4.129   3.023
 6695TIP3    H120049   4.809   4.072   2.949
 6695TIP3    H220050   4.878   4.202   2.985
 6696TIP3   OH220051   2.828   5.729   1.147
 6696TIP3    H120052   2.923   5.732   1.141
 6696TIP3    H220053   2.810   5.668   1.218
 6697TIP3   OH220054   5.523   2.806   2.812
 6697TIP3    H120055   5.518   2.901   2.825
 6697TIP3    H220056   5.617   2.789   2.804
 6698TIP3   OH220057   0.016   2.252   3.118
 6698TIP3    H120058   0.003   2.172   3.067
 6698TIP3    H220059   0.073   2.225   3.190
 6699TIP3   OH220060   2.838   2.851   4.476
 6699TIP3    H120061   2.821   2.914   4.406
 6699TIP3    H220062   2.756   2.849   4.526
 6700TIP3   OH220063   0.408   6.146   1.031
 6700TIP3    H120064   0.407   6.189   0.945
 6700TIP3    H220065   0.370   6.060   1.015
 6701TIP3   OH220066   3.286   2.624   2.083
 6701TIP3    H120067   3.355   2.666   2.031
 6701TIP3    H220068   3.239   2.697   2.123
 6702TIP3   OH220069   1.352   1.586   0.824
 6702TIP3    H120070   1.267   1.610   0.786
 6702TIP3    H220071   1.357   1.491   0.813
 6703TIP3   OH220072   1.111   0.531   4.526
 6703TIP3    H120073   1.186   0.538   4.585
 6703TIP3    H220074   1.127   0.596   4.458
 6704TIP3   OH220075   1.985   3.137   2.619
 6704TIP3    H120076   1.946   3.213   2.575
 6704TIP3    H220077   1.933   3.062   2.588
 6705TIP3   OH220078   7.117   2.187   1.643
 6705TIP3    H120079   7.134   2.122   1.575
 6705TIP3    H220080   7.163   2.154   1.720
 6706TIP3   OH220081   5.925   2.448   4.611
 6706TIP3    H120082   6.017   2.427   4.600
 6706TIP3    H220083   5.924   2.521   4.673
 6707TIP3   OH220084   5.280   6.813   3.357
 6707TIP3    H120085   5.254   6.732   3.314
 6707TIP3    H220086   5.251   6.882   3.298
 6708TIP3   OH220087   1.460   4.744   0.523
 6708TIP3    H120088   1.431   4.825   0.481
 6708TIP3    H220089   1.390   4.681   0.506
 6709TIP3   OH220090   0.445   3.983   5.142
 6709TIP3    H120091   0.473   3.903   5.186
 6709TIP3    H220092   0.396   4.031   5.209
 6710TIP3   OH220093   0.241   3.888   4.498
 6710TIP3    H120094   0.322   3.937   4.511
 6710TIP3    H220095   0.268   3.811   4.447
 6711TIP3   OH220096   4.134   2.197   4.197
 6711TIP3    H120097   4.191   2.181   4.273
 6711TIP3    H220098   4.062   2.248   4.233
 6712TIP3   OH220099   5.147   1.717   0.872
 6712TIP3    H120100   5.109   1.755   0.951
 6712TIP3    H220101   5.125   1.779   0.802
 6713TIP3   OH220102   2.717   4.664   2.007
 6713TIP3    H120103   2.656   4.729   2.042
 6713TIP3    H220104   2.739   4.695   1.920
 6714TIP3   OH220105   5.249   2.084   4.415
 6714TIP3    H120106   5.340   2.113   4.412
 6714TIP3    H220107   5.231   2.069   4.508
 6715TIP3   OH220108   0.668   3.447   3.499
 6715TIP3    H120109   0.723   3.378   3.462
 6715TIP3    H220110   0.579   3.411   3.496
 6716TIP3   OH220111   4.724   4.300   3.260
 6716TIP3    H120112   4.779   4.266   3.189
 6716TIP3    H220113   4.667   4.227   3.284
 6717TIP3   OH220114   1.881   0.936   3.130
 6717TIP3    H120115   1.840   0.909   3.213
 6717TIP3    H220116   1.962   0.886   3.125
 6718TIP3   OH220117   5.620   2.036   0.854
 6718TIP3    H120118   5.561   2.097   0.899
 6718TIP3    H220119   5.672   1.997   0.924
 6719TIP3   OH220120   6.632   4.898   1.427
 6719TIP3    H120121   6.683   4.820   1.452
 6719TIP3    H220122   6.698   4.959   1.393
 6720TIP3   OH220123   0.392   0.564   4.172
 6720TIP3    H120124   0.428   0.480   4.143
 6720TIP3    H220125   0.465   0.625   4.169
 6721TIP3   OH220126   1.048   4.622   4.717
 6721TIP3    H120127   1.080   4.543   4.673
 6721TIP3    H220128   1.117   4.644   4.780
 6722TIP3   OH220129   2.757   2.826   2.272
 6722TIP3    H120130   2.745   2.919   2.253
 6722TIP3    H220131   2.849   2.819   2.299
 6723TIP3   OH220132   1.400   2.618   5.843
 6723TIP3    H120133   1.441   2.702   5.824
 6723TIP3    H220134   1.313   2.640   5.875
 6724TIP3   OH220135   2.839   0.798   3.663
 6724TIP3    H120136   2.854   0.864   3.595
 6724TIP3    H220137   2.924   0.790   3.706
 6725TIP3   OH220138   5.664   6.019   3.195
 6725TIP3    H120139   5.682   6.009   3.289
 6725TIP3    H220140   5.571   6.039   3.191
 6726TIP3   OH220141   5.305   1.464   1.614
 6726TIP3    H120142   5.314   1.422   1.528
 6726TIP3    H220143   5.395   1.471   1.646
 6727TIP3   OH220144   2.261   4.230   2.388
 6727TIP3    H120145   2.291   4.250   2.477
 6727TIP3    H220146   2.320   4.278   2.331
 6728TIP3   OH220147   5.535   6.416   5.412
 6728TIP3    H120148   5.575   6.492   5.369
 6728TIP3    H220149   5.453   6.403   5.364
 6729TIP3   OH220150   6.933   3.656   3.729
 6729TIP3    H120151   7.007   3.707   3.761
 6729TIP3    H220152   6.890   3.624   3.809
 6730TIP3   OH220153   3.986   1.968   0.175
 6730TIP3    H120154   4.014   2.041   0.230
 6730TIP3    H220155   3.924   1.920   0.229
 6731TIP3   OH220156   6.606   0.387   2.746
 6731TIP3    H120157   6.552   0.378   2.824
 6731TIP3    H220158   6.605   0.480   2.726
 6732TIP3   OH220159   5.749   3.951   0.179
 6732TIP3    H120160   5.776   3.878   0.236
 6732TIP3    H220161   5.797   3.936   0.098
 6733TIP3   OH220162   6.999   4.309   3.044
 6733TIP3    H120163   6.968   4.392   3.079
 6733TIP3    H220164   7.094   4.314   3.052
 6734TIP3   OH220165   5.588   4.596   0.297
 6734TIP3    H120166   5.495   4.602   0.274
 6734TIP3    H220167   5.606   4.677   0.344
 6735TIP3   OH220168   1.895   6.412   1.225
 6735TIP3    H120169   1.944   6.442   1.149
 6735TIP3    H220170   1.941   6.451   1.300
 6736TIP3   OH220171   6.325   0.750   1.778
 6736TIP3    H120172   6.345   0.835   1.817
 6736TIP3    H220173   6.239   0.761   1.738
 6737TIP3   OH220174   6.431   3.007   3.885
 6737TIP3    H120175   6.421   3.067   3.959
 6737TIP3    H220176   6.520   2.972   3.895
 6738TIP3   OH220177   2.431   5.399   1.900
 6738TIP3    H120178   2.392   5.396   1.813
 6738TIP3    H220179   2.499   5.332   1.898
 6739TIP3   OH220180   3.686   5.828   1.851
 6739TIP3    H120181   3.685   5.817   1.756
 6739TIP3    H220182   3.603   5.873   1.870
 6740TIP3   OH220183   2.227   2.873   0.778
 6740TIP3    H120184   2.159   2.931   0.812
 6740TIP3    H220185   2.251   2.911   0.693
 6741TIP3   OH220186   2.817   6.041   3.464
 6741TIP3    H120187   2.739   6.084   3.500
 6741TIP3    H220188   2.800   6.035   3.370
 6742TIP3   OH220189   6.908   4.359   4.441
 6742TIP3    H120190   6.855   4.311   4.377
 6742TIP3    H220191   6.862   4.442   4.452
 6743TIP3   OH220192   6.143   3.749   1.818
 6743TIP3    H120193   6.096   3.718   1.740
 6743TIP3    H220194   6.091   3.716   1.892
 6744TIP3   OH220195   6.592   5.760   5.668
 6744TIP3    H120196   6.517   5.800   5.711
 6744TIP3    H220197   6.636   5.712   5.739
 6745TIP3   OH220198   5.576   3.710   4.767
 6745TIP3    H120199   5.629   3.767   4.822
 6745TIP3    H220200   5.494   3.700   4.816
 6746TIP3   OH220201   0.009   4.529   1.266
 6746TIP3    H120202   0.016   4.518   1.361
 6746TIP3    H220203  -0.066   4.474   1.241
 6747TIP3   OH220204   0.555   4.204   0.938
 6747TIP3    H120205   0.525   4.281   0.889
 6747TIP3    H220206   0.476   4.151   0.950
 6748TIP3   OH220207   6.365   2.089   2.582
 6748TIP3    H120208   6.311   2.164   2.604
 6748TIP3    H220209   6.413   2.116   2.503
 6749TIP3   OH220210   1.935   2.604   5.376
 6749TIP3    H120211   1.919   2.510   5.369
 6749TIP3    H220212   1.849   2.642   5.390
 6750TIP3   OH220213   3.408   2.671   0.730
 6750TIP3    H120214   3.462   2.725   0.789
 6750TIP3    H220215   3.320   2.708   0.738
 6751TIP3   OH220216   4.668   1.998   2.839
 6751TIP3    H120217   4.593   1.940   2.828
 6751TIP3    H220218   4.694   2.022   2.751
 6752TIP3   OH220219   6.237   4.480   1.526
 6752TIP3    H120220   6.176   4.458   1.455
 6752TIP3    H220221   6.273   4.565   1.501
 6753TIP3   OH220222   5.010   5.067   3.020
 6753TIP3    H120223   4.996   5.067   2.926
 6753TIP3    H220224   5.067   5.142   3.036
 6754TIP3   OH220225   5.436   2.417   5.052
 6754TIP3    H120226   5.424   2.504   5.090
 6754TIP3    H220227   5.499   2.430   4.981
 6755TIP3   OH220228   2.663   0.986   3.937
 6755TIP3    H120229   2.756   0.979   3.956
 6755TIP3    H220230   2.629   1.048   4.001
 6756TIP3   OH220231   6.304   1.539   5.566
 6756TIP3    H120232   6.340   1.451   5.568
 6756TIP3    H220233   6.318   1.569   5.476
 6757TIP3   OH220234   3.710   0.928   1.736
 6757TIP3    H120235   3.775   0.902   1.670
 6757TIP3    H220236   3.748   1.006   1.776
 6758TIP3   OH220237   1.181   2.938   1.358
 6758TIP3    H120238   1.168   2.864   1.417
 6758TIP3    H220239   1.263   2.917   1.312
 6759TIP3   OH220240   1.526   5.513   3.855
 6759TIP3    H120241   1.518   5.600   3.817
 6759TIP3    H220242   1.444   5.500   3.904
 6760TIP3   OH220243   6.096   6.128   1.901
 6760TIP3    H120244   6.033   6.201   1.895
 6760TIP3    H220245   6.176   6.162   1.861
 6761TIP3   OH220246   3.310   2.167   5.551
 6761TIP3    H120247   3.314   2.104   5.623
 6761TIP3    H220248   3.237   2.137   5.497
 6762TIP3   OH220249   4.359   5.942   5.802
 6762TIP3    H120250   4.419   5.867   5.803
 6762TIP3    H220251   4.372   5.984   5.887
 6763TIP3   OH220252   1.474   2.390   4.601
 6763TIP3    H120253   1.566   2.408   4.581
 6763TIP3    H220254   1.425   2.451   4.547
 6764TIP3   OH220255   4.699   3.940   5.020
 6764TIP3    H120256   4.639   3.906   4.954
 6764TIP3    H220257   4.673   4.032   5.030
 6765TIP3   OH220258   4.890   1.203   1.609
 6765TIP3    H120259   4.934   1.210   1.523
 6765TIP3    H220260   4.959   1.224   1.672
 6766TIP3   OH220261   5.762   5.142   3.894
 6766TIP3    H120262   5.792   5.068   3.946
 6766TIP3    H220263   5.749   5.212   3.958
 6767TIP3   OH220264   6.472   4.977   5.053
 6767TIP3    H120265   6.540   5.037   5.022
 6767TIP3    H220266   6.457   4.917   4.980
 6768TIP3   OH220267   3.818   1.281   5.905
 6768TIP3    H120268   3.857   1.305   5.821
 6768TIP3    H220269   3.884   1.226   5.948
 6769TIP3   OH220270   0.743   0.957   0.330
 6769TIP3    H120271   0.710   0.942   0.242
 6769TIP3    H220272   0.834   0.983   0.318
 6770TIP3   OH220273   6.992   6.390   1.342
 6770TIP3    H120274   7.024   6.340   1.267
 6770TIP3    H220275   6.965   6.474   1.306
 6771TIP3   OH220276   0.422   3.354   2.035
 6771TIP3    H120277   0.497   3.400   1.996
 6771TIP3    H220278   0.371   3.423   2.078
 6772TIP3   OH220279   4.007   4.636   0.852
 6772TIP3    H120280   4.045   4.674   0.773
 6772TIP3    H220281   4.076   4.581   0.888
 6773TIP3   OH220282   5.784   0.995   4.897
 6773TIP3    H120283   5.698   0.955   4.913
 6773TIP3    H220284   5.824   0.938   4.831
 6774TIP3   OH220285   1.704   2.351   0.272
 6774TIP3    H120286   1.676   2.401   0.195
 6774TIP3    H220287   1.625   2.343   0.325
 6775TIP3   OH220288   5.277   3.933   4.638
 6775TIP3    H120289   5.352   3.932   4.579
 6775TIP3    H220290   5.316   3.926   4.726
 6776TIP3   OH220291   3.713   2.065   4.477
 6776TIP3    H120292   3.667   2.137   4.521
 6776TIP3    H220293   3.645   2.018   4.430
 6777TIP3   OH220294   5.360   2.500   3.403
 6777TIP3    H120295   5.313   2.506   3.321
 6777TIP3    H220296   5.297   2.464   3.465
 6778TIP3   OH220297   0.815   3.468   2.057
 6778TIP3    H120298   0.796   3.381   2.022
 6778TIP3    H220299   0.741   3.522   2.027
 6779TIP3   OH220300   1.543   0.896   5.065
 6779TIP3    H120301   1.519   0.878   5.155
 6779TIP3    H220302   1.462   0.925   5.024
 6780TIP3   OH220303   1.390   4.262   3.701
 6780TIP3    H120304   1.367   4.353   3.683
 6780TIP3    H220305   1.484   4.257   3.685
 6781TIP3   OH220306   3.803   3.731   0.757
 6781TIP3    H120307   3.788   3.749   0.850
 6781TIP3    H220308   3.812   3.636   0.753
 6782TIP3   OH220309   3.455   4.989   3.120
 6782TIP3    H120310   3.391   4.924   3.149
 6782TIP3    H220311   3.467   5.045   3.196
 6783TIP3   OH220312   4.185   1.067   4.782
 6783TIP3    H120313   4.281   1.064   4.775
 6783TIP3    H220314   4.155   1.071   4.691
 6784TIP3   OH220315   0.029   1.011   0.398
 6784TIP3    H120316  -0.033   1.063   0.346
 6784TIP3    H220317   0.052   1.068   0.472
 6785TIP3   OH220318   6.343   3.659   1.988
 6785TIP3    H120319   6.257   3.677   1.949
 6785TIP3    H220320   6.323   3.602   2.062
 6786TIP3   OH220321   3.217   5.397   0.377
 6786TIP3    H120322   3.250   5.406   0.288
 6786TIP3    H220323   3.155   5.469   0.387
 6787TIP3   OH220324   6.952   2.081   0.943
 6787TIP3    H120325   6.937   2.092   1.037
 6787TIP3    H220326   6.909   2.156   0.902
 6788TIP3   OH220327   4.472   4.776   2.235
 6788TIP3    H120328   4.523   4.811   2.162
 6788TIP3    H220329   4.477   4.844   2.303
 6789TIP3   OH220330   3.895   2.253   0.130
 6789TIP3    H120331   3.847   2.194   0.072
 6789TIP3    H220332   3.947   2.307   0.071
 6790TIP3   OH220333   7.188   5.352   3.519
 6790TIP3    H120334   7.236   5.270   3.534
 6790TIP3    H220335   7.127   5.331   3.449
 6791TIP3   OH220336   1.599   0.141   2.294
 6791TIP3    H120337   1.574   0.050   2.279
 6791TIP3    H220338   1.534   0.173   2.357
 6792TIP3   OH220339   5.857   1.171   3.229
 6792TIP3    H120340   5.847   1.260   3.262
 6792TIP3    H220341   5.949   1.166   3.202
 6793TIP3   OH220342   1.406   0.516   2.009
 6793TIP3    H120343   1.364   0.583   1.955
 6793TIP3    H220344   1.389   0.544   2.099
 6794TIP3   OH220345   5.862   6.752   3.216
 6794TIP3    H120346   5.814   6.669   3.228
 6794TIP3    H220347   5.946   6.737   3.258
 6795TIP3   OH220348   2.649   6.812   2.523
 6795TIP3    H120349   2.712   6.828   2.452
 6795TIP3    H220350   2.636   6.897   2.564
 6796TIP3   OH220351   2.851   0.209   1.496
 6796TIP3    H120352   2.803   0.292   1.498
 6796TIP3    H220353   2.852   0.181   1.587
 6797TIP3   OH220354   4.503   5.526   3.833
 6797TIP3    H120355   4.441   5.471   3.786
 6797TIP3    H220356   4.586   5.511   3.790
 6798TIP3   OH220357   3.784   1.258   3.494
 6798TIP3    H120358   3.760   1.183   3.547
 6798TIP3    H220359   3.714   1.265   3.429
 6799TIP3   OH220360   6.872   1.242   3.758
 6799TIP3    H120361   6.871   1.153   3.791
 6799TIP3    H220362   6.807   1.243   3.688
 6800TIP3   OH220363   1.395   0.823   3.563
 6800TIP3    H120364   1.379   0.792   3.652
 6800TIP3    H220365   1.308   0.827   3.523
 6801TIP3   OH220366   7.159   2.085   0.298
 6801TIP3    H120367   7.210   2.164   0.311
 6801TIP3    H220368   7.068   2.115   0.296
 6802TIP3   OH220369   1.939   4.390   1.271
 6802TIP3    H120370   1.847   4.392   1.244
 6802TIP3    H220371   1.949   4.465   1.328
 6803TIP3   OH220372   6.014   6.309   5.687
 6803TIP3    H120373   6.045   6.240   5.628
 6803TIP3    H220374   5.921   6.316   5.669
 6804TIP3   OH220375   2.279   4.244   0.722
 6804TIP3    H120376   2.316   4.178   0.780
 6804TIP3    H220377   2.334   4.321   0.737
 6805TIP3   OH220378   2.123   1.054   2.917
 6805TIP3    H120379   2.146   0.975   2.967
 6805TIP3    H220380   2.097   1.118   2.983
 6806TIP3   OH220381   5.397   2.863   3.571
 6806TIP3    H120382   5.371   2.861   3.663
 6806TIP3    H220383   5.462   2.794   3.562
 6807TIP3   OH220384   0.130   4.032   3.477
 6807TIP3    H120385   0.066   4.077   3.421
 6807TIP3    H220386   0.144   4.093   3.550
 6808TIP3   OH220387   3.724   3.160   4.835
 6808TIP3    H120388   3.804   3.116   4.806
 6808TIP3    H220389   3.744   3.253   4.827
 6809TIP3   OH220390   0.932   1.788   5.934
 6809TIP3    H120391   0.995   1.840   5.884
 6809TIP3    H220392   0.846   1.812   5.899
 6810TIP3   OH220393   0.383   5.773   0.327
 6810TIP3    H120394   0.326   5.747   0.400
 6810TIP3    H220395   0.426   5.692   0.300
 6811TIP3   OH220396   6.495   2.370   2.765
 6811TIP3    H120397   6.585   2.401   2.777
 6811TIP3    H220398   6.441   2.449   2.767
 6812TIP3   OH220399   3.522   2.645   0.340
 6812TIP3    H120400   3.535   2.673   0.431
 6812TIP3    H220401   3.429   2.660   0.324
 6813TIP3   OH220402   7.071   4.881   3.225
 6813TIP3    H120403   7.088   4.973   3.244
 6813TIP3    H220404   6.985   4.880   3.184
 6814TIP3   OH220405   5.785   6.647   4.998
 6814TIP3    H120406   5.726   6.721   5.015
 6814TIP3    H220407   5.870   6.688   4.979
 6815TIP3   OH220408   6.355   0.533   0.207
 6815TIP3    H120409   6.383   0.486   0.285
 6815TIP3    H220410   6.346   0.466   0.140
 6816TIP3   OH220411   2.840   6.124   4.733
 6816TIP3    H120412   2.803   6.089   4.814
 6816TIP3    H220413   2.855   6.217   4.752
 6817TIP3   OH220414   2.929   0.940   3.406
 6817TIP3    H120415   2.909   0.852   3.377
 6817TIP3    H220416   2.859   0.995   3.371
 6818TIP3   OH220417   4.801   4.733   0.067
 6818TIP3    H120418   4.774   4.720   0.158
 6818TIP3    H220419   4.832   4.823   0.064
 6819TIP3   OH220420   0.991   6.210   1.238
 6819TIP3    H120421   1.074   6.256   1.232
 6819TIP3    H220422   0.976   6.175   1.150
 6820TIP3   OH220423   3.497   5.733   4.500
 6820TIP3    H120424   3.425   5.740   4.563
 6820TIP3    H220425   3.479   5.801   4.435
 6821TIP3   OH220426   3.712   6.397   2.591
 6821TIP3    H120427   3.632   6.363   2.550
 6821TIP3    H220428   3.748   6.457   2.526
 6822TIP3   OH220429   0.047   6.570   0.970
 6822TIP3    H120430  -0.001   6.507   0.916
 6822TIP3    H220431   0.135   6.534   0.976
 6823TIP3   OH220432   7.112   0.367   4.977
 6823TIP3    H120433   7.182   0.411   4.929
 6823TIP3    H220434   7.124   0.393   5.068
 6824TIP3   OH220435   0.642   1.186   2.859
 6824TIP3    H120436   0.736   1.197   2.872
 6824TIP3    H220437   0.634   1.103   2.811
 6825TIP3   OH220438   0.691   4.941   3.845
 6825TIP3    H120439   0.767   4.898   3.884
 6825TIP3    H220440   0.728   5.015   3.796
 6826TIP3   OH220441   2.430   0.762   0.465
 6826TIP3    H120442   2.357   0.814   0.496
 6826TIP3    H220443   2.485   0.750   0.543
 6827TIP3   OH220444   5.263   2.133   3.558
 6827TIP3    H120445   5.177   2.174   3.562
 6827TIP3    H220446   5.269   2.098   3.469
 6828TIP3   OH220447   0.382   3.137   5.547
 6828TIP3    H120448   0.296   3.152   5.509
 6828TIP3    H220449   0.365   3.102   5.634
 6829TIP3   OH220450   4.275   5.149   2.265
 6829TIP3    H120451   4.366   5.167   2.243
 6829TIP3    H220452   4.243   5.230   2.304
 6830TIP3   OH220453   5.877   4.708   3.957
 6830TIP3    H120454   5.846   4.742   3.873
 6830TIP3    H220455   5.900   4.617   3.940
 6831TIP3   OH220456   5.690   6.442   4.473
 6831TIP3    H120457   5.691   6.488   4.556
 6831TIP3    H220458   5.778   6.406   4.464
 6832TIP3   OH220459   4.193   6.664   1.700
 6832TIP3    H120460   4.122   6.608   1.670
 6832TIP3    H220461   4.202   6.731   1.632
 6833TIP3   OH220462   1.765   4.068   5.442
 6833TIP3    H120463   1.852   4.037   5.467
 6833TIP3    H220464   1.782   4.133   5.374
 6834TIP3   OH220465   2.841   3.143   1.143
 6834TIP3    H120466   2.866   3.055   1.116
 6834TIP3    H220467   2.915   3.198   1.118
 6835TIP3   OH220468   2.635   4.571   5.652
 6835TIP3    H120469   2.683   4.533   5.725
 6835TIP3    H220470   2.564   4.509   5.635
 6836TIP3   OH220471   5.718   6.601   4.702
 6836TIP3    H120472   5.690   6.686   4.735
 6836TIP3    H220473   5.812   6.598   4.718
 6837TIP3   OH220474   5.884   1.177   0.434
 6837TIP3    H120475   5.879   1.247   0.368
 6837TIP3    H220476   5.796   1.140   0.436
 6838TIP3   OH220477   0.205   0.678   1.626
 6838TIP3    H120478   0.195   0.747   1.560
 6838TIP3    H220479   0.127   0.685   1.680
 6839TIP3   OH220480   2.863   0.679   4.016
 6839TIP3    H120481   2.913   0.674   3.934
 6839TIP3    H220482   2.796   0.745   3.999
 6840TIP3   OH220483   2.195   0.896   0.654
 6840TIP3    H120484   2.200   0.817   0.707
 6840TIP3    H220485   2.102   0.918   0.653
 6841TIP3   OH220486   1.629   5.040   1.454
 6841TIP3    H120487   1.533   5.047   1.453
 6841TIP3    H220488   1.647   4.970   1.516
 6842TIP3   OH220489   2.202   4.453   4.656
 6842TIP3    H120490   2.148   4.385   4.696
 6842TIP3    H220491   2.291   4.418   4.660
 6843TIP3   OH220492   6.344   3.075   1.613
 6843TIP3    H120493   6.301   3.100   1.694
 6843TIP3    H220494   6.298   3.124   1.545
 6844TIP3   OH220495   2.827   0.543   4.248
 6844TIP3    H120496   2.818   0.456   4.210
 6844TIP3    H220497   2.822   0.603   4.173
 6845TIP3   OH220498   3.096   3.537   5.048
 6845TIP3    H120499   3.166   3.495   4.998
 6845TIP3    H220500   3.131   3.623   5.070
 6846TIP3   OH220501   7.022   4.912   5.196
 6846TIP3    H120502   6.933   4.916   5.160
 6846TIP3    H220503   7.027   4.824   5.234
 6847TIP3   OH220504   1.506   1.293   3.534
 6847TIP3    H120505   1.477   1.362   3.474
 6847TIP3    H220506   1.602   1.297   3.530
 6848TIP3   OH220507   3.386   5.524   3.632
 6848TIP3    H120508   3.358   5.433   3.625
 6848TIP3    H220509   3.442   5.526   3.710
 6849TIP3   OH220510   6.563   2.816   4.761
 6849TIP3    H120511   6.604   2.757   4.825
 6849TIP3    H220512   6.570   2.903   4.800
 6850TIP3   OH220513   1.243   4.176   2.732
 6850TIP3    H120514   1.194   4.205   2.656
 6850TIP3    H220515   1.303   4.248   2.751
 6851TIP3   OH220516   0.771   2.566   5.356
 6851TIP3    H120517   0.782   2.656   5.385
 6851TIP3    H220518   0.854   2.544   5.314
 6852TIP3   OH220519   0.786   3.878   4.328
 6852TIP3    H120520   0.810   3.899   4.418
 6852TIP3    H220521   0.868   3.854   4.286
 6853TIP3   OH220522   2.248   0.470   3.708
 6853TIP3    H120523   2.166   0.518   3.696
 6853TIP3    H220524   2.313   0.521   3.659
 6854TIP3   OH220525   3.354   5.906   0.236
 6854TIP3    H120526   3.299   5.970   0.281
 6854TIP3    H220527   3.304   5.881   0.158
 6855TIP3   OH220528   1.843   3.287   2.426
 6855TIP3    H120529   1.838   3.364   2.370
 6855TIP3    H220530   1.848   3.213   2.366
 6856TIP3   OH220531   1.726   1.483   2.373
 6856TIP3    H120532   1.729   1.566   2.325
 6856TIP3    H220533   1.806   1.484   2.426
 6857TIP3   OH220534   1.585   5.537   0.468
 6857TIP3    H120535   1.629   5.546   0.384
 6857TIP3    H220536   1.643   5.481   0.520
 6858TIP3   OH220537   0.266   1.225   1.162
 6858TIP3    H120538   0.221   1.141   1.171
 6858TIP3    H220539   0.358   1.202   1.147
 6859TIP3   OH220540   5.520   5.719   2.379
 6859TIP3    H120541   5.509   5.625   2.387
 6859TIP3    H220542   5.601   5.730   2.329
 6860TIP3   OH220543   6.176   5.900   3.647
 6860TIP3    H120544   6.255   5.861   3.685
 6860TIP3    H220545   6.202   5.989   3.624
 6861TIP3   OH220546   2.944   0.272   2.925
 6861TIP3    H120547   2.879   0.337   2.897
 6861TIP3    H220548   3.027   0.319   2.924
 6862TIP3   OH220549   4.996   0.137   2.209
 6862TIP3    H120550   4.977   0.044   2.221
 6862TIP3    H220551   5.089   0.140   2.184
 6863TIP3   OH220552   0.229   1.623   2.981
 6863TIP3    H120553   0.226   1.617   3.077
 6863TIP3    H220554   0.218   1.533   2.952
 6864TIP3   OH220555   1.371   5.804   4.220
 6864TIP3    H120556   1.405   5.885   4.259
 6864TIP3    H220557   1.437   5.738   4.242
 6865TIP3   OH220558   2.272   2.473   2.386
 6865TIP3    H120559   2.298   2.523   2.463
 6865TIP3    H220560   2.314   2.518   2.313
 6866TIP3   OH220561   4.561   1.657   5.395
 6866TIP3    H120562   4.547   1.563   5.383
 6866TIP3    H220563   4.483   1.698   5.358
 6867TIP3   OH220564   2.559   4.907   0.845
 6867TIP3    H120565   2.524   4.830   0.890
 6867TIP3    H220566   2.641   4.876   0.805
 6868TIP3   OH220567   3.854   4.824   2.874
 6868TIP3    H120568   3.854   4.804   2.780
 6868TIP3    H220569   3.897   4.749   2.914
 6869TIP3   OH220570   5.229   3.826   5.196
 6869TIP3    H120571   5.307   3.793   5.150
 6869TIP3    H220572   5.257   3.909   5.235
 6870TIP3   OH220573   7.023   1.813   5.251
 6870TIP3    H120574   7.013   1.808   5.346
 6870TIP3    H220575   7.058   1.901   5.235
 6871TIP3   OH220576   3.799   0.131   0.927
 6871TIP3    H120577   3.722   0.134   0.870
 6871TIP3    H220578   3.805   0.219   0.963
 6872TIP3   OH220579   3.688   0.723   0.879
 6872TIP3    H120580   3.776   0.755   0.898
 6872TIP3    H220581   3.674   0.653   0.942
 6873TIP3   OH220582   6.313   4.268   2.460
 6873TIP3    H120583   6.349   4.326   2.393
 6873TIP3    H220584   6.374   4.194   2.462
 6874TIP3   OH220585   0.098   1.989   5.743
 6874TIP3    H120586   0.179   2.040   5.749
 6874TIP3    H220587   0.049   2.013   5.822
 6875TIP3   OH220588   5.317   1.150   1.238
 6875TIP3    H120589   5.263   1.218   1.197
 6875TIP3    H220590   5.380   1.198   1.291
 6876TIP3   OH220591   3.091   1.562   0.058
 6876TIP3    H120592   3.124   1.493   0.000
 6876TIP3    H220593   3.154   1.563   0.130
 6877TIP3   OH220594   5.572   6.749   5.324
 6877TIP3    H120595   5.607   6.832   5.293
 6877TIP3    H220596   5.571   6.757   5.419
 6878TIP3   OH220597   5.204   4.854   1.974
 6878TIP3    H120598   5.134   4.907   1.936
 6878TIP3    H220599   5.285   4.894   1.941
 6879TIP3   OH220600   1.069   0.970   3.864
 6879TIP3    H120601   0.995   0.974   3.804
 6879TIP3    H220602   1.101   1.060   3.869
 6880TIP3   OH220603   1.344   1.303   0.874
 6880TIP3    H120604   1.432   1.270   0.893
 6880TIP3    H220605   1.324   1.269   0.787
 6881TIP3   OH220606   1.305   1.425   5.730
 6881TIP3    H120607   1.388   1.459   5.761
 6881TIP3    H220608   1.259   1.502   5.696
 6882TIP3   OH220609   6.691   0.607   2.977
 6882TIP3    H120610   6.676   0.639   2.888
 6882TIP3    H220611   6.715   0.685   3.027
 6883TIP3   OH220612   0.967   4.580   3.657
 6883TIP3    H120613   0.878   4.550   3.677
 6883TIP3    H220614   1.021   4.503   3.672
 6884TIP3   OH220615   2.359   3.568   3.999
 6884TIP3    H120616   2.442   3.520   3.997
 6884TIP3    H220617   2.298   3.510   4.044
 6885TIP3   OH220618   5.069   2.008   5.639
 6885TIP3    H120619   5.013   1.945   5.592
 6885TIP3    H220620   5.049   2.092   5.598
 6886TIP3   OH220621   2.304   0.264   0.982
 6886TIP3    H120622   2.288   0.199   1.050
 6886TIP3    H220623   2.282   0.348   1.023
 6887TIP3   OH220624   5.987   0.416   5.640
 6887TIP3    H120625   6.036   0.401   5.721
 6887TIP3    H220626   6.048   0.462   5.583
 6888TIP3   OH220627   1.006   5.136   5.281
 6888TIP3    H120628   0.996   5.181   5.365
 6888TIP3    H220629   0.978   5.200   5.216
 6889TIP3   OH220630   6.928   4.520   3.219
 6889TIP3    H120631   7.020   4.546   3.221
 6889TIP3    H220632   6.927   4.431   3.252
 6890TIP3   OH220633   4.114   3.658   4.089
 6890TIP3    H120634   4.195   3.669   4.138
 6890TIP3    H220635   4.138   3.604   4.014
 6891TIP3   OH220636   1.198   2.522   0.022
 6891TIP3    H120637   1.135   2.522   0.094
 6891TIP3    H220638   1.246   2.440   0.032
 6892TIP3   OH220639   5.320   3.608   3.461
 6892TIP3    H120640   5.393   3.642   3.513
 6892TIP3    H220641   5.347   3.519   3.438
 6893TIP3   OH220642   4.317   1.189   0.046
 6893TIP3    H120643   4.268   1.255   0.094
 6893TIP3    H220644   4.329   1.117   0.108
 6894TIP3   OH220645   0.206   3.271   4.810
 6894TIP3    H120646   0.114   3.294   4.817
 6894TIP3    H220647   0.206   3.177   4.791
 6895TIP3   OH220648   6.088   6.118   0.980
 6895TIP3    H120649   6.109   6.045   0.922
 6895TIP3    H220650   6.064   6.076   1.063
 6896TIP3   OH220651   2.421   4.336   1.480
 6896TIP3    H120652   2.369   4.415   1.465
 6896TIP3    H220653   2.380   4.270   1.424
 6897TIP3   OH220654   3.417   3.343   3.025
 6897TIP3    H120655   3.449   3.368   3.112
 6897TIP3    H220656   3.496   3.321   2.976
 6898TIP3   OH220657   3.233   6.770   2.901
 6898TIP3    H120658   3.315   6.722   2.916
 6898TIP3    H220659   3.212   6.808   2.986
 6899TIP3   OH220660   5.403   5.742   2.695
 6899TIP3    H120661   5.418   5.822   2.644
 6899TIP3    H220662   5.326   5.701   2.655
 6900TIP3   OH220663   4.340   4.986   4.347
 6900TIP3    H120664   4.251   5.020   4.340
 6900TIP3    H220665   4.338   4.927   4.423
 6901TIP3   OH220666   5.296   6.601   4.475
 6901TIP3    H120667   5.308   6.563   4.562
 6901TIP3    H220668   5.328   6.533   4.415
 6902TIP3   OH220669   2.981   2.789   3.702
 6902TIP3    H120670   2.917   2.790   3.773
 6902TIP3    H220671   3.065   2.805   3.746
 6903TIP3   OH220672   5.594   1.217   5.137
 6903TIP3    H120673   5.632   1.299   5.169
 6903TIP3    H220674   5.659   1.150   5.160
 6904TIP3   OH220675   4.554   5.537   2.392
 6904TIP3    H120676   4.617   5.543   2.321
 6904TIP3    H220677   4.565   5.619   2.441
 6905TIP3   OH220678   5.701   3.122   2.288
 6905TIP3    H120679   5.634   3.122   2.221
 6905TIP3    H220680   5.779   3.156   2.244
 6906TIP3   OH220681   5.450   3.897   3.092
 6906TIP3    H120682   5.445   3.802   3.107
 6906TIP3    H220683   5.412   3.909   3.005
 6907TIP3   OH220684   4.927   0.292   2.568
 6907TIP3    H120685   5.009   0.338   2.588
 6907TIP3    H220686   4.915   0.232   2.642
 6908TIP3   OH220687   3.099   6.769   0.410
 6908TIP3    H120688   3.037   6.726   0.351
 6908TIP3    H220689   3.177   6.714   0.408
 6909TIP3   OH220690   0.316   3.198   3.525
 6909TIP3    H120691   0.390   3.146   3.492
 6909TIP3    H220692   0.313   3.274   3.467
 6910TIP3   OH220693   2.185   0.098   1.177
 6910TIP3    H120694   2.229   0.013   1.173
 6910TIP3    H220695   2.100   0.083   1.135
 6911TIP3   OH220696   4.450   3.078   3.503
 6911TIP3    H120697   4.374   3.114   3.456
 6911TIP3    H220698   4.417   2.997   3.542
 6912TIP3   OH220699   0.935   5.950   2.835
 6912TIP3    H120700   0.994   6.021   2.861
 6912TIP3    H220701   0.974   5.871   2.873
 6913TIP3   OH220702   6.766   5.581   2.276
 6913TIP3    H120703   6.858   5.589   2.302
 6913TIP3    H220704   6.727   5.526   2.344
 6914TIP3   OH220705   5.226   5.019   4.240
 6914TIP3    H120706   5.297   5.060   4.191
 6914TIP3    H220707   5.267   4.989   4.321
 6915TIP3   OH220708   2.217   6.614   5.529
 6915TIP3    H120709   2.297   6.666   5.542
 6915TIP3    H220710   2.237   6.529   5.568
 6916TIP3   OH220711   0.986   3.255   2.693
 6916TIP3    H120712   0.951   3.344   2.697
 6916TIP3    H220713   1.080   3.266   2.704
 6917TIP3   OH220714   1.771   5.937   2.273
 6917TIP3    H120715   1.848   5.946   2.216
 6917TIP3    H220716   1.761   5.842   2.285
 6918TIP3   OH220717   3.513   3.285   4.594
 6918TIP3    H120718   3.574   3.351   4.627
 6918TIP3    H220719   3.435   3.296   4.647
 6919TIP3   OH220720   5.771   2.751   3.875
 6919TIP3    H120721   5.715   2.687   3.831
 6919TIP3    H220722   5.859   2.714   3.868
 6920TIP3   OH220723   6.786   5.270   5.339
 6920TIP3    H120724   6.854   5.273   5.272
 6920TIP3    H220725   6.719   5.213   5.302
 6921TIP3   OH220726   4.875   5.210   2.277
 6921TIP3    H120727   4.877   5.292   2.328
 6921TIP3    H220728   4.823   5.150   2.331
 6922TIP3   OH220729   7.129   3.830   1.723
 6922TIP3    H120730   7.040   3.794   1.719
 6922TIP3    H220731   7.163   3.820   1.635
 6923TIP3   OH220732   6.985   5.188   4.511
 6923TIP3    H120733   7.064   5.234   4.539
 6923TIP3    H220734   6.957   5.234   4.432
 6924TIP3   OH220735   5.018   2.282   3.818
 6924TIP3    H120736   5.032   2.286   3.723
 6924TIP3    H220737   5.087   2.224   3.850
 6925TIP3   OH220738   2.108   2.926   2.428
 6925TIP3    H120739   2.120   2.915   2.333
 6925TIP3    H220740   2.014   2.913   2.442
 6926TIP3   OH220741   6.686   3.957   4.552
 6926TIP3    H120742   6.674   3.875   4.599
 6926TIP3    H220743   6.768   3.993   4.586
 6927TIP3   OH220744   1.666   5.999   1.614
 6927TIP3    H120745   1.588   5.977   1.564
 6927TIP3    H220746   1.724   5.924   1.601
 6928TIP3   OH220747   3.846   2.227   4.805
 6928TIP3    H120748   3.764   2.221   4.854
 6928TIP3    H220749   3.840   2.310   4.757
 6929TIP3   OH220750   4.855   1.990   1.987
 6929TIP3    H120751   4.902   1.999   2.070
 6929TIP3    H220752   4.811   2.075   1.976
 6930TIP3   OH220753   2.936   6.594   2.727
 6930TIP3    H120754   2.996   6.532   2.768
 6930TIP3    H220755   2.892   6.637   2.801
 6931TIP3   OH220756   5.091   4.709   3.865
 6931TIP3    H120757   5.014   4.747   3.907
 6931TIP3    H220758   5.157   4.705   3.934
 6932TIP3   OH220759   6.776   6.060   0.112
 6932TIP3    H120760   6.696   6.057   0.163
 6932TIP3    H220761   6.845   6.038   0.174
 6933TIP3   OH220762   2.021   6.699   4.739
 6933TIP3    H120763   1.970   6.728   4.663
 6933TIP3    H220764   2.099   6.657   4.702
 6934TIP3   OH220765   5.368   5.616   0.662
 6934TIP3    H120766   5.421   5.619   0.582
 6934TIP3    H220767   5.432   5.597   0.732
 6935TIP3   OH220768   6.562   1.631   1.145
 6935TIP3    H120769   6.573   1.536   1.151
 6935TIP3    H220770   6.650   1.666   1.159
 6936TIP3   OH220771   2.026   1.191   3.757
 6936TIP3    H120772   2.036   1.139   3.677
 6936TIP3    H220773   1.933   1.184   3.778
 6937TIP3   OH220774   2.436   2.046   1.458
 6937TIP3    H120775   2.354   2.071   1.415
 6937TIP3    H220776   2.464   1.967   1.411
 6938TIP3   OH220777   0.138   6.514   3.212
 6938TIP3    H120778   0.144   6.609   3.225
 6938TIP3    H220779   0.116   6.479   3.299
 6939TIP3   OH220780   1.013   5.491   5.956
 6939TIP3    H120781   1.106   5.508   5.944
 6939TIP3    H220782   0.979   5.478   5.867
 6940TIP3   OH220783   4.580   2.076   5.129
 6940TIP3    H120784   4.506   2.128   5.098
 6940TIP3    H220785   4.590   2.102   5.221
 6941TIP3   OH220786   7.025   1.691   1.959
 6941TIP3    H120787   6.969   1.760   1.924
 6941TIP3    H220788   7.049   1.722   2.046
 6942TIP3   OH220789   5.542   6.140   5.256
 6942TIP3    H120790   5.585   6.151   5.341
 6942TIP3    H220791   5.467   6.199   5.259
 6943TIP3   OH220792   2.172   3.317   5.831
 6943TIP3    H120793   2.180   3.407   5.800
 6943TIP3    H220794   2.198   3.263   5.756
 6944TIP3   OH220795   3.300   3.026   5.481
 6944TIP3    H120796   3.295   3.031   5.385
 6944TIP3    H220797   3.296   2.932   5.500
 6945TIP3   OH220798   6.962   6.670   0.901
 6945TIP3    H120799   7.042   6.711   0.867
 6945TIP3    H220800   6.907   6.657   0.824
 6946TIP3   OH220801   6.382   1.974   2.829
 6946TIP3    H120802   6.367   1.979   2.734
 6946TIP3    H220803   6.374   1.882   2.850
 6947TIP3   OH220804   5.805   3.774   1.947
 6947TIP3    H120805   5.833   3.788   1.857
 6947TIP3    H220806   5.720   3.732   1.940
 6948TIP3   OH220807   4.022   6.135   0.997
 6948TIP3    H120808   3.975   6.216   0.977
 6948TIP3    H220809   3.966   6.065   0.962
 6949TIP3   OH220810   5.425   0.550   4.028
 6949TIP3    H120811   5.383   0.627   4.066
 6949TIP3    H220812   5.354   0.501   3.988
 6950TIP3   OH220813   2.754   3.443   1.885
 6950TIP3    H120814   2.748   3.357   1.844
 6950TIP3    H220815   2.756   3.505   1.812
 6951TIP3   OH220816   2.114   4.396   4.182
 6951TIP3    H120817   2.189   4.343   4.211
 6951TIP3    H220818   2.154   4.473   4.142
 6952TIP3   OH220819   2.395   4.034   2.736
 6952TIP3    H120820   2.363   3.960   2.787
 6952TIP3    H220821   2.423   3.996   2.653
 6953TIP3   OH220822   6.390   0.488   0.516
 6953TIP3    H120823   6.437   0.438   0.583
 6953TIP3    H220824   6.306   0.509   0.556
 6954TIP3   OH220825   1.842   2.743   0.961
 6954TIP3    H120826   1.846   2.797   0.882
 6954TIP3    H220827   1.881   2.799   1.029
 6955TIP3   OH220828   4.216   4.260   1.547
 6955TIP3    H120829   4.303   4.297   1.535
 6955TIP3    H220830   4.175   4.266   1.461
 6956TIP3   OH220831   2.668   4.597   3.912
 6956TIP3    H120832   2.598   4.545   3.950
 6956TIP3    H220833   2.707   4.540   3.846
 6957TIP3   OH220834   6.445   3.284   4.381
 6957TIP3    H120835   6.525   3.258   4.335
 6957TIP3    H220836   6.476   3.321   4.464
 6958TIP3   OH220837   4.373   1.297   2.382
 6958TIP3    H120838   4.391   1.205   2.400
 6958TIP3    H220839   4.458   1.340   2.392
 6959TIP3   OH220840   2.666   1.950   1.676
 6959TIP3    H120841   2.655   1.859   1.649
 6959TIP3    H220842   2.578   1.987   1.672
 6960TIP3   OH220843   0.940   1.036   3.106
 6960TIP3    H120844   0.962   1.077   3.023
 6960TIP3    H220845   1.020   1.040   3.158
 6961TIP3   OH220846   0.563   1.908   3.987
 6961TIP3    H120847   0.544   1.897   3.894
 6961TIP3    H220848   0.480   1.933   4.027
 6962TIP3   OH220849   2.520   0.177   3.637
 6962TIP3    H120850   2.507   0.272   3.643
 6962TIP3    H220851   2.578   0.166   3.561
 6963TIP3   OH220852   5.074   0.874   5.490
 6963TIP3    H120853   5.018   0.828   5.427
 6963TIP3    H220854   5.012   0.921   5.546
 6964TIP3   OH220855   1.450   4.414   2.979
 6964TIP3    H120856   1.484   4.374   2.899
 6964TIP3    H220857   1.463   4.348   3.047
 6965TIP3   OH220858   2.055   3.830   5.218
 6965TIP3    H120859   2.095   3.744   5.233
 6965TIP3    H220860   2.042   3.866   5.306
 6966TIP3   OH220861   5.903   1.084   3.816
 6966TIP3    H120862   5.906   0.996   3.779
 6966TIP3    H220863   5.991   1.118   3.802
 6967TIP3   OH220864   0.353   4.223   4.997
 6967TIP3    H120865   0.392   4.210   4.911
 6967TIP3    H220866   0.398   4.159   5.053
 6968TIP3   OH220867   6.157   2.786   2.961
 6968TIP3    H120868   6.126   2.808   2.873
 6968TIP3    H220869   6.189   2.869   2.996
 6969TIP3   OH220870   5.590   1.632   3.640
 6969TIP3    H120871   5.539   1.561   3.679
 6969TIP3    H220872   5.527   1.703   3.628
 6970TIP3   OH220873   3.391   1.807   2.679
 6970TIP3    H120874   3.352   1.879   2.728
 6970TIP3    H220875   3.351   1.728   2.716
 6971TIP3   OH220876   0.083   6.147   5.029
 6971TIP3    H120877   0.026   6.114   4.959
 6971TIP3    H220878   0.023   6.180   5.095
 6972TIP3   OH220879   4.448   0.949   4.839
 6972TIP3    H120880   4.446   0.877   4.903
 6972TIP3    H220881   4.506   0.916   4.769
 6973TIP3   OH220882   0.180   4.422   5.705
 6973TIP3    H120883   0.139   4.506   5.685
 6973TIP3    H220884   0.190   4.379   5.620
 6974TIP3   OH220885   4.258   4.363   2.573
 6974TIP3    H120886   4.345   4.329   2.590
 6974TIP3    H220887   4.241   4.342   2.481
 6975TIP3   OH220888   0.046   1.827   3.346
 6975TIP3    H120889   0.015   1.908   3.387
 6975TIP3    H220890   0.074   1.855   3.259
 6976TIP3   OH220891   2.362   5.615   2.968
 6976TIP3    H120892   2.453   5.616   2.940
 6976TIP3    H220893   2.365   5.591   3.061
 6977TIP3   OH220894   5.250   3.176   2.449
 6977TIP3    H120895   5.157   3.198   2.454
 6977TIP3    H220896   5.263   3.146   2.359
 6978TIP3   OH220897   4.116   1.921   5.229
 6978TIP3    H120898   4.074   2.001   5.262
 6978TIP3    H220899   4.050   1.880   5.174
 6979TIP3   OH220900   5.681   0.831   3.071
 6979TIP3    H120901   5.696   0.741   3.101
 6979TIP3    H220902   5.767   0.862   3.044
 6980TIP3   OH220903   2.340   3.349   2.056
 6980TIP3    H120904   2.429   3.326   2.083
 6980TIP3    H220905   2.337   3.325   1.963
 6981TIP3   OH220906   0.390   4.899   4.840
 6981TIP3    H120907   0.418   4.870   4.753
 6981TIP3    H220908   0.341   4.825   4.875
 6982TIP3   OH220909   6.752   3.928   1.604
 6982TIP3    H120910   6.683   3.923   1.670
 6982TIP3    H220911   6.707   3.908   1.521
 6983TIP3   OH220912   0.097   3.002   4.793
 6983TIP3    H120913   0.058   3.041   4.871
 6983TIP3    H220914   0.040   2.929   4.771
 6984TIP3   OH220915   3.957   5.590   2.575
 6984TIP3    H120916   3.982   5.522   2.637
 6984TIP3    H220917   3.879   5.631   2.615
 6985TIP3   OH220918   5.391   5.836   3.144
 6985TIP3    H120919   5.325   5.887   3.096
 6985TIP3    H220920   5.391   5.751   3.101
 6986TIP3   OH220921   0.398   4.334   3.703
 6986TIP3    H120922   0.324   4.275   3.723
 6986TIP3    H220923   0.388   4.406   3.765
 6987TIP3   OH220924   2.005   1.069   1.016
 6987TIP3    H120925   1.952   1.146   1.038
 6987TIP3    H220926   1.987   1.054   0.923
 6988TIP3   OH220927   7.162   2.912   4.107
 6988TIP3    H120928   7.088   2.851   4.107
 6988TIP3    H220929   7.216   2.883   4.180
 6989TIP3   OH220930   2.999   1.269   3.686
 6989TIP3    H120931   3.029   1.199   3.627
 6989TIP3    H220932   3.078   1.297   3.732
 6990TIP3   OH220933   1.743   6.011   1.237
 6990TIP3    H120934   1.667   6.055   1.274
 6990TIP3    H220935   1.816   6.039   1.292
 6991TIP3   OH220936   5.007   3.038   3.314
 6991TIP3    H120937   4.962   3.037   3.398
 6991TIP3    H220938   5.070   2.965   3.319
 6992TIP3   OH220939   1.121   5.208   1.852
 6992TIP3    H120940   1.161   5.239   1.933
 6992TIP3    H220941   1.084   5.123   1.875
 6993TIP3   OH220942   0.529   1.438   4.427
 6993TIP3    H120943   0.562   1.486   4.351
 6993TIP3    H220944   0.584   1.361   4.433
 6994TIP3   OH220945   6.225   4.656   0.728
 6994TIP3    H120946   6.312   4.646   0.691
 6994TIP3    H220947   6.232   4.617   0.815
 6995TIP3   OH220948   2.439   2.428   0.991
 6995TIP3    H120949   2.414   2.356   1.048
 6995TIP3    H220950   2.489   2.488   1.047
 6996TIP3   OH220951   1.017   2.191   4.799
 6996TIP3    H120952   0.965   2.166   4.723
 6996TIP3    H220953   1.054   2.108   4.831
 6997TIP3   OH220954   1.268   2.787   4.324
 6997TIP3    H120955   1.318   2.869   4.328
 6997TIP3    H220956   1.236   2.783   4.234
 6998TIP3   OH220957   6.064   5.796   3.069
 6998TIP3    H120958   6.031   5.712   3.100
 6998TIP3    H220959   6.155   5.799   3.100
 6999TIP3   OH220960   6.219   2.232   3.073
 6999TIP3    H120961   6.162   2.295   3.117
 6999TIP3    H220962   6.199   2.243   2.980
 7000TIP3   OH220963   3.567   2.632   4.775
 7000TIP3    H120964   3.509   2.633   4.851
 7000TIP3    H220965   3.655   2.635   4.813
 7001TIP3   OH220966   4.278   3.109   0.688
 7001TIP3    H120967   4.211   3.176   0.701
 7001TIP3    H220968   4.231   3.036   0.647
 7002TIP3   OH220969   2.550   6.200   2.455
 7002TIP3    H120970   2.479   6.137   2.456
 7002TIP3    H220971   2.620   6.158   2.405
 7003TIP3   OH220972   2.858   5.997   2.904
 7003TIP3    H120973   2.947   5.977   2.873
 7003TIP3    H220974   2.829   6.070   2.849
 7004TIP3   OH220975   6.452   6.723   1.916
 7004TIP3    H120976   6.365   6.753   1.890
 7004TIP3    H220977   6.436   6.648   1.972
 7005TIP3   OH220978   3.461   1.852   0.721
 7005TIP3    H120979   3.370   1.826   0.708
 7005TIP3    H220980   3.512   1.780   0.684
 7006TIP3   OH220981   7.087   3.569   1.070
 7006TIP3    H120982   7.008   3.607   1.108
 7006TIP3    H220983   7.081   3.475   1.089
 7007TIP3   OH220984   1.835   3.206   4.223
 7007TIP3    H120985   1.843   3.224   4.129
 7007TIP3    H220986   1.922   3.228   4.258
 7008TIP3   OH220987   1.678   0.741   2.491
 7008TIP3    H120988   1.772   0.752   2.507
 7008TIP3    H220989   1.670   0.652   2.457
 7009TIP3   OH220990   2.887   4.207   0.357
 7009TIP3    H120991   2.903   4.290   0.403
 7009TIP3    H220992   2.941   4.214   0.278
 7010TIP3   OH220993   2.107   2.887   2.891
 7010TIP3    H120994   2.149   2.811   2.931
 7010TIP3    H220995   2.026   2.853   2.854
 7011TIP3   OH220996   0.304   5.887   2.217
 7011TIP3    H120997   0.233   5.869   2.278
 7011TIP3    H220998   0.282   5.837   2.138
 7012TIP3   OH220999   6.221   4.417   0.345
 7012TIP3    H121000   6.309   4.384   0.327
 7012TIP3    H221001   6.177   4.344   0.389
 7013TIP3   OH221002   4.074   5.602   2.962
 7013TIP3    H121003   4.119   5.632   3.041
 7013TIP3    H221004   4.020   5.676   2.935
 7014TIP3   OH221005   4.559   1.691   3.615
 7014TIP3    H121006   4.600   1.776   3.604
 7014TIP3    H221007   4.511   1.676   3.534
 7015TIP3   OH221008   2.196   3.203   2.428
 7015TIP3    H121009   2.190   3.265   2.355
 7015TIP3    H221010   2.112   3.158   2.429
 7016TIP3   OH221011   6.061   3.336   3.694
 7016TIP3    H121012   6.120   3.260   3.700
 7016TIP3    H221013   5.978   3.300   3.664
 7017TIP3   OH221014   3.581   4.378   1.102
 7017TIP3    H121015   3.549   4.299   1.146
 7017TIP3    H221016   3.670   4.355   1.074
 7018TIP3   OH221017   2.499   0.660   1.016
 7018TIP3    H121018   2.455   0.744   1.003
 7018TIP3    H221019   2.484   0.639   1.108
 7019TIP3   OH221020   0.731   3.074   0.339
 7019TIP3    H121021   0.728   2.979   0.327
 7019TIP3    H221022   0.665   3.108   0.279
 7020TIP3   OH221023   1.011   0.646   3.694
 7020TIP3    H121024   1.015   0.556   3.726
 7020TIP3    H221025   0.970   0.695   3.765
 7021TIP3   OH221026   4.914   2.600   3.317
 7021TIP3    H121027   4.942   2.555   3.237
 7021TIP3    H221028   4.888   2.529   3.376
 7022TIP3   OH221029   0.638   0.215   4.300
 7022TIP3    H121030   0.548   0.188   4.314
 7022TIP3    H221031   0.631   0.305   4.268
 7023TIP3   OH221032   3.361   0.207   2.260
 7023TIP3    H121033   3.312   0.288   2.251
 7023TIP3    H221034   3.340   0.157   2.181
 7024TIP3   OH221035   0.066   6.538   1.963
 7024TIP3    H121036   0.063   6.443   1.953
 7024TIP3    H221037  -0.017   6.569   1.929
 7025TIP3   OH221038   5.138   0.845   2.416
 7025TIP3    H121039   5.188   0.921   2.447
 7025TIP3    H221040   5.128   0.861   2.322
 7026TIP3   OH221041   1.254   6.774   3.347
 7026TIP3    H121042   1.326   6.786   3.285
 7026TIP3    H221043   1.201   6.704   3.309
 7027TIP3   OH221044   4.810   1.112   5.001
 7027TIP3    H121045   4.792   1.039   4.941
 7027TIP3    H221046   4.758   1.093   5.079
 7028TIP3   OH221047   1.319   3.079   4.009
 7028TIP3    H121048   1.244   3.133   4.034
 7028TIP3    H221049   1.369   3.133   3.948
 7029TIP3   OH221050   5.500   3.188   0.723
 7029TIP3    H121051   5.475   3.280   0.723
 7029TIP3    H221052   5.497   3.163   0.630
 7030TIP3   OH221053   0.431   5.122   1.768
 7030TIP3    H121054   0.369   5.185   1.730
 7030TIP3    H221055   0.455   5.065   1.696
 7031TIP3   OH221056   0.553   3.415   5.685
 7031TIP3    H121057   0.584   3.339   5.635
 7031TIP3    H221058   0.520   3.378   5.767
 7032TIP3   OH221059   4.990   5.283   1.599
 7032TIP3    H121060   4.930   5.236   1.657
 7032TIP3    H221061   5.077   5.248   1.620
 7033TIP3   OH221062   4.511   5.140   4.157
 7033TIP3    H121063   4.449   5.089   4.209
 7033TIP3    H221064   4.458   5.181   4.089
 7034TIP3   OH221065   6.579   1.841   4.708
 7034TIP3    H121066   6.528   1.761   4.690
 7034TIP3    H221067   6.670   1.812   4.706
 7035TIP3   OH221068   1.010   3.228   4.577
 7035TIP3    H121069   1.080   3.171   4.544
 7035TIP3    H221070   0.929   3.183   4.555
 7036TIP3   OH221071   4.977   5.809   3.619
 7036TIP3    H121072   5.006   5.812   3.710
 7036TIP3    H221073   4.917   5.734   3.615
 7037TIP3   OH221074   0.244   6.079   2.548
 7037TIP3    H121075   0.196   6.158   2.574
 7037TIP3    H221076   0.306   6.065   2.620
 7038TIP3   OH221077   2.950   1.984   4.781
 7038TIP3    H121078   2.918   2.062   4.826
 7038TIP3    H221079   3.045   1.986   4.794
 7039TIP3   OH221080   6.325   5.476   0.748
 7039TIP3    H121081   6.364   5.392   0.724
 7039TIP3    H221082   6.397   5.526   0.786
 7040TIP3   OH221083   5.407   5.726   4.070
 7040TIP3    H121084   5.408   5.637   4.104
 7040TIP3    H221085   5.402   5.781   4.148
 7041TIP3   OH221086   6.213   1.648   2.358
 7041TIP3    H121087   6.245   1.737   2.372
 7041TIP3    H221088   6.151   1.633   2.430
 7042TIP3   OH221089   5.389   5.746   1.062
 7042TIP3    H121090   5.375   5.818   1.123
 7042TIP3    H221091   5.440   5.783   0.991
 7043TIP3   OH221092   4.085   1.568   2.854
 7043TIP3    H121093   4.118   1.655   2.876
 7043TIP3    H221094   4.069   1.572   2.760
 7044TIP3   OH221095   5.737   4.886   2.449
 7044TIP3    H121096   5.786   4.845   2.379
 7044TIP3    H221097   5.738   4.979   2.429
 7045TIP3   OH221098   0.847   5.366   1.825
 7045TIP3    H121099   0.855   5.339   1.916
 7045TIP3    H221100   0.819   5.287   1.779
 7046TIP3   OH221101   5.091   1.724   3.080
 7046TIP3    H121102   5.004   1.687   3.097
 7046TIP3    H221103   5.152   1.654   3.105
 7047TIP3   OH221104   6.889   1.734   2.418
 7047TIP3    H121105   6.801   1.696   2.413
 7047TIP3    H221106   6.946   1.665   2.385
 7048TIP3   OH221107   0.373   0.454   4.949
 7048TIP3    H121108   0.422   0.373   4.962
 7048TIP3    H221109   0.337   0.447   4.861
 7049TIP3   OH221110   3.123   5.036   3.051
 7049TIP3    H121111   3.173   5.116   3.034
 7049TIP3    H221112   3.032   5.064   3.051
 7050TIP3   OH221113   0.315   2.239   1.154
 7050TIP3    H121114   0.289   2.205   1.068
 7050TIP3    H221115   0.390   2.296   1.135
 7051TIP3   OH221116   3.755   5.724   5.206
 7051TIP3    H121117   3.739   5.735   5.299
 7051TIP3    H221118   3.669   5.737   5.165
 7052TIP3   OH221119   3.713   1.341   5.181
 7052TIP3    H121120   3.709   1.259   5.133
 7052TIP3    H221121   3.630   1.385   5.160
 7053TIP3   OH221122   2.820   2.514   4.508
 7053TIP3    H121123   2.839   2.597   4.552
 7053TIP3    H221124   2.895   2.458   4.530
 7054TIP3   OH221125   4.411   2.769   0.411
 7054TIP3    H121126   4.467   2.817   0.350
 7054TIP3    H221127   4.382   2.693   0.361
 7055TIP3   OH221128   0.278   3.345   0.189
 7055TIP3    H121129   0.274   3.414   0.123
 7055TIP3    H221130   0.216   3.279   0.159
 7056TIP3   OH221131   1.424   1.699   0.483
 7056TIP3    H121132   1.361   1.627   0.487
 7056TIP3    H221133   1.395   1.760   0.552
 7057TIP3   OH221134   3.066   3.512   1.348
 7057TIP3    H121135   3.160   3.525   1.333
 7057TIP3    H221136   3.059   3.495   1.442
 7058TIP3   OH221137   2.400   5.439   1.632
 7058TIP3    H121138   2.316   5.416   1.593
 7058TIP3    H221139   2.410   5.533   1.614
 7059TIP3   OH221140   3.963   4.406   3.856
 7059TIP3    H121141   4.019   4.409   3.779
 7059TIP3    H221142   3.874   4.398   3.821
 7060TIP3   OH221143   1.680   0.716   1.740
 7060TIP3    H121144   1.605   0.761   1.701
 7060TIP3    H221145   1.752   0.780   1.736
 7061TIP3   OH221146   6.365   4.602   5.840
 7061TIP3    H121147   6.457   4.580   5.823
 7061TIP3    H221148   6.368   4.689   5.881
 7062TIP3   OH221149   2.614   3.261   1.054
 7062TIP3    H121150   2.654   3.333   1.007
 7062TIP3    H221151   2.678   3.237   1.121
 7063TIP3   OH221152   4.271   1.479   5.316
 7063TIP3    H121153   4.352   1.435   5.341
 7063TIP3    H221154   4.300   1.562   5.277
 7064TIP3   OH221155   6.371   1.469   0.750
 7064TIP3    H121156   6.390   1.389   0.799
 7064TIP3    H221157   6.285   1.454   0.712
 7065TIP3   OH221158   7.104   2.512   0.293
 7065TIP3    H121159   7.112   2.539   0.385
 7065TIP3    H221160   7.012   2.492   0.281
 7066TIP3   OH221161   5.699   5.540   3.045
 7066TIP3    H121162   5.666   5.569   3.129
 7066TIP3    H221163   5.623   5.541   2.987
 7067TIP3   OH221164   6.908   6.597   1.178
 7067TIP3    H121165   6.901   6.596   1.082
 7067TIP3    H221166   6.818   6.613   1.208
 7068TIP3   OH221167   0.440   2.934   0.017
 7068TIP3    H121168   0.361   2.880   0.014
 7068TIP3    H221169   0.463   2.937   0.110
 7069TIP3   OH221170   3.820   4.414   5.777
 7069TIP3    H121171   3.750   4.377   5.723
 7069TIP3    H221172   3.888   4.346   5.778
 7070TIP3   OH221173   3.429   6.571   2.248
 7070TIP3    H121174   3.468   6.654   2.219
 7070TIP3    H221175   3.335   6.590   2.254
 7071TIP3   OH221176   6.762   3.964   3.686
 7071TIP3    H121177   6.846   3.954   3.730
 7071TIP3    H221178   6.716   4.030   3.738
 7072TIP3   OH221179   5.299   1.885   1.838
 7072TIP3    H121180   5.220   1.836   1.860
 7072TIP3    H221181   5.332   1.917   1.923
 7073TIP3   OH221182   5.987   1.393   3.399
 7073TIP3    H121183   5.945   1.326   3.452
 7073TIP3    H221184   5.948   1.475   3.429
 7074TIP3   OH221185   0.982   1.021   5.387
 7074TIP3    H121186   0.984   1.031   5.482
 7074TIP3    H221187   0.952   1.106   5.354
 7075TIP3   OH221188   0.911   3.098   2.490
 7075TIP3    H121189   0.909   3.167   2.424
 7075TIP3    H221190   0.965   3.134   2.560
 7076TIP3   OH221191   0.062   6.699   5.644
 7076TIP3    H121192   0.102   6.715   5.558
 7076TIP3    H221193  -0.011   6.761   5.647
 7077TIP3   OH221194   7.120   6.817   2.535
 7077TIP3    H121195   7.145   6.769   2.614
 7077TIP3    H221196   7.202   6.829   2.487
 7078TIP3   OH221197   5.374   6.205   1.887
 7078TIP3    H121198   5.288   6.246   1.902
 7078TIP3    H221199   5.425   6.272   1.843
 7079TIP3   OH221200   0.447   6.260   0.086
 7079TIP3    H121201   0.504   6.183   0.097
 7079TIP3    H221202   0.462   6.288  -0.004
 7080TIP3   OH221203   0.519   4.109   1.774
 7080TIP3    H121204   0.544   4.133   1.684
 7080TIP3    H221205   0.424   4.123   1.777
 7081TIP3   OH221206   1.719   4.418   0.930
 7081TIP3    H121207   1.728   4.511   0.906
 7081TIP3    H221208   1.718   4.418   1.025
 7082TIP3   OH221209   4.807   0.789   1.090
 7082TIP3    H121210   4.862   0.784   1.011
 7082TIP3    H221211   4.868   0.775   1.162
 7083TIP3   OH221212   1.286   2.751   4.647
 7083TIP3    H121213   1.340   2.713   4.716
 7083TIP3    H221214   1.338   2.739   4.567
 7084TIP3   OH221215   5.908   2.929   2.085
 7084TIP3    H121216   5.973   2.877   2.131
 7084TIP3    H221217   5.933   2.924   1.993
 7085TIP3   OH221218   5.700   2.536   4.500
 7085TIP3    H121219   5.738   2.534   4.413
 7085TIP3    H221220   5.772   2.511   4.558
 7086TIP3   OH221221   5.466   5.489   4.673
 7086TIP3    H121222   5.382   5.483   4.628
 7086TIP3    H221223   5.525   5.434   4.622
 7087TIP3   OH221224   4.330   3.229   2.699
 7087TIP3    H121225   4.287   3.305   2.660
 7087TIP3    H221226   4.412   3.220   2.651
 7088TIP3   OH221227   6.453   0.040   3.360
 7088TIP3    H121228   6.498   0.121   3.337
 7088TIP3    H221229   6.517  -0.029   3.339
 7089TIP3   OH221230   0.516   4.131   3.991
 7089TIP3    H121231   0.507   4.058   4.052
 7089TIP3    H221232   0.518   4.090   3.905
 7090TIP3   OH221233   1.493   6.588   5.320
 7090TIP3    H121234   1.535   6.540   5.248
 7090TIP3    H221235   1.565   6.632   5.365
 7091TIP3   OH221236   1.780   3.039   1.589
 7091TIP3    H121237   1.706   3.100   1.600
 7091TIP3    H221238   1.839   3.085   1.530
 7092TIP3   OH221239   5.851   5.968   2.978
 7092TIP3    H121240   5.918   5.904   3.005
 7092TIP3    H221241   5.783   5.961   3.045
 7093TIP3   OH221242   2.902   2.893   0.114
 7093TIP3    H121243   2.896   2.821   0.051
 7093TIP3    H221244   2.837   2.957   0.084
 7094TIP3   OH221245   2.446   4.957   5.035
 7094TIP3    H121246   2.481   4.895   4.972
 7094TIP3    H221247   2.518   5.017   5.052
 7095TIP3   OH221248   6.246   0.613   2.221
 7095TIP3    H121249   6.217   0.601   2.131
 7095TIP3    H221250   6.325   0.667   2.214
 7096TIP3   OH221251   2.862   3.958   0.851
 7096TIP3    H121252   2.935   3.913   0.809
 7096TIP3    H221253   2.880   4.051   0.837
 7097TIP3   OH221254   6.240   0.433   4.966
 7097TIP3    H121255   6.328   0.395   4.963
 7097TIP3    H221256   6.230   0.474   4.879
 7098TIP3   OH221257   5.870   6.215   4.649
 7098TIP3    H121258   5.812   6.259   4.712
 7098TIP3    H221259   5.944   6.185   4.702
 7099TIP3   OH221260   2.030   2.215   3.768
 7099TIP3    H121261   2.072   2.215   3.853
 7099TIP3    H221262   2.040   2.305   3.736
 7100TIP3   OH221263   3.795   3.801   2.130
 7100TIP3    H121264   3.885   3.832   2.126
 7100TIP3    H221265   3.746   3.876   2.163
 7101TIP3   OH221266   2.054   0.472   0.900
 7101TIP3    H121267   2.028   0.539   0.838
 7101TIP3    H221268   2.138   0.502   0.935
 7102TIP3   OH221269   4.226   0.923   1.482
 7102TIP3    H121270   4.189   0.921   1.394
 7102TIP3    H221271   4.157   0.960   1.536
 7103TIP3   OH221272   0.757   5.852   2.338
 7103TIP3    H121273   0.689   5.800   2.382
 7103TIP3    H221274   0.803   5.789   2.283
 7104TIP3   OH221275   0.192   5.612   1.447
 7104TIP3    H121276   0.265   5.567   1.488
 7104TIP3    H221277   0.216   5.618   1.354
 7105TIP3   OH221278   5.391   3.421   1.085
 7105TIP3    H121279   5.363   3.410   1.176
 7105TIP3    H221280   5.344   3.499   1.055
 7106TIP3   OH221281   1.414   0.619   1.614
 7106TIP3    H121282   1.448   0.533   1.638
 7106TIP3    H221283   1.488   0.664   1.574
 7107TIP3   OH221284   0.717   1.787   0.408
 7107TIP3    H121285   0.753   1.827   0.329
 7107TIP3    H221286   0.689   1.700   0.381
 7108TIP3   OH221287   1.572   0.973   2.566
 7108TIP3    H121288   1.610   0.897   2.520
 7108TIP3    H221289   1.623   1.048   2.534
 7109TIP3   OH221290   3.730   3.164   0.945
 7109TIP3    H121291   3.787   3.096   0.981
 7109TIP3    H221292   3.720   3.141   0.853
 7110TIP3   OH221293   2.105   0.830   5.272
 7110TIP3    H121294   2.064   0.917   5.271
 7110TIP3    H221295   2.198   0.847   5.261
 7111TIP3   OH221296   2.735   0.542  -0.031
 7111TIP3    H121297   2.820   0.497  -0.027
 7111TIP3    H221298   2.744   0.614   0.031
 7112TIP3   OH221299   0.492   5.824   1.904
 7112TIP3    H121300   0.409   5.814   1.951
 7112TIP3    H221301   0.549   5.757   1.941
 7113TIP3   OH221302   3.417   0.547   3.948
 7113TIP3    H121303   3.412   0.471   3.889
 7113TIP3    H221304   3.493   0.530   4.003
 7114TIP3   OH221305   0.066   1.444   5.338
 7114TIP3    H121306   0.056   1.504   5.412
 7114TIP3    H221307   0.156   1.457   5.308
 7115TIP3   OH221308   4.582   6.566   1.580
 7115TIP3    H121309   4.566   6.575   1.486
 7115TIP3    H221310   4.669   6.528   1.586
 7116TIP3   OH221311   6.816   2.779   1.589
 7116TIP3    H121312   6.781   2.856   1.543
 7116TIP3    H221313   6.871   2.735   1.523
 7117TIP3   OH221314   2.221   3.562   2.613
 7117TIP3    H121315   2.166   3.588   2.539
 7117TIP3    H221316   2.168   3.580   2.691
 7118TIP3   OH221317   4.325   2.529   4.733
 7118TIP3    H121318   4.333   2.445   4.777
 7118TIP3    H221319   4.358   2.593   4.796
 7119TIP3   OH221320   2.986   4.669   3.801
 7119TIP3    H121321   2.944   4.586   3.777
 7119TIP3    H221322   2.924   4.736   3.773
 7120TIP3   OH221323   3.206   2.721   1.230
 7120TIP3    H121324   3.120   2.707   1.269
 7120TIP3    H221325   3.244   2.792   1.281
 7121TIP3   OH221326   4.715   4.481   3.861
 7121TIP3    H121327   4.799   4.482   3.906
 7121TIP3    H221328   4.652   4.514   3.925
 7122TIP3   OH221329   1.519   3.907   3.559
 7122TIP3    H121330   1.479   3.832   3.513
 7122TIP3    H221331   1.550   3.871   3.642
 7123TIP3   OH221332   4.607   4.367   2.834
 7123TIP3    H121333   4.601   4.374   2.929
 7123TIP3    H221334   4.559   4.444   2.801
 7124TIP3   OH221335   3.087   6.386   0.047
 7124TIP3    H121336   3.020   6.426   0.102
 7124TIP3    H221337   3.116   6.456  -0.012
 7125TIP3   OH221338   5.944   2.559   5.487
 7125TIP3    H121339   6.012   2.618   5.520
 7125TIP3    H221340   5.990   2.478   5.466
 7126TIP3   OH221341   4.887   1.078   1.134
 7126TIP3    H121342   4.948   1.083   1.060
 7126TIP3    H221343   4.818   1.019   1.103
 7127TIP3   OH221344   4.872   2.255   2.697
 7127TIP3    H121345   4.800   2.311   2.666
 7127TIP3    H221346   4.866   2.261   2.793
 7128TIP3   OH221347   0.509   3.379   0.873
 7128TIP3    H121348   0.448   3.307   0.890
 7128TIP3    H221349   0.500   3.437   0.949
 7129TIP3   OH221350   4.928   1.505   1.076
 7129TIP3    H121351   4.942   1.490   0.982
 7129TIP3    H221352   4.845   1.460   1.095
 7130TIP3   OH221353   4.851   6.295   5.093
 7130TIP3    H121354   4.942   6.301   5.064
 7130TIP3    H221355   4.839   6.373   5.148
 7131TIP3   OH221356   6.150   2.719   2.467
 7131TIP3    H121357   6.087   2.647   2.467
 7131TIP3    H221358   6.124   2.773   2.541
 7132TIP3   OH221359   1.775   5.740   3.943
 7132TIP3    H121360   1.856   5.765   3.990
 7132TIP3    H221361   1.722   5.697   4.010
 7133TIP3   OH221362   2.570   3.140   4.942
 7133TIP3    H121363   2.635   3.083   4.900
 7133TIP3    H221364   2.596   3.228   4.917
 7134TIP3   OH221365   3.978   3.565   0.150
 7134TIP3    H121366   3.887   3.593   0.164
 7134TIP3    H221367   3.995   3.503   0.221
 7135TIP3   OH221368   0.725   0.833   5.404
 7135TIP3    H121369   0.813   0.868   5.391
 7135TIP3    H221370   0.687   0.832   5.316
 7136TIP3   OH221371   1.038   2.793   1.696
 7136TIP3    H121372   1.114   2.778   1.640
 7136TIP3    H221373   1.071   2.849   1.766
 7137TIP3   OH221374   4.857   0.172   4.027
 7137TIP3    H121375   4.938   0.129   4.052
 7137TIP3    H221376   4.788   0.121   4.069
 7138TIP3   OH221377   4.965   5.752   1.607
 7138TIP3    H121378   4.950   5.717   1.519
 7138TIP3    H221379   5.032   5.695   1.644
 7139TIP3   OH221380   6.289   2.414   0.745
 7139TIP3    H121381   6.365   2.456   0.785
 7139TIP3    H221382   6.214   2.448   0.793
 7140TIP3   OH221383   4.244   0.920   0.888
 7140TIP3    H121384   4.228   1.006   0.849
 7140TIP3    H221385   4.280   0.940   0.975
 7141TIP3   OH221386   4.183   6.275   3.052
 7141TIP3    H121387   4.096   6.274   3.091
 7141TIP3    H221388   4.193   6.188   3.012
 7142TIP3   OH221389   1.371   1.906   5.337
 7142TIP3    H121390   1.367   1.856   5.419
 7142TIP3    H221391   1.333   1.848   5.272
 7143TIP3   OH221392   3.432   5.481   1.553
 7143TIP3    H121393   3.364   5.461   1.488
 7143TIP3    H221394   3.514   5.476   1.504
 7144TIP3   OH221395   3.307   3.392   2.384
 7144TIP3    H121396   3.321   3.316   2.327
 7144TIP3    H221397   3.237   3.441   2.341
 7145TIP3   OH221398   1.251   3.999   3.087
 7145TIP3    H121399   1.194   4.055   3.138
 7145TIP3    H221400   1.237   3.911   3.122
 7146TIP3   OH221401   6.199   5.951   1.661
 7146TIP3    H121402   6.295   5.953   1.667
 7146TIP3    H221403   6.170   6.021   1.719
 7147TIP3   OH221404   4.588   3.768   1.692
 7147TIP3    H121405   4.512   3.820   1.667
 7147TIP3    H221406   4.581   3.760   1.787
 7148TIP3   OH221407   5.618   0.122   2.657
 7148TIP3    H121408   5.704   0.122   2.613
 7148TIP3    H221409   5.630   0.063   2.731
 7149TIP3   OH221410   4.239   1.202   0.865
 7149TIP3    H121411   4.187   1.275   0.831
 7149TIP3    H221412   4.314   1.244   0.906
 7150TIP3   OH221413   2.198   5.992   2.066
 7150TIP3    H121414   2.243   6.060   2.015
 7150TIP3    H221415   2.269   5.940   2.104
 7151TIP3   OH221416   0.022   1.076   1.715
 7151TIP3    H121417   0.102   1.122   1.739
 7151TIP3    H221418   0.006   1.103   1.624
 7152TIP3   OH221419   2.795   2.291   5.792
 7152TIP3    H121420   2.779   2.295   5.886
 7152TIP3    H221421   2.877   2.338   5.779
 7153TIP3   OH221422   3.966   4.996   1.823
 7153TIP3    H121423   4.004   5.083   1.826
 7153TIP3    H221424   4.033   4.941   1.784
 7154TIP3   OH221425   6.317   2.762   3.862
 7154TIP3    H121426   6.289   2.737   3.950
 7154TIP3    H221427   6.354   2.850   3.872
 7155TIP3   OH221428   3.778   3.411   5.302
 7155TIP3    H121429   3.745   3.389   5.214
 7155TIP3    H221430   3.862   3.454   5.285
 7156TIP3   OH221431   3.360   2.270   4.927
 7156TIP3    H121432   3.334   2.290   5.016
 7156TIP3    H221433   3.342   2.350   4.877
 7157TIP3   OH221434   5.810   0.307   2.998
 7157TIP3    H121435   5.718   0.287   3.016
 7157TIP3    H221436   5.817   0.402   3.011
 7158TIP3   OH221437   7.071   3.249   3.492
 7158TIP3    H121438   6.985   3.253   3.533
 7158TIP3    H221439   7.087   3.156   3.478
 7159TIP3   OH221440   5.960   5.884   0.742
 7159TIP3    H121441   6.024   5.819   0.772
 7159TIP3    H221442   5.889   5.832   0.706
 7160TIP3   OH221443   1.988   6.214   2.192
 7160TIP3    H121444   2.013   6.290   2.140
 7160TIP3    H221445   1.896   6.200   2.170
 7161TIP3   OH221446   3.465   6.189   4.339
 7161TIP3    H121447   3.526   6.206   4.266
 7161TIP3    H221448   3.448   6.276   4.376
 7162TIP3   OH221449   5.926   5.910   3.708
 7162TIP3    H121450   5.912   5.860   3.789
 7162TIP3    H221451   6.020   5.927   3.706
 7163TIP3   OH221452   3.444   2.688   2.928
 7163TIP3    H121453   3.529   2.679   2.970
 7163TIP3    H221454   3.418   2.598   2.907
 7164TIP3   OH221455   6.690   2.208   1.945
 7164TIP3    H121456   6.597   2.189   1.935
 7164TIP3    H221457   6.713   2.256   1.865
 7165TIP3   OH221458   2.987   2.307   1.960
 7165TIP3    H121459   2.893   2.289   1.964
 7165TIP3    H221460   2.994   2.402   1.969
 7166TIP3   OH221461   0.850   2.719   4.081
 7166TIP3    H121462   0.825   2.696   4.171
 7166TIP3    H221463   0.837   2.813   4.077
 7167TIP3   OH221464   2.388   6.299   4.838
 7167TIP3    H121465   2.371   6.270   4.748
 7167TIP3    H221466   2.388   6.218   4.890
 7168TIP3   OH221467   1.361   0.159   0.915
 7168TIP3    H121468   1.334   0.075   0.954
 7168TIP3    H221469   1.434   0.136   0.858
 7169TIP3   OH221470   6.835   1.882   1.809
 7169TIP3    H121471   6.802   1.936   1.737
 7169TIP3    H221472   6.764   1.822   1.829
 7170TIP3   OH221473   0.659   5.368   5.573
 7170TIP3    H121474   0.569   5.344   5.554
 7170TIP3    H221475   0.653   5.441   5.634
 7171TIP3   OH221476   7.042   4.202   3.968
 7171TIP3    H121477   7.062   4.257   4.044
 7171TIP3    H221478   7.083   4.247   3.894
 7172TIP3   OH221479   4.791   2.909   2.951
 7172TIP3    H121480   4.884   2.926   2.968
 7172TIP3    H221481   4.745   2.971   3.007
 7173TIP3   OH221482   0.143   0.003   4.152
 7173TIP3    H121483   0.061  -0.042   4.176
 7173TIP3    H221484   0.199  -0.007   4.228
 7174TIP3   OH221485   5.520   0.825   5.284
 7174TIP3    H121486   5.524   0.771   5.363
 7174TIP3    H221487   5.474   0.905   5.311
 7175TIP3   OH221488   1.072   6.034   4.595
 7175TIP3    H121489   1.007   5.969   4.569
 7175TIP3    H221490   1.081   6.023   4.690
 7176TIP3   OH221491   0.970   5.312   2.759
 7176TIP3    H121492   0.925   5.281   2.680
 7176TIP3    H221493   1.047   5.255   2.767
 7177TIP3   OH221494   6.923   3.627   4.618
 7177TIP3    H121495   6.844   3.651   4.665
 7177TIP3    H221496   6.982   3.702   4.631
 7178TIP3   OH221497   2.541   5.788   1.319
 7178TIP3    H121498   2.615   5.849   1.321
 7178TIP3    H221499   2.578   5.703   1.342
 7179TIP3   OH221500   3.976   6.485   4.714
 7179TIP3    H121501   4.025   6.508   4.793
 7179TIP3    H221502   3.957   6.569   4.672
 7180TIP3   OH221503   2.607   5.577   5.664
 7180TIP3    H121504   2.531   5.560   5.608
 7180TIP3    H221505   2.571   5.583   5.752
 7181TIP3   OH221506   2.024   0.284   2.379
 7181TIP3    H121507   1.996   0.374   2.360
 7181TIP3    H221508   2.114   0.280   2.346
 7182TIP3   OH221509   2.673   5.117   5.049
 7182TIP3    H121510   2.688   5.190   5.109
 7182TIP3    H221511   2.721   5.141   4.970
 7183TIP3   OH221512   2.470   4.389   0.035
 7183TIP3    H121513   2.546   4.446   0.044
 7183TIP3    H221514   2.395   4.449   0.033
 7184TIP3   OH221515   5.459   2.609   1.058
 7184TIP3    H121516   5.407   2.688   1.075
 7184TIP3    H221517   5.536   2.618   1.114
 7185TIP3   OH221518   3.723   2.740   2.629
 7185TIP3    H121519   3.765   2.657   2.607
 7185TIP3    H221520   3.793   2.805   2.623
 7186TIP3   OH221521   1.978   3.996   0.995
 7186TIP3    H121522   2.008   4.045   0.919
 7186TIP3    H221523   1.932   3.920   0.959
 7187TIP3   OH221524   4.665   0.238   0.921
 7187TIP3    H121525   4.630   0.320   0.956
 7187TIP3    H221526   4.760   0.248   0.929
 7188TIP3   OH221527   6.279   3.916   0.705
 7188TIP3    H121528   6.189   3.919   0.674
 7188TIP3    H221529   6.273   3.893   0.797
 7189TIP3   OH221530   3.721   6.343   3.116
 7189TIP3    H121531   3.669   6.368   3.040
 7189TIP3    H221532   3.677   6.385   3.190
 7190TIP3   OH221533   1.783   2.902   2.795
 7190TIP3    H121534   1.688   2.897   2.784
 7190TIP3    H221535   1.797   2.906   2.890
 7191TIP3   OH221536   4.185   2.034   5.785
 7191TIP3    H121537   4.214   2.104   5.843
 7191TIP3    H221538   4.099   2.009   5.819
 7192TIP3   OH221539   4.094   4.424   3.610
 7192TIP3    H121540   4.185   4.436   3.582
 7192TIP3    H221541   4.043   4.472   3.545
 7193TIP3   OH221542   2.007   5.261   1.764
 7193TIP3    H121543   2.009   5.286   1.671
 7193TIP3    H221544   1.998   5.166   1.764
 7194TIP3   OH221545   5.950   3.771   5.519
 7194TIP3    H121546   5.977   3.838   5.456
 7194TIP3    H221547   5.876   3.727   5.478
 7195TIP3   OH221548   6.124   2.379   2.073
 7195TIP3    H121549   6.038   2.363   2.113
 7195TIP3    H221550   6.150   2.295   2.036
 7196TIP3   OH221551   6.310   4.588   1.982
 7196TIP3    H121552   6.332   4.504   1.940
 7196TIP3    H221553   6.392   4.637   1.981
 7197TIP3   OH221554   0.222   6.561   2.551
 7197TIP3    H121555   0.263   6.505   2.617
 7197TIP3    H221556   0.239   6.516   2.468
 7198TIP3   OH221557   5.772   2.076   4.980
 7198TIP3    H121558   5.745   1.986   5.000
 7198TIP3    H221559   5.750   2.125   5.059
 7199TIP3   OH221560   0.543   0.911   4.110
 7199TIP3    H121561   0.471   0.929   4.170
 7199TIP3    H221562   0.568   0.997   4.076
 7200TIP3   OH221563   4.384   6.065   3.961
 7200TIP3    H121564   4.323   6.017   4.017
 7200TIP3    H221565   4.352   6.155   3.962
 7201TIP3   OH221566   6.666   5.336   5.588
 7201TIP3    H121567   6.726   5.319   5.516
 7201TIP3    H221568   6.641   5.427   5.578
 7202TIP3   OH221569   7.046   6.245   1.091
 7202TIP3    H121570   7.067   6.289   1.009
 7202TIP3    H221571   6.955   6.217   1.081
 7203TIP3   OH221572   1.718   6.360   4.029
 7203TIP3    H121573   1.677   6.392   3.949
 7203TIP3    H221574   1.693   6.267   4.033
 7204TIP3   OH221575   5.187   6.665   5.520
 7204TIP3    H121576   5.168   6.720   5.444
 7204TIP3    H221577   5.231   6.723   5.582
 7205TIP3   OH221578   0.106   5.782   0.983
 7205TIP3    H121579   0.095   5.862   1.034
 7205TIP3    H221580   0.032   5.727   1.009
 7206TIP3   OH221581   4.798   6.016   3.597
 7206TIP3    H121582   4.860   5.946   3.619
 7206TIP3    H221583   4.732   6.012   3.666
 7207TIP3   OH221584   3.981   3.581   2.186
 7207TIP3    H121585   3.902   3.555   2.140
 7207TIP3    H221586   3.951   3.603   2.274
 7208TIP3   OH221587   5.864   3.197   3.246
 7208TIP3    H121588   5.950   3.211   3.206
 7208TIP3    H221589   5.811   3.161   3.175
 7209TIP3   OH221590   0.826   0.689   0.391
 7209TIP3    H121591   0.921   0.679   0.392
 7209TIP3    H221592   0.811   0.781   0.369
 7210TIP3   OH221593   5.832   3.147   2.765
 7210TIP3    H121594   5.759   3.144   2.827
 7210TIP3    H221595   5.794   3.119   2.681
 7211TIP3   OH221596   5.998   2.613   3.932
 7211TIP3    H121597   6.083   2.614   3.976
 7211TIP3    H221598   5.958   2.530   3.958
 7212TIP3   OH221599   3.354   1.765   4.228
 7212TIP3    H121600   3.264   1.760   4.195
 7212TIP3    H221601   3.375   1.676   4.255
 7213TIP3   OH221602   1.803   4.539   2.603
 7213TIP3    H121603   1.881   4.537   2.658
 7213TIP3    H221604   1.741   4.594   2.651
 7214TIP3   OH221605   2.335   0.316   2.358
 7214TIP3    H121606   2.351   0.337   2.266
 7214TIP3    H221607   2.422   0.298   2.394
 7215TIP3   OH221608   3.204   4.680   2.841
 7215TIP3    H121609   3.120   4.724   2.854
 7215TIP3    H221610   3.186   4.613   2.776
 7216TIP3   OH221611   6.799   0.935   0.155
 7216TIP3    H121612   6.792   0.862   0.216
 7216TIP3    H221613   6.820   1.010   0.210
 7217TIP3   OH221614   3.635   1.017   3.315
 7217TIP3    H121615   3.700   0.965   3.363
 7217TIP3    H221616   3.685   1.063   3.248
 7218TIP3   OH221617   2.713   3.786   5.195
 7218TIP3    H121618   2.659   3.747   5.126
 7218TIP3    H221619   2.659   3.857   5.230
 7219TIP3   OH221620   5.272   5.884   1.999
 7219TIP3    H121621   5.280   5.869   1.904
 7219TIP3    H221622   5.278   5.797   2.038
 7220TIP3   OH221623   1.151   1.748   3.585
 7220TIP3    H121624   1.229   1.694   3.572
 7220TIP3    H221625   1.086   1.688   3.623
 7221TIP3   OH221626   0.242   1.071   5.617
 7221TIP3    H121627   0.305   1.000   5.619
 7221TIP3    H221628   0.236   1.101   5.707
 7222TIP3   OH221629   6.623   3.052   2.108
 7222TIP3    H121630   6.647   3.081   2.020
 7222TIP3    H221631   6.540   3.006   2.097
 7223TIP3   OH221632   6.525   0.084   4.129
 7223TIP3    H121633   6.501   0.142   4.057
 7223TIP3    H221634   6.470   0.112   4.202
 7224TIP3   OH221635   7.004   0.404   1.405
 7224TIP3    H121636   7.040   0.327   1.362
 7224TIP3    H221637   6.917   0.415   1.366
 7225TIP3   OH221638   2.212   2.135   2.986
 7225TIP3    H121639   2.143   2.157   2.924
 7225TIP3    H221640   2.290   2.180   2.952
 7226TIP3   OH221641   4.812   3.205   5.615
 7226TIP3    H121642   4.880   3.149   5.579
 7226TIP3    H221643   4.846   3.234   5.699
 7227TIP3   OH221644   4.565   5.310   0.839
 7227TIP3    H121645   4.639   5.265   0.881
 7227TIP3    H221646   4.545   5.383   0.898
 7228TIP3   OH221647   7.128   3.894   3.526
 7228TIP3    H121648   7.071   3.970   3.515
 7228TIP3    H221649   7.217   3.930   3.523
 7229TIP3   OH221650   3.389   2.126   0.666
 7229TIP3    H121651   3.412   2.037   0.694
 7229TIP3    H221652   3.452   2.147   0.597
 7230TIP3   OH221653   4.103   3.052   4.226
 7230TIP3    H121654   4.067   3.045   4.314
 7230TIP3    H221655   4.197   3.064   4.238
 7231TIP3   OH221656   5.871   1.946   3.639
 7231TIP3    H121657   5.779   1.926   3.620
 7231TIP3    H221658   5.914   1.940   3.553
 7232TIP3   OH221659   3.168   2.873   3.863
 7232TIP3    H121660   3.157   2.968   3.869
 7232TIP3    H221661   3.205   2.848   3.947
 7233TIP3   OH221662   4.359   1.301   5.046
 7233TIP3    H121663   4.416   1.302   5.123
 7233TIP3    H221664   4.419   1.291   4.973
 7234TIP3   OH221665   0.158   5.023   4.985
 7234TIP3    H121666   0.228   4.960   5.003
 7234TIP3    H221667   0.088   4.971   4.947
 7235TIP3   OH221668   4.652   3.636   2.593
 7235TIP3    H121669   4.585   3.691   2.552
 7235TIP3    H221670   4.724   3.636   2.531
 7236TIP3   OH221671   1.883   5.833   5.552
 7236TIP3    H121672   1.877   5.819   5.647
 7236TIP3    H221673   1.868   5.927   5.541
 7237TIP3   OH221674   1.817   1.247   1.087
 7237TIP3    H121675   1.814   1.246   1.183
 7237TIP3    H221676   1.830   1.339   1.064
 7238TIP3   OH221677   1.552   6.491   1.414
 7238TIP3    H121678   1.595   6.519   1.333
 7238TIP3    H221679   1.516   6.571   1.452
 7239TIP3   OH221680   5.617   5.739   1.922
 7239TIP3    H121681   5.540   5.791   1.898
 7239TIP3    H221682   5.643   5.773   2.008
 7240TIP3   OH221683   5.085   4.156   5.147
 7240TIP3    H121684   5.011   4.108   5.109
 7240TIP3    H221685   5.048   4.241   5.171
 7241TIP3   OH221686   6.369   5.636   4.138
 7241TIP3    H121687   6.436   5.689   4.096
 7241TIP3    H221688   6.416   5.562   4.175
 7242TIP3   OH221689   7.121   5.554   0.356
 7242TIP3    H121690   7.119   5.634   0.304
 7242TIP3    H221691   7.061   5.571   0.429
 7243TIP3   OH221692   4.282   0.888   0.066
 7243TIP3    H121693   4.206   0.922   0.019
 7243TIP3    H221694   4.344   0.864  -0.004
 7244TIP3   OH221695   4.089   5.539   0.782
 7244TIP3    H121696   4.040   5.561   0.861
 7244TIP3    H221697   4.062   5.605   0.718
 7245TIP3   OH221698   5.728   4.060   3.066
 7245TIP3    H121699   5.639   4.062   3.103
 7245TIP3    H221700   5.756   4.151   3.067
 7246TIP3   OH221701   7.246   0.650   0.613
 7246TIP3    H121702   7.242   0.675   0.705
 7246TIP3    H221703   7.164   0.604   0.596
 7247TIP3   OH221704   5.983   6.616   1.925
 7247TIP3    H121705   5.914   6.634   1.861
 7247TIP3    H221706   6.064   6.628   1.876
 7248TIP3   OH221707   7.157   2.710   1.173
 7248TIP3    H121708   7.235   2.745   1.130
 7248TIP3    H221709   7.160   2.616   1.156
 7249TIP3   OH221710   6.595   4.507   5.712
 7249TIP3    H121711   6.626   4.521   5.622
 7249TIP3    H221712   6.647   4.567   5.765
 7250TIP3   OH221713   3.276   6.323   0.285
 7250TIP3    H121714   3.215   6.249   0.291
 7250TIP3    H221715   3.357   6.290   0.323
 7251TIP3   OH221716   1.086   4.380   0.354
 7251TIP3    H121717   1.036   4.340   0.425
 7251TIP3    H221718   1.020   4.426   0.302
 7252TIP3   OH221719   0.006   0.769   4.439
 7252TIP3    H121720   0.029   0.787   4.348
 7252TIP3    H221721  -0.021   0.854   4.474
 7253TIP3   OH221722   2.683   1.895   4.322
 7253TIP3    H121723   2.724   1.810   4.339
 7253TIP3    H221724   2.590   1.879   4.333
 7254TIP3   OH221725   2.595   4.398   2.531
 7254TIP3    H121726   2.657   4.325   2.540
 7254TIP3    H221727   2.644   4.466   2.485
 7255TIP3   OH221728   5.729   0.738   5.490
 7255TIP3    H121729   5.761   0.661   5.444
 7255TIP3    H221730   5.646   0.710   5.528
 7256TIP3   OH221731   2.761   0.531   0.481
 7256TIP3    H121732   2.791   0.500   0.396
 7256TIP3    H221733   2.689   0.473   0.504
 7257TIP3   OH221734   6.143   6.092   5.540
 7257TIP3    H121735   6.198   6.130   5.472
 7257TIP3    H221736   6.102   6.016   5.499
 7258TIP3   OH221737   2.775   0.702   0.964
 7258TIP3    H121738   2.686   0.672   0.984
 7258TIP3    H221739   2.832   0.633   0.996
 7259TIP3   OH221740   6.018   0.804   5.298
 7259TIP3    H121741   6.078   0.830   5.228
 7259TIP3    H221742   5.944   0.763   5.253
 7260TIP3   OH221743   2.275   2.902   1.804
 7260TIP3    H121744   2.262   2.934   1.894
 7260TIP3    H221745   2.251   2.810   1.808
 7261TIP3   OH221746   2.681   3.767   1.927
 7261TIP3    H121747   2.775   3.753   1.912
 7261TIP3    H221748   2.672   3.862   1.931
 7262TIP3   OH221749   2.145   5.001   3.642
 7262TIP3    H121750   2.148   5.082   3.693
 7262TIP3    H221751   2.163   5.028   3.552
 7263TIP3   OH221752   3.772   4.344   3.193
 7263TIP3    H121753   3.780   4.410   3.262
 7263TIP3    H221754   3.863   4.328   3.166
 7264TIP3   OH221755   1.216   3.361   2.617
 7264TIP3    H121756   1.174   3.414   2.549
 7264TIP3    H221757   1.259   3.290   2.570
 7265TIP3   OH221758   0.024   1.888   1.473
 7265TIP3    H121759   0.096   1.825   1.475
 7265TIP3    H221760   0.067   1.973   1.466
 7266TIP3   OH221761   3.048   0.142   0.364
 7266TIP3    H121762   3.070   0.109   0.451
 7266TIP3    H221763   3.097   0.085   0.304
 7267TIP3   OH221764   4.358   6.768   4.743
 7267TIP3    H121765   4.438   6.717   4.757
 7267TIP3    H221766   4.390   6.857   4.724
 7268TIP3   OH221767   3.090   0.541   3.558
 7268TIP3    H121768   3.012   0.495   3.590
 7268TIP3    H221769   3.058   0.593   3.484
 7269TIP3   OH221770   5.081   2.006   3.018
 7269TIP3    H121771   5.061   1.913   3.029
 7269TIP3    H221772   5.080   2.042   3.107
 7270TIP3   OH221773   3.391   3.178   2.232
 7270TIP3    H121774   3.356   3.101   2.276
 7270TIP3    H221775   3.365   3.167   2.140
 7271TIP3   OH221776   0.622   5.875   0.207
 7271TIP3    H121777   0.541   5.824   0.212
 7271TIP3    H221778   0.655   5.876   0.296
 7272TIP3   OH221779   3.954   3.505   5.540
 7272TIP3    H121780   4.034   3.512   5.593
 7272TIP3    H221781   3.984   3.471   5.456
 7273TIP3   OH221782   3.197   3.100   2.921
 7273TIP3    H121783   3.281   3.056   2.929
 7273TIP3    H221784   3.163   3.102   3.011
 7274TIP3   OH221785   6.553   3.039   0.641
 7274TIP3    H121786   6.584   3.125   0.613
 7274TIP3    H221787   6.503   3.006   0.566
 7275TIP3   OH221788   1.096   6.059   1.016
 7275TIP3    H121789   1.106   6.003   0.939
 7275TIP3    H221790   1.175   6.112   1.018
 7276TIP3   OH221791   2.037   5.363   5.151
 7276TIP3    H121792   1.953   5.407   5.163
 7276TIP3    H221793   2.063   5.385   5.062
 7277TIP3   OH221794   3.937   0.436   3.669
 7277TIP3    H121795   4.018   0.386   3.660
 7277TIP3    H221796   3.920   0.471   3.581
 7278TIP3   OH221797   6.560   2.412   0.030
 7278TIP3    H121798   6.480   2.365   0.004
 7278TIP3    H221799   6.552   2.422   0.125
 7279TIP3   OH221800   3.906   0.869   2.411
 7279TIP3    H121801   4.001   0.867   2.424
 7279TIP3    H221802   3.888   0.794   2.355
 7280TIP3   OH221803   1.244   1.960   0.865
 7280TIP3    H121804   1.199   2.043   0.853
 7280TIP3    H221805   1.175   1.898   0.888
 7281TIP3   OH221806   1.089   2.638   2.145
 7281TIP3    H121807   1.144   2.565   2.117
 7281TIP3    H221808   1.003   2.618   2.110
 7282TIP3   OH221809   4.217   4.227   4.828
 7282TIP3    H121810   4.131   4.209   4.791
 7282TIP3    H221811   4.260   4.283   4.764
 7283TIP3   OH221812   2.477   4.486   0.315
 7283TIP3    H121813   2.415   4.521   0.252
 7283TIP3    H221814   2.561   4.486   0.270
 7284TIP3   OH221815   4.984   3.658   4.563
 7284TIP3    H121816   4.969   3.566   4.586
 7284TIP3    H221817   5.044   3.654   4.488
 7285TIP3   OH221818   5.621   0.355   0.136
 7285TIP3    H121819   5.617   0.382   0.045
 7285TIP3    H221820   5.645   0.262   0.133
 7286TIP3   OH221821   2.291   3.124   4.870
 7286TIP3    H121822   2.302   3.035   4.904
 7286TIP3    H221823   2.375   3.167   4.885
 7287TIP3   OH221824   2.216   2.790   0.262
 7287TIP3    H121825   2.245   2.739   0.337
 7287TIP3    H221826   2.214   2.880   0.293
 7288TIP3   OH221827   3.920   5.863   2.248
 7288TIP3    H121828   3.956   5.775   2.240
 7288TIP3    H221829   3.838   5.851   2.296
 7289TIP3   OH221830   3.459   3.659   5.391
 7289TIP3    H121831   3.487   3.574   5.358
 7289TIP3    H221832   3.430   3.707   5.314
 7290TIP3   OH221833   5.947   5.303   0.729
 7290TIP3    H121834   5.895   5.379   0.755
 7290TIP3    H221835   5.933   5.296   0.634
 7291TIP3   OH221836   1.711   4.045   1.274
 7291TIP3    H121837   1.671   4.083   1.353
 7291TIP3    H221838   1.780   3.988   1.307
 7292TIP3   OH221839   1.472   4.945   1.963
 7292TIP3    H121840   1.542   4.895   2.006
 7292TIP3    H221841   1.519   5.009   1.909
 7293TIP3   OH221842   4.025   1.613   2.595
 7293TIP3    H121843   3.933   1.637   2.582
 7293TIP3    H221844   4.073   1.688   2.560
 7294TIP3   OH221845   1.212   5.333   3.507
 7294TIP3    H121846   1.121   5.314   3.530
 7294TIP3    H221847   1.232   5.270   3.438
 7295TIP3   OH221848   3.550   6.400   2.888
 7295TIP3    H121849   3.482   6.337   2.864
 7295TIP3    H221850   3.555   6.460   2.814
 7296TIP3   OH221851   1.436   1.896   0.674
 7296TIP3    H121852   1.378   1.912   0.748
 7296TIP3    H221853   1.493   1.825   0.702
 7297TIP3   OH221854   6.550   1.623   2.317
 7297TIP3    H121855   6.550   1.588   2.406
 7297TIP3    H221856   6.567   1.717   2.329
 7298TIP3   OH221857   2.775   3.042   3.748
 7298TIP3    H121858   2.837   3.024   3.678
 7298TIP3    H221859   2.716   3.108   3.712
 7299TIP3   OH221860   7.248   5.007   5.901
 7299TIP3    H121861   7.155   5.029   5.892
 7299TIP3    H221862   7.289   5.049   5.825
 7300TIP3   OH221863   0.568   1.504   4.147
 7300TIP3    H121864   0.640   1.556   4.111
 7300TIP3    H221865   0.492   1.530   4.096
 7301TIP3   OH221866   2.688   2.156   0.765
 7301TIP3    H121867   2.690   2.246   0.798
 7301TIP3    H221868   2.642   2.107   0.833
 7302TIP3   OH221869   0.514   4.007   3.758
 7302TIP3    H121870   0.535   4.027   3.666
 7302TIP3    H221871   0.421   3.984   3.757
 7303TIP3   OH221872   0.803   6.701   0.842
 7303TIP3    H121873   0.882   6.715   0.894
 7303TIP3    H221874   0.740   6.665   0.903
 7304TIP3   OH221875   6.075   0.822   4.988
 7304TIP3    H121876   5.983   0.820   4.961
 7304TIP3    H221877   6.107   0.734   4.970
 7305TIP3   OH221878   1.485   5.369   3.113
 7305TIP3    H121879   1.534   5.299   3.070
 7305TIP3    H221880   1.461   5.429   3.042
 7306TIP3   OH221881   3.624   1.789   1.876
 7306TIP3    H121882   3.612   1.842   1.798
 7306TIP3    H221883   3.553   1.724   1.872
 7307TIP3   OH221884   3.985   0.655   3.919
 7307TIP3    H121885   3.950   0.654   4.008
 7307TIP3    H221886   4.071   0.614   3.926
 7308TIP3   OH221887   0.980   1.502   3.600
 7308TIP3    H121888   0.997   1.420   3.646
 7308TIP3    H221889   0.987   1.479   3.507
 7309TIP3   OH221890   4.221   5.061   4.944
 7309TIP3    H121891   4.314   5.067   4.968
 7309TIP3    H221892   4.181   5.137   4.986
 7310TIP3   OH221893   3.005   6.451   2.224
 7310TIP3    H121894   3.071   6.519   2.218
 7310TIP3    H221895   2.995   6.419   2.135
 7311TIP3   OH221896   0.651   2.645   2.374
 7311TIP3    H121897   0.669   2.680   2.286
 7311TIP3    H221898   0.649   2.722   2.430
 7312TIP3   OH221899   2.328   2.888   2.609
 7312TIP3    H121900   2.374   2.923   2.532
 7312TIP3    H221901   2.235   2.905   2.591
 7313TIP3   OH221902   3.204   0.266   5.261
 7313TIP3    H121903   3.138   0.287   5.327
 7313TIP3    H221904   3.245   0.185   5.293
 7314TIP3   OH221905   4.160   4.476   5.423
 7314TIP3    H121906   4.079   4.480   5.373
 7314TIP3    H221907   4.153   4.547   5.487
 7315TIP3   OH221908   2.178   2.068   5.221
 7315TIP3    H121909   2.188   1.981   5.183
 7315TIP3    H221910   2.179   2.127   5.146
 7316TIP3   OH221911   1.972   0.298   3.769
 7316TIP3    H121912   1.995   0.218   3.817
 7316TIP3    H221913   1.984   0.274   3.677
 7317TIP3   OH221914   5.652   0.244   4.557
 7317TIP3    H121915   5.594   0.168   4.563
 7317TIP3    H221916   5.735   0.214   4.593
 7318TIP3   OH221917   5.988   2.483   0.777
 7318TIP3    H121918   5.923   2.445   0.836
 7318TIP3    H221919   5.959   2.456   0.689
 7319TIP3   OH221920   4.823   2.156   0.407
 7319TIP3    H121921   4.730   2.176   0.393
 7319TIP3    H221922   4.856   2.138   0.319
 7320TIP3   OH221923   5.929   4.090   1.873
 7320TIP3    H121924   5.911   4.067   1.964
 7320TIP3    H221925   5.844   4.114   1.837
 7321TIP3   OH221926   4.323   3.445   2.472
 7321TIP3    H121927   4.256   3.514   2.470
 7321TIP3    H221928   4.383   3.468   2.401
 7322TIP3   OH221929   1.075   3.376   5.858
 7322TIP3    H121930   1.165   3.343   5.853
 7322TIP3    H221931   1.032   3.339   5.782
 7323TIP3   OH221932   4.488   6.039   3.336
 7323TIP3    H121933   4.440   5.973   3.385
 7323TIP3    H221934   4.481   6.119   3.388
 7324TIP3   OH221935   4.115   6.697   3.709
 7324TIP3    H121936   4.120   6.791   3.724
 7324TIP3    H221937   4.091   6.660   3.795
 7325TIP3   OH221938   5.357   5.812   3.811
 7325TIP3    H121939   5.388   5.797   3.900
 7325TIP3    H221940   5.268   5.777   3.811
 7326TIP3   OH221941   1.986   3.030   0.134
 7326TIP3    H121942   2.034   2.962   0.179
 7326TIP3    H221943   2.014   3.023   0.042
 7327TIP3   OH221944   3.956   0.099   0.672
 7327TIP3    H121945   3.962   0.003   0.680
 7327TIP3    H221946   3.876   0.114   0.623
 7328TIP3   OH221947   4.393   2.793   1.190
 7328TIP3    H121948   4.394   2.698   1.185
 7328TIP3    H221949   4.486   2.818   1.190
 7329TIP3   OH221950   1.561   2.604   2.588
 7329TIP3    H121951   1.611   2.589   2.508
 7329TIP3    H221952   1.471   2.614   2.558
 7330TIP3   OH221953   0.484   1.502   3.140
 7330TIP3    H121954   0.467   1.484   3.048
 7330TIP3    H221955   0.410   1.461   3.186
 7331TIP3   OH221956   0.571   1.288   5.889
 7331TIP3    H121957   0.654   1.274   5.936
 7331TIP3    H221958   0.597   1.332   5.808
 7332TIP3   OH221959   1.357   0.342   1.109
 7332TIP3    H121960   1.402   0.312   1.188
 7332TIP3    H221961   1.387   0.283   1.040
 7333TIP3   OH221962   2.190   3.917   1.181
 7333TIP3    H121963   2.139   3.937   1.103
 7333TIP3    H221964   2.192   3.821   1.184
 7334TIP3   OH221965   4.414   1.936   2.330
 7334TIP3    H121966   4.405   1.879   2.407
 7334TIP3    H221967   4.505   1.965   2.333
 7335TIP3   OH221968   4.662   0.138   0.475
 7335TIP3    H121969   4.661   0.057   0.423
 7335TIP3    H221970   4.755   0.159   0.484
 7336TIP3   OH221971   3.005   5.511   1.640
 7336TIP3    H121972   3.004   5.462   1.722
 7336TIP3    H221973   2.912   5.519   1.617
 7337TIP3   OH221974   6.731   0.103   3.887
 7337TIP3    H121975   6.682   0.078   3.966
 7337TIP3    H221976   6.664   0.135   3.827
 7338TIP3   OH221977   6.591   6.341   2.527
 7338TIP3    H121978   6.546   6.274   2.579
 7338TIP3    H221979   6.603   6.300   2.441
 7339TIP3   OH221980   6.804   6.555   0.659
 7339TIP3    H121981   6.787   6.468   0.621
 7339TIP3    H221982   6.851   6.601   0.589
 7340TIP3   OH221983   6.431   0.925   1.409
 7340TIP3    H121984   6.372   0.942   1.483
 7340TIP3    H221985   6.430   0.830   1.398
 7341TIP3   OH221986   6.766   3.541   4.187
 7341TIP3    H121987   6.851   3.581   4.204
 7341TIP3    H221988   6.702   3.605   4.218
 7342TIP3   OH221989   6.207   6.235   1.362
 7342TIP3    H121990   6.215   6.282   1.445
 7342TIP3    H221991   6.251   6.291   1.298
 7343TIP3   OH221992   1.867   2.035   0.314
 7343TIP3    H121993   1.848   2.126   0.292
 7343TIP3    H221994   1.817   2.018   0.394
 7344TIP3   OH221995   0.530   0.948   1.965
 7344TIP3    H121996   0.622   0.928   1.952
 7344TIP3    H221997   0.525   0.979   2.056
 7345TIP3   OH221998   0.611   5.947   3.294
 7345TIP3    H121999   0.674   6.010   3.259
 7345TIP3    H222000   0.549   6.000   3.345
 7346TIP3   OH222001   0.971   1.201   2.128
 7346TIP3    H122002   1.049   1.147   2.113
 7346TIP3    H222003   0.927   1.204   2.043
 7347TIP3   OH222004   1.040   2.870   0.321
 7347TIP3    H122005   1.022   2.941   0.259
 7347TIP3    H222006   1.105   2.815   0.278
 7348TIP3   OH222007   5.655   0.037   3.183
 7348TIP3    H122008   5.636   0.099   3.253
 7348TIP3    H222009   5.722  -0.020   3.219
 7349TIP3   OH222010   2.717   1.628   2.889
 7349TIP3    H122011   2.656   1.701   2.882
 7349TIP3    H222012   2.679   1.559   2.834
 7350TIP3   OH222013   3.033   2.823   2.102
 7350TIP3    H122014   2.992   2.887   2.043
 7350TIP3    H222015   2.988   2.741   2.082
 7351TIP3   OH222016   2.016   0.645   3.622
 7351TIP3    H122017   2.035   0.671   3.532
 7351TIP3    H222018   2.055   0.713   3.676
 7352TIP3   OH222019   0.914   5.996   1.395
 7352TIP3    H122020   0.823   6.020   1.405
 7352TIP3    H222021   0.947   6.054   1.326
 7353TIP3   OH222022   4.083   6.006   4.888
 7353TIP3    H122023   4.148   6.055   4.940
 7353TIP3    H222024   4.130   5.928   4.858
 7354TIP3   OH222025   5.355   0.997   2.502
 7354TIP3    H122026   5.393   0.910   2.488
 7354TIP3    H222027   5.409   1.036   2.571
 7355TIP3   OH222028   5.827   3.020   0.322
 7355TIP3    H122029   5.858   3.110   0.328
 7355TIP3    H222030   5.827   2.988   0.412
 7356TIP3   OH222031   5.779   0.780   0.612
 7356TIP3    H122032   5.684   0.772   0.622
 7356TIP3    H222033   5.811   0.690   0.617
 7357TIP3   OH222034   5.862   1.913   5.557
 7357TIP3    H122035   5.858   2.004   5.587
 7357TIP3    H222036   5.917   1.916   5.478
 7358TIP3   OH222037   1.127   0.800   1.492
 7358TIP3    H122038   1.082   0.788   1.409
 7358TIP3    H222039   1.195   0.866   1.475
 7359TIP3   OH222040   5.338   1.655   2.847
 7359TIP3    H122041   5.317   1.577   2.796
 7359TIP3    H222042   5.270   1.718   2.823
 7360TIP3   OH222043   6.276   6.418   1.113
 7360TIP3    H122044   6.346   6.442   1.173
 7360TIP3    H222045   6.291   6.473   1.036
 7361TIP3   OH222046   1.666   5.100   5.601
 7361TIP3    H122047   1.749   5.066   5.568
 7361TIP3    H222048   1.656   5.059   5.687
 7362TIP3   OH222049   1.856   2.468   1.085
 7362TIP3    H122050   1.776   2.442   1.038
 7362TIP3    H222051   1.865   2.562   1.066
 7363TIP3   OH222052   2.283   6.217   4.595
 7363TIP3    H122053   2.206   6.239   4.648
 7363TIP3    H222054   2.250   6.214   4.506
 7364TIP3   OH222055   3.499   2.615   1.000
 7364TIP3    H122056   3.527   2.525   1.017
 7364TIP3    H222057   3.414   2.605   0.957
 7365TIP3   OH222058   1.794   3.500   5.006
 7365TIP3    H122059   1.890   3.506   5.006
 7365TIP3    H222060   1.776   3.412   5.040
 7366TIP3   OH222061   7.236   5.467   0.035
 7366TIP3    H122062   7.144   5.444   0.023
 7366TIP3    H222063   7.236   5.527   0.109
 7367TIP3   OH222064   1.130   0.963   2.193
 7367TIP3    H122065   1.195   1.007   2.249
 7367TIP3    H222066   1.050   0.963   2.246
 7368TIP3   OH222067   0.387   1.755   5.327
 7368TIP3    H122068   0.482   1.746   5.330
 7368TIP3    H222069   0.354   1.667   5.339
 7369TIP3   OH222070   2.242   1.774   2.264
 7369TIP3    H122071   2.237   1.791   2.358
 7369TIP3    H222072   2.333   1.791   2.241
 7370TIP3   OH222073   1.293   3.729   2.762
 7370TIP3    H122074   1.257   3.769   2.683
 7370TIP3    H222075   1.367   3.785   2.786
 7371TIP3   OH222076   4.964   5.736   0.981
 7371TIP3    H122077   5.031   5.669   0.967
 7371TIP3    H222078   4.955   5.779   0.896
 7372TIP3   OH222079   2.804   0.678   4.601
 7372TIP3    H122080   2.726   0.703   4.651
 7372TIP3    H222081   2.801   0.583   4.596
 7373TIP3   OH222082   3.706   4.246   4.275
 7373TIP3    H122083   3.654   4.191   4.333
 7373TIP3    H222084   3.693   4.209   4.188
 7374TIP3   OH222085   2.241   0.556   0.448
 7374TIP3    H122086   2.306   0.617   0.484
 7374TIP3    H222087   2.265   0.547   0.356
 7375TIP3   OH222088   6.643   3.081   2.363
 7375TIP3    H122089   6.648   3.070   2.268
 7375TIP3    H222090   6.633   3.175   2.376
 7376TIP3   OH222091   4.578   5.423   4.260
 7376TIP3    H122092   4.541   5.368   4.329
 7376TIP3    H222093   4.630   5.362   4.207
 7377TIP3   OH222094   2.941   5.219   5.826
 7377TIP3    H122095   2.854   5.255   5.839
 7377TIP3    H222096   2.946   5.200   5.733
 7378TIP3   OH222097   2.174   0.409   5.503
 7378TIP3    H122098   2.221   0.348   5.446
 7378TIP3    H222099   2.197   0.496   5.469
 7379TIP3   OH222100   1.948   3.376   2.871
 7379TIP3    H122101   2.012   3.311   2.844
 7379TIP3    H222102   1.975   3.456   2.826
 7380TIP3   OH222103   5.153   4.219   0.824
 7380TIP3    H122104   5.057   4.221   0.823
 7380TIP3    H222105   5.177   4.181   0.740
 7381TIP3   OH222106   2.698   4.872   3.927
 7381TIP3    H122107   2.698   4.777   3.916
 7381TIP3    H222108   2.646   4.904   3.854
 7382TIP3   OH222109   1.399   6.276   1.040
 7382TIP3    H122110   1.395   6.198   0.985
 7382TIP3    H222111   1.478   6.265   1.093
 7383TIP3   OH222112   6.913   3.701   1.637
 7383TIP3    H122113   6.867   3.775   1.599
 7383TIP3    H222114   6.991   3.690   1.582
 7384TIP3   OH222115   6.864   3.541   1.898
 7384TIP3    H122116   6.770   3.552   1.909
 7384TIP3    H222117   6.886   3.595   1.822
 7385TIP3   OH222118   3.790   5.035   0.095
 7385TIP3    H122119   3.733   4.959   0.095
 7385TIP3    H222120   3.870   5.005   0.051
 7386TIP3   OH222121   4.661   6.535   0.700
 7386TIP3    H122122   4.752   6.515   0.722
 7386TIP3    H222123   4.666   6.602   0.632
 7387TIP3   OH222124   3.431   4.790   0.661
 7387TIP3    H122125   3.495   4.860   0.671
 7387TIP3    H222126   3.376   4.796   0.739
 7388TIP3   OH222127   1.593   6.018   3.181
 7388TIP3    H122128   1.657   5.949   3.200
 7388TIP3    H222129   1.516   5.971   3.150
 7389TIP3   OH222130   2.694   4.645   2.405
 7389TIP3    H122131   2.621   4.706   2.406
 7389TIP3    H222132   2.772   4.700   2.407
 7390TIP3   OH222133   3.257   1.894   1.617
 7390TIP3    H122134   3.252   1.977   1.568
 7390TIP3    H222135   3.322   1.910   1.685
 7391TIP3   OH222136   4.614   5.689   1.552
 7391TIP3    H122137   4.670   5.619   1.518
 7391TIP3    H222138   4.571   5.651   1.628
 7392TIP3   OH222139   1.638   2.516   5.150
 7392TIP3    H122140   1.670   2.600   5.118
 7392TIP3    H222141   1.550   2.509   5.115
 7393TIP3   OH222142   3.099   1.063   5.620
 7393TIP3    H122143   3.044   0.992   5.587
 7393TIP3    H222144   3.182   1.020   5.644
 7394TIP3   OH222145   7.069   5.306   3.014
 7394TIP3    H122146   6.997   5.254   2.978
 7394TIP3    H222147   7.071   5.385   2.959
 7395TIP3   OH222148   2.505   2.714   2.849
 7395TIP3    H122149   2.566   2.765   2.904
 7395TIP3    H222150   2.425   2.766   2.847
 7396TIP3   OH222151   1.933   5.369   4.116
 7396TIP3    H122152   1.964   5.356   4.026
 7396TIP3    H222153   2.008   5.406   4.162
 7397TIP3   OH222154   1.724   3.296   3.371
 7397TIP3    H122155   1.731   3.375   3.317
 7397TIP3    H222156   1.721   3.224   3.307
 7398TIP3   OH222157   0.927   3.528   2.872
 7398TIP3    H122158   0.900   3.606   2.824
 7398TIP3    H222159   1.023   3.532   2.870
 7399TIP3   OH222160   6.957   4.428   2.781
 7399TIP3    H122161   6.868   4.446   2.812
 7399TIP3    H222162   6.994   4.369   2.847
 7400TIP3   OH222163   7.252   3.330   1.307
 7400TIP3    H122164   7.218   3.316   1.396
 7400TIP3    H222165   7.340   3.365   1.321
 7401TIP3   OH222166   4.643   0.283   4.285
 7401TIP3    H122167   4.710   0.227   4.325
 7401TIP3    H222168   4.562   0.258   4.328
 7402TIP3   OH222169   1.433   0.874   5.315
 7402TIP3    H122170   1.386   0.952   5.345
 7402TIP3    H222171   1.365   0.809   5.299
 7403TIP3   OH222172   0.880   6.115   0.831
 7403TIP3    H122173   0.860   6.029   0.793
 7403TIP3    H222174   0.924   6.096   0.914
 7404TIP3   OH222175   6.365   5.604   4.594
 7404TIP3    H122176   6.287   5.596   4.650
 7404TIP3    H222177   6.359   5.529   4.535
 7405TIP3   OH222178   0.450   6.227   1.924
 7405TIP3    H122179   0.372   6.212   1.977
 7405TIP3    H222180   0.472   6.318   1.939
 7406TIP3   OH222181   3.673   3.240   3.035
 7406TIP3    H122182   3.640   3.202   3.116
 7406TIP3    H222183   3.736   3.176   3.001
 7407TIP3   OH222184   2.784   0.049   0.140
 7407TIP3    H122185   2.876   0.040   0.164
 7407TIP3    H222186   2.785   0.065   0.046
 7408TIP3   OH222187   1.265   5.344   0.262
 7408TIP3    H122188   1.254   5.274   0.326
 7408TIP3    H222189   1.217   5.313   0.185
 7409TIP3   OH222190   2.040   2.113   5.684
 7409TIP3    H122191   2.043   2.166   5.604
 7409TIP3    H222192   2.061   2.175   5.754
 7410TIP3   OH222193   5.909   1.388   1.707
 7410TIP3    H122194   5.934   1.310   1.657
 7410TIP3    H222195   5.865   1.353   1.784
 7411TIP3   OH222196   6.565   5.775   0.349
 7411TIP3    H122197   6.518   5.858   0.361
 7411TIP3    H222198   6.652   5.791   0.386
 7412TIP3   OH222199   3.361   2.840   1.656
 7412TIP3    H122200   3.450   2.857   1.688
 7412TIP3    H222201   3.366   2.854   1.562
 7413TIP3   OH222202   1.030   4.089   0.413
 7413TIP3    H122203   0.944   4.128   0.395
 7413TIP3    H222204   1.079   4.104   0.332
 7414TIP3   OH222205   4.151   6.194   0.524
 7414TIP3    H122206   4.153   6.108   0.566
 7414TIP3    H222207   4.175   6.255   0.594
 7415TIP3   OH222208   6.085   4.729   4.140
 7415TIP3    H122209   6.062   4.749   4.049
 7415TIP3    H222210   6.096   4.633   4.141
 7416TIP3   OH222211   6.950   5.475   0.575
 7416TIP3    H122212   6.958   5.380   0.573
 7416TIP3    H222213   6.867   5.492   0.619
 7417TIP3   OH222214   1.548   2.412   2.260
 7417TIP3    H122215   1.633   2.444   2.289
 7417TIP3    H222216   1.567   2.360   2.182
 7418TIP3   OH222217   4.508   5.324   1.496
 7418TIP3    H122218   4.594   5.363   1.506
 7418TIP3    H222219   4.449   5.398   1.481
 7419TIP3   OH222220   3.260   6.476   1.270
 7419TIP3    H122221   3.280   6.444   1.358
 7419TIP3    H222222   3.339   6.456   1.219
 7420TIP3   OH222223   3.859   3.646   1.060
 7420TIP3    H122224   3.933   3.606   1.107
 7420TIP3    H222225   3.801   3.677   1.130
 7421TIP3   OH222226   5.011   3.694   3.846
 7421TIP3    H122227   5.066   3.772   3.841
 7421TIP3    H222228   5.057   3.636   3.906
 7422TIP3   OH222229   7.064   1.307   0.467
 7422TIP3    H122230   7.018   1.315   0.550
 7422TIP3    H222231   7.150   1.274   0.490
 7423TIP3   OH222232   5.017   6.758   1.461
 7423TIP3    H122233   5.056   6.790   1.380
 7423TIP3    H222234   4.962   6.830   1.491
 7424TIP3   OH222235   1.266   0.458   3.300
 7424TIP3    H122236   1.285   0.364   3.294
 7424TIP3    H222237   1.280   0.491   3.211
 7425TIP3   OH222238   1.449   3.991   2.847
 7425TIP3    H122239   1.389   4.057   2.811
 7425TIP3    H222240   1.423   3.983   2.939
 7426TIP3   OH222241   6.302   2.503   3.254
 7426TIP3    H122242   6.215   2.464   3.246
 7426TIP3    H222243   6.296   2.561   3.330
 7427TIP3   OH222244   4.900   6.255   5.612
 7427TIP3    H122245   4.893   6.264   5.707
 7427TIP3    H222246   4.923   6.343   5.581
 7428TIP3   OH222247   1.781   1.058   0.781
 7428TIP3    H122248   1.701   1.011   0.806
 7428TIP3    H222249   1.840   0.990   0.750
 7429TIP3   OH222250   4.955   6.104   1.710
 7429TIP3    H122251   4.882   6.150   1.669
 7429TIP3    H222252   5.015   6.173   1.737
 7430TIP3   OH222253   1.206   2.910   4.939
 7430TIP3    H122254   1.209   2.814   4.930
 7430TIP3    H222255   1.259   2.942   4.866
 7431TIP3   OH222256   7.029   6.573   3.504
 7431TIP3    H122257   6.988   6.598   3.587
 7431TIP3    H222258   7.122   6.595   3.515
 7432TIP3   OH222259   2.576   0.231   1.857
 7432TIP3    H122260   2.485   0.254   1.843
 7432TIP3    H222261   2.574   0.139   1.884
 7433TIP3   OH222262   6.922   5.991   2.883
 7433TIP3    H122263   6.929   6.020   2.973
 7433TIP3    H222264   6.886   6.066   2.836
 7434TIP3   OH222265   0.771   4.828   4.858
 7434TIP3    H122266   0.798   4.761   4.922
 7434TIP3    H222267   0.744   4.778   4.781
 7435TIP3   OH222268   0.989   2.723   1.125
 7435TIP3    H122269   1.082   2.746   1.131
 7435TIP3    H222270   0.974   2.667   1.202
 7436TIP3   OH222271   6.996   3.654   4.266
 7436TIP3    H122272   7.035   3.661   4.354
 7436TIP3    H222273   6.987   3.745   4.237
 7437TIP3   OH222274   6.411   1.063   3.143
 7437TIP3    H122275   6.491   1.037   3.097
 7437TIP3    H222276   6.419   1.023   3.230
 7438TIP3   OH222277   2.724   3.923   2.752
 7438TIP3    H122278   2.641   3.902   2.711
 7438TIP3    H222279   2.782   3.851   2.727
 7439TIP3   OH222280   4.510   4.241   2.610
 7439TIP3    H122281   4.530   4.259   2.518
 7439TIP3    H222282   4.579   4.287   2.658
 7440TIP3   OH222283   6.221   2.292   2.820
 7440TIP3    H122284   6.218   2.379   2.779
 7440TIP3    H222285   6.314   2.273   2.829
 7441TIP3   OH222286   0.510   6.043   2.311
 7441TIP3    H122287   0.450   6.100   2.359
 7441TIP3    H222288   0.454   5.971   2.279
 7442TIP3   OH222289   4.966   5.103   5.681
 7442TIP3    H122290   5.020   5.126   5.757
 7442TIP3    H222291   5.006   5.023   5.647
 7443TIP3   OH222292   5.279   3.974   1.443
 7443TIP3    H122293   5.289   4.068   1.454
 7443TIP3    H222294   5.186   3.961   1.426
 7444TIP3   OH222295   2.958   2.807   2.470
 7444TIP3    H122296   3.030   2.812   2.532
 7444TIP3    H222297   2.883   2.843   2.518
 7445TIP3   OH222298   0.683   6.753   5.147
 7445TIP3    H122299   0.733   6.747   5.066
 7445TIP3    H222300   0.745   6.785   5.212
 7446TIP3   OH222301   3.534   0.666   4.464
 7446TIP3    H122302   3.494   0.646   4.549
 7446TIP3    H222303   3.459   0.670   4.404
 7447TIP3   OH222304   3.001   1.175   2.844
 7447TIP3    H122305   2.938   1.219   2.900
 7447TIP3    H222306   2.969   1.085   2.838
 7448TIP3   OH222307   6.150   4.802   1.156
 7448TIP3    H122308   6.109   4.873   1.107
 7448TIP3    H222309   6.088   4.784   1.227
 7449TIP3   OH222310   5.009   1.904   4.417
 7449TIP3    H122311   5.097   1.905   4.378
 7449TIP3    H222312   4.970   1.823   4.385
 7450TIP3   OH222313   1.011   0.060   3.915
 7450TIP3    H122314   1.045  -0.017   3.962
 7450TIP3    H222315   0.933   0.085   3.964
 7451TIP3   OH222316   0.254   0.864   1.989
 7451TIP3    H122317   0.348   0.883   1.983
 7451TIP3    H222318   0.250   0.769   1.996
 7452TIP3   OH222319   5.959   4.870   1.661
 7452TIP3    H122320   5.882   4.921   1.637
 7452TIP3    H222321   5.936   4.829   1.745
 7453TIP3   OH222322   3.955   6.450   0.989
 7453TIP3    H122323   3.902   6.494   1.055
 7453TIP3    H222324   4.011   6.391   1.040
 7454TIP3   OH222325   3.102   1.298   0.717
 7454TIP3    H122326   3.143   1.262   0.796
 7454TIP3    H222327   3.169   1.289   0.649
 7455TIP3   OH222328   5.332   2.238   3.171
 7455TIP3    H122329   5.254   2.252   3.117
 7455TIP3    H222330   5.398   2.296   3.133
 7456TIP3   OH222331   4.022   0.099   1.799
 7456TIP3    H122332   4.093   0.153   1.833
 7456TIP3    H222333   4.043   0.010   1.827
 7457TIP3   OH222334   2.079   3.599   0.976
 7457TIP3    H122335   2.166   3.628   1.003
 7457TIP3    H222336   2.025   3.607   1.054
 7458TIP3   OH222337   6.545   3.476   2.619
 7458TIP3    H122338   6.460   3.461   2.661
 7458TIP3    H222339   6.606   3.489   2.692
 7459TIP3   OH222340   4.314   4.621   3.429
 7459TIP3    H122341   4.336   4.620   3.522
 7459TIP3    H222342   4.387   4.667   3.387
 7460TIP3   OH222343   2.746   4.814   5.727
 7460TIP3    H122344   2.802   4.792   5.653
 7460TIP3    H222345   2.667   4.761   5.713
 7461TIP3   OH222346   2.240   2.511   4.831
 7461TIP3    H122347   2.154   2.540   4.862
 7461TIP3    H222348   2.222   2.432   4.780
 7462TIP3   OH222349   6.984   5.066   4.196
 7462TIP3    H122350   6.941   5.090   4.278
 7462TIP3    H222351   7.056   5.129   4.187
 7463TIP3   OH222352   4.852   3.947   3.831
 7463TIP3    H122353   4.899   3.874   3.871
 7463TIP3    H222354   4.871   3.939   3.737
 7464TIP3   OH222355   5.423   0.599   2.169
 7464TIP3    H122356   5.366   0.672   2.194
 7464TIP3    H222357   5.431   0.547   2.250
 7465TIP3   OH222358   2.321   4.104   3.635
 7465TIP3    H122359   2.235   4.063   3.640
 7465TIP3    H222360   2.304   4.191   3.601
 7466TIP3   OH222361   0.056   4.920   4.073
 7466TIP3    H122362   0.058   5.005   4.115
 7466TIP3    H222363   0.019   4.861   4.138
 7467TIP3   OH222364   7.087   1.574   1.689
 7467TIP3    H122365   7.026   1.620   1.747
 7467TIP3    H222366   7.165   1.561   1.743
 7468TIP3   OH222367   1.305   6.446   2.098
 7468TIP3    H122368   1.380   6.388   2.106
 7468TIP3    H222369   1.264   6.422   2.014
 7469TIP3   OH222370   7.050   5.368   1.229
 7469TIP3    H122371   7.077   5.276   1.231
 7469TIP3    H222372   7.005   5.381   1.312
 7470TIP3   OH222373   4.983   4.569   1.591
 7470TIP3    H122374   5.047   4.531   1.650
 7470TIP3    H222375   5.011   4.541   1.504
 7471TIP3   OH222376   6.022   5.749   1.108
 7471TIP3    H122377   6.038   5.723   1.198
 7471TIP3    H222378   5.956   5.687   1.076
 7472TIP3   OH222379   6.107   2.026   2.439
 7472TIP3    H122380   6.106   1.971   2.517
 7472TIP3    H222381   6.188   2.002   2.393
 7473TIP3   OH222382   5.595   1.815   5.528
 7473TIP3    H122383   5.562   1.905   5.529
 7473TIP3    H222384   5.688   1.824   5.550
 7474TIP3   OH222385   4.458   4.551   4.453
 7474TIP3    H122386   4.462   4.646   4.444
 7474TIP3    H222387   4.387   4.524   4.395
 7475TIP3   OH222388   2.055   5.903   4.328
 7475TIP3    H122389   2.131   5.881   4.381
 7475TIP3    H222390   2.051   5.835   4.261
 7476TIP3   OH222391   1.821   0.947   1.987
 7476TIP3    H122392   1.831   1.033   2.026
 7476TIP3    H222393   1.777   0.895   2.055
 7477TIP3   OH222394   2.837   3.809   1.519
 7477TIP3    H122395   2.931   3.800   1.539
 7477TIP3    H222396   2.834   3.867   1.444
 7478TIP3   OH222397   6.339   4.070   5.715
 7478TIP3    H122398   6.263   4.061   5.773
 7478TIP3    H222399   6.414   4.048   5.770
 7479TIP3   OH222400   6.522   4.010   4.352
 7479TIP3    H122401   6.438   4.041   4.385
 7479TIP3    H222402   6.567   3.974   4.428
 7480TIP3   OH222403   0.207  -0.046   5.307
 7480TIP3    H122404   0.237   0.045   5.311
 7480TIP3    H222405   0.215  -0.070   5.215
 7481TIP3   OH222406   6.601   5.154   3.519
 7481TIP3    H122407   6.656   5.223   3.557
 7481TIP3    H222408   6.575   5.100   3.594
 7482TIP3   OH222409   1.109   6.258   3.585
 7482TIP3    H122410   1.076   6.240   3.673
 7482TIP3    H222411   1.044   6.220   3.527
 7483TIP3   OH222412   1.923   0.071   3.899
 7483TIP3    H122413   1.980   0.120   3.958
 7483TIP3    H222414   1.834   0.096   3.927
 7484TIP3   OH222415   4.957   2.639   4.914
 7484TIP3    H122416   5.033   2.694   4.896
 7484TIP3    H222417   4.923   2.614   4.828
 7485TIP3   OH222418   6.961   5.627   2.471
 7485TIP3    H122419   6.964   5.716   2.438
 7485TIP3    H222420   7.053   5.601   2.477
 7486TIP3   OH222421   2.610   2.534   1.162
 7486TIP3    H122422   2.692   2.584   1.161
 7486TIP3    H222423   2.617   2.478   1.240
 7487TIP3   OH222424   0.161   0.156   0.243
 7487TIP3    H122425   0.130   0.073   0.209
 7487TIP3    H222426   0.090   0.218   0.225
 7488TIP3   OH222427   0.238   4.241   1.359
 7488TIP3    H122428   0.291   4.315   1.389
 7488TIP3    H222429   0.257   4.234   1.265
 7489TIP3   OH222430   2.843   1.795   2.012
 7489TIP3    H122431   2.841   1.807   2.107
 7489TIP3    H222432   2.796   1.870   1.977
 7490TIP3   OH222433   1.588   0.177   4.885
 7490TIP3    H122434   1.671   0.224   4.878
 7490TIP3    H222435   1.530   0.237   4.930
 7491TIP3   OH222436   7.179   1.873   2.600
 7491TIP3    H122437   7.246   1.834   2.656
 7491TIP3    H222438   7.117   1.913   2.661
 7492TIP3   OH222439   0.321   2.990   1.858
 7492TIP3    H122440   0.406   2.945   1.853
 7492TIP3    H222441   0.312   3.014   1.950
 7493TIP3   OH222442   3.666   2.339   4.135
 7493TIP3    H122443   3.628   2.252   4.141
 7493TIP3    H222444   3.592   2.399   4.145
 7494TIP3   OH222445   3.132   3.389   3.069
 7494TIP3    H122446   3.224   3.376   3.048
 7494TIP3    H222447   3.106   3.309   3.116
 7495TIP3   OH222448   2.699   1.653   1.551
 7495TIP3    H122449   2.699   1.559   1.569
 7495TIP3    H222450   2.790   1.674   1.533
 7496TIP3   OH222451   2.290   4.422   1.197
 7496TIP3    H122452   2.283   4.326   1.195
 7496TIP3    H222453   2.243   4.448   1.276
 7497TIP3   OH222454   3.615   6.283   4.078
 7497TIP3    H122455   3.682   6.219   4.054
 7497TIP3    H222456   3.543   6.268   4.017
 7498TIP3   OH222457   3.824   6.019   0.848
 7498TIP3    H122458   3.788   6.078   0.781
 7498TIP3    H222459   3.772   5.940   0.841
 7499TIP3   OH222460   3.224   0.031   3.958
 7499TIP3    H122461   3.179   0.004   4.038
 7499TIP3    H222462   3.290  -0.036   3.943
 7500TIP3   OH222463   5.345   4.113   4.239
 7500TIP3    H122464   5.419   4.109   4.299
 7500TIP3    H222465   5.331   4.022   4.212
 7501TIP3   OH222466   3.456   1.109   0.871
 7501TIP3    H122467   3.474   1.150   0.787
 7501TIP3    H222468   3.374   1.148   0.900
 7502TIP3   OH222469   0.542   1.033   1.472
 7502TIP3    H122470   0.610   0.981   1.515
 7502TIP3    H222471   0.536   0.998   1.383
 7503TIP3   OH222472   1.696   5.338   5.873
 7503TIP3    H122473   1.612   5.333   5.828
 7503TIP3    H222474   1.681   5.397   5.946
 7504TIP3   OH222475   4.749   1.120   4.642
 7504TIP3    H122476   4.809   1.054   4.677
 7504TIP3    H222477   4.693   1.072   4.582
 7505TIP3   OH222478   6.914   3.236   2.526
 7505TIP3    H122479   6.880   3.159   2.572
 7505TIP3    H222480   6.836   3.278   2.490
 7506TIP3   OH222481   0.356   2.732   4.073
 7506TIP3    H122482   0.446   2.764   4.061
 7506TIP3    H222483   0.313   2.800   4.124
 7507TIP3   OH222484   3.169   4.887   4.999
 7507TIP3    H122485   3.142   4.960   5.055
 7507TIP3    H222486   3.218   4.828   5.057
 7508TIP3   OH222487   0.125   2.855   2.105
 7508TIP3    H122488   0.054   2.791   2.112
 7508TIP3    H222489   0.083   2.940   2.120
 7509TIP3   OH222490   2.708   3.084   2.197
 7509TIP3    H122491   2.765   3.147   2.241
 7509TIP3    H222492   2.619   3.120   2.208
 7510TIP3   OH222493   0.408   5.661   4.401
 7510TIP3    H122494   0.383   5.677   4.492
 7510TIP3    H222495   0.381   5.740   4.354
 7511TIP3   OH222496   6.160   5.765   1.354
 7511TIP3    H122497   6.091   5.806   1.406
 7511TIP3    H222498   6.221   5.837   1.335
 7512TIP3   OH222499   6.909   0.219   4.696
 7512TIP3    H122500   6.871   0.295   4.653
 7512TIP3    H222501   6.973   0.185   4.633
 7513TIP3   OH222502   6.500   5.076   3.787
 7513TIP3    H122503   6.588   5.112   3.788
 7513TIP3    H222504   6.475   5.071   3.880
 7514TIP3   OH222505   6.951   6.074   3.155
 7514TIP3    H122506   6.988   6.161   3.168
 7514TIP3    H222507   6.930   6.043   3.243
 7515TIP3   OH222508   5.070   5.112   2.125
 7515TIP3    H122509   5.077   5.022   2.156
 7515TIP3    H222510   5.004   5.152   2.182
 7516TIP3   OH222511   4.670   4.266   3.680
 7516TIP3    H122512   4.653   4.321   3.757
 7516TIP3    H222513   4.760   4.289   3.654
 7517TIP3   OH222514   6.837   3.021   5.357
 7517TIP3    H122515   6.930   3.035   5.341
 7517TIP3    H222516   6.833   2.986   5.446
 7518TIP3   OH222517   4.219   3.276   5.180
 7518TIP3    H122518   4.303   3.306   5.215
 7518TIP3    H222519   4.221   3.181   5.192
 7519TIP3   OH222520   1.996   1.377   3.412
 7519TIP3    H122521   2.089   1.355   3.409
 7519TIP3    H222522   1.986   1.450   3.351
 7520TIP3   OH222523   2.212   5.788   3.864
 7520TIP3    H122524   2.260   5.724   3.917
 7520TIP3    H222525   2.194   5.742   3.782
 7521TIP3   OH222526   6.468   4.935   4.054
 7521TIP3    H122527   6.375   4.947   4.037
 7521TIP3    H222528   6.477   4.846   4.086
 7522TIP3   OH222529   0.639   2.055   5.582
 7522TIP3    H122530   0.629   2.143   5.545
 7522TIP3    H222531   0.687   2.069   5.663
 7523TIP3   OH222532   2.664   2.957   3.000
 7523TIP3    H122533   2.727   3.025   2.975
 7523TIP3    H222534   2.582   2.983   2.958
 7524TIP3   OH222535   1.653   3.386   0.534
 7524TIP3    H122536   1.701   3.431   0.604
 7524TIP3    H222537   1.683   3.295   0.540
 7525TIP3   OH222538   3.541   3.565   3.462
 7525TIP3    H122539   3.518   3.651   3.496
 7525TIP3    H222540   3.551   3.510   3.539
 7526TIP3   OH222541   6.259   2.438   3.789
 7526TIP3    H122542   6.262   2.520   3.837
 7526TIP3    H222543   6.276   2.370   3.854
 7527TIP3   OH222544   1.973   0.041   0.992
 7527TIP3    H122545   1.954   0.106   0.925
 7527TIP3    H222546   2.060   0.007   0.970
 7528TIP3   OH222547   5.496   5.461   0.875
 7528TIP3    H122548   5.525   5.502   0.957
 7528TIP3    H222549   5.469   5.373   0.901
 7529TIP3   OH222550   6.744   5.711   2.034
 7529TIP3    H122551   6.755   5.644   2.102
 7529TIP3    H222552   6.760   5.664   1.952
 7530TIP3   OH222553   1.433   4.233   1.969
 7530TIP3    H122554   1.410   4.170   2.038
 7530TIP3    H222555   1.503   4.286   2.006
 7531TIP3   OH222556   6.602   5.814   2.318
 7531TIP3    H122557   6.645   5.741   2.274
 7531TIP3    H222558   6.520   5.778   2.351
 7532TIP3   OH222559   0.234   5.491   2.227
 7532TIP3    H122560   0.149   5.521   2.260
 7532TIP3    H222561   0.219   5.399   2.205
 7533TIP3   OH222562   2.522   6.675   5.250
 7533TIP3    H122563   2.444   6.619   5.256
 7533TIP3    H222564   2.489   6.764   5.266
 7534TIP3   OH222565   2.160   1.782   1.315
 7534TIP3    H122566   2.065   1.771   1.308
 7534TIP3    H222567   2.194   1.750   1.232
 7535TIP3   OH222568   7.078   0.175   1.980
 7535TIP3    H122569   7.069   0.084   2.009
 7535TIP3    H222570   7.001   0.192   1.926
 7536TIP3   OH222571   2.909   1.060   1.964
 7536TIP3    H122572   2.980   1.094   2.018
 7536TIP3    H222573   2.899   1.124   1.894
 7537TIP3   OH222574   4.942   0.518   5.334
 7537TIP3    H122575   4.940   0.613   5.340
 7537TIP3    H222576   5.026   0.494   5.374
 7538TIP3   OH222577   7.126   1.584   5.150
 7538TIP3    H122578   7.089   1.659   5.196
 7538TIP3    H222579   7.150   1.522   5.219
 7539TIP3   OH222580   5.417   3.393   5.559
 7539TIP3    H122581   5.363   3.425   5.631
 7539TIP3    H222582   5.436   3.302   5.582
 7540TIP3   OH222583   5.580   4.773   0.972
 7540TIP3    H122584   5.645   4.741   0.909
 7540TIP3    H222585   5.622   4.761   1.058
 7541TIP3   OH222586   3.343   0.841   0.514
 7541TIP3    H122587   3.324   0.927   0.477
 7541TIP3    H222588   3.262   0.816   0.559
 7542TIP3   OH222589   1.540   2.601   4.057
 7542TIP3    H122590   1.516   2.546   3.983
 7542TIP3    H222591   1.521   2.548   4.134
 7543TIP3   OH222592   6.383   4.619   2.865
 7543TIP3    H122593   6.377   4.714   2.871
 7543TIP3    H222594   6.378   4.588   2.955
 7544TIP3   OH222595   6.573   2.475   3.348
 7544TIP3    H122596   6.615   2.540   3.292
 7544TIP3    H222597   6.491   2.455   3.303
 7545TIP3   OH222598   5.532   3.640   3.649
 7545TIP3    H122599   5.627   3.626   3.643
 7545TIP3    H222600   5.517   3.671   3.738
 7546TIP3   OH222601   0.576   6.751   1.039
 7546TIP3    H122602   0.583   6.836   1.083
 7546TIP3    H222603   0.503   6.762   0.977
 7547TIP3   OH222604   2.432   0.914   2.948
 7547TIP3    H122605   2.385   0.874   2.875
 7547TIP3    H222606   2.393   0.875   3.026
 7548TIP3   OH222607   6.666   2.027   2.627
 7548TIP3    H122608   6.700   1.957   2.682
 7548TIP3    H222609   6.585   2.055   2.670
 7549TIP3   OH222610   1.677   2.280   2.834
 7549TIP3    H122611   1.703   2.263   2.744
 7549TIP3    H222612   1.680   2.195   2.877
 7550TIP3   OH222613   3.325   1.760   5.254
 7550TIP3    H122614   3.314   1.846   5.213
 7550TIP3    H222615   3.416   1.758   5.282
 7551TIP3   OH222616   5.402   0.424   1.937
 7551TIP3    H122617   5.421   0.496   1.997
 7551TIP3    H222618   5.476   0.364   1.947
 7552TIP3   OH222619   5.251   6.463   5.019
 7552TIP3    H122620   5.262   6.543   4.967
 7552TIP3    H222621   5.226   6.396   4.955
 7553TIP3   OH222622   5.072   0.044   5.845
 7553TIP3    H122623   5.167   0.043   5.831
 7553TIP3    H222624   5.045  -0.046   5.828
 7554TIP3   OH222625   4.751   4.876   4.362
 7554TIP3    H122626   4.687   4.817   4.323
 7554TIP3    H222627   4.820   4.818   4.395
 7555TIP3   OH222628   0.720   3.705   3.421
 7555TIP3    H122629   0.708   3.628   3.477
 7555TIP3    H222630   0.728   3.670   3.333
 7556TIP3   OH222631   6.523   0.902   2.790
 7556TIP3    H122632   6.478   0.976   2.749
 7556TIP3    H222633   6.589   0.943   2.846
 7557TIP3   OH222634   0.066   4.791   5.183
 7557TIP3    H122635   0.088   4.748   5.266
 7557TIP3    H222636   0.061   4.884   5.205
 7558TIP3   OH222637   7.129   3.987   5.090
 7558TIP3    H122638   7.194   4.041   5.046
 7558TIP3    H222639   7.047   4.036   5.081
 7559TIP3   OH222640   5.996   6.549   4.739
 7559TIP3    H122641   6.029   6.620   4.794
 7559TIP3    H222642   5.991   6.474   4.798
 7560TIP3   OH222643   5.954   0.880   2.940
 7560TIP3    H122644   5.985   0.968   2.962
 7560TIP3    H222645   5.911   0.890   2.855
 7561TIP3   OH222646   0.558   5.279   3.409
 7561TIP3    H122647   0.637   5.271   3.355
 7561TIP3    H222648   0.590   5.313   3.492
 7562TIP3   OH222649   2.207   3.577   0.735
 7562TIP3    H122650   2.289   3.567   0.783
 7562TIP3    H222651   2.138   3.563   0.800
 7563TIP3   OH222652   3.561   3.550   2.479
 7563TIP3    H122653   3.487   3.491   2.467
 7563TIP3    H222654   3.522   3.633   2.504
 7564TIP3   OH222655   3.878   0.164   2.069
 7564TIP3    H122656   3.824   0.089   2.043
 7564TIP3    H222657   3.967   0.129   2.075
 7565TIP3   OH222658   1.691   0.330   3.286
 7565TIP3    H122659   1.720   0.309   3.198
 7565TIP3    H222660   1.637   0.408   3.276
 7566TIP3   OH222661   0.307   0.444   0.978
 7566TIP3    H122662   0.330   0.529   0.940
 7566TIP3    H222663   0.270   0.394   0.904
 7567TIP3   OH222664   6.427   3.385   5.794
 7567TIP3    H122665   6.388   3.311   5.840
 7567TIP3    H222666   6.488   3.346   5.731
 7568TIP3   OH222667   1.492   3.179   4.492
 7568TIP3    H122668   1.561   3.182   4.558
 7568TIP3    H222669   1.538   3.172   4.409
 7569TIP3   OH222670   2.402   4.307   3.830
 7569TIP3    H122671   2.393   4.261   3.746
 7569TIP3    H222672   2.348   4.256   3.890
 7570TIP3   OH222673   2.465   3.510   2.704
 7570TIP3    H122674   2.387   3.541   2.659
 7570TIP3    H222675   2.465   3.415   2.689
 7571TIP3   OH222676   6.925   0.171   0.797
 7571TIP3    H122677   6.959   0.107   0.860
 7571TIP3    H222678   6.973   0.151   0.716
 7572TIP3   OH222679   3.622   4.256   5.642
 7572TIP3    H122680   3.547   4.267   5.583
 7572TIP3    H222681   3.621   4.163   5.664
 7573TIP3   OH222682   2.103   6.297   3.214
 7573TIP3    H122683   2.177   6.320   3.157
 7573TIP3    H222684   2.032   6.277   3.154
 7574TIP3   OH222685   0.653   3.970   3.129
 7574TIP3    H122686   0.739   3.960   3.090
 7574TIP3    H222687   0.663   4.043   3.191
 7575TIP3   OH222688   6.366   5.713   2.405
 7575TIP3    H122689   6.327   5.799   2.389
 7575TIP3    H222690   6.292   5.653   2.405
 7576TIP3   OH222691   0.884   0.669   0.093
 7576TIP3    H122692   0.796   0.687   0.128
 7576TIP3    H222693   0.933   0.636   0.168
 7577TIP3   OH222694   3.047   3.329   1.125
 7577TIP3    H122695   3.042   3.375   1.209
 7577TIP3    H222696   3.129   3.359   1.086
 7578TIP3   OH222697   5.094   5.514   2.373
 7578TIP3    H122698   5.014   5.475   2.407
 7578TIP3    H222699   5.155   5.441   2.364
 7579TIP3   OH222700   6.580   5.144   2.195
 7579TIP3    H122701   6.562   5.052   2.217
 7579TIP3    H222702   6.644   5.172   2.261
 7580TIP3   OH222703   1.213   6.368   1.235
 7580TIP3    H122704   1.235   6.374   1.142
 7580TIP3    H222705   1.232   6.456   1.269
 7581TIP3   OH222706   0.010   4.533   5.106
 7581TIP3    H122707   0.000   4.625   5.131
 7581TIP3    H222708   0.015   4.535   5.010
 7582TIP3   OH222709   1.799   4.125   1.881
 7582TIP3    H122710   1.877   4.120   1.826
 7582TIP3    H222711   1.830   4.163   1.964
 7583TIP3   OH222712   0.219   3.768   1.397
 7583TIP3    H122713   0.174   3.726   1.324
 7583TIP3    H222714   0.286   3.823   1.355
 7584TIP3   OH222715   4.844   6.449   4.510
 7584TIP3    H122716   4.915   6.390   4.483
 7584TIP3    H222717   4.883   6.505   4.577
 7585TIP3   OH222718   6.629   6.732   0.355
 7585TIP3    H122719   6.561   6.752   0.419
 7585TIP3    H222720   6.708   6.775   0.389
 7586TIP3   OH222721   0.772   3.965   5.168
 7586TIP3    H122722   0.795   3.942   5.078
 7586TIP3    H222723   0.677   3.978   5.167
 7587TIP3   OH222724   1.306   3.139   1.659
 7587TIP3    H122725   1.259   3.218   1.686
 7587TIP3    H222726   1.301   3.139   1.564
 7588TIP3   OH222727   2.017   1.059   5.432
 7588TIP3    H122728   1.981   0.988   5.485
 7588TIP3    H222729   2.069   1.111   5.493
 7589TIP3   OH222730   6.042   3.096   2.993
 7589TIP3    H122731   5.955   3.094   2.952
 7589TIP3    H222732   6.085   3.171   2.953
 7590TIP3   OH222733   0.115   0.130   4.801
 7590TIP3    H122734   0.071   0.171   4.726
 7590TIP3    H222735   0.200   0.174   4.806
 7591TIP3   OH222736   0.629   6.275   2.797
 7591TIP3    H122737   0.721   6.268   2.772
 7591TIP3    H222738   0.616   6.369   2.810
 7592TIP3   OH222739   3.254   4.512   4.282
 7592TIP3    H122740   3.244   4.607   4.271
 7592TIP3    H222741   3.169   4.483   4.314
 7593TIP3   OH222742   0.261   6.167   5.278
 7593TIP3    H122743   0.222   6.142   5.194
 7593TIP3    H222744   0.191   6.214   5.323
 7594TIP3   OH222745   2.737   1.039   1.403
 7594TIP3    H122746   2.694   1.047   1.318
 7594TIP3    H222747   2.734   1.128   1.440
 7595TIP3   OH222748   2.242   0.857   5.697
 7595TIP3    H122749   2.295   0.920   5.649
 7595TIP3    H222750   2.286   0.847   5.781
 7596TIP3   OH222751   4.752   3.708   0.622
 7596TIP3    H122752   4.721   3.790   0.660
 7596TIP3    H222753   4.680   3.678   0.567
 7597TIP3   OH222754   5.287   3.208   0.910
 7597TIP3    H122755   5.336   3.266   0.968
 7597TIP3    H222756   5.354   3.155   0.867
 7598TIP3   OH222757   1.397   0.882   2.019
 7598TIP3    H122758   1.440   0.819   2.076
 7598TIP3    H222759   1.361   0.829   1.947
 7599TIP3   OH222760   1.201   6.652   0.748
 7599TIP3    H122761   1.283   6.650   0.799
 7599TIP3    H222762   1.145   6.713   0.796
 7600TIP3   OH222763   0.152   2.151   5.356
 7600TIP3    H122764   0.164   2.072   5.304
 7600TIP3    H222765   0.187   2.221   5.302
 7601TIP3   OH222766   2.634   0.745   2.703
 7601TIP3    H122767   2.676   0.663   2.729
 7601TIP3    H222768   2.619   0.791   2.786
 7602TIP3   OH222769   6.115   6.534   3.027
 7602TIP3    H122770   6.187   6.564   2.970
 7602TIP3    H222771   6.036   6.560   2.980
 7603TIP3   OH222772   3.003   3.962   4.231
 7603TIP3    H122773   3.092   3.929   4.243
 7603TIP3    H222774   3.003   4.001   4.143
 7604TIP3   OH222775   0.830   1.011   2.315
 7604TIP3    H122776   0.763   1.063   2.359
 7604TIP3    H222777   0.885   1.075   2.271
 7605TIP3   OH222778   3.464   3.792   5.635
 7605TIP3    H122779   3.458   3.724   5.702
 7605TIP3    H222780   3.466   3.744   5.552
 7606TIP3   OH222781   5.335   5.901   1.294
 7606TIP3    H122782   5.289   5.864   1.369
 7606TIP3    H222783   5.292   5.985   1.279
 7607TIP3   OH222784   4.715   5.026   5.142
 7607TIP3    H122785   4.780   4.965   5.106
 7607TIP3    H222786   4.753   5.057   5.224
 7608TIP3   OH222787   3.077   6.109   3.548
 7608TIP3    H122788   3.000   6.052   3.545
 7608TIP3    H222789   3.068   6.165   3.471
 7609TIP3   OH222790   1.146   0.615   2.192
 7609TIP3    H122791   1.082   0.622   2.262
 7609TIP3    H222792   1.200   0.694   2.201
 7610TIP3   OH222793   1.833   3.076   2.269
 7610TIP3    H122794   1.838   2.980   2.274
 7610TIP3    H222795   1.805   3.093   2.179
 7611TIP3   OH222796   4.752   6.015   3.318
 7611TIP3    H122797   4.661   5.985   3.321
 7611TIP3    H222798   4.779   6.019   3.410
 7612TIP3   OH222799   5.396   5.299   3.028
 7612TIP3    H122800   5.430   5.212   3.009
 7612TIP3    H222801   5.435   5.322   3.112
 7613TIP3   OH222802   2.507   0.833   0.208
 7613TIP3    H122803   2.496   0.790   0.293
 7613TIP3    H222804   2.598   0.815   0.184
 7614TIP3   OH222805   1.600   6.420   1.913
 7614TIP3    H122806   1.544   6.343   1.918
 7614TIP3    H222807   1.651   6.406   1.833
 7615TIP3   OH222808   5.761   1.992   1.100
 7615TIP3    H122809   5.850   1.957   1.096
 7615TIP3    H222810   5.771   2.080   1.136
 7616TIP3   OH222811   5.177   3.838   3.462
 7616TIP3    H122812   5.240   3.769   3.481
 7616TIP3    H222813   5.230   3.915   3.443
 7617TIP3   OH222814   4.634   2.939   1.889
 7617TIP3    H122815   4.713   2.960   1.840
 7617TIP3    H222816   4.644   2.986   1.972
 7618TIP3   OH222817   5.957   1.151   1.557
 7618TIP3    H122818   6.053   1.157   1.559
 7618TIP3    H222819   5.935   1.167   1.465
 7619TIP3   OH222820   0.375   3.465   5.353
 7619TIP3    H122821   0.461   3.446   5.390
 7619TIP3    H222822   0.383   3.444   5.260
 7620TIP3   OH222823   3.322   0.030   5.686
 7620TIP3    H122824   3.310   0.096   5.753
 7620TIP3    H222825   3.312  -0.053   5.732
 7621TIP3   OH222826   4.016   2.864   1.843
 7621TIP3    H122827   4.063   2.843   1.762
 7621TIP3    H222828   4.077   2.843   1.913
 7622TIP3   OH222829   3.598   3.842   1.884
 7622TIP3    H122830   3.666   3.776   1.880
 7622TIP3    H222831   3.644   3.925   1.871
 7623TIP3   OH222832   1.766   2.897   3.969
 7623TIP3    H122833   1.674   2.883   3.993
 7623TIP3    H222834   1.815   2.871   4.047
 7624TIP3   OH222835   4.602   2.191   1.360
 7624TIP3    H122836   4.667   2.176   1.290
 7624TIP3    H222837   4.588   2.286   1.359
 7625TIP3   OH222838   1.708   0.645   0.308
 7625TIP3    H122839   1.684   0.559   0.343
 7625TIP3    H222840   1.694   0.637   0.213
 7626TIP3   OH222841   1.032   2.497   0.229
 7626TIP3    H122842   1.022   2.468   0.320
 7626TIP3    H222843   0.967   2.446   0.181
 7627TIP3   OH222844   5.633   5.406   1.469
 7627TIP3    H122845   5.718   5.399   1.425
 7627TIP3    H222846   5.636   5.491   1.513
 7628TIP3   OH222847   4.599   1.847   0.654
 7628TIP3    H122848   4.640   1.923   0.696
 7628TIP3    H222849   4.518   1.881   0.616
 7629TIP3   OH222850   2.357   5.779   4.684
 7629TIP3    H122851   2.379   5.839   4.756
 7629TIP3    H222852   2.438   5.731   4.667
 7630TIP3   OH222853   2.901   2.775   3.066
 7630TIP3    H122854   2.956   2.734   2.999
 7630TIP3    H222855   2.850   2.841   3.018
 7631TIP3   OH222856   7.243   3.130   1.097
 7631TIP3    H122857   7.195   3.208   1.126
 7631TIP3    H222858   7.192   3.057   1.131
 7632TIP3   OH222859   5.335   6.691   1.701
 7632TIP3    H122860   5.381   6.756   1.648
 7632TIP3    H222861   5.272   6.742   1.753
 7633TIP3   OH222862   0.570   0.207   3.038
 7633TIP3    H122863   0.585   0.255   2.957
 7633TIP3    H222864   0.571   0.115   3.012
 7634TIP3   OH222865   4.886   6.793   0.672
 7634TIP3    H122866   4.923   6.708   0.696
 7634TIP3    H222867   4.960   6.844   0.640
 7635TIP3   OH222868   3.060   5.243   2.648
 7635TIP3    H122869   3.051   5.223   2.555
 7635TIP3    H222870   3.114   5.172   2.683
 7636TIP3   OH222871   6.744   2.349   1.258
 7636TIP3    H122872   6.688   2.396   1.319
 7636TIP3    H222873   6.696   2.354   1.174
 7637TIP3   OH222874   3.723   1.014   0.292
 7637TIP3    H122875   3.740   0.974   0.207
 7637TIP3    H222876   3.704   0.940   0.350
 7638TIP3   OH222877   6.653   4.948   1.858
 7638TIP3    H122878   6.699   5.030   1.875
 7638TIP3    H222879   6.605   4.963   1.776
 7639TIP3   OH222880   5.937   4.708   0.268
 7639TIP3    H122881   5.902   4.638   0.322
 7639TIP3    H222882   6.007   4.746   0.321
 7640TIP3   OH222883   1.876   6.070   4.437
 7640TIP3    H122884   1.910   5.989   4.400
 7640TIP3    H222885   1.954   6.122   4.457
 7641TIP3   OH222886   5.863   5.426   1.329
 7641TIP3    H122887   5.844   5.519   1.342
 7641TIP3    H222888   5.958   5.422   1.320
 7642TIP3   OH222889   2.512   0.626   5.402
 7642TIP3    H122890   2.513   0.671   5.486
 7642TIP3    H222891   2.435   0.569   5.405
 7643TIP3   OH222892   6.774   5.209   5.795
 7643TIP3    H122893   6.754   5.251   5.711
 7643TIP3    H222894   6.781   5.282   5.857
 7644TIP3   OH222895   2.511   2.795   1.017
 7644TIP3    H122896   2.514   2.779   0.923
 7644TIP3    H222897   2.480   2.712   1.054
 7645TIP3   OH222898   7.121   6.698   5.375
 7645TIP3    H122899   7.059   6.771   5.379
 7645TIP3    H222900   7.207   6.739   5.370
 7646TIP3   OH222901   1.809   1.082   4.430
 7646TIP3    H122902   1.840   1.170   4.409
 7646TIP3    H222903   1.785   1.087   4.523
 7647TIP3   OH222904   4.089   5.943   0.661
 7647TIP3    H122905   4.000   5.909   0.670
 7647TIP3    H222906   4.134   5.878   0.607
 7648TIP3   OH222907   1.432   0.921   3.137
 7648TIP3    H122908   1.458   0.978   3.210
 7648TIP3    H222909   1.336   0.930   3.133
 7649TIP3   OH222910   0.658   4.472   2.640
 7649TIP3    H122911   0.718   4.400   2.661
 7649TIP3    H222912   0.611   4.442   2.561
 7650TIP3   OH222913   1.653   0.729   5.320
 7650TIP3    H122914   1.599   0.653   5.297
 7650TIP3    H222915   1.592   0.803   5.320
 7651TIP3   OH222916   1.358   4.997   4.215
 7651TIP3    H122917   1.365   4.914   4.169
 7651TIP3    H222918   1.273   4.993   4.258
 7652TIP3   OH222919   2.921   0.917   1.131
 7652TIP3    H122920   2.874   0.852   1.079
 7652TIP3    H222921   2.883   0.910   1.219
 7653TIP3   OH222922   6.954   1.016   5.391
 7653TIP3    H122923   6.882   1.004   5.330
 7653TIP3    H222924   6.925   0.973   5.471
 7654TIP3   OH222925   7.013   0.490   2.682
 7654TIP3    H122926   6.951   0.424   2.711
 7654TIP3    H222927   7.027   0.473   2.589
 7655TIP3   OH222928   6.887   6.213   2.490
 7655TIP3    H122929   6.856   6.260   2.568
 7655TIP3    H222930   6.810   6.166   2.458
 7656TIP3   OH222931   3.470   0.235   0.985
 7656TIP3    H122932   3.437   0.146   0.997
 7656TIP3    H222933   3.503   0.236   0.895
 7657TIP3   OH222934   3.128   1.124   3.490
 7657TIP3    H122935   3.213   1.081   3.479
 7657TIP3    H222936   3.065   1.060   3.457
 7658TIP3   OH222937   0.769   6.767   1.478
 7658TIP3    H122938   0.780   6.766   1.573
 7658TIP3    H222939   0.712   6.692   1.460
 7659TIP3   OH222940   5.218   0.702   0.168
 7659TIP3    H122941   5.277   0.627   0.168
 7659TIP3    H222942   5.180   0.703   0.080
 7660TIP3   OH222943   2.443   3.638   0.866
 7660TIP3    H122944   2.496   3.651   0.945
 7660TIP3    H222945   2.415   3.725   0.840
 7661TIP3   OH222946   1.338   5.208   4.532
 7661TIP3    H122947   1.249   5.239   4.511
 7661TIP3    H222948   1.388   5.289   4.543
 7662TIP3   OH222949   3.140   1.608   1.613
 7662TIP3    H122950   3.188   1.691   1.616
 7662TIP3    H222951   3.062   1.627   1.561
 7663TIP3   OH222952   4.529   0.755   0.976
 7663TIP3    H122953   4.623   0.769   0.989
 7663TIP3    H222954   4.488   0.835   1.008
 7664TIP3   OH222955   6.719   0.629   0.650
 7664TIP3    H122956   6.731   0.556   0.712
 7664TIP3    H222957   6.691   0.702   0.704
 7665TIP3   OH222958   2.526   1.956   0.547
 7665TIP3    H122959   2.476   2.019   0.599
 7665TIP3    H222960   2.610   1.999   0.531
 7666TIP3   OH222961   1.606   6.703   4.691
 7666TIP3    H122962   1.618   6.645   4.766
 7666TIP3    H222963   1.689   6.700   4.644
 7667TIP3   OH222964   2.001   1.623   0.634
 7667TIP3    H122965   2.056   1.579   0.699
 7667TIP3    H222966   1.963   1.551   0.583
 7668TIP3   OH222967   3.678   6.569   0.500
 7668TIP3    H122968   3.628   6.553   0.580
 7668TIP3    H222969   3.762   6.527   0.515
 7669TIP3   OH222970   6.423   5.488   4.967
 7669TIP3    H122971   6.361   5.533   5.024
 7669TIP3    H222972   6.372   5.415   4.930
 7670TIP3   OH222973   1.874   4.258   4.051
 7670TIP3    H122974   1.902   4.177   4.094
 7670TIP3    H222975   1.949   4.316   4.058
 7671TIP3   OH222976   2.479   1.703   1.718
 7671TIP3    H122977   2.422   1.740   1.650
 7671TIP3    H222978   2.527   1.633   1.673
 7672TIP3   OH222979   2.161   3.832   1.596
 7672TIP3    H122980   2.066   3.820   1.593
 7672TIP3    H222981   2.186   3.800   1.682
 7673TIP3   OH222982   3.955   2.231   2.097
 7673TIP3    H122983   3.933   2.229   2.190
 7673TIP3    H222984   4.026   2.168   2.087
 7674TIP3   OH222985   0.190   5.451   4.323
 7674TIP3    H122986   0.206   5.545   4.310
 7674TIP3    H222987   0.162   5.444   4.414
 7675TIP3   OH222988   5.361   3.132   3.118
 7675TIP3    H122989   5.295   3.162   3.057
 7675TIP3    H222990   5.360   3.037   3.109
 7676TIP3   OH222991   5.165   6.793   1.884
 7676TIP3    H122992   5.221   6.742   1.942
 7676TIP3    H222993   5.084   6.806   1.934
 7677TIP3   OH222994   3.122   1.147   5.897
 7677TIP3    H122995   3.140   1.150   5.803
 7677TIP3    H222996   3.202   1.113   5.935
 7678TIP3   OH222997   4.922   3.978   3.576
 7678TIP3    H122998   4.984   3.977   3.503
 7678TIP3    H222999   4.836   3.983   3.533
 7679TIP3   OH223000   5.712   3.606   0.011
 7679TIP3    H123001   5.799   3.647   0.005
 7679TIP3    H223002   5.701   3.589   0.104
 7680TIP3   OH223003   4.544   0.888   4.594
 7680TIP3    H123004   4.472   0.848   4.543
 7680TIP3    H223005   4.622   0.840   4.566
 7681TIP3   OH223006   4.675   2.765   2.711
 7681TIP3    H123007   4.698   2.791   2.800
 7681TIP3    H223008   4.590   2.806   2.695
 7682TIP3   OH223009   5.486   3.185   0.439
 7682TIP3    H123010   5.516   3.103   0.401
 7682TIP3    H223011   5.521   3.253   0.382
 7683TIP3   OH223012   6.458   0.975   2.452
 7683TIP3    H123013   6.480   1.017   2.369
 7683TIP3    H223014   6.374   0.932   2.436
 7684TIP3   OH223015   1.871   6.413   3.715
 7684TIP3    H123016   1.915   6.445   3.793
 7684TIP3    H223017   1.906   6.467   3.644
 7685TIP3   OH223018   0.745   0.830   3.109
 7685TIP3    H123019   0.670   0.889   3.113
 7685TIP3    H223020   0.821   0.888   3.108
 7686TIP3   OH223021   5.155   2.820   1.637
 7686TIP3    H123022   5.232   2.870   1.662
 7686TIP3    H223023   5.119   2.867   1.562
 7687TIP3   OH223024   2.751   2.619   5.838
 7687TIP3    H123025   2.711   2.535   5.815
 7687TIP3    H223026   2.763   2.663   5.753
 7688TIP3   OH223027   3.830   6.415   0.175
 7688TIP3    H123028   3.912   6.415   0.225
 7688TIP3    H223029   3.797   6.504   0.183
 7689TIP3   OH223030   2.371   4.898   5.719
 7689TIP3    H123031   2.391   4.858   5.635
 7689TIP3    H223032   2.276   4.887   5.730
 7690TIP3   OH223033   1.281   2.389   5.686
 7690TIP3    H123034   1.351   2.443   5.723
 7690TIP3    H223035   1.310   2.299   5.701
 7691TIP3   OH223036   3.269   3.481   2.824
 7691TIP3    H123037   3.299   3.420   2.892
 7691TIP3    H223038   3.340   3.544   2.814
 7692TIP3   OH223039   6.071   4.190   3.113
 7692TIP3    H123040   6.007   4.129   3.149
 7692TIP3    H223041   6.019   4.261   3.074
 7693TIP3   OH223042   6.617   6.133   2.955
 7693TIP3    H123043   6.579   6.050   2.983
 7693TIP3    H223044   6.542   6.191   2.941
 7694TIP3   OH223045   1.057   3.705   2.578
 7694TIP3    H123046   1.028   3.626   2.532
 7694TIP3    H223047   0.990   3.721   2.644
 7695TIP3   OH223048   5.914  -0.017   1.288
 7695TIP3    H123049   6.003   0.013   1.307
 7695TIP3    H223050   5.901   0.001   1.195
 7696TIP3   OH223051   6.480   3.055   5.636
 7696TIP3    H123052   6.451   3.005   5.712
 7696TIP3    H223053   6.550   3.111   5.669
 7697TIP3   OH223054   6.666   0.162   2.119
 7697TIP3    H123055   6.658   0.117   2.035
 7697TIP3    H223056   6.726   0.234   2.102
 7698TIP3   OH223057   0.491   2.315   1.467
 7698TIP3    H123058   0.496   2.390   1.408
 7698TIP3    H223059   0.478   2.353   1.554
 7699TIP3   OH223060   2.866   1.581   2.241
 7699TIP3    H123061   2.830   1.670   2.239
 7699TIP3    H223062   2.841   1.547   2.327
 7700TIP3   OH223063   0.583   5.910   4.547
 7700TIP3    H123064   0.567   5.998   4.513
 7700TIP3    H223065   0.605   5.923   4.639
 7701TIP3   OH223066   3.938   2.874   2.458
 7701TIP3    H123067   3.875   2.867   2.387
 7701TIP3    H223068   3.905   2.945   2.513
 7702TIP3   OH223069   0.465   3.524   1.507
 7702TIP3    H123070   0.405   3.518   1.432
 7702TIP3    H223071   0.466   3.436   1.544
 7703TIP3   OH223072   2.972   2.952   0.700
 7703TIP3    H123073   3.031   3.028   0.695
 7703TIP3    H223074   2.930   2.948   0.615
 7704TIP3   OH223075   0.937   6.221   3.827
 7704TIP3    H123076   0.987   6.181   3.898
 7704TIP3    H223077   0.877   6.151   3.798
 7705TIP3   OH223078   1.907   0.811   4.734
 7705TIP3    H123079   1.962   0.768   4.799
 7705TIP3    H223080   1.860   0.879   4.783
 7706TIP3   OH223081   3.148   0.317   1.648
 7706TIP3    H123082   3.066   0.288   1.687
 7706TIP3    H223083   3.209   0.324   1.721
 7707TIP3   OH223084   5.636   1.499   1.557
 7707TIP3    H123085   5.579   1.568   1.591
 7707TIP3    H223086   5.700   1.484   1.627
 7708TIP3   OH223087   4.268   3.573   2.824
 7708TIP3    H123088   4.292   3.629   2.750
 7708TIP3    H223089   4.181   3.540   2.801
 7709TIP3   OH223090   1.916   5.809   0.920
 7709TIP3    H123091   1.865   5.887   0.898
 7709TIP3    H223092   1.978   5.838   0.987
 7710TIP3   OH223093   5.254   5.817   2.406
 7710TIP3    H123094   5.213   5.807   2.320
 7710TIP3    H223095   5.339   5.773   2.398
 7711TIP3   OH223096   7.167   3.515   0.164
 7711TIP3    H123097   7.181   3.490   0.073
 7711TIP3    H223098   7.075   3.541   0.168
 7712TIP3   OH223099   3.399   5.161   4.737
 7712TIP3    H123100   3.433   5.247   4.711
 7712TIP3    H223101   3.454   5.134   4.811
 7713TIP3   OH223102   4.334   4.417   4.679
 7713TIP3    H123103   4.252   4.455   4.645
 7713TIP3    H223104   4.401   4.446   4.618
 7714TIP3   OH223105   5.673   0.025   5.079
 7714TIP3    H123106   5.757  -0.009   5.047
 7714TIP3    H223107   5.649   0.093   5.016
 7715TIP3   OH223108   0.492   0.092   2.362
 7715TIP3    H123109   0.444   0.012   2.378
 7715TIP3    H223110   0.430   0.162   2.382
 7716TIP3   OH223111   1.056   4.163   1.230
 7716TIP3    H123112   0.998   4.088   1.240
 7716TIP3    H223113   1.094   4.152   1.143
 7717TIP3   OH223114   4.040   3.269   5.815
 7717TIP3    H123115   4.045   3.307   5.903
 7717TIP3    H223116   4.073   3.338   5.758
 7718TIP3   OH223117   4.590   2.824   0.215
 7718TIP3    H123118   4.613   2.732   0.202
 7718TIP3    H223119   4.535   2.846   0.140
 7719TIP3   OH223120   4.033   3.285   0.815
 7719TIP3    H123121   4.015   3.193   0.835
 7719TIP3    H223122   4.104   3.309   0.874
 7720TIP3   OH223123   6.035   6.099   2.192
 7720TIP3    H123124   6.052   6.113   2.099
 7720TIP3    H223125   6.033   6.187   2.229
 7721TIP3   OH223126   2.564   6.517   0.023
 7721TIP3    H123127   2.650   6.477   0.015
 7721TIP3    H223128   2.524   6.506  -0.064
 7722TIP3   OH223129   3.155   2.022   0.940
 7722TIP3    H123130   3.097   1.987   1.008
 7722TIP3    H223131   3.102   2.023   0.861
 7723TIP3   OH223132   5.580   3.669   1.101
 7723TIP3    H123133   5.496   3.693   1.140
 7723TIP3    H223134   5.558   3.638   1.014
 7724TIP3   OH223135   5.605   4.599   4.877
 7724TIP3    H123136   5.587   4.508   4.898
 7724TIP3    H223137   5.566   4.613   4.791
 7725TIP3   OH223138   5.164   1.071   4.509
 7725TIP3    H123139   5.179   0.980   4.534
 7725TIP3    H223140   5.248   1.114   4.526
 7726TIP3   OH223141   1.040   4.649   0.982
 7726TIP3    H123142   0.988   4.654   1.062
 7726TIP3    H223143   1.056   4.740   0.957
 7727TIP3   OH223144   2.005   6.182   3.855
 7727TIP3    H123145   1.942   6.229   3.801
 7727TIP3    H223146   2.054   6.127   3.793
 7728TIP3   OH223147   6.409   4.805   1.191
 7728TIP3    H123148   6.326   4.768   1.160
 7728TIP3    H223149   6.411   4.893   1.156
 7729TIP3   OH223150   7.081   0.627   1.035
 7729TIP3    H123151   6.991   0.595   1.034
 7729TIP3    H223152   7.102   0.639   1.128
 7730TIP3   OH223153   2.067   6.339   5.557
 7730TIP3    H123154   2.154   6.329   5.597
 7730TIP3    H223155   2.084   6.332   5.463
 7731TIP3   OH223156   5.650   5.443   1.982
 7731TIP3    H123157   5.685   5.421   2.068
 7731TIP3    H223158   5.652   5.539   1.978
 7732TIP3   OH223159   0.935   3.562   3.993
 7732TIP3    H123160   0.933   3.655   3.970
 7732TIP3    H223161   0.895   3.519   3.918
 7733TIP3   OH223162   5.989   6.758   5.567
 7733TIP3    H123163   5.931   6.693   5.526
 7733TIP3    H223164   6.002   6.725   5.656
 7734TIP3   OH223165   3.078   6.469   0.502
 7734TIP3    H123166   2.983   6.474   0.495
 7734TIP3    H223167   3.099   6.527   0.576
 7735TIP3   OH223168   4.917   5.637   1.361
 7735TIP3    H123169   4.998   5.610   1.318
 7735TIP3    H223170   4.881   5.705   1.304
 7736TIP3   OH223171   4.377   2.507   1.235
 7736TIP3    H123172   4.467   2.496   1.265
 7736TIP3    H223173   4.367   2.443   1.165
 7737TIP3   OH223174   3.763   2.656   5.738
 7737TIP3    H123175   3.857   2.644   5.745
 7737TIP3    H223176   3.727   2.607   5.812
 7738TIP3   OH223177   6.473   5.119   0.129
 7738TIP3    H123178   6.394   5.070   0.104
 7738TIP3    H223179   6.545   5.072   0.086
 7739TIP3   OH223180   7.174   4.897   2.916
 7739TIP3    H123181   7.186   4.898   3.011
 7739TIP3    H223182   7.080   4.914   2.903
 7740TIP3   OH223183   3.442   4.323   2.747
 7740TIP3    H123184   3.391   4.247   2.717
 7740TIP3    H223185   3.421   4.391   2.683
 7741TIP3   OH223186   1.546   1.602   4.538
 7741TIP3    H123187   1.505   1.618   4.622
 7741TIP3    H223188   1.624   1.549   4.558
 7742TIP3   OH223189   1.107   0.913   4.131
 7742TIP3    H123190   1.120   0.916   4.036
 7742TIP3    H223191   1.158   0.837   4.160
 7743TIP3   OH223192   5.253   2.421   0.306
 7743TIP3    H123193   5.306   2.350   0.342
 7743TIP3    H223194   5.242   2.482   0.379
 7744TIP3   OH223195   5.053   3.522   1.911
 7744TIP3    H123196   4.981   3.551   1.967
 7744TIP3    H223197   5.048   3.579   1.835
 7745TIP3   OH223198   3.718   0.828   2.655
 7745TIP3    H123199   3.681   0.750   2.613
 7745TIP3    H223200   3.768   0.871   2.586
 7746TIP3   OH223201   5.389   3.364   5.178
 7746TIP3    H123202   5.482   3.344   5.185
 7746TIP3    H223203   5.382   3.426   5.106
 7747TIP3   OH223204   6.983   3.319   2.066
 7747TIP3    H123205   6.946   3.376   1.998
 7747TIP3    H223206   7.078   3.329   2.057
 7748TIP3   OH223207   4.728   3.150   1.141
 7748TIP3    H123208   4.807   3.178   1.187
 7748TIP3    H223209   4.724   3.208   1.064
 7749TIP3   OH223210   2.929   4.999   3.362
 7749TIP3    H123211   2.978   5.035   3.436
 7749TIP3    H223212   2.995   4.979   3.296
 7750TIP3   OH223213   4.077   3.808   0.828
 7750TIP3    H123214   4.077   3.903   0.845
 7750TIP3    H223215   3.990   3.791   0.792
 7751TIP3   OH223216   2.063   4.218   2.757
 7751TIP3    H123217   2.122   4.278   2.711
 7751TIP3    H223218   2.040   4.152   2.691
 7752TIP3   OH223219   0.304   1.806   3.845
 7752TIP3    H123220   0.256   1.772   3.770
 7752TIP3    H223221   0.266   1.892   3.861
 7753TIP3   OH223222   0.087   2.398   1.195
 7753TIP3    H123223   0.165   2.343   1.181
 7753TIP3    H223224   0.034   2.384   1.116
 7754TIP3   OH223225   5.502   5.039   2.989
 7754TIP3    H123226   5.575   5.055   3.049
 7754TIP3    H223227   5.501   4.944   2.978
 7755TIP3   OH223228   1.874   6.269   0.772
 7755TIP3    H123229   1.917   6.256   0.856
 7755TIP3    H223230   1.901   6.193   0.720
 7756TIP3   OH223231   4.890   0.652   2.371
 7756TIP3    H123232   4.865   0.584   2.309
 7756TIP3    H223233   4.816   0.713   2.371
 7757TIP3   OH223234   7.152   6.705   4.598
 7757TIP3    H123235   7.220   6.722   4.664
 7757TIP3    H223236   7.177   6.621   4.559
 7758TIP3   OH223237   5.948   5.571   3.158
 7758TIP3    H123238   5.865   5.529   3.138
 7758TIP3    H223239   6.013   5.503   3.145
 7759TIP3   OH223240   5.321   2.110   2.616
 7759TIP3    H123241   5.235   2.080   2.587
 7759TIP3    H223242   5.333   2.070   2.702
 7760TIP3   OH223243   1.606   5.959   0.283
 7760TIP3    H123244   1.614   5.934   0.191
 7760TIP3    H223245   1.529   5.911   0.314
 7761TIP3   OH223246   2.037   5.730   4.087
 7761TIP3    H123247   2.062   5.640   4.110
 7761TIP3    H223248   2.102   5.757   4.023
 7762TIP3   OH223249   5.008   2.940   0.979
 7762TIP3    H123250   5.041   3.004   0.915
 7762TIP3    H223251   5.049   2.966   1.062
 7763TIP3   OH223252   3.575   5.078   5.719
 7763TIP3    H123253   3.562   5.008   5.655
 7763TIP3    H223254   3.486   5.106   5.742
 7764TIP3   OH223255   0.055   2.747   0.206
 7764TIP3    H123256   0.010   2.662   0.212
 7764TIP3    H223257   0.121   2.744   0.275
 7765TIP3   OH223258   4.228   2.806   2.375
 7765TIP3    H123259   4.240   2.883   2.429
 7765TIP3    H223260   4.150   2.763   2.411
 7766TIP3   OH223261   6.149   1.705   0.887
 7766TIP3    H123262   6.150   1.611   0.869
 7766TIP3    H223263   6.240   1.732   0.879
 7767TIP3   OH223264   6.585   5.815   4.000
 7767TIP3    H123265   6.624   5.844   3.917
 7767TIP3    H223266   6.634   5.736   4.022
 7768TIP3   OH223267   0.493   3.102   1.154
 7768TIP3    H123268   0.524   3.117   1.243
 7768TIP3    H223269   0.413   3.154   1.147
 7769TIP3   OH223270   4.963   0.650   3.045
 7769TIP3    H123271   4.965   0.665   2.951
 7769TIP3    H223272   4.870   0.647   3.067
 7770TIP3   OH223273   6.847  -0.013   0.410
 7770TIP3    H123274   6.932  -0.010   0.453
 7770TIP3    H223275   6.795   0.054   0.454
 7771TIP3   OH223276   5.236   5.510   3.352
 7771TIP3    H123277   5.235   5.568   3.428
 7771TIP3    H223278   5.157   5.457   3.361
 7772TIP3   OH223279   6.386   1.005   0.104
 7772TIP3    H123280   6.296   0.998   0.134
 7772TIP3    H223281   6.431   0.931   0.144
 7773TIP3   OH223282   4.118   6.816   2.913
 7773TIP3    H123283   4.208   6.845   2.902
 7773TIP3    H223284   4.124   6.720   2.916
 7774TIP3   OH223285   2.422   3.974   1.884
 7774TIP3    H123286   2.354   3.907   1.878
 7774TIP3    H223287   2.440   3.998   1.793
 7775TIP3   OH223288   0.627   6.411   4.754
 7775TIP3    H123289   0.542   6.413   4.711
 7775TIP3    H223290   0.674   6.338   4.712
 7776TIP3   OH223291   2.691   3.783   3.954
 7776TIP3    H123292   2.645   3.866   3.949
 7776TIP3    H223293   2.691   3.750   3.864
 7777TIP3   OH223294   6.815   2.912   3.667
 7777TIP3    H123295   6.866   2.990   3.689
 7777TIP3    H223296   6.812   2.910   3.572
 7778TIP3   OH223297   6.018   4.042   2.434
 7778TIP3    H123298   6.015   4.031   2.529
 7778TIP3    H223299   6.046   4.132   2.421
 7779TIP3   OH223300   5.450   2.853   4.830
 7779TIP3    H123301   5.494   2.810   4.757
 7779TIP3    H223302   5.520   2.900   4.876
 7780TIP3   OH223303   1.665   5.308   5.266
 7780TIP3    H123304   1.699   5.395   5.242
 7780TIP3    H223305   1.582   5.302   5.218
 7781TIP3   OH223306   2.381   4.403   5.627
 7781TIP3    H123307   2.335   4.382   5.708
 7781TIP3    H223308   2.323   4.465   5.582
 7782TIP3   OH223309   0.460   1.403   2.888
 7782TIP3    H123310   0.475   1.469   2.820
 7782TIP3    H223311   0.511   1.327   2.858
 7783TIP3   OH223312   3.642   3.872   2.951
 7783TIP3    H123313   3.699   3.827   3.014
 7783TIP3    H223314   3.614   3.951   2.997
 7784TIP3   OH223315   1.510   4.826   4.891
 7784TIP3    H123316   1.455   4.888   4.843
 7784TIP3    H223317   1.511   4.859   4.980
 7785TIP3   OH223318   3.703   2.404   5.893
 7785TIP3    H123319   3.619   2.361   5.881
 7785TIP3    H223320   3.762   2.360   5.832
 7786TIP3   OH223321   3.289   1.556   2.737
 7786TIP3    H123322   3.201   1.528   2.713
 7786TIP3    H223323   3.345   1.525   2.666
 7787TIP3   OH223324   1.651   3.594   2.899
 7787TIP3    H123325   1.586   3.527   2.877
 7787TIP3    H223326   1.654   3.651   2.822
 7788TIP3   OH223327   6.289   2.573   2.225
 7788TIP3    H123328   6.223   2.504   2.221
 7788TIP3    H223329   6.368   2.530   2.258
 7789TIP3   OH223330   1.556   4.065   1.782
 7789TIP3    H123331   1.505   4.109   1.850
 7789TIP3    H223332   1.646   4.094   1.795
 7790TIP3   OH223333   1.317   0.461   5.673
 7790TIP3    H123334   1.410   0.476   5.687
 7790TIP3    H223335   1.277   0.548   5.682
 7791TIP3   OH223336   1.914   5.586   1.229
 7791TIP3    H123337   1.854   5.660   1.230
 7791TIP3    H223338   1.989   5.616   1.178
 7792TIP3   OH223339   1.024   3.892   1.196
 7792TIP3    H123340   1.080   3.815   1.206
 7792TIP3    H223341   0.996   3.890   1.105
 7793TIP3   OH223342   5.387   5.668   5.842
 7793TIP3    H123343   5.367   5.733   5.909
 7793TIP3    H223344   5.358   5.708   5.760
 7794TIP3   OH223345   5.102   5.238   2.629
 7794TIP3    H123346   5.154   5.236   2.549
 7794TIP3    H223347   5.161   5.272   2.696
 7795TIP3   OH223348   6.279   4.406   4.780
 7795TIP3    H123349   6.307   4.482   4.729
 7795TIP3    H223350   6.230   4.444   4.853
 7796TIP3   OH223351   6.061   1.841   1.339
 7796TIP3    H123352   6.060   1.874   1.249
 7796TIP3    H223353   6.137   1.784   1.343
 7797TIP3   OH223354   6.408   3.977   0.412
 7797TIP3    H123355   6.478   4.024   0.457
 7797TIP3    H223356   6.336   3.976   0.475
 7798TIP3   OH223357   2.644   3.375   3.906
 7798TIP3    H123358   2.737   3.364   3.927
 7798TIP3    H223359   2.642   3.375   3.810
 7799TIP3   OH223360   3.891   4.306   1.573
 7799TIP3    H123361   3.954   4.350   1.517
 7799TIP3    H223362   3.819   4.369   1.582
 7800TIP3   OH223363   2.353   6.274   5.864
 7800TIP3    H123364   2.333   6.282   5.958
 7800TIP3    H223365   2.443   6.242   5.862
 7801TIP3   OH223366   6.991   5.019   0.414
 7801TIP3    H123367   7.007   5.005   0.507
 7801TIP3    H223368   7.075   4.999   0.372
 7802TIP3   OH223369   6.774   0.234   4.945
 7802TIP3    H123370   6.828   0.255   4.869
 7802TIP3    H223371   6.799   0.145   4.969
 7803TIP3   OH223372   5.080   0.320   4.171
 7803TIP3    H123373   5.119   0.377   4.104
 7803TIP3    H223374   4.985   0.331   4.159
 7804TIP3   OH223375   2.120   1.696   4.438
 7804TIP3    H123376   2.108   1.787   4.465
 7804TIP3    H223377   2.192   1.699   4.375
 7805TIP3   OH223378   4.495   3.668   3.732
 7805TIP3    H123379   4.501   3.702   3.643
 7805TIP3    H223380   4.586   3.666   3.763
 7806TIP3   OH223381   2.921   3.064   3.538
 7806TIP3    H123382   3.010   3.037   3.516
 7806TIP3    H223383   2.865   3.019   3.475
 7807TIP3   OH223384   6.159   1.678   4.648
 7807TIP3    H123385   6.159   1.631   4.564
 7807TIP3    H223386   6.138   1.612   4.713
 7808TIP3   OH223387   1.447   2.663   2.983
 7808TIP3    H123388   1.438   2.588   2.924
 7808TIP3    H223389   1.399   2.734   2.940
 7809TIP3   OH223390   5.108   3.485   3.571
 7809TIP3    H123391   5.047   3.462   3.501
 7809TIP3    H223392   5.178   3.534   3.527
 7810TIP3   OH223393   5.558   4.922   5.399
 7810TIP3    H123394   5.631   4.984   5.399
 7810TIP3    H223395   5.573   4.868   5.322
 7811TIP3   OH223396   0.518   1.071   2.212
 7811TIP3    H123397   0.568   1.121   2.277
 7811TIP3    H223398   0.445   1.129   2.189
 7812TIP3   OH223399   4.621   6.164   5.554
 7812TIP3    H123400   4.709   6.170   5.516
 7812TIP3    H223401   4.611   6.245   5.604
 7813TIP3   OH223402   6.266   0.378   0.888
 7813TIP3    H123403   6.223   0.463   0.878
 7813TIP3    H223404   6.208   0.317   0.840
 7814TIP3   OH223405   6.845   0.923   1.974
 7814TIP3    H123406   6.909   0.983   1.934
 7814TIP3    H223407   6.848   0.845   1.919
 7815TIP3   OH223408   3.348   3.525   0.788
 7815TIP3    H123409   3.415   3.458   0.778
 7815TIP3    H223410   3.354   3.577   0.708
 7816TIP3   OH223411   0.542   4.692   3.005
 7816TIP3    H123412   0.607   4.663   3.070
 7816TIP3    H223413   0.585   4.676   2.921
 7817TIP3   OH223414   0.388   2.626   0.206
 7817TIP3    H123415   0.341   2.631   0.289
 7817TIP3    H223416   0.344   2.555   0.158
 7818TIP3   OH223417   0.327   5.418   2.676
 7818TIP3    H123418   0.394   5.445   2.614
 7818TIP3    H223419   0.277   5.351   2.629
 7819TIP3   OH223420   4.615   6.639   2.332
 7819TIP3    H123421   4.539   6.692   2.308
 7819TIP3    H223422   4.586   6.587   2.407
 7820TIP3   OH223423   2.977   2.657   5.679
 7820TIP3    H123424   3.022   2.627   5.758
 7820TIP3    H223425   2.940   2.742   5.703
 7821TIP3   OH223426   0.982   4.157   5.880
 7821TIP3    H123427   0.925   4.220   5.925
 7821TIP3    H223428   1.071   4.187   5.899
 7822TIP3   OH223429   6.977   1.083   2.881
 7822TIP3    H123430   6.990   0.989   2.883
 7822TIP3    H223431   7.001   1.113   2.969
 7823TIP3   OH223432   0.874   2.020   3.918
 7823TIP3    H123433   0.788   1.982   3.938
 7823TIP3    H223434   0.886   2.002   3.824
 7824TIP3   OH223435   3.581   3.673   0.247
 7824TIP3    H123436   3.571   3.613   0.321
 7824TIP3    H223437   3.629   3.623   0.182
 7825TIP3   OH223438   3.687   5.528   0.735
 7825TIP3    H123439   3.715   5.446   0.775
 7825TIP3    H223440   3.685   5.510   0.641
 7826TIP3   OH223441   0.924   2.401   4.261
 7826TIP3    H123442   1.011   2.439   4.262
 7826TIP3    H223443   0.865   2.475   4.249
 7827TIP3   OH223444   2.161   6.388   1.096
 7827TIP3    H123445   2.191   6.461   1.149
 7827TIP3    H223446   2.240   6.342   1.068
 7828TIP3   OH223447   6.223   5.657   0.192
 7828TIP3    H123448   6.215   5.743   0.150
 7828TIP3    H223449   6.186   5.596   0.129
 7829TIP3   OH223450  -0.004   2.256   2.707
 7829TIP3    H123451  -0.090   2.240   2.670
 7829TIP3    H223452   0.042   2.306   2.639
 7830TIP3   OH223453   6.705   3.718   0.065
 7830TIP3    H123454   6.720   3.781  -0.006
 7830TIP3    H223455   6.690   3.773   0.142
 7831TIP3   OH223456   2.851   3.076   5.315
 7831TIP3    H123457   2.881   3.088   5.225
 7831TIP3    H223458   2.799   3.155   5.333
 7832TIP3   OH223459   0.840   1.801   0.102
 7832TIP3    H123460   0.909   1.864   0.120
 7832TIP3    H223461   0.869   1.755   0.023
 7833TIP3   OH223462   1.469   3.395   4.230
 7833TIP3    H123463   1.528   3.322   4.246
 7833TIP3    H223464   1.392   3.376   4.284
 7834TIP3   OH223465   6.408   4.435   0.660
 7834TIP3    H123466   6.383   4.478   0.578
 7834TIP3    H223467   6.379   4.344   0.649
 7835TIP3   OH223468   2.663   6.552   2.660
 7835TIP3    H123469   2.643   6.643   2.640
 7835TIP3    H223470   2.757   6.551   2.675
 7836TIP3   OH223471   0.379   6.429   3.776
 7836TIP3    H123472   0.439   6.417   3.702
 7836TIP3    H223473   0.436   6.450   3.850
 7837TIP3   OH223474   1.880   3.384   3.962
 7837TIP3    H123475   1.791   3.410   3.937
 7837TIP3    H223476   1.919   3.464   3.996
 7838TIP3   OH223477   2.153   5.689   2.091
 7838TIP3    H123478   2.180   5.672   2.000
 7838TIP3    H223479   2.155   5.784   2.099
 7839TIP3   OH223480   0.883   0.093   0.333
 7839TIP3    H123481   0.813   0.139   0.379
 7839TIP3    H223482   0.964   0.133   0.366
 7840TIP3   OH223483   2.197   6.129   1.821
 7840TIP3    H123484   2.198   6.081   1.738
 7840TIP3    H223485   2.169   6.218   1.798
 7841TIP3   OH223486   2.855   1.312   4.000
 7841TIP3    H123487   2.775   1.267   4.030
 7841TIP3    H223488   2.829   1.358   3.921
 7842TIP3   OH223489   2.320   6.389   3.029
 7842TIP3    H123490   2.383   6.330   2.987
 7842TIP3    H223491   2.373   6.443   3.087
 7843TIP3   OH223492   0.893   3.475   4.806
 7843TIP3    H123493   0.976   3.428   4.791
 7843TIP3    H223494   0.874   3.516   4.722
 7844TIP3   OH223495   7.021   2.998   0.271
 7844TIP3    H123496   7.003   3.066   0.206
 7844TIP3    H223497   6.971   3.026   0.348
 7845TIP3   OH223498   2.161   4.058   2.959
 7845TIP3    H123499   2.089   4.044   3.020
 7845TIP3    H223500   2.126   4.118   2.894
 7846TIP3   OH223501   6.855   3.802   2.739
 7846TIP3    H123502   6.778   3.858   2.742
 7846TIP3    H223503   6.882   3.792   2.830
 7847TIP3   OH223504   5.486   0.283   5.438
 7847TIP3    H123505   5.572   0.278   5.479
 7847TIP3    H223506   5.485   0.211   5.374
 7848TIP3   OH223507   4.603   5.794   2.530
 7848TIP3    H123508   4.530   5.843   2.491
 7848TIP3    H223509   4.673   5.859   2.537
 7849TIP3   OH223510   4.368   6.551   2.085
 7849TIP3    H123511   4.347   6.459   2.101
 7849TIP3    H223512   4.411   6.551   2.000
 7850TIP3   OH223513   6.234   6.483   4.046
 7850TIP3    H123514   6.213   6.390   4.039
 7850TIP3    H223515   6.169   6.518   4.107
 7851TIP3   OH223516   4.152   3.378   4.938
 7851TIP3    H123517   4.145   3.311   5.006
 7851TIP3    H223518   4.198   3.333   4.866
 7852TIP3   OH223519   3.100   3.835   3.005
 7852TIP3    H123520   3.158   3.840   3.081
 7852TIP3    H223521   3.107   3.921   2.964
 7853TIP3   OH223522   2.006   3.589   3.361
 7853TIP3    H123523   2.082   3.642   3.337
 7853TIP3    H223524   2.001   3.521   3.294
 7854TIP3   OH223525   5.540   0.888   4.434
 7854TIP3    H123526   5.480   0.819   4.465
 7854TIP3    H223527   5.503   0.968   4.470
 7855TIP3   OH223528   5.313   4.060   5.310
 7855TIP3    H123529   5.366   4.134   5.336
 7855TIP3    H223530   5.251   4.095   5.246
 7856TIP3   OH223531   6.411   3.015   0.133
 7856TIP3    H123532   6.331   3.066   0.117
 7856TIP3    H223533   6.379   2.935   0.176
 7857TIP3   OH223534   3.920   2.938   0.452
 7857TIP3    H123535   3.938   2.844   0.461
 7857TIP3    H223536   3.838   2.941   0.403
 7858TIP3   OH223537   2.919   1.542   1.941
 7858TIP3    H123538   2.902   1.636   1.935
 7858TIP3    H223539   2.933   1.527   2.035
 7859TIP3   OH223540   4.654   4.176   1.364
 7859TIP3    H123541   4.651   4.157   1.270
 7859TIP3    H223542   4.746   4.195   1.382
 7860TIP3   OH223543   0.275   3.464   1.300
 7860TIP3    H123544   0.223   3.538   1.270
 7860TIP3    H223545   0.351   3.463   1.242
 7861TIP3   OH223546   6.790   0.093   2.900
 7861TIP3    H123547   6.791   0.178   2.945
 7861TIP3    H223548   6.835   0.034   2.961
 7862TIP3   OH223549   3.917   6.590   1.576
 7862TIP3    H123550   3.844   6.529   1.563
 7862TIP3    H223551   3.883   6.654   1.638
 7863TIP3   OH223552   4.085   1.759   3.649
 7863TIP3    H123553   4.008   1.792   3.605
 7863TIP3    H223554   4.092   1.812   3.729
 7864TIP3   OH223555   2.729   5.944   0.399
 7864TIP3    H123556   2.746   6.038   0.407
 7864TIP3    H223557   2.634   5.938   0.387
 7865TIP3   OH223558   0.429   1.523   0.640
 7865TIP3    H123559   0.383   1.603   0.615
 7865TIP3    H223560   0.369   1.479   0.700
 7866TIP3   OH223561   5.561   1.180   5.846
 7866TIP3    H123562   5.558   1.272   5.872
 7866TIP3    H223563   5.479   1.166   5.798
 7867TIP3   OH223564   1.337   5.946   1.177
 7867TIP3    H123565   1.384   5.973   1.099
 7867TIP3    H223566   1.245   5.945   1.150
 7868TIP3   OH223567   4.190   3.971   4.546
 7868TIP3    H123568   4.205   3.980   4.640
 7868TIP3    H223569   4.262   4.019   4.505
 7869TIP3   OH223570   4.522   3.635   4.863
 7869TIP3    H123571   4.443   3.596   4.901
 7869TIP3    H223572   4.591   3.614   4.926
 7870TIP3   OH223573   7.074   4.700   2.014
 7870TIP3    H123574   6.991   4.705   1.966
 7870TIP3    H223575   7.072   4.775   2.074
 7871TIP3   OH223576   2.772   5.605   2.156
 7871TIP3    H123577   2.758   5.660   2.233
 7871TIP3    H223578   2.803   5.522   2.191
 7872TIP3   OH223579   3.933   5.450   2.340
 7872TIP3    H123580   3.968   5.516   2.280
 7872TIP3    H223581   3.942   5.489   2.427
 7873TIP3   OH223582   1.870   2.329   3.963
 7873TIP3    H123583   1.927   2.384   3.911
 7873TIP3    H223584   1.899   2.343   4.053
 7874TIP3   OH223585   2.249   1.815   1.591
 7874TIP3    H123586   2.224   1.908   1.597
 7874TIP3    H223587   2.238   1.793   1.498
 7875TIP3   OH223588   1.534   5.846   1.825
 7875TIP3    H123589   1.604   5.907   1.798
 7875TIP3    H223590   1.466   5.856   1.759
 7876TIP3   OH223591   6.694   2.515   4.158
 7876TIP3    H123592   6.668   2.600   4.123
 7876TIP3    H223593   6.645   2.451   4.106
 7877TIP3   OH223594   5.893   0.494   0.090
 7877TIP3    H123595   5.811   0.446   0.101
 7877TIP3    H223596   5.867   0.576   0.047
 7878TIP3   OH223597   5.981   0.717   2.321
 7878TIP3    H123598   5.996   0.809   2.343
 7878TIP3    H223599   6.068   0.683   2.300
 7879TIP3   OH223600   3.257   1.875   4.601
 7879TIP3    H123601   3.277   1.895   4.692
 7879TIP3    H223602   3.199   1.945   4.573
 7880TIP3   OH223603   3.488   2.527   0.041
 7880TIP3    H123604   3.530   2.476   0.109
 7880TIP3    H223605   3.466   2.463  -0.027
 7881TIP3   OH223606   3.751   4.634   0.953
 7881TIP3    H123607   3.751   4.557   1.009
 7881TIP3    H223608   3.837   4.632   0.909
 7882TIP3   OH223609   6.083   4.218   3.549
 7882TIP3    H123610   5.998   4.177   3.566
 7882TIP3    H223611   6.065   4.283   3.481
 7883TIP3   OH223612   1.302   2.143   5.489
 7883TIP3    H123613   1.365   2.099   5.546
 7883TIP3    H223614   1.290   2.083   5.416
 7884TIP3   OH223615   4.978   2.282   1.508
 7884TIP3    H123616   4.944   2.207   1.461
 7884TIP3    H223617   4.902   2.337   1.525
 7885TIP3   OH223618   1.236   6.606   2.899
 7885TIP3    H123619   1.222   6.669   2.829
 7885TIP3    H223620   1.222   6.520   2.859
 7886TIP3   OH223621   0.281   5.376   3.178
 7886TIP3    H123622   0.189   5.395   3.163
 7886TIP3    H223623   0.325   5.403   3.097
 7887TIP3   OH223624   3.304   3.457   1.055
 7887TIP3    H123625   3.297   3.496   0.968
 7887TIP3    H223626   3.388   3.411   1.054
 7888TIP3   OH223627   5.549   5.964   3.643
 7888TIP3    H123628   5.486   5.959   3.571
 7888TIP3    H223629   5.529   5.888   3.698
 7889TIP3   OH223630   2.548   5.124   1.368
 7889TIP3    H123631   2.613   5.191   1.390
 7889TIP3    H223632   2.468   5.153   1.413
 7890TIP3   OH223633   3.086   1.870   1.919
 7890TIP3    H123634   3.083   1.899   1.828
 7890TIP3    H223635   2.999   1.835   1.936
 7891TIP3   OH223636   1.075   2.292   3.008
 7891TIP3    H123637   1.087   2.318   3.099
 7891TIP3    H223638   1.128   2.213   2.998
 7892TIP3   OH223639   4.533   0.341   2.540
 7892TIP3    H123640   4.614   0.362   2.585
 7892TIP3    H223641   4.548   0.367   2.449
 7893TIP3   OH223642   0.866   2.692   0.080
 7893TIP3    H123643   0.943   2.650   0.117
 7893TIP3    H223644   0.806   2.701   0.154
 7894TIP3   OH223645   6.079   2.904   2.691
 7894TIP3    H123646   6.005   2.955   2.658
 7894TIP3    H223647   6.146   2.969   2.712
 7895TIP3   OH223648   3.879   3.878   1.714
 7895TIP3    H123649   3.882   3.974   1.714
 7895TIP3    H223650   3.899   3.853   1.804
 7896TIP3   OH223651   1.075   1.175   3.472
 7896TIP3    H123652   1.123   1.115   3.415
 7896TIP3    H223653   0.997   1.199   3.421
 7897TIP3   OH223654   1.183   5.880   5.365
 7897TIP3    H123655   1.118   5.951   5.367
 7897TIP3    H223656   1.249   5.910   5.302
 7898TIP3   OH223657   2.772   6.481   4.748
 7898TIP3    H123658   2.754   6.480   4.842
 7898TIP3    H223659   2.864   6.457   4.742
 7899TIP3   OH223660   5.261   1.053   4.165
 7899TIP3    H123661   5.250   1.082   4.074
 7899TIP3    H223662   5.336   1.101   4.197
 7900TIP3   OH223663   1.293   6.229   3.832
 7900TIP3    H123664   1.323   6.139   3.829
 7900TIP3    H223665   1.312   6.264   3.744
 7901TIP3   OH223666   1.517   3.405   2.770
 7901TIP3    H123667   1.507   3.319   2.810
 7901TIP3    H223668   1.488   3.392   2.679
 7902TIP3   OH223669   0.283   6.135   1.481
 7902TIP3    H123670   0.269   6.110   1.572
 7902TIP3    H223671   0.375   6.114   1.465
 7903TIP3   OH223672   2.087   1.895   0.895
 7903TIP3    H123673   2.141   1.826   0.856
 7903TIP3    H223674   2.036   1.850   0.962
 7904TIP3   OH223675   0.966   0.926   4.650
 7904TIP3    H123676   0.922   0.841   4.649
 7904TIP3    H223677   1.058   0.905   4.667
 7905TIP3   OH223678   4.523   6.793   5.379
 7905TIP3    H123679   4.513   6.883   5.348
 7905TIP3    H223680   4.614   6.789   5.410
 7906TIP3   OH223681   4.742   2.372   4.700
 7906TIP3    H123682   4.654   2.406   4.716
 7906TIP3    H223683   4.757   2.311   4.773
 7907TIP3   OH223684   0.344   3.794   3.328
 7907TIP3    H123685   0.278   3.740   3.283
 7907TIP3    H223686   0.420   3.792   3.269
 7908TIP3   OH223687   5.442   1.442   2.492
 7908TIP3    H123688   5.461   1.535   2.475
 7908TIP3    H223689   5.362   1.444   2.545
 7909TIP3   OH223690   1.538   0.749   1.119
 7909TIP3    H123691   1.582   0.815   1.173
 7909TIP3    H223692   1.599   0.675   1.117
 7910TIP3   OH223693   4.356   1.092   2.965
 7910TIP3    H123694   4.370   1.106   3.059
 7910TIP3    H223695   4.309   1.009   2.960
 7911TIP3   OH223696   4.495   2.503   0.828
 7911TIP3    H123697   4.576   2.513   0.877
 7911TIP3    H223698   4.519   2.525   0.737
 7912TIP3   OH223699   2.599   2.184   3.454
 7912TIP3    H123700   2.680   2.227   3.423
 7912TIP3    H223701   2.548   2.170   3.374
 7913TIP3   OH223702   0.557   2.806   0.753
 7913TIP3    H123703   0.644   2.842   0.738
 7913TIP3    H223704   0.516   2.867   0.814
 7914TIP3   OH223705   2.878   5.427   3.849
 7914TIP3    H123706   2.952   5.482   3.824
 7914TIP3    H223707   2.876   5.357   3.783
 7915TIP3   OH223708   0.475   2.081   4.456
 7915TIP3    H123709   0.535   2.090   4.382
 7915TIP3    H223710   0.443   2.170   4.471
 7916TIP3   OH223711   3.442   3.650   5.855
 7916TIP3    H123712   3.514   3.714   5.860
 7916TIP3    H223713   3.464   3.585   5.921
 7917TIP3   OH223714   5.188   6.209   5.559
 7917TIP3    H123715   5.096   6.198   5.537
 7917TIP3    H223716   5.203   6.303   5.554
 7918TIP3   OH223717   5.187   5.589   0.964
 7918TIP3    H123718   5.263   5.632   1.002
 7918TIP3    H223719   5.201   5.496   0.983
 7919TIP3   OH223720   1.934   2.369   5.543
 7919TIP3    H123721   1.855   2.324   5.572
 7919TIP3    H223722   1.970   2.314   5.474
 7920TIP3   OH223723   0.916   5.268   3.514
 7920TIP3    H123724   0.885   5.351   3.550
 7920TIP3    H223725   0.905   5.278   3.419
 7921TIP3   OH223726   3.169   3.691   5.818
 7921TIP3    H123727   3.173   3.643   5.735
 7921TIP3    H223728   3.241   3.653   5.870
 7922TIP3   OH223729   0.951   1.244   2.916
 7922TIP3    H123730   0.949   1.338   2.936
 7922TIP3    H223731   1.043   1.226   2.896
 7923TIP3   OH223732   0.531   3.228   0.196
 7923TIP3    H123733   0.600   3.259   0.138
 7923TIP3    H223734   0.458   3.287   0.181
 7924TIP3   OH223735   5.806   1.735   2.476
 7924TIP3    H123736   5.824   1.782   2.395
 7924TIP3    H223737   5.892   1.705   2.507
 7925TIP3   OH223738   6.690   6.538   3.467
 7925TIP3    H123739   6.636   6.463   3.493
 7925TIP3    H223740   6.712   6.582   3.549
 7926TIP3   OH223741   3.565   5.616   3.444
 7926TIP3    H123742   3.653   5.589   3.472
 7926TIP3    H223743   3.509   5.600   3.520
 7927TIP3   OH223744   1.142   6.293   4.762
 7927TIP3    H123745   1.061   6.281   4.713
 7927TIP3    H223746   1.149   6.214   4.816
 7928TIP3   OH223747   6.016   1.564   1.128
 7928TIP3    H123748   6.031   1.580   1.035
 7928TIP3    H223749   6.098   1.591   1.170
 7929TIP3   OH223750   2.003   2.146   5.399
 7929TIP3    H123751   1.924   2.096   5.376
 7929TIP3    H223752   2.068   2.121   5.334
 7930TIP3   OH223753   4.696   3.486   1.896
 7930TIP3    H123754   4.722   3.556   1.956
 7930TIP3    H223755   4.647   3.424   1.950
 7931TIP3   OH223756   2.070   4.378   4.898
 7931TIP3    H123757   2.151   4.428   4.907
 7931TIP3    H223758   2.069   4.319   4.974
 7932TIP3   OH223759   4.571   6.697   3.574
 7932TIP3    H123760   4.594   6.725   3.662
 7932TIP3    H223761   4.614   6.612   3.564
 7933TIP3   OH223762   6.530   5.590   3.300
 7933TIP3    H123763   6.487   5.505   3.305
 7933TIP3    H223764   6.551   5.611   3.391
 7934TIP3   OH223765   3.824   4.591   4.458
 7934TIP3    H123766   3.788   4.533   4.525
 7934TIP3    H223767   3.919   4.590   4.474
 7935TIP3   OH223768   3.710   5.143   5.377
 7935TIP3    H123769   3.733   5.116   5.466
 7935TIP3    H223770   3.789   5.184   5.343
 7936TIP3   OH223771   0.997   0.246   5.877
 7936TIP3    H123772   0.949   0.211   5.952
 7936TIP3    H223773   1.088   0.253   5.908
 7937TIP3   OH223774   0.550   6.002   5.173
 7937TIP3    H123775   0.592   6.024   5.256
 7937TIP3    H223776   0.488   5.932   5.194
 7938TIP3   OH223777   4.882   4.781   4.027
 7938TIP3    H123778   4.870   4.866   4.070
 7938TIP3    H223779   4.795   4.758   3.995
 7939TIP3   OH223780   3.041   4.761   4.748
 7939TIP3    H123781   3.115   4.711   4.715
 7939TIP3    H223782   3.062   4.776   4.841
 7940TIP3   OH223783   0.948   1.798   5.576
 7940TIP3    H123784   0.868   1.799   5.628
 7940TIP3    H223785   0.941   1.874   5.519
 7941TIP3   OH223786   6.702   2.031   4.507
 7941TIP3    H123787   6.777   2.001   4.455
 7941TIP3    H223788   6.714   1.989   4.592
 7942TIP3   OH223789   7.100   5.741   3.470
 7942TIP3    H123790   7.130   5.801   3.402
 7942TIP3    H223791   7.180   5.696   3.499
 7943TIP3   OH223792   4.580   6.535   4.485
 7943TIP3    H123793   4.587   6.549   4.580
 7943TIP3    H223794   4.667   6.505   4.459
 7944TIP3   OH223795   1.044   3.979   3.506
 7944TIP3    H123796   1.032   3.937   3.421
 7944TIP3    H223797   1.137   4.003   3.508
 7945TIP3   OH223798   4.158   4.005   1.840
 7945TIP3    H123799   4.240   4.051   1.858
 7945TIP3    H223800   4.091   4.074   1.844
 7946TIP3   OH223801   1.862   0.198   5.160
 7946TIP3    H123802   1.830   0.116   5.121
 7946TIP3    H223803   1.953   0.204   5.131
 7947TIP3   OH223804   2.445   4.038   3.067
 7947TIP3    H123805   2.369   4.071   3.019
 7947TIP3    H223806   2.481   4.114   3.111
 7948TIP3   OH223807   0.675   4.951   3.017
 7948TIP3    H123808   0.613   4.880   2.999
 7948TIP3    H223809   0.620   5.029   3.027
 7949TIP3   OH223810   3.212   0.665   1.055
 7949TIP3    H123811   3.236   0.684   1.145
 7949TIP3    H223812   3.125   0.626   1.060
 7950TIP3   OH223813   6.531   4.779   0.651
 7950TIP3    H123814   6.481   4.849   0.692
 7950TIP3    H223815   6.472   4.742   0.585
 7951TIP3   OH223816   4.149   2.598   4.510
 7951TIP3    H123817   4.201   2.597   4.591
 7951TIP3    H223818   4.069   2.644   4.534
 7952TIP3   OH223819   5.838   5.387   0.314
 7952TIP3    H123820   5.903   5.323   0.345
 7952TIP3    H223821   5.754   5.345   0.332
 7953TIP3   OH223822   2.491   0.151   1.290
 7953TIP3    H123823   2.573   0.172   1.246
 7953TIP3    H223824   2.474   0.059   1.268
 7954TIP3   OH223825   0.876   0.667   4.697
 7954TIP3    H123826   0.928   0.608   4.643
 7954TIP3    H223827   0.811   0.611   4.738
 7955TIP3   OH223828   4.677   0.488   0.459
 7955TIP3    H123829   4.737   0.549   0.416
 7955TIP3    H223830   4.594   0.535   0.465
 7956TIP3   OH223831   5.168   5.771   0.449
 7956TIP3    H123832   5.122   5.848   0.415
 7956TIP3    H223833   5.258   5.799   0.460
 7957TIP3   OH223834   5.348   5.424   3.948
 7957TIP3    H123835   5.338   5.329   3.940
 7957TIP3    H223836   5.260   5.458   3.930
 7958TIP3   OH223837   0.097   6.237   3.121
 7958TIP3    H123838   0.161   6.168   3.133
 7958TIP3    H223839   0.144   6.317   3.145
 7959TIP3   OH223840   7.050   6.533   5.700
 7959TIP3    H123841   7.117   6.593   5.668
 7959TIP3    H223842   7.030   6.565   5.788
 7960TIP3   OH223843   2.182   4.116   4.701
 7960TIP3    H123844   2.128   4.104   4.624
 7960TIP3    H223845   2.123   4.154   4.767
 7961TIP3   OH223846   4.304   1.422   4.288
 7961TIP3    H123847   4.314   1.385   4.201
 7961TIP3    H223848   4.385   1.472   4.302
 7962TIP3   OH223849   4.857   3.960   0.018
 7962TIP3    H123850   4.842   4.008  -0.063
 7962TIP3    H223851   4.831   4.021   0.087
 7963TIP3   OH223852   4.923   4.204   4.012
 7963TIP3    H123853   4.830   4.218   4.032
 7963TIP3    H223854   4.924   4.131   3.951
 7964TIP3   OH223855   5.575   2.741   4.610
 7964TIP3    H123856   5.603   2.659   4.568
 7964TIP3    H223857   5.581   2.807   4.540
 7965TIP3   OH223858   5.748   0.635   1.545
 7965TIP3    H123859   5.674   0.600   1.595
 7965TIP3    H223860   5.826   0.599   1.588
 7966TIP3   OH223861   5.805   0.577   3.148
 7966TIP3    H123862   5.894   0.567   3.182
 7966TIP3    H223863   5.753   0.518   3.202
 7967TIP3   OH223864   2.096   2.017   4.809
 7967TIP3    H123865   2.130   2.057   4.889
 7967TIP3    H223866   2.043   2.085   4.768
 7968TIP3   OH223867   3.172   1.089   0.484
 7968TIP3    H123868   3.146   1.144   0.410
 7968TIP3    H223869   3.092   1.078   0.534
 7969TIP3   OH223870   3.110   4.525   0.951
 7969TIP3    H123871   3.127   4.615   0.921
 7969TIP3    H223872   3.184   4.475   0.917
 7970TIP3   OH223873   5.242   4.906   1.345
 7970TIP3    H123874   5.335   4.897   1.328
 7970TIP3    H223875   5.235   4.917   1.440
 7971TIP3   OH223876   3.614   4.786   2.993
 7971TIP3    H123877   3.697   4.807   2.950
 7971TIP3    H223878   3.581   4.870   3.023
 7972TIP3   OH223879   0.059   3.669   3.131
 7972TIP3    H123880   0.023   3.589   3.093
 7972TIP3    H223881   0.117   3.703   3.064
 7973TIP3   OH223882   5.349   1.748   3.616
 7973TIP3    H123883   5.295   1.737   3.694
 7973TIP3    H223884   5.287   1.750   3.543
 7974TIP3   OH223885   5.177   0.177   0.928
 7974TIP3    H123886   5.159   0.139   0.842
 7974TIP3    H223887   5.249   0.238   0.913
 7975TIP3   OH223888   6.732   5.614   4.081
 7975TIP3    H123889   6.822   5.645   4.072
 7975TIP3    H223890   6.740   5.519   4.087
 7976TIP3   OH223891   4.400   2.127   5.374
 7976TIP3    H123892   4.339   2.069   5.419
 7976TIP3    H223893   4.473   2.138   5.435
 7977TIP3   OH223894   4.133   0.337   5.532
 7977TIP3    H123895   4.139   0.244   5.510
 7977TIP3    H223896   4.063   0.342   5.597
 7978TIP3   OH223897   4.140   0.076   2.155
 7978TIP3    H123898   4.192   0.019   2.211
 7978TIP3    H223899   4.196   0.151   2.137
 7979TIP3   OH223900   5.682   6.496   2.696
 7979TIP3    H123901   5.589   6.516   2.706
 7979TIP3    H223902   5.691   6.406   2.728
 7980TIP3   OH223903   1.853   6.616   0.401
 7980TIP3    H123904   1.850   6.595   0.495
 7980TIP3    H223905   1.837   6.710   0.397
 7981TIP3   OH223906   7.182   4.726   4.269
 7981TIP3    H123907   7.243   4.655   4.249
 7981TIP3    H223908   7.178   4.727   4.365
 7982TIP3   OH223909   5.539   6.766   2.681
 7982TIP3    H123910   5.502   6.693   2.630
 7982TIP3    H223911   5.468   6.830   2.687
 7983TIP3   OH223912   5.713   2.951   3.652
 7983TIP3    H123913   5.740   3.036   3.616
 7983TIP3    H223914   5.650   2.973   3.720
 7984TIP3   OH223915   6.333   3.833   1.312
 7984TIP3    H123916   6.370   3.921   1.323
 7984TIP3    H223917   6.325   3.823   1.217
 7985TIP3   OH223918   4.738   4.074   1.835
 7985TIP3    H123919   4.696   4.072   1.921
 7985TIP3    H223920   4.770   4.164   1.826
 7986TIP3   OH223921   2.642   2.355   1.902
 7986TIP3    H123922   2.673   2.378   1.814
 7986TIP3    H223923   2.684   2.419   1.960
 7987TIP3   OH223924   2.708   6.203   1.908
 7987TIP3    H123925   2.719   6.164   1.822
 7987TIP3    H223926   2.615   6.225   1.912
 7988TIP3   OH223927   0.616   6.043   5.433
 7988TIP3    H123928   0.551   5.976   5.455
 7988TIP3    H223929   0.687   6.028   5.495
 7989TIP3   OH223930   4.293   6.603   3.533
 7989TIP3    H123931   4.374   6.646   3.558
 7989TIP3    H223932   4.228   6.634   3.596
 7990TIP3   OH223933   0.909   0.168   3.260
 7990TIP3    H123934   0.849   0.150   3.333
 7990TIP3    H223935   0.963   0.089   3.253
 7991TIP3   OH223936   1.831   0.630   3.247
 7991TIP3    H123937   1.779   0.661   3.173
 7991TIP3    H223938   1.766   0.610   3.315
 7992TIP3   OH223939   5.086   1.197   2.012
 7992TIP3    H123940   5.089   1.225   1.920
 7992TIP3    H223941   4.998   1.160   2.023
 7993TIP3   OH223942   4.456   5.663   2.987
 7993TIP3    H123943   4.483   5.749   3.020
 7993TIP3    H223944   4.445   5.610   3.066
 7994TIP3   OH223945   2.667   5.860   4.342
 7994TIP3    H123946   2.726   5.871   4.267
 7994TIP3    H223947   2.725   5.865   4.418
 7995TIP3   OH223948   0.425   3.656   4.045
 7995TIP3    H123949   0.502   3.682   3.994
 7995TIP3    H223950   0.419   3.562   4.033
 7996TIP3   OH223951   5.830   3.781   3.788
 7996TIP3    H123952   5.857   3.847   3.724
 7996TIP3    H223953   5.859   3.698   3.752
 7997TIP3   OH223954   2.466   3.477   1.621
 7997TIP3    H123955   2.417   3.507   1.698
 7997TIP3    H223956   2.523   3.551   1.600
 7998TIP3   OH223957   4.930   1.360   3.364
 7998TIP3    H123958   4.955   1.273   3.394
 7998TIP3    H223959   4.979   1.374   3.284
 7999TIP3   OH223960   7.101   3.275   5.578
 7999TIP3    H123961   7.095   3.370   5.567
 7999TIP3    H223962   7.010   3.246   5.583
 8000TIP3   OH223963   2.752   1.841   1.291
 8000TIP3    H123964   2.664   1.807   1.302
 8000TIP3    H223965   2.757   1.914   1.353
 8001TIP3   OH223966   1.955   6.777   5.889
 8001TIP3    H123967   2.029   6.728   5.926
 8001TIP3    H223968   1.972   6.778   5.795
 8002TIP3   OH223969   5.975   6.146   3.544
 8002TIP3    H123970   5.904   6.210   3.557
 8002TIP3    H223971   5.943   6.067   3.587
 8003TIP3   OH223972   4.491   6.129   2.327
 8003TIP3    H123973   4.454   6.047   2.360
 8003TIP3    H223974   4.418   6.191   2.331
 8004TIP3   OH223975   3.512   4.545   3.088
 8004TIP3    H123976   3.547   4.632   3.066
 8004TIP3    H223977   3.579   4.484   3.058
 8005TIP3   OH223978   2.300   1.752   3.990
 8005TIP3    H123979   2.341   1.817   3.933
 8005TIP3    H223980   2.206   1.759   3.971
 8006TIP3   OH223981   3.894   4.829   2.616
 8006TIP3    H123982   3.889   4.811   2.522
 8006TIP3    H223983   3.964   4.893   2.625
 8007TIP3   OH223984   3.167   0.219   1.370
 8007TIP3    H123985   3.182   0.256   1.457
 8007TIP3    H223986   3.135   0.131   1.387
 8008TIP3   OH223987   3.101   1.736   4.156
 8008TIP3    H123988   3.068   1.781   4.078
 8008TIP3    H223989   3.044   1.659   4.164
 8009TIP3   OH223990   3.388   0.382   2.987
 8009TIP3    H123991   3.367   0.400   3.078
 8009TIP3    H223992   3.479   0.412   2.977
 8010TIP3   OH223993   6.203   5.383   4.852
 8010TIP3    H123994   6.159   5.320   4.909
 8010TIP3    H223995   6.144   5.394   4.778
 8011TIP3   OH223996   0.984   1.595   2.637
 8011TIP3    H123997   1.060   1.644   2.606
 8011TIP3    H223998   1.008   1.503   2.627
 8012TIP3   OH223999   4.365   4.989   1.044
 8012TIP3    H124000   4.450   4.987   1.089
 8012TIP3    H224001   4.384   5.027   0.958
 8013TIP3   OH224002   4.865   3.270   0.609
 8013TIP3    H124003   4.891   3.343   0.554
 8013TIP3    H224004   4.827   3.311   0.687
 8014TIP3   OH224005   0.123   6.324   5.433
 8014TIP3    H124006   0.041   6.370   5.414
 8014TIP3    H224007   0.097   6.253   5.493
 8015TIP3   OH224008   0.906   2.861   0.898
 8015TIP3    H124009   0.831   2.919   0.916
 8015TIP3    H224010   0.930   2.827   0.984
 8016TIP3   OH224011   0.367   4.459   1.408
 8016TIP3    H124012   0.423   4.525   1.449
 8016TIP3    H224013   0.385   4.467   1.315
 8017TIP3   OH224014   3.143   2.125   4.547
 8017TIP3    H124015   3.087   2.154   4.475
 8017TIP3    H224016   3.111   2.174   4.623
 8018TIP3   OH224017   3.563   5.248   1.595
 8018TIP3    H124018   3.633   5.272   1.534
 8018TIP3    H224019   3.541   5.329   1.640
 8019TIP3   OH224020   3.083   2.843   4.335
 8019TIP3    H124021   3.000   2.812   4.372
 8019TIP3    H224022   3.107   2.918   4.389
 8020TIP3   OH224023   4.374   5.971   2.700
 8020TIP3    H124024   4.388   5.880   2.674
 8020TIP3    H224025   4.279   5.984   2.691
 8021TIP3   OH224026   5.379   4.478   4.492
 8021TIP3    H124027   5.412   4.427   4.566
 8021TIP3    H224028   5.454   4.486   4.433
 8022TIP3   OH224029   2.126   2.307   4.054
 8022TIP3    H124030   2.083   2.358   4.122
 8022TIP3    H224031   2.091   2.218   4.064
 8023TIP3   OH224032   2.724   3.890   0.622
 8023TIP3    H124033   2.670   3.811   0.620
 8023TIP3    H224034   2.755   3.896   0.712
 8024TIP3   OH224035   4.464   4.071   4.409
 8024TIP3    H124036   4.427   4.121   4.337
 8024TIP3    H224037   4.545   4.116   4.430
 8025TIP3   OH224038   5.193   6.415   1.020
 8025TIP3    H124039   5.100   6.415   0.999
 8025TIP3    H224040   5.237   6.424   0.936
 8026TIP3   OH224041   4.357   1.743   5.242
 8026TIP3    H124042   4.374   1.768   5.151
 8026TIP3    H224043   4.282   1.796   5.267
 8027TIP3   OH224044   3.539   4.154   1.283
 8027TIP3    H124045   3.469   4.180   1.343
 8027TIP3    H224046   3.614   4.138   1.339
 8028TIP3   OH224047   1.282   6.460   5.453
 8028TIP3    H124048   1.336   6.476   5.530
 8028TIP3    H224049   1.329   6.502   5.381
 8029TIP3   OH224050   3.698   6.054   5.485
 8029TIP3    H124051   3.629   5.991   5.466
 8029TIP3    H224052   3.671   6.098   5.565
 8030TIP3   OH224053   3.131   5.729   0.331
 8030TIP3    H124054   3.111   5.740   0.424
 8030TIP3    H224055   3.074   5.791   0.286
 8031TIP3   OH224056   6.703   1.585   5.222
 8031TIP3    H124057   6.617   1.560   5.188
 8031TIP3    H224058   6.724   1.518   5.287
 8032TIP3   OH224059   0.614   5.398   2.658
 8032TIP3    H124060   0.674   5.369   2.590
 8032TIP3    H224061   0.554   5.324   2.670
 8033TIP3   OH224062   6.610   3.850   0.287
 8033TIP3    H124063   6.559   3.925   0.320
 8033TIP3    H224064   6.578   3.776   0.338
 8034TIP3   OH224065   1.330   6.210   4.146
 8034TIP3    H124066   1.334   6.296   4.105
 8034TIP3    H224067   1.387   6.155   4.092
 8035TIP3   OH224068   5.366   1.601   4.022
 8035TIP3    H124069   5.460   1.584   4.028
 8035TIP3    H224070   5.332   1.579   4.110
 8036TIP3   OH224071   5.398   4.141   0.948
 8036TIP3    H124072   5.312   4.158   0.909
 8036TIP3    H224073   5.461   4.164   0.880
 8037TIP3   OH224074   0.164   5.221   2.542
 8037TIP3    H124075   0.099   5.169   2.589
 8037TIP3    H224076   0.139   5.213   2.450
 8038TIP3   OH224077   5.730   4.191   0.859
 8038TIP3    H124078   5.686   4.267   0.897
 8038TIP3    H224079   5.711   4.120   0.920
 8039TIP3   OH224080   4.473   4.858   3.646
 8039TIP3    H124081   4.509   4.922   3.584
 8039TIP3    H224082   4.524   4.778   3.629
 8040TIP3   OH224083   1.781   3.965   5.840
 8040TIP3    H124084   1.693   4.001   5.826
 8040TIP3    H224085   1.840   4.035   5.813
 8041TIP3   OH224086   4.050   1.022   0.662
 8041TIP3    H124087   4.140   0.992   0.650
 8041TIP3    H224088   4.058   1.117   0.672
 8042TIP3   OH224089   6.143   5.088   2.200
 8042TIP3    H124090   6.089   5.152   2.153
 8042TIP3    H224091   6.224   5.084   2.150
 8043TIP3   OH224092   3.768   2.405   1.294
 8043TIP3    H124093   3.679   2.406   1.331
 8043TIP3    H224094   3.784   2.313   1.275
 8044TIP3   OH224095   4.993   1.224   1.354
 8044TIP3    H124096   5.019   1.312   1.329
 8044TIP3    H224097   4.959   1.185   1.274
 8045TIP3   OH224098   0.887   4.008   2.761
 8045TIP3    H124099   0.957   4.069   2.740
 8045TIP3    H224100   0.807   4.051   2.730
 8046TIP3   OH224101   2.491   0.666   3.142
 8046TIP3    H124102   2.460   0.642   3.055
 8046TIP3    H224103   2.415   0.707   3.183
 8047TIP3   OH224104   5.455   4.260   0.400
 8047TIP3    H124105   5.546   4.268   0.374
 8047TIP3    H224106   5.431   4.170   0.375
 8048TIP3   OH224107   4.674   2.042   2.297
 8048TIP3    H124108   4.743   1.984   2.265
 8048TIP3    H224109   4.681   2.120   2.242
 8049TIP3   OH224110   4.237   5.713   4.891
 8049TIP3    H124111   4.261   5.629   4.852
 8049TIP3    H224112   4.269   5.778   4.828
 8050TIP3   OH224113   2.448   6.748   5.556
 8050TIP3    H124114   2.525   6.769   5.609
 8050TIP3    H224115   2.456   6.803   5.478
 8051TIP3   OH224116   0.614   1.127   2.481
 8051TIP3    H124117   0.576   1.205   2.522
 8051TIP3    H224118   0.609   1.059   2.548
 8052TIP3   OH224119   5.912   4.317   5.778
 8052TIP3    H124120   5.933   4.364   5.697
 8052TIP3    H224121   5.996   4.310   5.824
 8053TIP3   OH224122   5.041   0.880   0.336
 8053TIP3    H124123   5.101   0.844   0.270
 8053TIP3    H224124   4.988   0.943   0.288
 8054TIP3   OH224125   3.142   0.695   5.060
 8054TIP3    H124126   3.065   0.716   5.112
 8054TIP3    H224127   3.110   0.693   4.970
 8055TIP3   OH224128   6.211   4.137   0.150
 8055TIP3    H124129   6.149   4.084   0.200
 8055TIP3    H224130   6.191   4.228   0.176
 8056TIP3   OH224131   4.758   5.947   5.694
 8056TIP3    H124132   4.678   5.978   5.650
 8056TIP3    H224133   4.757   5.852   5.682
 8057TIP3   OH224134   6.733   1.858   1.033
 8057TIP3    H124135   6.666   1.927   1.042
 8057TIP3    H224136   6.774   1.853   1.119
 8058TIP3   OH224137   5.038   1.221   2.356
 8058TIP3    H124138   5.019   1.309   2.322
 8058TIP3    H224139   5.123   1.199   2.318
 8059TIP3   OH224140   4.557   1.845   5.617
 8059TIP3    H124141   4.465   1.863   5.596
 8059TIP3    H224142   4.579   1.768   5.564
 8060TIP3   OH224143   0.477   3.256   4.943
 8060TIP3    H124144   0.391   3.236   4.906
 8060TIP3    H224145   0.461   3.329   5.002
 8061TIP3   OH224146   6.833   2.257   3.888
 8061TIP3    H124147   6.741   2.278   3.872
 8061TIP3    H224148   6.831   2.178   3.941
 8062TIP3   OH224149   4.423   0.435   1.551
 8062TIP3    H124150   4.511   0.398   1.560
 8062TIP3    H224151   4.395   0.411   1.463
 8063TIP3   OH224152   3.391   3.930   1.200
 8063TIP3    H124153   3.448   4.002   1.228
 8063TIP3    H224154   3.345   3.904   1.279
 8064TIP3   OH224155   4.817   0.767   0.662
 8064TIP3    H124156   4.872   0.783   0.738
 8064TIP3    H224157   4.793   0.674   0.669
 8065TIP3   OH224158   1.490   5.934   2.085
 8065TIP3    H124159   1.573   5.898   2.117
 8065TIP3    H224160   1.489   5.912   1.992
 8066TIP3   OH224161   2.729   0.771   5.332
 8066TIP3    H124162   2.708   0.826   5.407
 8066TIP3    H224163   2.666   0.700   5.336
 8067TIP3   OH224164   6.612   6.540   2.986
 8067TIP3    H124165   6.589   6.610   3.048
 8067TIP3    H224166   6.678   6.488   3.033
 8068TIP3   OH224167   3.221   4.420   2.988
 8068TIP3    H124168   3.288   4.484   2.964
 8068TIP3    H224169   3.199   4.376   2.905
 8069TIP3   OH224170   3.051   4.121   1.073
 8069TIP3    H124171   3.010   4.196   1.030
 8069TIP3    H224172   3.066   4.058   1.001
 8070TIP3   OH224173   5.910   2.855   1.575
 8070TIP3    H124174   5.941   2.839   1.486
 8070TIP3    H224175   5.848   2.928   1.566
 8071TIP3   OH224176   7.085   2.112   2.281
 8071TIP3    H124177   7.012   2.054   2.261
 8071TIP3    H224178   7.066   2.146   2.368
 8072TIP3   OH224179   2.260   4.136   4.267
 8072TIP3    H124180   2.322   4.150   4.196
 8072TIP3    H224181   2.276   4.046   4.295
 8073TIP3   OH224182   1.122   2.014   4.504
 8073TIP3    H124183   1.176   1.938   4.482
 8073TIP3    H224184   1.111   2.060   4.420
 8074TIP3   OH224185   0.910   4.890   0.431
 8074TIP3    H124186   0.843   4.824   0.412
 8074TIP3    H224187   0.989   4.857   0.389
 8075TIP3   OH224188   5.316   1.488   4.268
 8075TIP3    H124189   5.257   1.543   4.319
 8075TIP3    H224190   5.262   1.414   4.240
 8076TIP3   OH224191   3.919   3.186   2.132
 8076TIP3    H124192   3.998   3.229   2.100
 8076TIP3    H224193   3.880   3.247   2.194
 8077TIP3   OH224194   5.964   5.433   4.703
 8077TIP3    H124195   5.876   5.409   4.731
 8077TIP3    H224196   5.964   5.421   4.608
 8078TIP3   OH224197   5.198   6.131   5.214
 8078TIP3    H124198   5.120   6.117   5.268
 8078TIP3    H224199   5.241   6.046   5.211
 8079TIP3   OH224200   0.561   4.459   5.081
 8079TIP3    H124201   0.593   4.378   5.121
 8079TIP3    H224202   0.515   4.429   5.002
 8080TIP3   OH224203   1.307   1.430   3.386
 8080TIP3    H124204   1.358   1.470   3.315
 8080TIP3    H224205   1.219   1.465   3.375
 8081TIP3   OH224206   1.297   0.701   1.841
 8081TIP3    H124207   1.299   0.700   1.745
 8081TIP3    H224208   1.206   0.723   1.862
 8082TIP3   OH224209   0.355   3.799   0.186
 8082TIP3    H124210   0.383   3.866   0.249
 8082TIP3    H224211   0.305   3.737   0.239
 8083TIP3   OH224212   6.860   2.076   0.262
 8083TIP3    H124213   6.816   2.061   0.346
 8083TIP3    H224214   6.879   1.988   0.229
 8084TIP3   OH224215   6.961   0.673   5.200
 8084TIP3    H124216   6.955   0.617   5.123
 8084TIP3    H224217   6.920   0.622   5.270
 8085TIP3   OH224218   4.031   3.886   2.902
 8085TIP3    H124219   4.125   3.884   2.884
 8085TIP3    H224220   3.992   3.915   2.820
 8086TIP3   OH224221   6.162   0.987   0.260
 8086TIP3    H124222   6.080   0.939   0.268
 8086TIP3    H224223   6.138   1.078   0.279
 8087TIP3   OH224224   6.761   4.814   5.379
 8087TIP3    H124225   6.683   4.865   5.403
 8087TIP3    H224226   6.767   4.823   5.284
 8088TIP3   OH224227   5.923   5.701   3.403
 8088TIP3    H124228   5.937   5.659   3.318
 8088TIP3    H224229   5.871   5.638   3.453
 8089TIP3   OH224230   6.366   4.795   3.336
 8089TIP3    H124231   6.381   4.710   3.379
 8089TIP3    H224232   6.281   4.824   3.369
 8090TIP3   OH224233   1.002   1.340   2.541
 8090TIP3    H124234   0.951   1.342   2.461
 8090TIP3    H224235   1.089   1.310   2.514
 8091TIP3   OH224236   0.095   3.215   0.687
 8091TIP3    H124237   0.095   3.296   0.635
 8091TIP3    H224238   0.007   3.178   0.673
 8092TIP3   OH224239   4.714   3.248   4.744
 8092TIP3    H124240   4.635   3.302   4.745
 8092TIP3    H224241   4.773   3.290   4.806
 8093TIP3   OH224242   6.968   1.100   2.286
 8093TIP3    H124243   6.910   1.053   2.347
 8093TIP3    H224244   7.026   1.032   2.251
 8094TIP3   OH224245   4.282   0.337   2.205
 8094TIP3    H124246   4.236   0.405   2.155
 8094TIP3    H224247   4.287   0.373   2.294
 8095TIP3   OH224248   4.472   0.146   1.221
 8095TIP3    H124249   4.490   0.109   1.307
 8095TIP3    H224250   4.398   0.205   1.235
 8096TIP3   OH224251   6.316   6.099   5.761
 8096TIP3    H124252   6.393   6.147   5.728
 8096TIP3    H224253   6.256   6.098   5.687
 8097TIP3   OH224254   3.288   5.485   0.622
 8097TIP3    H124255   3.277   5.453   0.533
 8097TIP3    H224256   3.332   5.569   0.613
 8098TIP3   OH224257   1.340   0.539   0.590
 8098TIP3    H124258   1.264   0.500   0.634
 8098TIP3    H224259   1.412   0.479   0.609
 8099TIP3   OH224260   6.515   5.065   0.460
 8099TIP3    H124261   6.506   5.092   0.369
 8099TIP3    H224262   6.605   5.034   0.468
 8100TIP3   OH224263   4.453   4.960   2.508
 8100TIP3    H124264   4.424   4.880   2.553
 8100TIP3    H224265   4.407   5.030   2.553
 8101TIP3   OH224266   4.798   5.630   3.734
 8101TIP3    H124267   4.795   5.537   3.709
 8101TIP3    H224268   4.790   5.628   3.830
 8102TIP3   OH224269   4.115   5.245   1.810
 8102TIP3    H124270   4.045   5.288   1.761
 8102TIP3    H224271   4.188   5.241   1.748
 8103TIP3   OH224272   2.751   6.311   2.991
 8103TIP3    H124273   2.841   6.306   3.023
 8103TIP3    H224274   2.697   6.291   3.067
 8104TIP3   OH224275   3.679   0.074   1.414
 8104TIP3    H124276   3.592   0.035   1.414
 8104TIP3    H224277   3.665   0.165   1.388
 8105TIP3   OH224278   1.061   3.139   3.553
 8105TIP3    H124279   1.052   3.196   3.629
 8105TIP3    H224280   0.984   3.082   3.557
 8106TIP3   OH224281   3.149   2.694   5.142
 8106TIP3    H124282   3.086   2.633   5.104
 8106TIP3    H224283   3.100   2.742   5.208
 8107TIP3   OH224284   5.155   0.386   2.989
 8107TIP3    H124285   5.158   0.433   2.906
 8107TIP3    H224286   5.080   0.422   3.035
 8108TIP3   OH224287   0.404   2.345   0.647
 8108TIP3    H124288   0.372   2.393   0.724
 8108TIP3    H224289   0.433   2.413   0.587
 8109TIP3   OH224290   0.276   4.427   1.980
 8109TIP3    H124291   0.265   4.361   1.911
 8109TIP3    H224292   0.228   4.504   1.948
 8110TIP3   OH224293   3.950   4.273   4.436
 8110TIP3    H124294   3.975   4.182   4.418
 8110TIP3    H224295   3.879   4.291   4.374
 8111TIP3   OH224296   0.593   6.533   2.854
 8111TIP3    H124297   0.639   6.615   2.835
 8111TIP3    H224298   0.500   6.554   2.838
 8112TIP3   OH224299   2.056   2.898   5.515
 8112TIP3    H124300   2.028   2.868   5.428
 8112TIP3    H224301   2.004   2.978   5.529
 8113TIP3   OH224302   1.374   5.089   4.772
 8113TIP3    H124303   1.375   5.106   4.678
 8113TIP3    H224304   1.282   5.092   4.797
 8114TIP3   OH224305   4.220   1.059   4.509
 8114TIP3    H124306   4.191   0.970   4.529
 8114TIP3    H224307   4.309   1.049   4.477
 8115TIP3   OH224308   7.084   0.250   5.377
 8115TIP3    H124309   7.141   0.191   5.426
 8115TIP3    H224310   7.143   0.314   5.337
 8116TIP3   OH224311   1.197   0.841   0.484
 8116TIP3    H124312   1.140   0.837   0.560
 8116TIP3    H224313   1.210   0.934   0.467
 8117TIP3   OH224314   5.518   5.457   0.041
 8117TIP3    H124315   5.602   5.501   0.032
 8117TIP3    H224316   5.520   5.387  -0.024
 8118TIP3   OH224317   6.489   4.119   1.853
 8118TIP3    H124318   6.423   4.084   1.792
 8118TIP3    H224319   6.510   4.045   1.910
 8119TIP3   OH224320   2.764   1.504   5.363
 8119TIP3    H124321   2.690   1.542   5.316
 8119TIP3    H224322   2.730   1.421   5.398
 8120TIP3   OH224323   1.819   5.588   4.625
 8120TIP3    H124324   1.826   5.684   4.630
 8120TIP3    H224325   1.756   5.564   4.693
 8121TIP3   OH224326   5.364   3.650   5.467
 8121TIP3    H124327   5.339   3.664   5.376
 8121TIP3    H224328   5.370   3.555   5.476
 8122TIP3   OH224329   1.016   3.212   5.616
 8122TIP3    H124330   1.079   3.149   5.652
 8122TIP3    H224331   0.948   3.157   5.578
 8123TIP3   OH224332   0.055   5.173   4.558
 8123TIP3    H124333   0.086   5.092   4.599
 8123TIP3    H224334   0.131   5.231   4.557
 8124TIP3   OH224335   2.942   5.979   0.885
 8124TIP3    H124336   2.951   5.995   0.791
 8124TIP3    H224337   2.870   5.916   0.892
 8125TIP3   OH224338   1.539   0.252   1.287
 8125TIP3    H124339   1.600   0.234   1.359
 8125TIP3    H224340   1.586   0.226   1.208
 8126TIP3   OH224341   3.283   3.823   4.268
 8126TIP3    H124342   3.306   3.775   4.189
 8126TIP3    H224343   3.233   3.760   4.321
 8127TIP3   OH224344   5.382   4.124   2.297
 8127TIP3    H124345   5.429   4.056   2.249
 8127TIP3    H224346   5.375   4.197   2.236
 8128TIP3   OH224347   6.061   1.765   0.592
 8128TIP3    H124348   6.153   1.761   0.619
 8128TIP3    H224349   6.016   1.707   0.654
 8129TIP3   OH224350   5.664   1.514   5.696
 8129TIP3    H124351   5.686   1.447   5.631
 8129TIP3    H224352   5.685   1.597   5.653
 8130TIP3   OH224353   0.726   1.552   3.271
 8130TIP3    H124354   0.713   1.484   3.337
 8130TIP3    H224355   0.651   1.544   3.213
 8131TIP3   OH224356   5.600   4.487   4.320
 8131TIP3    H124357   5.665   4.427   4.357
 8131TIP3    H224358   5.568   4.442   4.242
 8132TIP3   OH224359   2.681   0.072   2.318
 8132TIP3    H124360   2.751   0.074   2.254
 8132TIP3    H224361   2.614   0.015   2.279
 8133TIP3   OH224362   1.773   3.483   3.135
 8133TIP3    H124363   1.863   3.456   3.120
 8133TIP3    H224364   1.742   3.513   3.050
 8134TIP3   OH224365   2.690   2.879   1.235
 8134TIP3    H124366   2.714   2.967   1.264
 8134TIP3    H224367   2.649   2.893   1.149
 8135TIP3   OH224368   2.419   5.869   4.215
 8135TIP3    H124369   2.348   5.830   4.266
 8135TIP3    H224370   2.492   5.876   4.277
 8136TIP3   OH224371   3.076   0.426   2.591
 8136TIP3    H124372   3.075   0.333   2.570
 8136TIP3    H224373   3.004   0.463   2.540
 8137TIP3   OH224374   1.274   4.167   5.293
 8137TIP3    H124375   1.368   4.153   5.283
 8137TIP3    H224376   1.264   4.193   5.385
 8138TIP3   OH224377   6.066   4.655   1.878
 8138TIP3    H124378   6.155   4.648   1.912
 8138TIP3    H224379   6.077   4.689   1.789
 8139TIP3   OH224380   2.995   6.277   3.145
 8139TIP3    H124381   3.085   6.300   3.171
 8139TIP3    H224382   2.941   6.304   3.219
 8140TIP3   OH224383   5.477   0.434   4.508
 8140TIP3    H124384   5.539   0.361   4.511
 8140TIP3    H224385   5.447   0.436   4.418
 8141TIP3   OH224386   1.011   2.992   3.061
 8141TIP3    H124387   0.995   2.942   2.980
 8141TIP3    H224388   1.013   3.083   3.033
 8142TIP3   OH224389   2.610   1.955   5.411
 8142TIP3    H124390   2.686   1.901   5.393
 8142TIP3    H224391   2.573   1.975   5.325
 8143TIP3   OH224392   6.485   4.933   2.367
 8143TIP3    H124393   6.456   5.005   2.422
 8143TIP3    H224394   6.427   4.860   2.391
 8144TIP3   OH224395   4.160   2.851   2.088
 8144TIP3    H124396   4.065   2.847   2.104
 8144TIP3    H224397   4.199   2.850   2.176
 8145TIP3   OH224398   1.754   2.083   4.076
 8145TIP3    H124399   1.698   2.073   3.999
 8145TIP3    H224400   1.814   2.155   4.053
 8146TIP3   OH224401   6.648   0.646   2.709
 8146TIP3    H124402   6.676   0.656   2.617
 8146TIP3    H224403   6.605   0.729   2.729
 8147TIP3   OH224404   0.539   1.224   1.767
 8147TIP3    H124405   0.585   1.294   1.721
 8147TIP3    H224406   0.606   1.159   1.786
 8148TIP3   OH224407   6.230   6.236   3.894
 8148TIP3    H124408   6.293   6.164   3.889
 8148TIP3    H224409   6.269   6.305   3.841
 8149TIP3   OH224410   3.911   5.254   4.581
 8149TIP3    H124411   3.825   5.280   4.547
 8149TIP3    H224412   3.928   5.315   4.652
 8150TIP3   OH224413   4.129   0.445   2.457
 8150TIP3    H124414   4.169   0.527   2.428
 8150TIP3    H224415   4.144   0.443   2.551
 8151TIP3   OH224416   5.751   1.364   4.195
 8151TIP3    H124417   5.835   1.380   4.152
 8151TIP3    H224418   5.774   1.321   4.277
 8152TIP3   OH224419   3.826   0.904   0.594
 8152TIP3    H124420   3.785   0.881   0.676
 8152TIP3    H224421   3.916   0.930   0.618
 8153TIP3   OH224422   5.462   4.693   4.640
 8153TIP3    H124423   5.391   4.749   4.671
 8153TIP3    H224424   5.417   4.622   4.594
 8154TIP3   OH224425   1.759   2.970   5.536
 8154TIP3    H124426   1.820   3.043   5.546
 8154TIP3    H224427   1.725   2.955   5.624
 8155TIP3   OH224428   6.324   5.215   4.012
 8155TIP3    H124429   6.362   5.295   4.048
 8155TIP3    H224430   6.238   5.242   3.980
 8156TIP3   OH224431   0.208   0.593   2.012
 8156TIP3    H124432   0.233   0.506   1.981
 8156TIP3    H224433   0.282   0.622   2.065
 8157TIP3   OH224434   3.986   3.111   1.733
 8157TIP3    H124435   3.987   3.025   1.775
 8157TIP3    H224436   3.895   3.125   1.708
 8158TIP3   OH224437   2.582   0.864   3.710
 8158TIP3    H124438   2.667   0.821   3.708
 8158TIP3    H224439   2.588   0.927   3.781
 8159TIP3   OH224440   6.378   6.538   4.306
 8159TIP3    H124441   6.348   6.546   4.216
 8159TIP3    H224442   6.473   6.549   4.301
 8160TIP3   OH224443   4.733   5.383   3.722
 8160TIP3    H124444   4.677   5.336   3.661
 8160TIP3    H224445   4.720   5.338   3.806
 8161TIP3   OH224446   5.770   4.605   2.671
 8161TIP3    H124447   5.786   4.570   2.583
 8161TIP3    H224448   5.747   4.697   2.655
 8162TIP3   OH224449   1.470   5.118   3.946
 8162TIP3    H124450   1.384   5.157   3.961
 8162TIP3    H224451   1.526   5.158   4.012
 8163TIP3   OH224452   0.636   6.642   1.897
 8163TIP3    H124453   0.636   6.672   1.987
 8163TIP3    H224454   0.654   6.548   1.903
 8164TIP3   OH224455   4.093   2.321   1.098
 8164TIP3    H124456   4.187   2.309   1.083
 8164TIP3    H224457   4.086   2.333   1.192
 8165TIP3   OH224458   1.824   6.491  -0.013
 8165TIP3    H124459   1.750   6.436   0.013
 8165TIP3    H224460   1.840   6.547   0.063
 8166TIP3   OH224461   6.148   2.142   1.975
 8166TIP3    H124462   6.098   2.061   1.985
 8166TIP3    H224463   6.158   2.152   1.880
 8167TIP3   OH224464   3.000   5.539   0.872
 8167TIP3    H124465   2.979   5.496   0.954
 8167TIP3    H224466   2.920   5.586   0.848
 8168TIP3   OH224467   0.442   2.788   5.367
 8168TIP3    H124468   0.415   2.786   5.275
 8168TIP3    H224469   0.370   2.745   5.413
 8169TIP3   OH224470   5.408   1.628   0.895
 8169TIP3    H124471   5.468   1.656   0.964
 8169TIP3    H224472   5.325   1.671   0.915
 8170TIP3   OH224473   2.673   1.129   0.394
 8170TIP3    H124474   2.586   1.091   0.397
 8170TIP3    H224475   2.665   1.211   0.444
 8171TIP3   OH224476   2.163   3.509   2.190
 8171TIP3    H124477   2.132   3.556   2.113
 8171TIP3    H224478   2.238   3.458   2.159
 8172TIP3   OH224479   1.321   0.608   4.775
 8172TIP3    H124480   1.258   0.666   4.818
 8172TIP3    H224481   1.402   0.659   4.771
 8173TIP3   OH224482   2.499   4.131   4.431
 8173TIP3    H124483   2.427   4.147   4.369
 8173TIP3    H224484   2.577   4.125   4.376
 8174TIP3   OH224485   1.205   1.073   0.068
 8174TIP3    H124486   1.133   1.016   0.039
 8174TIP3    H224487   1.278   1.051   0.010
 8175TIP3   OH224488   7.152   2.390   4.561
 8175TIP3    H124489   7.217   2.352   4.502
 8175TIP3    H224490   7.122   2.317   4.615
 8176TIP3   OH224491   4.025   2.501   1.612
 8176TIP3    H124492   4.025   2.530   1.704
 8176TIP3    H224493   4.117   2.506   1.586
 8177TIP3   OH224494   1.807   3.762   3.712
 8177TIP3    H124495   1.753   3.684   3.702
 8177TIP3    H224496   1.883   3.732   3.763
 8178TIP3   OH224497   2.828   6.695   2.951
 8178TIP3    H124498   2.872   6.739   3.023
 8178TIP3    H224499   2.740   6.678   2.983
 8179TIP3   OH224500   3.557   3.081   3.228
 8179TIP3    H124501   3.522   3.018   3.165
 8179TIP3    H224502   3.483   3.102   3.284
 8180TIP3   OH224503   0.943   1.117   2.671
 8180TIP3    H124504   0.957   1.193   2.615
 8180TIP3    H224505   0.937   1.153   2.760
 8181TIP3   OH224506   6.441   4.697   4.168
 8181TIP3    H124507   6.389   4.644   4.108
 8181TIP3    H224508   6.473   4.635   4.234
 8182TIP3   OH224509   0.011   4.011   3.014
 8182TIP3    H124510   0.080   3.945   3.020
 8182TIP3    H224511  -0.051   3.988   3.083
 8183TIP3   OH224512   6.530   0.785   0.166
 8183TIP3    H124513   6.456   0.725   0.168
 8183TIP3    H224514   6.591   0.750   0.230
 8184TIP3   OH224515   5.500   2.267   3.623
 8184TIP3    H124516   5.472   2.293   3.710
 8184TIP3    H224517   5.424   2.222   3.586
 8185TIP3   OH224518   0.402   4.207   2.354
 8185TIP3    H124519   0.452   4.183   2.432
 8185TIP3    H224520   0.363   4.125   2.324
 8186TIP3   OH224521   6.093   5.633   0.748
 8186TIP3    H124522   6.171   5.579   0.738
 8186TIP3    H224523   6.023   5.571   0.770
 8187TIP3   OH224524   4.218   6.316   1.726
 8187TIP3    H124525   4.158   6.325   1.801
 8187TIP3    H224526   4.176   6.252   1.669
 8188TIP3   OH224527   6.551   0.923   4.905
 8188TIP3    H124528   6.602   0.999   4.931
 8188TIP3    H224529   6.462   0.943   4.933
 8189TIP3   OH224530   3.471   5.929   5.468
 8189TIP3    H124531   3.461   5.859   5.533
 8189TIP3    H224532   3.399   5.914   5.406
 8190TIP3   OH224533   5.018   1.605   2.491
 8190TIP3    H124534   5.081   1.677   2.503
 8190TIP3    H224535   5.000   1.574   2.580
 8191TIP3   OH224536   2.168   5.726   3.585
 8191TIP3    H124537   2.072   5.726   3.580
 8191TIP3    H224538   2.195   5.798   3.528
 8192TIP3   OH224539   2.232   0.807   0.142
 8192TIP3    H124540   2.245   0.720   0.180
 8192TIP3    H224541   2.318   0.849   0.149
 8193TIP3   OH224542   2.486   5.295   5.582
 8193TIP3    H124543   2.464   5.204   5.563
 8193TIP3    H224544   2.415   5.346   5.543
 8194TIP3   OH224545   5.392   5.104   5.750
 8194TIP3    H124546   5.411   5.055   5.830
 8194TIP3    H224547   5.335   5.176   5.778
 8195TIP3   OH224548   1.040   6.298   5.481
 8195TIP3    H124549   0.980   6.257   5.418
 8195TIP3    H224550   1.114   6.327   5.427
 8196TIP3   OH224551   0.899   6.082   2.213
 8196TIP3    H124552   0.896   5.989   2.234
 8196TIP3    H224553   0.820   6.097   2.161
 8197TIP3   OH224554   2.548   3.612   5.383
 8197TIP3    H124555   2.499   3.692   5.365
 8197TIP3    H224556   2.639   3.639   5.385
 8198TIP3   OH224557   6.347   2.908   5.029
 8198TIP3    H124558   6.284   2.894   4.959
 8198TIP3    H224559   6.303   2.874   5.107
 8199TIP3   OH224560   4.910   4.350   3.578
 8199TIP3    H124561   4.959   4.272   3.554
 8199TIP3    H224562   4.977   4.418   3.590
 8200TIP3   OH224563   6.569   3.718   5.512
 8200TIP3    H124564   6.661   3.692   5.501
 8200TIP3    H224565   6.564   3.806   5.475
 8201TIP3   OH224566   4.930   6.513   3.426
 8201TIP3    H124567   4.868   6.544   3.359
 8201TIP3    H224568   4.925   6.578   3.495
 8202TIP3   OH224569   6.108   5.283   2.422
 8202TIP3    H124570   6.050   5.271   2.497
 8202TIP3    H224571   6.129   5.194   2.393
 8203TIP3   OH224572   2.002   5.834   5.842
 8203TIP3    H124573   1.918   5.801   5.874
 8203TIP3    H224574   2.023   5.907   5.901
 8204TIP3   OH224575   0.827   5.229   3.261
 8204TIP3    H124576   0.866   5.183   3.186
 8204TIP3    H224577   0.790   5.309   3.223
 8205TIP3   OH224578   4.965   3.014   3.705
 8205TIP3    H124579   4.896   3.056   3.757
 8205TIP3    H224580   5.024   3.086   3.682
 8206TIP3   OH224581   1.505   6.232   2.121
 8206TIP3    H124582   1.509   6.144   2.085
 8206TIP3    H224583   1.566   6.231   2.195
 8207TIP3   OH224584   1.581   2.913   0.749
 8207TIP3    H124585   1.617   2.986   0.699
 8207TIP3    H224586   1.594   2.937   0.841
 8208TIP3   OH224587   1.551   5.238   4.911
 8208TIP3    H124588   1.480   5.190   4.867
 8208TIP3    H224589   1.507   5.291   4.977
 8209TIP3   OH224590   5.867   6.153   5.361
 8209TIP3    H124591   5.959   6.174   5.348
 8209TIP3    H224592   5.827   6.166   5.274
 8210TIP3   OH224593   2.015   4.493   0.097
 8210TIP3    H124594   2.073   4.548   0.150
 8210TIP3    H224595   2.056   4.494   0.010
 8211TIP3   OH224596   3.749   5.446   5.725
 8211TIP3    H124597   3.670   5.392   5.713
 8211TIP3    H224598   3.813   5.408   5.664
 8212TIP3   OH224599   6.284   1.035   3.490
 8212TIP3    H124600   6.270   0.994   3.575
 8212TIP3    H224601   6.349   0.979   3.447
 8213TIP3   OH224602   6.009   1.860   1.059
 8213TIP3    H124603   5.944   1.795   1.085
 8213TIP3    H224604   6.080   1.810   1.020
 8214TIP3   OH224605   2.096   3.108   4.639
 8214TIP3    H124606   2.158   3.176   4.663
 8214TIP3    H224607   2.122   3.032   4.691
 8215TIP3   OH224608   5.805   2.425   2.663
 8215TIP3    H124609   5.716   2.399   2.641
 8215TIP3    H224610   5.860   2.363   2.614
 8216TIP3   OH224611   6.724   1.909   2.099
 8216TIP3    H124612   6.693   1.830   2.053
 8216TIP3    H224613   6.662   1.977   2.073
 8217TIP3   OH224614   0.781   0.907   1.891
 8217TIP3    H124615   0.803   0.981   1.835
 8217TIP3    H224616   0.797   0.830   1.837
 8218TIP3   OH224617   1.772   5.021   4.984
 8218TIP3    H124618   1.777   5.108   4.945
 8218TIP3    H224619   1.761   4.962   4.909
 8219TIP3   OH224620   1.676   4.753   2.834
 8219TIP3    H124621   1.737   4.687   2.865
 8219TIP3    H224622   1.713   4.836   2.865
 8220TIP3   OH224623   0.084   1.432   5.847
 8220TIP3    H124624   0.086   1.500   5.915
 8220TIP3    H224625   0.005   1.451   5.797
 8221TIP3   OH224626   6.251   0.308   0.355
 8221TIP3    H124627   6.260   0.223   0.398
 8221TIP3    H224628   6.292   0.369   0.415
 8222TIP3   OH224629   5.842   1.601   3.508
 8222TIP3    H124630   5.901   1.600   3.584
 8222TIP3    H224631   5.760   1.638   3.543
 8223TIP3   OH224632   3.150   0.473   2.902
 8223TIP3    H124633   3.239   0.448   2.928
 8223TIP3    H224634   3.149   0.462   2.807
 8224TIP3   OH224635   6.718   6.758   1.837
 8224TIP3    H124636   6.707   6.793   1.749
 8224TIP3    H224637   6.629   6.740   1.868
 8225TIP3   OH224638   1.518   0.744   4.120
 8225TIP3    H124639   1.508   0.711   4.209
 8225TIP3    H224640   1.518   0.666   4.065
 8226TIP3   OH224641   3.818   4.040   5.388
 8226TIP3    H124642   3.860   4.109   5.441
 8226TIP3    H224643   3.878   3.966   5.393
 8227TIP3   OH224644   4.831   3.428   1.240
 8227TIP3    H124645   4.885   3.504   1.218
 8227TIP3    H224646   4.744   3.465   1.258
 8228TIP3   OH224647   2.947   3.461   2.295
 8228TIP3    H124648   2.876   3.525   2.287
 8228TIP3    H224649   3.027   3.514   2.296
 8229TIP3   OH224650   3.602   0.769   2.932
 8229TIP3    H124651   3.573   0.858   2.915
 8229TIP3    H224652   3.565   0.717   2.861
 8230TIP3   OH224653   1.779   6.124   1.931
 8230TIP3    H124654   1.815   6.173   1.858
 8230TIP3    H224655   1.684   6.133   1.921
 8231TIP3   OH224656   1.036   1.838   1.001
 8231TIP3    H124657   0.952   1.853   0.958
 8231TIP3    H224658   1.037   1.744   1.019
 8232TIP3   OH224659   6.211   2.662   1.563
 8232TIP3    H124660   6.139   2.720   1.588
 8232TIP3    H224661   6.251   2.705   1.487
 8233TIP3   OH224662   4.204   4.986   4.664
 8233TIP3    H124663   4.236   5.047   4.731
 8233TIP3    H224664   4.168   4.913   4.714
 8234TIP3   OH224665   0.608   3.339   2.416
 8234TIP3    H124666   0.546   3.272   2.389
 8234TIP3    H224667   0.601   3.407   2.349
 8235TIP3   OH224668   3.752   1.432   5.449
 8235TIP3    H124669   3.753   1.379   5.369
 8235TIP3    H224670   3.840   1.471   5.452
 8236TIP3   OH224671   2.631   2.790   3.695
 8236TIP3    H124672   2.540   2.781   3.667
 8236TIP3    H224673   2.645   2.884   3.701
 8237TIP3   OH224674   6.818   3.070   0.458
 8237TIP3    H124675   6.772   3.080   0.374
 8237TIP3    H224676   6.772   3.130   0.517
 8238TIP3   OH224677   2.241   0.067   5.598
 8238TIP3    H124678   2.154   0.041   5.568
 8238TIP3    H224679   2.248   0.159   5.576
 8239TIP3   OH224680   0.465   0.184   5.055
 8239TIP3    H124681   0.465   0.198   5.150
 8239TIP3    H224682   0.471   0.088   5.045
 8240TIP3   OH224683   4.257   6.337   4.139
 8240TIP3    H124684   4.188   6.333   4.205
 8240TIP3    H224685   4.335   6.302   4.183
 8241TIP3   OH224686   5.578   5.126   5.120
 8241TIP3    H124687   5.567   5.182   5.043
 8241TIP3    H224688   5.501   5.145   5.174
 8242TIP3   OH224689   3.251   6.318   3.661
 8242TIP3    H124690   3.334   6.306   3.614
 8242TIP3    H224691   3.207   6.233   3.653
 8243TIP3   OH224692   5.578   0.213   2.308
 8243TIP3    H124693   5.647   0.269   2.344
 8243TIP3    H224694   5.520   0.196   2.382
 8244TIP3   OH224695   4.181   2.326   5.331
 8244TIP3    H124696   4.227   2.243   5.320
 8244TIP3    H224697   4.088   2.303   5.328
 8245TIP3   OH224698   6.100   4.597   5.335
 8245TIP3    H124699   6.172   4.535   5.347
 8245TIP3    H224700   6.135   4.664   5.275
 8246TIP3   OH224701   5.374   3.977   4.904
 8246TIP3    H124702   5.399   3.906   4.964
 8246TIP3    H224703   5.455   4.024   4.887
 8247TIP3   OH224704   0.906   2.584   2.950
 8247TIP3    H124705   0.934   2.640   3.022
 8247TIP3    H224706   0.818   2.556   2.974
 8248TIP3   OH224707   3.935   2.690   2.100
 8248TIP3    H124708   3.980   2.625   2.154
 8248TIP3    H224709   3.859   2.716   2.153
 8249TIP3   OH224710   6.977   0.077   1.624
 8249TIP3    H124711   6.971  -0.018   1.637
 8249TIP3    H224712   7.057   0.102   1.670
 8250TIP3   OH224713   5.397   2.320   3.871
 8250TIP3    H124714   5.449   2.299   3.949
 8250TIP3    H224715   5.307   2.328   3.903
 8251TIP3   OH224716   6.165   1.750   1.688
 8251TIP3    H124717   6.218   1.742   1.609
 8251TIP3    H224718   6.219   1.713   1.758
 8252TIP3   OH224719   1.377   5.633   0.043
 8252TIP3    H124720   1.282   5.619   0.048
 8252TIP3    H224721   1.409   5.557  -0.006
 8253TIP3   OH224722   6.631   3.269   0.549
 8253TIP3    H124723   6.573   3.290   0.476
 8253TIP3    H224724   6.682   3.349   0.563
 8254TIP3   OH224725   1.957   4.690   3.965
 8254TIP3    H124726   1.944   4.784   3.958
 8254TIP3    H224727   1.911   4.665   4.046
 8255TIP3   OH224728   4.058   1.269   2.916
 8255TIP3    H124729   4.106   1.352   2.916
 8255TIP3    H224730   4.064   1.238   2.825
 8256TIP3   OH224731   0.033   0.365   2.801
 8256TIP3    H124732  -0.024   0.432   2.763
 8256TIP3    H224733   0.027   0.291   2.740
 8257TIP3   OH224734   1.193   2.437   4.257
 8257TIP3    H124735   1.220   2.479   4.175
 8257TIP3    H224736   1.239   2.487   4.325
 8258TIP3   OH224737   5.697   1.026   4.211
 8258TIP3    H124738   5.793   1.029   4.213
 8258TIP3    H224739   5.673   0.996   4.299
 8259TIP3   OH224740   5.818   4.453   1.706
 8259TIP3    H124741   5.741   4.417   1.749
 8259TIP3    H224742   5.877   4.475   1.778
 8260TIP3   OH224743   3.848   6.772   5.345
 8260TIP3    H124744   3.894   6.721   5.278
 8260TIP3    H224745   3.786   6.826   5.295
 8261TIP3   OH224746   4.665   5.600   5.211
 8261TIP3    H124747   4.696   5.576   5.124
 8261TIP3    H224748   4.573   5.572   5.211
 8262TIP3   OH224749   5.443   1.534   0.355
 8262TIP3    H124750   5.508   1.561   0.420
 8262TIP3    H224751   5.435   1.609   0.297
 8263TIP3   OH224752   2.769   0.823   3.196
 8263TIP3    H124753   2.779   0.893   3.132
 8263TIP3    H224754   2.676   0.822   3.217
 8264TIP3   OH224755   4.279   4.727   0.956
 8264TIP3    H124756   4.283   4.816   0.993
 8264TIP3    H224757   4.247   4.740   0.867
 8265TIP3   OH224758   1.816   3.235   0.243
 8265TIP3    H124759   1.824   3.140   0.239
 8265TIP3    H224760   1.727   3.253   0.213
 8266TIP3   OH224761   1.449   6.683   0.822
 8266TIP3    H124762   1.469   6.773   0.850
 8266TIP3    H224763   1.487   6.628   0.890
 8267TIP3   OH224764   3.848   3.376   1.897
 8267TIP3    H124765   3.898   3.296   1.883
 8267TIP3    H224766   3.759   3.345   1.914
 8268TIP3   OH224767   3.257   1.773   3.529
 8268TIP3    H124768   3.322   1.725   3.478
 8268TIP3    H224769   3.174   1.731   3.507
 8269TIP3   OH224770   1.951   6.327   3.426
 8269TIP3    H124771   1.986   6.314   3.338
 8269TIP3    H224772   2.026   6.353   3.479
 8270TIP3   OH224773   5.835   1.148   2.867
 8270TIP3    H124774   5.747   1.178   2.890
 8270TIP3    H224775   5.894   1.200   2.923
 8271TIP3   OH224776   2.357   2.601   2.607
 8271TIP3    H124777   2.438   2.638   2.642
 8271TIP3    H224778   2.295   2.674   2.611
 8272TIP3   OH224779   2.681   2.533   2.943
 8272TIP3    H124780   2.657   2.600   3.008
 8272TIP3    H224781   2.628   2.555   2.866
 8273TIP3   OH224782   6.048   4.473   1.282
 8273TIP3    H124783   5.972   4.418   1.264
 8273TIP3    H224784   6.074   4.506   1.196
 8274TIP3   OH224785   3.127   4.966   1.361
 8274TIP3    H124786   3.222   4.971   1.361
 8274TIP3    H224787   3.100   5.022   1.433
 8275TIP3   OH224788   3.480   5.917   1.152
 8275TIP3    H124789   3.567   5.931   1.191
 8275TIP3    H224790   3.474   5.822   1.139
 8276TIP3   OH224791   5.771   3.594   0.613
 8276TIP3    H124792   5.707   3.539   0.568
 8276TIP3    H224793   5.770   3.677   0.565
 8277TIP3   OH224794   5.448   3.273   4.820
 8277TIP3    H124795   5.521   3.332   4.803
 8277TIP3    H224796   5.488   3.197   4.861
 8278TIP3   OH224797   0.333   4.030   0.936
 8278TIP3    H124798   0.378   4.006   0.855
 8278TIP3    H224799   0.278   3.954   0.956
 8279TIP3   OH224800   0.735   2.299   3.209
 8279TIP3    H124801   0.750   2.232   3.142
 8279TIP3    H224802   0.822   2.328   3.234
 8280TIP3   OH224803   0.564   2.056   4.946
 8280TIP3    H124804   0.591   2.100   4.865
 8280TIP3    H224805   0.479   2.018   4.925
 8281TIP3   OH224806   5.689   1.949   5.873
 8281TIP3    H124807   5.753   1.912   5.811
 8281TIP3    H224808   5.740   1.968   5.951
 8282TIP3   OH224809   5.895   2.816   4.257
 8282TIP3    H124810   5.856   2.729   4.266
 8282TIP3    H224811   5.960   2.820   4.328
 8283TIP3   OH224812   3.832   2.030   2.550
 8283TIP3    H124813   3.876   1.948   2.573
 8283TIP3    H224814   3.741   2.016   2.575
 8284TIP3   OH224815   2.385   1.121   0.379
 8284TIP3    H124816   2.395   1.082   0.292
 8284TIP3    H224817   2.362   1.213   0.362
 8285TIP3   OH224818   2.833   2.032   1.858
 8285TIP3    H124819   2.912   2.074   1.823
 8285TIP3    H224820   2.778   2.016   1.781
 8286TIP3   OH224821   7.186   5.474   4.863
 8286TIP3    H124822   7.174   5.467   4.768
 8286TIP3    H224823   7.200   5.567   4.879
 8287TIP3   OH224824   5.305   4.250   1.710
 8287TIP3    H124825   5.371   4.257   1.641
 8287TIP3    H224826   5.251   4.175   1.683
 8288TIP3   OH224827   4.693   0.704   3.085
 8288TIP3    H124828   4.648   0.745   3.159
 8288TIP3    H224829   4.632   0.713   3.012
 8289TIP3   OH224830   4.077   6.409   1.981
 8289TIP3    H124831   4.068   6.494   1.938
 8289TIP3    H224832   4.031   6.419   2.064
 8290TIP3   OH224833   0.854   3.121   4.202
 8290TIP3    H124834   0.879   3.063   4.274
 8290TIP3    H224835   0.879   3.074   4.123
 8291TIP3   OH224836   4.645   5.349   5.805
 8291TIP3    H124837   4.659   5.295   5.727
 8291TIP3    H224838   4.612   5.287   5.871
 8292TIP3   OH224839   1.188   0.351   4.253
 8292TIP3    H124840   1.111   0.384   4.298
 8292TIP3    H224841   1.262   0.388   4.301
 8293TIP3   OH224842   4.438   5.641   3.306
 8293TIP3    H124843   4.422   5.650   3.400
 8293TIP3    H224844   4.526   5.603   3.301
 8294TIP3   OH224845   5.971   6.110   3.259
 8294TIP3    H124846   6.022   6.035   3.289
 8294TIP3    H224847   5.959   6.163   3.337
 8295TIP3   OH224848   3.540   5.800   5.043
 8295TIP3    H124849   3.452   5.809   5.080
 8295TIP3    H224850   3.558   5.885   5.003
 8296TIP3   OH224851   6.736   6.253   1.405
 8296TIP3    H124852   6.693   6.325   1.360
 8296TIP3    H224853   6.826   6.282   1.418
 8297TIP3   OH224854   4.003   5.667   3.671
 8297TIP3    H124855   3.995   5.598   3.736
 8297TIP3    H224856   4.016   5.747   3.722
 8298TIP3   OH224857   2.853   1.224   0.071
 8298TIP3    H124858   2.916   1.235   0.142
 8298TIP3    H224859   2.869   1.135   0.038
 8299TIP3   OH224860   0.064   6.547   5.097
 8299TIP3    H124861   0.056   6.642   5.099
 8299TIP3    H224862  -0.026   6.515   5.109
 8300TIP3   OH224863   4.233   6.227   0.790
 8300TIP3    H124864   4.174   6.152   0.797
 8300TIP3    H224865   4.316   6.196   0.828
 8301TIP3   OH224866   0.874   5.366   5.755
 8301TIP3    H124867   0.812   5.333   5.690
 8301TIP3    H224868   0.896   5.289   5.808
 8302TIP3   OH224869   1.009   0.056   2.094
 8302TIP3    H124870   0.950   0.129   2.114
 8302TIP3    H224871   1.029   0.067   2.001
 8303TIP3   OH224872   4.243   4.594   2.040
 8303TIP3    H124873   4.170   4.550   2.083
 8303TIP3    H224874   4.320   4.567   2.090
 8304TIP3   OH224875   2.243   6.662   1.775
 8304TIP3    H124876   2.261   6.754   1.756
 8304TIP3    H224877   2.297   6.643   1.853
 8305TIP3   OH224878   0.869   1.206   1.186
 8305TIP3    H124879   0.904   1.120   1.208
 8305TIP3    H224880   0.864   1.206   1.090
 8306TIP3   OH224881   1.547   6.739   0.346
 8306TIP3    H124882   1.557   6.657   0.394
 8306TIP3    H224883   1.620   6.740   0.284
 8307TIP3   OH224884   5.131   5.533   4.761
 8307TIP3    H124885   5.160   5.569   4.846
 8307TIP3    H224886   5.055   5.479   4.782
 8308TIP3   OH224887   3.472   4.499   4.455
 8308TIP3    H124888   3.412   4.506   4.380
 8308TIP3    H224889   3.559   4.507   4.416
 8309TIP3   OH224890   5.945   0.494   1.320
 8309TIP3    H124891   5.974   0.580   1.289
 8309TIP3    H224892   6.027   0.445   1.332
 8310TIP3   OH224893   1.662   0.842   3.890
 8310TIP3    H124894   1.682   0.840   3.796
 8310TIP3    H224895   1.739   0.803   3.931
 8311TIP3   OH224896   3.087   6.077   1.102
 8311TIP3    H124897   3.038   6.074   1.020
 8311TIP3    H224898   3.160   6.137   1.084
 8312TIP3   OH224899   2.466   3.250   0.473
 8312TIP3    H124900   2.400   3.319   0.482
 8312TIP3    H224901   2.519   3.278   0.398
 8313TIP3   OH224902   4.335   2.035   3.220
 8313TIP3    H124903   4.248   2.026   3.260
 8313TIP3    H224904   4.383   1.957   3.247
 8314TIP3   OH224905   4.225   2.973   0.165
 8314TIP3    H124906   4.172   2.893   0.159
 8314TIP3    H224907   4.185   3.033   0.103
 8315TIP3   OH224908   3.646   4.980   4.570
 8315TIP3    H124909   3.606   5.052   4.523
 8315TIP3    H224910   3.714   5.021   4.623
 8316TIP3   OH224911   2.974   5.623   0.088
 8316TIP3    H124912   2.952   5.598   0.177
 8316TIP3    H224913   3.058   5.667   0.095
 8317TIP3   OH224914   2.230   4.557   1.435
 8317TIP3    H124915   2.135   4.565   1.428
 8317TIP3    H224916   2.254   4.612   1.509
 8318TIP3   OH224917   4.278   5.435   2.361
 8318TIP3    H124918   4.367   5.445   2.395
 8318TIP3    H224919   4.256   5.521   2.327
 8319TIP3   OH224920   6.730   6.500   3.904
 8319TIP3    H124921   6.653   6.448   3.928
 8319TIP3    H224922   6.701   6.555   3.832
 8320TIP3   OH224923   4.893   6.688   4.661
 8320TIP3    H124924   4.798   6.690   4.664
 8320TIP3    H224925   4.921   6.766   4.710
 8321TIP3   OH224926   1.062   6.205   2.901
 8321TIP3    H124927   1.075   6.166   2.988
 8321TIP3    H224928   1.145   6.249   2.882
 8322TIP3   OH224929   0.135   3.822   5.601
 8322TIP3    H124930   0.138   3.727   5.588
 8322TIP3    H224931   0.212   3.854   5.554
 8323TIP3   OH224932   2.222   0.746   4.790
 8323TIP3    H124933   2.261   0.790   4.865
 8323TIP3    H224934   2.250   0.798   4.714
 8324TIP3   OH224935   5.122   1.111   4.884
 8324TIP3    H124936   5.127   1.204   4.858
 8324TIP3    H224937   5.205   1.074   4.854
 8325TIP3   OH224938   5.139   2.875   4.336
 8325TIP3    H124939   5.172   2.866   4.425
 8325TIP3    H224940   5.093   2.792   4.319
 8326TIP3   OH224941   3.716   2.000   5.369
 8326TIP3    H124942   3.698   2.072   5.308
 8326TIP3    H224943   3.714   1.922   5.314
 8327TIP3   OH224944   4.927   4.867   1.570
 8327TIP3    H124945   4.997   4.806   1.549
 8327TIP3    H224946   4.911   4.914   1.488
 8328TIP3   OH224947   0.044   5.111   4.283
 8328TIP3    H124948   0.060   5.102   4.377
 8328TIP3    H224949   0.107   5.178   4.255
 8329TIP3   OH224950   6.698   6.828   1.283
 8329TIP3    H124951   6.694   6.910   1.332
 8329TIP3    H224952   6.728   6.763   1.346
 8330TIP3   OH224953   3.569   6.235   0.317
 8330TIP3    H124954   3.580   6.329   0.299
 8330TIP3    H224955   3.642   6.193   0.272
 8331TIP3   OH224956   6.603   0.913   1.096
 8331TIP3    H124957   6.608   1.003   1.129
 8331TIP3    H224958   6.668   0.865   1.148
 8332TIP3   OH224959   0.537   3.690   5.651
 8332TIP3    H124960   0.521   3.597   5.636
 8332TIP3    H224961   0.632   3.697   5.659
 8333TIP3   OH224962   6.394   5.623   1.508
 8333TIP3    H124963   6.412   5.622   1.602
 8333TIP3    H224964   6.313   5.673   1.500
 8334TIP3   OH224965   1.336   3.637   1.617
 8334TIP3    H124966   1.348   3.624   1.523
 8334TIP3    H224967   1.405   3.698   1.642
 8335TIP3   OH224968   4.742   1.508   0.839
 8335TIP3    H124969   4.709   1.523   0.928
 8335TIP3    H224970   4.667   1.473   0.792
 8336TIP3   OH224971   4.483   6.191   4.206
 8336TIP3    H124972   4.458   6.117   4.260
 8336TIP3    H224973   4.520   6.152   4.127
 8337TIP3   OH224974   7.168   5.496   4.131
 8337TIP3    H124975   7.161   5.570   4.071
 8337TIP3    H224976   7.230   5.437   4.089
 8338TIP3   OH224977   2.150   5.216   0.951
 8338TIP3    H124978   2.199   5.140   0.982
 8338TIP3    H224979   2.061   5.201   0.983
 8339TIP3   OH224980   5.148   3.937   3.904
 8339TIP3    H124981   5.126   4.024   3.873
 8339TIP3    H224982   5.105   3.930   3.990
 8340TIP3   OH224983   1.356   1.533   3.073
 8340TIP3    H124984   1.371   1.605   3.013
 8340TIP3    H224985   1.406   1.460   3.036
 8341TIP3   OH224986   3.979   2.610   2.536
 8341TIP3    H124987   3.955   2.679   2.475
 8341TIP3    H224988   3.989   2.532   2.481
 8342TIP3   OH224989   1.879   6.718   0.773
 8342TIP3    H124990   1.854   6.644   0.717
 8342TIP3    H224991   1.873   6.684   0.862
 8343TIP3   OH224992   4.366   3.025   4.296
 8343TIP3    H124993   4.387   3.109   4.255
 8343TIP3    H224994   4.451   2.988   4.319
 8344TIP3   OH224995   5.125   5.762   0.156
 8344TIP3    H124996   5.060   5.770   0.227
 8344TIP3    H224997   5.202   5.724   0.199
 8345TIP3   OH224998   5.296   1.427   0.170
 8345TIP3    H124999   5.299   1.332   0.181
 8345TIP3    H225000   5.356   1.461   0.237
 8346TIP3   OH225001   4.606   4.551   4.115
 8346TIP3    H125002   4.669   4.523   4.182
 8346TIP3    H225003   4.569   4.632   4.149
 8347TIP3   OH225004   0.002   6.125   0.790
 8347TIP3    H125005  -0.088   6.158   0.797
 8347TIP3    H225006   0.057   6.199   0.817
 8348TIP3   OH225007   4.963   5.499   3.135
 8348TIP3    H125008   4.951   5.472   3.226
 8348TIP3    H225009   4.979   5.593   3.139
 8349TIP3   OH225010   2.962   3.146   0.267
 8349TIP3    H125011   2.951   3.215   0.202
 8349TIP3    H225012   2.962   3.065   0.216
 8350TIP3   OH225013   0.037   3.883   4.272
 8350TIP3    H125014   0.076   3.802   4.307
 8350TIP3    H225015   0.096   3.952   4.301
 8351TIP3   OH225016   2.016   6.588   1.404
 8351TIP3    H125017   2.074   6.664   1.412
 8351TIP3    H225018   2.048   6.527   1.470
 8352TIP3   OH225019   7.083   6.409   5.426
 8352TIP3    H125020   7.033   6.426   5.506
 8352TIP3    H225021   7.092   6.495   5.384
 8353TIP3   OH225022   3.278   3.112   4.250
 8353TIP3    H125023   3.372   3.097   4.261
 8353TIP3    H225024   3.242   3.107   4.338
 8354TIP3   OH225025   5.993   3.680   2.822
 8354TIP3    H125026   5.979   3.678   2.727
 8354TIP3    H225027   5.907   3.662   2.860
 8355TIP3   OH225028   3.506   6.314   2.288
 8355TIP3    H125029   3.434   6.285   2.345
 8355TIP3    H225030   3.483   6.403   2.264
 8356TIP3   OH225031   6.069   5.071   1.078
 8356TIP3    H125032   6.000   5.091   1.014
 8356TIP3    H225033   6.031   5.096   1.162
 8357TIP3   OH225034   3.330   5.950   2.345
 8357TIP3    H125035   3.236   5.951   2.327
 8357TIP3    H225036   3.340   5.894   2.421
 8358TIP3   OH225037   2.779   4.616   2.746
 8358TIP3    H125038   2.720   4.592   2.818
 8358TIP3    H225039   2.788   4.536   2.695
 8359TIP3   OH225040   4.571   0.015   1.458
 8359TIP3    H125041   4.659  -0.014   1.434
 8359TIP3    H225042   4.583   0.073   1.532
 8360TIP3   OH225043   2.032   0.545   3.089
 8360TIP3    H125044   1.960   0.571   3.146
 8360TIP3    H225045   2.088   0.623   3.085
 8361TIP3   OH225046   6.854   2.356   0.233
 8361TIP3    H125047   6.858   2.263   0.208
 8361TIP3    H225048   6.766   2.367   0.268
 8362TIP3   OH225049   3.842   0.042   2.357
 8362TIP3    H125050   3.851   0.136   2.345
 8362TIP3    H225051   3.748   0.026   2.356
 8363TIP3   OH225052   4.427   4.531   1.263
 8363TIP3    H125053   4.332   4.524   1.270
 8363TIP3    H225054   4.445   4.625   1.261
 8364TIP3   OH225055   0.479   2.015   1.768
 8364TIP3    H125056   0.559   1.968   1.745
 8364TIP3    H225057   0.509   2.087   1.824
 8365TIP3   OH225058   5.994   1.045   3.447
 8365TIP3    H125059   5.965   1.058   3.357
 8365TIP3    H225060   6.082   1.084   3.449
 8366TIP3   OH225061   7.235   0.808   1.796
 8366TIP3    H125062   7.244   0.893   1.753
 8366TIP3    H225063   7.244   0.828   1.889
 8367TIP3   OH225064   3.651   3.751   4.518
 8367TIP3    H125065   3.598   3.813   4.468
 8367TIP3    H225066   3.714   3.716   4.454
 8368TIP3   OH225067   6.096   6.341   5.370
 8368TIP3    H125068   6.188   6.355   5.347
 8368TIP3    H225069   6.054   6.425   5.353
 8369TIP3   OH225070   6.155   1.399   2.724
 8369TIP3    H125071   6.124   1.378   2.812
 8369TIP3    H225072   6.235   1.449   2.739
 8370TIP3   OH225073   1.979   5.359   2.027
 8370TIP3    H125074   2.000   5.306   1.950
 8370TIP3    H225075   2.065   5.382   2.065
 8371TIP3   OH225076   3.092   5.180   2.345
 8371TIP3    H125077   3.128   5.208   2.262
 8371TIP3    H225078   3.093   5.084   2.342
 8372TIP3   OH225079   1.384   5.896   1.588
 8372TIP3    H125080   1.320   5.958   1.554
 8372TIP3    H225081   1.384   5.824   1.525
 8373TIP3   OH225082   1.384   4.610   0.177
 8373TIP3    H125083   1.465   4.589   0.132
 8373TIP3    H225084   1.380   4.547   0.250
 8374TIP3   OH225085   4.395   2.691   2.918
 8374TIP3    H125086   4.456   2.735   2.977
 8374TIP3    H225087   4.391   2.748   2.841
 8375TIP3   OH225088   0.866   2.095   4.593
 8375TIP3    H125089   0.816   2.018   4.567
 8375TIP3    H225090   0.948   2.088   4.544
 8376TIP3   OH225091   6.158   0.729   0.154
 8376TIP3    H125092   6.224   0.661   0.171
 8376TIP3    H225093   6.181   0.800   0.214
 8377TIP3   OH225094   1.016   4.695   2.890
 8377TIP3    H125095   1.020   4.767   2.953
 8377TIP3    H225096   1.050   4.620   2.938
 8378TIP3   OH225097   6.926   5.962   1.012
 8378TIP3    H125098   6.963   5.947   0.925
 8378TIP3    H225099   6.872   6.040   1.002
 8379TIP3   OH225100   3.428   4.538   3.344
 8379TIP3    H125101   3.342   4.579   3.332
 8379TIP3    H225102   3.477   4.563   3.265
 8380TIP3   OH225103   4.256   4.070   0.704
 8380TIP3    H125104   4.167   4.047   0.678
 8380TIP3    H225105   4.246   4.141   0.766
 8381TIP3   OH225106   7.124   2.550   4.317
 8381TIP3    H125107   7.176   2.517   4.244
 8381TIP3    H225108   7.133   2.483   4.385
 8382TIP3   OH225109   4.376   3.105   1.276
 8382TIP3    H125110   4.293   3.061   1.262
 8382TIP3    H225111   4.434   3.070   1.208
 8383TIP3   OH225112   5.261   5.145   4.827
 8383TIP3    H125113   5.223   5.111   4.908
 8383TIP3    H225114   5.187   5.158   4.768
 8384TIP3   OH225115   2.885   2.601   1.042
 8384TIP3    H125116   2.963   2.553   1.013
 8384TIP3    H225117   2.911   2.639   1.126
 8385TIP3   OH225118   2.668   2.348   4.376
 8385TIP3    H125119   2.596   2.407   4.351
 8385TIP3    H225120   2.719   2.398   4.439
 8386TIP3   OH225121   2.648   3.623   4.753
 8386TIP3    H125122   2.741   3.621   4.776
 8386TIP3    H225123   2.645   3.663   4.666
 8387TIP3   OH225124   2.043   3.722   2.060
 8387TIP3    H125125   1.966   3.726   2.004
 8387TIP3    H225126   2.011   3.745   2.147
 8388TIP3   OH225127   6.658   3.240   1.890
 8388TIP3    H125128   6.671   3.165   1.833
 8388TIP3    H225129   6.571   3.273   1.868
 8389TIP3   OH225130   6.521   1.795   5.718
 8389TIP3    H125131   6.435   1.768   5.687
 8389TIP3    H225132   6.579   1.785   5.642
 8390TIP3   OH225133   2.913   3.709   2.769
 8390TIP3    H125134   2.888   3.632   2.719
 8390TIP3    H225135   2.904   3.683   2.861
 8391TIP3   OH225136   4.871   3.342   0.212
 8391TIP3    H125137   4.935   3.279   0.182
 8391TIP3    H225138   4.853   3.397   0.136
 8392TIP3   OH225139   5.313   5.746   5.584
 8392TIP3    H125140   5.308   5.820   5.525
 8392TIP3    H225141   5.231   5.698   5.570
 8393TIP3   OH225142   5.940   4.042   1.196
 8393TIP3    H125143   5.845   4.031   1.201
 8393TIP3    H225144   5.975   3.955   1.214
 8394TIP3   OH225145   3.520   5.370   5.101
 8394TIP3    H125146   3.597   5.418   5.069
 8394TIP3    H225147   3.541   5.349   5.192
 8395TIP3   OH225148   2.466   5.692   5.034
 8395TIP3    H125149   2.430   5.604   5.037
 8395TIP3    H225150   2.462   5.723   5.125
 8396TIP3   OH225151   2.516   4.001   3.893
 8396TIP3    H125152   2.490   4.030   3.806
 8396TIP3    H225153   2.449   3.938   3.919
 8397TIP3   OH225154   2.111   2.901   3.777
 8397TIP3    H125155   2.097   2.992   3.804
 8397TIP3    H225156   2.098   2.850   3.857
 8398TIP3   OH225157   3.856   4.981   4.790
 8398TIP3    H125158   3.885   5.024   4.870
 8398TIP3    H225159   3.905   5.024   4.720
 8399TIP3   OH225160   0.098   0.717   0.014
 8399TIP3    H125161   0.117   0.807   0.038
 8399TIP3    H225162   0.003   0.715   0.003
 8400TIP3   OH225163   4.875   2.560   4.108
 8400TIP3    H125164   4.817   2.565   4.184
 8400TIP3    H225165   4.882   2.650   4.076
 8401TIP3   OH225166   3.246   3.076   0.353
 8401TIP3    H125167   3.238   2.999   0.409
 8401TIP3    H225168   3.157   3.093   0.323
 8402TIP3   OH225169   4.810   4.666   3.656
 8402TIP3    H125170   4.787   4.624   3.573
 8402TIP3    H225171   4.775   4.607   3.723
 8403TIP3   OH225172   4.244   3.281   0.959
 8403TIP3    H125173   4.258   3.188   0.974
 8403TIP3    H225174   4.274   3.323   1.040
 8404TIP3   OH225175   2.615   1.342   0.593
 8404TIP3    H125176   2.664   1.307   0.668
 8404TIP3    H225177   2.525   1.315   0.608
 8405TIP3   OH225178   0.081   1.142   0.843
 8405TIP3    H125179   0.090   1.227   0.887
 8405TIP3    H225180   0.019   1.093   0.897
 8406TIP3   OH225181   1.047   0.506   5.246
 8406TIP3    H125182   0.980   0.522   5.312
 8406TIP3    H225183   1.122   0.558   5.275
 8407TIP3   OH225184   6.251   2.419   4.174
 8407TIP3    H125185   6.166   2.376   4.184
 8407TIP3    H225186   6.296   2.366   4.108
 8408TIP3   OH225187   4.683   1.191   4.232
 8408TIP3    H125188   4.762   1.244   4.229
 8408TIP3    H225189   4.693   1.129   4.159
 8409TIP3   OH225190   5.182   2.385   3.009
 8409TIP3    H125191   5.087   2.389   3.024
 8409TIP3    H225192   5.192   2.384   2.914
 8410TIP3   OH225193   3.738   2.860   1.310
 8410TIP3    H125194   3.799   2.796   1.347
 8410TIP3    H225195   3.652   2.819   1.317
 8411TIP3   OH225196   0.166   3.448   3.857
 8411TIP3    H125197   0.199   3.537   3.849
 8411TIP3    H225198   0.220   3.409   3.927
 8412TIP3   OH225199   6.520   2.247   3.164
 8412TIP3    H125200   6.558   2.183   3.104
 8412TIP3    H225201   6.429   2.256   3.135
 8413TIP3   OH225202   6.120   4.200   0.488
 8413TIP3    H125203   6.188   4.192   0.554
 8413TIP3    H225204   6.039   4.209   0.538
 8414TIP3   OH225205   1.379   5.968   2.341
 8414TIP3    H125206   1.390   6.026   2.417
 8414TIP3    H225207   1.451   5.990   2.283
 8415TIP3   OH225208   6.140   5.658   4.725
 8415TIP3    H125209   6.093   5.576   4.744
 8415TIP3    H225210   6.081   5.707   4.668
 8416TIP3   OH225211   6.685   1.806   3.908
 8416TIP3    H125212   6.732   1.869   3.962
 8416TIP3    H225213   6.754   1.758   3.862
 8417TIP3   OH225214   1.696   4.485   1.472
 8417TIP3    H125215   1.664   4.537   1.398
 8417TIP3    H225216   1.635   4.411   1.477
 8418TIP3   OH225217   1.826   3.746   0.521
 8418TIP3    H125218   1.808   3.724   0.612
 8418TIP3    H225219   1.922   3.741   0.514
 8419TIP3   OH225220   5.191   2.361   1.643
 8419TIP3    H125221   5.115   2.352   1.585
 8419TIP3    H225222   5.260   2.313   1.599
 8420TIP3   OH225223   4.261   3.034   2.487
 8420TIP3    H125224   4.300   3.087   2.557
 8420TIP3    H225225   4.230   3.098   2.423
 8421TIP3   OH225226   3.980   6.533   2.335
 8421TIP3    H125227   4.021   6.511   2.419
 8421TIP3    H225228   4.037   6.601   2.298
 8422TIP3   OH225229   5.164   0.353   1.169
 8422TIP3    H125230   5.144   0.440   1.134
 8422TIP3    H225231   5.204   0.307   1.096
 8423TIP3   OH225232   6.789   1.501   0.335
 8423TIP3    H125233   6.807   1.414   0.370
 8423TIP3    H225234   6.702   1.523   0.369
 8424TIP3   OH225235   2.158   5.118   3.100
 8424TIP3    H125236   2.080   5.171   3.116
 8424TIP3    H225237   2.131   5.055   3.033
 8425TIP3   OH225238   4.128   1.119   2.403
 8425TIP3    H125239   4.160   1.210   2.404
 8425TIP3    H225240   4.205   1.067   2.426
 8426TIP3   OH225241   3.733   1.291   3.018
 8426TIP3    H125242   3.669   1.312   2.950
 8426TIP3    H225243   3.778   1.373   3.035
 8427TIP3   OH225244   1.547   4.733   4.163
 8427TIP3    H125245   1.603   4.803   4.194
 8427TIP3    H225246   1.509   4.696   4.243
 8428TIP3   OH225247   0.604   5.032   5.676
 8428TIP3    H125248   0.541   4.977   5.721
 8428TIP3    H225249   0.552   5.101   5.636
 8429TIP3   OH225250   2.733   0.245   0.935
 8429TIP3    H125251   2.828   0.241   0.946
 8429TIP3    H225252   2.699   0.258   1.023
 8430TIP3   OH225253   4.052   6.187   1.550
 8430TIP3    H125254   4.069   6.098   1.518
 8430TIP3    H225255   4.075   6.243   1.476
 8431TIP3   OH225256   3.805   2.388   3.387
 8431TIP3    H125257   3.816   2.443   3.310
 8431TIP3    H225258   3.894   2.360   3.410
 8432TIP3   OH225259   6.903   1.911   5.756
 8432TIP3    H125260   6.851   1.986   5.726
 8432TIP3    H225261   6.893   1.912   5.851
 8433TIP3   OH225262   1.514   0.555   0.077
 8433TIP3    H125263   1.570   0.587   0.007
 8433TIP3    H225264   1.548   0.468   0.097
 8434TIP3   OH225265   5.961   1.601   3.969
 8434TIP3    H125266   6.021   1.672   3.991
 8434TIP3    H225267   5.881   1.645   3.941
 8435TIP3   OH225268   3.509   3.611   2.834
 8435TIP3    H125269   3.506   3.698   2.873
 8435TIP3    H225270   3.575   3.564   2.886
 8436TIP3   OH225271   5.860   1.873   0.457
 8436TIP3    H125272   5.811   1.895   0.536
 8436TIP3    H225273   5.943   1.838   0.489
 8437TIP3   OH225274   1.913   1.680   4.877
 8437TIP3    H125275   1.887   1.618   4.945
 8437TIP3    H225276   1.863   1.759   4.896
 8438TIP3   OH225277   6.481   5.438   5.259
 8438TIP3    H125278   6.538   5.511   5.284
 8438TIP3    H225279   6.517   5.406   5.176
 8439TIP3   OH225280   5.075   4.125   2.739
 8439TIP3    H125281   5.127   4.144   2.661
 8439TIP3    H225282   5.087   4.202   2.795
 8440TIP3   OH225283   3.194   0.408   4.065
 8440TIP3    H125284   3.189   0.357   3.984
 8440TIP3    H225285   3.272   0.463   4.055
 8441TIP3   OH225286   4.366   6.426   4.765
 8441TIP3    H125287   4.287   6.422   4.819
 8441TIP3    H225288   4.438   6.409   4.826
 8442TIP3   OH225289   3.656   4.120   4.056
 8442TIP3    H125290   3.701   4.042   4.022
 8442TIP3    H225291   3.602   4.150   3.983
 8443TIP3   OH225292   1.358   6.805   0.157
 8443TIP3    H125293   1.435   6.850   0.121
 8443TIP3    H225294   1.394   6.740   0.217
 8444TIP3   OH225295   0.173   1.358   1.377
 8444TIP3    H125296   0.228   1.332   1.303
 8444TIP3    H225297   0.234   1.360   1.451
 8445TIP3   OH225298   0.435   0.489   5.616
 8445TIP3    H125299   0.506   0.498   5.553
 8445TIP3    H225300   0.455   0.408   5.664
 8446TIP3   OH225301   3.605   2.838   0.876
 8446TIP3    H125302   3.682   2.890   0.901
 8446TIP3    H225303   3.595   2.774   0.947
 8447TIP3   OH225304   3.178   4.923   4.395
 8447TIP3    H125305   3.178   4.917   4.491
 8447TIP3    H225306   3.266   4.895   4.370
 8448TIP3   OH225307   5.676   0.685   3.660
 8448TIP3    H125308   5.590   0.708   3.626
 8448TIP3    H225309   5.738   0.727   3.600
 8449TIP3   OH225310   4.057   1.512   4.250
 8449TIP3    H125311   4.038   1.541   4.339
 8449TIP3    H225312   4.150   1.491   4.250
 8450TIP3   OH225313   3.715   2.413   2.697
 8450TIP3    H125314   3.673   2.344   2.645
 8450TIP3    H225315   3.808   2.391   2.694
 8451TIP3   OH225316   7.091   2.851   2.851
 8451TIP3    H125317   7.023   2.911   2.883
 8451TIP3    H225318   7.071   2.768   2.894
 8452TIP3   OH225319   1.746   4.257   3.097
 8452TIP3    H125320   1.776   4.321   3.160
 8452TIP3    H225321   1.658   4.234   3.126
 8453TIP3   OH225322   5.812   3.291   5.475
 8453TIP3    H125323   5.791   3.296   5.568
 8453TIP3    H225324   5.900   3.254   5.472
 8454TIP3   OH225325   3.957   3.961   3.145
 8454TIP3    H125326   4.010   3.925   3.073
 8454TIP3    H225327   4.000   4.044   3.167
 8455TIP3   OH225328   6.164   5.407   3.096
 8455TIP3    H125329   6.192   5.372   3.012
 8455TIP3    H225330   6.215   5.487   3.108
 8456TIP3   OH225331   2.139   4.420   5.192
 8456TIP3    H125332   2.056   4.468   5.193
 8456TIP3    H225333   2.206   4.487   5.189
 8457TIP3   OH225334   5.818   3.904   5.893
 8457TIP3    H125335   5.861   3.822   5.916
 8457TIP3    H225336   5.759   3.880   5.820
 8458TIP3   OH225337   5.763   4.181   2.776
 8458TIP3    H125338   5.785   4.209   2.865
 8458TIP3    H225339   5.671   4.203   2.766
 8459TIP3   OH225340   6.227   3.164   0.556
 8459TIP3    H125341   6.194   3.188   0.470
 8459TIP3    H225342   6.223   3.245   0.607
 8460TIP3   OH225343   4.594   4.575   5.797
 8460TIP3    H125344   4.545   4.559   5.716
 8460TIP3    H225345   4.542   4.639   5.844
 8461TIP3   OH225346   1.617   0.614   3.427
 8461TIP3    H125347   1.622   0.541   3.489
 8461TIP3    H225348   1.525   0.617   3.401
 8462TIP3   OH225349   1.941   3.330   1.982
 8462TIP3    H125350   1.932   3.397   2.050
 8462TIP3    H225351   1.866   3.272   1.996
 8463TIP3   OH225352   0.328   0.217   2.097
 8463TIP3    H125353   0.275   0.138   2.101
 8463TIP3    H225354   0.305   0.257   2.013
 8464TIP3   OH225355   6.126   5.571   2.427
 8464TIP3    H125356   6.116   5.477   2.414
 8464TIP3    H225357   6.119   5.583   2.522
 8465TIP3   OH225358   4.038   0.439   5.075
 8465TIP3    H125359   4.089   0.516   5.100
 8465TIP3    H225360   3.987   0.418   5.153
 8466TIP3   OH225361   2.992   1.863   5.110
 8466TIP3    H125362   3.068   1.832   5.061
 8466TIP3    H225363   3.003   1.958   5.115
 8467TIP3   OH225364   0.116   2.366   2.473
 8467TIP3    H125365   0.111   2.316   2.391
 8467TIP3    H225366   0.088   2.454   2.449
 8468TIP3   OH225367   6.328   4.437   5.371
 8468TIP3    H125368   6.422   4.450   5.366
 8468TIP3    H225369   6.302   4.471   5.456
 8469TIP3   OH225370   0.127   1.382   1.014
 8469TIP3    H125371   0.066   1.425   1.075
 8469TIP3    H225372   0.162   1.308   1.063
 8470TIP3   OH225373   3.928   3.956   2.653
 8470TIP3    H125374   4.014   3.998   2.646
 8470TIP3    H225375   3.866   4.028   2.641
 8471TIP3   OH225376   2.501   4.054   3.432
 8471TIP3    H125377   2.432   4.083   3.492
 8471TIP3    H225378   2.483   4.101   3.350
 8472TIP3   OH225379   1.689   5.852   3.538
 8472TIP3    H125380   1.684   5.810   3.453
 8472TIP3    H225381   1.750   5.925   3.525
 8473TIP3   OH225382   3.768   3.383   0.305
 8473TIP3    H125383   3.803   3.371   0.393
 8473TIP3    H225384   3.815   3.321   0.251
 8474TIP3   OH225385   7.224   4.807   1.295
 8474TIP3    H125386   7.140   4.807   1.342
 8474TIP3    H225387   7.241   4.715   1.275
 8475TIP3   OH225388   5.828   2.032   2.896
 8475TIP3    H125389   5.892   2.058   2.830
 8475TIP3    H225390   5.744   2.061   2.861
 8476TIP3   OH225391   3.235   6.075   4.997
 8476TIP3    H125392   3.289   6.026   4.935
 8476TIP3    H225393   3.288   6.150   5.022
 8477TIP3   OH225394   1.887   2.137   1.594
 8477TIP3    H125395   1.865   2.156   1.685
 8477TIP3    H225396   1.911   2.222   1.557
 8478TIP3   OH225397   3.268   1.355   1.690
 8478TIP3    H125398   3.247   1.295   1.618
 8478TIP3    H225399   3.242   1.441   1.658
 8479TIP3   OH225400   7.130   1.192   0.215
 8479TIP3    H125401   7.179   1.239   0.147
 8479TIP3    H225402   7.115   1.257   0.283
 8480TIP3   OH225403   5.999   0.851   5.585
 8480TIP3    H125404   5.917   0.815   5.550
 8480TIP3    H225405   6.058   0.854   5.510
 8481TIP3   OH225406   5.886   6.310   0.984
 8481TIP3    H125407   5.958   6.249   0.999
 8481TIP3    H225408   5.898   6.378   1.049
 8482TIP3   OH225409   3.520   5.263   2.267
 8482TIP3    H125410   3.484   5.349   2.246
 8482TIP3    H225411   3.580   5.278   2.339
 8483TIP3   OH225412   4.153   3.697   4.566
 8483TIP3    H125413   4.136   3.788   4.592
 8483TIP3    H225414   4.115   3.690   4.478
 8484TIP3   OH225415   1.258   4.514   4.921
 8484TIP3    H125416   1.215   4.582   4.973
 8484TIP3    H225417   1.255   4.436   4.976
 8485TIP3   OH225418   1.882   5.428   1.472
 8485TIP3    H125419   1.857   5.345   1.431
 8485TIP3    H225420   1.870   5.493   1.402
 8486TIP3   OH225421   4.818   1.802   3.024
 8486TIP3    H125422   4.818   1.771   2.933
 8486TIP3    H225423   4.751   1.870   3.026
 8487TIP3   OH225424   3.012   5.628   2.001
 8487TIP3    H125425   2.926   5.633   2.042
 8487TIP3    H225426   3.024   5.714   1.960
 8488TIP3   OH225427   1.636   5.191   0.616
 8488TIP3    H125428   1.679   5.269   0.651
 8488TIP3    H225429   1.548   5.195   0.652
 8489TIP3   OH225430   3.261   0.620   2.557
 8489TIP3    H125431   3.238   0.686   2.492
 8489TIP3    H225432   3.194   0.552   2.548
 8490TIP3   OH225433   5.187   5.909   4.169
 8490TIP3    H125434   5.245   5.930   4.242
 8490TIP3    H225435   5.124   5.847   4.206
 8491TIP3   OH225436   5.789   3.453   3.875
 8491TIP3    H125437   5.715   3.495   3.920
 8491TIP3    H225438   5.822   3.389   3.938
 8492TIP3   OH225439   5.964   6.127   0.083
 8492TIP3    H125440   5.901   6.115   0.154
 8492TIP3    H225441   5.923   6.087   0.007
 8493TIP3   OH225442   5.288   0.171   5.604
 8493TIP3    H125443   5.266   0.217   5.685
 8493TIP3    H225444   5.341   0.233   5.554
 8494TIP3   OH225445   3.781   3.172   3.708
 8494TIP3    H125446   3.865   3.210   3.733
 8494TIP3    H225447   3.787   3.162   3.613
 8495TIP3   OH225448   4.627   1.430   2.586
 8495TIP3    H125449   4.631   1.336   2.601
 8495TIP3    H225450   4.692   1.447   2.518
 8496TIP3   OH225451   3.480   4.219   3.878
 8496TIP3    H125452   3.430   4.247   3.954
 8496TIP3    H225453   3.433   4.257   3.803
 8497TIP3   OH225454   0.529   1.945   2.081
 8497TIP3    H125455   0.460   1.988   2.131
 8497TIP3    H225456   0.532   1.993   1.998
 8498TIP3   OH225457   4.420   4.525   0.864
 8498TIP3    H125458   4.370   4.595   0.906
 8498TIP3    H225459   4.359   4.451   0.861
 8499TIP3   OH225460   2.336   5.986   1.089
 8499TIP3    H125461   2.386   6.034   1.023
 8499TIP3    H225462   2.374   5.898   1.090
 8500TIP3   OH225463   5.505   4.819   3.241
 8500TIP3    H125464   5.434   4.757   3.222
 8500TIP3    H225465   5.460   4.895   3.276
 8501TIP3   OH225466   0.733   5.262   4.568
 8501TIP3    H125467   0.719   5.334   4.630
 8501TIP3    H225468   0.774   5.193   4.621
 8502TIP3   OH225469   4.752   1.002   1.384
 8502TIP3    H125470   4.803   1.055   1.324
 8502TIP3    H225471   4.817   0.969   1.447
 8503TIP3   OH225472   5.766   1.869   1.749
 8503TIP3    H125473   5.808   1.788   1.778
 8503TIP3    H225474   5.784   1.873   1.655
 8504TIP3   OH225475   4.889   1.473   4.419
 8504TIP3    H125476   4.914   1.524   4.342
 8504TIP3    H225477   4.923   1.385   4.402
 8505TIP3   OH225478   2.057   3.219   0.806
 8505TIP3    H125479   2.083   3.219   0.898
 8505TIP3    H225480   2.138   3.200   0.758
 8506TIP3   OH225481   4.650   4.031   3.510
 8506TIP3    H125482   4.668   4.119   3.543
 8506TIP3    H225483   4.569   4.005   3.555
 8507TIP3   OH225484   2.494   6.797   2.940
 8507TIP3    H125485   2.511   6.703   2.933
 8507TIP3    H225486   2.513   6.818   3.032
 8508TIP3   OH225487   2.217   1.898   3.123
 8508TIP3    H125488   2.203   1.978   3.072
 8508TIP3    H225489   2.158   1.907   3.198
 8509TIP3   OH225490   2.797   0.950   0.566
 8509TIP3    H125491   2.749   1.013   0.513
 8509TIP3    H225492   2.829   1.000   0.641
 8510TIP3   OH225493   7.104   1.873   4.626
 8510TIP3    H125494   7.194   1.904   4.620
 8510TIP3    H225495   7.110   1.779   4.614
 8511TIP3   OH225496   0.014   5.720   2.516
 8511TIP3    H125497   0.067   5.648   2.482
 8511TIP3    H225498   0.026   5.791   2.453
 8512TIP3   OH225499   2.455   5.465   0.697
 8512TIP3    H125500   2.506   5.392   0.663
 8512TIP3    H225501   2.363   5.440   0.684
 8513TIP3   OH225502   1.613   3.908   5.160
 8513TIP3    H125503   1.691   3.924   5.106
 8513TIP3    H225504   1.626   3.821   5.197
 8514TIP3   OH225505   0.706   3.000   3.316
 8514TIP3    H125506   0.736   2.919   3.276
 8514TIP3    H225507   0.635   2.974   3.374
 8515TIP3   OH225508   0.170   2.308   1.634
 8515TIP3    H125509   0.256   2.278   1.664
 8515TIP3    H225510   0.123   2.329   1.714
 8516TIP3   OH225511   5.474   5.449   3.600
 8516TIP3    H125512   5.393   5.498   3.615
 8516TIP3    H225513   5.480   5.441   3.505
 8517TIP3   OH225514   6.422   5.321   3.277
 8517TIP3    H125515   6.349   5.261   3.289
 8517TIP3    H225516   6.414   5.352   3.187
 8518TIP3   OH225517   0.107   3.354   3.216
 8518TIP3    H125518   0.074   3.365   3.127
 8518TIP3    H225519   0.063   3.422   3.266
 8519TIP3   OH225520   4.659   4.760   4.684
 8519TIP3    H125521   4.613   4.713   4.753
 8519TIP3    H225522   4.684   4.693   4.621
 8520TIP3   OH225523   3.326   0.692   4.270
 8520TIP3    H125524   3.394   0.745   4.229
 8520TIP3    H225525   3.244   0.728   4.236
 8521TIP3   OH225526   5.366   2.407   5.806
 8521TIP3    H125527   5.354   2.335   5.867
 8521TIP3    H225528   5.327   2.375   5.724
 8522TIP3   OH225529   2.743   2.209   2.811
 8522TIP3    H125530   2.752   2.240   2.901
 8522TIP3    H225531   2.755   2.287   2.757
 8523TIP3   OH225532   1.167   4.812   4.084
 8523TIP3    H125533   1.131   4.897   4.057
 8523TIP3    H225534   1.141   4.752   4.015
 8524TIP3   OH225535   0.347   6.628   0.312
 8524TIP3    H125536   0.350   6.714   0.271
 8524TIP3    H225537   0.426   6.624   0.366
 8525TIP3   OH225538   1.743   2.931   3.487
 8525TIP3    H125539   1.833   2.945   3.457
 8525TIP3    H225540   1.744   2.844   3.526
 8526TIP3   OH225541   1.070   4.390   4.535
 8526TIP3    H125542   1.137   4.457   4.523
 8526TIP3    H225543   1.119   4.310   4.552
 8527TIP3   OH225544   3.185   0.593   1.543
 8527TIP3    H125545   3.188   0.498   1.545
 8527TIP3    H225546   3.106   0.615   1.591
 8528TIP3   OH225547   7.079   1.413   5.684
 8528TIP3    H125548   6.998   1.450   5.649
 8528TIP3    H225549   7.145   1.429   5.616
 8529TIP3   OH225550   2.962   0.656   3.343
 8529TIP3    H125551   2.916   0.706   3.275
 8529TIP3    H225552   2.925   0.567   3.336
 8530TIP3   OH225553   1.088   0.172   5.434
 8530TIP3    H125554   1.160   0.226   5.468
 8530TIP3    H225555   1.091   0.092   5.486
 8531TIP3   OH225556   2.194   0.235   2.675
 8531TIP3    H125557   2.126   0.274   2.620
 8531TIP3    H225558   2.229   0.163   2.623
 8532TIP3   OH225559   3.117   6.292   5.444
 8532TIP3    H125560   3.203   6.333   5.449
 8532TIP3    H225561   3.122   6.217   5.504
 8533TIP3   OH225562   2.783   1.927   1.014
 8533TIP3    H125563   2.775   1.914   1.109
 8533TIP3    H225564   2.847   1.861   0.987
 8534TIP3   OH225565   2.064   4.976   1.739
 8534TIP3    H125566   1.987   4.925   1.763
 8534TIP3    H225567   2.097   4.933   1.660
 8535TIP3   OH225568   2.744   4.777   3.264
 8535TIP3    H125569   2.806   4.848   3.278
 8535TIP3    H225570   2.666   4.803   3.313
 8536TIP3   OH225571   4.229   4.961   0.477
 8536TIP3    H125572   4.317   4.997   0.487
 8536TIP3    H225573   4.232   4.911   0.396
 8537TIP3   OH225574   2.676   1.710   4.115
 8537TIP3    H125575   2.689   1.646   4.185
 8537TIP3    H225576   2.704   1.793   4.153
 8538TIP3   OH225577   5.547   2.501   4.825
 8538TIP3    H125578   5.554   2.587   4.783
 8538TIP3    H225579   5.637   2.476   4.844
 8539TIP3   OH225580   3.364   4.762   2.368
 8539TIP3    H125581   3.441   4.713   2.338
 8539TIP3    H225582   3.379   4.774   2.462
 8540TIP3   OH225583   1.947   0.290   1.731
 8540TIP3    H125584   1.927   0.295   1.824
 8540TIP3    H225585   1.954   0.382   1.703
 8541TIP3   OH225586   6.267   5.258   1.466
 8541TIP3    H125587   6.223   5.189   1.416
 8541TIP3    H225588   6.251   5.338   1.416
 8542TIP3   OH225589   3.824   6.522   2.091
 8542TIP3    H125590   3.776   6.601   2.116
 8542TIP3    H225591   3.887   6.509   2.162
 8543TIP3   OH225592   4.014   0.979   3.386
 8543TIP3    H125593   4.004   1.002   3.478
 8543TIP3    H225594   4.022   1.064   3.341
 8544TIP3   OH225595   1.888   6.130   5.578
 8544TIP3    H125596   1.822   6.135   5.647
 8544TIP3    H225597   1.938   6.211   5.588
 8545TIP3   OH225598   4.458   1.806   3.290
 8545TIP3    H125599   4.553   1.794   3.292
 8545TIP3    H225600   4.425   1.723   3.254
 8546TIP3   OH225601   1.311   3.414   1.775
 8546TIP3    H125602   1.267   3.427   1.859
 8546TIP3    H225603   1.314   3.501   1.735
 8547TIP3   OH225604   6.098   0.188   3.628
 8547TIP3    H125605   6.187   0.222   3.619
 8547TIP3    H225606   6.103   0.129   3.703
 8548TIP3   OH225607   6.143   3.521   5.396
 8548TIP3    H125608   6.214   3.539   5.457
 8548TIP3    H225609   6.070   3.574   5.427
 8549TIP3   OH225610   1.220   0.331   3.576
 8549TIP3    H125611   1.144   0.284   3.541
 8549TIP3    H225612   1.245   0.391   3.506
 8550TIP3   OH225613   3.517   3.251   5.777
 8550TIP3    H125614   3.522   3.343   5.752
 8550TIP3    H225615   3.425   3.227   5.764
 8551TIP3   OH225616   3.376   4.227   2.263
 8551TIP3    H125617   3.385   4.154   2.324
 8551TIP3    H225618   3.381   4.187   2.176
 8552TIP3   OH225619   0.702   4.717   0.352
 8552TIP3    H125620   0.614   4.715   0.391
 8552TIP3    H225621   0.692   4.772   0.275
 8553TIP3   OH225622   0.855   6.199   3.468
 8553TIP3    H125623   0.855   6.123   3.525
 8553TIP3    H225624   0.834   6.164   3.381
 8554TIP3   OH225625   6.012   0.465   3.728
 8554TIP3    H125626   6.083   0.423   3.680
 8554TIP3    H225627   6.050   0.489   3.813
 8555TIP3   OH225628   6.408   6.183   2.079
 8555TIP3    H125629   6.501   6.186   2.060
 8555TIP3    H225630   6.378   6.100   2.041
 8556TIP3   OH225631   3.887   3.272   2.861
 8556TIP3    H125632   3.911   3.328   2.935
 8556TIP3    H225633   3.847   3.331   2.797
 8557TIP3   OH225634   3.718   0.652   0.071
 8557TIP3    H125635   3.765   0.574   0.043
 8557TIP3    H225636   3.626   0.626   0.072
 8558TIP3   OH225637   6.540   3.739   0.893
 8558TIP3    H125638   6.584   3.680   0.954
 8558TIP3    H225639   6.466   3.775   0.943
 8559TIP3   OH225640   5.037   0.202   2.797
 8559TIP3    H125641   4.973   0.151   2.845
 8559TIP3    H225642   5.109   0.214   2.859
 8560TIP3   OH225643   3.079   6.364   4.617
 8560TIP3    H125644   3.138   6.292   4.593
 8560TIP3    H225645   3.066   6.353   4.711
 8561TIP3   OH225646   4.198   4.761   4.067
 8561TIP3    H125647   4.119   4.809   4.092
 8561TIP3    H225648   4.172   4.669   4.067
 8562TIP3   OH225649   4.665   5.618   2.794
 8562TIP3    H125650   4.617   5.637   2.713
 8562TIP3    H225651   4.598   5.620   2.863
 8563TIP3   OH225652   1.680   1.338   5.141
 8563TIP3    H125653   1.625   1.320   5.217
 8563TIP3    H225654   1.640   1.288   5.070
 8564TIP3   OH225655   5.073   4.083   1.700
 8564TIP3    H125656   5.014   4.153   1.728
 8564TIP3    H225657   5.028   4.042   1.627
 8565TIP3   OH225658   3.548   3.723   4.050
 8565TIP3    H125659   3.499   3.701   3.971
 8565TIP3    H225660   3.617   3.783   4.020
 8566TIP3   OH225661   1.483   3.874   0.592
 8566TIP3    H125662   1.523   3.788   0.578
 8566TIP3    H225663   1.400   3.870   0.544
 8567TIP3   OH225664   6.338   1.781   5.373
 8567TIP3    H125665   6.314   1.820   5.289
 8567TIP3    H225666   6.385   1.850   5.420
 8568TIP3   OH225667   7.106   6.241   4.601
 8568TIP3    H125668   7.092   6.158   4.554
 8568TIP3    H225669   7.153   6.296   4.538
 8569TIP3   OH225670   5.705   6.408   0.073
 8569TIP3    H125671   5.701   6.477   0.006
 8569TIP3    H225672   5.717   6.455   0.155
 8570TIP3   OH225673   7.154   5.179   2.346
 8570TIP3    H125674   7.124   5.241   2.413
 8570TIP3    H225675   7.073   5.145   2.307
 8571TIP3   OH225676   4.871   2.814   5.125
 8571TIP3    H125677   4.885   2.745   5.059
 8571TIP3    H225678   4.781   2.801   5.154
 8572TIP3   OH225679   6.019   2.292   4.244
 8572TIP3    H125680   6.019   2.257   4.333
 8572TIP3    H225681   5.992   2.217   4.190
 8573TIP3   OH225682   3.164   4.096   4.999
 8573TIP3    H125683   3.209   4.117   4.917
 8573TIP3    H225684   3.211   4.145   5.066
 8574TIP3   OH225685   4.187   3.976   3.834
 8574TIP3    H125686   4.149   3.902   3.786
 8574TIP3    H225687   4.252   3.937   3.892
 8575TIP3   OH225688   2.951   0.911   2.587
 8575TIP3    H125689   2.931   0.902   2.680
 8575TIP3    H225690   2.997   0.994   2.580
 8576TIP3   OH225691   0.620   2.783   3.922
 8576TIP3    H125692   0.666   2.789   3.839
 8576TIP3    H225693   0.686   2.755   3.985
 8577TIP3   OH225694   4.110   0.531   2.887
 8577TIP3    H125695   4.118   0.463   2.820
 8577TIP3    H225696   4.043   0.590   2.853
 8578TIP3   OH225697   4.158   5.770   1.055
 8578TIP3    H125698   4.069   5.789   1.086
 8578TIP3    H225699   4.214   5.831   1.105
 8579TIP3   OH225700   5.076   2.190   4.730
 8579TIP3    H125701   5.049   2.209   4.820
 8579TIP3    H225702   5.122   2.270   4.702
 8580TIP3   OH225703   4.392   0.174   0.937
 8580TIP3    H125704   4.483   0.206   0.935
 8580TIP3    H225705   4.375   0.159   1.029
 8581TIP3   OH225706   4.680   0.158   2.890
 8581TIP3    H125707   4.736   0.082   2.906
 8581TIP3    H225708   4.605   0.122   2.842
 8582TIP3   OH225709   2.208   4.636   4.061
 8582TIP3    H125710   2.217   4.702   4.130
 8582TIP3    H225711   2.123   4.655   4.021
 8583TIP3   OH225712   0.265   0.235   5.350
 8583TIP3    H125713   0.346   0.283   5.334
 8583TIP3    H225714   0.196   0.296   5.322
 8584TIP3   OH225715   0.493   5.511   2.384
 8584TIP3    H125716   0.407   5.510   2.342
 8584TIP3    H225717   0.554   5.494   2.312
 8585TIP3   OH225718   5.645   5.445   2.712
 8585TIP3    H125719   5.738   5.447   2.689
 8585TIP3    H225720   5.629   5.530   2.752
 8586TIP3   OH225721   4.488   1.593   2.934
 8586TIP3    H125722   4.422   1.610   3.001
 8586TIP3    H225723   4.438   1.580   2.854
 8587TIP3   OH225724   3.396   1.027   3.474
 8587TIP3    H125725   3.432   1.102   3.521
 8587TIP3    H225726   3.458   1.011   3.403
 8588TIP3   OH225727   1.894   5.310   1.097
 8588TIP3    H125728   1.856   5.275   1.178
 8588TIP3    H225729   1.932   5.394   1.123
 8589TIP3   OH225730   2.453   0.031   5.077
 8589TIP3    H125731   2.504   0.106   5.045
 8589TIP3    H225732   2.488   0.013   5.164
 8590TIP3   OH225733   3.694   0.186   5.455
 8590TIP3    H125734   3.725   0.112   5.508
 8590TIP3    H225735   3.603   0.198   5.483
 8591TIP3   OH225736   4.177   5.456   5.524
 8591TIP3    H125737   4.229   5.527   5.488
 8591TIP3    H225738   4.115   5.499   5.583
 8592TIP3   OH225739   5.586   3.956   2.157
 8592TIP3    H125740   5.560   3.907   2.078
 8592TIP3    H225741   5.634   4.032   2.123
 8593TIP3   OH225742   2.755   0.069   3.494
 8593TIP3    H125743   2.803   0.150   3.479
 8593TIP3    H225744   2.822   0.000   3.487
 8594TIP3   OH225745   0.515   3.173   1.420
 8594TIP3    H125746   0.512   3.216   1.506
 8594TIP3    H225747   0.430   3.130   1.412
 8595TIP3   OH225748   4.727   5.339   3.368
 8595TIP3    H125749   4.698   5.428   3.349
 8595TIP3    H225750   4.654   5.300   3.416
 8596TIP3   OH225751   1.416   0.057   5.114
 8596TIP3    H125752   1.499   0.037   5.156
 8596TIP3    H225753   1.439   0.115   5.042
 8597TIP3   OH225754   2.038   6.197   0.371
 8597TIP3    H125755   2.077   6.122   0.327
 8597TIP3    H225756   1.944   6.182   0.365
 8598TIP3   OH225757   7.150   5.909   3.240
 8598TIP3    H125758   7.079   5.969   3.215
 8598TIP3    H225759   7.193   5.887   3.158
 8599TIP3   OH225760   3.105   5.005   1.901
 8599TIP3    H125761   3.118   4.919   1.940
 8599TIP3    H225762   3.010   5.017   1.898
 8600TIP3   OH225763   4.494   5.554   0.916
 8600TIP3    H125764   4.447   5.624   0.870
 8600TIP3    H225765   4.466   5.563   1.007
 8601TIP3   OH225766   3.008   0.285   2.242
 8601TIP3    H125767   2.971   0.303   2.156
 8601TIP3    H225768   3.071   0.355   2.256
 8602TIP3   OH225769   5.072   3.141   4.358
 8602TIP3    H125770   5.080   3.053   4.321
 8602TIP3    H225771   5.145   3.147   4.419
 8603TIP3   OH225772   1.579   4.630   3.758
 8603TIP3    H125773   1.536   4.689   3.820
 8603TIP3    H225774   1.618   4.562   3.813
 8604TIP3   OH225775   3.103   1.619   2.465
 8604TIP3    H125776   3.070   1.532   2.486
 8604TIP3    H225777   3.025   1.672   2.454
 8605TIP3   OH225778   3.559   6.583   0.983
 8605TIP3    H125779   3.505   6.662   0.979
 8605TIP3    H225780   3.563   6.552   0.892
 8606TIP3   OH225781   3.315   0.298   4.978
 8606TIP3    H125782   3.397   0.249   4.985
 8606TIP3    H225783   3.293   0.321   5.068
 8607TIP3   OH225784   4.359   0.457   5.113
 8607TIP3    H125785   4.308   0.519   5.164
 8607TIP3    H225786   4.345   0.373   5.157
 8608TIP3   OH225787   1.549   0.439   5.250
 8608TIP3    H125788   1.621   0.376   5.239
 8608TIP3    H225789   1.477   0.401   5.200
 8609TIP3   OH225790   1.585   0.684   3.102
 8609TIP3    H125791   1.587   0.660   3.009
 8609TIP3    H225792   1.511   0.745   3.109
 8610TIP3   OH225793   1.615   0.016   3.255
 8610TIP3    H125794   1.610   0.006   3.160
 8610TIP3    H225795   1.583  -0.068   3.289
 8611TIP3   OH225796   3.336   6.740   3.958
 8611TIP3    H125797   3.372   6.657   3.990
 8611TIP3    H225798   3.287   6.775   4.031
 8612TIP3   OH225799   4.626   1.285   0.609
 8612TIP3    H125800   4.595   1.211   0.557
 8612TIP3    H225801   4.707   1.254   0.650
 8613TIP3   OH225802   3.268   6.070   2.105
 8613TIP3    H125803   3.296   5.997   2.050
 8613TIP3    H225804   3.288   6.042   2.195
 8614TIP3   OH225805   4.559   1.851   4.402
 8614TIP3    H125806   4.599   1.790   4.464
 8614TIP3    H225807   4.481   1.884   4.448
 8615TIP3   OH225808   2.212   6.387   0.053
 8615TIP3    H125809   2.204   6.443  -0.024
 8615TIP3    H225810   2.168   6.435   0.123
 8616TIP3   OH225811   4.281   3.962   4.795
 8616TIP3    H125812   4.280   4.051   4.829
 8616TIP3    H225813   4.373   3.935   4.800
 8617TIP3   OH225814   5.032   2.207   4.990
 8617TIP3    H125815   5.001   2.193   5.080
 8617TIP3    H225816   5.126   2.187   4.995
 8618TIP3   OH225817   3.178   4.443   2.690
 8618TIP3    H125818   3.110   4.377   2.688
 8618TIP3    H225819   3.219   4.439   2.604
 8619TIP3   OH225820   4.863   0.072   0.739
 8619TIP3    H125821   4.956   0.061   0.755
 8619TIP3    H225822   4.857   0.145   0.677
 8620TIP3   OH225823   5.295   4.605   0.305
 8620TIP3    H125824   5.260   4.576   0.221
 8620TIP3    H225825   5.268   4.697   0.312
 8621TIP3   OH225826   3.396   4.277   1.904
 8621TIP3    H125827   3.378   4.337   1.976
 8621TIP3    H225828   3.359   4.194   1.933
 8622TIP3   OH225829   6.034   3.997   4.784
 8622TIP3    H125830   6.056   4.067   4.722
 8622TIP3    H225831   6.076   4.023   4.866
 8623TIP3   OH225832   2.133   6.186   1.551
 8623TIP3    H125833   2.124   6.274   1.587
 8623TIP3    H225834   2.225   6.164   1.564
 8624TIP3   OH225835   6.757   6.561   2.355
 8624TIP3    H125836   6.801   6.645   2.355
 8624TIP3    H225837   6.677   6.576   2.405
 8625TIP3   OH225838   1.667   3.263   5.006
 8625TIP3    H125839   1.626   3.274   4.920
 8625TIP3    H225840   1.751   3.222   4.987
 8626TIP3   OH225841   0.769   1.045   5.698
 8626TIP3    H125842   0.701   1.010   5.640
 8626TIP3    H225843   0.791   1.130   5.660
 8627TIP3   OH225844   2.283   0.790   2.747
 8627TIP3    H125845   2.207   0.736   2.769
 8627TIP3    H225846   2.339   0.732   2.694
 8628TIP3   OH225847   0.495   2.236   5.142
 8628TIP3    H125848   0.548   2.315   5.152
 8628TIP3    H225849   0.538   2.188   5.071
 8629TIP3   OH225850   3.360   4.682   1.676
 8629TIP3    H125851   3.342   4.743   1.747
 8629TIP3    H225852   3.455   4.687   1.664
 8630TIP3   OH225853   6.570   3.025   4.941
 8630TIP3    H125854   6.518   2.980   5.009
 8630TIP3    H225855   6.647   3.057   4.987
 8631TIP3   OH225856   3.873   0.913   4.368
 8631TIP3    H125857   3.929   0.989   4.385
 8631TIP3    H225858   3.784   0.947   4.375
 8632TIP3   OH225859   4.147   6.242   5.342
 8632TIP3    H125860   4.102   6.305   5.399
 8632TIP3    H225861   4.092   6.164   5.343
 8633TIP3   OH225862   1.806   4.736   5.677
 8633TIP3    H125863   1.850   4.788   5.609
 8633TIP3    H225864   1.834   4.777   5.759
 8634TIP3   OH225865   2.827   4.896   4.396
 8634TIP3    H125866   2.897   4.831   4.384
 8634TIP3    H225867   2.824   4.944   4.314
 8635TIP3   OH225868   0.004   6.364   1.659
 8635TIP3    H125869   0.098   6.372   1.643
 8635TIP3    H225870  -0.021   6.281   1.618
 8636TIP3   OH225871   0.010   2.479   4.068
 8636TIP3    H125872   0.055   2.416   4.012
 8636TIP3    H225873  -0.082   2.451   4.067
 8637TIP3   OH225874   6.412   5.444   5.769
 8637TIP3    H125875   6.501   5.476   5.758
 8637TIP3    H225876   6.406   5.420   5.861
 8638TIP3   OH225877   0.704   2.512   4.410
 8638TIP3    H125878   0.734   2.451   4.477
 8638TIP3    H225879   0.609   2.497   4.406
 8639TIP3   OH225880   6.952   4.730   0.988
 8639TIP3    H125881   6.913   4.789   1.052
 8639TIP3    H225882   6.934   4.642   1.021
 8640TIP3   OH225883   0.311   2.428   4.067
 8640TIP3    H125884   0.335   2.400   4.155
 8640TIP3    H225885   0.278   2.517   4.079
 8641TIP3   OH225886   0.972   3.808   0.921
 8641TIP3    H125887   1.015   3.741   0.868
 8641TIP3    H225888   1.004   3.891   0.884
 8642TIP3   OH225889   5.757   6.504   2.423
 8642TIP3    H125890   5.782   6.594   2.400
 8642TIP3    H225891   5.749   6.505   2.519
 8643TIP3   OH225892   3.132   2.089   3.686
 8643TIP3    H125893   3.183   2.169   3.694
 8643TIP3    H225894   3.065   2.096   3.754
 8644TIP3   OH225895   2.117   2.989   4.080
 8644TIP3    H125896   2.206   3.019   4.096
 8644TIP3    H225897   2.083   3.049   4.014
 8645TIP3   OH225898   2.465   5.866   2.616
 8645TIP3    H125899   2.555   5.898   2.612
 8645TIP3    H225900   2.473   5.772   2.602
 8646TIP3   OH225901   0.329   3.076   0.701
 8646TIP3    H125902   0.255   3.137   0.703
 8646TIP3    H225903   0.368   3.090   0.615
 8647TIP3   OH225904   5.608   5.059   0.092
 8647TIP3    H125905   5.561   5.135   0.128
 8647TIP3    H225906   5.546   5.021   0.030
 8648TIP3   OH225907   6.661   0.931   1.575
 8648TIP3    H125908   6.597   0.905   1.508
 8648TIP3    H225909   6.703   1.009   1.539
 8649TIP3   OH225910   2.108   4.215   1.075
 8649TIP3    H125911   2.074   4.276   1.140
 8649TIP3    H225912   2.047   4.142   1.076
 8650TIP3   OH225913   2.949   5.899   0.230
 8650TIP3    H125914   2.903   5.878   0.149
 8650TIP3    H225915   2.889   5.873   0.300
 8651TIP3   OH225916   0.306   2.383   0.095
 8651TIP3    H125917   0.402   2.385   0.102
 8651TIP3    H225918   0.285   2.293   0.072
 8652TIP3   OH225919   6.428   2.739   3.623
 8652TIP3    H125920   6.361   2.678   3.593
 8652TIP3    H225921   6.404   2.759   3.714
 8653TIP3   OH225922   6.035   5.835   5.426
 8653TIP3    H125923   6.006   5.757   5.377
 8653TIP3    H225924   6.128   5.843   5.406
 8654TIP3   OH225925   6.663   1.418   5.764
 8654TIP3    H125926   6.644   1.331   5.728
 8654TIP3    H225927   6.635   1.479   5.696
 8655TIP3   OH225928   2.327   1.528   5.097
 8655TIP3    H125929   2.270   1.550   5.023
 8655TIP3    H225930   2.273   1.472   5.152
 8656TIP3   OH225931   7.099   2.271   3.910
 8656TIP3    H125932   7.165   2.300   3.848
 8656TIP3    H225933   7.016   2.278   3.863
 8657TIP3   OH225934   6.790   6.423   4.286
 8657TIP3    H125935   6.776   6.407   4.379
 8657TIP3    H225936   6.707   6.402   4.245
 8658TIP3   OH225937   3.261   1.675   0.906
 8658TIP3    H125938   3.321   1.616   0.859
 8658TIP3    H225939   3.319   1.740   0.946
 8659TIP3   OH225940   1.848   6.213   3.091
 8659TIP3    H125941   1.910   6.197   3.020
 8659TIP3    H225942   1.796   6.133   3.096
 8660TIP3   OH225943   2.450   3.068   3.643
 8660TIP3    H125944   2.389   3.103   3.708
 8660TIP3    H225945   2.508   3.141   3.622
 8661TIP3   OH225946   5.538   1.221   3.663
 8661TIP3    H125947   5.485   1.141   3.659
 8661TIP3    H225948   5.535   1.247   3.755
 8662TIP3   OH225949   0.853   6.832   3.687
 8662TIP3    H125950   0.825   6.844   3.778
 8662TIP3    H225951   0.946   6.811   3.693
 8663TIP3   OH225952   3.704   2.921   2.864
 8663TIP3    H125953   3.741   2.985   2.803
 8663TIP3    H225954   3.685   2.845   2.809
 8664TIP3   OH225955   1.420   5.731   5.363
 8664TIP3    H125956   1.349   5.787   5.392
 8664TIP3    H225957   1.403   5.716   5.270
 8665TIP3   OH225958   3.814   2.278   0.380
 8665TIP3    H125959   3.872   2.222   0.431
 8665TIP3    H225960   3.844   2.268   0.290
 8666TIP3   OH225961   6.386   6.074   4.799
 8666TIP3    H125962   6.346   6.080   4.712
 8666TIP3    H225963   6.342   5.999   4.840
 8667TIP3   OH225964   2.510   0.419   3.507
 8667TIP3    H125965   2.470   0.397   3.423
 8667TIP3    H225966   2.455   0.488   3.543
 8668TIP3   OH225967   5.613   3.590   1.827
 8668TIP3    H125968   5.526   3.553   1.816
 8668TIP3    H225969   5.657   3.533   1.890
 8669TIP3   OH225970   6.239   4.927   3.864
 8669TIP3    H125971   6.155   4.935   3.820
 8669TIP3    H225972   6.304   4.935   3.794
 8670TIP3   OH225973   0.798   6.221   4.627
 8670TIP3    H125974   0.870   6.172   4.665
 8670TIP3    H225975   0.730   6.156   4.610
 8671TIP3   OH225976   6.572   2.215   3.787
 8671TIP3    H125977   6.554   2.271   3.712
 8671TIP3    H225978   6.601   2.132   3.749
 8672TIP3   OH225979   4.383   5.104   0.799
 8672TIP3    H125980   4.297   5.145   0.802
 8672TIP3    H225981   4.444   5.177   0.792
 8673TIP3   OH225982   6.152   4.426   3.283
 8673TIP3    H125983   6.110   4.351   3.242
 8673TIP3    H225984   6.171   4.485   3.210
 8674TIP3   OH225985   4.520   3.674   0.985
 8674TIP3    H125986   4.500   3.622   1.062
 8674TIP3    H225987   4.543   3.610   0.918
 8675TIP3   OH225988   0.112   2.284   3.750
 8675TIP3    H125989   0.198   2.278   3.793
 8675TIP3    H225990   0.132   2.310   3.660
 8676TIP3   OH225991   4.921   0.290   0.966
 8676TIP3    H125992   4.961   0.374   0.990
 8676TIP3    H225993   4.995   0.230   0.958
 8677TIP3   OH225994   3.226   5.147   0.780
 8677TIP3    H125995   3.193   5.077   0.836
 8677TIP3    H225996   3.153   5.209   0.775
 8678TIP3   OH225997   1.294   5.945   3.495
 8678TIP3    H125998   1.304   5.892   3.575
 8678TIP3    H225999   1.336   5.892   3.427
 8679TIP3   OH226000   2.946   0.515   1.056
 8679TIP3    H126001   2.958   0.432   1.010
 8679TIP3    H226002   2.977   0.497   1.145
 8680TIP3   OH226003   4.358   3.045   1.932
 8680TIP3    H126004   4.305   2.983   1.982
 8680TIP3    H226005   4.446   3.009   1.934
 8681TIP3   OH226006   5.831   4.306   1.184
 8681TIP3    H126007   5.867   4.220   1.206
 8681TIP3    H226008   5.745   4.286   1.147
 8682TIP3   OH226009   1.161   4.648   4.331
 8682TIP3    H126010   1.182   4.717   4.268
 8682TIP3    H226011   1.173   4.567   4.281
 8683TIP3   OH226012   2.185   3.723   5.599
 8683TIP3    H126013   2.272   3.761   5.606
 8683TIP3    H226014   2.160   3.704   5.690
 8684TIP3   OH226015   3.883   3.880   0.311
 8684TIP3    H126016   3.943   3.811   0.341
 8684TIP3    H226017   3.844   3.916   0.391
 8685TIP3   OH226018   0.120   4.471   0.854
 8685TIP3    H126019   0.083   4.385   0.876
 8685TIP3    H226020   0.051   4.516   0.806
 8686TIP3   OH226021   1.266   6.543   4.858
 8686TIP3    H126022   1.238   6.530   4.949
 8686TIP3    H226023   1.200   6.499   4.806
 8687TIP3   OH226024   1.874   3.483   2.238
 8687TIP3    H126025   1.847   3.575   2.245
 8687TIP3    H226026   1.969   3.487   2.232
 8688TIP3   OH226027   1.902   0.592   4.068
 8688TIP3    H126028   1.864   0.563   3.985
 8688TIP3    H226029   1.901   0.688   4.063
 8689TIP3   OH226030   4.690   3.677   4.626
 8689TIP3    H126031   4.785   3.665   4.621
 8689TIP3    H226032   4.671   3.675   4.720
 8690TIP3   OH226033   0.638   5.581   4.587
 8690TIP3    H126034   0.560   5.544   4.630
 8690TIP3    H226035   0.616   5.673   4.573
 8691TIP3   OH226036   1.884   1.448   3.019
 8691TIP3    H126037   1.969   1.405   3.007
 8691TIP3    H226038   1.889   1.489   3.105
 8692TIP3   OH226039   0.613   6.145   4.389
 8692TIP3    H126040   0.703   6.128   4.359
 8692TIP3    H226041   0.604   6.240   4.385
 8693TIP3   OH226042   0.595   6.603   1.317
 8693TIP3    H126043   0.611   6.560   1.233
 8693TIP3    H226044   0.554   6.687   1.294
 8694TIP3   OH226045   2.766   1.386   1.100
 8694TIP3    H126046   2.784   1.307   1.048
 8694TIP3    H226047   2.803   1.367   1.186
 8695TIP3   OH226048   0.041   0.988   3.824
 8695TIP3    H126049   0.062   0.971   3.732
 8695TIP3    H226050   0.106   0.938   3.874
 8696TIP3   OH226051   4.140   6.646   0.071
 8696TIP3    H126052   4.092   6.711   0.019
 8696TIP3    H226053   4.223   6.689   0.092
 8697TIP3   OH226054   0.238   5.592   5.251
 8697TIP3    H126055   0.147   5.618   5.262
 8697TIP3    H226056   0.242   5.549   5.166
 8698TIP3   OH226057   2.251   3.970   2.315
 8698TIP3    H126058   2.157   3.975   2.332
 8698TIP3    H226059   2.280   4.061   2.316
 8699TIP3   OH226060   5.508   4.797   2.854
 8699TIP3    H126061   5.496   4.796   2.759
 8699TIP3    H226062   5.435   4.745   2.888
 8700TIP3   OH226063   4.016   5.964   1.408
 8700TIP3    H126064   4.041   5.873   1.420
 8700TIP3    H226065   3.926   5.960   1.376
 8701TIP3   OH226066   6.835   4.330   0.670
 8701TIP3    H126067   6.840   4.249   0.719
 8701TIP3    H226068   6.746   4.363   0.686
 8702TIP3   OH226069   2.404   3.348   3.506
 8702TIP3    H126070   2.341   3.281   3.535
 8702TIP3    H226071   2.359   3.393   3.435
 8703TIP3   OH226072   1.408   2.371   5.391
 8703TIP3    H126073   1.362   2.295   5.427
 8703TIP3    H226074   1.377   2.445   5.444
 8704TIP3   OH226075   2.757   4.549   1.721
 8704TIP3    H126076   2.803   4.586   1.645
 8704TIP3    H226077   2.790   4.460   1.729
 8705TIP3   OH226078   2.528   5.929   5.829
 8705TIP3    H126079   2.440   5.909   5.860
 8705TIP3    H226080   2.586   5.882   5.888
 8706TIP3   OH226081   4.635   0.564   5.179
 8706TIP3    H126082   4.552   0.522   5.155
 8706TIP3    H226083   4.615   0.614   5.258
 8707TIP3   OH226084   0.558   1.832   1.158
 8707TIP3    H126085   0.620   1.815   1.086
 8707TIP3    H226086   0.551   1.927   1.161
 8708TIP3   OH226087   5.484   0.604   5.510
 8708TIP3    H126088   5.393   0.616   5.537
 8708TIP3    H226089   5.506   0.516   5.541
 8709TIP3   OH226090   2.366   4.151   0.149
 8709TIP3    H126091   2.332   4.172   0.235
 8709TIP3    H226092   2.404   4.232   0.116
 8710TIP3   OH226093   1.284   1.157   2.002
 8710TIP3    H126094   1.290   1.073   2.048
 8710TIP3    H226095   1.225   1.139   1.929
 8711TIP3   OH226096   6.085   5.218   5.080
 8711TIP3    H126097   6.008   5.231   5.136
 8711TIP3    H226098   6.157   5.256   5.130
 8712TIP3   OH226099   2.832   3.001   0.474
 8712TIP3    H126100   2.795   3.070   0.529
 8712TIP3    H226101   2.875   3.048   0.402
 8713TIP3   OH226102   6.965   4.878   5.601
 8713TIP3    H126103   6.956   4.806   5.664
 8713TIP3    H226104   6.922   4.846   5.522
 8714TIP3   OH226105   6.860   3.462   0.468
 8714TIP3    H126106   6.938   3.406   0.469
 8714TIP3    H226107   6.868   3.513   0.388
 8715TIP3   OH226108   3.576   1.258   0.247
 8715TIP3    H126109   3.484   1.256   0.220
 8715TIP3    H226110   3.599   1.165   0.260
 8716TIP3   OH226111   3.975   3.671   4.371
 8716TIP3    H126112   3.894   3.624   4.392
 8716TIP3    H226113   3.947   3.743   4.315
 8717TIP3   OH226114   3.650   2.696   4.219
 8717TIP3    H126115   3.592   2.768   4.193
 8717TIP3    H226116   3.599   2.617   4.203
 8718TIP3   OH226117   2.566   5.010   0.155
 8718TIP3    H126118   2.607   5.018   0.069
 8718TIP3    H226119   2.576   5.097   0.195
 8719TIP3   OH226120   5.002   1.766   1.139
 8719TIP3    H126121   4.920   1.805   1.167
 8719TIP3    H226122   4.978   1.679   1.108
 8720TIP3   OH226123   5.379   2.554   2.349
 8720TIP3    H126124   5.291   2.532   2.317
 8720TIP3    H226125   5.363   2.611   2.424
 8721TIP3   OH226126   3.370   2.977   4.971
 8721TIP3    H126127   3.374   2.883   4.952
 8721TIP3    H226128   3.346   2.982   5.063
 8722TIP3   OH226129   2.264   6.766   4.420
 8722TIP3    H126130   2.300   6.836   4.475
 8722TIP3    H226131   2.328   6.755   4.350
 8723TIP3   OH226132   4.437   6.056   1.124
 8723TIP3    H126133   4.451   5.961   1.125
 8723TIP3    H226134   4.356   6.069   1.171
 8724TIP3   OH226135   2.434   1.690   3.393
 8724TIP3    H126136   2.456   1.751   3.463
 8724TIP3    H226137   2.505   1.699   3.330
 8725TIP3   OH226138   0.910   1.009   4.399
 8725TIP3    H126139   0.943   0.938   4.343
 8725TIP3    H226140   0.944   0.987   4.486
 8726TIP3   OH226141   0.594   5.577   5.752
 8726TIP3    H126142   0.640   5.599   5.833
 8726TIP3    H226143   0.613   5.649   5.693
 8727TIP3   OH226144   3.223   2.146   1.996
 8727TIP3    H126145   3.151   2.209   2.001
 8727TIP3    H226146   3.182   2.066   1.963
 8728TIP3   OH226147   2.226   0.180   3.642
 8728TIP3    H126148   2.318   0.158   3.653
 8728TIP3    H226149   2.221   0.275   3.659
 8729TIP3   OH226150   6.851   3.799   5.192
 8729TIP3    H126151   6.929   3.743   5.189
 8729TIP3    H226152   6.883   3.886   5.168
 8730TIP3   OH226153   6.115   2.230   5.253
 8730TIP3    H126154   6.148   2.194   5.171
 8730TIP3    H226155   6.033   2.274   5.229
 8731TIP3   OH226156   1.207   2.414   2.054
 8731TIP3    H126157   1.255   2.355   1.996
 8731TIP3    H226158   1.143   2.358   2.098
 8732TIP3   OH226159   3.429   4.217   4.391
 8732TIP3    H126160   3.445   4.311   4.404
 8732TIP3    H226161   3.334   4.207   4.398
 8733TIP3   OH226162   0.514   0.153   3.911
 8733TIP3    H126163   0.565   0.088   3.863
 8733TIP3    H226164   0.473   0.206   3.843
 8734TIP3   OH226165   4.446   6.728   3.111
 8734TIP3    H126166   4.370   6.723   3.169
 8734TIP3    H226167   4.514   6.770   3.165
 8735TIP3   OH226168   7.108   3.026   4.451
 8735TIP3    H126169   7.082   3.077   4.374
 8735TIP3    H226170   7.152   2.949   4.415
 8736TIP3   OH226171   3.762   3.137   5.731
 8736TIP3    H126172   3.747   3.144   5.637
 8736TIP3    H226173   3.676   3.147   5.770
 8737TIP3   OH226174   1.543   2.810   1.530
 8737TIP3    H126175   1.639   2.811   1.538
 8737TIP3    H226176   1.527   2.795   1.438
 8738TIP3   OH226177   5.625   3.584   5.177
 8738TIP3    H126178   5.654   3.494   5.192
 8738TIP3    H226179   5.704   3.629   5.145
 8739TIP3   OH226180   1.842   4.971   2.848
 8739TIP3    H126181   1.920   4.943   2.895
 8739TIP3    H226182   1.872   4.987   2.759
 8740TIP3   OH226183   0.736   4.768   5.797
 8740TIP3    H126184   0.650   4.742   5.829
 8740TIP3    H226185   0.797   4.723   5.855
 8741TIP3   OH226186   2.670   3.551   1.062
 8741TIP3    H126187   2.727   3.600   1.120
 8741TIP3    H226188   2.587   3.545   1.109
 8742TIP3   OH226189   0.468   3.542   1.113
 8742TIP3    H126190   0.460   3.636   1.132
 8742TIP3    H226191   0.559   3.521   1.131
 8743TIP3   OH226192   5.377   4.012   3.368
 8743TIP3    H126193   5.468   4.006   3.398
 8743TIP3    H226194   5.384   4.004   3.272
 8744TIP3   OH226195   2.436   2.205   4.719
 8744TIP3    H126196   2.482   2.174   4.641
 8744TIP3    H226197   2.477   2.289   4.739
 8745TIP3   OH226198   4.088   4.934   2.251
 8745TIP3    H126199   4.148   4.993   2.296
 8745TIP3    H226200   4.007   4.984   2.242
 8746TIP3   OH226201   0.953   3.068   1.476
 8746TIP3    H126202   0.966   3.114   1.559
 8746TIP3    H226203   1.042   3.047   1.447
 8747TIP3   OH226204   2.883   0.260   4.112
 8747TIP3    H126205   2.810   0.212   4.152
 8747TIP3    H226206   2.954   0.254   4.177
 8748TIP3   OH226207   3.406   3.744   5.141
 8748TIP3    H126208   3.500   3.745   5.126
 8748TIP3    H226209   3.368   3.774   5.058
 8749TIP3   OH226210   7.121   1.524   2.705
 8749TIP3    H126211   7.204   1.483   2.681
 8749TIP3    H226212   7.106   1.590   2.638
 8750TIP3   OH226213   4.907   1.016   2.098
 8750TIP3    H126214   4.958   0.935   2.102
 8750TIP3    H226215   4.871   1.025   2.187
 8751TIP3   OH226216   0.471   0.694   0.398
 8751TIP3    H126217   0.385   0.736   0.389
 8751TIP3    H226218   0.505   0.690   0.309
 8752TIP3   OH226219   5.270   6.827   5.736
 8752TIP3    H126220   5.263   6.781   5.819
 8752TIP3    H226221   5.190   6.878   5.729
 8753TIP3   OH226222   0.011   5.992   1.816
 8753TIP3    H126223  -0.007   5.987   1.910
 8753TIP3    H226224   0.104   5.971   1.808
 8754TIP3   OH226225   2.048   2.593   5.655
 8754TIP3    H126226   2.024   2.566   5.743
 8754TIP3    H226227   2.025   2.519   5.599
 8755TIP3   OH226228   4.241   1.266   0.470
 8755TIP3    H126229   4.313   1.205   0.491
 8755TIP3    H226230   4.241   1.270   0.374
 8756TIP3   OH226231   2.895   1.298   1.828
 8756TIP3    H126232   2.839   1.295   1.751
 8756TIP3    H226233   2.882   1.386   1.864
 8757TIP3   OH226234   0.181   0.419   1.547
 8757TIP3    H126235   0.158   0.440   1.456
 8757TIP3    H226236   0.222   0.499   1.581
 8758TIP3   OH226237   4.815   4.663   3.196
 8758TIP3    H126238   4.863   4.728   3.145
 8758TIP3    H226239   4.884   4.608   3.234
 8759TIP3   OH226240   5.495   0.858   0.798
 8759TIP3    H126241   5.483   0.772   0.760
 8759TIP3    H226242   5.526   0.841   0.887
 8760TIP3   OH226243   5.222   1.826   4.243
 8760TIP3    H126244   5.309   1.829   4.285
 8760TIP3    H226245   5.217   1.906   4.191
 8761TIP3   OH226246   2.261   3.875   4.840
 8761TIP3    H126247   2.303   3.941   4.784
 8761TIP3    H226248   2.260   3.914   4.927
 8762TIP3   OH226249   1.169   2.945   1.848
 8762TIP3    H126250   1.263   2.934   1.862
 8762TIP3    H226251   1.158   3.036   1.823
 8763TIP3   OH226252   1.665   0.829   3.625
 8763TIP3    H126253   1.665   0.747   3.576
 8763TIP3    H226254   1.584   0.873   3.598
 8764TIP3   OH226255   0.767   3.938   4.896
 8764TIP3    H126256   0.746   4.026   4.862
 8764TIP3    H226257   0.804   3.892   4.820
 8765TIP3   OH226258   6.415   1.141   5.934
 8765TIP3    H126259   6.482   1.158   5.868
 8765TIP3    H226260   6.404   1.045   5.933
 8766TIP3   OH226261   4.251   1.151   5.774
 8766TIP3    H126262   4.306   1.228   5.759
 8766TIP3    H226263   4.219   1.127   5.687
 8767TIP3   OH226264   2.491   6.221   2.910
 8767TIP3    H126265   2.504   6.129   2.929
 8767TIP3    H226266   2.516   6.231   2.818
 8768TIP3   OH226267   1.621   4.410   2.442
 8768TIP3    H126268   1.649   4.318   2.441
 8768TIP3    H226269   1.690   4.456   2.489
 8769TIP3   OH226270   1.067   1.087   1.810
 8769TIP3    H126271   1.104   1.113   1.726
 8769TIP3    H226272   0.993   1.146   1.822
 8770TIP3   OH226273   0.171   0.853   4.215
 8770TIP3    H126274   0.189   0.837   4.123
 8770TIP3    H226275   0.256   0.847   4.258
 8771TIP3   OH226276   4.669   3.815   5.857
 8771TIP3    H126277   4.755   3.802   5.816
 8771TIP3    H226278   4.617   3.857   5.789
 8772TIP3   OH226279   1.125   4.743   0.539
 8772TIP3    H126280   1.085   4.656   0.544
 8772TIP3    H226281   1.052   4.804   0.553
 8773TIP3   OH226282   4.814   1.674   0.644
 8773TIP3    H126283   4.756   1.749   0.653
 8773TIP3    H226284   4.793   1.619   0.720
 8774TIP3   OH226285   3.306   4.435   2.442
 8774TIP3    H126286   3.385   4.487   2.460
 8774TIP3    H226287   3.339   4.358   2.396
 8775TIP3   OH226288   6.553   2.858   1.023
 8775TIP3    H126289   6.477   2.909   0.994
 8775TIP3    H226290   6.602   2.840   0.943
 8776TIP3   OH226291   4.859   2.572   1.124
 8776TIP3    H126292   4.860   2.482   1.157
 8776TIP3    H226293   4.934   2.614   1.168
 8777TIP3   OH226294   1.314   2.536   1.832
 8777TIP3    H126295   1.408   2.527   1.851
 8777TIP3    H226296   1.276   2.566   1.914
 8778TIP3   OH226297   1.510   3.764   3.869
 8778TIP3    H126298   1.545   3.752   3.958
 8778TIP3    H226299   1.539   3.686   3.822
 8779TIP3   OH226300   6.437   3.054   5.376
 8779TIP3    H126301   6.466   3.136   5.335
 8779TIP3    H226302   6.441   3.072   5.470
 8780TIP3   OH226303   2.169   5.522   5.776
 8780TIP3    H126304   2.089   5.515   5.723
 8780TIP3    H226305   2.191   5.615   5.774
 8781TIP3   OH226306   1.748   5.012   2.474
 8781TIP3    H126307   1.769   5.031   2.383
 8781TIP3    H226308   1.765   5.094   2.521
 8782TIP3   OH226309   5.124   0.814   3.232
 8782TIP3    H126310   5.137   0.778   3.320
 8782TIP3    H226311   5.069   0.751   3.187
 8783TIP3   OH226312   6.717   6.461   1.788
 8783TIP3    H126313   6.806   6.426   1.779
 8783TIP3    H226314   6.726   6.529   1.856
 8784TIP3   OH226315   7.126   1.913   5.543
 8784TIP3    H126316   7.059   1.939   5.606
 8784TIP3    H226317   7.209   1.936   5.584
 8785TIP3   OH226318   0.972   5.949   3.948
 8785TIP3    H126319   1.054   5.915   3.985
 8785TIP3    H226320   0.906   5.926   4.013
 8786TIP3   OH226321   3.073   1.855   2.998
 8786TIP3    H126322   2.988   1.881   2.961
 8786TIP3    H226323   3.125   1.935   2.996
 8787TIP3   OH226324   2.034   3.383   0.344
 8787TIP3    H126325   2.055   3.412   0.255
 8787TIP3    H226326   1.948   3.342   0.337
 8788TIP3   OH226327   7.019   3.231   0.116
 8788TIP3    H126328   7.052   3.268   0.198
 8788TIP3    H226329   7.057   3.286   0.048
 8789TIP3   OH226330   0.603   0.505   1.364
 8789TIP3    H126331   0.673   0.462   1.315
 8789TIP3    H226332   0.539   0.435   1.379
 8790TIP3   OH226333   5.937   2.166   0.346
 8790TIP3    H126334   5.914   2.121   0.427
 8790TIP3    H226335   5.857   2.209   0.318
 8791TIP3   OH226336   1.518   2.998   3.630
 8791TIP3    H126337   1.588   2.981   3.567
 8791TIP3    H226338   1.440   3.008   3.576
 8792TIP3   OH226339   7.062   0.505   3.360
 8792TIP3    H126340   6.996   0.556   3.312
 8792TIP3    H226341   7.048   0.527   3.452
 8793TIP3   OH226342   4.368   1.037   2.479
 8793TIP3    H126343   4.435   1.051   2.413
 8793TIP3    H226344   4.415   0.999   2.553
 8794TIP3   OH226345   2.999   6.163   1.847
 8794TIP3    H126346   2.963   6.204   1.768
 8794TIP3    H226347   3.093   6.156   1.830
 8795TIP3   OH226348   4.368   5.328   0.312
 8795TIP3    H126349   4.386   5.252   0.367
 8795TIP3    H226350   4.387   5.403   0.369
 8796TIP3   OH226351   5.716   5.326   4.095
 8796TIP3    H126352   5.774   5.398   4.120
 8796TIP3    H226353   5.727   5.261   4.164
 8797TIP3   OH226354   0.938   4.251   3.886
 8797TIP3    H126355   0.890   4.299   3.819
 8797TIP3    H226356   0.884   4.259   3.965
 8798TIP3   OH226357   0.955   4.198   5.572
 8798TIP3    H126358   0.894   4.192   5.646
 8798TIP3    H226359   0.910   4.254   5.509
 8799TIP3   OH226360   5.822   2.605   0.479
 8799TIP3    H126361   5.737   2.561   0.488
 8799TIP3    H226362   5.887   2.536   0.488
 8800TIP3   OH226363   2.240   4.363   1.751
 8800TIP3    H126364   2.282   4.440   1.712
 8800TIP3    H226365   2.300   4.290   1.731
 8801TIP3   OH226366   3.741   2.091   3.316
 8801TIP3    H126367   3.721   2.169   3.263
 8801TIP3    H226368   3.792   2.125   3.389
 8802TIP3   OH226369   3.931   0.456   3.408
 8802TIP3    H126370   3.917   0.507   3.329
 8802TIP3    H226371   3.959   0.370   3.377
 8803TIP3   OH226372   1.098   2.433   4.816
 8803TIP3    H126373   1.078   2.465   4.728
 8803TIP3    H226374   1.042   2.357   4.827
 8804TIP3   OH226375   5.979   1.881   5.875
 8804TIP3    H126376   6.010   1.794   5.853
 8804TIP3    H226377   6.022   1.939   5.812
 8805TIP3   OH226378   3.970   1.465   0.031
 8805TIP3    H126379   4.016   1.549   0.030
 8805TIP3    H226380   3.944   1.452   0.122
 8806TIP3   OH226381   3.429   1.004   2.614
 8806TIP3    H126382   3.349   1.034   2.657
 8806TIP3    H226383   3.498   1.021   2.679
 8807TIP3   OH226384   6.849   2.551   3.445
 8807TIP3    H126385   6.794   2.595   3.381
 8807TIP3    H226386   6.787   2.503   3.500
 8808TIP3   OH226387   1.073   6.604   4.512
 8808TIP3    H126388   0.992   6.565   4.479
 8808TIP3    H226389   1.044   6.673   4.571
 8809TIP3   OH226390   6.164   1.357   1.973
 8809TIP3    H126391   6.069   1.350   1.982
 8809TIP3    H226392   6.197   1.338   2.061
 8810TIP3   OH226393   2.663   0.209   2.821
 8810TIP3    H126394   2.696   0.161   2.897
 8810TIP3    H226395   2.682   0.151   2.747
 8811TIP3   OH226396   3.910   0.307   4.860
 8811TIP3    H126397   3.963   0.353   4.926
 8811TIP3    H226398   3.956   0.324   4.777
 8812TIP3   OH226399   2.826   3.936   3.703
 8812TIP3    H126400   2.787   3.850   3.689
 8812TIP3    H226401   2.920   3.918   3.712
 8813TIP3   OH226402   2.088   1.388   1.454
 8813TIP3    H126403   2.052   1.432   1.377
 8813TIP3    H226404   2.038   1.424   1.527
 8814TIP3   OH226405   6.107   2.960   3.556
 8814TIP3    H126406   6.096   2.939   3.463
 8814TIP3    H226407   6.080   2.880   3.602
 8815TIP3   OH226408   2.984   6.163   5.075
 8815TIP3    H126409   2.947   6.081   5.107
 8815TIP3    H226410   3.065   6.136   5.030
 8816TIP3   OH226411   2.726   1.096   4.380
 8816TIP3    H126412   2.727   1.158   4.452
 8816TIP3    H226413   2.761   1.015   4.416
 8817TIP3   OH226414   1.009   5.502   0.198
 8817TIP3    H126415   0.957   5.560   0.254
 8817TIP3    H226416   1.096   5.502   0.237
 8818TIP3   OH226417   0.242   4.235   1.089
 8818TIP3    H126418   0.273   4.157   1.045
 8818TIP3    H226419   0.207   4.291   1.019
 8819TIP3   OH226420   7.211   5.573   0.634
 8819TIP3    H126421   7.237   5.504   0.696
 8819TIP3    H226422   7.134   5.538   0.590
 8820TIP3   OH226423   1.789   1.817   0.664
 8820TIP3    H126424   1.863   1.757   0.676
 8820TIP3    H226425   1.725   1.790   0.730
 8821TIP3   OH226426   4.386   2.694   5.735
 8821TIP3    H126427   4.372   2.679   5.829
 8821TIP3    H226428   4.391   2.606   5.698
 8822TIP3   OH226429   6.407   2.154   2.072
 8822TIP3    H126430   6.322   2.186   2.041
 8822TIP3    H226431   6.449   2.119   1.993
 8823TIP3   OH226432   1.903   4.666   5.163
 8823TIP3    H126433   1.848   4.695   5.236
 8823TIP3    H226434   1.854   4.593   5.124
 8824TIP3   OH226435   2.096   4.961   5.805
 8824TIP3    H126436   2.057   5.047   5.819
 8824TIP3    H226437   2.066   4.909   5.880
 8825TIP3   OH226438   1.029   1.909   0.455
 8825TIP3    H126439   0.962   1.968   0.492
 8825TIP3    H226440   1.025   1.831   0.510
 8826TIP3   OH226441   5.656   6.300   0.630
 8826TIP3    H126442   5.728   6.238   0.631
 8826TIP3    H226443   5.619   6.296   0.718
 8827TIP3   OH226444   4.605   3.867   3.089
 8827TIP3    H126445   4.631   3.784   3.130
 8827TIP3    H226446   4.610   3.849   2.995
 8828TIP3   OH226447   6.482   1.339   5.031
 8828TIP3    H126448   6.416   1.360   4.964
 8828TIP3    H226449   6.449   1.379   5.111
 8829TIP3   OH226450   2.726   1.183   5.052
 8829TIP3    H126451   2.805   1.167   5.105
 8829TIP3    H226452   2.690   1.095   5.037
 8830TIP3   OH226453   5.777   3.835   2.916
 8830TIP3    H126454   5.745   3.863   2.830
 8830TIP3    H226455   5.768   3.913   2.972
 8831TIP3   OH226456   4.678   0.695   3.539
 8831TIP3    H126457   4.624   0.669   3.464
 8831TIP3    H226458   4.617   0.735   3.600
 8832TIP3   OH226459   4.203   0.124   0.423
 8832TIP3    H126460   4.172   0.145   0.335
 8832TIP3    H226461   4.124   0.121   0.476
 8833TIP3   OH226462   2.405   4.850   4.377
 8833TIP3    H126463   2.381   4.901   4.300
 8833TIP3    H226464   2.461   4.780   4.343
 8834TIP3   OH226465   6.000   1.259   0.189
 8834TIP3    H126466   5.914   1.229   0.159
 8834TIP3    H226467   6.049   1.275   0.108
 8835TIP3   OH226468   4.342   2.069   2.811
 8835TIP3    H126469   4.326   2.123   2.733
 8835TIP3    H226470   4.285   2.108   2.878
 8836TIP3   OH226471   0.682   6.186   0.531
 8836TIP3    H126472   0.745   6.251   0.502
 8836TIP3    H226473   0.600   6.236   0.541
 8837TIP3   OH226474   3.201   4.523   5.459
 8837TIP3    H126475   3.114   4.486   5.475
 8837TIP3    H226476   3.192   4.567   5.375
 8838TIP3   OH226477   4.983   0.049   3.216
 8838TIP3    H126478   4.945   0.128   3.176
 8838TIP3    H226479   5.053   0.082   3.272
 8839TIP3   OH226480   2.898   0.241   2.510
 8839TIP3    H126481   2.809   0.209   2.495
 8839TIP3    H226482   2.933   0.257   2.423
 8840TIP3   OH226483   2.389   6.694   3.796
 8840TIP3    H126484   2.381   6.695   3.701
 8840TIP3    H226485   2.479   6.722   3.813
 8841TIP3   OH226486   3.187   0.737   1.326
 8841TIP3    H126487   3.099   0.774   1.337
 8841TIP3    H226488   3.204   0.692   1.408
 8842TIP3   OH226489   4.708   0.244   3.568
 8842TIP3    H126490   4.692   0.223   3.660
 8842TIP3    H226491   4.770   0.178   3.538
 8843TIP3   OH226492   6.621   6.049   1.303
 8843TIP3    H126493   6.684   6.111   1.340
 8843TIP3    H226494   6.673   5.969   1.289
 8844TIP3   OH226495   1.398   6.278   0.496
 8844TIP3    H126496   1.472   6.246   0.547
 8844TIP3    H226497   1.348   6.199   0.474
 8845TIP3   OH226498   5.990   5.603   5.261
 8845TIP3    H126499   5.970   5.520   5.305
 8845TIP3    H226500   5.950   5.594   5.174
 8846TIP3   OH226501   0.636   2.739   1.304
 8846TIP3    H126502   0.653   2.833   1.305
 8846TIP3    H226503   0.568   2.727   1.238
 8847TIP3   OH226504   4.843   6.360   1.562
 8847TIP3    H126505   4.915   6.313   1.519
 8847TIP3    H226506   4.775   6.295   1.574
 8848TIP3   OH226507   2.378   2.447   4.401
 8848TIP3    H126508   2.358   2.511   4.470
 8848TIP3    H226509   2.373   2.498   4.320
 8849TIP3   OH226510   3.555   1.903   4.661
 8849TIP3    H126511   3.482   1.859   4.616
 8849TIP3    H226512   3.567   1.984   4.613
 8850TIP3   OH226513   1.414   6.322   5.039
 8850TIP3    H126514   1.324   6.354   5.048
 8850TIP3    H226515   1.435   6.339   4.947
 8851TIP3   OH226516   0.290   2.241   5.901
 8851TIP3    H126517   0.282   2.255   5.806
 8851TIP3    H226518   0.384   2.235   5.916
 8852TIP3   OH226519   6.757   2.462   2.435
 8852TIP3    H126520   6.738   2.462   2.341
 8852TIP3    H226521   6.853   2.458   2.440
 8853TIP3   OH226522   6.445   6.427   1.679
 8853TIP3    H126523   6.540   6.432   1.696
 8853TIP3    H226524   6.406   6.481   1.747
 8854TIP3   OH226525   2.920   3.987   1.276
 8854TIP3    H126526   2.852   3.980   1.209
 8854TIP3    H226527   3.002   3.987   1.227
 8855TIP3   OH226528   6.848   3.048   4.120
 8855TIP3    H126529   6.876   2.969   4.166
 8855TIP3    H226530   6.911   3.115   4.146
 8856TIP3   OH226531   0.267   5.870   4.278
 8856TIP3    H126532   0.182   5.888   4.319
 8856TIP3    H226533   0.318   5.950   4.293
 8857TIP3   OH226534   4.884   3.841   1.831
 8857TIP3    H126535   4.851   3.798   1.910
 8857TIP3    H226536   4.846   3.929   1.835
 8858TIP3   OH226537   4.869   2.586   1.470
 8858TIP3    H126538   4.958   2.592   1.503
 8858TIP3    H226539   4.834   2.675   1.476
 8859TIP3   OH226540   4.472   3.717   3.449
 8859TIP3    H126541   4.501   3.805   3.424
 8859TIP3    H226542   4.517   3.658   3.389
 8860TIP3   OH226543   1.499   2.068   5.701
 8860TIP3    H126544   1.525   2.061   5.792
 8860TIP3    H226545   1.497   1.978   5.669
 8861TIP3   OH226546   5.741   4.596   0.838
 8861TIP3    H126547   5.771   4.661   0.774
 8861TIP3    H226548   5.813   4.533   0.845
 8862TIP3   OH226549   3.049   2.658   3.479
 8862TIP3    H126550   3.065   2.713   3.556
 8862TIP3    H226551   3.129   2.606   3.470
 8863TIP3   OH226552   5.131   3.038   4.807
 8863TIP3    H126553   5.065   3.021   4.740
 8863TIP3    H226554   5.151   3.131   4.799
 8864TIP3   OH226555   0.208   4.730   5.393
 8864TIP3    H126556   0.244   4.803   5.444
 8864TIP3    H226557   0.283   4.697   5.343
 8865TIP3   OH226558   1.045   6.593   2.144
 8865TIP3    H126559   1.047   6.515   2.200
 8865TIP3    H226560   1.075   6.562   2.058
 8866TIP3   OH226561   3.949   4.526   1.389
 8866TIP3    H126562   3.883   4.462   1.360
 8866TIP3    H226563   4.013   4.527   1.318
 8867TIP3   OH226564   5.570   1.866   4.311
 8867TIP3    H126565   5.569   1.959   4.331
 8867TIP3    H226566   5.661   1.846   4.288
 8868TIP3   OH226567   4.054   2.253   4.524
 8868TIP3    H126568   4.006   2.332   4.547
 8868TIP3    H226569   4.005   2.182   4.566
 8869TIP3   OH226570   6.307   3.401   0.166
 8869TIP3    H126571   6.234   3.447   0.125
 8869TIP3    H226572   6.385   3.434   0.121
 8870TIP3   OH226573   4.215   5.549   1.215
 8870TIP3    H126574   4.252   5.463   1.196
 8870TIP3    H226575   4.215   5.594   1.131
 8871TIP3   OH226576   1.481   2.639   1.009
 8871TIP3    H126577   1.472   2.716   1.065
 8871TIP3    H226578   1.575   2.624   1.003
 8872TIP3   OH226579   2.004   4.772   3.246
 8872TIP3    H126580   2.020   4.865   3.266
 8872TIP3    H226581   1.925   4.750   3.295
 8873TIP3   OH226582   0.922   3.060   4.905
 8873TIP3    H126583   0.985   3.008   4.855
 8873TIP3    H226584   0.847   3.069   4.846
 8874TIP3   OH226585   4.336   1.337   1.477
 8874TIP3    H126586   4.386   1.418   1.486
 8874TIP3    H226587   4.250   1.365   1.446
 8875TIP3   OH226588   1.479   1.010   4.752
 8875TIP3    H126589   1.479   0.936   4.692
 8875TIP3    H226590   1.387   1.030   4.766
 8876TIP3   OH226591   3.988   5.581   3.921
 8876TIP3    H126592   4.004   5.654   3.980
 8876TIP3    H226593   3.979   5.505   3.979
 8877TIP3   OH226594   6.500   0.890   5.629
 8877TIP3    H126595   6.457   0.887   5.544
 8877TIP3    H226596   6.430   0.872   5.692
 8878TIP3   OH226597   5.433   0.071   1.257
 8878TIP3    H126598   5.396   0.107   1.338
 8878TIP3    H226599   5.502   0.012   1.286
 8879TIP3   OH226600   1.758   4.007   3.593
 8879TIP3    H126601   1.789   3.926   3.634
 8879TIP3    H226602   1.678   3.983   3.547
 8880TIP3   OH226603   5.012   0.084   3.823
 8880TIP3    H126604   5.055   0.062   3.906
 8880TIP3    H226605   4.959   0.161   3.842
 8881TIP3   OH226606   5.504   1.287   1.407
 8881TIP3    H126607   5.570   1.219   1.389
 8881TIP3    H226608   5.551   1.353   1.457
 8882TIP3   OH226609   3.075   0.514   4.576
 8882TIP3    H126610   3.081   0.434   4.523
 8882TIP3    H226611   3.139   0.501   4.646
 8883TIP3   OH226612   6.259   5.133   1.695
 8883TIP3    H126613   6.267   5.041   1.668
 8883TIP3    H226614   6.238   5.180   1.614
 8884TIP3   OH226615   6.003   6.071   1.235
 8884TIP3    H126616   6.074   6.100   1.292
 8884TIP3    H226617   5.924   6.104   1.277
 8885TIP3   OH226618   1.061   4.922   0.917
 8885TIP3    H126619   0.976   4.948   0.955
 8885TIP3    H226620   1.121   4.924   0.991
 8886TIP3   OH226621   5.663   1.672   0.497
 8886TIP3    H126622   5.697   1.718   0.574
 8886TIP3    H226623   5.720   1.700   0.426
 8887TIP3   OH226624   6.854   2.665   3.807
 8887TIP3    H126625   6.766   2.627   3.801
 8887TIP3    H226626   6.854   2.737   3.744
 8888TIP3   OH226627   4.077   2.139   3.649
 8888TIP3    H126628   4.026   2.212   3.612
 8888TIP3    H226629   4.058   2.141   3.742
 8889TIP3   OH226630   2.389   5.391   3.655
 8889TIP3    H126631   2.436   5.415   3.735
 8889TIP3    H226632   2.433   5.441   3.586
 8890TIP3   OH226633   6.079   5.023   4.862
 8890TIP3    H126634   5.999   5.044   4.814
 8890TIP3    H226635   6.077   5.081   4.938
 8891TIP3   OH226636   5.404   4.478   0.582
 8891TIP3    H126637   5.384   4.430   0.502
 8891TIP3    H226638   5.497   4.501   0.574
 8892TIP3   OH226639   2.636   1.544   1.961
 8892TIP3    H126640   2.608   1.564   1.871
 8892TIP3    H226641   2.729   1.525   1.953
 8893TIP3   OH226642   6.690   6.372   4.768
 8893TIP3    H126643   6.663   6.456   4.732
 8893TIP3    H226644   6.614   6.342   4.819
 8894TIP3   OH226645   6.819   5.709   0.420
 8894TIP3    H126646   6.896   5.753   0.384
 8894TIP3    H226647   6.835   5.616   0.405
 8895TIP3   OH226648   3.304   5.401   2.446
 8895TIP3    H126649   3.292   5.449   2.364
 8895TIP3    H226650   3.237   5.333   2.444
 8896TIP3   OH226651   0.544   6.528   2.495
 8896TIP3    H126652   0.595   6.466   2.547
 8896TIP3    H226653   0.465   6.479   2.471
 8897TIP3   OH226654   7.142   3.439   2.397
 8897TIP3    H126655   7.140   3.515   2.455
 8897TIP3    H226656   7.055   3.438   2.356
 8898TIP3   OH226657   5.110   1.067   3.204
 8898TIP3    H126658   5.117   0.972   3.208
 8898TIP3    H226659   5.028   1.087   3.248
 8899TIP3   OH226660   3.638   4.064   2.241
 8899TIP3    H126661   3.550   4.039   2.266
 8899TIP3    H226662   3.651   4.150   2.282
 8900TIP3   OH226663   1.904   0.089   4.428
 8900TIP3    H126664   1.935   0.052   4.511
 8900TIP3    H226665   1.932   0.181   4.431
 8901TIP3   OH226666   2.340   3.391   4.571
 8901TIP3    H126667   2.387   3.400   4.489
 8901TIP3    H226668   2.355   3.473   4.617
 8902TIP3   OH226669   3.111   4.984   2.698
 8902TIP3    H126670   3.033   4.937   2.727
 8902TIP3    H226671   3.183   4.942   2.745
 8903TIP3   OH226672   2.410   1.195   4.710
 8903TIP3    H126673   2.411   1.269   4.771
 8903TIP3    H226674   2.342   1.137   4.742
 8904TIP3   OH226675   0.865   6.459   4.456
 8904TIP3    H126676   0.833   6.381   4.502
 8904TIP3    H226677   0.877   6.430   4.366
 8905TIP3   OH226678   5.330   5.597   0.159
 8905TIP3    H126679   5.302   5.546   0.236
 8905TIP3    H226680   5.397   5.544   0.118
 8906TIP3   OH226681   5.818   3.698   1.648
 8906TIP3    H126682   5.755   3.627   1.661
 8906TIP3    H226683   5.890   3.658   1.600
 8907TIP3   OH226684   4.420   4.553   3.877
 8907TIP3    H126685   4.328   4.540   3.902
 8907TIP3    H226686   4.470   4.514   3.948
 8908TIP3   OH226687   5.941   1.400   2.267
 8908TIP3    H126688   5.869   1.400   2.330
 8908TIP3    H226689   5.924   1.476   2.211
 8909TIP3   OH226690   5.964   1.188   4.077
 8909TIP3    H126691   5.930   1.139   4.002
 8909TIP3    H226692   5.954   1.128   4.151
 8910TIP3   OH226693   4.313   1.291   1.796
 8910TIP3    H126694   4.287   1.314   1.707
 8910TIP3    H226695   4.349   1.203   1.789
 8911TIP3   OH226696   0.219   1.258   2.346
 8911TIP3    H126697   0.249   1.249   2.255
 8911TIP3    H226698   0.135   1.304   2.339
 8912TIP3   OH226699   5.981   1.352   2.996
 8912TIP3    H126700   6.036   1.344   3.074
 8912TIP3    H226701   5.920   1.423   3.017
 8913TIP3   OH226702   3.019   6.249   5.696
 8913TIP3    H126703   3.107   6.275   5.724
 8913TIP3    H226704   2.960   6.291   5.759
 8914TIP3   OH226705   5.650   2.551   3.691
 8914TIP3    H126706   5.662   2.592   3.606
 8914TIP3    H226707   5.659   2.457   3.675
 8915TIP3   OH226708   4.395   1.976   0.103
 8915TIP3    H126709   4.460   2.026   0.151
 8915TIP3    H226710   4.360   1.914   0.167
 8916TIP3   OH226711   0.574   4.051   5.580
 8916TIP3    H126712   0.629   4.122   5.547
 8916TIP3    H226713   0.611   4.030   5.666
 8917TIP3   OH226714   1.135   2.543   0.962
 8917TIP3    H126715   1.113   2.556   0.870
 8917TIP3    H226716   1.111   2.626   1.004
 8918TIP3   OH226717   4.790   5.178   0.318
 8918TIP3    H126718   4.824   5.248   0.374
 8918TIP3    H226719   4.776   5.105   0.378
 8919TIP3   OH226720   6.686   5.033   2.677
 8919TIP3    H126721   6.639   4.949   2.682
 8919TIP3    H226722   6.619   5.098   2.659
 8920TIP3   OH226723   6.702   5.378   3.282
 8920TIP3    H126724   6.646   5.304   3.304
 8920TIP3    H226725   6.643   5.453   3.280
 8921TIP3   OH226726   1.836   1.370   5.567
 8921TIP3    H126727   1.777   1.445   5.568
 8921TIP3    H226728   1.778   1.294   5.560
 8922TIP3   OH226729   3.676   6.799   5.903
 8922TIP3    H126730   3.760   6.756   5.883
 8922TIP3    H226731   3.621   6.778   5.827
 8923TIP3   OH226732   5.024   4.797   3.056
 8923TIP3    H126733   5.020   4.892   3.047
 8923TIP3    H226734   5.073   4.782   3.136
 8924TIP3   OH226735   4.982   6.085   5.412
 8924TIP3    H126736   4.979   5.993   5.437
 8924TIP3    H226737   4.927   6.130   5.476
 8925TIP3   OH226738   1.528   3.845   1.165
 8925TIP3    H126739   1.509   3.866   1.074
 8925TIP3    H226740   1.585   3.916   1.195
 8926TIP3   OH226741   2.653   6.449   1.699
 8926TIP3    H126742   2.618   6.371   1.743
 8926TIP3    H226743   2.674   6.509   1.771
 8927TIP3   OH226744   5.978   4.420   0.824
 8927TIP3    H126745   6.005   4.330   0.840
 8927TIP3    H226746   6.058   4.472   0.836
 8928TIP3   OH226747   4.981   3.922   5.649
 8928TIP3    H126748   4.981   4.006   5.603
 8928TIP3    H226749   5.028   3.939   5.730
 8929TIP3   OH226750   1.465   4.457   3.366
 8929TIP3    H126751   1.487   4.427   3.278
 8929TIP3    H226752   1.540   4.433   3.420
 8930TIP3   OH226753   2.708   0.315   1.192
 8930TIP3    H126754   2.685   0.328   1.284
 8930TIP3    H226755   2.767   0.388   1.171
 8931TIP3   OH226756   0.438   4.020   2.950
 8931TIP3    H126757   0.517   4.034   3.001
 8931TIP3    H226758   0.431   3.925   2.942
 8932TIP3   OH226759   0.373  -0.002   3.620
 8932TIP3    H126760   0.407   0.006   3.531
 8932TIP3    H226761   0.318   0.076   3.632
 8933TIP3   OH226762   7.151   5.803   4.665
 8933TIP3    H126763   7.196   5.828   4.585
 8933TIP3    H226764   7.092   5.732   4.639
 8934TIP3   OH226765   4.295   4.138   0.092
 8934TIP3    H126766   4.265   4.052   0.063
 8934TIP3    H226767   4.359   4.165   0.026
 8935TIP3   OH226768   6.672   2.029   3.593
 8935TIP3    H126769   6.726   2.108   3.586
 8935TIP3    H226770   6.735   1.958   3.604
 8936TIP3   OH226771   0.633   1.647   5.227
 8936TIP3    H126772   0.727   1.662   5.223
 8936TIP3    H226773   0.615   1.589   5.153
 8937TIP3   OH226774   6.226   0.736   1.431
 8937TIP3    H126775   6.259   0.655   1.469
 8937TIP3    H226776   6.143   0.752   1.477
 8938TIP3   OH226777   5.372   3.093   5.102
 8938TIP3    H126778   5.279   3.069   5.109
 8938TIP3    H226779   5.374   3.186   5.125
 8939TIP3   OH226780   2.394   6.129   3.233
 8939TIP3    H126781   2.465   6.095   3.288
 8939TIP3    H226782   2.363   6.053   3.184
 8940TIP3   OH226783   4.429   1.553   0.211
 8940TIP3    H126784   4.499   1.505   0.257
 8940TIP3    H226785   4.473   1.591   0.135
 8941TIP3   OH226786   3.752   1.958   1.548
 8941TIP3    H126787   3.816   1.920   1.608
 8941TIP3    H226788   3.788   1.941   1.461
 8942TIP3   OH226789   4.870   0.420   4.806
 8942TIP3    H126790   4.857   0.424   4.901
 8942TIP3    H226791   4.922   0.341   4.792
 8943TIP3   OH226792   3.677   1.634   3.298
 8943TIP3    H126793   3.658   1.579   3.374
 8943TIP3    H226794   3.725   1.577   3.238
 8944TIP3   OH226795   0.717   1.795   5.745
 8944TIP3    H126796   0.637   1.816   5.793
 8944TIP3    H226797   0.688   1.781   5.655
 8945TIP3   OH226798   6.622   5.132   4.138
 8945TIP3    H126799   6.563   5.070   4.095
 8945TIP3    H226800   6.652   5.085   4.216
 8946TIP3   OH226801   0.072   3.103   5.653
 8946TIP3    H126802   0.032   3.019   5.675
 8946TIP3    H226803   0.004   3.150   5.605
 8947TIP3   OH226804   5.915   3.478   0.853
 8947TIP3    H126805   5.873   3.518   0.776
 8947TIP3    H226806   5.857   3.501   0.926
 8948TIP3   OH226807   4.604   4.431   0.238
 8948TIP3    H126808   4.539   4.488   0.196
 8948TIP3    H226809   4.687   4.456   0.197
 8949TIP3   OH226810   2.381   1.091   0.104
 8949TIP3    H126811   2.296   1.130   0.084
 8949TIP3    H226812   2.390   1.019   0.042
 8950TIP3   OH226813   5.371   6.016   5.491
 8950TIP3    H126814   5.351   5.988   5.401
 8950TIP3    H226815   5.291   6.061   5.520
 8951TIP3   OH226816   7.040   2.520   1.597
 8951TIP3    H126817   7.129   2.510   1.563
 8951TIP3    H226818   6.996   2.577   1.534
 8952TIP3   OH226819   2.417   6.532   1.992
 8952TIP3    H126820   2.481   6.562   2.057
 8952TIP3    H226821   2.333   6.559   2.027
 8953TIP3   OH226822   1.543   2.654   0.346
 8953TIP3    H126823   1.613   2.719   0.346
 8953TIP3    H226824   1.574   2.585   0.404
 8954TIP3   OH226825   4.443   3.318   0.568
 8954TIP3    H126826   4.487   3.284   0.490
 8954TIP3    H226827   4.389   3.245   0.599
 8955TIP3   OH226828   2.569   1.147   4.142
 8955TIP3    H126829   2.596   1.147   4.234
 8955TIP3    H226830   2.475   1.167   4.145
 8956TIP3   OH226831   5.124   5.705   2.173
 8956TIP3    H126832   5.103   5.634   2.234
 8956TIP3    H226833   5.149   5.661   2.092
 8957TIP3   OH226834   6.168   0.482   3.959
 8957TIP3    H126835   6.208   0.428   4.026
 8957TIP3    H226836   6.236   0.494   3.893
 8958TIP3   OH226837   1.834   4.444   5.026
 8958TIP3    H126838   1.885   4.422   4.948
 8958TIP3    H226839   1.743   4.440   4.997
 8959TIP3   OH226840   1.778   6.494   1.700
 8959TIP3    H126841   1.833   6.418   1.685
 8959TIP3    H226842   1.724   6.501   1.621
 8960TIP3   OH226843   3.611   3.048   3.926
 8960TIP3    H126844   3.668   3.079   3.856
 8960TIP3    H226845   3.609   3.120   3.989
 8961TIP3   OH226846   1.858   6.770   3.921
 8961TIP3    H126847   1.869   6.862   3.895
 8961TIP3    H226848   1.789   6.737   3.863
 8962TIP3   OH226849   5.454   3.654   2.839
 8962TIP3    H126850   5.455   3.653   2.935
 8962TIP3    H226851   5.364   3.677   2.816
 8963TIP3   OH226852   2.231   4.791   2.419
 8963TIP3    H126853   2.225   4.696   2.408
 8963TIP3    H226854   2.154   4.826   2.373
 8964TIP3   OH226855   5.425   0.862   3.019
 8964TIP3    H126856   5.411   0.948   3.057
 8964TIP3    H226857   5.520   0.852   3.018
 8965TIP3   OH226858   7.207   4.006   2.334
 8965TIP3    H126859   7.302   4.005   2.318
 8965TIP3    H226860   7.172   3.943   2.271
 8966TIP3   OH226861   6.986   3.084   4.678
 8966TIP3    H126862   7.052   3.058   4.614
 8966TIP3    H226863   6.913   3.023   4.664
 8967TIP3   OH226864   0.313   5.154   3.388
 8967TIP3    H126865   0.405   5.168   3.410
 8967TIP3    H226866   0.289   5.230   3.334
 8968TIP3   OH226867   6.530   2.939   3.489
 8968TIP3    H126868   6.477   2.889   3.426
 8968TIP3    H226869   6.532   2.884   3.567
 8969TIP3   OH226870   4.268   3.625   0.808
 8969TIP3    H126871   4.329   3.694   0.782
 8969TIP3    H226872   4.189   3.671   0.836
 8970TIP3   OH226873   3.518   2.806   3.952
 8970TIP3    H126874   3.439   2.816   4.005
 8970TIP3    H226875   3.570   2.884   3.970
 8971TIP3   OH226876   5.704   2.497   0.145
 8971TIP3    H126877   5.728   2.436   0.214
 8971TIP3    H226878   5.614   2.522   0.165
 8972TIP3   OH226879   5.479   5.349   5.621
 8972TIP3    H126880   5.475   5.254   5.632
 8972TIP3    H226881   5.511   5.381   5.704
 8973TIP3   OH226882   6.545   5.638   4.799
 8973TIP3    H126883   6.495   5.624   4.718
 8973TIP3    H226884   6.489   5.602   4.868
 8974TIP3   OH226885   1.234   3.815   3.741
 8974TIP3    H126886   1.316   3.821   3.791
 8974TIP3    H226887   1.258   3.769   3.661
 8975TIP3   OH226888   0.813   5.777   5.298
 8975TIP3    H126889   0.892   5.740   5.338
 8975TIP3    H226890   0.741   5.736   5.344
 8976TIP3   OH226891   6.175   0.316   2.960
 8976TIP3    H126892   6.116   0.257   2.913
 8976TIP3    H226893   6.119   0.390   2.986
 8977TIP3   OH226894   3.431   1.595   4.982
 8977TIP3    H126895   3.471   1.541   4.914
 8977TIP3    H226896   3.445   1.545   5.063
 8978TIP3   OH226897   5.247   3.188   4.567
 8978TIP3    H126898   5.335   3.149   4.570
 8978TIP3    H226899   5.258   3.276   4.604
 8979TIP3   OH226900   3.786   1.728   2.515
 8979TIP3    H126901   3.702   1.696   2.545
 8979TIP3    H226902   3.772   1.751   2.423
 8980TIP3   OH226903   1.910   0.873   4.007
 8980TIP3    H126904   2.005   0.862   4.017
 8980TIP3    H226905   1.895   0.967   4.017
 8981TIP3   OH226906   6.024   3.787   3.582
 8981TIP3    H126907   6.112   3.804   3.616
 8981TIP3    H226908   6.031   3.700   3.542
 8982TIP3   OH226909   4.554   3.269   2.042
 8982TIP3    H126910   4.530   3.211   1.970
 8982TIP3    H226911   4.578   3.209   2.113
 8983TIP3   OH226912   5.217   3.246   0.518
 8983TIP3    H126913   5.311   3.259   0.530
 8983TIP3    H226914   5.199   3.162   0.558
 8984TIP3   OH226915   1.082   0.531   1.696
 8984TIP3    H126916   1.176   0.531   1.712
 8984TIP3    H226917   1.072   0.495   1.608
 8985TIP3   OH226918   6.453   6.106   0.078
 8985TIP3    H126919   6.365   6.115   0.115
 8985TIP3    H226920   6.460   6.014   0.055
 8986TIP3   OH226921   2.746   2.759   0.510
 8986TIP3    H126922   2.774   2.850   0.499
 8986TIP3    H226923   2.780   2.714   0.433
 8987TIP3   OH226924   6.753   1.268   3.497
 8987TIP3    H126925   6.681   1.317   3.537
 8987TIP3    H226926   6.717   1.237   3.414
 8988TIP3   OH226927   1.308   3.516   5.590
 8988TIP3    H126928   1.257   3.589   5.625
 8988TIP3    H226929   1.387   3.556   5.554
 8989TIP3   OH226930   2.830   0.970   5.651
 8989TIP3    H126931   2.894   0.917   5.699
 8989TIP3    H226932   2.751   0.967   5.705
 8990TIP3   OH226933   6.337   6.820   4.100
 8990TIP3    H126934   6.393   6.777   4.165
 8990TIP3    H226935   6.253   6.831   4.145
 8991TIP3   OH226936   0.166   3.793   5.230
 8991TIP3    H126937   0.241   3.795   5.171
 8991TIP3    H226938   0.200   3.756   5.311
 8992TIP3   OH226939   2.730   5.515   1.788
 8992TIP3    H126940   2.787   5.569   1.842
 8992TIP3    H226941   2.646   5.559   1.789
 8993TIP3   OH226942   4.421   1.600   1.511
 8993TIP3    H126943   4.449   1.691   1.502
 8993TIP3    H226944   4.475   1.566   1.583
 8994TIP3   OH226945   0.999   3.911  -0.040
 8994TIP3    H126946   1.063   3.879   0.024
 8994TIP3    H226947   1.048   3.914  -0.123
 8995TIP3   OH226948   2.786   2.958   3.301
 8995TIP3    H126949   2.837   2.885   3.267
 8995TIP3    H226950   2.695   2.930   3.289
 8996TIP3   OH226951   5.199   1.771   3.860
 8996TIP3    H126952   5.115   1.739   3.895
 8996TIP3    H226953   5.265   1.730   3.916
 8997TIP3   OH226954   1.579   3.328   5.490
 8997TIP3    H126955   1.543   3.318   5.402
 8997TIP3    H226956   1.537   3.406   5.525
 8998TIP3   OH226957   0.243   4.416   2.263
 8998TIP3    H126958   0.254   4.332   2.307
 8998TIP3    H226959   0.252   4.396   2.170
 8999TIP3   OH226960   4.437   0.995   1.085
 8999TIP3    H126961   4.386   1.045   1.148
 8999TIP3    H226962   4.512   1.051   1.066
 9000TIP3   OH226963   3.905   1.973   0.697
 9000TIP3    H126964   3.927   2.033   0.769
 9000TIP3    H226965   3.950   2.010   0.621
 9001TIP3   OH226966   3.799   5.906   3.203
 9001TIP3    H126967   3.807   5.813   3.181
 9001TIP3    H226968   3.705   5.925   3.192
 9002TIP3   OH226969   0.784   6.376   2.474
 9002TIP3    H126970   0.819   6.331   2.551
 9002TIP3    H226971   0.819   6.465   2.480
 9003TIP3   OH226972   6.824   6.443   2.636
 9003TIP3    H126973   6.738   6.430   2.597
 9003TIP3    H226974   6.878   6.475   2.564
 9004TIP3   OH226975   2.508   3.471   4.353
 9004TIP3    H126976   2.504   3.557   4.312
 9004TIP3    H226977   2.601   3.451   4.360
 9005TIP3   OH226978   4.490   2.318   4.824
 9005TIP3    H126979   4.577   2.300   4.860
 9005TIP3    H226980   4.429   2.286   4.890
 9006TIP3   OH226981   0.412   3.289   1.671
 9006TIP3    H126982   0.329   3.337   1.668
 9006TIP3    H226983   0.455   3.321   1.751
 9007TIP3   OH226984   0.997   2.058   3.199
 9007TIP3    H126985   1.043   2.019   3.274
 9007TIP3    H226986   1.061   2.055   3.128
 9008TIP3   OH226987   2.346   1.460   1.345
 9008TIP3    H126988   2.268   1.461   1.400
 9008TIP3    H226989   2.314   1.449   1.256
 9009TIP3   OH226990   6.265   3.133   3.690
 9009TIP3    H126991   6.203   3.067   3.658
 9009TIP3    H226992   6.321   3.086   3.751
 9010TIP3   OH226993   6.828   5.451   0.288
 9010TIP3    H126994   6.829   5.359   0.263
 9010TIP3    H226995   6.905   5.489   0.244
 9011TIP3   OH226996   4.921   1.905   0.491
 9011TIP3    H126997   4.896   1.997   0.478
 9011TIP3    H226998   4.839   1.856   0.482
 9012TIP3   OH226999   1.595   0.491   4.647
 9012TIP3    H127000   1.566   0.521   4.561
 9012TIP3    H227001   1.552   0.549   4.709
 9013TIP3   OH227002   4.890   2.893   5.540
 9013TIP3    H127003   4.956   2.834   5.503
 9013TIP3    H227004   4.941   2.961   5.585
 9014TIP3   OH227005   0.556   5.652   4.005
 9014TIP3    H127006   0.555   5.600   4.086
 9014TIP3    H227007   0.466   5.647   3.973
 9015TIP3   OH227008   6.353   6.470   3.617
 9015TIP3    H127009   6.286   6.447   3.552
 9015TIP3    H227010   6.364   6.565   3.606
 9016TIP3   OH227011   3.261   4.798   0.870
 9016TIP3    H127012   3.310   4.740   0.928
 9016TIP3    H227013   3.228   4.867   0.927
 9017TIP3   OH227014   6.783   2.456   2.742
 9017TIP3    H127015   6.829   2.373   2.753
 9017TIP3    H227016   6.769   2.463   2.648
 9018TIP3   OH227017   4.127   4.483   3.277
 9018TIP3    H127018   4.217   4.513   3.292
 9018TIP3    H227019   4.076   4.522   3.348
 9019TIP3   OH227020   6.212   3.346   4.237
 9019TIP3    H127021   6.286   3.332   4.295
 9019TIP3    H227022   6.171   3.426   4.270
 9020TIP3   OH227023   4.236   6.367   1.082
 9020TIP3    H127024   4.309   6.427   1.065
 9020TIP3    H227025   4.233   6.310   1.005
 9021TIP3   OH227026   2.736   5.777   1.893
 9021TIP3    H127027   2.663   5.770   1.831
 9021TIP3    H227028   2.695   5.801   1.976
 9022TIP3   OH227029   0.988   3.959   3.880
 9022TIP3    H127030   0.957   4.048   3.864
 9022TIP3    H227031   0.988   3.917   3.794
 9023TIP3   OH227032   1.674   4.258   3.664
 9023TIP3    H127033   1.720   4.325   3.614
 9023TIP3    H227034   1.727   4.179   3.655
 9024TIP3   OH227035   3.578   2.420   5.089
 9024TIP3    H127036   3.600   2.511   5.071
 9024TIP3    H227037   3.539   2.389   5.007
 9025TIP3   OH227038   2.432   1.233   4.440
 9025TIP3    H127039   2.482   1.309   4.411
 9025TIP3    H227040   2.446   1.231   4.535
 9026TIP3   OH227041   2.591   0.146   0.296
 9026TIP3    H127042   2.655   0.108   0.236
 9026TIP3    H227043   2.618   0.117   0.383
 9027TIP3   OH227044   6.345   5.086   2.009
 9027TIP3    H127045   6.279   5.094   1.939
 9027TIP3    H227046   6.428   5.106   1.965
 9028TIP3   OH227047   5.215   5.325   5.563
 9028TIP3    H127048   5.185   5.247   5.609
 9028TIP3    H227049   5.310   5.320   5.566
 9029TIP3   OH227050   0.791   5.748   3.147
 9029TIP3    H127051   0.756   5.830   3.182
 9029TIP3    H227052   0.716   5.704   3.109
 9030TIP3   OH227053   0.261   0.547   0.574
 9030TIP3    H127054   0.173   0.578   0.594
 9030TIP3    H227055   0.318   0.594   0.636
 9031TIP3   OH227056   6.655   2.819   0.770
 9031TIP3    H127057   6.611   2.882   0.712
 9031TIP3    H227058   6.628   2.733   0.736
 9032TIP3   OH227059   6.578   6.808   2.695
 9032TIP3    H127060   6.670   6.828   2.711
 9032TIP3    H227061   6.579   6.723   2.650
 9033TIP3   OH227062   4.802   2.342   5.755
 9033TIP3    H127063   4.783   2.349   5.849
 9033TIP3    H227064   4.844   2.424   5.733
 9034TIP3   OH227065   3.686   4.130   4.561
 9034TIP3    H127066   3.617   4.068   4.586
 9034TIP3    H227067   3.755   4.075   4.524
 9035TIP3   OH227068   0.119   4.101   5.660
 9035TIP3    H127069   0.061   4.077   5.587
 9035TIP3    H227070   0.187   4.154   5.620
 9036TIP3   OH227071   1.044   4.901   2.593
 9036TIP3    H127072   1.098   4.932   2.666
 9036TIP3    H227073   0.959   4.880   2.632
 9037TIP3   OH227074   5.611   4.714   5.807
 9037TIP3    H127075   5.596   4.620   5.801
 9037TIP3    H227076   5.575   4.749   5.726
 9038TIP3   OH227077   3.559   2.320   1.837
 9038TIP3    H127078   3.648   2.289   1.817
 9038TIP3    H227079   3.572   2.411   1.865
 9039TIP3   OH227080   7.091   3.878   5.517
 9039TIP3    H127081   7.179   3.853   5.543
 9039TIP3    H227082   7.099   3.969   5.489
 9040TIP3   OH227083   4.371   5.983   0.030
 9040TIP3    H127084   4.370   6.077   0.015
 9040TIP3    H227085   4.279   5.958   0.030
 9041TIP3   OH227086   0.407   4.683   0.419
 9041TIP3    H127087   0.358   4.759   0.388
 9041TIP3    H227088   0.357   4.608   0.387
 9042TIP3   OH227089   4.937   2.699   0.731
 9042TIP3    H127090   4.923   2.788   0.764
 9042TIP3    H227091   4.931   2.708   0.636
 9043TIP3   OH227092   1.578   1.648   3.523
 9043TIP3    H127093   1.492   1.636   3.563
 9043TIP3    H227094   1.600   1.563   3.486
 9044TIP3   OH227095   4.261   1.921   0.828
 9044TIP3    H127096   4.348   1.959   0.826
 9044TIP3    H227097   4.204   1.989   0.791
 9045TIP3   OH227098   0.254   4.566   2.973
 9045TIP3    H127099   0.254   4.507   3.049
 9045TIP3    H227100   0.337   4.614   2.980
 9046TIP3   OH227101   0.463   3.098   2.672
 9046TIP3    H127102   0.415   3.048   2.737
 9046TIP3    H227103   0.469   3.040   2.596
 9047TIP3   OH227104   3.266   5.275   4.967
 9047TIP3    H127105   3.345   5.276   5.021
 9047TIP3    H227106   3.281   5.205   4.903
 9048TIP3   OH227107   3.942   2.297   3.116
 9048TIP3    H127108   3.945   2.389   3.144
 9048TIP3    H227109   3.978   2.249   3.190
 9049TIP3   OH227110   2.101   5.317   2.626
 9049TIP3    H127111   2.155   5.241   2.606
 9049TIP3    H227112   2.092   5.363   2.543
 9050TIP3   OH227113   5.209   2.473   4.189
 9050TIP3    H127114   5.179   2.477   4.099
 9050TIP3    H227115   5.278   2.540   4.195
 9051TIP3   OH227116   3.093   1.473   5.738
 9051TIP3    H127117   3.188   1.461   5.745
 9051TIP3    H227118   3.064   1.402   5.681
 9052TIP3   OH227119   1.402   6.225   0.129
 9052TIP3    H127120   1.355   6.303   0.099
 9052TIP3    H227121   1.351   6.194   0.204
 9053TIP3   OH227122   2.573   3.839   4.539
 9053TIP3    H127123   2.663   3.864   4.518
 9053TIP3    H227124   2.541   3.910   4.595
 9054TIP3   OH227125   0.969   0.160   3.606
 9054TIP3    H127126   0.873   0.160   3.608
 9054TIP3    H227127   0.995   0.141   3.696
 9055TIP3   OH227128   5.597   5.531   3.868
 9055TIP3    H127129   5.542   5.556   3.793
 9055TIP3    H227130   5.535   5.493   3.931
 9056TIP3   OH227131   4.832   6.556   1.767
 9056TIP3    H127132   4.892   6.499   1.816
 9056TIP3    H227133   4.841   6.527   1.676
 9057TIP3   OH227134   1.139   5.532   1.439
 9057TIP3    H127135   1.177   5.488   1.515
 9057TIP3    H227136   1.072   5.590   1.476
 9058TIP3   OH227137   2.474   4.512   4.444
 9058TIP3    H127138   2.535   4.497   4.372
 9058TIP3    H227139   2.493   4.441   4.506
 9059TIP3   OH227140   2.986   1.639   2.839
 9059TIP3    H127141   2.897   1.604   2.851
 9059TIP3    H227142   2.987   1.670   2.749
 9060TIP3   OH227143   0.058   0.750   5.081
 9060TIP3    H127144   0.052   0.820   5.145
 9060TIP3    H227145  -0.023   0.701   5.091
 9061TIP3   OH227146   5.324   5.377   2.751
 9061TIP3    H127147   5.298   5.354   2.840
 9061TIP3    H227148   5.398   5.437   2.762
 9062TIP3   OH227149   3.205   3.797   5.323
 9062TIP3    H127150   3.130   3.838   5.278
 9062TIP3    H227151   3.270   3.787   5.254
 9063TIP3   OH227152   6.216   3.086   4.353
 9063TIP3    H127153   6.248   3.165   4.308
 9063TIP3    H227154   6.209   3.020   4.284
 9064TIP3   OH227155   3.116   0.753   3.783
 9064TIP3    H127156   3.194   0.802   3.808
 9064TIP3    H227157   3.147   0.688   3.720
 9065TIP3   OH227158   7.111   3.785   4.806
 9065TIP3    H127159   7.030   3.815   4.846
 9065TIP3    H227160   7.132   3.851   4.740
 9066TIP3   OH227161   2.908   4.171   5.026
 9066TIP3    H127162   2.991   4.132   5.054
 9066TIP3    H227163   2.924   4.266   5.027
 9067TIP3   OH227164   4.004   1.861   1.658
 9067TIP3    H127165   4.092   1.825   1.662
 9067TIP3    H227166   4.018   1.956   1.656
 9068TIP3   OH227167   6.937   5.347   4.269
 9068TIP3    H127168   7.019   5.390   4.244
 9068TIP3    H227169   6.887   5.340   4.188
 9069TIP3   OH227170   0.518   0.665   0.128
 9069TIP3    H127171   0.471   0.634   0.051
 9069TIP3    H227172   0.563   0.588   0.161
 9070TIP3   OH227173   6.241   0.352   2.273
 9070TIP3    H127174   6.268   0.347   2.365
 9070TIP3    H227175   6.253   0.444   2.250
 9071TIP3   OH227176   5.201   5.499   1.502
 9071TIP3    H127177   5.244   5.420   1.469
 9071TIP3    H227178   5.239   5.570   1.450
 9072TIP3   OH227179   6.364   1.100   2.678
 9072TIP3    H127180   6.402   1.069   2.595
 9072TIP3    H227181   6.300   1.166   2.652
 9073TIP3   OH227182   4.464   4.309   5.368
 9073TIP3    H127183   4.442   4.382   5.310
 9073TIP3    H227184   4.382   4.261   5.379
 9074TIP3   OH227185   5.949   3.236   2.262
 9074TIP3    H127186   5.991   3.318   2.236
 9074TIP3    H227187   6.022   3.178   2.285
 9075TIP3   OH227188   4.965   0.372   0.228
 9075TIP3    H127189   4.983   0.418   0.146
 9075TIP3    H227190   4.870   0.380   0.240
 9076TIP3   OH227191   0.787   5.937   5.041
 9076TIP3    H127192   0.765   6.028   5.059
 9076TIP3    H227193   0.751   5.888   5.115
 9077TIP3   OH227194   0.595   4.661   0.943
 9077TIP3    H127195   0.685   4.637   0.920
 9077TIP3    H227196   0.582   4.622   1.030
 9078TIP3   OH227197   3.540   3.925   0.362
 9078TIP3    H127198   3.535   3.843   0.314
 9078TIP3    H227199   3.491   3.988   0.308
 9079TIP3   OH227200   0.693   4.289   5.457
 9079TIP3    H127201   0.717   4.258   5.370
 9079TIP3    H227202   0.624   4.353   5.442
 9080TIP3   OH227203   2.396   5.065   4.576
 9080TIP3    H127204   2.419   5.000   4.509
 9080TIP3    H227205   2.372   5.013   4.653
 9081TIP3   OH227206   5.903   3.935   4.096
 9081TIP3    H127207   5.816   3.898   4.082
 9081TIP3    H227208   5.963   3.868   4.062
 9082TIP3   OH227209   5.295   2.863   3.892
 9082TIP3    H127210   5.268   2.955   3.888
 9082TIP3    H227211   5.222   2.819   3.935
 9083TIP3   OH227212   1.658   0.047   0.149
 9083TIP3    H127213   1.737   0.028   0.200
 9083TIP3    H227214   1.623   0.127   0.187
 9084TIP3   OH227215   0.813   1.080   4.897
 9084TIP3    H127216   0.847   1.169   4.911
 9084TIP3    H227217   0.866   1.044   4.826
 9085TIP3   OH227218   0.250   2.485   0.820
 9085TIP3    H127219   0.171   2.444   0.856
 9085TIP3    H227220   0.276   2.549   0.886
 9086TIP3   OH227221   3.001   6.019   4.493
 9086TIP3    H127222   2.940   5.951   4.521
 9086TIP3    H227223   2.966   6.100   4.530
 9087TIP3   OH227224   1.158   2.865   3.887
 9087TIP3    H127225   1.210   2.943   3.902
 9087TIP3    H227226   1.067   2.894   3.892
 9088TIP3   OH227227   5.389   2.861   1.798
 9088TIP3    H127228   5.465   2.899   1.842
 9088TIP3    H227229   5.319   2.863   1.864
 9089TIP3   OH227230   0.402   4.502   0.020
 9089TIP3    H127231   0.435   4.439  -0.044
 9089TIP3    H227232   0.477   4.522   0.075
 9090TIP3   OH227233   3.621   5.876   0.256
 9090TIP3    H127234   3.652   5.860   0.167
 9090TIP3    H227235   3.526   5.885   0.248
 9091TIP3   OH227236   7.039   5.218   0.744
 9091TIP3    H127237   7.078   5.147   0.693
 9091TIP3    H227238   6.984   5.174   0.809
 9092TIP3   OH227239   1.081   5.872   4.269
 9092TIP3    H127240   1.095   5.962   4.239
 9092TIP3    H227241   1.167   5.843   4.298
 9093TIP3   OH227242   0.663   1.436   1.602
 9093TIP3    H127243   0.597   1.501   1.575
 9093TIP3    H227244   0.673   1.380   1.525
 9094TIP3   OH227245   1.272   1.528   4.964
 9094TIP3    H127246   1.183   1.537   4.999
 9094TIP3    H227247   1.277   1.593   4.894
 9095TIP3   OH227248   0.999   2.311   3.910
 9095TIP3    H127249   0.973   2.240   3.969
 9095TIP3    H227250   1.086   2.286   3.879
 9096TIP3   OH227251   2.657   5.192   3.762
 9096TIP3    H127252   2.580   5.156   3.807
 9096TIP3    H227253   2.663   5.140   3.681
 9097TIP3   OH227254   5.935   4.533   0.573
 9097TIP3    H127255   5.952   4.479   0.651
 9097TIP3    H227256   6.018   4.578   0.558
 9098TIP3   OH227257   7.069   1.643   5.856
 9098TIP3    H127258   7.092   1.702   5.927
 9098TIP3    H227259   7.138   1.654   5.791
 9099TIP3   OH227260   5.371   0.798   1.445
 9099TIP3    H127261   5.335   0.870   1.496
 9099TIP3    H227262   5.345   0.719   1.494
 9100TIP3   OH227263   4.480   1.128   3.515
 9100TIP3    H127264   4.422   1.095   3.584
 9100TIP3    H227265   4.567   1.130   3.556
 9101TIP3   OH227266   5.401   5.972   4.324
 9101TIP3    H127267   5.398   6.051   4.378
 9101TIP3    H227268   5.463   5.914   4.369
 9102TIP3   OH227269   4.959   2.551   5.524
 9102TIP3    H127270   4.981   2.566   5.616
 9102TIP3    H227271   4.868   2.579   5.517
 9103TIP3   OH227272   6.629   0.648   0.378
 9103TIP3    H127273   6.586   0.567   0.353
 9103TIP3    H227274   6.664   0.632   0.466
 9104TIP3   OH227275   4.577   6.561   5.181
 9104TIP3    H127276   4.569   6.623   5.253
 9104TIP3    H227277   4.489   6.522   5.174
 9105TIP3   OH227278   4.545   3.065   0.757
 9105TIP3    H127279   4.453   3.037   0.750
 9105TIP3    H227280   4.543   3.137   0.820
 9106TIP3   OH227281   2.126   6.714   1.127
 9106TIP3    H127282   2.115   6.803   1.159
 9106TIP3    H227283   2.184   6.672   1.190
 9107TIP3   OH227284   5.932   3.403   5.712
 9107TIP3    H127285   5.997   3.469   5.736
 9107TIP3    H227286   5.932   3.342   5.786
 9108TIP3   OH227287   4.096   2.448   5.868
 9108TIP3    H127288   4.131   2.433   5.781
 9108TIP3    H227289   4.134   2.378   5.922
 9109TIP3   OH227290   7.237   1.494   3.953
 9109TIP3    H127291   7.216   1.403   3.929
 9109TIP3    H227292   7.189   1.547   3.890
 9110TIP3   OH227293   2.120   5.617   2.655
 9110TIP3    H127294   2.082   5.704   2.659
 9110TIP3    H227295   2.100   5.578   2.741
 9111TIP3   OH227296   0.671   1.292   4.723
 9111TIP3    H127297   0.729   1.315   4.796
 9111TIP3    H227298   0.730   1.263   4.654
 9112TIP3   OH227299   4.093   4.352   2.071
 9112TIP3    H127300   3.998   4.338   2.076
 9112TIP3    H227301   4.112   4.355   1.978
 9113TIP3   OH227302   1.046   4.174   4.827
 9113TIP3    H127303   1.108   4.137   4.765
 9113TIP3    H227304   1.034   4.106   4.893
 9114TIP3   OH227305   6.533   3.503   0.041
 9114TIP3    H127306   6.603   3.438   0.048
 9114TIP3    H227307   6.577   3.587   0.054
 9115TIP3   OH227308   3.238   6.566   4.523
 9115TIP3    H127309   3.166   6.503   4.519
 9115TIP3    H227310   3.257   6.576   4.616
 9116TIP3   OH227311   5.178   6.492   2.880
 9116TIP3    H127312   5.113   6.463   2.816
 9116TIP3    H227313   5.166   6.433   2.955
 9117TIP3   OH227314   3.669   0.854   4.870
 9117TIP3    H127315   3.681   0.760   4.887
 9117TIP3    H227316   3.587   0.859   4.821
 9118TIP3   OH227317   6.924   6.338   3.812
 9118TIP3    H127318   6.897   6.250   3.841
 9118TIP3    H227319   6.859   6.397   3.849
 9119TIP3   OH227320   1.949   3.902   1.376
 9119TIP3    H127321   1.953   3.884   1.282
 9119TIP3    H227322   2.040   3.903   1.404
 9120TIP3   OH227323   0.906   5.602   2.471
 9120TIP3    H127324   0.822   5.633   2.504
 9120TIP3    H227325   0.965   5.677   2.480
 9121TIP3   OH227326   2.578   6.154   5.546
 9121TIP3    H127327   2.582   6.249   5.536
 9121TIP3    H227328   2.551   6.122   5.460
 9122TIP3   OH227329   0.890   6.534   5.485
 9122TIP3    H127330   0.941   6.455   5.500
 9122TIP3    H227331   0.807   6.504   5.448
 9123TIP3   OH227332   3.318   2.501   4.785
 9123TIP3    H127333   3.239   2.554   4.795
 9123TIP3    H227334   3.383   2.561   4.749
 9124TIP3   OH227335   0.516   4.742   3.834
 9124TIP3    H127336   0.562   4.826   3.840
 9124TIP3    H227337   0.573   4.687   3.780
 9125TIP3   OH227338   5.994   0.925   0.521
 9125TIP3    H127339   5.964   1.006   0.480
 9125TIP3    H227340   5.915   0.871   0.528
 9126TIP3   OH227341   4.120   6.337   1.329
 9126TIP3    H127342   4.128   6.429   1.355
 9126TIP3    H227343   4.193   6.322   1.269
 9127TIP3   OH227344   3.447   2.525   4.175
 9127TIP3    H127345   3.428   2.482   4.258
 9127TIP3    H227346   3.362   2.530   4.130
 9128TIP3   OH227347   1.357   0.788   2.606
 9128TIP3    H127348   1.365   0.693   2.619
 9128TIP3    H227349   1.268   0.808   2.633
 9129TIP3   OH227350   6.381   4.268   3.063
 9129TIP3    H127351   6.424   4.297   3.143
 9129TIP3    H227352   6.291   4.249   3.090
 9130TIP3   OH227353   3.313   6.214   2.939
 9130TIP3    H127354   3.293   6.187   3.029
 9130TIP3    H227355   3.269   6.298   2.930
 9131TIP3   OH227356   2.069   0.602   5.126
 9131TIP3    H127357   2.010   0.545   5.175
 9131TIP3    H227358   2.074   0.682   5.179
 9132TIP3   OH227359   6.415   2.826   2.366
 9132TIP3    H127360   6.347   2.774   2.408
 9132TIP3    H227361   6.386   2.834   2.275
 9133TIP3   OH227362   2.943   2.683   1.321
 9133TIP3    H127363   2.926   2.660   1.412
 9133TIP3    H227364   2.902   2.769   1.310
 9134TIP3   OH227365   2.474   1.900   3.551
 9134TIP3    H127366   2.553   1.955   3.549
 9134TIP3    H227367   2.414   1.946   3.610
 9135TIP3   OH227368   4.052   6.225   3.948
 9135TIP3    H127369   4.063   6.240   3.854
 9135TIP3    H227370   4.132   6.258   3.988
 9136TIP3   OH227371   6.400   4.427   1.743
 9136TIP3    H127372   6.376   4.339   1.771
 9136TIP3    H227373   6.345   4.444   1.666
 9137TIP3   OH227374   2.579   2.693   4.893
 9137TIP3    H127375   2.581   2.600   4.870
 9137TIP3    H227376   2.592   2.695   4.988
 9138TIP3   OH227377   3.200   2.086   5.250
 9138TIP3    H127378   3.128   2.116   5.193
 9138TIP3    H227379   3.276   2.137   5.222
 9139TIP3   OH227380   6.698   3.141   5.132
 9139TIP3    H127381   6.646   3.214   5.165
 9139TIP3    H227382   6.745   3.108   5.208
 9140TIP3   OH227383   2.939   6.031   5.486
 9140TIP3    H127384   2.970   6.092   5.554
 9140TIP3    H227385   2.946   6.081   5.405
 9141TIP3   OH227386   4.661   1.435   3.082
 9141TIP3    H127387   4.631   1.491   3.011
 9141TIP3    H227388   4.644   1.486   3.162
 9142TIP3   OH227389   2.853   3.215   2.390
 9142TIP3    H127390   2.927   3.161   2.418
 9142TIP3    H227391   2.891   3.301   2.370
 9143TIP3   OH227392   5.853   1.001   4.462
 9143TIP3    H127393   5.828   1.092   4.478
 9143TIP3    H227394   5.948   1.005   4.448
 9144TIP3   OH227395   5.573   0.282   1.475
 9144TIP3    H127396   5.627   0.207   1.501
 9144TIP3    H227397   5.502   0.284   1.538
 9145TIP3   OH227398   1.792   5.049   3.104
 9145TIP3    H127399   1.802   5.052   3.009
 9145TIP3    H227400   1.712   5.097   3.121
 9146TIP3   OH227401   5.380   0.472   0.208
 9146TIP3    H127402   5.467   0.432   0.200
 9146TIP3    H227403   5.321   0.398   0.223
 9147TIP3   OH227404   1.973   2.533   2.807
 9147TIP3    H127405   1.900   2.531   2.869
 9147TIP3    H227406   2.048   2.557   2.860
 9148TIP3   OH227407   4.096   4.692   4.719
 9148TIP3    H127408   4.120   4.631   4.650
 9148TIP3    H227409   4.003   4.679   4.733
 9149TIP3   OH227410   6.327   5.095   4.771
 9149TIP3    H127411   6.291   5.156   4.707
 9149TIP3    H227412   6.250   5.051   4.807
 9150TIP3   OH227413   6.240   1.729   5.771
 9150TIP3    H127414   6.252   1.675   5.692
 9150TIP3    H227415   6.222   1.665   5.840
 9151TIP3   OH227416   5.261   1.219   5.503
 9151TIP3    H127417   5.233   1.243   5.591
 9151TIP3    H227418   5.192   1.250   5.445
 9152TIP3   OH227419   2.164   0.819   4.095
 9152TIP3    H127420   2.201   0.732   4.111
 9152TIP3    H227421   2.208   0.849   4.016
 9153TIP3   OH227422   1.919   1.870   1.890
 9153TIP3    H127423   1.983   1.919   1.942
 9153TIP3    H227424   1.971   1.824   1.824
 9154TIP3   OH227425   5.465   0.696   0.393
 9154TIP3    H127426   5.429   0.642   0.323
 9154TIP3    H227427   5.560   0.679   0.391
 9155TIP3   OH227428   2.477   6.522   3.258
 9155TIP3    H127429   2.424   6.563   3.326
 9155TIP3    H227430   2.560   6.571   3.259
 9156TIP3   OH227431   4.021   0.200   3.425
 9156TIP3    H127432   4.061   0.175   3.508
 9156TIP3    H227433   4.094   0.227   3.370
 9157TIP3   OH227434   6.152   5.379  -0.012
 9157TIP3    H127435   6.131   5.287   0.005
 9157TIP3    H227436   6.246   5.385   0.007
 9158TIP3   OH227437   2.800   4.770   3.625
 9158TIP3    H127438   2.728   4.707   3.630
 9158TIP3    H227439   2.758   4.854   3.610
 9159TIP3   OH227440   6.796   2.495   0.545
 9159TIP3    H127441   6.723   2.490   0.483
 9159TIP3    H227442   6.810   2.589   0.558
 9160TIP3   OH227443   0.309   4.913   0.369
 9160TIP3    H127444   0.323   4.922   0.275
 9160TIP3    H227445   0.314   5.002   0.403
 9161TIP3   OH227446   4.212   2.508   0.024
 9161TIP3    H127447   4.119   2.489   0.040
 9161TIP3    H227448   4.246   2.533   0.110
 9162TIP3   OH227449   1.407   1.767   1.109
 9162TIP3    H127450   1.341   1.744   1.174
 9162TIP3    H227451   1.366   1.749   1.025
 9163TIP3   OH227452   3.491   1.197   4.224
 9163TIP3    H127453   3.475   1.188   4.318
 9163TIP3    H227454   3.409   1.170   4.183
 9164TIP3   OH227455   5.978   6.200   0.426
 9164TIP3    H127456   5.921   6.184   0.501
 9164TIP3    H227457   6.053   6.141   0.440
 9165TIP3   OH227458   3.435   0.352   2.560
 9165TIP3    H127459   3.428   0.303   2.642
 9165TIP3    H227460   3.350   0.396   2.550
 9166TIP3   OH227461   2.909   1.849   2.582
 9166TIP3    H127462   2.983   1.883   2.634
 9166TIP3    H227463   2.833   1.894   2.618
 9167TIP3   OH227464   5.923   1.225   4.747
 9167TIP3    H127465   5.938   1.237   4.841
 9167TIP3    H227466   5.839   1.178   4.742
 9168TIP3   OH227467   6.322   2.780   0.230
 9168TIP3    H127468   6.284   2.720   0.166
 9168TIP3    H227469   6.343   2.724   0.305
 9169TIP3   OH227470   3.821   3.574   3.764
 9169TIP3    H127471   3.878   3.498   3.770
 9169TIP3    H227472   3.737   3.538   3.735
 9170TIP3   OH227473   3.072   2.055   2.652
 9170TIP3    H127474   3.165   2.074   2.666
 9170TIP3    H227475   3.026   2.099   2.723
 9171TIP3   OH227476   2.141   4.378   3.126
 9171TIP3    H127477   2.149   4.300   3.182
 9171TIP3    H227478   2.220   4.378   3.073
 9172TIP3   OH227479   1.807   4.158   0.399
 9172TIP3    H127480   1.738   4.134   0.460
 9172TIP3    H227481   1.864   4.081   0.396
 9173TIP3   OH227482   6.629   3.832   4.019
 9173TIP3    H127483   6.718   3.820   4.051
 9173TIP3    H227484   6.617   3.761   3.956
 9174TIP3   OH227485   0.141   5.535   4.618
 9174TIP3    H127486   0.203   5.462   4.623
 9174TIP3    H227487   0.194   5.613   4.637
 9175TIP3   OH227488   5.965   4.982   2.560
 9175TIP3    H127489   5.881   4.955   2.597
 9175TIP3    H227490   5.973   4.931   2.479
 9176TIP3   OH227491   1.630   0.213   5.370
 9176TIP3    H127492   1.689   0.185   5.301
 9176TIP3    H227493   1.661   0.166   5.448
 9177TIP3   OH227494   1.603   4.009   3.274
 9177TIP3    H127495   1.593   3.948   3.347
 9177TIP3    H227496   1.586   3.958   3.196
 9178TIP3   OH227497   6.629  -0.013   5.755
 9178TIP3    H127498   6.566  -0.016   5.827
 9178TIP3    H227499   6.576  -0.028   5.676
 9179TIP3   OH227500   5.410   5.258   1.385
 9179TIP3    H127501   5.490   5.292   1.425
 9179TIP3    H227502   5.438   5.177   1.342
 9180TIP3   OH227503   4.771   0.861   4.453
 9180TIP3    H127504   4.774   0.837   4.361
 9180TIP3    H227505   4.861   0.846   4.484
 9181TIP3   OH227506   1.323   3.790   1.996
 9181TIP3    H127507   1.326   3.876   2.038
 9181TIP3    H227508   1.311   3.810   1.903
 9182TIP3   OH227509   0.069   6.698   2.214
 9182TIP3    H127510   0.012   6.754   2.162
 9182TIP3    H227511   0.106   6.637   2.151
 9183TIP3   OH227512   0.338   1.527   0.323
 9183TIP3    H127513   0.415   1.562   0.367
 9183TIP3    H227514   0.338   1.569   0.237
 9184TIP3   OH227515   2.686   4.413   1.459
 9184TIP3    H127516   2.594   4.388   1.463
 9184TIP3    H227517   2.722   4.364   1.385
 9185TIP3   OH227518   1.227   0.751   1.188
 9185TIP3    H127519   1.322   0.760   1.176
 9185TIP3    H227520   1.199   0.698   1.113
 9186TIP3   OH227521   3.163   3.657   2.575
 9186TIP3    H127522   3.111   3.664   2.655
 9186TIP3    H227523   3.254   3.663   2.605
 9187TIP3   OH227524   0.517  -0.007   2.118
 9187TIP3    H127525   0.485   0.068   2.069
 9187TIP3    H227526   0.538   0.028   2.205
 9188TIP3   OH227527   1.051   1.970   1.237
 9188TIP3    H127528   1.096   1.905   1.291
 9188TIP3    H227529   1.038   1.928   1.153
 9189TIP3   OH227530   0.404   4.112   3.384
 9189TIP3    H127531   0.343   4.054   3.428
 9189TIP3    H227532   0.358   4.142   3.306
 9190TIP3   OH227533   6.663   0.896   0.785
 9190TIP3    H127534   6.665   0.939   0.870
 9190TIP3    H227535   6.596   0.944   0.736
 9191TIP3   OH227536   3.851   1.770   4.367
 9191TIP3    H127537   3.773   1.735   4.323
 9191TIP3    H227538   3.860   1.859   4.333
 9192TIP3   OH227539   4.356   4.786   1.841
 9192TIP3    H127540   4.312   4.722   1.897
 9192TIP3    H227541   4.372   4.861   1.898
 9193TIP3   OH227542   2.334   6.325   3.468
 9193TIP3    H127543   2.279   6.300   3.394
 9193TIP3    H227544   2.290   6.402   3.505
 9194TIP3   OH227545   4.682   3.154   3.060
 9194TIP3    H127546   4.593   3.163   3.027
 9194TIP3    H227547   4.671   3.130   3.152
 9195TIP3   OH227548   0.079   1.764   2.376
 9195TIP3    H127549   0.025   1.792   2.449
 9195TIP3    H227550   0.110   1.845   2.337
 9196TIP3   OH227551   6.217   5.305   2.825
 9196TIP3    H127552   6.145   5.300   2.763
 9196TIP3    H227553   6.267   5.383   2.798
 9197TIP3   OH227554   4.876   0.149   1.947
 9197TIP3    H127555   4.797   0.142   2.001
 9197TIP3    H227556   4.948   0.153   2.010
 9198TIP3   OH227557   0.019   6.496   4.456
 9198TIP3    H127558  -0.013   6.508   4.367
 9198TIP3    H227559   0.089   6.432   4.447
 9199TIP3   OH227560   3.630   5.279   4.551
 9199TIP3    H127561   3.545   5.304   4.515
 9199TIP3    H227562   3.649   5.346   4.617
 9200TIP3   OH227563   5.461   2.628   0.750
 9200TIP3    H127564   5.447   2.621   0.845
 9200TIP3    H227565   5.545   2.673   0.742
 9201TIP3   OH227566   6.702   4.597   3.351
 9201TIP3    H127567   6.788   4.590   3.310
 9201TIP3    H227568   6.703   4.682   3.395
 9202TIP3   OH227569   1.000   0.827   0.718
 9202TIP3    H127570   1.075   0.841   0.777
 9202TIP3    H227571   0.996   0.732   0.707
 9203TIP3   OH227572   7.089   3.290   0.393
 9203TIP3    H127573   7.075   3.246   0.477
 9203TIP3    H227574   7.159   3.353   0.410
 9204TIP3   OH227575   0.898   3.313   0.333
 9204TIP3    H127576   0.835   3.241   0.344
 9204TIP3    H227577   0.917   3.314   0.239
 9205TIP3   OH227578   5.005   5.436   4.298
 9205TIP3    H127579   4.959   5.361   4.335
 9205TIP3    H227580   5.068   5.398   4.237
 9206TIP3   OH227581   0.551   2.529   5.163
 9206TIP3    H127582   0.641   2.515   5.136
 9206TIP3    H227583   0.558   2.566   5.251
 9207TIP3   OH227584   1.033   3.692   4.984
 9207TIP3    H127585   1.108   3.668   4.929
 9207TIP3    H227586   0.956   3.671   4.930
 9208TIP3   OH227587   5.592   2.239   0.067
 9208TIP3    H127588   5.673   2.187   0.072
 9208TIP3    H227589   5.622   2.328   0.053
 9209TIP3   OH227590   2.098   3.536   3.626
 9209TIP3    H127591   2.056   3.451   3.632
 9209TIP3    H227592   2.060   3.576   3.548
 9210TIP3   OH227593   1.391   0.699   0.337
 9210TIP3    H127594   1.391   0.609   0.371
 9210TIP3    H227595   1.322   0.744   0.387
 9211TIP3   OH227596   6.595   3.345   2.160
 9211TIP3    H127597   6.638   3.326   2.077
 9211TIP3    H227598   6.510   3.301   2.154
 9212TIP3   OH227599   1.313   1.728   0.217
 9212TIP3    H127600   1.349   1.727   0.306
 9212TIP3    H227601   1.356   1.802   0.174
 9213TIP3   OH227602   2.317   2.665   0.504
 9213TIP3    H127603   2.270   2.656   0.586
 9213TIP3    H227604   2.352   2.577   0.487
 9214TIP3   OH227605   2.468   2.346   2.706
 9214TIP3    H127606   2.427   2.357   2.792
 9214TIP3    H227607   2.457   2.431   2.664
 9215TIP3   OH227608   0.748   5.915   0.490
 9215TIP3    H127609   0.721   6.005   0.510
 9215TIP3    H227610   0.723   5.865   0.567
 9216TIP3   OH227611   1.260   3.730   1.147
 9216TIP3    H127612   1.300   3.816   1.161
 9216TIP3    H227613   1.237   3.729   1.054
 9217TIP3   OH227614   4.491   5.863   1.932
 9217TIP3    H127615   4.570   5.899   1.893
 9217TIP3    H227616   4.440   5.939   1.958
 9218TIP3   OH227617   1.740   5.151   0.360
 9218TIP3    H127618   1.676   5.195   0.304
 9218TIP3    H227619   1.710   5.168   0.449
 9219TIP3   OH227620   0.973   3.390   2.449
 9219TIP3    H127621   0.946   3.442   2.374
 9219TIP3    H227622   0.895   3.389   2.506
 9220TIP3   OH227623   0.786   6.492   4.988
 9220TIP3    H127624   0.830   6.577   4.977
 9220TIP3    H227625   0.755   6.470   4.900
 9221TIP3   OH227626   2.416   2.813   3.899
 9221TIP3    H127627   2.395   2.850   3.814
 9221TIP3    H227628   2.511   2.820   3.906
 9222TIP3   OH227629   4.398   1.756   2.552
 9222TIP3    H127630   4.319   1.809   2.566
 9222TIP3    H227631   4.373   1.668   2.579
 9223TIP3   OH227632   2.726   2.721   1.966
 9223TIP3    H127633   2.748   2.631   1.989
 9223TIP3    H227634   2.638   2.716   1.930
 9224TIP3   OH227635   3.940   4.668   4.178
 9224TIP3    H127636   3.921   4.762   4.180
 9224TIP3    H227637   3.901   4.635   4.259
 9225TIP3   OH227638   4.057   0.125   5.154
 9225TIP3    H127639   3.996   0.198   5.162
 9225TIP3    H227640   4.079   0.121   5.061
 9226TIP3   OH227641   6.890   0.935   4.864
 9226TIP3    H127642   6.984   0.947   4.879
 9226TIP3    H227643   6.847   0.995   4.925
 9227TIP3   OH227644   7.035   4.020   4.274
 9227TIP3    H127645   7.111   3.965   4.293
 9227TIP3    H227646   7.071   4.108   4.265
 9228TIP3   OH227647   2.178   4.549   5.532
 9228TIP3    H127648   2.154   4.597   5.453
 9228TIP3    H227649   2.172   4.614   5.602
 9229TIP3   OH227650   5.501   6.735   3.849
 9229TIP3    H127651   5.437   6.671   3.818
 9229TIP3    H227652   5.546   6.691   3.921
 9230TIP3   OH227653   3.788   2.082   3.954
 9230TIP3    H127654   3.832   2.166   3.939
 9230TIP3    H227655   3.710   2.086   3.899
 9231TIP3   OH227656   5.312   1.925   2.329
 9231TIP3    H127657   5.278   2.014   2.343
 9231TIP3    H227658   5.352   1.928   2.243
 9232TIP3   OH227659   4.484   0.379   3.546
 9232TIP3    H127660   4.448   0.365   3.458
 9232TIP3    H227661   4.564   0.327   3.548
 9233TIP3   OH227662   0.504   5.062   4.118
 9233TIP3    H127663   0.507   5.140   4.062
 9233TIP3    H227664   0.590   5.057   4.158
 9234TIP3   OH227665   5.879   5.723   4.396
 9234TIP3    H127666   5.938   5.658   4.359
 9234TIP3    H227667   5.860   5.783   4.324
 9235TIP3   OH227668   6.336   3.375   1.603
 9235TIP3    H127669   6.365   3.361   1.693
 9235TIP3    H227670   6.260   3.433   1.611
 9236TIP3   OH227671   2.076   1.600   2.133
 9236TIP3    H127672   2.114   1.679   2.174
 9236TIP3    H227673   2.126   1.589   2.053
 9237TIP3   OH227674   6.748   1.383   0.081
 9237TIP3    H127675   6.776   1.398   0.171
 9237TIP3    H227676   6.691   1.306   0.086
 9238TIP3   OH227677   6.917   1.397   1.915
 9238TIP3    H127678   6.935   1.489   1.932
 9238TIP3    H227679   7.003   1.357   1.904
 9239TIP3   OH227680   5.841   3.458   3.359
 9239TIP3    H127681   5.830   3.375   3.311
 9239TIP3    H227682   5.825   3.526   3.293
 9240TIP3   OH227683   7.154   0.350   3.743
 9240TIP3    H127684   7.211   0.281   3.709
 9240TIP3    H227685   7.197   0.380   3.824
 9241TIP3   OH227686   3.405   0.345   1.811
 9241TIP3    H127687   3.373   0.282   1.875
 9241TIP3    H227688   3.446   0.292   1.743
 9242TIP3   OH227689   0.827   4.981   2.788
 9242TIP3    H127690   0.771   4.904   2.787
 9242TIP3    H227691   0.775   5.047   2.835
 9243TIP3   OH227692   5.169   4.197   0.551
 9243TIP3    H127693   5.110   4.270   0.536
 9243TIP3    H227694   5.236   4.205   0.483
 9244TIP3   OH227695   5.576   5.780   0.165
 9244TIP3    H127696   5.507   5.732   0.119
 9244TIP3    H227697   5.658   5.740   0.136
 9245TIP3   OH227698   3.694   3.435   5.668
 9245TIP3    H127699   3.725   3.463   5.755
 9245TIP3    H227700   3.767   3.454   5.609
 9246TIP3   OH227701   2.056   3.362   3.131
 9246TIP3    H127702   2.126   3.400   3.079
 9246TIP3    H227703   2.028   3.285   3.082
 9247TIP3   OH227704   0.812   3.355   4.361
 9247TIP3    H127705   0.814   3.275   4.309
 9247TIP3    H227706   0.720   3.367   4.384
 9248TIP3   OH227707   7.100   4.094   2.792
 9248TIP3    H127708   7.015   4.118   2.829
 9248TIP3    H227709   7.152   4.067   2.867
 9249TIP3   OH227710   4.598   3.553   5.724
 9249TIP3    H127711   4.559   3.633   5.690
 9249TIP3    H227712   4.571   3.485   5.661
 9250TIP3   OH227713   2.148   1.542   5.556
 9250TIP3    H127714   2.116   1.456   5.529
 9250TIP3    H227715   2.145   1.540   5.652
 9251TIP3   OH227716   4.071   4.496   5.005
 9251TIP3    H127717   4.082   4.402   4.986
 9251TIP3    H227718   4.018   4.529   4.932
 9252TIP3   OH227719   0.752   2.319   0.657
 9252TIP3    H127720   0.662   2.289   0.672
 9252TIP3    H227721   0.783   2.345   0.743
 9253TIP3   OH227722   1.385   4.025   2.176
 9253TIP3    H127723   1.331   4.060   2.247
 9253TIP3    H227724   1.470   4.009   2.216
 9254TIP3   OH227725   5.063   5.573   3.846
 9254TIP3    H127726   4.979   5.556   3.887
 9254TIP3    H227727   5.090   5.658   3.880
 9255TIP3   OH227728   4.503   2.359   4.198
 9255TIP3    H127729   4.558   2.434   4.174
 9255TIP3    H227730   4.500   2.361   4.294
 9256TIP3   OH227731   3.776   4.710   2.096
 9256TIP3    H127732   3.756   4.786   2.041
 9256TIP3    H227733   3.853   4.671   2.054
 9257TIP3   OH227734   1.782   2.972   1.238
 9257TIP3    H127735   1.693   2.937   1.237
 9257TIP3    H227736   1.775   3.056   1.284
 9258TIP3   OH227737   4.295   0.310   0.112
 9258TIP3    H127738   4.200   0.310   0.100
 9258TIP3    H227739   4.311   0.372   0.183
 9259TIP3   OH227740   4.433   4.604   0.138
 9259TIP3    H127741   4.413   4.695   0.163
 9259TIP3    H227742   4.409   4.599   0.045
 9260TIP3   OH227743   0.945   6.442   5.221
 9260TIP3    H127744   0.883   6.446   5.149
 9260TIP3    H227745   0.895   6.467   5.299
 9261TIP3   OH227746   0.166   5.287   4.917
 9261TIP3    H127747   0.147   5.200   4.953
 9261TIP3    H227748   0.080   5.327   4.906
 9262TIP3   OH227749   5.051   5.999   3.242
 9262TIP3    H127750   4.998   5.927   3.207
 9262TIP3    H227751   5.112   6.020   3.173
 9263TIP3   OH227752   1.695   5.408   0.929
 9263TIP3    H127753   1.607   5.377   0.953
 9263TIP3    H227754   1.753   5.367   0.993
 9264TIP3   OH227755   2.165   0.079   5.043
 9264TIP3    H127756   2.116   0.008   5.084
 9264TIP3    H227757   2.256   0.049   5.044
 9265TIP3   OH227758   4.845   1.018   2.931
 9265TIP3    H127759   4.759   1.058   2.937
 9265TIP3    H227760   4.869   0.998   3.022
 9266TIP3   OH227761   4.302   1.171   2.091
 9266TIP3    H127762   4.225   1.117   2.106
 9266TIP3    H227763   4.316   1.218   2.174
 9267TIP3   OH227764   5.516   1.363   5.418
 9267TIP3    H127765   5.464   1.289   5.449
 9267TIP3    H227766   5.604   1.328   5.407
 9268TIP3   OH227767   2.294   0.646   0.718
 9268TIP3    H127768   2.386   0.675   0.725
 9268TIP3    H227769   2.299   0.552   0.707
 9269TIP3   OH227770   5.515   3.180   4.514
 9269TIP3    H127771   5.609   3.190   4.527
 9269TIP3    H227772   5.479   3.268   4.525
 9270TIP3   OH227773   6.870   2.216   2.813
 9270TIP3    H127774   6.914   2.258   2.886
 9270TIP3    H227775   6.897   2.124   2.817
 9271TIP3   OH227776   4.178   4.469   4.008
 9271TIP3    H127777   4.205   4.383   3.975
 9271TIP3    H227778   4.100   4.490   3.957
 9272TIP3   OH227779   3.727   6.637   2.408
 9272TIP3    H127780   3.745   6.717   2.457
 9272TIP3    H227781   3.813   6.607   2.379
 9273TIP3   OH227782   2.493   1.630   5.515
 9273TIP3    H127783   2.512   1.658   5.425
 9273TIP3    H227784   2.404   1.662   5.531
 9274TIP3   OH227785   0.265   5.976   4.692
 9274TIP3    H127786   0.297   5.965   4.782
 9274TIP3    H227787   0.171   5.987   4.702
 9275TIP3   OH227788   3.345   5.162   1.398
 9275TIP3    H127789   3.422   5.176   1.453
 9275TIP3    H227790   3.279   5.222   1.433
 9276TIP3   OH227791   6.421   1.614   3.723
 9276TIP3    H127792   6.333   1.628   3.687
 9276TIP3    H227793   6.434   1.688   3.783
 9277TIP3   OH227794   6.254   0.882   4.265
 9277TIP3    H127795   6.270   0.794   4.298
 9277TIP3    H227796   6.331   0.932   4.292
 9278TIP3   OH227797   3.724   2.162   5.149
 9278TIP3    H127798   3.708   2.119   5.065
 9278TIP3    H227799   3.697   2.252   5.135
 9279TIP3   OH227800   5.956   0.551   2.542
 9279TIP3    H127801   5.963   0.604   2.463
 9279TIP3    H227802   5.881   0.587   2.589
 9280TIP3   OH227803   3.722   6.421   4.843
 9280TIP3    H127804   3.788   6.477   4.802
 9280TIP3    H227805   3.751   6.332   4.825
 9281TIP3   OH227806   2.747   5.312   5.228
 9281TIP3    H127807   2.762   5.288   5.319
 9281TIP3    H227808   2.795   5.394   5.217
 9282TIP3   OH227809   0.355   1.483   5.348
 9282TIP3    H127810   0.412   1.471   5.272
 9282TIP3    H227811   0.349   1.396   5.388
 9283TIP3   OH227812   3.204   3.590   5.559
 9283TIP3    H127813   3.241   3.635   5.482
 9283TIP3    H227814   3.254   3.509   5.565
 9284TIP3   OH227815   4.168   5.208   4.215
 9284TIP3    H127816   4.094   5.267   4.201
 9284TIP3    H227817   4.165   5.186   4.308
 9285TIP3   OH227818   0.168   1.403   2.691
 9285TIP3    H127819   0.239   1.421   2.630
 9285TIP3    H227820   0.186   1.315   2.724
 9286TIP3   OH227821   3.293   5.809   5.099
 9286TIP3    H127822   3.265   5.897   5.124
 9286TIP3    H227823   3.306   5.764   5.183
 9287TIP3   OH227824   6.267   5.931   2.295
 9287TIP3    H127825   6.186   5.975   2.274
 9287TIP3    H227826   6.311   5.918   2.210
 9288TIP3   OH227827   5.738   4.836   3.383
 9288TIP3    H127828   5.678   4.815   3.312
 9288TIP3    H227829   5.683   4.843   3.461
 9289TIP3   OH227830   0.027   1.523   4.218
 9289TIP3    H127831   0.048   1.528   4.125
 9289TIP3    H227832   0.007   1.613   4.243
 9290TIP3   OH227833   6.716   4.840   4.762
 9290TIP3    H127834   6.761   4.917   4.728
 9290TIP3    H227835   6.757   4.766   4.717
 9291TIP3   OH227836   2.367   1.006   2.304
 9291TIP3    H127837   2.416   0.932   2.340
 9291TIP3    H227838   2.275   0.981   2.314
 9292TIP3   OH227839   3.721   1.582   4.545
 9292TIP3    H127840   3.725   1.642   4.619
 9292TIP3    H227841   3.754   1.633   4.471
 9293TIP3   OH227842   3.721   1.302   4.498
 9293TIP3    H127843   3.741   1.391   4.526
 9293TIP3    H227844   3.668   1.266   4.569
 9294TIP3   OH227845   3.866   0.349   5.268
 9294TIP3    H127846   3.810   0.300   5.327
 9294TIP3    H227847   3.806   0.393   5.207
 9295TIP3   OH227848   5.271   3.921   2.869
 9295TIP3    H127849   5.212   3.990   2.838
 9295TIP3    H227850   5.262   3.851   2.805
 9296TIP3   OH227851   1.579   1.428   2.125
 9296TIP3    H127852   1.650   1.440   2.188
 9296TIP3    H227853   1.563   1.516   2.090
 9297TIP3   OH227854   3.288   1.240   4.969
 9297TIP3    H127855   3.349   1.291   4.915
 9297TIP3    H227856   3.345   1.190   5.029
 9298TIP3   OH227857   3.718   6.508   1.220
 9298TIP3    H127858   3.704   6.554   1.303
 9298TIP3    H227859   3.671   6.561   1.155
 9299TIP3   OH227860   0.319   6.599   4.199
 9299TIP3    H127861   0.250   6.642   4.250
 9299TIP3    H227862   0.343   6.663   4.132
 9300TIP3   OH227863   7.220   2.004   2.011
 9300TIP3    H127864   7.125   2.000   2.003
 9300TIP3    H227865   7.253   1.957   1.934
 9301TIP3   OH227866   1.365   0.243   3.012
 9301TIP3    H127867   1.282   0.283   2.985
 9301TIP3    H227868   1.351   0.215   3.102
 9302TIP3   OH227869   0.292   2.668   4.342
 9302TIP3    H127870   0.312   2.575   4.343
 9302TIP3    H227871   0.348   2.704   4.273
 9303TIP3   OH227872   5.773   4.621   5.092
 9303TIP3    H127873   5.739   4.635   5.004
 9303TIP3    H227874   5.803   4.708   5.120
 9304TIP3   OH227875   1.141   4.226   2.478
 9304TIP3    H127876   1.222   4.174   2.476
 9304TIP3    H227877   1.074   4.167   2.444
 9305TIP3   OH227878   4.053   1.034   4.058
 9305TIP3    H127879   4.049   1.121   4.097
 9305TIP3    H227880   3.962   1.007   4.049
 9306TIP3   OH227881   6.063   4.456   3.900
 9306TIP3    H127882   6.022   4.474   3.816
 9306TIP3    H227883   6.037   4.365   3.920
 9307TIP3   OH227884   2.964   5.098   4.712
 9307TIP3    H127885   2.884   5.056   4.680
 9307TIP3    H227886   3.031   5.029   4.705
 9308TIP3   OH227887   5.591   3.679   4.502
 9308TIP3    H127888   5.575   3.684   4.596
 9308TIP3    H227889   5.685   3.693   4.493
 9309TIP3   OH227890   5.834   1.366   1.106
 9309TIP3    H127891   5.882   1.315   1.171
 9309TIP3    H227892   5.885   1.446   1.097
 9310TIP3   OH227893   4.043   2.875   5.210
 9310TIP3    H127894   4.101   2.945   5.240
 9310TIP3    H227895   3.977   2.867   5.280
 9311TIP3   OH227896   0.122   5.979   0.211
 9311TIP3    H127897   0.197   5.927   0.240
 9311TIP3    H227898   0.087   5.931   0.136
 9312TIP3   OH227899   5.651   1.824   4.983
 9312TIP3    H127900   5.644   1.819   4.887
 9312TIP3    H227901   5.562   1.841   5.012
 9313TIP3   OH227902   3.835   4.551   2.509
 9313TIP3    H127903   3.911   4.582   2.557
 9313TIP3    H227904   3.828   4.609   2.433
 9314TIP3   OH227905   1.799   4.697   0.173
 9314TIP3    H127906   1.873   4.652   0.133
 9314TIP3    H227907   1.722   4.663   0.127
 9315TIP3   OH227908   4.881   6.384   3.980
 9315TIP3    H127909   4.871   6.470   3.939
 9315TIP3    H227910   4.798   6.369   4.025
 9316TIP3   OH227911   4.662   3.699   0.120
 9316TIP3    H127912   4.650   3.791   0.098
 9316TIP3    H227913   4.729   3.699   0.189
 9317TIP3   OH227914   2.391   2.244   0.312
 9317TIP3    H127915   2.319   2.193   0.351
 9317TIP3    H227916   2.439   2.180   0.260
 9318TIP3   OH227917   3.829   4.646   3.158
 9318TIP3    H127918   3.764   4.717   3.160
 9318TIP3    H227919   3.890   4.667   3.229
 9319TIP3   OH227920   2.605   4.399   4.986
 9319TIP3    H127921   2.561   4.365   5.064
 9319TIP3    H227922   2.696   4.374   4.997
 9320TIP3   OH227923   5.670   0.402   2.612
 9320TIP3    H127924   5.631   0.320   2.642
 9320TIP3    H227925   5.664   0.461   2.687
 9321TIP3   OH227926   0.483   3.148   3.157
 9321TIP3    H127927   0.463   3.092   3.232
 9321TIP3    H227928   0.416   3.125   3.092
 9322TIP3   OH227929   4.305   5.905   4.708
 9322TIP3    H127930   4.328   5.990   4.669
 9322TIP3    H227931   4.272   5.853   4.634
 9323TIP3   OH227932   3.625   3.776   1.205
 9323TIP3    H127933   3.539   3.818   1.197
 9323TIP3    H227934   3.661   3.812   1.286
 9324TIP3   OH227935   5.650   1.094   1.061
 9324TIP3    H127936   5.706   1.026   1.023
 9324TIP3    H227937   5.693   1.176   1.040
 9325TIP3   OH227938   5.794   4.048   4.663
 9325TIP3    H127939   5.810   4.109   4.592
 9325TIP3    H227940   5.878   4.040   4.708
 9326TIP3   OH227941   5.022   2.425   0.755
 9326TIP3    H127942   4.998   2.407   0.665
 9326TIP3    H227943   4.975   2.506   0.777
 9327TIP3   OH227944   1.344   1.696   4.716
 9327TIP3    H127945   1.263   1.704   4.666
 9327TIP3    H227946   1.377   1.786   4.723
 9328TIP3   OH227947   6.356   3.555   5.553
 9328TIP3    H127948   6.439   3.602   5.559
 9328TIP3    H227949   6.355   3.500   5.632
 9329TIP3   OH227950   0.643   6.252   1.344
 9329TIP3    H127951   0.619   6.284   1.257
 9329TIP3    H227952   0.641   6.157   1.337
 9330TIP3   OH227953   3.887   2.628   1.395
 9330TIP3    H127954   3.942   2.584   1.460
 9330TIP3    H227955   3.820   2.564   1.374
 9331TIP3   OH227956   5.955   0.495   1.736
 9331TIP3    H127957   5.871   0.477   1.778
 9331TIP3    H227958   5.983   0.410   1.701
 9332TIP3   OH227959   2.191   5.759   5.632
 9332TIP3    H127960   2.118   5.765   5.694
 9332TIP3    H227961   2.159   5.804   5.554
 9333TIP3   OH227962   3.289   5.474   1.145
 9333TIP3    H127963   3.322   5.470   1.055
 9333TIP3    H227964   3.216   5.412   1.147
 9334TIP3   OH227965   1.748   0.555   4.311
 9334TIP3    H127966   1.653   0.554   4.305
 9334TIP3    H227967   1.767   0.618   4.381
 9335TIP3   OH227968   1.586   1.466   5.802
 9335TIP3    H127969   1.581   1.389   5.859
 9335TIP3    H227970   1.680   1.484   5.795
 9336TIP3   OH227971   0.553   5.576   0.233
 9336TIP3    H127972   0.568   5.489   0.271
 9336TIP3    H227973   0.552   5.561   0.138
 9337TIP3   OH227974   2.486   4.131   4.125
 9337TIP3    H127975   2.508   4.072   4.052
 9337TIP3    H227976   2.565   4.131   4.179
 9338TIP3   OH227977   2.915   0.220   3.201
 9338TIP3    H127978   2.990   0.167   3.224
 9338TIP3    H227979   2.908   0.212   3.105
 9339TIP3   OH227980   6.608   5.819   5.255
 9339TIP3    H127981   6.591   5.733   5.295
 9339TIP3    H227982   6.646   5.799   5.170
 9340TIP3   OH227983   0.123   5.373   0.435
 9340TIP3    H127984   0.161   5.414   0.512
 9340TIP3    H227985   0.052   5.432   0.409
 9341TIP3   OH227986   2.907   2.026   3.179
 9341TIP3    H127987   2.949   2.001   3.096
 9341TIP3    H227988   2.920   2.121   3.185
 9342TIP3   OH227989   0.352   2.051   0.894
 9342TIP3    H127990   0.368   2.053   0.799
 9342TIP3    H227991   0.428   2.095   0.932
 9343TIP3   OH227992   0.812   6.106   3.211
 9343TIP3    H127993   0.894   6.078   3.171
 9343TIP3    H227994   0.796   6.193   3.173
 9344TIP3   OH227995   4.367   2.240   5.071
 9344TIP3    H127996   4.283   2.216   5.110
 9344TIP3    H227997   4.395   2.319   5.118
 9345TIP3   OH227998   2.642   0.768   1.890
 9345TIP3    H127999   2.655   0.822   1.812
 9345TIP3    H228000   2.694   0.810   1.958
 9346TIP3   OH228001   2.397   3.637   2.947
 9346TIP3    H128002   2.368   3.548   2.925
 9346TIP3    H228003   2.481   3.646   2.903
 9347TIP3   OH228004   0.527   3.754   5.290
 9347TIP3    H128005   0.466   3.767   5.364
 9347TIP3    H228006   0.583   3.682   5.318
 9348TIP3   OH228007   0.520   6.510   3.994
 9348TIP3    H128008   0.473   6.593   3.991
 9348TIP3    H228009   0.602   6.527   3.948
 9349TIP3   OH228010   1.510   3.331   0.212
 9349TIP3    H128011   1.464   3.248   0.198
 9349TIP3    H228012   1.441   3.396   0.223
 9350TIP3   OH228013   2.210   0.639   2.286
 9350TIP3    H128014   2.278   0.602   2.229
 9350TIP3    H228015   2.249   0.641   2.373
 9351TIP3   OH228016   3.266   4.840   0.453
 9351TIP3    H128017   3.304   4.916   0.410
 9351TIP3    H228018   3.340   4.800   0.501
 9352TIP3   OH228019   5.514   6.009   2.655
 9352TIP3    H128020   5.475   6.036   2.572
 9352TIP3    H228021   5.507   6.086   2.711
 9353TIP3   OH228022   4.508   5.716   0.013
 9353TIP3    H128023   4.589   5.760  -0.013
 9353TIP3    H228024   4.439   5.779  -0.008
 9354TIP3   OH228025   0.843   5.089   5.843
 9354TIP3    H128026   0.869   5.034   5.769
 9354TIP3    H228027   0.756   5.057   5.867
 9355TIP3   OH228028   6.112   4.190   0.908
 9355TIP3    H128029   6.112   4.223   0.997
 9355TIP3    H228030   6.075   4.102   0.915
 9356TIP3   OH228031   4.473   0.767   5.290
 9356TIP3    H128032   4.383   0.797   5.278
 9356TIP3    H228033   4.466   0.695   5.353
 9357TIP3   OH228034   4.305   1.901   5.027
 9357TIP3    H128035   4.257   1.947   5.096
 9357TIP3    H228036   4.248   1.906   4.950
 9358TIP3   OH228037   3.610   4.302   0.364
 9358TIP3    H128038   3.551   4.260   0.302
 9358TIP3    H228039   3.572   4.285   0.450
 9359TIP3   OH228040   3.904   2.632   4.128
 9359TIP3    H128041   3.845   2.681   4.185
 9359TIP3    H228042   3.925   2.694   4.058
 9360TIP3   OH228043   4.279   0.144   4.630
 9360TIP3    H128044   4.332   0.211   4.673
 9360TIP3    H228045   4.307   0.146   4.539
 9361TIP3   OH228046   4.848   5.827   2.883
 9361TIP3    H128047   4.936   5.789   2.891
 9361TIP3    H228048   4.793   5.754   2.854
 9362TIP3   OH228049   0.118   3.138   1.809
 9362TIP3    H128050   0.165   3.220   1.791
 9362TIP3    H228051   0.183   3.069   1.792
 9363TIP3   OH228052   3.997   3.596   2.997
 9363TIP3    H128053   4.057   3.613   2.924
 9363TIP3    H228054   3.969   3.682   3.026
 9364TIP3   OH228055   3.335   5.541   5.336
 9364TIP3    H128056   3.264   5.510   5.281
 9364TIP3    H228057   3.384   5.461   5.358
 9365TIP3   OH228058   1.638   0.120   1.502
 9365TIP3    H128059   1.586   0.051   1.461
 9365TIP3    H228060   1.720   0.077   1.526
 9366TIP3   OH228061   2.740   6.602   1.901
 9366TIP3    H128062   2.808   6.667   1.920
 9366TIP3    H228063   2.778   6.518   1.928
 9367TIP3   OH228064   3.662   2.176   2.226
 9367TIP3    H128065   3.569   2.189   2.208
 9367TIP3    H228066   3.680   2.088   2.192
 9368TIP3   OH228067   4.769   3.878   5.320
 9368TIP3    H128068   4.730   3.912   5.239
 9368TIP3    H228069   4.849   3.834   5.291
 9369TIP3   OH228070   4.412   5.165   1.798
 9369TIP3    H128071   4.397   5.080   1.756
 9369TIP3    H228072   4.430   5.144   1.889
 9370TIP3   OH228073   0.862   6.020   5.593
 9370TIP3    H128074   0.861   5.927   5.612
 9370TIP3    H228075   0.866   6.063   5.679
 9371TIP3   OH228076   3.423   1.473   4.247
 9371TIP3    H128077   3.488   1.403   4.259
 9371TIP3    H228078   3.379   1.451   4.165
 9372TIP3   OH228079   6.392   4.616   0.438
 9372TIP3    H128080   6.334   4.561   0.385
 9372TIP3    H228081   6.433   4.675   0.374
 9373TIP3   OH228082   3.292   4.182   4.774
 9373TIP3    H128083   3.382   4.213   4.774
 9373TIP3    H228084   3.242   4.254   4.735
 9374TIP3   OH228085   1.827   0.919   2.869
 9374TIP3    H128086   1.848   0.826   2.872
 9374TIP3    H228087   1.844   0.950   2.958
 9375TIP3   OH228088   0.635   3.720   3.889
 9375TIP3    H128089   0.647   3.650   3.825
 9375TIP3    H228090   0.641   3.800   3.838
 9376TIP3   OH228091   1.882   4.289   2.081
 9376TIP3    H128092   1.953   4.332   2.033
 9376TIP3    H228093   1.915   4.282   2.171
 9377TIP3   OH228094   5.770   6.098   1.935
 9377TIP3    H128095   5.728   6.055   2.009
 9377TIP3    H228096   5.813   6.175   1.972
 9378TIP3   OH228097   2.426   1.135   2.759
 9378TIP3    H128098   2.452   1.085   2.837
 9378TIP3    H228099   2.506   1.139   2.706
 9379TIP3   OH228100   6.949   4.508   3.826
 9379TIP3    H128101   6.988   4.594   3.808
 9379TIP3    H228102   6.883   4.496   3.758
 9380TIP3   OH228103   5.144   1.655   5.005
 9380TIP3    H128104   5.195   1.682   4.929
 9380TIP3    H228105   5.066   1.710   5.002
 9381TIP3   OH228106   2.816   1.934   2.872
 9381TIP3    H128107   2.789   2.026   2.863
 9381TIP3    H228108   2.737   1.888   2.901
 9382TIP3   OH228109   2.985   0.997   4.778
 9382TIP3    H128110   2.968   0.919   4.831
 9382TIP3    H228111   2.923   0.993   4.706
 9383TIP3   OH228112   0.574   1.161   3.911
 9383TIP3    H128113   0.528   1.115   3.842
 9383TIP3    H228114   0.604   1.243   3.871
 9384TIP3   OH228115   2.635   5.400   2.826
 9384TIP3    H128116   2.723   5.410   2.864
 9384TIP3    H228117   2.637   5.314   2.784
 9385TIP3   OH228118   3.620   4.749   4.418
 9385TIP3    H128119   3.694   4.689   4.410
 9385TIP3    H228120   3.654   4.823   4.468
 9386TIP3   OH228121   1.851   1.451   1.981
 9386TIP3    H128122   1.813   1.538   1.974
 9386TIP3    H228123   1.942   1.466   2.007
 9387TIP3   OH228124   1.475   6.751   2.755
 9387TIP3    H128125   1.480   6.688   2.827
 9387TIP3    H228126   1.395   6.800   2.773
 9388TIP3   OH228127   1.200   1.940   1.502
 9388TIP3    H128128   1.210   2.025   1.460
 9388TIP3    H228129   1.276   1.889   1.474
 9389TIP3   OH228130   2.911   5.073   3.834
 9389TIP3    H128131   2.823   5.111   3.832
 9389TIP3    H228132   2.901   4.990   3.881
 9390TIP3   OH228133   5.816   2.210   0.590
 9390TIP3    H128134   5.743   2.247   0.542
 9390TIP3    H228135   5.792   2.220   0.682
 9391TIP3   OH228136   3.904   4.473   5.321
 9391TIP3    H128137   3.828   4.509   5.368
 9391TIP3    H228138   3.871   4.393   5.281
 9392TIP3   OH228139   6.273   2.758   4.770
 9392TIP3    H128140   6.355   2.806   4.785
 9392TIP3    H228141   6.290   2.705   4.692
 9393TIP3   OH228142   0.097   6.217   0.366
 9393TIP3    H128143   0.117   6.131   0.329
 9393TIP3    H228144   0.004   6.230   0.348
 9394TIP3   OH228145   1.249   2.880   0.583
 9394TIP3    H128146   1.194   2.834   0.519
 9394TIP3    H228147   1.275   2.813   0.645
 9395TIP3   OH228148   2.784   1.885   3.557
 9395TIP3    H128149   2.795   1.974   3.590
 9395TIP3    H228150   2.728   1.842   3.622
 9396TIP3   OH228151   1.320   1.951   4.817
 9396TIP3    H128152   1.230   1.924   4.801
 9396TIP3    H228153   1.344   2.004   4.741
 9397TIP3   OH228154   1.046   3.910   1.486
 9397TIP3    H128155   1.053   3.916   1.391
 9397TIP3    H228156   1.137   3.909   1.517
 9398TIP3   OH228157   2.535   4.660   0.956
 9398TIP3    H128158   2.538   4.581   0.902
 9398TIP3    H228159   2.593   4.641   1.030
 9399TIP3   OH228160   0.295   4.922   2.884
 9399TIP3    H128161   0.324   4.932   2.975
 9399TIP3    H228162   0.203   4.896   2.891
 9400TIP3   OH228163   6.772   4.521   5.503
 9400TIP3    H128164   6.790   4.613   5.482
 9400TIP3    H228165   6.725   4.489   5.426
 9401TIP3   OH228166   3.321   5.246   3.608
 9401TIP3    H128167   3.293   5.246   3.516
 9401TIP3    H228168   3.404   5.199   3.608
 9402TIP3   OH228169   3.822   1.164   1.807
 9402TIP3    H128170   3.842   1.179   1.899
 9402TIP3    H228171   3.873   1.230   1.760
 9403TIP3   OH228172   0.827   0.149   0.848
 9403TIP3    H128173   0.740   0.176   0.878
 9403TIP3    H228174   0.853   0.216   0.785
 9404TIP3   OH228175   6.363   0.362   3.416
 9404TIP3    H128176   6.367   0.409   3.499
 9404TIP3    H228177   6.454   0.353   3.389
 9405TIP3   OH228178   2.184   3.697   3.135
 9405TIP3    H128179   2.241   3.697   3.058
 9405TIP3    H228180   2.242   3.680   3.209
 9406TIP3   OH228181   6.388   5.359   2.405
 9406TIP3    H128182   6.428   5.331   2.322
 9406TIP3    H228183   6.294   5.363   2.386
 9407TIP3   OH228184   6.191   3.765   0.241
 9407TIP3    H128185   6.281   3.768   0.273
 9407TIP3    H228186   6.153   3.847   0.272
 9408TIP3   OH228187   0.788   4.612   5.018
 9408TIP3    H128188   0.715   4.558   5.050
 9408TIP3    H228189   0.849   4.549   4.980
 9409TIP3   OH228190   0.744   4.839   0.094
 9409TIP3    H128191   0.811   4.881   0.039
 9409TIP3    H228192   0.702   4.911   0.141
 9410TIP3   OH228193   1.402   6.736   3.115
 9410TIP3    H128194   1.340   6.687   3.061
 9410TIP3    H228195   1.472   6.673   3.133
 9411TIP3   OH228196   1.362   4.976   1.449
 9411TIP3    H128197   1.355   4.880   1.443
 9411TIP3    H228198   1.331   4.996   1.538
 9412TIP3   OH228199   1.002   4.799   4.472
 9412TIP3    H128200   1.049   4.728   4.428
 9412TIP3    H228201   0.929   4.756   4.516
 9413TIP3   OH228202   1.302   1.890   4.030
 9413TIP3    H128203   1.312   1.922   4.120
 9413TIP3    H228204   1.328   1.798   4.035
 9414TIP3   OH228205   4.957   1.476   5.107
 9414TIP3    H128206   4.897   1.456   5.035
 9414TIP3    H228207   5.032   1.519   5.064
 9415TIP3   OH228208   5.362   2.912   1.387
 9415TIP3    H128209   5.360   2.946   1.298
 9415TIP3    H228210   5.330   2.822   1.380
 9416TIP3   OH228211   1.243   1.306   3.675
 9416TIP3    H128212   1.327   1.280   3.639
 9416TIP3    H228213   1.180   1.283   3.606
 9417TIP3   OH228214   3.240   1.146   1.873
 9417TIP3    H128215   3.330   1.114   1.875
 9417TIP3    H228216   3.247   1.235   1.840
 9418TIP3   OH228217   3.886   5.467   1.006
 9418TIP3    H128218   3.801   5.486   1.046
 9418TIP3    H228219   3.908   5.379   1.035
 9419TIP3   OH228220   0.035   2.368   0.920
 9419TIP3    H128221   0.044   2.277   0.891
 9419TIP3    H228222  -0.053   2.393   0.891
 9420TIP3   OH228223   0.740   0.213   1.465
 9420TIP3    H128224   0.761   0.246   1.378
 9420TIP3    H228225   0.702   0.126   1.450
 9421TIP3   OH228226   6.605   0.636   5.471
 9421TIP3    H128227   6.590   0.669   5.560
 9421TIP3    H228228   6.689   0.673   5.446
 9422TIP3   OH228229   1.025   1.601   1.370
 9422TIP3    H128230   0.936   1.601   1.337
 9422TIP3    H228231   1.015   1.597   1.465
 9423TIP3   OH228232   3.695   4.399   4.605
 9423TIP3    H128233   3.609   4.414   4.645
 9423TIP3    H228234   3.699   4.304   4.592
 9424TIP3   OH228235   6.872   1.606   2.831
 9424TIP3    H128236   6.953   1.579   2.787
 9424TIP3    H228237   6.902   1.644   2.914
 9425TIP3   OH228238   0.331   5.023   4.397
 9425TIP3    H128239   0.260   4.978   4.442
 9425TIP3    H228240   0.331   4.986   4.309
 9426TIP3   OH228241   5.691   5.588   5.530
 9426TIP3    H128242   5.708   5.642   5.453
 9426TIP3    H228243   5.596   5.591   5.541
 9427TIP3   OH228244   5.672   5.162   2.518
 9427TIP3    H128245   5.590   5.207   2.538
 9427TIP3    H228246   5.718   5.221   2.458
 9428TIP3   OH228247   1.174   1.120   3.184
 9428TIP3    H128248   1.189   1.128   3.089
 9428TIP3    H228249   1.202   1.204   3.219
 9429TIP3   OH228250   2.911   6.092   2.566
 9429TIP3    H128251   2.859   6.152   2.619
 9429TIP3    H228252   2.996   6.089   2.609
 9430TIP3   OH228253   3.870   6.561   3.850
 9430TIP3    H128254   3.787   6.594   3.815
 9430TIP3    H228255   3.865   6.466   3.839
 9431TIP3   OH228256   6.928   5.465   5.469
 9431TIP3    H128257   6.880   5.397   5.422
 9431TIP3    H228258   6.990   5.418   5.524
 9432TIP3   OH228259   3.349   2.219   0.928
 9432TIP3    H128260   3.280   2.154   0.926
 9432TIP3    H228261   3.379   2.226   0.837
 9433TIP3   OH228262   5.297   3.859   4.166
 9433TIP3    H128263   5.328   3.773   4.193
 9433TIP3    H228264   5.204   3.848   4.151
 9434TIP3   OH228265   2.721   5.779   3.549
 9434TIP3    H128266   2.771   5.854   3.517
 9434TIP3    H228267   2.777   5.738   3.614
 9435TIP3   OH228268   5.197   6.551   3.263
 9435TIP3    H128269   5.203   6.465   3.305
 9435TIP3    H228270   5.106   6.577   3.272
 9436TIP3   OH228271   2.763   0.517   1.992
 9436TIP3    H128272   2.797   0.552   2.073
 9436TIP3    H228273   2.720   0.591   1.949
 9437TIP3   OH228274   5.114   6.319   1.748
 9437TIP3    H128275   5.090   6.372   1.824
 9437TIP3    H228276   5.112   6.381   1.674
 9438TIP3   OH228277   6.155   1.697   3.615
 9438TIP3    H128278   6.112   1.626   3.663
 9438TIP3    H228279   6.094   1.770   3.620
 9439TIP3   OH228280   4.373   0.858   2.192
 9439TIP3    H128281   4.366   0.942   2.236
 9439TIP3    H228282   4.390   0.881   2.100
 9440TIP3   OH228283   4.692   5.470   0.221
 9440TIP3    H128284   4.726   5.411   0.289
 9440TIP3    H228285   4.704   5.558   0.257
 9441TIP3   OH228286   1.150   5.433   2.363
 9441TIP3    H128287   1.163   5.503   2.300
 9441TIP3    H228288   1.060   5.445   2.394
 9442TIP3   OH228289   1.629   3.452   5.794
 9442TIP3    H128290   1.675   3.531   5.765
 9442TIP3    H228291   1.544   3.485   5.823
 9443TIP3   OH228292   2.530   5.986   0.144
 9443TIP3    H128293   2.460   6.039   0.183
 9443TIP3    H228294   2.486   5.931   0.079
 9444TIP3   OH228295   7.182   0.533   0.301
 9444TIP3    H128296   7.263   0.565   0.340
 9444TIP3    H228297   7.122   0.608   0.305
 9445TIP3   OH228298   5.147   4.865   3.649
 9445TIP3    H128299   5.243   4.865   3.654
 9445TIP3    H228300   5.119   4.805   3.718
 9446TIP3   OH228301   6.196   2.003   3.567
 9446TIP3    H128302   6.201   2.075   3.505
 9446TIP3    H228303   6.283   1.964   3.566
 9447TIP3   OH228304   0.646   5.918   1.683
 9447TIP3    H128305   0.592   5.882   1.754
 9447TIP3    H228306   0.600   5.895   1.603
 9448TIP3   OH228307   2.726   4.661   5.390
 9448TIP3    H128308   2.669   4.647   5.465
 9448TIP3    H228309   2.757   4.573   5.367
 9449TIP3   OH228310   3.563   1.729   5.364
 9449TIP3    H128311   3.648   1.751   5.401
 9449TIP3    H228312   3.560   1.634   5.365
 9450TIP3   OH228313   3.228   3.335  -0.008
 9450TIP3    H128314   3.191   3.248  -0.025
 9450TIP3    H228315   3.315   3.318   0.027
 9451TIP3   OH228316   5.908   2.995   2.482
 9451TIP3    H128317   5.868   2.908   2.468
 9451TIP3    H228318   5.839   3.057   2.458
 9452TIP3   OH228319   3.775   2.863   3.754
 9452TIP3    H128320   3.824   2.864   3.836
 9452TIP3    H228321   3.761   2.956   3.734
 9453TIP3   OH228322   6.055   2.683   3.650
 9453TIP3    H128323   6.062   2.679   3.745
 9453TIP3    H228324   6.101   2.606   3.618
 9454TIP3   OH228325   5.169   1.747   0.220
 9454TIP3    H128326   5.263   1.742   0.240
 9454TIP3    H228327   5.166   1.774   0.129
 9455TIP3   OH228328   2.515   4.420   0.572
 9455TIP3    H128329   2.492   4.434   0.480
 9455TIP3    H228330   2.445   4.461   0.622
 9456TIP3   OH228331   1.665   0.490   2.401
 9456TIP3    H128332   1.577   0.458   2.379
 9456TIP3    H228333   1.702   0.423   2.458
 9457TIP3   OH228334   0.548   2.400   1.058
 9457TIP3    H128335   0.642   2.416   1.058
 9457TIP3    H228336   0.510   2.481   1.022
 9458TIP3   OH228337   2.188   2.581   3.447
 9458TIP3    H128338   2.115   2.520   3.458
 9458TIP3    H228339   2.153   2.665   3.478
 9459TIP3   OH228340   3.771   4.684   5.764
 9459TIP3    H128341   3.801   4.607   5.812
 9459TIP3    H228342   3.767   4.754   5.829
 9460TIP3   OH228343   6.926   0.348   0.006
 9460TIP3    H128344   6.883   0.409   0.066
 9460TIP3    H228345   7.009   0.328   0.049
 9461TIP3   OH228346   5.722   5.059   1.828
 9461TIP3    H128347   5.778   4.983   1.844
 9461TIP3    H228348   5.757   5.097   1.747
 9462TIP3   OH228349   4.614   4.362   1.760
 9462TIP3    H128350   4.562   4.282   1.749
 9462TIP3    H228351   4.559   4.431   1.723
 9463TIP3   OH228352   3.264   3.149   5.722
 9463TIP3    H128353   3.283   3.084   5.654
 9463TIP3    H228354   3.177   3.125   5.754
 9464TIP3   OH228355   3.249   0.893   4.695
 9464TIP3    H128356   3.206   0.877   4.611
 9464TIP3    H228357   3.177   0.907   4.757
 9465TIP3   OH228358   0.452   1.679   2.789
 9465TIP3    H128359   0.405   1.711   2.866
 9465TIP3    H228360   0.474   1.757   2.739
 9466TIP3   OH228361   2.349   6.682   3.447
 9466TIP3    H128362   2.403   6.760   3.460
 9466TIP3    H228363   2.273   6.714   3.399
 9467TIP3   OH228364   2.583   0.379   3.202
 9467TIP3    H128365   2.512   0.317   3.217
 9467TIP3    H228366   2.540   0.461   3.177
 9468TIP3   OH228367   3.234   3.569   3.587
 9468TIP3    H128368   3.256   3.583   3.495
 9468TIP3    H228369   3.190   3.485   3.589
 9469TIP3   OH228370   7.163   6.821   0.779
 9469TIP3    H128371   7.180   6.908   0.816
 9469TIP3    H228372   7.249   6.789   0.753
 9470TIP3   OH228373   4.485   6.121   4.691
 9470TIP3    H128374   4.575   6.089   4.682
 9470TIP3    H228375   4.469   6.169   4.611
 9471TIP3   OH228376   0.822   0.165   4.084
 9471TIP3    H128377   0.731   0.188   4.102
 9471TIP3    H228378   0.863   0.159   4.170
 9472TIP3   OH228379   3.983   0.627   1.179
 9472TIP3    H128380   3.929   0.566   1.229
 9472TIP3    H228381   3.981   0.708   1.230
 9473TIP3   OH228382   0.774   3.573   3.154
 9473TIP3    H128383   0.749   3.480   3.152
 9473TIP3    H228384   0.778   3.598   3.061
 9474TIP3   OH228385   3.736   4.905   1.916
 9474TIP3    H128386   3.664   4.956   1.878
 9474TIP3    H228387   3.815   4.956   1.893
 9475TIP3   OH228388   6.672   3.600   5.171
 9475TIP3    H128389   6.743   3.664   5.170
 9475TIP3    H228390   6.594   3.651   5.189
 9476TIP3   OH228391   3.265   6.405   1.541
 9476TIP3    H128392   3.225   6.319   1.530
 9476TIP3    H228393   3.207   6.452   1.601
 9477TIP3   OH228394   4.154   1.416   0.716
 9477TIP3    H128395   4.162   1.511   0.725
 9477TIP3    H228396   4.175   1.399   0.624
 9478TIP3   OH228397   1.018   5.600   0.850
 9478TIP3    H128398   1.065   5.537   0.795
 9478TIP3    H228399   0.931   5.606   0.811
 9479TIP3   OH228400   4.680   0.122   1.729
 9479TIP3    H128401   4.675   0.208   1.688
 9479TIP3    H228402   4.763   0.122   1.775
 9480TIP3   OH228403   2.002   5.722   2.380
 9480TIP3    H128404   2.021   5.759   2.466
 9480TIP3    H228405   2.039   5.785   2.318
 9481TIP3   OH228406   6.043   6.574   4.242
 9481TIP3    H128407   6.070   6.630   4.315
 9481TIP3    H228408   5.990   6.506   4.282
 9482TIP3   OH228409   7.084   5.198   5.185
 9482TIP3    H128410   7.059   5.199   5.093
 9482TIP3    H228411   7.076   5.106   5.212
 9483TIP3   OH228412   2.650   6.411   4.083
 9483TIP3    H128413   2.611   6.344   4.140
 9483TIP3    H228414   2.655   6.370   3.997
 9484TIP3   OH228415   7.181   4.266   1.387
 9484TIP3    H128416   7.141   4.254   1.301
 9484TIP3    H228417   7.269   4.228   1.378
 9485TIP3   OH228418   3.394   4.800   0.173
 9485TIP3    H128419   3.383   4.857   0.249
 9485TIP3    H228420   3.377   4.856   0.098
 9486TIP3   OH228421   6.275   3.477   4.663
 9486TIP3    H128422   6.244   3.563   4.692
 9486TIP3    H228423   6.290   3.488   4.569
 9487TIP3   OH228424   0.280   1.966   4.303
 9487TIP3    H128425   0.353   1.992   4.359
 9487TIP3    H228426   0.273   2.036   4.238
 9488TIP3   OH228427   2.318   5.218   1.438
 9488TIP3    H128428   2.228   5.197   1.462
 9488TIP3    H228429   2.312   5.252   1.349
 9489TIP3   OH228430   3.806   1.747   0.412
 9489TIP3    H128431   3.755   1.704   0.480
 9489TIP3    H228432   3.753   1.822   0.386
 9490TIP3   OH228433   6.067   3.477   0.340
 9490TIP3    H128434   6.113   3.536   0.280
 9490TIP3    H228435   6.073   3.520   0.426
 9491TIP3   OH228436   4.345   0.761   4.500
 9491TIP3    H128437   4.355   0.679   4.452
 9491TIP3    H228438   4.251   0.766   4.521
 9492TIP3   OH228439   2.720   1.199   5.411
 9492TIP3    H128440   2.793   1.157   5.366
 9492TIP3    H228441   2.663   1.230   5.340
 9493TIP3   OH228442   1.713   0.888   0.457
 9493TIP3    H128443   1.741   0.935   0.379
 9493TIP3    H228444   1.686   0.801   0.426
 9494TIP3   OH228445   1.846   2.309   5.138
 9494TIP3    H128446   1.778   2.366   5.172
 9494TIP3    H228447   1.839   2.229   5.190
 9495TIP3   OH228448   5.677   2.953   1.122
 9495TIP3    H128449   5.729   2.959   1.042
 9495TIP3    H228450   5.635   3.038   1.130
 9496TIP3   OH228451   3.278   6.129   1.795
 9496TIP3    H128452   3.365   6.089   1.786
 9496TIP3    H228453   3.289   6.194   1.864
 9497TIP3   OH228454   0.365   2.815   1.223
 9497TIP3    H128455   0.388   2.899   1.262
 9497TIP3    H228456   0.323   2.767   1.294
 9498TIP3   OH228457   5.183   2.210   0.076
 9498TIP3    H128458   5.226   2.286   0.116
 9498TIP3    H228459   5.236   2.190   0.000
 9499TIP3   OH228460   1.231   4.770   3.782
 9499TIP3    H128461   1.210   4.693   3.835
 9499TIP3    H228462   1.292   4.820   3.836
 9500TIP3   OH228463   0.715   6.206   5.066
 9500TIP3    H128464   0.629   6.203   5.108
 9500TIP3    H228465   0.747   6.295   5.082
 9501TIP3   OH228466   6.447   2.370   4.360
 9501TIP3    H128467   6.362   2.404   4.332
 9501TIP3    H228468   6.511   2.411   4.302
 9502TIP3   OH228469   2.897   0.612   2.814
 9502TIP3    H128470   2.830   0.604   2.882
 9502TIP3    H228471   2.973   0.566   2.849
 9503TIP3   OH228472   2.821   2.062   1.428
 9503TIP3    H128473   2.780   2.050   1.513
 9503TIP3    H228474   2.823   2.157   1.415
 9504TIP3   OH228475   2.244   3.399   0.524
 9504TIP3    H128476   2.166   3.404   0.469
 9504TIP3    H228477   2.229   3.465   0.592
 9505TIP3   OH228478   0.883   5.693   1.514
 9505TIP3    H128479   0.935   5.659   1.586
 9505TIP3    H228480   0.801   5.721   1.554
 9506TIP3   OH228481   6.969   1.287   5.303
 9506TIP3    H128482   7.044   1.260   5.249
 9506TIP3    H228483   6.930   1.205   5.333
 9507TIP3   OH228484   5.148   4.715   5.718
 9507TIP3    H128485   5.153   4.682   5.808
 9507TIP3    H228486   5.226   4.771   5.709
 9508TIP3   OH228487   1.751   0.320   4.160
 9508TIP3    H128488   1.713   0.304   4.074
 9508TIP3    H228489   1.682   0.296   4.223
 9509TIP3   OH228490   0.104   2.163   1.388
 9509TIP3    H128491   0.157   2.084   1.402
 9509TIP3    H228492   0.141   2.228   1.448
 9510TIP3   OH228493   1.071   1.534   3.068
 9510TIP3    H128494   1.162   1.543   3.041
 9510TIP3    H228495   1.036   1.624   3.064
 9511TIP3   OH228496   4.201   1.367   0.207
 9511TIP3    H128497   4.120   1.408   0.240
 9511TIP3    H228498   4.253   1.440   0.173
 9512TIP3   OH228499   0.874   2.548   1.705
 9512TIP3    H128500   0.802   2.580   1.650
 9512TIP3    H228501   0.934   2.622   1.711
 9513TIP3   OH228502   6.190   4.653   2.688
 9513TIP3    H128503   6.126   4.620   2.751
 9513TIP3    H228504   6.274   4.648   2.734
 9514TIP3   OH228505   0.698   0.480   0.462
 9514TIP3    H128506   0.763   0.541   0.428
 9514TIP3    H228507   0.614   0.517   0.433
 9515TIP3   OH228508   0.568   1.659   0.147
 9515TIP3    H128509   0.650   1.621   0.178
 9515TIP3    H228510   0.595   1.721   0.079
 9516TIP3   OH228511   5.580   2.061   1.883
 9516TIP3    H128512   5.507   2.065   1.822
 9516TIP3    H228513   5.632   1.985   1.854
 9517TIP3   OH228514   5.543   4.242   1.203
 9517TIP3    H128515   5.527   4.241   1.108
 9517TIP3    H228516   5.561   4.151   1.225
 9518TIP3   OH228517   6.810   5.915   3.403
 9518TIP3    H128518   6.803   5.821   3.421
 9518TIP3    H228519   6.870   5.947   3.470
 9519TIP3   OH228520   4.954   2.027   1.364
 9519TIP3    H128521   4.997   2.020   1.279
 9519TIP3    H228522   5.024   2.013   1.428
 9520TIP3   OH228523   3.341   4.039   5.678
 9520TIP3    H128524   3.377   3.953   5.655
 9520TIP3    H228525   3.332   4.037   5.773
 9521TIP3   OH228526   6.221   4.969   0.361
 9521TIP3    H128527   6.302   4.995   0.404
 9521TIP3    H228528   6.215   5.026   0.284
 9522TIP3   OH228529   0.644   1.546   4.976
 9522TIP3    H128530   0.705   1.473   4.968
 9522TIP3    H228531   0.560   1.505   5.000
 9523TIP3   OH228532   2.390   1.410   2.022
 9523TIP3    H128533   2.479   1.446   2.028
 9523TIP3    H228534   2.402   1.325   1.978
 9524TIP3   OH228535   4.392   5.834   1.467
 9524TIP3    H128536   4.370   5.872   1.552
 9524TIP3    H228537   4.483   5.805   1.476
 9525TIP3   OH228538   1.909   2.958   0.741
 9525TIP3    H128539   1.918   2.996   0.828
 9525TIP3    H228540   1.926   3.030   0.681
 9526TIP3   OH228541   6.063   6.727   4.483
 9526TIP3    H128542   6.028   6.653   4.531
 9526TIP3    H228543   6.082   6.793   4.550
 9527TIP3   OH228544   1.829   0.325   0.062
 9527TIP3    H128545   1.895   0.258   0.084
 9527TIP3    H228546   1.764   0.319   0.132
 9528TIP3   OH228547   4.982   3.653   1.663
 9528TIP3    H128548   4.958   3.734   1.709
 9528TIP3    H228549   4.939   3.660   1.578
 9529TIP3   OH228550   0.212   1.798   0.909
 9529TIP3    H128551   0.234   1.716   0.863
 9529TIP3    H228552   0.285   1.857   0.889
 9530TIP3   OH228553   2.274   6.110   3.708
 9530TIP3    H128554   2.297   6.160   3.630
 9530TIP3    H228555   2.319   6.026   3.697
 9531TIP3   OH228556   2.324   5.545   3.962
 9531TIP3    H128557   2.399   5.502   3.920
 9531TIP3    H228558   2.248   5.513   3.914
 9532TIP3   OH228559   6.241   4.971   1.401
 9532TIP3    H128560   6.186   4.923   1.339
 9532TIP3    H228561   6.327   4.930   1.392
 9533TIP3   OH228562   4.421   5.571   4.103
 9533TIP3    H128563   4.479   5.528   4.166
 9533TIP3    H228564   4.459   5.550   4.017
 9534TIP3   OH228565   3.382   5.900   2.882
 9534TIP3    H128566   3.378   5.881   2.976
 9534TIP3    H228567   3.375   5.995   2.877
 9535TIP3   OH228568   3.996   3.495   4.675
 9535TIP3    H128569   4.052   3.468   4.748
 9535TIP3    H228570   4.040   3.573   4.640
 9536TIP3   OH228571   3.417   2.013   5.078
 9536TIP3    H128572   3.475   1.939   5.059
 9536TIP3    H228573   3.464   2.064   5.144
 9537TIP3   OH228574   0.376   3.530   4.507
 9537TIP3    H128575   0.468   3.555   4.495
 9537TIP3    H228576   0.364   3.531   4.602
 9538TIP3   OH228577   2.001   2.741   2.228
 9538TIP3    H128578   2.008   2.716   2.320
 9538TIP3    H228579   1.907   2.743   2.210
 9539TIP3   OH228580   4.491   5.439   1.795
 9539TIP3    H128581   4.481   5.353   1.754
 9539TIP3    H228582   4.499   5.420   1.889
 9540TIP3   OH228583   1.067   6.039   3.138
 9540TIP3    H128584   1.121   6.095   3.195
 9540TIP3    H228585   1.080   5.951   3.173
 9541TIP3   OH228586   2.829   1.856   2.298
 9541TIP3    H128587   2.871   1.859   2.383
 9541TIP3    H228588   2.754   1.915   2.305
 9542TIP3   OH228589   5.009   5.730   4.270
 9542TIP3    H128590   4.929   5.752   4.317
 9542TIP3    H228591   5.012   5.635   4.272
 9543TIP3   OH228592   3.600   4.122   3.040
 9543TIP3    H128593   3.683   4.164   3.062
 9543TIP3    H228594   3.534   4.178   3.079
 9544TIP3   OH228595   1.891   4.208   5.786
 9544TIP3    H128596   1.927   4.257   5.859
 9544TIP3    H228597   1.820   4.264   5.752
 9545TIP3   OH228598   5.414   4.988   3.762
 9545TIP3    H128599   5.328   4.970   3.799
 9545TIP3    H228600   5.437   5.074   3.796
 9546TIP3   OH228601   5.689   1.894   4.708
 9546TIP3    H128602   5.751   1.830   4.742
 9546TIP3    H228603   5.738   1.942   4.641
 9547TIP3   OH228604   6.974   6.131   1.689
 9547TIP3    H128605   7.053   6.105   1.641
 9547TIP3    H228606   6.954   6.055   1.744
 9548TIP3   OH228607   4.090   3.984   5.210
 9548TIP3    H128608   4.132   3.914   5.161
 9548TIP3    H228609   4.055   4.043   5.143
 9549TIP3   OH228610   6.791   4.924   3.195
 9549TIP3    H128611   6.791   4.893   3.286
 9549TIP3    H228612   6.713   4.980   3.189
 9550TIP3   OH228613   3.981   0.459   4.263
 9550TIP3    H128614   4.011   0.416   4.183
 9550TIP3    H228615   3.892   0.427   4.275
 9551TIP3   OH228616   3.486   1.395   4.799
 9551TIP3    H128617   3.459   1.388   4.707
 9551TIP3    H228618   3.567   1.343   4.804
 9552TIP3   OH228619   3.093   0.751   4.122
 9552TIP3    H128620   3.006   0.711   4.113
 9552TIP3    H228621   3.134   0.737   4.037
 9553TIP3   OH228622   2.630   6.400   5.424
 9553TIP3    H128623   2.711   6.383   5.376
 9553TIP3    H228624   2.579   6.457   5.367
 9554TIP3   OH228625   6.969   1.943   2.823
 9554TIP3    H128626   6.939   1.928   2.913
 9554TIP3    H228627   6.893   1.920   2.769
 9555TIP3   OH228628   6.423   1.213   0.839
 9555TIP3    H128629   6.480   1.167   0.777
 9555TIP3    H228630   6.396   1.146   0.902
 9556TIP3   OH228631   2.030   5.294   5.424
 9556TIP3    H128632   2.047   5.200   5.425
 9556TIP3    H228633   2.005   5.312   5.333
 9557TIP3   OH228634   0.173   4.098   1.931
 9557TIP3    H128635   0.086   4.073   1.962
 9557TIP3    H228636   0.233   4.058   1.994
 9558TIP3   OH228637   3.365   3.047   1.052
 9558TIP3    H128638   3.418   3.071   1.127
 9558TIP3    H228639   3.394   3.106   0.982
 9559TIP3   OH228640   2.058   5.936   1.136
 9559TIP3    H128641   2.151   5.959   1.130
 9559TIP3    H228642   2.048   5.899   1.224
 9560TIP3   OH228643   5.141   0.332   1.956
 9560TIP3    H128644   5.146   0.265   1.887
 9560TIP3    H228645   5.219   0.386   1.943
 9561TIP3   OH228646   6.682   4.741   2.637
 9561TIP3    H128647   6.728   4.657   2.638
 9561TIP3    H228648   6.641   4.747   2.723
 9562TIP3   OH228649   2.546   3.064   0.257
 9562TIP3    H128650   2.521   2.979   0.294
 9562TIP3    H228651   2.511   3.129   0.319
 9563TIP3   OH228652   5.930   4.506   3.655
 9563TIP3    H128653   5.901   4.597   3.652
 9563TIP3    H228654   5.901   4.469   3.571
 9564TIP3   OH228655   7.196   2.361   5.496
 9564TIP3    H128656   7.198   2.434   5.434
 9564TIP3    H228657   7.218   2.284   5.443
 9565TIP3   OH228658   4.446   0.600   4.727
 9565TIP3    H128659   4.427   0.667   4.661
 9565TIP3    H228660   4.442   0.647   4.810
 9566TIP3   OH228661   2.829   4.005   5.423
 9566TIP3    H128662   2.912   3.957   5.430
 9566TIP3    H228663   2.772   3.963   5.488
 9567TIP3   OH228664   3.416   3.364   1.682
 9567TIP3    H128665   3.456   3.308   1.749
 9567TIP3    H228666   3.410   3.307   1.605
 9568TIP3   OH228667   2.105   3.788   0.590
 9568TIP3    H128668   2.101   3.856   0.657
 9568TIP3    H228669   2.148   3.714   0.633
 9569TIP3   OH228670   0.423   2.689   2.920
 9569TIP3    H128671   0.410   2.640   3.001
 9569TIP3    H228672   0.355   2.756   2.921
 9570TIP3   OH228673   1.609   4.580   4.882
 9570TIP3    H128674   1.570   4.666   4.898
 9570TIP3    H228675   1.555   4.520   4.933
 9571TIP3   OH228676   6.593   3.895   2.958
 9571TIP3    H128677   6.676   3.943   2.965
 9571TIP3    H228678   6.536   3.938   3.022
 9572TIP3   OH228679   3.504   2.803   3.214
 9572TIP3    H128680   3.526   2.786   3.122
 9572TIP3    H228681   3.409   2.796   3.217
 9573TIP3   OH228682   4.174   4.075   0.408
 9573TIP3    H128683   4.160   4.169   0.415
 9573TIP3    H228684   4.095   4.036   0.445
 9574TIP3   OH228685   2.724   6.244   1.260
 9574TIP3    H128686   2.664   6.175   1.231
 9574TIP3    H228687   2.804   6.197   1.284
 9575TIP3   OH228688   1.240   3.688  -0.013
 9575TIP3    H128689   1.235   3.593   0.003
 9575TIP3    H228690   1.243   3.726   0.075
 9576TIP3   OH228691   4.182   6.066   1.203
 9576TIP3    H128692   4.115   6.046   1.269
 9576TIP3    H228693   4.132   6.084   1.124
 9577TIP3   OH228694   1.933   5.941   2.059
 9577TIP3    H128695   1.868   5.996   2.016
 9577TIP3    H228696   2.017   5.977   2.032
 9578TIP3   OH228697   6.168   1.419   3.189
 9578TIP3    H128698   6.110   1.420   3.265
 9578TIP3    H228699   6.198   1.510   3.181
 9579TIP3   OH228700   6.779   4.835   5.060
 9579TIP3    H128701   6.698   4.835   5.008
 9579TIP3    H228702   6.843   4.792   5.004
 9580TIP3   OH228703   1.566   0.413   5.604
 9580TIP3    H128704   1.577   0.389   5.512
 9580TIP3    H228705   1.590   0.335   5.653
 9581TIP3   OH228706   4.720   2.105   3.096
 9581TIP3    H128707   4.715   2.088   3.002
 9581TIP3    H228708   4.646   2.164   3.114
 9582TIP3   OH228709   5.454   0.631   0.666
 9582TIP3    H128710   5.422   0.688   0.596
 9582TIP3    H228711   5.460   0.544   0.626
 9583TIP3   OH228712   1.489   1.504   3.901
 9583TIP3    H128713   1.495   1.417   3.940
 9583TIP3    H228714   1.466   1.561   3.974
 9584TIP3   OH228715   2.100   1.821   5.098
 9584TIP3    H128716   2.082   1.738   5.143
 9584TIP3    H228717   2.152   1.796   5.022
 9585TIP3   OH228718   3.786   6.652   3.240
 9585TIP3    H128719   3.766   6.728   3.185
 9585TIP3    H228720   3.808   6.689   3.325
 9586TIP3   OH228721   1.567   6.120   5.342
 9586TIP3    H128722   1.587   6.089   5.431
 9586TIP3    H228723   1.651   6.115   5.296
 9587TIP3   OH228724   3.824   2.751   5.424
 9587TIP3    H128725   3.755   2.805   5.385
 9587TIP3    H228726   3.836   2.786   5.512
 9588TIP3   OH228727   7.218   1.414   0.079
 9588TIP3    H128728   7.162   1.480   0.121
 9588TIP3    H228729   7.235   1.449  -0.008
 9589TIP3   OH228730   0.420   5.022   5.132
 9589TIP3    H128731   0.497   5.029   5.188
 9589TIP3    H228732   0.447   4.965   5.060
 9590TIP3   OH228733   4.459   3.375   3.609
 9590TIP3    H128734   4.531   3.425   3.648
 9590TIP3    H228735   4.502   3.301   3.566
 9591TIP3   OH228736   5.679   3.346   1.358
 9591TIP3    H128737   5.766   3.377   1.334
 9591TIP3    H228738   5.646   3.412   1.420
 9592TIP3   OH228739   0.277   4.443   5.199
 9592TIP3    H128740   0.181   4.446   5.201
 9592TIP3    H228741   0.297   4.376   5.133
 9593TIP3   OH228742   1.360   3.388   3.804
 9593TIP3    H128743   1.409   3.334   3.743
 9593TIP3    H228744   1.295   3.433   3.750
 9594TIP3   OH228745   4.345   4.617   3.067
 9594TIP3    H128746   4.300   4.533   3.072
 9594TIP3    H228747   4.433   4.599   3.103
 9595TIP3   OH228748   4.759   5.795   1.154
 9595TIP3    H128749   4.747   5.884   1.188
 9595TIP3    H228750   4.823   5.805   1.083
 9596TIP3   OH228751   1.174   5.426   0.686
 9596TIP3    H128752   1.231   5.423   0.609
 9596TIP3    H228753   1.200   5.351   0.739
 9597TIP3   OH228754   6.587   6.493   5.114
 9597TIP3    H128755   6.654   6.467   5.177
 9597TIP3    H228756   6.594   6.428   5.044
 9598TIP3   OH228757   6.998   0.731   3.055
 9598TIP3    H128758   7.060   0.659   3.056
 9598TIP3    H228759   7.052   0.810   3.056
 9599TIP3   OH228760   6.326   1.757   4.923
 9599TIP3    H128761   6.354   1.687   4.865
 9599TIP3    H228762   6.334   1.837   4.870
 9600TIP3   OH228763   0.264   3.676   2.338
 9600TIP3    H128764   0.237   3.596   2.383
 9600TIP3    H228765   0.285   3.647   2.249
 9601TIP3   OH228766   4.654   0.798   2.337
 9601TIP3    H128767   4.639   0.751   2.256
 9601TIP3    H228768   4.628   0.888   2.318
 9602TIP3   OH228769   6.593   6.770   5.766
 9602TIP3    H128770   6.550   6.720   5.835
 9602TIP3    H228771   6.562   6.860   5.779
 9603TIP3   OH228772   3.885   1.888   2.808
 9603TIP3    H128773   3.846   1.962   2.855
 9603TIP3    H228774   3.827   1.815   2.826
 9604TIP3   OH228775   4.116   5.670   3.426
 9604TIP3    H128776   4.097   5.716   3.508
 9604TIP3    H228777   4.142   5.582   3.454
 9605TIP3   OH228778   4.765   1.699   2.789
 9605TIP3    H128779   4.690   1.646   2.817
 9605TIP3    H228780   4.764   1.693   2.693
 9606TIP3   OH228781   6.600   1.537   2.928
 9606TIP3    H128782   6.693   1.548   2.906
 9606TIP3    H228783   6.581   1.608   2.989
 9607TIP3   OH228784   6.905   1.468   0.784
 9607TIP3    H128785   6.951   1.528   0.725
 9607TIP3    H228786   6.812   1.490   0.773
 9608TIP3   OH228787   2.260   0.216   5.311
 9608TIP3    H128788   2.199   0.196   5.241
 9608TIP3    H228789   2.344   0.227   5.268
 9609TIP3   OH228790   2.217   2.835   5.789
 9609TIP3    H128791   2.215   2.923   5.828
 9609TIP3    H228792   2.264   2.782   5.852
 9610TIP3   OH228793   2.419   3.241   2.657
 9610TIP3    H128794   2.460   3.172   2.606
 9610TIP3    H228795   2.325   3.225   2.648
 9611TIP3   OH228796   4.058   6.500   0.295
 9611TIP3    H128797   4.072   6.551   0.215
 9611TIP3    H228798   4.146   6.480   0.327
 9612TIP3   OH228799   6.051   1.461   4.791
 9612TIP3    H128800   5.976   1.482   4.847
 9612TIP3    H228801   6.015   1.402   4.725
 9613TIP3   OH228802   1.109   3.965   5.006
 9613TIP3    H128803   1.203   3.953   4.991
 9613TIP3    H228804   1.074   3.876   5.010
 9614TIP3   OH228805   4.170   1.220   3.890
 9614TIP3    H128806   4.095   1.255   3.841
 9614TIP3    H228807   4.131   1.152   3.945
 9615TIP3   OH228808   0.369   6.133   4.296
 9615TIP3    H128809   0.463   6.122   4.312
 9615TIP3    H228810   0.365   6.190   4.219
 9616TIP3   OH228811   5.299   4.968   2.486
 9616TIP3    H128812   5.332   5.006   2.568
 9616TIP3    H228813   5.363   4.993   2.420
 9617TIP3   OH228814   3.370   5.986   4.751
 9617TIP3    H128815   3.324   5.919   4.700
 9617TIP3    H228816   3.371   6.063   4.693
 9618TIP3   OH228817   0.856   5.753   5.668
 9618TIP3    H128818   0.808   5.719   5.593
 9618TIP3    H228819   0.936   5.701   5.672
 9619TIP3   OH228820   3.757   2.136   1.300
 9619TIP3    H128821   3.670   2.096   1.303
 9619TIP3    H228822   3.817   2.064   1.316
 9620TIP3   OH228823   0.251   3.234   5.185
 9620TIP3    H128824   0.310   3.159   5.188
 9620TIP3    H228825   0.218   3.243   5.274
 9621TIP3   OH228826   7.145   0.138   4.566
 9621TIP3    H128827   7.205   0.203   4.530
 9621TIP3    H228828   7.127   0.079   4.493
 9622TIP3   OH228829   1.176   2.079   0.245
 9622TIP3    H128830   1.106   2.116   0.191
 9622TIP3    H228831   1.131   2.043   0.321
 9623TIP3   OH228832   6.921   1.919   4.409
 9623TIP3    H128833   6.959   1.976   4.341
 9623TIP3    H228834   6.997   1.891   4.461
 9624TIP3   OH228835   3.888   2.391   3.953
 9624TIP3    H128836   3.835   2.394   4.033
 9624TIP3    H228837   3.939   2.472   3.955
 9625TIP3   OH228838   5.055   0.764   1.232
 9625TIP3    H128839   5.066   0.849   1.276
 9625TIP3    H228840   5.133   0.754   1.179
 9626TIP3   OH228841   5.688   2.598   5.642
 9626TIP3    H128842   5.781   2.577   5.630
 9626TIP3    H228843   5.661   2.636   5.558
 9627TIP3   OH228844   3.888   6.737   3.575
 9627TIP3    H128845   3.915   6.784   3.496
 9627TIP3    H228846   3.969   6.711   3.617
 9628TIP3   OH228847   1.442   4.117   4.601
 9628TIP3    H128848   1.437   4.119   4.506
 9628TIP3    H228849   1.466   4.027   4.622
 9629TIP3   OH228850   2.193   1.335   5.223
 9629TIP3    H128851   2.175   1.300   5.310
 9629TIP3    H228852   2.185   1.260   5.164
 9630TIP3   OH228853   7.040   0.066   4.303
 9630TIP3    H128854   7.055   0.144   4.250
 9630TIP3    H228855   6.973   0.017   4.255
 9631TIP3   OH228856   5.733   6.262   2.800
 9631TIP3    H128857   5.793   6.189   2.787
 9631TIP3    H228858   5.664   6.227   2.857
 9632TIP3   OH228859   1.813   0.503   5.664
 9632TIP3    H128860   1.823   0.587   5.619
 9632TIP3    H228861   1.721   0.481   5.654
 9633TIP3   OH228862   1.252   3.841   2.475
 9633TIP3    H128863   1.306   3.763   2.459
 9633TIP3    H228864   1.171   3.806   2.513
 9634TIP3   OH228865   1.326   0.310   1.831
 9634TIP3    H128866   1.374   0.355   1.901
 9634TIP3    H228867   1.385   0.316   1.755
 9635TIP3   OH228868   5.175   1.833   3.427
 9635TIP3    H128869   5.087   1.828   3.462
 9635TIP3    H228870   5.181   1.760   3.365
 9636TIP3   OH228871   1.229   3.877   0.202
 9636TIP3    H128872   1.173   3.815   0.250
 9636TIP3    H228873   1.279   3.922   0.269
 9637TIP3   OH228874   1.333   0.282   5.406
 9637TIP3    H128875   1.358   0.339   5.478
 9637TIP3    H228876   1.414   0.262   5.361
 9638TIP3   OH228877   2.299   0.009   2.043
 9638TIP3    H128878   2.204   0.021   2.042
 9638TIP3    H228879   2.321  -0.022   1.955
 9639TIP3   OH228880   0.811   5.030   1.319
 9639TIP3    H128881   0.777   4.986   1.241
 9639TIP3    H228882   0.892   4.984   1.340
 9640TIP3   OH228883   2.820   4.323   3.317
 9640TIP3    H128884   2.821   4.404   3.369
 9640TIP3    H228885   2.796   4.255   3.380
 9641TIP3   OH228886   1.326   0.592   0.979
 9641TIP3    H128887   1.390   0.654   1.013
 9641TIP3    H228888   1.337   0.514   1.033
 9642TIP3   OH228889   0.624   3.957   3.489
 9642TIP3    H128890   0.650   3.865   3.481
 9642TIP3    H228891   0.585   3.978   3.404
 9643TIP3   OH228892   1.336   6.055   5.197
 9643TIP3    H128893   1.412   6.090   5.243
 9643TIP3    H228894   1.288   6.132   5.168
 9644TIP3   OH228895   6.305   6.116   4.538
 9644TIP3    H128896   6.246   6.051   4.500
 9644TIP3    H228897   6.289   6.195   4.486
 9645TIP3   OH228898   0.469   1.034   5.816
 9645TIP3    H128899   0.490   1.125   5.835
 9645TIP3    H228900   0.451   0.996   5.902
 9646TIP3   OH228901   3.501   4.759   4.751
 9646TIP3    H128902   3.554   4.771   4.830
 9646TIP3    H228903   3.527   4.831   4.694
 9647TIP3   OH228904   6.848   1.142   4.085
 9647TIP3    H128905   6.773   1.198   4.103
 9647TIP3    H228906   6.824   1.096   4.004
 9648TIP3   OH228907   5.376   2.702   4.231
 9648TIP3    H128908   5.351   2.779   4.281
 9648TIP3    H228909   5.470   2.713   4.214
 9649TIP3   OH228910   1.975   2.421   4.236
 9649TIP3    H128911   1.901   2.453   4.288
 9649TIP3    H228912   2.042   2.489   4.244
 9650TIP3   OH228913   6.993   2.586   4.699
 9650TIP3    H128914   6.906   2.550   4.684
 9650TIP3    H228915   7.052   2.524   4.655
 9651TIP3   OH228916   2.378   2.093   5.837
 9651TIP3    H128917   2.465   2.104   5.876
 9651TIP3    H228918   2.320   2.077   5.912
 9652TIP3   OH228919   0.326   1.774   0.573
 9652TIP3    H128920   0.355   1.811   0.490
 9652TIP3    H228921   0.243   1.818   0.592
 9653TIP3   OH228922   2.789   6.190   4.283
 9653TIP3    H128923   2.719   6.197   4.348
 9653TIP3    H228924   2.843   6.269   4.296
 9654TIP3   OH228925   6.538   3.316   5.284
 9654TIP3    H128926   6.570   3.399   5.249
 9654TIP3    H228927   6.536   3.329   5.379
 9655TIP3   OH228928   4.577   5.700   3.562
 9655TIP3    H128929   4.498   5.714   3.614
 9655TIP3    H228930   4.649   5.711   3.623
 9656TIP3   OH228931   1.167   0.803   3.202
 9656TIP3    H128932   1.089   0.757   3.171
 9656TIP3    H228933   1.186   0.764   3.287
 9657TIP3   OH228934   5.766   0.908   2.714
 9657TIP3    H128935   5.762   0.933   2.622
 9657TIP3    H228936   5.736   0.985   2.762
 9658TIP3   OH228937   4.364   3.804   3.946
 9658TIP3    H128938   4.455   3.813   3.918
 9658TIP3    H228939   4.367   3.819   4.041
 9659TIP3   OH228940   2.878   6.720   4.379
 9659TIP3    H128941   2.876   6.815   4.379
 9659TIP3    H228942   2.808   6.694   4.319
 9660TIP3   OH228943   4.494   2.045   1.641
 9660TIP3    H128944   4.413   2.047   1.692
 9660TIP3    H228945   4.497   2.130   1.598
 9661TIP3   OH228946   1.381   5.734   1.362
 9661TIP3    H128947   1.396   5.805   1.301
 9661TIP3    H228948   1.286   5.727   1.368
 9662TIP3   OH228949   3.028   2.854   5.350
 9662TIP3    H128950   3.052   2.858   5.442
 9662TIP3    H228951   2.950   2.909   5.343
 9663TIP3   OH228952   2.895   4.388   1.086
 9663TIP3    H128953   2.956   4.434   1.027
 9663TIP3    H228954   2.837   4.457   1.118
 9664TIP3   OH228955   3.906   0.328   2.308
 9664TIP3    H128956   3.846   0.359   2.376
 9664TIP3    H228957   3.993   0.348   2.341
 9665TIP3   OH228958   4.695   3.438   4.387
 9665TIP3    H128959   4.687   3.528   4.354
 9665TIP3    H228960   4.758   3.444   4.459
 9666TIP3   OH228961   6.968   0.685   4.004
 9666TIP3    H128962   6.970   0.763   4.059
 9666TIP3    H228963   6.899   0.702   3.940
 9667TIP3   OH228964   4.349   5.743   3.702
 9667TIP3    H128965   4.312   5.670   3.751
 9667TIP3    H228966   4.307   5.821   3.740
 9668TIP3   OH228967   4.550   3.854   2.314
 9668TIP3    H128968   4.600   3.788   2.267
 9668TIP3    H228969   4.555   3.932   2.259
 9669TIP3   OH228970   1.414   2.265   1.464
 9669TIP3    H128971   1.442   2.299   1.380
 9669TIP3    H228972   1.392   2.173   1.447
 9670TIP3   OH228973   2.713   0.580   2.996
 9670TIP3    H128974   2.692   0.493   3.030
 9670TIP3    H228975   2.667   0.641   3.055
 9671TIP3   OH228976   0.439   5.035   1.328
 9671TIP3    H128977   0.359   5.045   1.277
 9671TIP3    H228978   0.480   5.121   1.325
 9672TIP3   OH228979   4.721   5.662   4.300
 9672TIP3    H128980   4.658   5.702   4.359
 9672TIP3    H228981   4.694   5.571   4.294
 9673TIP3   OH228982   5.952   3.997   2.716
 9673TIP3    H128983   5.930   3.933   2.785
 9673TIP3    H228984   5.898   4.073   2.737
 9674TIP3   OH228985   3.816   2.677   4.829
 9674TIP3    H128986   3.787   2.761   4.863
 9674TIP3    H228987   3.900   2.695   4.787
 9675TIP3   OH228988   5.968   5.366   4.416
 9675TIP3    H128989   5.948   5.281   4.377
 9675TIP3    H228990   5.970   5.427   4.343
 9676TIP3   OH228991   6.384   5.066   1.044
 9676TIP3    H128992   6.415   5.156   1.049
 9676TIP3    H228993   6.291   5.072   1.066
 9677TIP3   OH228994   5.211   3.285   2.931
 9677TIP3    H128995   5.136   3.287   2.871
 9677TIP3    H228996   5.287   3.293   2.873
 9678TIP3   OH228997   0.871   0.235   5.612
 9678TIP3    H128998   0.953   0.229   5.564
 9678TIP3    H228999   0.895   0.219   5.704
 9679TIP3   OH229000   1.447   3.626   0.190
 9679TIP3    H129001   1.441   3.717   0.218
 9679TIP3    H229002   1.504   3.584   0.254
 9680TIP3   OH229003   5.701   3.011   4.745
 9680TIP3    H129004   5.789   2.975   4.734
 9680TIP3    H229005   5.679   3.048   4.660
 9681TIP3   OH229006   4.608   3.232   0.336
 9681TIP3    H129007   4.539   3.258   0.274
 9681TIP3    H229008   4.680   3.293   0.319
 9682TIP3   OH229009   0.517   0.963   3.041
 9682TIP3    H129010   0.513   0.981   2.947
 9682TIP3    H229011   0.492   0.871   3.049
 9683TIP3   OH229012   2.242   2.122   0.993
 9683TIP3    H129013   2.197   2.058   0.937
 9683TIP3    H229014   2.171   2.174   1.030
 9684TIP3   OH229015   0.240   0.487   0.304
 9684TIP3    H129016   0.271   0.577   0.295
 9684TIP3    H229017   0.262   0.464   0.394
 9685TIP3   OH229018   6.404   5.484   1.256
 9685TIP3    H129019   6.453   5.557   1.218
 9685TIP3    H229020   6.410   5.498   1.351
 9686TIP3   OH229021   5.016   2.245   0.956
 9686TIP3    H129022   5.000   2.301   0.881
 9686TIP3    H229023   5.087   2.289   1.004
 9687TIP3   OH229024   0.228   5.699   0.564
 9687TIP3    H129025   0.267   5.612   0.578
 9687TIP3    H229026   0.134   5.682   0.559
 9688TIP3   OH229027   3.137   6.504   4.215
 9688TIP3    H129028   3.093   6.533   4.135
 9688TIP3    H229029   3.087   6.426   4.242
 9689TIP3   OH229030   5.961   1.044   1.930
 9689TIP3    H129031   5.975   1.138   1.916
 9689TIP3    H229032   5.947   1.009   1.842
 9690TIP3   OH229033   5.468   1.796   5.785
 9690TIP3    H129034   5.484   1.774   5.694
 9690TIP3    H229035   5.526   1.871   5.802
 9691TIP3   OH229036   6.421   0.239   5.203
 9691TIP3    H129037   6.457   0.325   5.223
 9691TIP3    H229038   6.458   0.215   5.119
 9692TIP3   OH229039   2.848   0.155   1.767
 9692TIP3    H129040   2.769   0.144   1.821
 9692TIP3    H229041   2.870   0.066   1.738
 9693TIP3   OH229042   3.209   4.207   1.298
 9693TIP3    H129043   3.133   4.223   1.355
 9693TIP3    H229044   3.172   4.171   1.218
 9694TIP3   OH229045   1.902   2.882   4.220
 9694TIP3    H129046   1.959   2.950   4.182
 9694TIP3    H229047   1.911   2.893   4.315
 9695TIP3   OH229048   4.610   2.478   1.406
 9695TIP3    H129049   4.696   2.521   1.405
 9695TIP3    H229050   4.551   2.543   1.444
 9696TIP3   OH229051   3.162   6.249   0.618
 9696TIP3    H129052   3.130   6.322   0.565
 9696TIP3    H229053   3.083   6.198   0.638
 9697TIP3   OH229054   3.872   6.260   1.235
 9697TIP3    H129055   3.819   6.340   1.243
 9697TIP3    H229056   3.958   6.285   1.269
 9698TIP3   OH229057   4.557   1.543   4.308
 9698TIP3    H129058   4.603   1.462   4.329
 9698TIP3    H229059   4.566   1.597   4.386
 9699TIP3   OH229060   0.916   5.175   2.989
 9699TIP3    H129061   0.944   5.223   2.911
 9699TIP3    H229062   0.961   5.090   2.983
 9700TIP3   OH229063   4.180   2.487   0.781
 9700TIP3    H129064   4.275   2.479   0.788
 9700TIP3    H229065   4.150   2.497   0.871
 9701TIP3   OH229066   7.078   1.253   4.657
 9701TIP3    H129067   7.149   1.293   4.606
 9701TIP3    H229068   7.121   1.219   4.735
 9702TIP3   OH229069   7.217   5.921   5.547
 9702TIP3    H129070   7.152   5.925   5.618
 9702TIP3    H229071   7.181   5.856   5.486
 9703TIP3   OH229072   4.786   4.246   0.077
 9703TIP3    H129073   4.698   4.225   0.111
 9703TIP3    H229074   4.826   4.298   0.147
 9704TIP3   OH229075   0.969   3.273   3.003
 9704TIP3    H129076   0.888   3.276   3.053
 9704TIP3    H229077   0.969   3.355   2.953
 9705TIP3   OH229078   1.065   3.261   1.956
 9705TIP3    H129079   1.079   3.353   1.979
 9705TIP3    H229080   0.971   3.248   1.965
 9706TIP3   OH229081   4.850   6.533   5.245
 9706TIP3    H129082   4.760   6.547   5.274
 9706TIP3    H229083   4.856   6.581   5.162
 9707TIP3   OH229084   3.021   3.952   2.694
 9707TIP3    H129085   3.028   3.871   2.744
 9707TIP3    H229086   2.931   3.982   2.708
 9708TIP3   OH229087   6.367   4.900   4.338
 9708TIP3    H129088   6.442   4.941   4.381
 9708TIP3    H229089   6.406   4.840   4.274
 9709TIP3   OH229090   6.784   3.201   0.959
 9709TIP3    H129091   6.828   3.120   0.934
 9709TIP3    H229092   6.691   3.185   0.942
 9710TIP3   OH229093   4.856   1.790   2.233
 9710TIP3    H129094   4.860   1.699   2.262
 9710TIP3    H229095   4.933   1.801   2.176
 9711TIP3   OH229096   1.433   5.338   5.147
 9711TIP3    H129097   1.415   5.374   5.234
 9711TIP3    H229098   1.348   5.304   5.118
 9712TIP3   OH229099   4.969   3.316   5.340
 9712TIP3    H129100   5.059   3.288   5.359
 9712TIP3    H229101   4.919   3.235   5.335
 9713TIP3   OH229102   4.304   2.173   1.866
 9713TIP3    H129103   4.372   2.114   1.898
 9713TIP3    H229104   4.294   2.239   1.936
 9714TIP3   OH229105   6.715   5.455   0.720
 9714TIP3    H129106   6.662   5.419   0.649
 9714TIP3    H229107   6.726   5.382   0.781
 9715TIP3   OH229108   0.594   0.379   2.799
 9715TIP3    H129109   0.521   0.442   2.794
 9715TIP3    H229110   0.672   0.434   2.808
 9716TIP3   OH229111   4.804   6.498   0.205
 9716TIP3    H129112   4.818   6.591   0.187
 9716TIP3    H229113   4.846   6.484   0.290
 9717TIP3   OH229114   0.749   2.882   2.529
 9717TIP3    H129115   0.673   2.901   2.583
 9717TIP3    H229116   0.805   2.959   2.538
 9718TIP3   OH229117   0.362   4.899   5.542
 9718TIP3    H129118   0.441   4.878   5.492
 9718TIP3    H229119   0.376   4.859   5.628
 9719TIP3   OH229120   3.345   2.270   0.333
 9719TIP3    H129121   3.332   2.288   0.426
 9719TIP3    H229122   3.434   2.300   0.315
 9720TIP3   OH229123   4.429   0.931   1.933
 9720TIP3    H129124   4.448   0.888   1.849
 9720TIP3    H229125   4.448   1.023   1.918
 9721TIP3   OH229126   6.006   4.386   5.160
 9721TIP3    H129127   6.044   4.423   5.081
 9721TIP3    H229128   6.025   4.451   5.228
 9722TIP3   OH229129   6.821   4.411   1.322
 9722TIP3    H129130   6.888   4.446   1.381
 9722TIP3    H229131   6.742   4.461   1.343
 9723TIP3   OH229132   1.815   5.370   3.541
 9723TIP3    H129133   1.752   5.352   3.471
 9723TIP3    H229134   1.899   5.340   3.506
 9724TIP3   OH229135   4.353   6.121   2.021
 9724TIP3    H129136   4.410   6.189   1.986
 9724TIP3    H229137   4.330   6.152   2.109
 9725TIP3   OH229138   5.783   1.375   2.672
 9725TIP3    H129139   5.833   1.306   2.715
 9725TIP3    H229140   5.766   1.342   2.584
 9726TIP3   OH229141   5.302   4.056   0.223
 9726TIP3    H129142   5.376   3.998   0.244
 9726TIP3    H229143   5.292   4.048   0.129
 9727TIP3   OH229144   3.274   2.329   3.741
 9727TIP3    H129145   3.365   2.299   3.737
 9727TIP3    H229146   3.272   2.404   3.681
 9728TIP3   OH229147   0.686   0.586   2.958
 9728TIP3    H129148   0.716   0.667   3.000
 9728TIP3    H229149   0.748   0.519   2.986
 9729TIP3   OH229150   1.814   5.969   2.778
 9729TIP3    H129151   1.740   6.023   2.750
 9729TIP3    H229152   1.856   5.942   2.696
 9730TIP3   OH229153   2.979   0.202   3.593
 9730TIP3    H129154   3.036   0.125   3.597
 9730TIP3    H229155   2.955   0.218   3.685
 9731TIP3   OH229156   3.265   6.288   5.163
 9731TIP3    H129157   3.184   6.241   5.182
 9731TIP3    H229158   3.332   6.240   5.212
 9732TIP3   OH229159   0.882   3.774   4.678
 9732TIP3    H129160   0.851   3.715   4.610
 9732TIP3    H229161   0.963   3.811   4.644
 9733TIP3   OH229162   5.342   4.172   2.001
 9733TIP3    H129163   5.342   4.177   1.905
 9733TIP3    H229164   5.267   4.116   2.022
 9734TIP3   OH229165   6.513   2.026   1.096
 9734TIP3    H129166   6.417   2.023   1.087
 9734TIP3    H229167   6.528   2.079   1.174
 9735TIP3   OH229168   1.590   1.478   3.293
 9735TIP3    H129169   1.649   1.533   3.243
 9735TIP3    H229170   1.578   1.399   3.240
 9736TIP3   OH229171   5.078   3.732   0.598
 9736TIP3    H129172   5.090   3.753   0.506
 9736TIP3    H229173   4.983   3.735   0.611
 9737TIP3   OH229174   2.272   4.950   4.158
 9737TIP3    H129175   2.235   5.032   4.189
 9737TIP3    H229176   2.203   4.885   4.173
 9738TIP3   OH229177   0.976   4.963   1.940
 9738TIP3    H129178   1.067   4.932   1.939
 9738TIP3    H229179   0.949   4.953   2.031
 9739TIP3   OH229180   2.508   0.491   4.234
 9739TIP3    H129181   2.538   0.582   4.242
 9739TIP3    H229182   2.559   0.456   4.161
 9740TIP3   OH229183   1.691   6.347   3.348
 9740TIP3    H129184   1.639   6.276   3.387
 9740TIP3    H229185   1.780   6.329   3.377
 9741TIP3   OH229186   1.035   1.457   3.321
 9741TIP3    H129187   0.979   1.380   3.316
 9741TIP3    H229188   1.035   1.494   3.233
 9742TIP3   OH229189   4.712   2.423   1.704
 9742TIP3    H129190   4.711   2.431   1.799
 9742TIP3    H229191   4.776   2.488   1.675
 9743TIP3   OH229192   4.114   6.696   2.168
 9743TIP3    H129193   4.095   6.770   2.110
 9743TIP3    H229194   4.179   6.644   2.120
 9744TIP3   OH229195   4.965   0.820   3.583
 9744TIP3    H129196   4.997   0.880   3.651
 9744TIP3    H229197   4.870   0.827   3.588
 9745TIP3   OH229198   6.153   2.840   2.223
 9745TIP3    H129199   6.174   2.758   2.267
 9745TIP3    H229200   6.134   2.901   2.294
 9746TIP3   OH229201   4.901   2.694   1.913
 9746TIP3    H129202   4.961   2.748   1.965
 9746TIP3    H229203   4.950   2.675   1.833
 9747TIP3   OH229204   0.153   2.722   5.384
 9747TIP3    H129205   0.061   2.695   5.395
 9747TIP3    H229206   0.149   2.817   5.376
 9748TIP3   OH229207   6.482   6.387   5.440
 9748TIP3    H129208   6.438   6.472   5.445
 9748TIP3    H229209   6.552   6.400   5.377
 9749TIP3   OH229210   4.511   4.768   0.476
 9749TIP3    H129211   4.540   4.789   0.564
 9749TIP3    H229212   4.496   4.674   0.477
   7.22066   6.80770   5.89563   0.00000   0.00000  -2.40689   0.00000  -2.40689  -3.40385
